<event>
 6    1  0.2959206E-003  0.6495855E+03  0.7818608E-02  0.9807557E-01
          1   -1    0    0  502    0  0.00000000000E+00  0.00000000000E+00  0.10568814264E+03  0.10568814264E+03  0.00000000000E+00 0.  1.
         13   -1    0    0    0    0 -0.00000000000E+00 -0.00000000000E+00 -0.10000000000E+04  0.10000000000E+04  0.00000000000E+00 0.  1.
    9000005    2    1    2  501    0  0.64060646803E-02 -0.17495773050E-01 -0.89450918364E+03  0.11054899387E+04  0.64958550214E+03 0.  0.
         13    1    3    3    0    0 -0.28509859629E+03  0.15044717531E+03 -0.37980612417E+03  0.49816488648E+03  0.00000000000E+00 0.  1.
          3    1    3    3  501    0  0.28510500236E+03 -0.15046467108E+03 -0.51470305948E+03  0.60732505222E+03  0.00000000000E+00 0.  1.
         21    1    1    2  502  501 -0.64060646803E-02  0.17495773050E-01  0.19732628343E+00  0.19820394010E+00  0.00000000000E+00 0.  1.
<mgrwt>
<rscale>  1 0.64958550E+03</rscale>
<asrwt>0</asrwt>
<pdfrwt beam="1">  1        1 0.38432133E+00 0.64958550E+03</pdfrwt>
<pdfrwt beam="2">0</pdfrwt>
<totfact> 0.15705322E+00</totfact>
</mgrwt>
</event>
<event>
 6    1  0.2959206E-003  0.6522004E+03  0.7818608E-02  0.9802659E-01
          1   -1    0    0  502    0  0.00000000000E+00  0.00000000000E+00  0.10634135171E+03  0.10634135171E+03  0.00000000000E+00 0.  1.
         13   -1    0    0    0    0 -0.00000000000E+00 -0.00000000000E+00 -0.10000000000E+04  0.10000000000E+04  0.00000000000E+00 0.  1.
    9000005    2    1    2  501    0  0.87466200256E-05 -0.34507415485E-05 -0.89365866183E+03  0.11063413352E+04  0.65220038804E+03 0.  0.
         13    1    3    3    0    0  0.82777480221E+02 -0.18500979003E+02 -0.98096028194E+03  0.98462047114E+03  0.00000000000E+00 0.  1.
          1    1    3    3  501    0 -0.82777471475E+02  0.18500975552E+02  0.87301620106E+02  0.12172086408E+03  0.00000000000E+00 0.  1.
         21    1    1    2  502  501 -0.87466200317E-05  0.34507415469E-05  0.13536617910E-04  0.16481838600E-04  0.00000000000E+00 0.  1.
<mgrwt>
<rscale>  1 0.65220039E+03</rscale>
<asrwt>0</asrwt>
<pdfrwt beam="1">  1        1 0.38669664E+00 0.65220039E+03</pdfrwt>
<pdfrwt beam="2">0</pdfrwt>
<totfact> 0.15322435E+00</totfact>
</mgrwt>
</event>
<event>
 6    1  0.2959206E-003  0.6083551E+03  0.7818608E-02  0.9888222E-01
          1   -1    0    0  502    0  0.00000000000E+00  0.00000000000E+00  0.92544858126E+02  0.92544858126E+02  0.00000000000E+00 0.  1.
         13   -1    0    0    0    0 -0.00000000000E+00 -0.00000000000E+00 -0.10000000000E+04  0.10000000000E+04  0.00000000000E+00 0.  1.
    9000005    2    1    2  501    0  0.70316233055E-03 -0.50542576739E-03 -0.90747601795E+03  0.10925239641E+04  0.60835506817E+03 0.  0.
         13    1    3    3    0    0  0.16169797780E+03  0.23457480286E+03 -0.64508318916E+03  0.70519777020E+03  0.00000000000E+00 0.  1.
          3    1    3    3  501    0 -0.16169727463E+03 -0.23457530828E+03 -0.26239282879E+03  0.38732619390E+03  0.00000000000E+00 0.  1.
         21    1    1    2  502  501 -0.70316233057E-03  0.50542576737E-03  0.20876076278E-01  0.20894029128E-01  0.00000000000E+00 0.  1.
<mgrwt>
<rscale>  1 0.60835507E+03</rscale>
<asrwt>0</asrwt>
<pdfrwt beam="1">  1        1 0.33652747E+00 0.60835507E+03</pdfrwt>
<pdfrwt beam="2">0</pdfrwt>
<totfact> 0.25611669E+00</totfact>
</mgrwt>
</event>
<event>
 6    1  0.2959206E-003  0.6639972E+03  0.7818608E-02  0.9780863E-01
          1   -1    0    0  502    0  0.00000000000E+00  0.00000000000E+00  0.11044637217E+03  0.11044637217E+03  0.00000000000E+00 0.  1.
         13   -1    0    0    0    0 -0.00000000000E+00 -0.00000000000E+00 -0.10000000000E+04  0.10000000000E+04  0.00000000000E+00 0.  1.
    9000005    2    1    2  501    0 -0.22855827449E+00  0.18361591222E+00 -0.88966448851E+03  0.11101329335E+04  0.66399709491E+03 0.  0.
         13    1    3    3    0    0  0.26518750072E+03  0.94917648010E+02 -0.15110945809E+03  0.31963704223E+03  0.00000000000E+00 0.  1.
          1    1    3    3  501    0 -0.26541605899E+03 -0.94734032098E+02 -0.73855503042E+03  0.79049589130E+03  0.00000000000E+00 0.  1.
         21    1    1    2  502  501  0.22855827449E+00 -0.18361591222E+00  0.11086067715E+00  0.31343863482E+00  0.00000000000E+00 0. -1.
<mgrwt>
<rscale>  1 0.66399716E+03</rscale>
<asrwt>0</asrwt>
<pdfrwt beam="1">  1        1 0.40162402E+00 0.66399716E+03</pdfrwt>
<pdfrwt beam="2">0</pdfrwt>
<totfact> 0.13122701E+00</totfact>
</mgrwt>
</event>
<event>
 6    1  0.2959206E-003  0.6574336E+03  0.7818608E-02  0.9792930E-01
          1   -1    0    0  502    0  0.00000000000E+00  0.00000000000E+00  0.15830527958E+03  0.15830527958E+03  0.00000000000E+00 0.  1.
         13   -1    0    0    0    0 -0.00000000000E+00 -0.00000000000E+00 -0.10000000000E+04  0.10000000000E+04  0.00000000000E+00 0.  1.
    9000005    2    1    2  501    0 -0.28419408010E+02  0.16074231774E+02 -0.88599642878E+03  0.11032717894E+04  0.65662236162E+03 0.  0.
         13    1    3    3    0    0  0.25039356310E+03  0.19925187031E+03 -0.37441023513E+03  0.49252539878E+03  0.00000000000E+00 0.  1.
          3    1    3    3  501    0 -0.27881297111E+03 -0.18317763854E+03 -0.51158619365E+03  0.61074639062E+03  0.00000000000E+00 0.  1.
         21    1    1    2  502  501  0.28419408010E+02 -0.16074231774E+02  0.44301708363E+02  0.55033490192E+02  0.00000000000E+00 0. -1.
<mgrwt>
<rscale>  1 0.65743362E+03</rscale>
<asrwt>0</asrwt>
<pdfrwt beam="1">  1        1 0.57565678E+00 0.65743362E+03</pdfrwt>
<pdfrwt beam="2">0</pdfrwt>
<totfact> 0.19256924E-01</totfact>
</mgrwt>
</event>
<event>
 6    1  0.2959206E-003  0.6543175E+03  0.7818608E-02  0.9798711E-01
          1   -1    0    0  502    0  0.00000000000E+00  0.00000000000E+00  0.10703347325E+03  0.10703347325E+03  0.00000000000E+00 0.  1.
         13   -1    0    0    0    0 -0.00000000000E+00 -0.00000000000E+00 -0.10000000000E+04  0.10000000000E+04  0.00000000000E+00 0.  1.
    9000005    2    1    2  501    0  0.13061149869E-02  0.48087810836E-03 -0.89296616778E+03  0.11070320359E+04  0.65431747009E+03 0.  0.
         13    1    3    3    0    0  0.19565541424E+03 -0.13200000856E+03 -0.82979228228E+03  0.86270520754E+03  0.00000000000E+00 0.  1.
          1    1    3    3  501    0 -0.19565410813E+03  0.13200048944E+03 -0.63173885496E+02  0.24432682834E+03  0.00000000000E+00 0.  1.
         21    1    1    2  502  501 -0.13061149869E-02 -0.48087810836E-03 -0.35897255659E-03  0.14373730937E-02  0.00000000000E+00 0. -1.
<mgrwt>
<rscale>  1 0.65431747E+03</rscale>
<asrwt>0</asrwt>
<pdfrwt beam="1">  1        1 0.38921345E+00 0.65431747E+03</pdfrwt>
<pdfrwt beam="2">0</pdfrwt>
<totfact> 0.14928222E+00</totfact>
</mgrwt>
</event>
<event>
 6    1  0.2959206E-003  0.6517975E+03  0.7818608E-02  0.9803412E-01
          1   -1    0    0  502    0  0.00000000000E+00  0.00000000000E+00  0.11838365852E+03  0.11838365852E+03  0.00000000000E+00 0.  1.
         13   -1    0    0    0    0 -0.00000000000E+00 -0.00000000000E+00 -0.10000000000E+04  0.10000000000E+04  0.00000000000E+00 0.  1.
    9000005    2    1    2  501    0  0.36290986933E+01  0.27389856652E+01 -0.89331861097E+03  0.11058291569E+04  0.65178164375E+03 0.  0.
         13    1    3    3    0    0  0.11675987027E+03 -0.79511027614E+02  0.51767832120E+02  0.15044859341E+03  0.00000000000E+00 0.  1.
          3    1    3    3  501    0 -0.11313077158E+03  0.82250013279E+02 -0.94508644309E+03  0.95538056348E+03  0.00000000000E+00 0.  1.
         21    1    1    2  502  501 -0.36290986933E+01 -0.27389856652E+01  0.11702269494E+02  0.12554501627E+02  0.00000000000E+00 0. -1.
<mgrwt>
<rscale>  1 0.65179750E+03</rscale>
<asrwt>0</asrwt>
<pdfrwt beam="1">  1        1 0.43048694E+00 0.65179750E+03</pdfrwt>
<pdfrwt beam="2">0</pdfrwt>
<totfact> 0.97531130E-01</totfact>
</mgrwt>
</event>
<event>
 6    1  0.2959206E-003  0.6512566E+03  0.7818608E-02  0.9804424E-01
          1   -1    0    0  502    0  0.00000000000E+00  0.00000000000E+00  0.10649326409E+03  0.10649326409E+03  0.00000000000E+00 0.  1.
         13   -1    0    0    0    0 -0.00000000000E+00 -0.00000000000E+00 -0.10000000000E+04  0.10000000000E+04  0.00000000000E+00 0.  1.
    9000005    2    1    2  501    0 -0.81106400879E-01 -0.15421473849E+00 -0.89394787955E+03  0.11060189560E+04  0.65125654652E+03 0.  0.
         13    1    3    3    0    0 -0.22206868381E+03 -0.20873964185E+03 -0.25198212353E+03  0.39545129787E+03  0.00000000000E+00 0.  1.
          1    1    3    3  501    0  0.22198757741E+03  0.20858542711E+03 -0.64196575601E+03  0.71056765816E+03  0.00000000000E+00 0.  1.
         21    1    1    2  502  501  0.81106400879E-01  0.15421473849E+00  0.44114363398E+00  0.47430806405E+00  0.00000000000E+00 0.  1.
<mgrwt>
<rscale>  1 0.65125657E+03</rscale>
<asrwt>0</asrwt>
<pdfrwt beam="1">  1        1 0.38724905E+00 0.65125657E+03</pdfrwt>
<pdfrwt beam="2">0</pdfrwt>
<totfact> 0.15239045E+00</totfact>
</mgrwt>
</event>
<event>
 6    1  0.2959206E-003  0.6489239E+03  0.7818608E-02  0.9808801E-01
          1   -1    0    0  502    0  0.00000000000E+00  0.00000000000E+00  0.10707528115E+03  0.10707528115E+03  0.00000000000E+00 0.  1.
         13   -1    0    0    0    0 -0.00000000000E+00 -0.00000000000E+00 -0.10000000000E+04  0.10000000000E+04  0.00000000000E+00 0.  1.
    9000005    2    1    2  501    0 -0.68711861705E+00 -0.20539805328E+00 -0.89464515308E+03  0.11052113567E+04  0.64892347681E+03 0.  0.
         13    1    3    3    0    0 -0.25895206396E+03  0.50568229257E+02 -0.12529473018E+03  0.29208232855E+03  0.00000000000E+00 0.  1.
          3    1    3    3  501    0  0.25826494535E+03 -0.50773627311E+02 -0.76935042290E+03  0.81312902816E+03  0.00000000000E+00 0.  1.
         21    1    1    2  502  501  0.68711861705E+00  0.20539805328E+00  0.17204342304E+01  0.18639244339E+01  0.00000000000E+00 0.  1.
<mgrwt>
<rscale>  1 0.64892387E+03</rscale>
<asrwt>0</asrwt>
<pdfrwt beam="1">  1        1 0.38936548E+00 0.64892387E+03</pdfrwt>
<pdfrwt beam="2">0</pdfrwt>
<totfact> 0.14920030E+00</totfact>
</mgrwt>
</event>
<event>
 6    1  0.2959206E-003  0.6489583E+03  0.7818608E-02  0.9808736E-01
          1   -1    0    0  502    0  0.00000000000E+00  0.00000000000E+00  0.10528747281E+03  0.10528747281E+03  0.00000000000E+00 0.  1.
         13   -1    0    0    0    0 -0.00000000000E+00 -0.00000000000E+00 -0.10000000000E+04  0.10000000000E+04  0.00000000000E+00 0.  1.
    9000005    2    1    2  501    0  0.27300156938E-03 -0.27334931417E-04 -0.89471325607E+03  0.11052866940E+04  0.64895829246E+03 0.  0.
         13    1    3    3    0    0 -0.21359138200E+03  0.24413233637E+03 -0.46106412802E+03  0.56373930701E+03  0.00000000000E+00 0.  1.
          3    1    3    3  501    0  0.21359165500E+03 -0.24413236371E+03 -0.43364912805E+03  0.54154738699E+03  0.00000000000E+00 0.  1.
         21    1    1    2  502  501 -0.27300156938E-03  0.27334931432E-04  0.72888014669E-03  0.77880891341E-03  0.00000000000E+00 0.  1.
<mgrwt>
<rscale>  1 0.64895829E+03</rscale>
<asrwt>0</asrwt>
<pdfrwt beam="1">  1        1 0.38286434E+00 0.64895829E+03</pdfrwt>
<pdfrwt beam="2">0</pdfrwt>
<totfact> 0.15941790E+00</totfact>
</mgrwt>
</event>
<event>
 6    1  0.2959206E-003  0.6565741E+03  0.7818608E-02  0.9794521E-01
          1   -1    0    0  502    0  0.00000000000E+00  0.00000000000E+00  0.10783923417E+03  0.10783923417E+03  0.00000000000E+00 0.  1.
         13   -1    0    0    0    0 -0.00000000000E+00 -0.00000000000E+00 -0.10000000000E+04  0.10000000000E+04  0.00000000000E+00 0.  1.
    9000005    2    1    2  501    0  0.64270054615E-01  0.25329430415E-01 -0.89220723727E+03  0.11077559767E+04  0.65657409697E+03 0.  0.
         13    1    3    3    0    0  0.23324859808E+02 -0.21870265928E+03 -0.34917504134E+02  0.22269740536E+03  0.00000000000E+00 0.  1.
          1    1    3    3  501    0 -0.23260589753E+02  0.21872798871E+03 -0.85728973313E+03  0.88505857129E+03  0.00000000000E+00 0.  1.
         21    1    1    2  502  501 -0.64270054615E-01 -0.25329430415E-01  0.46471437493E-01  0.83257518987E-01  0.00000000000E+00 0. -1.
<mgrwt>
<rscale>  1 0.65657410E+03</rscale>
<asrwt>0</asrwt>
<pdfrwt beam="1">  1        1 0.39214350E+00 0.65657410E+03</pdfrwt>
<pdfrwt beam="2">0</pdfrwt>
<totfact> 0.14481962E+00</totfact>
</mgrwt>
</event>
<event>
 6    1  0.2959206E-003  0.6472459E+03  0.7818608E-02  0.9811961E-01
          1   -1    0    0  502    0  0.00000000000E+00  0.00000000000E+00  0.10473189304E+03  0.10473189304E+03  0.00000000000E+00 0.  1.
         13   -1    0    0    0    0 -0.00000000000E+00 -0.00000000000E+00 -0.10000000000E+04  0.10000000000E+04  0.00000000000E+00 0.  1.
    9000005    2    1    2  501    0 -0.51442060453E-04  0.42257645291E-04 -0.89526816130E+03  0.11047318071E+04  0.64724592311E+03 0.  0.
         13    1    3    3    0    0  0.29478086266E+03 -0.42643349271E+02 -0.23161793047E+03  0.37730767013E+03  0.00000000000E+00 0.  1.
          1    1    3    3  501    0 -0.29478091410E+03  0.42643391529E+02 -0.66365023084E+03  0.72742413697E+03  0.00000000000E+00 0.  1.
         21    1    1    2  502  501  0.51442060471E-04 -0.42257645294E-04  0.54341410545E-04  0.85935924219E-04  0.00000000000E+00 0. -1.
<mgrwt>
<rscale>  1 0.64724592E+03</rscale>
<asrwt>0</asrwt>
<pdfrwt beam="1">  1        1 0.38084405E+00 0.64724592E+03</pdfrwt>
<pdfrwt beam="2">0</pdfrwt>
<totfact> 0.16277817E+00</totfact>
</mgrwt>
</event>
<event>
 6    1  0.2959206E-003  0.6215997E+03  0.7818608E-02  0.9861580E-01
          1   -1    0    0  502    0  0.00000000000E+00  0.00000000000E+00  0.96596758542E+02  0.96596758542E+02  0.00000000000E+00 0.  1.
         13   -1    0    0    0    0 -0.00000000000E+00 -0.00000000000E+00 -0.10000000000E+04  0.10000000000E+04  0.00000000000E+00 0.  1.
    9000005    2    1    2  501    0  0.57220067345E-03  0.60532559360E-04 -0.90340288847E+03  0.10965960835E+04  0.62159970355E+03 0.  0.
         13    1    3    3    0    0 -0.26163441347E+03 -0.15043148127E+03 -0.58270274559E+03  0.65621999862E+03  0.00000000000E+00 0.  1.
          3    1    3    3  501    0  0.26163498567E+03  0.15043154180E+03 -0.32070014288E+03  0.44037608489E+03  0.00000000000E+00 0.  1.
         21    1    1    2  502  501 -0.57220067341E-03 -0.60532559356E-04 -0.35298699861E-03  0.67503897857E-03  0.00000000000E+00 0. -1.
<mgrwt>
<rscale>  1 0.62159970E+03</rscale>
<asrwt>0</asrwt>
<pdfrwt beam="1">  1        1 0.35126168E+00 0.62159970E+03</pdfrwt>
<pdfrwt beam="2">0</pdfrwt>
<totfact> 0.22046485E+00</totfact>
</mgrwt>
</event>
<event>
 6    1  0.4224442E-003  0.6417524E+03  0.7818608E-02  0.9822380E-01
          1   -1    0    0  502    0  0.00000000000E+00  0.00000000000E+00  0.10296152752E+03  0.10296152752E+03  0.00000000000E+00 0.  1.
         13   -1    0    0    0    0 -0.00000000000E+00 -0.00000000000E+00 -0.10000000000E+04  0.10000000000E+04  0.00000000000E+00 0.  1.
    9000005    2    1    2  501    0 -0.71369796650E-06  0.32608494536E-05 -0.89703847156E+03  0.11029615241E+04  0.64175236975E+03 0.  0.
         13    1    3    3    0    0  0.74443205481E+01  0.16785386164E+02 -0.99909629329E+03  0.99926501508E+03  0.00000000000E+00 0.  1.
          3    1    3    3  501    0 -0.74443212618E+01 -0.16785382903E+02  0.10205782173E+03  0.10369650898E+03  0.00000000000E+00 0.  1.
         21    1    1    2  502  501  0.71369796613E-06 -0.32608494559E-05 -0.91741179524E-06  0.34618128723E-05  0.00000000000E+00 0. -1.
<mgrwt>
<rscale>  1 0.64175237E+03</rscale>
<asrwt>0</asrwt>
<pdfrwt beam="1">  1        1 0.37440634E+00 0.64175237E+03</pdfrwt>
<pdfrwt beam="2">0</pdfrwt>
<totfact> 0.17394273E+00</totfact>
</mgrwt>
</event>
<event>
 6    1  0.2959206E-003  0.6512794E+03  0.7818608E-02  0.9804381E-01
          1   -1    0    0  502    0  0.00000000000E+00  0.00000000000E+00  0.10706234014E+03  0.10706234014E+03  0.00000000000E+00 0.  1.
         13   -1    0    0    0    0 -0.00000000000E+00 -0.00000000000E+00 -0.10000000000E+04  0.10000000000E+04  0.00000000000E+00 0.  1.
    9000005    2    1    2  501    0  0.12522003765E+00  0.45810561781E-01 -0.89395397611E+03  0.11060373146E+04  0.65127936562E+03 0.  0.
         13    1    3    3    0    0 -0.23561658851E+03  0.19451236573E+03 -0.25577353970E+03  0.39845996137E+03  0.00000000000E+00 0.  1.
          1    1    3    3  501    0  0.23574180854E+03 -0.19446655517E+03 -0.63818043641E+03  0.70757735322E+03  0.00000000000E+00 0.  1.
         21    1    1    2  502  501 -0.12522003765E+00 -0.45810561781E-01  0.10163162438E+01  0.10250255474E+01  0.00000000000E+00 0.  1.
<mgrwt>
<rscale>  1 0.65127938E+03</rscale>
<asrwt>0</asrwt>
<pdfrwt beam="1">  1        1 0.38931842E+00 0.65127938E+03</pdfrwt>
<pdfrwt beam="2">0</pdfrwt>
<totfact> 0.14920648E+00</totfact>
</mgrwt>
</event>
<event>
 6    1  0.2959206E-003  0.6451576E+03  0.7818608E-02  0.9815908E-01
          1   -1    0    0  502    0  0.00000000000E+00  0.00000000000E+00  0.11507871931E+03  0.11507871931E+03  0.00000000000E+00 0.  1.
         13   -1    0    0    0    0 -0.00000000000E+00 -0.00000000000E+00 -0.10000000000E+04  0.10000000000E+04  0.00000000000E+00 0.  1.
    9000005    2    1    2  501    0  0.15515952493E-01  0.20229861712E+00 -0.89594187840E+03  0.11040562541E+04  0.64515759437E+03 0.  0.
         13    1    3    3    0    0  0.25032633309E+03  0.16038758280E+03 -0.66251463842E+03  0.72616327081E+03  0.00000000000E+00 0.  1.
          3    1    3    3  501    0 -0.25031081714E+03 -0.16018528419E+03 -0.23342723998E+03  0.37789298328E+03  0.00000000000E+00 0.  1.
         21    1    1    2  502  501 -0.15515952493E-01 -0.20229861712E+00  0.11020597713E+02  0.11022465216E+02  0.00000000000E+00 0. -1.
<mgrwt>
<rscale>  1 0.64515763E+03</rscale>
<asrwt>0</asrwt>
<pdfrwt beam="1">  1        1 0.41846895E+00 0.64515763E+03</pdfrwt>
<pdfrwt beam="2">0</pdfrwt>
<totfact> 0.11068120E+00</totfact>
</mgrwt>
</event>
<event>
 6    1  0.2959206E-003  0.6548378E+03  0.7818608E-02  0.9797744E-01
          1   -1    0    0  502    0  0.00000000000E+00  0.00000000000E+00  0.10765306106E+03  0.10765306106E+03  0.00000000000E+00 0.  1.
         13   -1    0    0    0    0 -0.00000000000E+00 -0.00000000000E+00 -0.10000000000E+04  0.10000000000E+04  0.00000000000E+00 0.  1.
    9000005    2    1    2  501    0 -0.28040612307E-01 -0.13706014239E-01 -0.89279627277E+03  0.11072026446E+04  0.65483777417E+03 0.  0.
         13    1    3    3    0    0 -0.68703035152E+02  0.63290279467E+02  0.84195604072E+02  0.12575637661E+03  0.00000000000E+00 0.  1.
          3    1    3    3  501    0  0.68674994539E+02 -0.63303985481E+02 -0.97699187684E+03  0.98144626795E+03  0.00000000000E+00 0.  1.
         21    1    1    2  502  501  0.28040612307E-01  0.13706014239E-01  0.44933382665E+00  0.45041649452E+00  0.00000000000E+00 0. -1.
<mgrwt>
<rscale>  1 0.65483777E+03</rscale>
<asrwt>0</asrwt>
<pdfrwt beam="1">  1        1 0.39146650E+00 0.65483777E+03</pdfrwt>
<pdfrwt beam="2">0</pdfrwt>
<totfact> 0.14587226E+00</totfact>
</mgrwt>
</event>
<event>
 6    1  0.2959206E-003  0.7018588E+03  0.7818608E-02  0.9714059E-01
          1   -1    0    0  502    0  0.00000000000E+00  0.00000000000E+00  0.12550251934E+03  0.12550251934E+03  0.00000000000E+00 0.  1.
         13   -1    0    0    0    0 -0.00000000000E+00 -0.00000000000E+00 -0.10000000000E+04  0.10000000000E+04  0.00000000000E+00 0.  1.
    9000005    2    1    2  501    0  0.46092331082E-01 -0.43431651947E-01 -0.87684807280E+03  0.11231510742E+04  0.70185880967E+03 0.  0.
         13    1    3    3    0    0  0.21618336449E+03  0.25789380478E+03 -0.27915253565E+03  0.43723060252E+03  0.00000000000E+00 0.  1.
          3    1    3    3  501    0 -0.21613727216E+03 -0.25793723643E+03 -0.59769553715E+03  0.68592047169E+03  0.00000000000E+00 0.  1.
         21    1    1    2  502  501 -0.46092331082E-01  0.43431651947E-01  0.23505921340E+01  0.23514451284E+01  0.00000000000E+00 0.  1.
<mgrwt>
<rscale>  1 0.70185881E+03</rscale>
<asrwt>0</asrwt>
<pdfrwt beam="1">  1        1 0.45637376E+00 0.70185881E+03</pdfrwt>
<pdfrwt beam="2">0</pdfrwt>
<totfact> 0.73462105E-01</totfact>
</mgrwt>
</event>
<event>
 6    1  0.2959206E-003  0.6017392E+03  0.7818608E-02  0.9901804E-01
          1   -1    0    0  502    0  0.00000000000E+00  0.00000000000E+00  0.90551855931E+02  0.90551855931E+02  0.00000000000E+00 0.  1.
         13   -1    0    0    0    0 -0.00000000000E+00 -0.00000000000E+00 -0.10000000000E+04  0.10000000000E+04  0.00000000000E+00 0.  1.
    9000005    2    1    2  501    0  0.20010287394E-01 -0.15045524391E-02 -0.90947369873E+03  0.10905193642E+04  0.60173920806E+03 0.  0.
         13    1    3    3    0    0  0.23622098490E+03 -0.18085883622E+03 -0.53614565881E+03  0.61315776094E+03  0.00000000000E+00 0.  1.
          1    1    3    3  501    0 -0.23620097462E+03  0.18085733167E+03 -0.37332803992E+03  0.47736160321E+03  0.00000000000E+00 0.  1.
         21    1    1    2  502  501 -0.20010287394E-01  0.15045524391E-02  0.25554656556E-01  0.32491779750E-01  0.00000000000E+00 0. -1.
<mgrwt>
<rscale>  1 0.60173921E+03</rscale>
<asrwt>0</asrwt>
<pdfrwt beam="1">  1        1 0.32928017E+00 0.60173921E+03</pdfrwt>
<pdfrwt beam="2">0</pdfrwt>
<totfact> 0.27565224E+00</totfact>
</mgrwt>
</event>
<event>
 6    1  0.2959206E-003  0.6568088E+03  0.7818608E-02  0.9794086E-01
          1   -1    0    0  502    0  0.00000000000E+00  0.00000000000E+00  0.10795972700E+03  0.10795972700E+03  0.00000000000E+00 0.  1.
         13   -1    0    0    0    0 -0.00000000000E+00 -0.00000000000E+00 -0.10000000000E+04  0.10000000000E+04  0.00000000000E+00 0.  1.
    9000005    2    1    2  501    0 -0.82780617131E-02  0.12008047245E-01 -0.89215002936E+03  0.11078490058E+04  0.65680875804E+03 0.  0.
         13    1    3    3    0    0  0.26396946414E+03 -0.61040038324E+02 -0.75909321308E+03  0.80599520496E+03  0.00000000000E+00 0.  1.
          3    1    3    3  501    0 -0.26397774220E+03  0.61052046371E+02 -0.13305681627E+03  0.30185380087E+03  0.00000000000E+00 0.  1.
         21    1    1    2  502  501  0.82780617131E-02 -0.12008047245E-01  0.10975635134E+00  0.11072116403E+00  0.00000000000E+00 0.  1.
<mgrwt>
<rscale>  1 0.65680876E+03</rscale>
<asrwt>0</asrwt>
<pdfrwt beam="1">  1        1 0.39258165E+00 0.65680876E+03</pdfrwt>
<pdfrwt beam="2">0</pdfrwt>
<totfact> 0.14416601E+00</totfact>
</mgrwt>
</event>
<event>
 6    1  0.2959206E-003  0.6564289E+03  0.7818608E-02  0.9794790E-01
          1   -1    0    0  502    0  0.00000000000E+00  0.00000000000E+00  0.10775835733E+03  0.10775835733E+03  0.00000000000E+00 0.  1.
         13   -1    0    0    0    0 -0.00000000000E+00 -0.00000000000E+00 -0.10000000000E+04  0.10000000000E+04  0.00000000000E+00 0.  1.
    9000005    2    1    2  501    0  0.10647087070E-02  0.93634100841E-03 -0.89227527212E+03  0.11077246980E+04  0.65642885778E+03 0.  0.
         13    1    3    3    0    0  0.51447519907E+01 -0.26707714163E+03 -0.12432479873E+03  0.29464100807E+03  0.00000000000E+00 0.  1.
          1    1    3    3  501    0 -0.51436872820E+01  0.26707807798E+03 -0.76795047339E+03  0.81308368993E+03  0.00000000000E+00 0.  1.
         21    1    1    2  502  501 -0.10647087070E-02 -0.93634100836E-03  0.33629448015E-01  0.33659324309E-01  0.00000000000E+00 0.  1.
<mgrwt>
<rscale>  1 0.65642886E+03</rscale>
<asrwt>0</asrwt>
<pdfrwt beam="1">  1        1 0.39184940E+00 0.65642886E+03</pdfrwt>
<pdfrwt beam="2">0</pdfrwt>
<totfact> 0.14525958E+00</totfact>
</mgrwt>
</event>
<event>
 6    1  0.2959206E-003  0.6397706E+03  0.7818608E-02  0.9826166E-01
          1   -1    0    0  502    0  0.00000000000E+00  0.00000000000E+00  0.10232663258E+03  0.10232663258E+03  0.00000000000E+00 0.  1.
         13   -1    0    0    0    0 -0.00000000000E+00 -0.00000000000E+00 -0.10000000000E+04  0.10000000000E+04  0.00000000000E+00 0.  1.
    9000005    2    1    2  501    0  0.31711164468E-04 -0.18632734623E-04 -0.89767339613E+03  0.11023265859E+04  0.63977056506E+03 0.  0.
         13    1    3    3    0    0  0.57698288644E+02 -0.29729912126E+03 -0.62632058456E+03  0.69569629484E+03  0.00000000000E+00 0.  1.
          3    1    3    3  501    0 -0.57698256933E+02  0.29729910263E+03 -0.27135281157E+03  0.40663029108E+03  0.00000000000E+00 0.  1.
         21    1    1    2  502  501 -0.31711164467E-04  0.18632734629E-04  0.28701054146E-04  0.46653266346E-04  0.00000000000E+00 0.  1.
<mgrwt>
<rscale>  1 0.63977057E+03</rscale>
<asrwt>0</asrwt>
<pdfrwt beam="1">  1        1 0.37209763E+00 0.63977057E+03</pdfrwt>
<pdfrwt beam="2">0</pdfrwt>
<totfact> 0.17812214E+00</totfact>
</mgrwt>
</event>
<event>
 6    1  0.2959206E-003  0.6476539E+03  0.7818608E-02  0.9811191E-01
          1   -1    0    0  502    0  0.00000000000E+00  0.00000000000E+00  0.10488153998E+03  0.10488153998E+03  0.00000000000E+00 0.  1.
         13   -1    0    0    0    0 -0.00000000000E+00 -0.00000000000E+00 -0.10000000000E+04  0.10000000000E+04  0.00000000000E+00 0.  1.
    9000005    2    1    2  501    0  0.62332611407E-04 -0.46898536755E-03 -0.89513610887E+03  0.11048638848E+04  0.64765388174E+03 0.  0.
         13    1    3    3    0    0  0.21627393868E+03  0.20133241916E+03 -0.22154008216E+03  0.36930904072E+03  0.00000000000E+00 0.  1.
          1    1    3    3  501    0 -0.21627387635E+03 -0.20133288814E+03 -0.67359602671E+03  0.73555484407E+03  0.00000000000E+00 0.  1.
         21    1    1    2  502  501 -0.62332611403E-04  0.46898536755E-03  0.17648844283E-01  0.17655184427E-01  0.00000000000E+00 0. -1.
<mgrwt>
<rscale>  1 0.64765388E+03</rscale>
<asrwt>0</asrwt>
<pdfrwt beam="1">  1        1 0.38138822E+00 0.64765388E+03</pdfrwt>
<pdfrwt beam="2">0</pdfrwt>
<totfact> 0.16186809E+00</totfact>
</mgrwt>
</event>
<event>
 6    1  0.2959206E-003  0.5134701E+03  0.7818608E-02  0.1010322E+00
          1   -1    0    0  502    0  0.00000000000E+00  0.00000000000E+00  0.65924562706E+02  0.65924562706E+02  0.00000000000E+00 0.  1.
         13   -1    0    0    0    0 -0.00000000000E+00 -0.00000000000E+00 -0.10000000000E+04  0.10000000000E+04  0.00000000000E+00 0.  1.
    9000005    2    1    2  501    0  0.45162320990E-02  0.12369740964E-02 -0.93408661860E+03  0.10659124405E+04  0.51347007677E+03 0.  0.
         13    1    3    3    0    0 -0.20037552079E+03  0.14996555471E+03 -0.58578773845E+03  0.63701435733E+03  0.00000000000E+00 0.  1.
          1    1    3    3  501    0  0.20038003702E+03 -0.14996431773E+03 -0.34829888015E+03  0.42889808317E+03  0.00000000000E+00 0.  1.
         21    1    1    2  502  501 -0.45162320990E-02 -0.12369740964E-02  0.11181302131E-01  0.12122209973E-01  0.00000000000E+00 0. -1.
<mgrwt>
<rscale>  1 0.51347008E+03</rscale>
<asrwt>0</asrwt>
<pdfrwt beam="1">  1        1 0.23972619E+00 0.51347008E+03</pdfrwt>
<pdfrwt beam="2">0</pdfrwt>
<totfact> 0.68316959E+00</totfact>
</mgrwt>
</event>
<event>
 6    1  0.2959206E-003  0.6436192E+03  0.7818608E-02  0.9818826E-01
          1   -1    0    0  502    0  0.00000000000E+00  0.00000000000E+00  0.10356165654E+03  0.10356165654E+03  0.00000000000E+00 0.  1.
         13   -1    0    0    0    0 -0.00000000000E+00 -0.00000000000E+00 -0.10000000000E+04  0.10000000000E+04  0.00000000000E+00 0.  1.
    9000005    2    1    2  501    0  0.59873551905E-04 -0.87999983407E-04 -0.89643855932E+03  0.11035614159E+04  0.64361922590E+03 0.  0.
         13    1    3    3    0    0  0.94985158771E+02  0.28127415960E+03 -0.66116404787E+03  0.72475874017E+03  0.00000000000E+00 0.  1.
          3    1    3    3  501    0 -0.94985098898E+02 -0.28127424760E+03 -0.23527451145E+03  0.37880267570E+03  0.00000000000E+00 0.  1.
         21    1    1    2  502  501 -0.59873551918E-04  0.87999983421E-04  0.21586605753E-03  0.24068027359E-03  0.00000000000E+00 0. -1.
<mgrwt>
<rscale>  1 0.64361923E+03</rscale>
<asrwt>0</asrwt>
<pdfrwt beam="1">  1        1 0.37658864E+00 0.64361923E+03</pdfrwt>
<pdfrwt beam="2">0</pdfrwt>
<totfact> 0.17007859E+00</totfact>
</mgrwt>
</event>
<event>
 6    1  0.2959206E-003  0.6582376E+03  0.7818608E-02  0.9791444E-01
          1   -1    0    0  502    0  0.00000000000E+00  0.00000000000E+00  0.10845148538E+03  0.10845148538E+03  0.00000000000E+00 0.  1.
         13   -1    0    0    0    0 -0.00000000000E+00 -0.00000000000E+00 -0.10000000000E+04  0.10000000000E+04  0.00000000000E+00 0.  1.
    9000005    2    1    2  501    0 -0.14432422551E-01 -0.24844358826E-01 -0.89167910094E+03  0.11083177755E+04  0.65823754957E+03 0.  0.
         13    1    3    3    0    0  0.13975506285E+03  0.13461492574E+03 -0.89340988164E+03  0.91423950497E+03  0.00000000000E+00 0.  1.
          1    1    3    3  501    0 -0.13976949528E+03 -0.13463977010E+03  0.17307806992E+01  0.19407827056E+03  0.00000000000E+00 0.  1.
         21    1    1    2  502  501  0.14432422551E-01  0.24844358826E-01  0.13058632107E+00  0.13370985093E+00  0.00000000000E+00 0.  1.
<mgrwt>
<rscale>  1 0.65823755E+03</rscale>
<asrwt>0</asrwt>
<pdfrwt beam="1">  1        1 0.39436987E+00 0.65823755E+03</pdfrwt>
<pdfrwt beam="2">0</pdfrwt>
<totfact> 0.14151494E+00</totfact>
</mgrwt>
</event>
<event>
 6    1  0.2959206E-003  0.5638713E+03  0.7818608E-02  0.9983333E-01
          1   -1    0    0  502    0  0.00000000000E+00  0.00000000000E+00  0.79487803838E+02  0.79487803838E+02  0.00000000000E+00 0.  1.
         13   -1    0    0    0    0 -0.00000000000E+00 -0.00000000000E+00 -0.10000000000E+04  0.10000000000E+04  0.00000000000E+00 0.  1.
    9000005    2    1    2  501    0  0.33809163739E-04  0.44295289101E-04 -0.92051227222E+03  0.10794877096E+04  0.56387132554E+03 0.  0.
         13    1    3    3    0    0  0.20181308921E+03 -0.71505701499E+02 -0.10909595903E+03  0.24029880691E+03  0.00000000000E+00 0.  1.
          1    1    3    3  501    0 -0.20181305540E+03  0.71505745794E+02 -0.81141631318E+03  0.83918890264E+03  0.00000000000E+00 0.  1.
         21    1    1    2  502  501 -0.33809163737E-04 -0.44295289111E-04  0.76057354221E-04  0.94286018694E-04  0.00000000000E+00 0.  1.
<mgrwt>
<rscale>  1 0.56387133E+03</rscale>
<asrwt>0</asrwt>
<pdfrwt beam="1">  1        1 0.28904717E+00 0.56387133E+03</pdfrwt>
<pdfrwt beam="2">0</pdfrwt>
<totfact> 0.41402063E+00</totfact>
</mgrwt>
</event>
<event>
 6    1  0.2959206E-003  0.6520207E+03  0.7818608E-02  0.9802995E-01
          1   -1    0    0  502    0  0.00000000000E+00  0.00000000000E+00  0.10637242179E+03  0.10637242179E+03  0.00000000000E+00 0.  1.
         13   -1    0    0    0    0 -0.00000000000E+00 -0.00000000000E+00 -0.10000000000E+04  0.10000000000E+04  0.00000000000E+00 0.  1.
    9000005    2    1    2  501    0 -0.51842545093E-03 -0.15535168443E-02 -0.89371725079E+03  0.11062827343E+04  0.65202067740E+03 0.  0.
         13    1    3    3    0    0  0.24143395135E+03  0.43998168309E+02 -0.81098242510E+03  0.84730082350E+03  0.00000000000E+00 0.  1.
          1    1    3    3  501    0 -0.24143446978E+03 -0.43999721826E+02 -0.82734825684E+02  0.25898191076E+03  0.00000000000E+00 0.  1.
         21    1    1    2  502  501  0.51842545095E-03  0.15535168443E-02  0.89672581090E-01  0.89687535248E-01  0.00000000000E+00 0. -1.
<mgrwt>
<rscale>  1 0.65202068E+03</rscale>
<asrwt>0</asrwt>
<pdfrwt beam="1">  1        1 0.38680962E+00 0.65202068E+03</pdfrwt>
<pdfrwt beam="2">0</pdfrwt>
<totfact> 0.15305306E+00</totfact>
</mgrwt>
</event>
<event>
 6    1  0.2959206E-003  0.6547863E+03  0.7818608E-02  0.9797839E-01
          1   -1    0    0  502    0  0.00000000000E+00  0.00000000000E+00  0.10989894907E+03  0.10989894907E+03  0.00000000000E+00 0.  1.
         13   -1    0    0    0    0 -0.00000000000E+00 -0.00000000000E+00 -0.10000000000E+04  0.10000000000E+04  0.00000000000E+00 0.  1.
    9000005    2    1    2  501    0 -0.32533509105E+01 -0.13842584286E+01 -0.89147393032E+03  0.11061061584E+04  0.65477672887E+03 0.  0.
         13    1    3    3    0    0 -0.22065366917E+03 -0.24351035697E+03 -0.42109112518E+03  0.53413768953E+03  0.00000000000E+00 0.  1.
          1    1    3    3  501    0  0.21740031826E+03  0.24212609854E+03 -0.47038280514E+03  0.57196846884E+03  0.00000000000E+00 0.  1.
         21    1    1    2  502  501  0.32533509105E+01  0.13842584286E+01  0.13728793901E+01  0.37927907091E+01  0.00000000000E+00 0. -1.
<mgrwt>
<rscale>  1 0.65478627E+03</rscale>
<asrwt>0</asrwt>
<pdfrwt beam="1">  1        1 0.39963338E+00 0.65478627E+03</pdfrwt>
<pdfrwt beam="2">0</pdfrwt>
<totfact> 0.13416980E+00</totfact>
</mgrwt>
</event>
<event>
 6    1  0.2959206E-003  0.6506900E+03  0.7818608E-02  0.9805485E-01
          1   -1    0    0  502    0  0.00000000000E+00  0.00000000000E+00  0.10588574289E+03  0.10588574289E+03  0.00000000000E+00 0.  1.
         13   -1    0    0    0    0 -0.00000000000E+00 -0.00000000000E+00 -0.10000000000E+04  0.10000000000E+04  0.00000000000E+00 0.  1.
    9000005    2    1    2  501    0 -0.57337918759E-03 -0.67564903802E-03 -0.89415063023E+03  0.11058493590E+04  0.65068998396E+03 0.  0.
         13    1    3    3    0    0  0.20028775457E+03 -0.23766028168E+03 -0.28360644074E+03  0.42074957795E+03  0.00000000000E+00 0.  1.
          3    1    3    3  501    0 -0.20028832794E+03  0.23765960603E+03 -0.61054418949E+03  0.68509978103E+03  0.00000000000E+00 0.  1.
         21    1    1    2  502  501  0.57337918757E-03  0.67564903802E-03  0.36373112716E-01  0.36383905700E-01  0.00000000000E+00 0. -1.
<mgrwt>
<rscale>  1 0.65068998E+03</rscale>
<asrwt>0</asrwt>
<pdfrwt beam="1">  1        1 0.38503988E+00 0.65068998E+03</pdfrwt>
<pdfrwt beam="2">0</pdfrwt>
<totfact> 0.15587646E+00</totfact>
</mgrwt>
</event>
<event>
 6    1  0.2959206E-003  0.6484981E+03  0.7818608E-02  0.9809601E-01
          1   -1    0    0  502    0  0.00000000000E+00  0.00000000000E+00  0.10615531917E+03  0.10615531917E+03  0.00000000000E+00 0.  1.
         13   -1    0    0    0    0 -0.00000000000E+00 -0.00000000000E+00 -0.10000000000E+04  0.10000000000E+04  0.00000000000E+00 0.  1.
    9000005    2    1    2  501    0  0.18826445943E-01  0.45436353015E-01 -0.89486188173E+03  0.11051369300E+04  0.64849814510E+03 0.  0.
         13    1    3    3    0    0 -0.13416185650E+03  0.27792058359E+03 -0.61708416805E+03  0.68995081346E+03  0.00000000000E+00 0.  1.
          3    1    3    3  501    0  0.13418068295E+03 -0.27787514724E+03 -0.27777771367E+03  0.41518611651E+03  0.00000000000E+00 0.  1.
         21    1    1    2  502  501 -0.18826445943E-01 -0.45436353015E-01  0.10172008935E+01  0.10183891962E+01  0.00000000000E+00 0. -1.
<mgrwt>
<rscale>  1 0.64849815E+03</rscale>
<asrwt>0</asrwt>
<pdfrwt beam="1">  1        1 0.38602016E+00 0.64849815E+03</pdfrwt>
<pdfrwt beam="2">0</pdfrwt>
<totfact> 0.15439019E+00</totfact>
</mgrwt>
</event>
<event>
 6    1  0.2959206E-003  0.6466627E+03  0.7818608E-02  0.9813062E-01
          1   -1    0    0  502    0  0.00000000000E+00  0.00000000000E+00  0.10516017620E+03  0.10516017620E+03  0.00000000000E+00 0.  1.
         13   -1    0    0    0    0 -0.00000000000E+00 -0.00000000000E+00 -0.10000000000E+04  0.10000000000E+04  0.00000000000E+00 0.  1.
    9000005    2    1    2  501    0  0.43388764964E-01 -0.11227440272E+00 -0.89545035969E+03  0.11045378883E+04  0.64666265207E+03 0.  0.
         13    1    3    3    0    0  0.18244103028E+02 -0.24462107486E+03 -0.80769228937E+03  0.84412034205E+03  0.00000000000E+00 0.  1.
          3    1    3    3  501    0 -0.18200714263E+02  0.24450880046E+03 -0.87758070325E+02  0.26041754627E+03  0.00000000000E+00 0.  1.
         21    1    1    2  502  501 -0.43388764964E-01  0.11227440272E+00  0.61053588652E+00  0.62228787161E+00  0.00000000000E+00 0.  1.
<mgrwt>
<rscale>  1 0.64666266E+03</rscale>
<asrwt>0</asrwt>
<pdfrwt beam="1">  1        1 0.38240145E+00 0.64666266E+03</pdfrwt>
<pdfrwt beam="2">0</pdfrwt>
<totfact> 0.16023816E+00</totfact>
</mgrwt>
</event>
<event>
 6    1  0.2959206E-003  0.6544202E+03  0.7818608E-02  0.9798520E-01
          1   -1    0    0  502    0  0.00000000000E+00  0.00000000000E+00  0.12867722599E+03  0.12867722599E+03  0.00000000000E+00 0.  1.
         13   -1    0    0    0    0 -0.00000000000E+00 -0.00000000000E+00 -0.10000000000E+04  0.10000000000E+04  0.00000000000E+00 0.  1.
    9000005    2    1    2  501    0  0.36607963495E+00 -0.52685433351E-01 -0.89293178717E+03  0.11070650479E+04  0.65442013039E+03 0.  0.
         13    1    3    3    0    0 -0.71300896336E+01 -0.31271366262E+03 -0.60910294153E+03  0.68472408045E+03  0.00000000000E+00 0.  1.
          3    1    3    3  501    0  0.74961692685E+01  0.31266097719E+03 -0.28382884564E+03  0.42234096749E+03  0.00000000000E+00 0.  1.
         21    1    1    2  502  501 -0.36607963495E+00  0.52685433351E-01  0.21609013162E+02  0.21612178046E+02  0.00000000000E+00 0.  1.
<mgrwt>
<rscale>  1 0.65442023E+03</rscale>
<asrwt>0</asrwt>
<pdfrwt beam="1">  1        1 0.46791817E+00 0.65442023E+03</pdfrwt>
<pdfrwt beam="2">0</pdfrwt>
<totfact> 0.65550619E-01</totfact>
</mgrwt>
</event>
<event>
 6    1  0.2959206E-003  0.6552259E+03  0.7818608E-02  0.9797022E-01
          3   -1    0    0  502    0  0.00000000000E+00  0.00000000000E+00  0.10803157536E+03  0.10803157536E+03  0.00000000000E+00 0.  1.
         13   -1    0    0    0    0 -0.00000000000E+00 -0.00000000000E+00 -0.10000000000E+04  0.10000000000E+04  0.00000000000E+00 0.  1.
    9000005    2    1    2  501    0  0.47784404820E-02 -0.68732689719E-01 -0.89266788568E+03  0.11073287292E+04  0.65522588133E+03 0.  0.
         13    1    3    3    0    0  0.14000444678E+03 -0.19710428112E+03 -0.72675317208E+02  0.25245404430E+03  0.00000000000E+00 0.  1.
          3    1    3    3  501    0 -0.13999966834E+03  0.19703554843E+03 -0.81999256848E+03  0.85487468487E+03  0.00000000000E+00 0.  1.
         21    1    1    2  502  501 -0.47784404820E-02  0.68732689719E-01  0.69946103963E+00  0.70284618665E+00  0.00000000000E+00 0.  1.
<mgrwt>
<rscale>  1 0.65522588E+03</rscale>
<asrwt>0</asrwt>
<pdfrwt beam="1">  1        3 0.39284292E+00 0.65522588E+03</pdfrwt>
<pdfrwt beam="2">0</pdfrwt>
<totfact> 0.64532443E-02</totfact>
</mgrwt>
</event>
<event>
 6    1  0.2959206E-003  0.6391400E+03  0.7818608E-02  0.9827373E-01
          1   -1    0    0  502    0  0.00000000000E+00  0.00000000000E+00  0.10212590015E+03  0.10212590015E+03  0.00000000000E+00 0.  1.
         13   -1    0    0    0    0 -0.00000000000E+00 -0.00000000000E+00 -0.10000000000E+04  0.10000000000E+04  0.00000000000E+00 0.  1.
    9000005    2    1    2  501    0  0.86725257546E-04 -0.16097789000E-04 -0.89787502256E+03  0.11021249732E+04  0.63913996942E+03 0.  0.
         13    1    3    3    0    0 -0.13405354463E+02 -0.31459270238E+03 -0.54301873497E+03  0.62770822716E+03  0.00000000000E+00 0.  1.
          3    1    3    3  501    0  0.13405441188E+02  0.31459268628E+03 -0.35485628759E+03  0.47441674608E+03  0.00000000000E+00 0.  1.
         21    1    1    2  502  501 -0.86725257547E-04  0.16097788998E-04  0.92270806267E-03  0.92691454731E-03  0.00000000000E+00 0.  1.
<mgrwt>
<rscale>  1 0.63913997E+03</rscale>
<asrwt>0</asrwt>
<pdfrwt beam="1">  1        1 0.37136769E+00 0.63913997E+03</pdfrwt>
<pdfrwt beam="2">0</pdfrwt>
<totfact> 0.17946349E+00</totfact>
</mgrwt>
</event>
<event>
 6    1  0.2959206E-003  0.6561116E+03  0.7818608E-02  0.9795378E-01
          1   -1    0    0  502    0  0.00000000000E+00  0.00000000000E+00  0.10762187221E+03  0.10762187221E+03  0.00000000000E+00 0.  1.
         13   -1    0    0    0    0 -0.00000000000E+00 -0.00000000000E+00 -0.10000000000E+04  0.10000000000E+04  0.00000000000E+00 0.  1.
    9000005    2    1    2  501    0  0.76024832708E-04  0.85543807558E-04 -0.89237938012E+03  0.11076206147E+04  0.65611162766E+03 0.  0.
         13    1    3    3    0    0  0.25804150709E+03  0.14270864202E+03 -0.68889434994E+03  0.74935078653E+03  0.00000000000E+00 0.  1.
          1    1    3    3  501    0 -0.25804143107E+03 -0.14270855648E+03 -0.20348503018E+03  0.35826982813E+03  0.00000000000E+00 0.  1.
         21    1    1    2  502  501 -0.76024832733E-04 -0.85543807566E-04  0.12523368871E-02  0.12575552461E-02  0.00000000000E+00 0. -1.
<mgrwt>
<rscale>  1 0.65611163E+03</rscale>
<asrwt>0</asrwt>
<pdfrwt beam="1">  1        1 0.39135309E+00 0.65611163E+03</pdfrwt>
<pdfrwt beam="2">0</pdfrwt>
<totfact> 0.14600686E+00</totfact>
</mgrwt>
</event>
<event>
 6    1  0.2959206E-003  0.6493934E+03  0.7818608E-02  0.9807918E-01
          1   -1    0    0  502    0  0.00000000000E+00  0.00000000000E+00  0.14737505723E+03  0.14737505723E+03  0.00000000000E+00 0.  1.
         13   -1    0    0    0    0 -0.00000000000E+00 -0.00000000000E+00 -0.10000000000E+04  0.10000000000E+04  0.00000000000E+00 0.  1.
    9000005    2    1    2  501    0  0.18021555112E+01  0.13423690201E+00 -0.89455053016E+03  0.11054105405E+04  0.64939090409E+03 0.  0.
         13    1    3    3    0    0 -0.88534379692E+02  0.29133862094E+03 -0.63800952422E+03  0.70694602441E+03  0.00000000000E+00 0.  1.
          1    1    3    3  501    0  0.90336535203E+02 -0.29120438404E+03 -0.25654100594E+03  0.39846451612E+03  0.00000000000E+00 0.  1.
         21    1    1    2  502  501 -0.18021555112E+01 -0.13423690201E+00  0.41925587388E+02  0.41964516700E+02  0.00000000000E+00 0.  1.
<mgrwt>
<rscale>  1 0.64939342E+03</rscale>
<asrwt>0</asrwt>
<pdfrwt beam="1">  1        1 0.53591043E+00 0.64939342E+03</pdfrwt>
<pdfrwt beam="2">0</pdfrwt>
<totfact> 0.30837706E-01</totfact>
</mgrwt>
</event>
<event>
 6    1  0.2959206E-003  0.6296097E+03  0.7818608E-02  0.9845811E-01
          1   -1    0    0  502    0  0.00000000000E+00  0.00000000000E+00  0.12476001769E+03  0.12476001769E+03  0.00000000000E+00 0.  1.
         13   -1    0    0    0    0 -0.00000000000E+00 -0.00000000000E+00 -0.10000000000E+04  0.10000000000E+04  0.00000000000E+00 0.  1.
    9000005    2    1    2  501    0 -0.10761869424E+02  0.13124470312E+02 -0.89777781836E+03  0.10965461273E+04  0.62938090908E+03 0.  0.
         13    1    3    3    0    0  0.25221910134E+03  0.74387199625E+02 -0.73647784828E+03  0.78201505840E+03  0.00000000000E+00 0.  1.
          1    1    3    3  501    0 -0.26298097077E+03 -0.61262729314E+02 -0.16129997008E+03  0.31453106895E+03  0.00000000000E+00 0.  1.
         21    1    1    2  502  501  0.10761869424E+02 -0.13124470312E+02  0.22537836047E+02  0.28213890341E+02  0.00000000000E+00 0.  1.
<mgrwt>
<rscale>  1 0.62960972E+03</rscale>
<asrwt>0</asrwt>
<pdfrwt beam="1">  1        1 0.45367375E+00 0.62960972E+03</pdfrwt>
<pdfrwt beam="2">0</pdfrwt>
<totfact> 0.76740673E-01</totfact>
</mgrwt>
</event>
<event>
 6    1  0.2959206E-003  0.6357303E+03  0.7818608E-02  0.9833930E-01
          1   -1    0    0  502    0  0.00000000000E+00  0.00000000000E+00  0.10113044672E+03  0.10113044672E+03  0.00000000000E+00 0.  1.
         13   -1    0    0    0    0 -0.00000000000E+00 -0.00000000000E+00 -0.10000000000E+04  0.10000000000E+04  0.00000000000E+00 0.  1.
    9000005    2    1    2  501    0 -0.13478381340E+00 -0.99102720731E-01 -0.89886978026E+03  0.11009631503E+04  0.63573024827E+03 0.  0.
         13    1    3    3    0    0  0.38611350802E+02 -0.20090173260E+03 -0.87083689794E+03  0.89454415508E+03  0.00000000000E+00 0.  1.
          1    1    3    3  501    0 -0.38746134615E+02  0.20080262988E+03 -0.28032882321E+02  0.20641899526E+03  0.00000000000E+00 0.  1.
         21    1    1    2  502  501  0.13478381340E+00  0.99102720731E-01  0.22698520356E-03  0.16729637514E+00  0.00000000000E+00 0. -1.
<mgrwt>
<rscale>  1 0.63573027E+03</rscale>
<asrwt>0</asrwt>
<pdfrwt beam="1">  1        1 0.36774785E+00 0.63573027E+03</pdfrwt>
<pdfrwt beam="2">0</pdfrwt>
<totfact> 0.18626892E+00</totfact>
</mgrwt>
</event>
<event>
 6    1  0.2959206E-003  0.6592337E+03  0.7818608E-02  0.9789606E-01
          1   -1    0    0  502    0  0.00000000000E+00  0.00000000000E+00  0.10874819789E+03  0.10874819789E+03  0.00000000000E+00 0.  1.
         13   -1    0    0    0    0 -0.00000000000E+00 -0.00000000000E+00 -0.10000000000E+04  0.10000000000E+04  0.00000000000E+00 0.  1.
    9000005    2    1    2  501    0  0.21972260620E+00 -0.36433568262E-01 -0.89119120897E+03  0.11085173799E+04  0.65923361635E+03 0.  0.
         13    1    3    3    0    0  0.89819383519E+02 -0.10272963137E+03  0.58953148629E+02  0.14864848654E+03  0.00000000000E+00 0.  1.
          1    1    3    3  501    0 -0.89599660913E+02  0.10269319780E+03 -0.95014435760E+03  0.95986889333E+03  0.00000000000E+00 0.  1.
         21    1    1    2  502  501 -0.21972260620E+00  0.36433568262E-01 -0.60593145492E-01  0.23081801890E+00  0.00000000000E+00 0.  1.
<mgrwt>
<rscale>  1 0.65923365E+03</rscale>
<asrwt>0</asrwt>
<pdfrwt beam="1">  1        1 0.39544883E+00 0.65923365E+03</pdfrwt>
<pdfrwt beam="2">0</pdfrwt>
<totfact> 0.13993426E+00</totfact>
</mgrwt>
</event>
<event>
 6    1  0.2959206E-003  0.6124746E+03  0.7818608E-02  0.9879858E-01
          3   -1    0    0  502    0  0.00000000000E+00  0.00000000000E+00  0.12257977635E+03  0.12257977635E+03  0.00000000000E+00 0.  1.
         13   -1    0    0    0    0 -0.00000000000E+00 -0.00000000000E+00 -0.10000000000E+04  0.10000000000E+04  0.00000000000E+00 0.  1.
    9000005    2    1    2  501    0  0.70099393851E+01 -0.16025987882E+02 -0.90328716619E+03  0.10913536614E+04  0.61222474479E+03 0.  0.
         13    1    3    3    0    0 -0.20741944787E+03 -0.22090795779E+03 -0.56759655109E+03  0.64341976809E+03  0.00000000000E+00 0.  1.
          1    1    3    3  501    0  0.21442938726E+03  0.20488196990E+03 -0.33569061510E+03  0.44793389332E+03  0.00000000000E+00 0.  1.
         21    1    1    2  502  501 -0.70099393851E+01  0.16025987882E+02  0.25866942536E+02  0.31226114935E+02  0.00000000000E+00 0. -1.
<mgrwt>
<rscale>  1 0.61247458E+03</rscale>
<asrwt>0</asrwt>
<pdfrwt beam="1">  1        3 0.44574558E+00 0.61247458E+03</pdfrwt>
<pdfrwt beam="2">0</pdfrwt>
<totfact> 0.34614596E-02</totfact>
</mgrwt>
</event>
<event>
 6    1  0.2959206E-003  0.6564667E+03  0.7818608E-02  0.9794720E-01
          1   -1    0    0  502    0  0.00000000000E+00  0.00000000000E+00  0.10776972586E+03  0.10776972586E+03  0.00000000000E+00 0.  1.
         13   -1    0    0    0    0 -0.00000000000E+00 -0.00000000000E+00 -0.10000000000E+04  0.10000000000E+04  0.00000000000E+00 0.  1.
    9000005    2    1    2  501    0 -0.19407258454E-01 -0.18268576853E-01 -0.89225673020E+03  0.11077321718E+04  0.65646667180E+03 0.  0.
         13    1    3    3    0    0 -0.28651805439E+03  0.41861798691E+02 -0.18528700570E+03  0.34376777069E+03  0.00000000000E+00 0.  1.
          1    1    3    3  501    0  0.28649864713E+03 -0.41880067268E+02 -0.70696972450E+03  0.76396440114E+03  0.00000000000E+00 0.  1.
         21    1    1    2  502  501  0.19407258454E-01  0.18268576853E-01  0.26456063438E-01  0.37554039378E-01  0.00000000000E+00 0.  1.
<mgrwt>
<rscale>  1 0.65646667E+03</rscale>
<asrwt>0</asrwt>
<pdfrwt beam="1">  1        1 0.39189074E+00 0.65646667E+03</pdfrwt>
<pdfrwt beam="2">0</pdfrwt>
<totfact> 0.14519719E+00</totfact>
</mgrwt>
</event>
<event>
 6    1  0.2959206E-003  0.6512678E+03  0.7818608E-02  0.9804403E-01
          1   -1    0    0  502    0  0.00000000000E+00  0.00000000000E+00  0.10603743746E+03  0.10603743746E+03  0.00000000000E+00 0.  1.
         13   -1    0    0    0    0 -0.00000000000E+00 -0.00000000000E+00 -0.10000000000E+04  0.10000000000E+04  0.00000000000E+00 0.  1.
    9000005    2    1    2  501    0  0.86846915224E-05 -0.31969376408E-05 -0.89396257405E+03  0.11060374227E+04  0.65126776107E+03 0.  0.
         13    1    3    3    0    0 -0.30288964453E+03  0.36455049717E+02 -0.64036437696E+03  0.70932195983E+03  0.00000000000E+00 0.  1.
          1    1    3    3  501    0  0.30288965322E+03 -0.36455052914E+02 -0.25359819708E+03  0.39671546286E+03  0.00000000000E+00 0.  1.
         21    1    1    2  502  501 -0.86846915215E-05  0.31969376418E-05  0.11510108671E-04  0.14769119091E-04  0.00000000000E+00 0. -1.
<mgrwt>
<rscale>  1 0.65126776E+03</rscale>
<asrwt>0</asrwt>
<pdfrwt beam="1">  1        1 0.38559149E+00 0.65126776E+03</pdfrwt>
<pdfrwt beam="2">0</pdfrwt>
<totfact> 0.15498649E+00</totfact>
</mgrwt>
</event>
<event>
 6    1  0.2959206E-003  0.6466458E+03  0.7818608E-02  0.9813093E-01
          1   -1    0    0  502    0  0.00000000000E+00  0.00000000000E+00  0.10465351627E+03  0.10465351627E+03  0.00000000000E+00 0.  1.
         13   -1    0    0    0    0 -0.00000000000E+00 -0.00000000000E+00 -0.10000000000E+04  0.10000000000E+04  0.00000000000E+00 0.  1.
    9000005    2    1    2  501    0  0.11625701065E-01 -0.78707792799E-02 -0.89546182668E+03  0.11045373220E+04  0.64664581691E+03 0.  0.
         13    1    3    3    0    0 -0.30116386354E+03  0.56989906439E+02 -0.27197679450E+03  0.40977908546E+03  0.00000000000E+00 0.  1.
          1    1    3    3  501    0  0.30117548924E+03 -0.56997777218E+02 -0.62348503218E+03  0.69475823657E+03  0.00000000000E+00 0.  1.
         21    1    1    2  502  501 -0.11625701065E-01  0.78707792800E-02  0.11534294230E+00  0.11619423578E+00  0.00000000000E+00 0.  1.
<mgrwt>
<rscale>  1 0.64664582E+03</rscale>
<asrwt>0</asrwt>
<pdfrwt beam="1">  1        1 0.38055904E+00 0.64664582E+03</pdfrwt>
<pdfrwt beam="2">0</pdfrwt>
<totfact> 0.16326836E+00</totfact>
</mgrwt>
</event>
<event>
 6    1  0.2959206E-003  0.6431536E+03  0.7818608E-02  0.9819711E-01
          1   -1    0    0  502    0  0.00000000000E+00  0.00000000000E+00  0.10341207382E+03  0.10341207382E+03  0.00000000000E+00 0.  1.
         13   -1    0    0    0    0 -0.00000000000E+00 -0.00000000000E+00 -0.10000000000E+04  0.10000000000E+04  0.00000000000E+00 0.  1.
    9000005    2    1    2  501    0  0.22064694977E-03  0.60272188707E-03 -0.89658808057E+03  0.11034114137E+04  0.64315360653E+03 0.  0.
         13    1    3    3    0    0  0.22698841910E+03  0.34829436327E+02 -0.62088098194E+02  0.23789023514E+03  0.00000000000E+00 0.  1.
          1    1    3    3  501    0 -0.22698819845E+03 -0.34828833605E+02 -0.83449998238E+03  0.86552117853E+03  0.00000000000E+00 0.  1.
         21    1    1    2  502  501 -0.22064694978E-03 -0.60272188707E-03  0.15438825651E-03  0.66014731943E-03  0.00000000000E+00 0.  1.
<mgrwt>
<rscale>  1 0.64315361E+03</rscale>
<asrwt>0</asrwt>
<pdfrwt beam="1">  1        1 0.37604470E+00 0.64315361E+03</pdfrwt>
<pdfrwt beam="2">0</pdfrwt>
<totfact> 0.17103400E+00</totfact>
</mgrwt>
</event>
<event>
 6    1  0.2959206E-003  0.6459566E+03  0.7818608E-02  0.9814396E-01
          1   -1    0    0  502    0  0.00000000000E+00  0.00000000000E+00  0.10431499359E+03  0.10431499359E+03  0.00000000000E+00 0.  1.
         13   -1    0    0    0    0 -0.00000000000E+00 -0.00000000000E+00 -0.10000000000E+04  0.10000000000E+04  0.00000000000E+00 0.  1.
    9000005    2    1    2  501    0 -0.95025852431E-06 -0.71151958849E-05 -0.89568500711E+03  0.11043149864E+04  0.64595662175E+03 0.  0.
         13    1    3    3    0    0  0.94007820882E+02  0.11407691308E+03  0.43089956264E+02  0.15397323409E+03  0.00000000000E+00 0.  1.
          1    1    3    3  501    0 -0.94007821832E+02 -0.11407692020E+03 -0.93877496337E+03  0.95034175229E+03  0.00000000000E+00 0.  1.
         21    1    1    2  502  501  0.95025853193E-06  0.71151958836E-05  0.69365041151E-06  0.72118066136E-05  0.00000000000E+00 0. -1.
<mgrwt>
<rscale>  1 0.64595662E+03</rscale>
<asrwt>0</asrwt>
<pdfrwt beam="1">  1        1 0.37932805E+00 0.64595662E+03</pdfrwt>
<pdfrwt beam="2">0</pdfrwt>
<totfact> 0.16534396E+00</totfact>
</mgrwt>
</event>
<event>
 6    1  0.2959206E-003  0.6375853E+03  0.7818608E-02  0.9830357E-01
          1   -1    0    0  502    0  0.00000000000E+00  0.00000000000E+00  0.10190997681E+03  0.10190997681E+03  0.00000000000E+00 0.  1.
         13   -1    0    0    0    0 -0.00000000000E+00 -0.00000000000E+00 -0.10000000000E+04  0.10000000000E+04  0.00000000000E+00 0.  1.
    9000005    2    1    2  501    0  0.23164208396E-01  0.13155758664E-01 -0.89837056083E+03  0.11016281772E+04  0.63758526923E+03 0.  0.
         13    1    3    3    0    0  0.10222238726E+03  0.30034568201E+03 -0.39516210566E+03  0.50676427943E+03  0.00000000000E+00 0.  1.
          3    1    3    3  501    0 -0.10219922305E+03 -0.30033252625E+03 -0.50320845517E+03  0.59486389777E+03  0.00000000000E+00 0.  1.
         21    1    1    2  502  501 -0.23164208396E-01 -0.13155758664E-01  0.28053763270E+00  0.28179960592E+00  0.00000000000E+00 0.  1.
<mgrwt>
<rscale>  1 0.63758527E+03</rscale>
<asrwt>0</asrwt>
<pdfrwt beam="1">  1        1 0.37058252E+00 0.63758527E+03</pdfrwt>
<pdfrwt beam="2">0</pdfrwt>
<totfact> 0.18094604E+00</totfact>
</mgrwt>
</event>
<event>
 6    1  0.2959206E-003  0.6472944E+03  0.7818608E-02  0.9811869E-01
          1   -1    0    0  502    0  0.00000000000E+00  0.00000000000E+00  0.10475470855E+03  0.10475470855E+03  0.00000000000E+00 0.  1.
         13   -1    0    0    0    0 -0.00000000000E+00 -0.00000000000E+00 -0.10000000000E+04  0.10000000000E+04  0.00000000000E+00 0.  1.
    9000005    2    1    2  501    0  0.15086445050E-01  0.37549027497E-02 -0.89524170530E+03  0.11047387536E+04  0.64729437085E+03 0.  0.
         13    1    3    3    0    0 -0.56121232507E+02 -0.31279651429E+03 -0.34304390143E+03  0.46762203797E+03  0.00000000000E+00 0.  1.
          1    1    3    3  501    0  0.56136318952E+02  0.31280026920E+03 -0.55219780388E+03  0.63711671562E+03  0.00000000000E+00 0.  1.
         21    1    1    2  502  501 -0.15086445050E-01 -0.37549027497E-02 -0.35861491560E-02  0.15954954863E-01  0.00000000000E+00 0. -1.
<mgrwt>
<rscale>  1 0.64729437E+03</rscale>
<asrwt>0</asrwt>
<pdfrwt beam="1">  1        1 0.38092702E+00 0.64729437E+03</pdfrwt>
<pdfrwt beam="2">0</pdfrwt>
<totfact> 0.16263951E+00</totfact>
</mgrwt>
</event>
<event>
 6    1  0.2959206E-003  0.6489973E+03  0.7818608E-02  0.9808663E-01
          1   -1    0    0  502    0  0.00000000000E+00  0.00000000000E+00  0.10536905606E+03  0.10536905606E+03  0.00000000000E+00 0.  1.
         13   -1    0    0    0    0 -0.00000000000E+00 -0.00000000000E+00 -0.10000000000E+04  0.10000000000E+04  0.00000000000E+00 0.  1.
    9000005    2    1    2  501    0 -0.19170349821E+00  0.12809635532E-01 -0.89449827951E+03  0.11051355734E+04  0.64899724695E+03 0.  0.
         13    1    3    3    0    0  0.28103241605E+03  0.16112123751E+03 -0.41724129635E+03  0.52823249751E+03  0.00000000000E+00 0.  1.
          3    1    3    3  501    0 -0.28122411955E+03 -0.16110842787E+03 -0.47725698317E+03  0.57690307585E+03  0.00000000000E+00 0.  1.
         21    1    1    2  502  501  0.19170349821E+00 -0.12809635532E-01 -0.13266442999E+00  0.23348269524E+00  0.00000000000E+00 0.  1.
<mgrwt>
<rscale>  1 0.64899728E+03</rscale>
<asrwt>0</asrwt>
<pdfrwt beam="1">  1        1 0.38316101E+00 0.64899728E+03</pdfrwt>
<pdfrwt beam="2">0</pdfrwt>
<totfact> 0.15893628E+00</totfact>
</mgrwt>
</event>
<event>
 6    1  0.2959206E-003  0.6477730E+03  0.7818608E-02  0.9810967E-01
          1   -1    0    0  502    0  0.00000000000E+00  0.00000000000E+00  0.10490246736E+03  0.10490246736E+03  0.00000000000E+00 0.  1.
         13   -1    0    0    0    0 -0.00000000000E+00 -0.00000000000E+00 -0.10000000000E+04  0.10000000000E+04  0.00000000000E+00 0.  1.
    9000005    2    1    2  501    0  0.38452558471E-04 -0.79231244854E-06 -0.89509752572E+03  0.11049024283E+04  0.64777295056E+03 0.  0.
         13    1    3    3    0    0  0.17579966500E+03  0.10602195490E+03 -0.87484564516E+03  0.89861063870E+03  0.00000000000E+00 0.  1.
          3    1    3    3  501    0 -0.17579962655E+03 -0.10602195569E+03 -0.20251880558E+02  0.20629178958E+03  0.00000000000E+00 0.  1.
         21    1    1    2  502  501 -0.38452558476E-04  0.79231244021E-06 -0.69255147366E-05  0.39079275412E-04  0.00000000000E+00 0.  1.
<mgrwt>
<rscale>  1 0.64777295E+03</rscale>
<asrwt>0</asrwt>
<pdfrwt beam="1">  1        1 0.38146432E+00 0.64777295E+03</pdfrwt>
<pdfrwt beam="2">0</pdfrwt>
<totfact> 0.16173936E+00</totfact>
</mgrwt>
</event>
<event>
 6    1  0.2959206E-003  0.6418487E+03  0.7818608E-02  0.9822196E-01
          1   -1    0    0  502    0  0.00000000000E+00  0.00000000000E+00  0.10847250354E+03  0.10847250354E+03  0.00000000000E+00 0.  1.
         13   -1    0    0    0    0 -0.00000000000E+00 -0.00000000000E+00 -0.10000000000E+04  0.10000000000E+04  0.00000000000E+00 0.  1.
    9000005    2    1    2  501    0 -0.11156803700E+00  0.35740216855E-01 -0.89700685727E+03  0.11029918905E+04  0.64184873195E+03 0.  0.
         13    1    3    3    0    0 -0.25764257724E+02 -0.24009802687E+03 -0.85265615229E+02  0.25608804077E+03  0.00000000000E+00 0.  1.
          3    1    3    3  501    0  0.25652689687E+02  0.24013376709E+03 -0.81174124205E+03  0.84690384969E+03  0.00000000000E+00 0.  1.
         21    1    1    2  502  501  0.11156803700E+00 -0.35740216855E-01  0.54793608173E+01  0.54806130821E+01  0.00000000000E+00 0.  1.
<mgrwt>
<rscale>  1 0.64184874E+03</rscale>
<asrwt>0</asrwt>
<pdfrwt beam="1">  1        1 0.39444630E+00 0.64184874E+03</pdfrwt>
<pdfrwt beam="2">0</pdfrwt>
<totfact> 0.14184121E+00</totfact>
</mgrwt>
</event>
<event>
 6    1  0.2959206E-003  0.6455681E+03  0.7818608E-02  0.9815131E-01
          1   -1    0    0  502    0  0.00000000000E+00  0.00000000000E+00  0.10439883358E+03  0.10439883358E+03  0.00000000000E+00 0.  1.
         13   -1    0    0    0    0 -0.00000000000E+00 -0.00000000000E+00 -0.10000000000E+04  0.10000000000E+04  0.00000000000E+00 0.  1.
    9000005    2    1    2  501    0 -0.16279593067E-02 -0.38610742728E-02 -0.89581044013E+03  0.11041895179E+04  0.64556808071E+03 0.  0.
         13    1    3    3    0    0  0.25388174417E+03  0.19187780666E+03 -0.54025486765E+03  0.62701543421E+03  0.00000000000E+00 0.  1.
          1    1    3    3  501    0 -0.25388337213E+03 -0.19188166773E+03 -0.35555557248E+03  0.47717408372E+03  0.00000000000E+00 0.  1.
         21    1    1    2  502  501  0.16279593067E-02  0.38610742728E-02  0.20927370964E+00  0.20931565563E+00  0.00000000000E+00 0. -1.
<mgrwt>
<rscale>  1 0.64556808E+03</rscale>
<asrwt>0</asrwt>
<pdfrwt beam="1">  1        1 0.37963292E+00 0.64556808E+03</pdfrwt>
<pdfrwt beam="2">0</pdfrwt>
<totfact> 0.16484452E+00</totfact>
</mgrwt>
</event>
<event>
 6    1  0.3044843E-003  0.6593328E+03  0.7818608E-02  0.9789423E-01
          1   -1    0    0  502    0  0.00000000000E+00  0.00000000000E+00  0.10867993954E+03  0.10867993954E+03  0.00000000000E+00 0.  1.
         13   -1    0    0    0    0 -0.00000000000E+00 -0.00000000000E+00 -0.10000000000E+04  0.10000000000E+04  0.00000000000E+00 0.  1.
    9000005    2    1    2  501    0 -0.75106201791E-05 -0.15580394574E-06 -0.89132005921E+03  0.11086799319E+04  0.65933280178E+03 0.  0.
         13    1    3    3    0    0  0.19864854016E+03  0.24556187011E+03 -0.28686507392E+03  0.42667721429E+03  0.00000000000E+00 0.  1.
          1    1    3    3  501    0 -0.19864854767E+03 -0.24556187027E+03 -0.60445498529E+03  0.68200271763E+03  0.00000000000E+00 0.  1.
         21    1    1    2  502  501  0.75106201729E-05  0.15580396437E-06 -0.12484665795E-05  0.76152714369E-05  0.00000000000E+00 0.  1.
<mgrwt>
<rscale>  1 0.65933280E+03</rscale>
<asrwt>0</asrwt>
<pdfrwt beam="1">  1        1 0.39520061E+00 0.65933280E+03</pdfrwt>
<pdfrwt beam="2">0</pdfrwt>
<totfact> 0.14028783E+00</totfact>
</mgrwt>
</event>
<event>
 6    1  0.2959206E-003  0.6571659E+03  0.7818608E-02  0.9793425E-01
          1   -1    0    0  502    0  0.00000000000E+00  0.00000000000E+00  0.12136910637E+03  0.12136910637E+03  0.00000000000E+00 0.  1.
         13   -1    0    0    0    0 -0.00000000000E+00 -0.00000000000E+00 -0.10000000000E+04  0.10000000000E+04  0.00000000000E+00 0.  1.
    9000005    2    1    2  501    0 -0.16559192955E+02  0.17198606796E+02 -0.87898869463E+03  0.10974917747E+04  0.65673211529E+03 0.  0.
         13    1    3    3    0    0  0.18795099159E+03  0.25587133503E+03 -0.59254971303E+03  0.67224316861E+03  0.00000000000E+00 0.  1.
          1    1    3    3  501    0 -0.20451018455E+03 -0.23867272823E+03 -0.28643898159E+03  0.42524860607E+03  0.00000000000E+00 0.  1.
         21    1    1    2  502  501  0.16559192955E+02 -0.17198606796E+02  0.35780099325E+00  0.23877331689E+02  0.00000000000E+00 0.  1.
<mgrwt>
<rscale>  1 0.65716594E+03</rscale>
<asrwt>0</asrwt>
<pdfrwt beam="1">  1        1 0.44134314E+00 0.65716594E+03</pdfrwt>
<pdfrwt beam="2">0</pdfrwt>
<totfact> 0.86932179E-01</totfact>
</mgrwt>
</event>
<event>
 6    1  0.2959206E-003  0.6513187E+03  0.7818608E-02  0.9804308E-01
          1   -1    0    0  502    0  0.00000000000E+00  0.00000000000E+00  0.10605441268E+03  0.10605441268E+03  0.00000000000E+00 0.  1.
         13   -1    0    0    0    0 -0.00000000000E+00 -0.00000000000E+00 -0.10000000000E+04  0.10000000000E+04  0.00000000000E+00 0.  1.
    9000005    2    1    2  501    0 -0.47460644214E-03  0.95572478415E-04 -0.89394583450E+03  0.11060538691E+04  0.65131866727E+03 0.  0.
         13    1    3    3    0    0  0.46154865064E+01 -0.25501689884E+03 -0.10312235375E+03  0.27511659574E+03  0.00000000000E+00 0.  1.
          1    1    3    3  501    0 -0.46159611129E+01  0.25501699442E+03 -0.79082348075E+03  0.83093727335E+03  0.00000000000E+00 0.  1.
         21    1    1    2  502  501  0.47460644214E-03 -0.95572478409E-04  0.24718169963E-03  0.54358455293E-03  0.00000000000E+00 0.  1.
<mgrwt>
<rscale>  1 0.65131867E+03</rscale>
<asrwt>0</asrwt>
<pdfrwt beam="1">  1        1 0.38565322E+00 0.65131867E+03</pdfrwt>
<pdfrwt beam="2">0</pdfrwt>
<totfact> 0.15488759E+00</totfact>
</mgrwt>
</event>
<event>
 6    1  0.2959206E-003  0.6411765E+03  0.7818608E-02  0.9823478E-01
          1   -1    0    0  502    0  0.00000000000E+00  0.00000000000E+00  0.10284565959E+03  0.10284565959E+03  0.00000000000E+00 0.  1.
         13   -1    0    0    0    0 -0.00000000000E+00 -0.00000000000E+00 -0.10000000000E+04  0.10000000000E+04  0.00000000000E+00 0.  1.
    9000005    2    1    2  501    0 -0.93255882807E-01 -0.30311127592E-01 -0.89718240215E+03  0.11027436651E+04  0.64117651117E+03 0.  0.
         13    1    3    3    0    0  0.54450193691E+02 -0.90755856187E+02 -0.96903826041E+03  0.97480079974E+03  0.00000000000E+00 0.  1.
          3    1    3    3  501    0 -0.54543449574E+02  0.90725545059E+02  0.71855858267E+02  0.12794286532E+03  0.00000000000E+00 0.  1.
         21    1    1    2  502  501  0.93255882807E-01  0.30311127592E-01  0.28061731199E-01  0.10199453364E+00  0.00000000000E+00 0. -1.
<mgrwt>
<rscale>  1 0.64117652E+03</rscale>
<asrwt>0</asrwt>
<pdfrwt beam="1">  1        1 0.37398501E+00 0.64117652E+03</pdfrwt>
<pdfrwt beam="2">0</pdfrwt>
<totfact> 0.17470526E+00</totfact>
</mgrwt>
</event>
<event>
 6    1  0.2959206E-003  0.6585617E+03  0.7818608E-02  0.9790845E-01
          1   -1    0    0  502    0  0.00000000000E+00  0.00000000000E+00  0.10897751219E+03  0.10897751219E+03  0.00000000000E+00 0.  1.
         13   -1    0    0    0    0 -0.00000000000E+00 -0.00000000000E+00 -0.10000000000E+04  0.10000000000E+04  0.00000000000E+00 0.  1.
    9000005    2    1    2  501    0 -0.54793218053E-01 -0.57637242179E-01 -0.89157093919E+03  0.11084233252E+04  0.65856170692E+03 0.  0.
         13    1    3    3    0    0  0.16779828621E+03 -0.21208012431E+03 -0.12959035005E+03  0.29987981394E+03  0.00000000000E+00 0.  1.
          1    1    3    3  501    0 -0.16785307943E+03  0.21202248707E+03 -0.76198058914E+03  0.80854351121E+03  0.00000000000E+00 0.  1.
         21    1    1    2  502  501  0.54793218053E-01  0.57637242179E-01  0.54845137667E+00  0.55418702709E+00  0.00000000000E+00 0. -1.
<mgrwt>
<rscale>  1 0.65856171E+03</rscale>
<asrwt>0</asrwt>
<pdfrwt beam="1">  1        1 0.39628270E+00 0.65856171E+03</pdfrwt>
<pdfrwt beam="2">0</pdfrwt>
<totfact> 0.13876142E+00</totfact>
</mgrwt>
</event>
<event>
 6    1  0.2959206E-003  0.6387237E+03  0.7818608E-02  0.9828171E-01
          1   -1    0    0  502    0  0.00000000000E+00  0.00000000000E+00  0.10781788128E+03  0.10781788128E+03  0.00000000000E+00 0.  1.
         13   -1    0    0    0    0 -0.00000000000E+00 -0.00000000000E+00 -0.10000000000E+04  0.10000000000E+04  0.00000000000E+00 0.  1.
    9000005    2    1    2  501    0  0.12636041234E+00  0.20296213319E+00 -0.89800530811E+03  0.11019897859E+04  0.63872364742E+03 0.  0.
         13    1    3    3    0    0 -0.15693706305E+03  0.56144577262E+02 -0.91895663853E+03  0.93395008368E+03  0.00000000000E+00 0.  1.
          1    1    3    3  501    0  0.15706342346E+03 -0.55941615129E+02  0.20951330419E+02  0.16803970227E+03  0.00000000000E+00 0.  1.
         21    1    1    2  502  501 -0.12636041234E+00 -0.20296213319E+00  0.58231893918E+01  0.58280953384E+01  0.00000000000E+00 0.  1.
<mgrwt>
<rscale>  1 0.63872369E+03</rscale>
<asrwt>0</asrwt>
<pdfrwt beam="1">  1        1 0.39206585E+00 0.63872369E+03</pdfrwt>
<pdfrwt beam="2">0</pdfrwt>
<totfact> 0.14542177E+00</totfact>
</mgrwt>
</event>
<event>
 6    1  0.2959206E-003  0.6384351E+03  0.7818608E-02  0.9828725E-01
          1   -1    0    0  502    0  0.00000000000E+00  0.00000000000E+00  0.10190081335E+03  0.10190081335E+03  0.00000000000E+00 0.  1.
         13   -1    0    0    0    0 -0.00000000000E+00 -0.00000000000E+00 -0.10000000000E+04  0.10000000000E+04  0.00000000000E+00 0.  1.
    9000005    2    1    2  501    0  0.52481735224E-05 -0.32900421715E-03 -0.89810011142E+03  0.11018998318E+04  0.63843514091E+03 0.  0.
         13    1    3    3    0    0 -0.25918093950E+03 -0.18010993501E+03 -0.36653719400E+03  0.48369811109E+03  0.00000000000E+00 0.  1.
          1    1    3    3  501    0  0.25918094475E+03  0.18010960600E+03 -0.53156291742E+03  0.61820172069E+03  0.00000000000E+00 0.  1.
         21    1    1    2  502  501 -0.52481735393E-05  0.32900421715E-03  0.92477296413E-03  0.98156831317E-03  0.00000000000E+00 0.  1.
<mgrwt>
<rscale>  1 0.63843514E+03</rscale>
<asrwt>0</asrwt>
<pdfrwt beam="1">  1        1 0.37054919E+00 0.63843514E+03</pdfrwt>
<pdfrwt beam="2">0</pdfrwt>
<totfact> 0.18097900E+00</totfact>
</mgrwt>
</event>
<event>
 6    1  0.2959206E-003  0.6447119E+03  0.7818608E-02  0.9816753E-01
          1   -1    0    0  502    0  0.00000000000E+00  0.00000000000E+00  0.10402150251E+03  0.10402150251E+03  0.00000000000E+00 0.  1.
         13   -1    0    0    0    0 -0.00000000000E+00 -0.00000000000E+00 -0.10000000000E+04  0.10000000000E+04  0.00000000000E+00 0.  1.
    9000005    2    1    2  501    0 -0.18983189667E-01 -0.37026444670E-02 -0.89608568830E+03  0.11039125808E+04  0.64471189294E+03 0.  0.
         13    1    3    3    0    0  0.28979995289E+03 -0.13036573294E+03 -0.35536266930E+03  0.47671990073E+03  0.00000000000E+00 0.  1.
          3    1    3    3  501    0 -0.28981893608E+03  0.13036203029E+03 -0.54072301900E+03  0.62719268006E+03  0.00000000000E+00 0.  1.
         21    1    1    2  502  501  0.18983189667E-01  0.37026444670E-02  0.10719080652E+00  0.10892171532E+00  0.00000000000E+00 0. -1.
<mgrwt>
<rscale>  1 0.64471189E+03</rscale>
<asrwt>0</asrwt>
<pdfrwt beam="1">  1        1 0.37826081E+00 0.64471189E+03</pdfrwt>
<pdfrwt beam="2">0</pdfrwt>
<totfact> 0.16718363E+00</totfact>
</mgrwt>
</event>
<event>
 6    1  0.2959206E-003  0.6596710E+03  0.7818608E-02  0.9788799E-01
          1   -1    0    0  502    0  0.00000000000E+00  0.00000000000E+00  0.11426577899E+03  0.11426577899E+03  0.00000000000E+00 0.  1.
         13   -1    0    0    0    0 -0.00000000000E+00 -0.00000000000E+00 -0.10000000000E+04  0.10000000000E+04  0.00000000000E+00 0.  1.
    9000005    2    1    2  501    0 -0.74177047348E+01 -0.94638896657E+01 -0.88251831177E+03  0.11018187061E+04  0.65956144745E+03 0.  0.
         13    1    3    3    0    0 -0.16092125953E+03  0.23348906130E+03 -0.71498828564E+03  0.76916905952E+03  0.00000000000E+00 0.  1.
          1    1    3    3  501    0  0.15350355480E+03 -0.24295295097E+03 -0.16753002613E+03  0.33264964659E+03  0.00000000000E+00 0.  1.
         21    1    1    2  502  501  0.74177047348E+01  0.94638896657E+01 -0.32159092402E+01  0.12447072884E+02  0.00000000000E+00 0.  1.
<mgrwt>
<rscale>  1 0.65967105E+03</rscale>
<asrwt>0</asrwt>
<pdfrwt beam="1">  1        1 0.41551280E+00 0.65967105E+03</pdfrwt>
<pdfrwt beam="2">0</pdfrwt>
<totfact> 0.11380130E+00</totfact>
</mgrwt>
</event>
<event>
 6    1  0.2959206E-003  0.6056782E+03  0.7818608E-02  0.9893695E-01
          1   -1    0    0  502    0  0.00000000000E+00  0.00000000000E+00  0.91907106656E+02  0.91907106656E+02  0.00000000000E+00 0.  1.
         13   -1    0    0    0    0 -0.00000000000E+00 -0.00000000000E+00 -0.10000000000E+04  0.10000000000E+04  0.00000000000E+00 0.  1.
    9000005    2    1    2  501    0  0.33746533113E-03  0.46423591852E-01 -0.90828546535E+03  0.10917090177E+04  0.60567820713E+03 0.  0.
         13    1    3    3    0    0 -0.66851527314E+02  0.27842852672E+03 -0.27635285209E+03  0.39794782328E+03  0.00000000000E+00 0.  1.
          3    1    3    3  501    0  0.66851864779E+02 -0.27838210313E+03 -0.63193261325E+03  0.69376119440E+03  0.00000000000E+00 0.  1.
         21    1    1    2  502  501 -0.33746533113E-03 -0.46423591852E-01  0.19257200168E+00  0.19808896888E+00  0.00000000000E+00 0.  1.
<mgrwt>
<rscale>  1 0.60567821E+03</rscale>
<asrwt>0</asrwt>
<pdfrwt beam="1">  1        1 0.33420837E+00 0.60567821E+03</pdfrwt>
<pdfrwt beam="2">0</pdfrwt>
<totfact> 0.26224239E+00</totfact>
</mgrwt>
</event>
<event>
 6    1  0.2959206E-003  0.6461833E+03  0.7818608E-02  0.9813967E-01
          1   -1    0    0  502    0  0.00000000000E+00  0.00000000000E+00  0.10438942574E+03  0.10438942574E+03  0.00000000000E+00 0.  1.
         13   -1    0    0    0    0 -0.00000000000E+00 -0.00000000000E+00 -0.10000000000E+04  0.10000000000E+04  0.00000000000E+00 0.  1.
    9000005    2    1    2  501    0  0.11761908340E-03 -0.39979656485E-04 -0.89561179549E+03  0.11043881982E+04  0.64618325892E+03 0.  0.
         13    1    3    3    0    0  0.13653171155E+03 -0.42795082642E+02 -0.94290050330E+03  0.95369475540E+03  0.00000000000E+00 0.  1.
          1    1    3    3  501    0 -0.13653159393E+03  0.42795042663E+02  0.47288707810E+02  0.15069344280E+03  0.00000000000E+00 0.  1.
         21    1    1    2  502  501 -0.11761908340E-03  0.39979656486E-04  0.12212316550E-02  0.12275338598E-02  0.00000000000E+00 0. -1.
<mgrwt>
<rscale>  1 0.64618326E+03</rscale>
<asrwt>0</asrwt>
<pdfrwt beam="1">  1        1 0.37959871E+00 0.64618326E+03</pdfrwt>
<pdfrwt beam="2">0</pdfrwt>
<totfact> 0.16488317E+00</totfact>
</mgrwt>
</event>
<event>
 6    1  0.3361913E-003  0.6447312E+03  0.7818608E-02  0.9816716E-01
          1   -1    0    0  502    0  0.00000000000E+00  0.00000000000E+00  0.10391959070E+03  0.10391959070E+03  0.00000000000E+00 0.  1.
         13   -1    0    0    0    0 -0.00000000000E+00 -0.00000000000E+00 -0.10000000000E+04  0.10000000000E+04  0.00000000000E+00 0.  1.
    9000005    2    1    2  501    0  0.26209850432E-05 -0.22509341306E-05 -0.89608040516E+03  0.11039195853E+04  0.64473122952E+03 0.  0.
         13    1    3    3    0    0  0.89138573307E+02 -0.67427652541E+02  0.69682195784E+02  0.13171097899E+03  0.00000000000E+00 0.  1.
          3    1    3    3  501    0 -0.89138570686E+02  0.67427650290E+02 -0.96576260095E+03  0.97220860631E+03  0.00000000000E+00 0.  1.
         21    1    1    2  502  501 -0.26209850307E-05  0.22509341193E-05 -0.41382064187E-05  0.53908273302E-05  0.00000000000E+00 0.  1.
<mgrwt>
<rscale>  1 0.64473123E+03</rscale>
<asrwt>0</asrwt>
<pdfrwt beam="1">  1        1 0.37789022E+00 0.64473123E+03</pdfrwt>
<pdfrwt beam="2">0</pdfrwt>
<totfact> 0.16781309E+00</totfact>
</mgrwt>
</event>
<event>
 6    1  0.2959206E-003  0.6448277E+03  0.7818608E-02  0.9816533E-01
          1   -1    0    0  502    0  0.00000000000E+00  0.00000000000E+00  0.10397218223E+03  0.10397218223E+03  0.00000000000E+00 0.  1.
         13   -1    0    0    0    0 -0.00000000000E+00 -0.00000000000E+00 -0.10000000000E+04  0.10000000000E+04  0.00000000000E+00 0.  1.
    9000005    2    1    2  501    0  0.86326865872E-03  0.37410410320E-03 -0.89604928800E+03  0.11039506914E+04  0.64482773087E+03 0.  0.
         13    1    3    3    0    0 -0.17572551655E+03  0.87807401716E+02 -0.10335759475E+02  0.19671406885E+03  0.00000000000E+00 0.  1.
          1    1    3    3  501    0  0.17572637981E+03 -0.87807027612E+02 -0.88571352853E+03  0.90723662254E+03  0.00000000000E+00 0.  1.
         21    1    1    2  502  501 -0.86326865872E-03 -0.37410410320E-03  0.21470234561E-01  0.21490838950E-01  0.00000000000E+00 0. -1.
<mgrwt>
<rscale>  1 0.64482773E+03</rscale>
<asrwt>0</asrwt>
<pdfrwt beam="1">  1        1 0.37808146E+00 0.64482773E+03</pdfrwt>
<pdfrwt beam="2">0</pdfrwt>
<totfact> 0.16748470E+00</totfact>
</mgrwt>
</event>
<event>
 6    1  0.2959206E-003  0.5325063E+03  0.7818608E-02  0.1005626E+00
          1   -1    0    0  502    0  0.00000000000E+00  0.00000000000E+00  0.70890962528E+02  0.70890962528E+02  0.00000000000E+00 0.  1.
         13   -1    0    0    0    0 -0.00000000000E+00 -0.00000000000E+00 -0.10000000000E+04  0.10000000000E+04  0.00000000000E+00 0.  1.
    9000005    2    1    2  501    0 -0.29621953212E-03 -0.76301339129E-03 -0.92910737066E+03  0.10708891056E+04  0.53250631007E+03 0.  0.
         13    1    3    3    0    0  0.14059181364E+03  0.16817103484E+03 -0.16060709578E+03  0.27173920261E+03  0.00000000000E+00 0.  1.
          3    1    3    3  501    0 -0.14059210986E+03 -0.16817179785E+03 -0.76850027488E+03  0.79914990298E+03  0.00000000000E+00 0.  1.
         21    1    1    2  502  501  0.29621953211E-03  0.76301339127E-03 -0.16668124138E-02  0.18569327046E-02  0.00000000000E+00 0. -1.
<mgrwt>
<rscale>  1 0.53250631E+03</rscale>
<asrwt>0</asrwt>
<pdfrwt beam="1">  1        1 0.25778586E+00 0.53250631E+03</pdfrwt>
<pdfrwt beam="2">0</pdfrwt>
<totfact> 0.56819646E+00</totfact>
</mgrwt>
</event>
<event>
 6    1  0.2959206E-003  0.6230072E+03  0.7818608E-02  0.9858791E-01
          1   -1    0    0  502    0  0.00000000000E+00  0.00000000000E+00  0.97069072198E+02  0.97069072198E+02  0.00000000000E+00 0.  1.
         13   -1    0    0    0    0 -0.00000000000E+00 -0.00000000000E+00 -0.10000000000E+04  0.10000000000E+04  0.00000000000E+00 0.  1.
    9000005    2    1    2  501    0 -0.40826381634E-02 -0.23818867394E-02 -0.90296534169E+03  0.10970343352E+04  0.62300716236E+03 0.  0.
         13    1    3    3    0    0 -0.14087018511E+02 -0.46577682083E+02 -0.99326666606E+03  0.99445794002E+03  0.00000000000E+00 0.  1.
          1    1    3    3  501    0  0.14082935873E+02  0.46575300196E+02  0.90301324371E+02  0.10257639521E+03  0.00000000000E+00 0.  1.
         21    1    1    2  502  501  0.40826381634E-02  0.23818867394E-02  0.34413888385E-01  0.34736969249E-01  0.00000000000E+00 0.  1.
<mgrwt>
<rscale>  1 0.62300716E+03</rscale>
<asrwt>0</asrwt>
<pdfrwt beam="1">  1        1 0.35297919E+00 0.62300716E+03</pdfrwt>
<pdfrwt beam="2">0</pdfrwt>
<totfact> 0.21664091E+00</totfact>
</mgrwt>
</event>
<event>
 6    1  0.2959206E-003  0.6566609E+03  0.7818608E-02  0.9794360E-01
          1   -1    0    0  502    0  0.00000000000E+00  0.00000000000E+00  0.10796400814E+03  0.10796400814E+03  0.00000000000E+00 0.  1.
         13   -1    0    0    0    0 -0.00000000000E+00 -0.00000000000E+00 -0.10000000000E+04  0.10000000000E+04  0.00000000000E+00 0.  1.
    9000005    2    1    2  501    0 -0.38630820341E-02  0.26839917256E-02 -0.89219906678E+03  0.11078008654E+04  0.65666093426E+03 0.  0.
         13    1    3    3    0    0 -0.15585335978E+03  0.14781791674E+03 -0.86501815260E+03  0.89128940900E+03  0.00000000000E+00 0.  1.
          1    1    3    3  501    0  0.15584949670E+03 -0.14781523275E+03 -0.27180914176E+02  0.21651145639E+03  0.00000000000E+00 0.  1.
         21    1    1    2  502  501  0.38630820341E-02 -0.26839917256E-02  0.16307491935E+00  0.16314274895E+00  0.00000000000E+00 0. -1.
<mgrwt>
<rscale>  1 0.65666093E+03</rscale>
<asrwt>0</asrwt>
<pdfrwt beam="1">  1        1 0.39259722E+00 0.65666093E+03</pdfrwt>
<pdfrwt beam="2">0</pdfrwt>
<totfact> 0.14414702E+00</totfact>
</mgrwt>
</event>
<event>
 6    1  0.2959206E-003  0.6532791E+03  0.7818608E-02  0.9800646E-01
          1   -1    0    0  502    0  0.00000000000E+00  0.00000000000E+00  0.10968012898E+03  0.10968012898E+03  0.00000000000E+00 0.  1.
         13   -1    0    0    0    0 -0.00000000000E+00 -0.00000000000E+00 -0.10000000000E+04  0.10000000000E+04  0.00000000000E+00 0.  1.
    9000005    2    1    2  501    0  0.47105653325E+00  0.49515373331E-01 -0.89328582026E+03  0.11066765976E+04  0.65327889188E+03 0.  0.
         13    1    3    3    0    0  0.68765850530E+01  0.32632867114E+03 -0.42427454059E+03  0.53530045285E+03  0.00000000000E+00 0.  1.
          1    1    3    3  501    0 -0.64055285197E+01 -0.32627915577E+03 -0.46901127968E+03  0.57137614472E+03  0.00000000000E+00 0.  1.
         21    1    1    2  502  501 -0.47105653325E+00 -0.49515373331E-01  0.29659492440E+01  0.30035314128E+01  0.00000000000E+00 0. -1.
<mgrwt>
<rscale>  1 0.65327906E+03</rscale>
<asrwt>0</asrwt>
<pdfrwt beam="1">  1        1 0.39883767E+00 0.65327906E+03</pdfrwt>
<pdfrwt beam="2">0</pdfrwt>
<totfact> 0.13530823E+00</totfact>
</mgrwt>
</event>
<event>
 6    1  0.2959206E-003  0.6472777E+03  0.7818608E-02  0.9811901E-01
          1   -1    0    0  502    0  0.00000000000E+00  0.00000000000E+00  0.10476696270E+03  0.10476696270E+03  0.00000000000E+00 0.  1.
         13   -1    0    0    0    0 -0.00000000000E+00 -0.00000000000E+00 -0.10000000000E+04  0.10000000000E+04  0.00000000000E+00 0.  1.
    9000005    2    1    2  501    0 -0.14497739725E-02 -0.28975038426E-02 -0.89525779172E+03  0.11047419971E+04  0.64727765805E+03 0.  0.
         13    1    3    3    0    0  0.91440819522E+02 -0.25189792782E+03 -0.75734181822E+03  0.80335584839E+03  0.00000000000E+00 0.  1.
          3    1    3    3  501    0 -0.91442269296E+02  0.25189503032E+03 -0.13791597350E+03  0.30138614875E+03  0.00000000000E+00 0.  1.
         21    1    1    2  502  501  0.14497739725E-02  0.28975038426E-02  0.24754423078E-01  0.24965552968E-01  0.00000000000E+00 0. -1.
<mgrwt>
<rscale>  1 0.64727766E+03</rscale>
<asrwt>0</asrwt>
<pdfrwt beam="1">  1        1 0.38097158E+00 0.64727766E+03</pdfrwt>
<pdfrwt beam="2">0</pdfrwt>
<totfact> 0.16256637E+00</totfact>
</mgrwt>
</event>
<event>
 6    1  0.2959206E-003  0.6932432E+03  0.7818608E-02  0.9728857E-01
          1   -1    0    0  502    0  0.00000000000E+00  0.00000000000E+00  0.12014696070E+03  0.12014696070E+03  0.00000000000E+00 0.  1.
         13   -1    0    0    0    0 -0.00000000000E+00 -0.00000000000E+00 -0.10000000000E+04  0.10000000000E+04  0.00000000000E+00 0.  1.
    9000005    2    1    2  501    0 -0.65465939701E-03  0.28768378226E-03 -0.87985307875E+03  0.11201462445E+04  0.69324322497E+03 0.  0.
         13    1    3    3    0    0  0.19297925803E+03 -0.16921428601E+03 -0.63502829718E+02  0.26439946672E+03  0.00000000000E+00 0.  1.
          1    1    3    3  501    0 -0.19297991269E+03  0.16921457369E+03 -0.81635024903E+03  0.85574677781E+03  0.00000000000E+00 0.  1.
         21    1    1    2  502  501  0.65465939703E-03 -0.28768378227E-03  0.39447485394E-04  0.71616826850E-03  0.00000000000E+00 0. -1.
<mgrwt>
<rscale>  1 0.69324322E+03</rscale>
<asrwt>0</asrwt>
<pdfrwt beam="1">  1        1 0.43689896E+00 0.69324322E+03</pdfrwt>
<pdfrwt beam="2">0</pdfrwt>
<totfact> 0.90447536E-01</totfact>
</mgrwt>
</event>
<event>
 6    1  0.2959206E-003  0.6550911E+03  0.7818608E-02  0.9797273E-01
          1   -1    0    0  502    0  0.00000000000E+00  0.00000000000E+00  0.13491188157E+03  0.13491188157E+03  0.00000000000E+00 0.  1.
         13   -1    0    0    0    0 -0.00000000000E+00 -0.00000000000E+00 -0.10000000000E+04  0.10000000000E+04  0.00000000000E+00 0.  1.
    9000005    2    1    2  501    0 -0.23129408632E+00  0.84107434932E+00 -0.89270630429E+03  0.11072799237E+04  0.65509046925E+03 0.  0.
         13    1    3    3    0    0  0.89807311976E+01  0.14631220001E+03  0.48845984682E+02  0.15451162942E+03  0.00000000000E+00 0.  1.
          1    1    3    3  501    0 -0.92120252840E+01 -0.14547112566E+03 -0.94155228897E+03  0.95276829433E+03  0.00000000000E+00 0.  1.
         21    1    1    2  502  501  0.23129408632E+00 -0.84107434932E+00  0.27618185858E+02  0.27631957823E+02  0.00000000000E+00 0. -1.
<mgrwt>
<rscale>  1 0.65509105E+03</rscale>
<asrwt>0</asrwt>
<pdfrwt beam="1">  1        1 0.49058969E+00 0.65509105E+03</pdfrwt>
<pdfrwt beam="2">0</pdfrwt>
<totfact> 0.51232399E-01</totfact>
</mgrwt>
</event>
<event>
 6    1  0.2959206E-003  0.6501801E+03  0.7818608E-02  0.9806441E-01
          1   -1    0    0  502    0  0.00000000000E+00  0.00000000000E+00  0.10568559650E+03  0.10568559650E+03  0.00000000000E+00 0.  1.
         13   -1    0    0    0    0 -0.00000000000E+00 -0.00000000000E+00 -0.10000000000E+04  0.10000000000E+04  0.00000000000E+00 0.  1.
    9000005    2    1    2  501    0 -0.42408539604E-02  0.14708040809E-02 -0.89431331724E+03  0.11056809783E+04  0.65018006450E+03 0.  0.
         13    1    3    3    0    0  0.71187762110E+02  0.11802627340E+03 -0.94784697035E+03  0.95781615036E+03  0.00000000000E+00 0.  1.
          1    1    3    3  501    0 -0.71192002964E+02 -0.11802480260E+03  0.53533653111E+02  0.14786482790E+03  0.00000000000E+00 0.  1.
         21    1    1    2  502  501  0.42408539604E-02 -0.14708040809E-02 -0.10862609519E-02  0.46182323257E-02  0.00000000000E+00 0.  1.
<mgrwt>
<rscale>  1 0.65018006E+03</rscale>
<asrwt>0</asrwt>
<pdfrwt beam="1">  1        1 0.38431207E+00 0.65018006E+03</pdfrwt>
<pdfrwt beam="2">0</pdfrwt>
<totfact> 0.15705080E+00</totfact>
</mgrwt>
</event>
<event>
 6    1  0.2959206E-003  0.6433128E+03  0.7818608E-02  0.9819409E-01
          1   -1    0    0  502    0  0.00000000000E+00  0.00000000000E+00  0.10356640053E+03  0.10356640053E+03  0.00000000000E+00 0.  1.
         13   -1    0    0    0    0 -0.00000000000E+00 -0.00000000000E+00 -0.10000000000E+04  0.10000000000E+04  0.00000000000E+00 0.  1.
    9000005    2    1    2  501    0 -0.41112745469E-02  0.64048077983E-02 -0.89653702116E+03  0.11034626992E+04  0.64331275295E+03 0.  0.
         13    1    3    3    0    0 -0.30817676543E+03 -0.88250216699E+02 -0.49373331011E+03  0.58867104652E+03  0.00000000000E+00 0.  1.
          1    1    3    3  501    0  0.30817265416E+03  0.88256621507E+02 -0.40280371105E+03  0.51479165266E+03  0.00000000000E+00 0.  1.
         21    1    1    2  502  501  0.41112745469E-02 -0.64048077983E-02  0.10342168712E+00  0.10370134767E+00  0.00000000000E+00 0. -1.
<mgrwt>
<rscale>  1 0.64331275E+03</rscale>
<asrwt>0</asrwt>
<pdfrwt beam="1">  1        1 0.37660589E+00 0.64331275E+03</pdfrwt>
<pdfrwt beam="2">0</pdfrwt>
<totfact> 0.17005838E+00</totfact>
</mgrwt>
</event>
<event>
 6    1  0.2959206E-003  0.6594409E+03  0.7818608E-02  0.9789223E-01
          1   -1    0    0  502    0  0.00000000000E+00  0.00000000000E+00  0.10877138467E+03  0.10877138467E+03  0.00000000000E+00 0.  1.
         13   -1    0    0    0    0 -0.00000000000E+00 -0.00000000000E+00 -0.10000000000E+04  0.10000000000E+04  0.00000000000E+00 0.  1.
    9000005    2    1    2  501    0  0.12574158719E+00 -0.48089576313E-01 -0.89117230404E+03  0.11086254583E+04  0.65944090949E+03 0.  0.
         13    1    3    3    0    0 -0.59449236451E+02 -0.22977201457E+03 -0.60796041788E+02  0.24500112059E+03  0.00000000000E+00 0.  1.
          3    1    3    3  501    0  0.59574978039E+02  0.22972392499E+03 -0.83037626225E+03  0.86362433768E+03  0.00000000000E+00 0.  1.
         21    1    1    2  502  501 -0.12574158719E+00  0.48089576313E-01 -0.56311289493E-01  0.14592640413E+00  0.00000000000E+00 0. -1.
<mgrwt>
<rscale>  1 0.65944092E+03</rscale>
<asrwt>0</asrwt>
<pdfrwt beam="1">  1        1 0.39553314E+00 0.65944092E+03</pdfrwt>
<pdfrwt beam="2">0</pdfrwt>
<totfact> 0.13980807E+00</totfact>
</mgrwt>
</event>
<event>
 6    1  0.2959206E-003  0.6427633E+03  0.7818608E-02  0.9820454E-01
          1   -1    0    0  502    0  0.00000000000E+00  0.00000000000E+00  0.10777257624E+03  0.10777257624E+03  0.00000000000E+00 0.  1.
         13   -1    0    0    0    0 -0.00000000000E+00 -0.00000000000E+00 -0.10000000000E+04  0.10000000000E+04  0.00000000000E+00 0.  1.
    9000005    2    1    2  501    0 -0.19293242871E+00  0.12582635263E+00 -0.89671058747E+03  0.11032834993E+04  0.64276321380E+03 0.  0.
         13    1    3    3    0    0 -0.31612691821E+03 -0.43056561264E+02 -0.51608839316E+03  0.60674321210E+03  0.00000000000E+00 0.  1.
          1    1    3    3  501    0  0.31593398578E+03  0.43182387616E+02 -0.38062219432E+03  0.49654028716E+03  0.00000000000E+00 0.  1.
         21    1    1    2  502  501  0.19293242871E+00 -0.12582635263E+00  0.44831637108E+01  0.44890769709E+01  0.00000000000E+00 0.  1.
<mgrwt>
<rscale>  1 0.64276326E+03</rscale>
<asrwt>0</asrwt>
<pdfrwt beam="1">  1        1 0.39190110E+00 0.64276326E+03</pdfrwt>
<pdfrwt beam="2">0</pdfrwt>
<totfact> 0.14555514E+00</totfact>
</mgrwt>
</event>
<event>
 6    1  0.2959206E-003  0.6705212E+03  0.7818608E-02  0.9769017E-01
          1   -1    0    0  502    0  0.00000000000E+00  0.00000000000E+00  0.11239984131E+03  0.11239984131E+03  0.00000000000E+00 0.  1.
         13   -1    0    0    0    0 -0.00000000000E+00 -0.00000000000E+00 -0.10000000000E+04  0.10000000000E+04  0.00000000000E+00 0.  1.
    9000005    2    1    2  501    0  0.67843623782E-04 -0.70697615058E-04 -0.88760032360E+03  0.11123996495E+04  0.67052117469E+03 0.  0.
         13    1    3    3    0    0  0.25086588485E+03  0.21503981985E+03 -0.34960349462E+03  0.48103889630E+03  0.00000000000E+00 0.  1.
          1    1    3    3  501    0 -0.25086581701E+03 -0.21503989054E+03 -0.53799682898E+03  0.63136075318E+03  0.00000000000E+00 0.  1.
         21    1    1    2  502  501 -0.67843623769E-04  0.70697615071E-04  0.16491730599E-03  0.19182968455E-03  0.00000000000E+00 0.  1.
<mgrwt>
<rscale>  1 0.67052117E+03</rscale>
<asrwt>0</asrwt>
<pdfrwt beam="1">  1        1 0.40872756E+00 0.67052117E+03</pdfrwt>
<pdfrwt beam="2">0</pdfrwt>
<totfact> 0.12181976E+00</totfact>
</mgrwt>
</event>
<event>
 6    1  0.2959206E-003  0.6574297E+03  0.7818608E-02  0.9792937E-01
          1   -1    0    0  502    0  0.00000000000E+00  0.00000000000E+00  0.14045426790E+03  0.14045426790E+03  0.00000000000E+00 0.  1.
         13   -1    0    0    0    0 -0.00000000000E+00 -0.00000000000E+00 -0.10000000000E+04  0.10000000000E+04  0.00000000000E+00 0.  1.
    9000005    2    1    2  501    0  0.27918119065E+00 -0.10419834964E+01 -0.89193659880E+03  0.11080454432E+04  0.65742881310E+03 0.  0.
         13    1    3    3    0    0 -0.37033290428E+02  0.32595523285E+03 -0.42971546573E+03  0.54062339934E+03  0.00000000000E+00 0.  1.
          1    1    3    3  501    0  0.37312471618E+02 -0.32699721634E+03 -0.46222113306E+03  0.56742204388E+03  0.00000000000E+00 0.  1.
         21    1    1    2  502  501 -0.27918119065E+00  0.10419834964E+01  0.32390866700E+02  0.32408824683E+02  0.00000000000E+00 0.  1.
<mgrwt>
<rscale>  1 0.65742970E+03</rscale>
<asrwt>0</asrwt>
<pdfrwt beam="1">  1        1 0.51074387E+00 0.65742970E+03</pdfrwt>
<pdfrwt beam="2">0</pdfrwt>
<totfact> 0.40954209E-01</totfact>
</mgrwt>
</event>
<event>
 6    1  0.2959206E-003  0.6290995E+03  0.7818608E-02  0.9846808E-01
          1   -1    0    0  502    0  0.00000000000E+00  0.00000000000E+00  0.10256113506E+03  0.10256113506E+03  0.00000000000E+00 0.  1.
         13   -1    0    0    0    0 -0.00000000000E+00 -0.00000000000E+00 -0.10000000000E+04  0.10000000000E+04  0.00000000000E+00 0.  1.
    9000005    2    1    2  501    0  0.12010993787E+01 -0.13671907436E+01 -0.90080549537E+03  0.10987341192E+04  0.62909682265E+03 0.  0.
         13    1    3    3    0    0 -0.70448142162E+02  0.22183538790E+03 -0.81744121150E+03  0.84993177039E+03  0.00000000000E+00 0.  1.
          1    1    3    3  501    0  0.71649241541E+02 -0.22320257865E+03 -0.83364283869E+02  0.24880234877E+03  0.00000000000E+00 0.  1.
         21    1    1    2  502  501 -0.12010993787E+01  0.13671907436E+01  0.33666304252E+01  0.38270158958E+01  0.00000000000E+00 0. -1.
<mgrwt>
<rscale>  1 0.62909945E+03</rscale>
<asrwt>0</asrwt>
<pdfrwt beam="1">  1        1 0.37295037E+00 0.62909945E+03</pdfrwt>
<pdfrwt beam="2">0</pdfrwt>
<totfact> 0.17693835E+00</totfact>
</mgrwt>
</event>
<event>
 6    1  0.2959206E-003  0.5148727E+03  0.7818608E-02  0.1009968E+00
          1   -1    0    0  502    0  0.00000000000E+00  0.00000000000E+00  0.66273544969E+02  0.66273544969E+02  0.00000000000E+00 0.  1.
         13   -1    0    0    0    0 -0.00000000000E+00 -0.00000000000E+00 -0.10000000000E+04  0.10000000000E+04  0.00000000000E+00 0.  1.
    9000005    2    1    2  501    0  0.65192519543E-05  0.32391316779E-04 -0.93372651694E+03  0.10662734748E+04  0.51487271689E+03 0.  0.
         13    1    3    3    0    0 -0.88969048522E+02  0.13505614121E+03 -0.88166202374E+03  0.89637245438E+03  0.00000000000E+00 0.  1.
          1    1    3    3  501    0  0.88969055041E+02 -0.13505610882E+03 -0.52064493208E+02  0.16990102041E+03  0.00000000000E+00 0.  1.
         21    1    1    2  502  501 -0.65192519569E-05 -0.32391316764E-04  0.61913236635E-04  0.70177966046E-04  0.00000000000E+00 0. -1.
<mgrwt>
<rscale>  1 0.51487272E+03</rscale>
<asrwt>0</asrwt>
<pdfrwt beam="1">  1        1 0.24099522E+00 0.51487272E+03</pdfrwt>
<pdfrwt beam="2">0</pdfrwt>
<totfact> 0.67433991E+00</totfact>
</mgrwt>
</event>
<event>
 6    1  0.2959206E-003  0.6466861E+03  0.7818608E-02  0.9813017E-01
          1   -1    0    0  502    0  0.00000000000E+00  0.00000000000E+00  0.10459612786E+03  0.10459612786E+03  0.00000000000E+00 0.  1.
         13   -1    0    0    0    0 -0.00000000000E+00 -0.00000000000E+00 -0.10000000000E+04  0.10000000000E+04  0.00000000000E+00 0.  1.
    9000005    2    1    2  501    0  0.91634820640E-01 -0.37685341108E-01 -0.89537939598E+03  0.11044940680E+04  0.64668607048E+03 0.  0.
         13    1    3    3    0    0 -0.21508168405E+02  0.41879508853E+02 -0.99403440663E+03  0.99514868041E+03  0.00000000000E+00 0.  1.
          1    1    3    3  501    0  0.21599803226E+02 -0.41917194194E+02  0.98655010646E+02  0.10934538762E+03  0.00000000000E+00 0.  1.
         21    1    1    2  502  501 -0.91634820640E-01  0.37685341108E-01 -0.24476160272E-01  0.10205982417E+00  0.00000000000E+00 0. -1.
<mgrwt>
<rscale>  1 0.64668608E+03</rscale>
<asrwt>0</asrwt>
<pdfrwt beam="1">  1        1 0.38035036E+00 0.64668608E+03</pdfrwt>
<pdfrwt beam="2">0</pdfrwt>
<totfact> 0.16361375E+00</totfact>
</mgrwt>
</event>
<event>
 6    1  0.2959206E-003  0.6585666E+03  0.7818608E-02  0.9790836E-01
          1   -1    0    0  502    0  0.00000000000E+00  0.00000000000E+00  0.10991132402E+03  0.10991132402E+03  0.00000000000E+00 0.  1.
         13   -1    0    0    0    0 -0.00000000000E+00 -0.00000000000E+00 -0.10000000000E+04  0.10000000000E+04  0.00000000000E+00 0.  1.
    9000005    2    1    2  501    0 -0.50831676628E-01 -0.18519835596E-01 -0.89157196328E+03  0.11084270504E+04  0.65856659308E+03 0.  0.
         13    1    3    3    0    0 -0.26128709873E+03 -0.20010019409E+03 -0.46526340907E+03  0.56989567068E+03  0.00000000000E+00 0.  1.
          3    1    3    3  501    0  0.26123626705E+03  0.20008167426E+03 -0.42630855421E+03  0.53853137976E+03  0.00000000000E+00 0.  1.
         21    1    1    2  502  501  0.50831676628E-01  0.18519835596E-01  0.14832873030E+01  0.14842735822E+01  0.00000000000E+00 0.  1.
<mgrwt>
<rscale>  1 0.65856660E+03</rscale>
<asrwt>0</asrwt>
<pdfrwt beam="1">  1        1 0.39967838E+00 0.65856660E+03</pdfrwt>
<pdfrwt beam="2">0</pdfrwt>
<totfact> 0.13401232E+00</totfact>
</mgrwt>
</event>
<event>
 6    1  0.2959206E-003  0.6518346E+03  0.7818608E-02  0.9803343E-01
          3   -1    0    0  502    0  0.00000000000E+00  0.00000000000E+00  0.10625452734E+03  0.10625452734E+03  0.00000000000E+00 0.  1.
         13   -1    0    0    0    0 -0.00000000000E+00 -0.00000000000E+00 -0.10000000000E+04  0.10000000000E+04  0.00000000000E+00 0.  1.
    9000005    2    1    2  501    0 -0.23571411644E-02 -0.49680737435E-02 -0.89377766284E+03  0.11062218709E+04  0.65183457792E+03 0.  0.
         13    1    3    3    0    0 -0.24510403046E+03 -0.15749855774E+03 -0.19896749074E+03  0.35280283985E+03  0.00000000000E+00 0.  1.
          1    1    3    3  501    0  0.24510167331E+03  0.15749358966E+03 -0.69481017210E+03  0.75341903101E+03  0.00000000000E+00 0.  1.
         21    1    1    2  502  501  0.23571411644E-02  0.49680737435E-02  0.32190175054E-01  0.32656473190E-01  0.00000000000E+00 0. -1.
<mgrwt>
<rscale>  1 0.65183458E+03</rscale>
<asrwt>0</asrwt>
<pdfrwt beam="1">  1        3 0.38638091E+00 0.65183458E+03</pdfrwt>
<pdfrwt beam="2">0</pdfrwt>
<totfact> 0.69827977E-02</totfact>
</mgrwt>
</event>
<event>
 6    1  0.2959206E-003  0.6488521E+03  0.7818608E-02  0.9808936E-01
          1   -1    0    0  502    0  0.00000000000E+00  0.00000000000E+00  0.10534731011E+03  0.10534731011E+03  0.00000000000E+00 0.  1.
         13   -1    0    0    0    0 -0.00000000000E+00 -0.00000000000E+00 -0.10000000000E+04  0.10000000000E+04  0.00000000000E+00 0.  1.
    9000005    2    1    2  501    0 -0.95700529560E-03 -0.77997360191E-02 -0.89474755728E+03  0.11052521178E+04  0.64885210381E+03 0.  0.
         13    1    3    3    0    0  0.95461998058E+02  0.30939392439E+03 -0.41278636571E+03  0.52462384356E+03  0.00000000000E+00 0.  1.
          1    1    3    3  501    0 -0.95462955064E+02 -0.30940172412E+03 -0.48196119157E+03  0.58062827425E+03  0.00000000000E+00 0.  1.
         21    1    1    2  502  501  0.95700529561E-03  0.77997360191E-02  0.94867384577E-01  0.95192291692E-01  0.00000000000E+00 0. -1.
<mgrwt>
<rscale>  1 0.64885210E+03</rscale>
<asrwt>0</asrwt>
<pdfrwt beam="1">  1        1 0.38308194E+00 0.64885210E+03</pdfrwt>
<pdfrwt beam="2">0</pdfrwt>
<totfact> 0.15906847E+00</totfact>
</mgrwt>
</event>
<event>
 6    1  0.2959206E-003  0.6359952E+03  0.7818608E-02  0.9833419E-01
          1   -1    0    0  502    0  0.00000000000E+00  0.00000000000E+00  0.10112330255E+03  0.10112330255E+03  0.00000000000E+00 0.  1.
         13   -1    0    0    0    0 -0.00000000000E+00 -0.00000000000E+00 -0.10000000000E+04  0.10000000000E+04  0.00000000000E+00 0.  1.
    9000005    2    1    2  501    0  0.27755033221E-03  0.41659678069E-03 -0.89887745052E+03  0.11011223983E+04  0.63599517682E+03 0.  0.
         13    1    3    3    0    0  0.30171469702E+03 -0.40563635505E+02 -0.29033124021E+03  0.42067730621E+03  0.00000000000E+00 0.  1.
          3    1    3    3  501    0 -0.30171441947E+03  0.40564052101E+02 -0.60854621031E+03  0.68044509207E+03  0.00000000000E+00 0.  1.
         21    1    1    2  502  501 -0.27755033222E-03 -0.41659678069E-03  0.75307419825E-03  0.90427197936E-03  0.00000000000E+00 0. -1.
<mgrwt>
<rscale>  1 0.63599518E+03</rscale>
<asrwt>0</asrwt>
<pdfrwt beam="1">  1        1 0.36772188E+00 0.63599518E+03</pdfrwt>
<pdfrwt beam="2">0</pdfrwt>
<totfact> 0.18630884E+00</totfact>
</mgrwt>
</event>
<event>
 6    1  0.2959206E-003  0.6479605E+03  0.7818608E-02  0.9810614E-01
          1   -1    0    0  502    0  0.00000000000E+00  0.00000000000E+00  0.11565382391E+03  0.11565382391E+03  0.00000000000E+00 0.  1.
         13   -1    0    0    0    0 -0.00000000000E+00 -0.00000000000E+00 -0.10000000000E+04  0.10000000000E+04  0.00000000000E+00 0.  1.
    9000005    2    1    2  501    0 -0.49133653001E-01 -0.24309132686E+00 -0.89503520478E+03  0.11049619185E+04  0.64796046329E+03 0.  0.
         13    1    3    3    0    0 -0.36550459878E+01 -0.15760360058E+03 -0.93037923966E+03  0.94364070698E+03  0.00000000000E+00 0.  1.
          1    1    3    3  501    0  0.36059123348E+01  0.15736050925E+03  0.35344034887E+02  0.16132121150E+03  0.00000000000E+00 0.  1.
         21    1    1    2  502  501  0.49133653001E-01  0.24309132686E+00  0.10689028687E+02  0.10691905433E+02  0.00000000000E+00 0. -1.
<mgrwt>
<rscale>  1 0.64796051E+03</rscale>
<asrwt>0</asrwt>
<pdfrwt beam="1">  1        1 0.42056025E+00 0.64796051E+03</pdfrwt>
<pdfrwt beam="2">0</pdfrwt>
<totfact> 0.10824420E+00</totfact>
</mgrwt>
</event>
<event>
 6    1  0.2959206E-003  0.6492146E+03  0.7818608E-02  0.9808254E-01
          3   -1    0    0  502    0  0.00000000000E+00  0.00000000000E+00  0.10544040612E+03  0.10544040612E+03  0.00000000000E+00 0.  1.
         13   -1    0    0    0    0 -0.00000000000E+00 -0.00000000000E+00 -0.10000000000E+04  0.10000000000E+04  0.00000000000E+00 0.  1.
    9000005    2    1    2  501    0  0.42760910306E-01  0.28060603058E-01 -0.89461971718E+03  0.11053614713E+04  0.64921455720E+03 0.  0.
         13    1    3    3    0    0 -0.16538479265E+03 -0.15033968130E+03 -0.46522192002E+02  0.22829468623E+03  0.00000000000E+00 0.  1.
          1    1    3    3  501    0  0.16542755356E+03  0.15036774190E+03 -0.84809752518E+03  0.87706678508E+03  0.00000000000E+00 0.  1.
         21    1    1    2  502  501 -0.42760910306E-01 -0.28060603058E-01  0.60123295341E-01  0.78934805611E-01  0.00000000000E+00 0.  1.
<mgrwt>
<rscale>  1 0.64921456E+03</rscale>
<asrwt>0</asrwt>
<pdfrwt beam="1">  1        3 0.38342047E+00 0.64921456E+03</pdfrwt>
<pdfrwt beam="2">0</pdfrwt>
<totfact> 0.72414802E-02</totfact>
</mgrwt>
</event>
<event>
 6    1  0.2959206E-003  0.6321714E+03  0.7818608E-02  0.9840821E-01
          1   -1    0    0  502    0  0.00000000000E+00  0.00000000000E+00  0.99915064199E+02  0.99915064199E+02  0.00000000000E+00 0.  1.
         13   -1    0    0    0    0 -0.00000000000E+00 -0.00000000000E+00 -0.10000000000E+04  0.10000000000E+04  0.00000000000E+00 0.  1.
    9000005    2    1    2  501    0 -0.11673559205E-01  0.53417528934E-02 -0.90007795336E+03  0.10999004505E+04  0.63217139976E+03 0.  0.
         13    1    3    3    0    0 -0.28359645529E+03 -0.12972711521E+03 -0.53972389894E+03  0.62334417536E+03  0.00000000000E+00 0.  1.
          1    1    3    3  501    0  0.28358478173E+03  0.12973245696E+03 -0.36035405442E+03  0.47655627512E+03  0.00000000000E+00 0.  1.
         21    1    1    2  502  501  0.11673559205E-01 -0.53417528934E-02 -0.69824436566E-02  0.14613720536E-01  0.00000000000E+00 0.  1.
<mgrwt>
<rscale>  1 0.63217140E+03</rscale>
<asrwt>0</asrwt>
<pdfrwt beam="1">  1        1 0.36332827E+00 0.63217140E+03</pdfrwt>
<pdfrwt beam="2">0</pdfrwt>
<totfact> 0.19489174E+00</totfact>
</mgrwt>
</event>
<event>
 6    1  0.2959206E-003  0.6335663E+03  0.7818608E-02  0.9838114E-01
          1   -1    0    0  502    0  0.00000000000E+00  0.00000000000E+00  0.11431610916E+03  0.11431610916E+03  0.00000000000E+00 0.  1.
         13   -1    0    0    0    0 -0.00000000000E+00 -0.00000000000E+00 -0.10000000000E+04  0.10000000000E+04  0.00000000000E+00 0.  1.
    9000005    2    1    2  501    0  0.66804342514E+01 -0.13448507515E+02 -0.89506722815E+03  0.10966091169E+04  0.63338828675E+03 0.  0.
         13    1    3    3    0    0 -0.26467434487E+03 -0.51617777807E+02 -0.72639148193E+03  0.77482997414E+03  0.00000000000E+00 0.  1.
          3    1    3    3  501    0  0.27135477912E+03  0.38169270291E+02 -0.16867574622E+03  0.32177914275E+03  0.00000000000E+00 0.  1.
         21    1    1    2  502  501 -0.66804342514E+01  0.13448507515E+02  0.93833373040E+01  0.17706992267E+02  0.00000000000E+00 0.  1.
<mgrwt>
<rscale>  1 0.63356627E+03</rscale>
<asrwt>0</asrwt>
<pdfrwt beam="1">  1        1 0.41569582E+00 0.63356627E+03</pdfrwt>
<pdfrwt beam="2">0</pdfrwt>
<totfact> 0.11417140E+00</totfact>
</mgrwt>
</event>
<event>
 6    1  0.2959206E-003  0.6452250E+03  0.7818608E-02  0.9815781E-01
          1   -1    0    0  502    0  0.00000000000E+00  0.00000000000E+00  0.10408128749E+03  0.10408128749E+03  0.00000000000E+00 0.  1.
         13   -1    0    0    0    0 -0.00000000000E+00 -0.00000000000E+00 -0.10000000000E+04  0.10000000000E+04  0.00000000000E+00 0.  1.
    9000005    2    1    2  501    0  0.12808001463E-03  0.10272815899E-04 -0.89592116005E+03  0.11040788366E+04  0.64522504009E+03 0.  0.
         13    1    3    3    0    0  0.16050979598E+03  0.16021035580E+03 -0.55333543803E+02  0.23343640200E+03  0.00000000000E+00 0.  1.
          3    1    3    3  501    0 -0.16050966790E+03 -0.16021034553E+03 -0.84058761625E+03  0.87064243458E+03  0.00000000000E+00 0.  1.
         21    1    1    2  502  501 -0.12808001466E-03 -0.10272815925E-04  0.24475414563E-02  0.24509119121E-02  0.00000000000E+00 0.  1.
<mgrwt>
<rscale>  1 0.64522504E+03</rscale>
<asrwt>0</asrwt>
<pdfrwt beam="1">  1        1 0.37847821E+00 0.64522504E+03</pdfrwt>
<pdfrwt beam="2">0</pdfrwt>
<totfact> 0.16679937E+00</totfact>
</mgrwt>
</event>
<event>
 6    1  0.2959206E-003  0.6539410E+03  0.7818608E-02  0.9799412E-01
          1   -1    0    0  502    0  0.00000000000E+00  0.00000000000E+00  0.10702282485E+03  0.10702282485E+03  0.00000000000E+00 0.  1.
         13   -1    0    0    0    0 -0.00000000000E+00 -0.00000000000E+00 -0.10000000000E+04  0.10000000000E+04  0.00000000000E+00 0.  1.
    9000005    2    1    2  501    0 -0.16458146262E-02 -0.96873551981E-02 -0.89309006815E+03  0.11069095050E+04  0.65394096247E+03 0.  0.
         13    1    3    3    0    0 -0.20670900040E+03 -0.18128151496E+03 -0.14698805299E+03  0.31176447238E+03  0.00000000000E+00 0.  1.
          3    1    3    3  501    0  0.20670735459E+03  0.18127182761E+03 -0.74610201515E+03  0.79514503265E+03  0.00000000000E+00 0.  1.
         21    1    1    2  502  501  0.16458146262E-02  0.96873551980E-02  0.11289299880E+00  0.11331982498E+00  0.00000000000E+00 0. -1.
<mgrwt>
<rscale>  1 0.65394096E+03</rscale>
<asrwt>0</asrwt>
<pdfrwt beam="1">  1        1 0.38917473E+00 0.65394096E+03</pdfrwt>
<pdfrwt beam="2">0</pdfrwt>
<totfact> 0.14935165E+00</totfact>
</mgrwt>
</event>
<event>
 6    1  0.2959206E-003  0.6501371E+03  0.7818608E-02  0.9806522E-01
          1   -1    0    0  502    0  0.00000000000E+00  0.00000000000E+00  0.10568106498E+03  0.10568106498E+03  0.00000000000E+00 0.  1.
         13   -1    0    0    0    0 -0.00000000000E+00 -0.00000000000E+00 -0.10000000000E+04  0.10000000000E+04  0.00000000000E+00 0.  1.
    9000005    2    1    2  501    0 -0.15299410611E-01 -0.62619648196E-02 -0.89432348398E+03  0.11056639192E+04  0.65013706863E+03 0.  0.
         13    1    3    3    0    0 -0.11250248011E+03 -0.13637478400E+03  0.16765505284E+02  0.17758370395E+03  0.00000000000E+00 0.  1.
          1    1    3    3  501    0  0.11248718070E+03  0.13636852204E+03 -0.91108898926E+03  0.92808021527E+03  0.00000000000E+00 0.  1.
         21    1    1    2  502  501  0.15299410611E-01  0.62619648196E-02  0.45489586091E-02  0.17145763117E-01  0.00000000000E+00 0. -1.
<mgrwt>
<rscale>  1 0.65013707E+03</rscale>
<asrwt>0</asrwt>
<pdfrwt beam="1">  1        1 0.38429559E+00 0.65013707E+03</pdfrwt>
<pdfrwt beam="2">0</pdfrwt>
<totfact> 0.15707839E+00</totfact>
</mgrwt>
</event>
<event>
 6    1  0.2959206E-003  0.6538440E+03  0.7818608E-02  0.9799593E-01
          1   -1    0    0  502    0  0.00000000000E+00  0.00000000000E+00  0.12102126280E+03  0.12102126280E+03  0.00000000000E+00 0.  1.
         13   -1    0    0    0    0 -0.00000000000E+00 -0.00000000000E+00 -0.10000000000E+04  0.10000000000E+04  0.00000000000E+00 0.  1.
    9000005    2    1    2  501    0 -0.38415800697E+01  0.37210568685E+01 -0.89256016471E+03  0.11064247161E+04  0.65382214770E+03 0.  0.
         13    1    3    3    0    0  0.14026113436E+03 -0.17254938494E+03 -0.84508471115E+03  0.87385047067E+03  0.00000000000E+00 0.  1.
          3    1    3    3  501    0 -0.14410271443E+03  0.17627044180E+03 -0.47475453554E+02  0.23257424546E+03  0.00000000000E+00 0.  1.
         21    1    1    2  502  501  0.38415800697E+01 -0.37210568685E+01  0.13581427510E+02  0.14596546676E+02  0.00000000000E+00 0. -1.
<mgrwt>
<rscale>  1 0.65384402E+03</rscale>
<asrwt>0</asrwt>
<pdfrwt beam="1">  1        1 0.44007825E+00 0.65384402E+03</pdfrwt>
<pdfrwt beam="2">0</pdfrwt>
<totfact> 0.88157747E-01</totfact>
</mgrwt>
</event>
<event>
 6    1  0.2959206E-003  0.6611615E+03  0.7818608E-02  0.9786058E-01
          1   -1    0    0  502    0  0.00000000000E+00  0.00000000000E+00  0.10930992663E+03  0.10930992663E+03  0.00000000000E+00 0.  1.
         13   -1    0    0    0    0 -0.00000000000E+00 -0.00000000000E+00 -0.10000000000E+04  0.10000000000E+04  0.00000000000E+00 0.  1.
    9000005    2    1    2  501    0  0.18397415085E-02 -0.61221065096E-04 -0.89071633568E+03  0.11092835999E+04  0.66116148885E+03 0.  0.
         13    1    3    3    0    0 -0.19179156217E+03  0.26850206613E+03 -0.47915943720E+03  0.58178271639E+03  0.00000000000E+00 0.  1.
          3    1    3    3  501    0  0.19179340191E+03 -0.26850212735E+03 -0.41155689848E+03  0.52750088350E+03  0.00000000000E+00 0.  1.
         21    1    1    2  502  501 -0.18397415085E-02  0.61221065088E-04  0.26262305870E-01  0.26326737482E-01  0.00000000000E+00 0. -1.
<mgrwt>
<rscale>  1 0.66116149E+03</rscale>
<asrwt>0</asrwt>
<pdfrwt beam="1">  1        1 0.39749148E+00 0.66116149E+03</pdfrwt>
<pdfrwt beam="2">0</pdfrwt>
<totfact> 0.13698633E+00</totfact>
</mgrwt>
</event>
<event>
 6    1  0.2959206E-003  0.6576985E+03  0.7818608E-02  0.9792440E-01
          1   -1    0    0  502    0  0.00000000000E+00  0.00000000000E+00  0.10814345220E+03  0.10814345220E+03  0.00000000000E+00 0.  1.
         13   -1    0    0    0    0 -0.00000000000E+00 -0.00000000000E+00 -0.10000000000E+04  0.10000000000E+04  0.00000000000E+00 0.  1.
    9000005    2    1    2  501    0 -0.21925340838E-02  0.19744388000E-02 -0.89185652530E+03  0.11081405016E+04  0.65769849440E+03 0.  0.
         13    1    3    3    0    0  0.29642959981E+03  0.46249284824E+02 -0.21905139186E+03  0.37147411251E+03  0.00000000000E+00 0.  1.
          1    1    3    3  501    0 -0.29643179234E+03 -0.46247310385E+02 -0.67280513343E+03  0.73666638908E+03  0.00000000000E+00 0.  1.
         21    1    1    2  502  501  0.21925340838E-02 -0.19744388000E-02 -0.22502144967E-04  0.29506136024E-02  0.00000000000E+00 0.  1.
<mgrwt>
<rscale>  1 0.65769849E+03</rscale>
<asrwt>0</asrwt>
<pdfrwt beam="1">  1        1 0.39324975E+00 0.65769849E+03</pdfrwt>
<pdfrwt beam="2">0</pdfrwt>
<totfact> 0.14316061E+00</totfact>
</mgrwt>
</event>
<event>
 6    1  0.2959206E-003  0.6480324E+03  0.7818608E-02  0.9810478E-01
          1   -1    0    0  502    0  0.00000000000E+00  0.00000000000E+00  0.10501138349E+03  0.10501138349E+03  0.00000000000E+00 0.  1.
         13   -1    0    0    0    0 -0.00000000000E+00 -0.00000000000E+00 -0.10000000000E+04  0.10000000000E+04  0.00000000000E+00 0.  1.
    9000005    2    1    2  501    0  0.14360664778E-02 -0.15481267002E-03 -0.89501347771E+03  0.11049864804E+04  0.64803240392E+03 0.  0.
         13    1    3    3    0    0  0.17141286907E+03 -0.26493037808E+03 -0.32201652600E+03  0.45084933174E+03  0.00000000000E+00 0.  1.
          1    1    3    3  501    0 -0.17141143300E+03  0.26493022326E+03 -0.57299695170E+03  0.65413714863E+03  0.00000000000E+00 0.  1.
         21    1    1    2  502  501 -0.14360664778E-02  0.15481266999E-03  0.24861195211E-01  0.24903117901E-01  0.00000000000E+00 0.  1.
<mgrwt>
<rscale>  1 0.64803240E+03</rscale>
<asrwt>0</asrwt>
<pdfrwt beam="1">  1        1 0.38186038E+00 0.64803240E+03</pdfrwt>
<pdfrwt beam="2">0</pdfrwt>
<totfact> 0.16108163E+00</totfact>
</mgrwt>
</event>
<event>
 6    1  0.2959206E-003  0.6725170E+03  0.7818608E-02  0.9765422E-01
          1   -1    0    0  502    0  0.00000000000E+00  0.00000000000E+00  0.11352072223E+03  0.11352072223E+03  0.00000000000E+00 0.  1.
         13   -1    0    0    0    0 -0.00000000000E+00 -0.00000000000E+00 -0.10000000000E+04  0.10000000000E+04  0.00000000000E+00 0.  1.
    9000005    2    1    2  501    0  0.90487651036E-01  0.21897994418E-02 -0.88692516911E+03  0.11130657366E+04  0.67251696652E+03 0.  0.
         13    1    3    3    0    0  0.61993296309E+02  0.32709674088E+03 -0.52181868111E+03  0.61897510664E+03  0.00000000000E+00 0.  1.
          3    1    3    3  501    0 -0.61902808658E+02 -0.32709455108E+03 -0.36510648800E+03  0.49409062999E+03  0.00000000000E+00 0.  1.
         21    1    1    2  502  501 -0.90487651036E-01 -0.21897994418E-02  0.44589134492E+00  0.45498560602E+00  0.00000000000E+00 0.  1.
<mgrwt>
<rscale>  1 0.67251697E+03</rscale>
<asrwt>0</asrwt>
<pdfrwt beam="1">  1        1 0.41280350E+00 0.67251697E+03</pdfrwt>
<pdfrwt beam="2">0</pdfrwt>
<totfact> 0.11675118E+00</totfact>
</mgrwt>
</event>
<event>
 6    1  0.2959206E-003  0.6379421E+03  0.7818608E-02  0.9829672E-01
          1   -1    0    0  502    0  0.00000000000E+00  0.00000000000E+00  0.10184237468E+03  0.10184237468E+03  0.00000000000E+00 0.  1.
         13   -1    0    0    0    0 -0.00000000000E+00 -0.00000000000E+00 -0.10000000000E+04  0.10000000000E+04  0.00000000000E+00 0.  1.
    9000005    2    1    2  501    0  0.15259434480E+00  0.12507315013E+00 -0.89813651958E+03  0.11016439464E+04  0.63794211174E+03 0.  0.
         13    1    3    3    0    0 -0.20679198915E+03 -0.17556385826E+03 -0.15945611607E+03  0.31466148168E+03  0.00000000000E+00 0.  1.
          3    1    3    3  501    0  0.20694458349E+03  0.17568893141E+03 -0.73868040351E+03  0.78698246473E+03  0.00000000000E+00 0.  1.
         21    1    1    2  502  501 -0.15259434480E+00 -0.12507315013E+00 -0.21105735381E-01  0.19842827171E+00  0.00000000000E+00 0.  1.
<mgrwt>
<rscale>  1 0.63794214E+03</rscale>
<asrwt>0</asrwt>
<pdfrwt beam="1">  1        1 0.37033669E+00 0.63794214E+03</pdfrwt>
<pdfrwt beam="2">0</pdfrwt>
<totfact> 0.18138470E+00</totfact>
</mgrwt>
</event>
<event>
 6    1  0.2959206E-003  0.6272741E+03  0.7818608E-02  0.9850383E-01
          1   -1    0    0  502    0  0.00000000000E+00  0.00000000000E+00  0.98387778445E+02  0.98387778445E+02  0.00000000000E+00 0.  1.
         13   -1    0    0    0    0 -0.00000000000E+00 -0.00000000000E+00 -0.10000000000E+04  0.10000000000E+04  0.00000000000E+00 0.  1.
    9000005    2    1    2  501    0 -0.17790721585E-02 -0.57544829084E-02 -0.90163128422E+03  0.10983677868E+04  0.62727412065E+03 0.  0.
         13    1    3    3    0    0 -0.22627989662E+03 -0.87877768686E+02 -0.10305662220E+03  0.26371530335E+03  0.00000000000E+00 0.  1.
          1    1    3    3  501    0  0.22627811755E+03  0.87872014203E+02 -0.79857466202E+03  0.83465248348E+03  0.00000000000E+00 0.  1.
         21    1    1    2  502  501  0.17790721585E-02  0.57544829084E-02  0.19062666468E-01  0.19991608843E-01  0.00000000000E+00 0.  1.
<mgrwt>
<rscale>  1 0.62727412E+03</rscale>
<asrwt>0</asrwt>
<pdfrwt beam="1">  1        1 0.35777449E+00 0.62727412E+03</pdfrwt>
<pdfrwt beam="2">0</pdfrwt>
<totfact> 0.20628709E+00</totfact>
</mgrwt>
</event>
<event>
 6    1  0.2959206E-003  0.6398703E+03  0.7818608E-02  0.9825975E-01
          1   -1    0    0  502    0  0.00000000000E+00  0.00000000000E+00  0.10244837430E+03  0.10244837430E+03  0.00000000000E+00 0.  1.
         13   -1    0    0    0    0 -0.00000000000E+00 -0.00000000000E+00 -0.10000000000E+04  0.10000000000E+04  0.00000000000E+00 0.  1.
    9000005    2    1    2  501    0 -0.39354354507E-02 -0.27265446325E-02 -0.89764142257E+03  0.11023584499E+04  0.63987032163E+03 0.  0.
         13    1    3    3    0    0  0.29069589156E+03 -0.12981357160E+03 -0.39428388538E+03  0.50676961927E+03  0.00000000000E+00 0.  1.
          3    1    3    3  501    0 -0.29069982700E+03  0.12981084506E+03 -0.50335753719E+03  0.59558883062E+03  0.00000000000E+00 0.  1.
         21    1    1    2  502  501  0.39354354507E-02  0.27265446325E-02  0.89796872133E-01  0.89924412385E-01  0.00000000000E+00 0. -1.
<mgrwt>
<rscale>  1 0.63987032E+03</rscale>
<asrwt>0</asrwt>
<pdfrwt beam="1">  1        1 0.37254033E+00 0.63987032E+03</pdfrwt>
<pdfrwt beam="2">0</pdfrwt>
<totfact> 0.17732245E+00</totfact>
</mgrwt>
</event>
<event>
 6    1  0.2959206E-003  0.6380177E+03  0.7818608E-02  0.9829527E-01
          1   -1    0    0  502    0  0.00000000000E+00  0.00000000000E+00  0.10213696130E+03  0.10213696130E+03  0.00000000000E+00 0.  1.
         13   -1    0    0    0    0 -0.00000000000E+00 -0.00000000000E+00 -0.10000000000E+04  0.10000000000E+04  0.00000000000E+00 0.  1.
    9000005    2    1    2  501    0 -0.54444917348E-02 -0.86397362272E-02 -0.89823327039E+03  0.11017665888E+04  0.63801771766E+03 0.  0.
         13    1    3    3    0    0  0.21031651170E+02  0.20809381049E+03 -0.33160255924E+02  0.21176630253E+03  0.00000000000E+00 0.  1.
          1    1    3    3  501    0 -0.21037095662E+02 -0.20810245023E+03 -0.86507301447E+03  0.89000028626E+03  0.00000000000E+00 0.  1.
         21    1    1    2  502  501  0.54444917348E-02  0.86397362272E-02  0.37023169010E+00  0.37037250423E+00  0.00000000000E+00 0.  1.
<mgrwt>
<rscale>  1 0.63801772E+03</rscale>
<asrwt>0</asrwt>
<pdfrwt beam="1">  1        1 0.37140792E+00 0.63801772E+03</pdfrwt>
<pdfrwt beam="2">0</pdfrwt>
<totfact> 0.17942721E+00</totfact>
</mgrwt>
</event>
<event>
 6    1  0.2959206E-003  0.6738037E+03  0.7818608E-02  0.9763111E-01
          1   -1    0    0  502    0  0.00000000000E+00  0.00000000000E+00  0.11359259321E+03  0.11359259321E+03  0.00000000000E+00 0.  1.
         13   -1    0    0    0    0 -0.00000000000E+00 -0.00000000000E+00 -0.10000000000E+04  0.10000000000E+04  0.00000000000E+00 0.  1.
    9000005    2    1    2  501    0 -0.12102785759E-02  0.78014205766E-03 -0.88649714654E+03  0.11135028419E+04  0.67380367180E+03 0.  0.
         13    1    3    3    0    0  0.18291757340E+03  0.86964956901E+02  0.16594021210E+01  0.20254504685E+03  0.00000000000E+00 0.  1.
          1    1    3    3  501    0 -0.18291878368E+03 -0.86964176759E+02 -0.88815654866E+03  0.91095779506E+03  0.00000000000E+00 0.  1.
         21    1    1    2  502  501  0.12102785759E-02 -0.78014205766E-03  0.89739747136E-01  0.89751298664E-01  0.00000000000E+00 0.  1.
<mgrwt>
<rscale>  1 0.67380367E+03</rscale>
<asrwt>0</asrwt>
<pdfrwt beam="1">  1        1 0.41306485E+00 0.67380367E+03</pdfrwt>
<pdfrwt beam="2">0</pdfrwt>
<totfact> 0.11640751E+00</totfact>
</mgrwt>
</event>
<event>
 6    1  0.2959206E-003  0.6573458E+03  0.7818608E-02  0.9793092E-01
          1   -1    0    0  502    0  0.00000000000E+00  0.00000000000E+00  0.10802595147E+03  0.10802595147E+03  0.00000000000E+00 0.  1.
         13   -1    0    0    0    0 -0.00000000000E+00 -0.00000000000E+00 -0.10000000000E+04  0.10000000000E+04  0.00000000000E+00 0.  1.
    9000005    2    1    2  501    0  0.15137401761E-04  0.40806018205E-04 -0.89197411384E+03  0.11080258730E+04  0.65734581117E+03 0.  0.
         13    1    3    3    0    0  0.18163086840E+03  0.26841704337E+03 -0.53813301739E+03  0.62819155194E+03  0.00000000000E+00 0.  1.
          1    1    3    3  501    0 -0.18163085326E+03 -0.26841700256E+03 -0.35384109645E+03  0.47983432105E+03  0.00000000000E+00 0.  1.
         21    1    1    2  502  501 -0.15137401771E-04 -0.40806018234E-04  0.65304311158E-04  0.78478819514E-04  0.00000000000E+00 0. -1.
<mgrwt>
<rscale>  1 0.65734581E+03</rscale>
<asrwt>0</asrwt>
<pdfrwt beam="1">  1        1 0.39282247E+00 0.65734581E+03</pdfrwt>
<pdfrwt beam="2">0</pdfrwt>
<totfact> 0.14379706E+00</totfact>
</mgrwt>
</event>
<event>
 6    1  0.2959206E-003  0.6523142E+03  0.7818608E-02  0.9802446E-01
          1   -1    0    0  502    0  0.00000000000E+00  0.00000000000E+00  0.13382102971E+03  0.13382102971E+03  0.00000000000E+00 0.  1.
         13   -1    0    0    0    0 -0.00000000000E+00 -0.00000000000E+00 -0.10000000000E+04  0.10000000000E+04  0.00000000000E+00 0.  1.
    9000005    2    1    2  501    0  0.32675843196E+02 -0.50566124005E+01 -0.88212363738E+03  0.10971125502E+04  0.65147567582E+03 0.  0.
         13    1    3    3    0    0  0.11666412328E+03  0.30715840954E+03 -0.42465302302E+03  0.53692364091E+03  0.00000000000E+00 0.  1.
          1    1    3    3  501    0 -0.83988280083E+02 -0.31221502194E+03 -0.45747061436E+03  0.56018890932E+03  0.00000000000E+00 0.  1.
         21    1    1    2  502  501 -0.32675843196E+02  0.50566124005E+01  0.15944667091E+02  0.36708479487E+02  0.00000000000E+00 0. -1.
<mgrwt>
<rscale>  1 0.65231422E+03</rscale>
<asrwt>0</asrwt>
<pdfrwt beam="1">  1        1 0.48662295E+00 0.65231422E+03</pdfrwt>
<pdfrwt beam="2">0</pdfrwt>
<totfact> 0.53540842E-01</totfact>
</mgrwt>
</event>
<event>
 6    1  0.2959206E-003  0.6568360E+03  0.7818608E-02  0.9794036E-01
          1   -1    0    0  502    0  0.00000000000E+00  0.00000000000E+00  0.12183196509E+03  0.12183196509E+03  0.00000000000E+00 0.  1.
         13   -1    0    0    0    0 -0.00000000000E+00 -0.00000000000E+00 -0.10000000000E+04  0.10000000000E+04  0.00000000000E+00 0.  1.
    9000005    2    1    2  501    0 -0.11902495109E+00 -0.23468211830E+00 -0.89214025203E+03  0.11078572703E+04  0.65683592539E+03 0.  0.
         13    1    3    3    0    0 -0.21851188434E+03 -0.23407958202E+03 -0.32230994795E+03  0.45433951717E+03  0.00000000000E+00 0.  1.
          3    1    3    3  501    0  0.21839285939E+03  0.23384489990E+03 -0.56983030407E+03  0.65351775315E+03  0.00000000000E+00 0.  1.
         21    1    1    2  502  501  0.11902495109E+00  0.23468211830E+00  0.13972217114E+02  0.13974694763E+02  0.00000000000E+00 0.  1.
<mgrwt>
<rscale>  1 0.65683598E+03</rscale>
<asrwt>0</asrwt>
<pdfrwt beam="1">  1        1 0.44302626E+00 0.65683598E+03</pdfrwt>
<pdfrwt beam="2">0</pdfrwt>
<totfact> 0.85408703E-01</totfact>
</mgrwt>
</event>
<event>
 6    1  0.2959206E-003  0.6591437E+03  0.7818608E-02  0.9789771E-01
          1   -1    0    0  502    0  0.00000000000E+00  0.00000000000E+00  0.11035177336E+03  0.11035177336E+03  0.00000000000E+00 0.  1.
         13   -1    0    0    0    0 -0.00000000000E+00 -0.00000000000E+00 -0.10000000000E+04  0.10000000000E+04  0.00000000000E+00 0.  1.
    9000005    2    1    2  501    0 -0.10009826722E+01  0.39316143191E+01 -0.88816455375E+03  0.11060319536E+04  0.65913120720E+03 0.  0.
         13    1    3    3    0    0 -0.20039677033E+03  0.24594108727E+03 -0.60682138604E+03  0.68474672582E+03  0.00000000000E+00 0.  1.
          1    1    3    3  501    0  0.19939578766E+03 -0.24200947296E+03 -0.28134316771E+03  0.42128522779E+03  0.00000000000E+00 0.  1.
         21    1    1    2  502  501  0.10009826722E+01 -0.39316143191E+01 -0.14836728899E+01  0.43198197541E+01  0.00000000000E+00 0. -1.
<mgrwt>
<rscale>  1 0.65914369E+03</rscale>
<asrwt>0</asrwt>
<pdfrwt beam="1">  1        1 0.40128002E+00 0.65914369E+03</pdfrwt>
<pdfrwt beam="2">0</pdfrwt>
<totfact> 0.13181186E+00</totfact>
</mgrwt>
</event>
<event>
 6    1  0.2959206E-003  0.6533578E+03  0.7818608E-02  0.9800499E-01
          1   -1    0    0  502    0  0.00000000000E+00  0.00000000000E+00  0.10690991986E+03  0.10690991986E+03  0.00000000000E+00 0.  1.
         13   -1    0    0    0    0 -0.00000000000E+00 -0.00000000000E+00 -0.10000000000E+04  0.10000000000E+04  0.00000000000E+00 0.  1.
    9000005    2    1    2  501    0  0.11162669579E+00 -0.90196212746E-01 -0.89325055491E+03  0.11066946339E+04  0.65335781800E+03 0.  0.
         13    1    3    3    0    0  0.32545444073E+03  0.86424874723E+01 -0.49337674924E+03  0.59111411949E+03  0.00000000000E+00 0.  1.
          1    1    3    3  501    0 -0.32534281403E+03 -0.87326836850E+01 -0.39987380568E+03  0.51558051444E+03  0.00000000000E+00 0.  1.
         21    1    1    2  502  501 -0.11162669579E+00  0.90196212746E-01  0.16047477283E+00  0.21528592318E+00  0.00000000000E+00 0. -1.
<mgrwt>
<rscale>  1 0.65335783E+03</rscale>
<asrwt>0</asrwt>
<pdfrwt beam="1">  1        1 0.38876416E+00 0.65335783E+03</pdfrwt>
<pdfrwt beam="2">0</pdfrwt>
<totfact> 0.14999497E+00</totfact>
</mgrwt>
</event>
<event>
 6    1  0.2959206E-003  0.6519731E+03  0.7818608E-02  0.9803084E-01
          1   -1    0    0  502    0  0.00000000000E+00  0.00000000000E+00  0.10626858055E+03  0.10626858055E+03  0.00000000000E+00 0.  1.
         13   -1    0    0    0    0 -0.00000000000E+00 -0.00000000000E+00 -0.10000000000E+04  0.10000000000E+04  0.00000000000E+00 0.  1.
    9000005    2    1    2  501    0 -0.52525963241E-03  0.15528566363E-02 -0.89373219344E+03  0.11062667677E+04  0.65197310358E+03 0.  0.
         13    1    3    3    0    0 -0.14109071916E+03 -0.24881506208E+03 -0.71219277479E+03  0.76748555336E+03  0.00000000000E+00 0.  1.
          1    1    3    3  501    0  0.14109019390E+03  0.24881661494E+03 -0.18153941865E+03  0.33878121437E+03  0.00000000000E+00 0.  1.
         21    1    1    2  502  501  0.52525963241E-03 -0.15528566363E-02  0.77399316478E-03  0.18128228908E-02  0.00000000000E+00 0.  1.
<mgrwt>
<rscale>  1 0.65197310E+03</rscale>
<asrwt>0</asrwt>
<pdfrwt beam="1">  1        1 0.38643202E+00 0.65197310E+03</pdfrwt>
<pdfrwt beam="2">0</pdfrwt>
<totfact> 0.15364466E+00</totfact>
</mgrwt>
</event>
<event>
 6    1  0.2959206E-003  0.5887835E+03  0.7818608E-02  0.9928954E-01
          1   -1    0    0  502    0  0.00000000000E+00  0.00000000000E+00  0.86700001416E+02  0.86700001416E+02  0.00000000000E+00 0.  1.
         13   -1    0    0    0    0 -0.00000000000E+00 -0.00000000000E+00 -0.10000000000E+04  0.10000000000E+04  0.00000000000E+00 0.  1.
    9000005    2    1    2  501    0 -0.21294216964E-03  0.10498004754E-02 -0.91333350070E+03  0.10866664822E+04  0.58878345765E+03 0.  0.
         13    1    3    3    0    0  0.26160324300E+03 -0.95708599599E+02 -0.28089708717E+03  0.39560026082E+03  0.00000000000E+00 0.  1.
          1    1    3    3  501    0 -0.26160345594E+03  0.95709649399E+02 -0.63243641353E+03  0.69106622136E+03  0.00000000000E+00 0.  1.
         21    1    1    2  502  501  0.21294216961E-03 -0.10498004754E-02  0.33502112802E-01  0.33519233100E-01  0.00000000000E+00 0. -1.
<mgrwt>
<rscale>  1 0.58878346E+03</rscale>
<asrwt>0</asrwt>
<pdfrwt beam="1">  1        1 0.31527340E+00 0.58878346E+03</pdfrwt>
<pdfrwt beam="2">0</pdfrwt>
<totfact> 0.31764607E+00</totfact>
</mgrwt>
</event>
<event>
 6    1  0.2959206E-003  0.6480624E+03  0.7818608E-02  0.9810422E-01
          1   -1    0    0  502    0  0.00000000000E+00  0.00000000000E+00  0.10648449793E+03  0.10648449793E+03  0.00000000000E+00 0.  1.
         13   -1    0    0    0    0 -0.00000000000E+00 -0.00000000000E+00 -0.10000000000E+04  0.10000000000E+04  0.00000000000E+00 0.  1.
    9000005    2    1    2  501    0 -0.10195128032E+01 -0.19022245785E+00 -0.89480151775E+03  0.11048324001E+04  0.64806157156E+03 0.  0.
         13    1    3    3    0    0 -0.14734190121E+03  0.25788325637E+03 -0.66913377989E+03  0.73208839982E+03  0.00000000000E+00 0.  1.
          1    1    3    3  501    0  0.14632238841E+03 -0.25807347883E+03 -0.22566773787E+03  0.37274400027E+03  0.00000000000E+00 0.  1.
         21    1    1    2  502  501  0.10195128032E+01  0.19022245785E+00  0.12860156859E+01  0.16520978433E+01  0.00000000000E+00 0. -1.
<mgrwt>
<rscale>  1 0.64806240E+03</rscale>
<asrwt>0</asrwt>
<pdfrwt beam="1">  1        1 0.38721717E+00 0.64806240E+03</pdfrwt>
<pdfrwt beam="2">0</pdfrwt>
<totfact> 0.15253041E+00</totfact>
</mgrwt>
</event>
<event>
 6    1  0.2959206E-003  0.6505264E+03  0.7818608E-02  0.9805792E-01
          1   -1    0    0  502    0  0.00000000000E+00  0.00000000000E+00  0.10582333992E+03  0.10582333992E+03  0.00000000000E+00 0.  1.
         13   -1    0    0    0    0 -0.00000000000E+00 -0.00000000000E+00 -0.10000000000E+04  0.10000000000E+04  0.00000000000E+00 0.  1.
    9000005    2    1    2  501    0  0.14481060377E-02  0.66317828673E-02 -0.89420339531E+03  0.11057957564E+04  0.65052635815E+03 0.  0.
         13    1    3    3    0    0  0.12537196062E+03 -0.19354739733E+03 -0.83701461355E+03  0.86820054527E+03  0.00000000000E+00 0.  1.
          3    1    3    3  501    0 -0.12537051251E+03  0.19355402911E+03 -0.57188781767E+02  0.23759521113E+03  0.00000000000E+00 0.  1.
         21    1    1    2  502  501 -0.14481060377E-02 -0.66317828673E-02  0.26735228025E-01  0.27583509070E-01  0.00000000000E+00 0.  1.
<mgrwt>
<rscale>  1 0.65052636E+03</rscale>
<asrwt>0</asrwt>
<pdfrwt beam="1">  1        1 0.38481296E+00 0.65052636E+03</pdfrwt>
<pdfrwt beam="2">0</pdfrwt>
<totfact> 0.15624183E+00</totfact>
</mgrwt>
</event>
<event>
 6    1  0.2959206E-003  0.6668866E+03  0.7818608E-02  0.9775599E-01
          1   -1    0    0  502    0  0.00000000000E+00  0.00000000000E+00  0.11119294838E+03  0.11119294838E+03  0.00000000000E+00 0.  1.
         13   -1    0    0    0    0 -0.00000000000E+00 -0.00000000000E+00 -0.10000000000E+04  0.10000000000E+04  0.00000000000E+00 0.  1.
    9000005    2    1    2  501    0 -0.12110722821E-04  0.30344206536E-03 -0.88881556098E+03  0.11111844336E+04  0.66688660508E+03 0.  0.
         13    1    3    3    0    0  0.20901124883E+03 -0.92537845661E+02 -0.84891138144E+03  0.87914702329E+03  0.00000000000E+00 0.  1.
          1    1    3    3  501    0 -0.20901126094E+03  0.92538149103E+02 -0.39904179539E+02  0.23203741031E+03  0.00000000000E+00 0.  1.
         21    1    1    2  502  501  0.12110722817E-04 -0.30344206537E-03  0.85093661887E-02  0.85147834200E-02  0.00000000000E+00 0. -1.
<mgrwt>
<rscale>  1 0.66688661E+03</rscale>
<asrwt>0</asrwt>
<pdfrwt beam="1">  1        1 0.40433885E+00 0.66688661E+03</pdfrwt>
<pdfrwt beam="2">0</pdfrwt>
<totfact> 0.12754419E+00</totfact>
</mgrwt>
</event>
<event>
 6    1  0.2959206E-003  0.6481161E+03  0.7818608E-02  0.9810321E-01
          1   -1    0    0  502    0  0.00000000000E+00  0.00000000000E+00  0.11336240371E+03  0.11336240371E+03  0.00000000000E+00 0.  1.
         13   -1    0    0    0    0 -0.00000000000E+00 -0.00000000000E+00 -0.10000000000E+04  0.10000000000E+04  0.00000000000E+00 0.  1.
    9000005    2    1    2  501    0 -0.19049498463E+00  0.18900006655E+00 -0.89498399875E+03  0.11050116886E+04  0.64811604040E+03 0.  0.
         13    1    3    3    0    0  0.32115101277E+03  0.39907557387E+02 -0.42155620176E+03  0.53145104891E+03  0.00000000000E+00 0.  1.
          1    1    3    3  501    0 -0.32134150775E+03 -0.39718557320E+02 -0.47342779699E+03  0.57356063966E+03  0.00000000000E+00 0.  1.
         21    1    1    2  502  501  0.19049498463E+00 -0.18900006655E+00  0.83464024675E+01  0.83507151498E+01  0.00000000000E+00 0.  1.
<mgrwt>
<rscale>  1 0.64811610E+03</rscale>
<asrwt>0</asrwt>
<pdfrwt beam="1">  1        1 0.41222779E+00 0.64811610E+03</pdfrwt>
<pdfrwt beam="2">0</pdfrwt>
<totfact> 0.11800064E+00</totfact>
</mgrwt>
</event>
<event>
 6    1  0.2959206E-003  0.6653671E+03  0.7818608E-02  0.9778364E-01
          1   -1    0    0  502    0  0.00000000000E+00  0.00000000000E+00  0.11067835831E+03  0.11067835831E+03  0.00000000000E+00 0.  1.
         13   -1    0    0    0    0 -0.00000000000E+00 -0.00000000000E+00 -0.10000000000E+04  0.10000000000E+04  0.00000000000E+00 0.  1.
    9000005    2    1    2  501    0  0.26992433902E-04 -0.47768000258E-04 -0.88932163712E+03  0.11106783032E+04  0.66536705588E+03 0.  0.
         13    1    3    3    0    0 -0.21054275092E+03 -0.17175515130E+03 -0.76510118686E+03  0.81191619524E+03  0.00000000000E+00 0.  1.
          1    1    3    3  501    0  0.21054277791E+03  0.17175510353E+03 -0.12422045026E+03  0.29876210801E+03  0.00000000000E+00 0.  1.
         21    1    1    2  502  501 -0.26992433878E-04  0.47768000259E-04 -0.45703065309E-05  0.55056889098E-04  0.00000000000E+00 0. -1.
<mgrwt>
<rscale>  1 0.66536706E+03</rscale>
<asrwt>0</asrwt>
<pdfrwt beam="1">  1        1 0.40246761E+00 0.66536706E+03</pdfrwt>
<pdfrwt beam="2">0</pdfrwt>
<totfact> 0.13006052E+00</totfact>
</mgrwt>
</event>
<event>
 6    1  0.2959206E-003  0.6432641E+03  0.7818608E-02  0.9819501E-01
          1   -1    0    0  502    0  0.00000000000E+00  0.00000000000E+00  0.10344731142E+03  0.10344731142E+03  0.00000000000E+00 0.  1.
         13   -1    0    0    0    0 -0.00000000000E+00 -0.00000000000E+00 -0.10000000000E+04  0.10000000000E+04  0.00000000000E+00 0.  1.
    9000005    2    1    2  501    0  0.24719219411E-04  0.62782109580E-04 -0.89655281098E+03  0.11034471717E+04  0.64326411196E+03 0.  0.
         13    1    3    3    0    0  0.37094717603E+02  0.31942780065E+03 -0.43783334664E+03  0.54323860074E+03  0.00000000000E+00 0.  1.
          1    1    3    3  501    0 -0.37094692883E+02 -0.31942773786E+03 -0.45871946434E+03  0.56020857091E+03  0.00000000000E+00 0.  1.
         21    1    1    2  502  501 -0.24719219408E-04 -0.62782109584E-04  0.12240459043E-03  0.13976951331E-03  0.00000000000E+00 0. -1.
<mgrwt>
<rscale>  1 0.64326411E+03</rscale>
<asrwt>0</asrwt>
<pdfrwt beam="1">  1        1 0.37617283E+00 0.64326411E+03</pdfrwt>
<pdfrwt beam="2">0</pdfrwt>
<totfact> 0.17080844E+00</totfact>
</mgrwt>
</event>
<event>
 6    1  0.2959206E-003  0.4928550E+03  0.7818608E-02  0.1015661E+00
          1   -1    0    0  502    0  0.00000000000E+00  0.00000000000E+00  0.61233747996E+02  0.61233747996E+02  0.00000000000E+00 0.  1.
         13   -1    0    0    0    0 -0.00000000000E+00 -0.00000000000E+00 -0.10000000000E+04  0.10000000000E+04  0.00000000000E+00 0.  1.
    9000005    2    1    2  501    0  0.92600268504E+00 -0.56449867871E+00 -0.93860868037E+03  0.10601378609E+04  0.49285378469E+03 0.  0.
         13    1    3    3    0    0  0.98718258940E+02  0.10860758433E+03 -0.89537955434E+03  0.90732874327E+03  0.00000000000E+00 0.  1.
          1    1    3    3  501    0 -0.97792256255E+02 -0.10917208301E+03 -0.43229126029E+02  0.15280911762E+03  0.00000000000E+00 0.  1.
         21    1    1    2  502  501 -0.92600268504E+00  0.56449867871E+00 -0.15757163198E+00  0.10958871065E+01  0.00000000000E+00 0.  1.
<mgrwt>
<rscale>  1 0.49285498E+03</rscale>
<asrwt>0</asrwt>
<pdfrwt beam="1">  1        1 0.22266864E+00 0.49285498E+03</pdfrwt>
<pdfrwt beam="2">0</pdfrwt>
<totfact> 0.81473021E+00</totfact>
</mgrwt>
</event>
<event>
 6    1  0.2959206E-003  0.6554714E+03  0.7818608E-02  0.9796566E-01
          1   -1    0    0  502    0  0.00000000000E+00  0.00000000000E+00  0.10741081374E+03  0.10741081374E+03  0.00000000000E+00 0.  1.
         13   -1    0    0    0    0 -0.00000000000E+00 -0.00000000000E+00 -0.10000000000E+04  0.10000000000E+04  0.00000000000E+00 0.  1.
    9000005    2    1    2  501    0  0.17892589568E-03 -0.18093613163E-03 -0.89258915804E+03  0.11074105577E+04  0.65547138632E+03 0.  0.
         13    1    3    3    0    0  0.29562249557E+03  0.20270839796E+02 -0.68286613861E+03  0.74438547144E+03  0.00000000000E+00 0.  1.
          3    1    3    3  501    0 -0.29562231665E+03 -0.20271020732E+02 -0.20972301943E+03  0.36302508627E+03  0.00000000000E+00 0.  1.
         21    1    1    2  502  501 -0.17892589571E-03  0.18093613163E-03 -0.28222514273E-04  0.25602513587E-03  0.00000000000E+00 0.  1.
<mgrwt>
<rscale>  1 0.65547139E+03</rscale>
<asrwt>0</asrwt>
<pdfrwt beam="1">  1        1 0.39058560E+00 0.65547139E+03</pdfrwt>
<pdfrwt beam="2">0</pdfrwt>
<totfact> 0.14717372E+00</totfact>
</mgrwt>
</event>
<event>
 6    1  0.2959206E-003  0.6463886E+03  0.7818608E-02  0.9813580E-01
          1   -1    0    0  502    0  0.00000000000E+00  0.00000000000E+00  0.10450359002E+03  0.10450359002E+03  0.00000000000E+00 0.  1.
         13   -1    0    0    0    0 -0.00000000000E+00 -0.00000000000E+00 -0.10000000000E+04  0.10000000000E+04  0.00000000000E+00 0.  1.
    9000005    2    1    2  501    0 -0.34671564504E-03  0.13545522035E-02 -0.89554544925E+03  0.11044545308E+04  0.64638855109E+03 0.  0.
         13    1    3    3    0    0  0.31769659927E+03  0.67327815927E+01 -0.54853935615E+03  0.63393365961E+03  0.00000000000E+00 0.  1.
          1    1    3    3  501    0 -0.31769694599E+03 -0.67314270405E+01 -0.34700609309E+03  0.47052087121E+03  0.00000000000E+00 0.  1.
         21    1    1    2  502  501  0.34671564501E-03 -0.13545522035E-02  0.49039272441E-01  0.49059201634E-01  0.00000000000E+00 0. -1.
<mgrwt>
<rscale>  1 0.64638855E+03</rscale>
<asrwt>0</asrwt>
<pdfrwt beam="1">  1        1 0.38001386E+00 0.64638855E+03</pdfrwt>
<pdfrwt beam="2">0</pdfrwt>
<totfact> 0.16418308E+00</totfact>
</mgrwt>
</event>
<event>
 6    1  0.2959206E-003  0.6555431E+03  0.7818608E-02  0.9796433E-01
          1   -1    0    0  502    0  0.00000000000E+00  0.00000000000E+00  0.10743718084E+03  0.10743718084E+03  0.00000000000E+00 0.  1.
         13   -1    0    0    0    0 -0.00000000000E+00 -0.00000000000E+00 -0.10000000000E+04  0.10000000000E+04  0.00000000000E+00 0.  1.
    9000005    2    1    2  501    0  0.66515057284E-04 -0.14843344485E-03 -0.89256580310E+03  0.11074341925E+04  0.65554311665E+03 0.  0.
         13    1    3    3    0    0 -0.45985265193E+02  0.32435219679E+03 -0.46441082660E+03  0.56832772943E+03  0.00000000000E+00 0.  1.
          3    1    3    3  501    0  0.45985331708E+02 -0.32435234522E+03 -0.42815497650E+03  0.53910646304E+03  0.00000000000E+00 0.  1.
         21    1    1    2  502  501 -0.66515057286E-04  0.14843344488E-03  0.29839413064E-02  0.29883712053E-02  0.00000000000E+00 0.  1.
<mgrwt>
<rscale>  1 0.65554312E+03</rscale>
<asrwt>0</asrwt>
<pdfrwt beam="1">  1        1 0.39068148E+00 0.65554312E+03</pdfrwt>
<pdfrwt beam="2">0</pdfrwt>
<totfact> 0.14702769E+00</totfact>
</mgrwt>
</event>
<event>
 6    1  0.2959206E-003  0.6412425E+03  0.7818608E-02  0.9823352E-01
          1   -1    0    0  502    0  0.00000000000E+00  0.00000000000E+00  0.10390762610E+03  0.10390762610E+03  0.00000000000E+00 0.  1.
         13   -1    0    0    0    0 -0.00000000000E+00 -0.00000000000E+00 -0.10000000000E+04  0.10000000000E+04  0.00000000000E+00 0.  1.
    9000005    2    1    2  501    0 -0.23490842761E+00 -0.10265288918E-01 -0.89718825733E+03  0.11027868015E+04  0.64124246984E+03 0.  0.
         13    1    3    3    0    0 -0.23630998330E+03  0.19944030260E+03 -0.59496756681E+03  0.67052609798E+03  0.00000000000E+00 0.  1.
          1    1    3    3  501    0  0.23607507488E+03 -0.19945056789E+03 -0.30222069052E+03  0.43226070350E+03  0.00000000000E+00 0.  1.
         21    1    1    2  502  501  0.23490842761E+00  0.10265288918E-01  0.10958834349E+01  0.11208246287E+01  0.00000000000E+00 0. -1.
<mgrwt>
<rscale>  1 0.64124251E+03</rscale>
<asrwt>0</asrwt>
<pdfrwt beam="1">  1        1 0.37784671E+00 0.64124251E+03</pdfrwt>
<pdfrwt beam="2">0</pdfrwt>
<totfact> 0.16799491E+00</totfact>
</mgrwt>
</event>
<event>
 6    1  0.2959206E-003  0.6689335E+03  0.7818608E-02  0.9771886E-01
          1   -1    0    0  502    0  0.00000000000E+00  0.00000000000E+00  0.11515762902E+03  0.11515762902E+03  0.00000000000E+00 0.  1.
         13   -1    0    0    0    0 -0.00000000000E+00 -0.00000000000E+00 -0.10000000000E+04  0.10000000000E+04  0.00000000000E+00 0.  1.
    9000005    2    1    2  501    0 -0.92273647793E+01 -0.25461789500E+01 -0.86897344307E+03  0.10966252206E+04  0.66886501063E+03 0.  0.
         13    1    3    3    0    0 -0.23869436481E+02 -0.22770126294E+03 -0.33702613502E+02  0.23141625115E+03  0.00000000000E+00 0.  1.
          3    1    3    3  501    0  0.14642071702E+02  0.22515508399E+03 -0.83527082956E+03  0.86520896946E+03  0.00000000000E+00 0.  1.
         21    1    1    2  502  501  0.92273647793E+01  0.25461789500E+01 -0.15868927918E+02  0.18532408404E+02  0.00000000000E+00 0. -1.
<mgrwt>
<rscale>  1 0.66893350E+03</rscale>
<asrwt>0</asrwt>
<pdfrwt beam="1">  1        1 0.41875590E+00 0.66893350E+03</pdfrwt>
<pdfrwt beam="2">0</pdfrwt>
<totfact> 0.10984076E+00</totfact>
</mgrwt>
</event>
<event>
 6    1  0.2959206E-003  0.6664185E+03  0.7818608E-02  0.9776450E-01
          1   -1    0    0  502    0  0.00000000000E+00  0.00000000000E+00  0.11102891988E+03  0.11102891988E+03  0.00000000000E+00 0.  1.
         13   -1    0    0    0    0 -0.00000000000E+00 -0.00000000000E+00 -0.10000000000E+04  0.10000000000E+04  0.00000000000E+00 0.  1.
    9000005    2    1    2  501    0 -0.47300012295E-03 -0.10237783914E-02 -0.88896709297E+03  0.11110247763E+04  0.66641845801E+03 0.  0.
         13    1    3    3    0    0  0.18444920297E+03 -0.66787524470E+02  0.45557673130E+01  0.19622139771E+03  0.00000000000E+00 0.  1.
          3    1    3    3  501    0 -0.18444967597E+03  0.66786500691E+02 -0.89352286028E+03  0.91480337859E+03  0.00000000000E+00 0.  1.
         21    1    1    2  502  501  0.47300012296E-03  0.10237783914E-02 -0.39871557848E-02  0.41435808866E-02  0.00000000000E+00 0.  1.
<mgrwt>
<rscale>  1 0.66641846E+03</rscale>
<asrwt>0</asrwt>
<pdfrwt beam="1">  1        1 0.40374238E+00 0.66641846E+03</pdfrwt>
<pdfrwt beam="2">0</pdfrwt>
<totfact> 0.12834086E+00</totfact>
</mgrwt>
</event>
<event>
 6    1  0.2959206E-003  0.6438113E+03  0.7818608E-02  0.9818462E-01
          1   -1    0    0  502    0  0.00000000000E+00  0.00000000000E+00  0.10447275396E+03  0.10447275396E+03  0.00000000000E+00 0.  1.
         13   -1    0    0    0    0 -0.00000000000E+00 -0.00000000000E+00 -0.10000000000E+04  0.10000000000E+04  0.00000000000E+00 0.  1.
    9000005    2    1    2  501    0  0.65391586082E-01  0.23270279096E+00 -0.89635773556E+03  0.11036078034E+04  0.64381125742E+03 0.  0.
         13    1    3    3    0    0 -0.21854544573E+03  0.21274858274E+03 -0.27148356632E+03  0.40832266419E+03  0.00000000000E+00 0.  1.
          1    1    3    3  501    0  0.21861083731E+03 -0.21251587995E+03 -0.62487416924E+03  0.69528513921E+03  0.00000000000E+00 0.  1.
         21    1    1    2  502  501 -0.65391586082E-01 -0.23270279096E+00  0.83048951370E+00  0.86495056553E+00  0.00000000000E+00 0.  1.
<mgrwt>
<rscale>  1 0.64381130E+03</rscale>
<asrwt>0</asrwt>
<pdfrwt beam="1">  1        1 0.37990172E+00 0.64381130E+03</pdfrwt>
<pdfrwt beam="2">0</pdfrwt>
<totfact> 0.16444822E+00</totfact>
</mgrwt>
</event>
<event>
 6    1  0.2959206E-003  0.6473334E+03  0.7818608E-02  0.9811796E-01
          1   -1    0    0  502    0  0.00000000000E+00  0.00000000000E+00  0.10476107731E+03  0.10476107731E+03  0.00000000000E+00 0.  1.
         13   -1    0    0    0    0 -0.00000000000E+00 -0.00000000000E+00 -0.10000000000E+04  0.10000000000E+04  0.00000000000E+00 0.  1.
    9000005    2    1    2  501    0  0.93097336418E-04 -0.10715283871E-02 -0.89523952892E+03  0.11047598427E+04  0.64733337301E+03 0.  0.
         13    1    3    3    0    0 -0.11808776021E+03 -0.16540159749E+03 -0.17705047939E+02  0.20399969678E+03  0.00000000000E+00 0.  1.
          1    1    3    3  501    0  0.11808785331E+03  0.16540052596E+03 -0.87753448098E+03  0.90076014588E+03  0.00000000000E+00 0.  1.
         21    1    1    2  502  501 -0.93097336422E-04  0.10715283871E-02  0.60623090032E-03  0.12346481697E-02  0.00000000000E+00 0. -1.
<mgrwt>
<rscale>  1 0.64733337E+03</rscale>
<asrwt>0</asrwt>
<pdfrwt beam="1">  1        1 0.38095018E+00 0.64733337E+03</pdfrwt>
<pdfrwt beam="2">0</pdfrwt>
<totfact> 0.16260007E+00</totfact>
</mgrwt>
</event>
<event>
 6    1  0.2959206E-003  0.6436348E+03  0.7818608E-02  0.9818797E-01
          1   -1    0    0  502    0  0.00000000000E+00  0.00000000000E+00  0.10358450925E+03  0.10358450925E+03  0.00000000000E+00 0.  1.
         13   -1    0    0    0    0 -0.00000000000E+00 -0.00000000000E+00 -0.10000000000E+04  0.10000000000E+04  0.00000000000E+00 0.  1.
    9000005    2    1    2  501    0 -0.29899030436E-02 -0.28539071144E-02 -0.89643330938E+03  0.11035662175E+04  0.64363477084E+03 0.  0.
         13    1    3    3    0    0  0.22504702472E+03 -0.51366432173E+01 -0.53886051205E+02  0.23146545089E+03  0.00000000000E+00 0.  1.
          3    1    3    3  501    0 -0.22505001463E+03  0.51337893101E+01 -0.84254725818E+03  0.87210076662E+03  0.00000000000E+00 0.  1.
         21    1    1    2  502  501  0.29899030436E-02  0.28539071144E-02  0.17818630357E-01  0.18291743871E-01  0.00000000000E+00 0. -1.
<mgrwt>
<rscale>  1 0.64363477E+03</rscale>
<asrwt>0</asrwt>
<pdfrwt beam="1">  1        1 0.37667174E+00 0.64363477E+03</pdfrwt>
<pdfrwt beam="2">0</pdfrwt>
<totfact> 0.16993480E+00</totfact>
</mgrwt>
</event>
<event>
 6    1  0.2959206E-003  0.5753503E+03  0.7818608E-02  0.9957909E-01
          1   -1    0    0  502    0  0.00000000000E+00  0.00000000000E+00  0.83339698277E+02  0.83339698277E+02  0.00000000000E+00 0.  1.
         13   -1    0    0    0    0 -0.00000000000E+00 -0.00000000000E+00 -0.10000000000E+04  0.10000000000E+04  0.00000000000E+00 0.  1.
    9000005    2    1    2  501    0 -0.23255716827E+00  0.24567535297E+00 -0.91718946415E+03  0.10827116441E+04  0.57535022083E+03 0.  0.
         13    1    3    3    0    0 -0.12888157681E+03 -0.11951392273E+03 -0.30036483860E+02  0.17831497113E+03  0.00000000000E+00 0.  1.
          1    1    3    3  501    0  0.12864901964E+03  0.11975959808E+03 -0.88715298029E+03  0.90439667294E+03  0.00000000000E+00 0.  1.
         21    1    1    2  502  501  0.23255716827E+00 -0.24567535297E+00  0.52916242762E+00  0.62805420974E+00  0.00000000000E+00 0. -1.
<mgrwt>
<rscale>  1 0.57535032E+03</rscale>
<asrwt>0</asrwt>
<pdfrwt beam="1">  1        1 0.30305409E+00 0.57535032E+03</pdfrwt>
<pdfrwt beam="2">0</pdfrwt>
<totfact> 0.35952436E+00</totfact>
</mgrwt>
</event>
<event>
 6    1  0.2959206E-003  0.6587057E+03  0.7818608E-02  0.9790579E-01
          1   -1    0    0  502    0  0.00000000000E+00  0.00000000000E+00  0.10848854016E+03  0.10848854016E+03  0.00000000000E+00 0.  1.
         13   -1    0    0    0    0 -0.00000000000E+00 -0.00000000000E+00 -0.10000000000E+04  0.10000000000E+04  0.00000000000E+00 0.  1.
    9000005    2    1    2  501    0 -0.43415763614E-04  0.79634969234E-03 -0.89152668990E+03  0.11084732892E+04  0.65870569615E+03 0.  0.
         13    1    3    3    0    0  0.10948728571E+03 -0.30744546520E+03 -0.37120736643E+03  0.49427228194E+03  0.00000000000E+00 0.  1.
          3    1    3    3  501    0 -0.10948732913E+03  0.30744626155E+03 -0.52031932347E+03  0.61420100729E+03  0.00000000000E+00 0.  1.
         21    1    1    2  502  501  0.43415763623E-04 -0.79634969233E-03  0.15230060959E-01  0.15250928319E-01  0.00000000000E+00 0.  1.
<mgrwt>
<rscale>  1 0.65870570E+03</rscale>
<asrwt>0</asrwt>
<pdfrwt beam="1">  1        1 0.39450461E+00 0.65870570E+03</pdfrwt>
<pdfrwt beam="2">0</pdfrwt>
<totfact> 0.14130757E+00</totfact>
</mgrwt>
</event>
<event>
 6    1  0.2959206E-003  0.6445208E+03  0.7818608E-02  0.9817115E-01
          1   -1    0    0  502    0  0.00000000000E+00  0.00000000000E+00  0.10412575185E+03  0.10412575185E+03  0.00000000000E+00 0.  1.
         13   -1    0    0    0    0 -0.00000000000E+00 -0.00000000000E+00 -0.10000000000E+04  0.10000000000E+04  0.00000000000E+00 0.  1.
    9000005    2    1    2  501    0  0.78143751481E-01  0.10194452244E-01 -0.89614198073E+03  0.11038466621E+04  0.64452075027E+03 0.  0.
         13    1    3    3    0    0 -0.15772541601E+03  0.24585945833E+03 -0.21499076932E+03  0.36269161970E+03  0.00000000000E+00 0.  1.
          3    1    3    3  501    0  0.15780355977E+03 -0.24584926388E+03 -0.68115121141E+03  0.74115504237E+03  0.00000000000E+00 0.  1.
         21    1    1    2  502  501 -0.78143751481E-01 -0.10194452244E-01  0.26773257378E+00  0.27908977734E+00  0.00000000000E+00 0. -1.
<mgrwt>
<rscale>  1 0.64452076E+03</rscale>
<asrwt>0</asrwt>
<pdfrwt beam="1">  1        1 0.37863990E+00 0.64452076E+03</pdfrwt>
<pdfrwt beam="2">0</pdfrwt>
<totfact> 0.16654732E+00</totfact>
</mgrwt>
</event>
<event>
 6    1  0.2959206E-003  0.6805067E+03  0.7818608E-02  0.9751162E-01
          1   -1    0    0  502    0  0.00000000000E+00  0.00000000000E+00  0.11583620782E+03  0.11583620782E+03  0.00000000000E+00 0.  1.
         13   -1    0    0    0    0 -0.00000000000E+00 -0.00000000000E+00 -0.10000000000E+04  0.10000000000E+04  0.00000000000E+00 0.  1.
    9000005    2    1    2  501    0 -0.35756229731E-01  0.74606954196E-01 -0.88419617561E+03  0.11157473631E+04  0.68050664534E+03 0.  0.
         13    1    3    3    0    0 -0.22790728324E+03  0.20509621078E+03 -0.20011909430E+03  0.36613363316E+03  0.00000000000E+00 0.  1.
          3    1    3    3  501    0  0.22787152701E+03 -0.20502160383E+03 -0.68407708132E+03  0.74961372989E+03  0.00000000000E+00 0.  1.
         21    1    1    2  502  501  0.35756229731E-01 -0.74606954196E-01  0.32383434764E-01  0.88844765891E-01  0.00000000000E+00 0.  1.
<mgrwt>
<rscale>  1 0.68050665E+03</rscale>
<asrwt>0</asrwt>
<pdfrwt beam="1">  1        1 0.42122346E+00 0.68050665E+03</pdfrwt>
<pdfrwt beam="2">0</pdfrwt>
<totfact> 0.10682271E+00</totfact>
</mgrwt>
</event>
<event>
 6    1  0.2959206E-003  0.6511335E+03  0.7818608E-02  0.9804655E-01
          1   -1    0    0  502    0  0.00000000000E+00  0.00000000000E+00  0.10775169764E+03  0.10775169764E+03  0.00000000000E+00 0.  1.
         13   -1    0    0    0    0 -0.00000000000E+00 -0.00000000000E+00 -0.10000000000E+04  0.10000000000E+04  0.00000000000E+00 0.  1.
    9000005    2    1    2  501    0  0.10306038056E+00  0.87896428114E-01 -0.89400339690E+03  0.11059913840E+04  0.65113351126E+03 0.  0.
         13    1    3    3    0    0  0.21464525680E+01  0.25107526359E+03 -0.94939360190E+02  0.26843412107E+03  0.00000000000E+00 0.  1.
          1    1    3    3  501    0 -0.20433921875E+01 -0.25098736716E+03 -0.79906403671E+03  0.83755726293E+03  0.00000000000E+00 0.  1.
         21    1    1    2  502  501 -0.10306038056E+00 -0.87896428114E-01  0.17550945411E+01  0.17603136289E+01  0.00000000000E+00 0.  1.
<mgrwt>
<rscale>  1 0.65113353E+03</rscale>
<asrwt>0</asrwt>
<pdfrwt beam="1">  1        1 0.39182518E+00 0.65113353E+03</pdfrwt>
<pdfrwt beam="2">0</pdfrwt>
<totfact> 0.14543897E+00</totfact>
</mgrwt>
</event>
<event>
 6    1  0.2959206E-003  0.6514472E+03  0.7818608E-02  0.9804067E-01
          1   -1    0    0  502    0  0.00000000000E+00  0.00000000000E+00  0.10619715736E+03  0.10619715736E+03  0.00000000000E+00 0.  1.
         13   -1    0    0    0    0 -0.00000000000E+00 -0.00000000000E+00 -0.10000000000E+04  0.10000000000E+04  0.00000000000E+00 0.  1.
    9000005    2    1    2  501    0  0.23233971941E-01 -0.25754703768E-02 -0.89390262747E+03  0.11060946710E+04  0.65144724511E+03 0.  0.
         13    1    3    3    0    0  0.28775024393E+03  0.14922775106E+03 -0.39239197212E+03  0.50896029742E+03  0.00000000000E+00 0.  1.
          3    1    3    3  501    0 -0.28772700996E+03 -0.14923032653E+03 -0.50151065536E+03  0.59713437353E+03  0.00000000000E+00 0.  1.
         21    1    1    2  502  501 -0.23233971941E-01  0.25754703768E-02  0.99784835857E-01  0.10248640869E+00  0.00000000000E+00 0.  1.
<mgrwt>
<rscale>  1 0.65144725E+03</rscale>
<asrwt>0</asrwt>
<pdfrwt beam="1">  1        1 0.38617230E+00 0.65144725E+03</pdfrwt>
<pdfrwt beam="2">0</pdfrwt>
<totfact> 0.15406687E+00</totfact>
</mgrwt>
</event>
<event>
 6    1  0.2959206E-003  0.6451403E+03  0.7818608E-02  0.9815941E-01
          1   -1    0    0  502    0  0.00000000000E+00  0.00000000000E+00  0.10411119324E+03  0.10411119324E+03  0.00000000000E+00 0.  1.
         13   -1    0    0    0    0 -0.00000000000E+00 -0.00000000000E+00 -0.10000000000E+04  0.10000000000E+04  0.00000000000E+00 0.  1.
    9000005    2    1    2  501    0 -0.29566449210E-01 -0.39383435967E-01 -0.89593708328E+03  0.11040422306E+04  0.64514028492E+03 0.  0.
         13    1    3    3    0    0  0.28621830546E+03  0.13545619445E+03 -0.34288545452E+03  0.46673304352E+03  0.00000000000E+00 0.  1.
          1    1    3    3  501    0 -0.28624787191E+03 -0.13549557788E+03 -0.55305162876E+03  0.63730918703E+03  0.00000000000E+00 0.  1.
         21    1    1    2  502  501  0.29566449210E-01  0.39383435967E-01  0.48276524006E-01  0.68962690765E-01  0.00000000000E+00 0. -1.
<mgrwt>
<rscale>  1 0.64514029E+03</rscale>
<asrwt>0</asrwt>
<pdfrwt beam="1">  1        1 0.37858696E+00 0.64514029E+03</pdfrwt>
<pdfrwt beam="2">0</pdfrwt>
<totfact> 0.16661790E+00</totfact>
</mgrwt>
</event>
<event>
 6    1  0.2959206E-003  0.6450985E+03  0.7818608E-02  0.9816020E-01
          1   -1    0    0  502    0  0.00000000000E+00  0.00000000000E+00  0.10403835739E+03  0.10403835739E+03  0.00000000000E+00 0.  1.
         13   -1    0    0    0    0 -0.00000000000E+00 -0.00000000000E+00 -0.10000000000E+04  0.10000000000E+04  0.00000000000E+00 0.  1.
    9000005    2    1    2  501    0 -0.41321719451E-04 -0.18856845770E-04 -0.89596197515E+03  0.11040380218E+04  0.64509851387E+03 0.  0.
         13    1    3    3    0    0 -0.89276931722E+02 -0.19295580615E+03 -0.32856362077E+02  0.21513217843E+03  0.00000000000E+00 0.  1.
          1    1    3    3  501    0  0.89276890400E+02  0.19295578730E+03 -0.86310561307E+03  0.88890584334E+03  0.00000000000E+00 0.  1.
         21    1    1    2  502  501  0.41321719448E-04  0.18856845764E-04  0.33254082673E-03  0.33562846509E-03  0.00000000000E+00 0.  1.
<mgrwt>
<rscale>  1 0.64509851E+03</rscale>
<asrwt>0</asrwt>
<pdfrwt beam="1">  1        1 0.37832210E+00 0.64509851E+03</pdfrwt>
<pdfrwt beam="2">0</pdfrwt>
<totfact> 0.16706780E+00</totfact>
</mgrwt>
</event>
<event>
 6    1  0.2959206E-003  0.6537182E+03  0.7818608E-02  0.9799827E-01
          1   -1    0    0  502    0  0.00000000000E+00  0.00000000000E+00  0.10769116519E+03  0.10769116519E+03  0.00000000000E+00 0.  1.
         13   -1    0    0    0    0 -0.00000000000E+00 -0.00000000000E+00 -0.10000000000E+04  0.10000000000E+04  0.00000000000E+00 0.  1.
    9000005    2    1    2  501    0  0.13656982855E-01  0.47172344628E-01 -0.89316233144E+03  0.11068362569E+04  0.65371824725E+03 0.  0.
         13    1    3    3    0    0  0.24172715487E+03 -0.21782938690E+03 -0.49870464158E+03  0.59547290344E+03  0.00000000000E+00 0.  1.
          3    1    3    3  501    0 -0.24171349788E+03  0.21787655925E+03 -0.39445768987E+03  0.51136335342E+03  0.00000000000E+00 0.  1.
         21    1    1    2  502  501 -0.13656982855E-01 -0.47172344628E-01  0.85349662936E+00  0.85490832234E+00  0.00000000000E+00 0.  1.
<mgrwt>
<rscale>  1 0.65371825E+03</rscale>
<asrwt>0</asrwt>
<pdfrwt beam="1">  1        1 0.39160506E+00 0.65371825E+03</pdfrwt>
<pdfrwt beam="2">0</pdfrwt>
<totfact> 0.14569620E+00</totfact>
</mgrwt>
</event>
<event>
 6    1  0.2959206E-003  0.6590879E+03  0.7818608E-02  0.9789874E-01
          1   -1    0    0  502    0  0.00000000000E+00  0.00000000000E+00  0.10860121737E+03  0.10860121737E+03  0.00000000000E+00 0.  1.
         13   -1    0    0    0    0 -0.00000000000E+00 -0.00000000000E+00 -0.10000000000E+04  0.10000000000E+04  0.00000000000E+00 0.  1.
    9000005    2    1    2  501    0 -0.10318766246E-03  0.11618695106E-03 -0.89140077066E+03  0.11085992233E+04  0.65908793338E+03 0.  0.
         13    1    3    3    0    0  0.10233025057E+03  0.26562446672E+03 -0.72499383665E+03  0.77887348182E+03  0.00000000000E+00 0.  1.
          3    1    3    3  501    0 -0.10233035375E+03 -0.26562435053E+03 -0.16640693400E+03  0.32972574146E+03  0.00000000000E+00 0.  1.
         21    1    1    2  502  501  0.10318766247E-03 -0.11618695106E-03  0.19880302857E-02  0.19940941598E-02  0.00000000000E+00 0.  1.
<mgrwt>
<rscale>  1 0.65908793E+03</rscale>
<asrwt>0</asrwt>
<pdfrwt beam="1">  1        1 0.39491435E+00 0.65908793E+03</pdfrwt>
<pdfrwt beam="2">0</pdfrwt>
<totfact> 0.14070606E+00</totfact>
</mgrwt>
</event>
<event>
 6    1  0.2959206E-003  0.6505464E+03  0.7818608E-02  0.9805754E-01
          1   -1    0    0  502    0  0.00000000000E+00  0.00000000000E+00  0.10595033354E+03  0.10595033354E+03  0.00000000000E+00 0.  1.
         13   -1    0    0    0    0 -0.00000000000E+00 -0.00000000000E+00 -0.10000000000E+04  0.10000000000E+04  0.00000000000E+00 0.  1.
    9000005    2    1    2  501    0 -0.40639118408E-02 -0.92726122072E-02 -0.89419714755E+03  0.11058025054E+04  0.65054641808E+03 0.  0.
         13    1    3    3    0    0  0.22676385017E+03  0.18363765683E+03 -0.20279716136E+03  0.35534676219E+03  0.00000000000E+00 0.  1.
          3    1    3    3  501    0 -0.22676791408E+03 -0.18364692944E+03 -0.69139998620E+03  0.75045574317E+03  0.00000000000E+00 0.  1.
         21    1    1    2  502  501  0.40639118408E-02  0.92726122071E-02  0.14748109327E+00  0.14782817590E+00  0.00000000000E+00 0. -1.
<mgrwt>
<rscale>  1 0.65054642E+03</rscale>
<asrwt>0</asrwt>
<pdfrwt beam="1">  1        1 0.38527475E+00 0.65054642E+03</pdfrwt>
<pdfrwt beam="2">0</pdfrwt>
<totfact> 0.15550811E+00</totfact>
</mgrwt>
</event>
<event>
 6    1  0.2959206E-003  0.6515276E+03  0.7818608E-02  0.9803917E-01
          1   -1    0    0  502    0  0.00000000000E+00  0.00000000000E+00  0.10614328028E+03  0.10614328028E+03  0.00000000000E+00 0.  1.
         13   -1    0    0    0    0 -0.00000000000E+00 -0.00000000000E+00 -0.10000000000E+04  0.10000000000E+04  0.00000000000E+00 0.  1.
    9000005    2    1    2  501    0 -0.16278604973E-01 -0.27313107915E-02 -0.89387433247E+03  0.11061191419E+04  0.65152761532E+03 0.  0.
         13    1    3    3    0    0 -0.13491927614E+03 -0.14785365334E+03 -0.10586782005E+02  0.20043950168E+03  0.00000000000E+00 0.  1.
          3    1    3    3  501    0  0.13490299754E+03  0.14785092202E+03 -0.88328755047E+03  0.90567964021E+03  0.00000000000E+00 0.  1.
         21    1    1    2  502  501  0.16278604973E-01  0.27313107915E-02  0.17612754691E-01  0.24138396101E-01  0.00000000000E+00 0.  1.
<mgrwt>
<rscale>  1 0.65152762E+03</rscale>
<asrwt>0</asrwt>
<pdfrwt beam="1">  1        1 0.38597638E+00 0.65152762E+03</pdfrwt>
<pdfrwt beam="2">0</pdfrwt>
<totfact> 0.15437248E+00</totfact>
</mgrwt>
</event>
<event>
 6    1  0.2959206E-003  0.6479434E+03  0.7818608E-02  0.9810646E-01
          1   -1    0    0  502    0  0.00000000000E+00  0.00000000000E+00  0.10495774553E+03  0.10495774553E+03  0.00000000000E+00 0.  1.
         13   -1    0    0    0    0 -0.00000000000E+00 -0.00000000000E+00 -0.10000000000E+04  0.10000000000E+04  0.00000000000E+00 0.  1.
    9000005    2    1    2  501    0  0.10594544051E-05 -0.52627875561E-04 -0.89504234069E+03  0.11049576445E+04  0.64794336524E+03 0.  0.
         13    1    3    3    0    0 -0.20614941948E+02 -0.28655989519E+03 -0.19219888689E+03  0.34566162860E+03  0.00000000000E+00 0.  1.
          1    1    3    3  501    0  0.20614943007E+02  0.28655984256E+03 -0.70284345379E+03  0.75929601591E+03  0.00000000000E+00 0.  1.
         21    1    1    2  502  501 -0.10594544028E-05  0.52627875538E-04  0.86217565649E-04  0.10101625787E-03  0.00000000000E+00 0. -1.
<mgrwt>
<rscale>  1 0.64794337E+03</rscale>
<asrwt>0</asrwt>
<pdfrwt beam="1">  1        1 0.38166533E+00 0.64794337E+03</pdfrwt>
<pdfrwt beam="2">0</pdfrwt>
<totfact> 0.16140407E+00</totfact>
</mgrwt>
</event>
<event>
 6    1  0.2959206E-003  0.6503530E+03  0.7818608E-02  0.9806117E-01
          1   -1    0    0  502    0  0.00000000000E+00  0.00000000000E+00  0.10608835126E+03  0.10608835126E+03  0.00000000000E+00 0.  1.
         13   -1    0    0    0    0 -0.00000000000E+00 -0.00000000000E+00 -0.10000000000E+04  0.10000000000E+04  0.00000000000E+00 0.  1.
    9000005    2    1    2  501    0 -0.28051028044E+00 -0.87035158024E-01 -0.89419051426E+03  0.11056833486E+04  0.65035290837E+03 0.  0.
         13    1    3    3    0    0  0.33591010109E+02  0.10741163604E+03 -0.96567903773E+03  0.97221480108E+03  0.00000000000E+00 0.  1.
          1    1    3    3  501    0 -0.33871520390E+02 -0.10749867120E+03  0.71488523472E+02  0.13346854757E+03  0.00000000000E+00 0.  1.
         21    1    1    2  502  501  0.28051028044E+00  0.87035158024E-01  0.27886551373E+00  0.40500260606E+00  0.00000000000E+00 0. -1.
<mgrwt>
<rscale>  1 0.65035297E+03</rscale>
<asrwt>0</asrwt>
<pdfrwt beam="1">  1        1 0.38577664E+00 0.65035297E+03</pdfrwt>
<pdfrwt beam="2">0</pdfrwt>
<totfact> 0.15472057E+00</totfact>
</mgrwt>
</event>
<event>
 6    1  0.2959206E-003  0.6854738E+03  0.7818608E-02  0.9742402E-01
          1   -1    0    0  502    0  0.00000000000E+00  0.00000000000E+00  0.11749016305E+03  0.11749016305E+03  0.00000000000E+00 0.  1.
         13   -1    0    0    0    0 -0.00000000000E+00 -0.00000000000E+00 -0.10000000000E+04  0.10000000000E+04  0.00000000000E+00 0.  1.
    9000005    2    1    2  501    0  0.84548551256E-03  0.10827177267E-01 -0.88252988018E+03  0.11174673667E+04  0.68547379681E+03 0.  0.
         13    1    3    3    0    0  0.70949816846E+02  0.21030041423E+03 -0.15503805216E+02  0.22248709785E+03  0.00000000000E+00 0.  1.
          3    1    3    3  501    0 -0.70948971361E+02 -0.21028958705E+03 -0.86702607496E+03  0.89498026885E+03  0.00000000000E+00 0.  1.
         21    1    1    2  502  501 -0.84548551254E-03 -0.10827177267E-01  0.20043229324E-01  0.22796351793E-01  0.00000000000E+00 0. -1.
<mgrwt>
<rscale>  1 0.68547380E+03</rscale>
<asrwt>0</asrwt>
<pdfrwt beam="1">  1        1 0.42723786E+00 0.68547380E+03</pdfrwt>
<pdfrwt beam="2">0</pdfrwt>
<totfact> 0.10023575E+00</totfact>
</mgrwt>
</event>
<event>
 6    1  0.2959206E-003  0.6500913E+03  0.7818608E-02  0.9806608E-01
          1   -1    0    0  502    0  0.00000000000E+00  0.00000000000E+00  0.10595492003E+03  0.10595492003E+03  0.00000000000E+00 0.  1.
         13   -1    0    0    0    0 -0.00000000000E+00 -0.00000000000E+00 -0.10000000000E+04  0.10000000000E+04  0.00000000000E+00 0.  1.
    9000005    2    1    2  501    0  0.61765408960E-01 -0.78719689557E-01 -0.89433608993E+03  0.11056471887E+04  0.65009126604E+03 0.  0.
         13    1    3    3    0    0  0.30274041885E+03  0.11586559476E+03 -0.40595969823E+03  0.51949963796E+03  0.00000000000E+00 0.  1.
          1    1    3    3  501    0 -0.30267865344E+03 -0.11594431445E+03 -0.48837639170E+03  0.58614755077E+03  0.00000000000E+00 0.  1.
         21    1    1    2  502  501 -0.61765408960E-01  0.78719689557E-01  0.29100996599E+00  0.30773130418E+00  0.00000000000E+00 0.  1.
<mgrwt>
<rscale>  1 0.65009127E+03</rscale>
<asrwt>0</asrwt>
<pdfrwt beam="1">  1        1 0.38529143E+00 0.65009127E+03</pdfrwt>
<pdfrwt beam="2">0</pdfrwt>
<totfact> 0.15549477E+00</totfact>
</mgrwt>
</event>
<event>
 6    1  0.2959206E-003  0.6416026E+03  0.7818608E-02  0.9822665E-01
          1   -1    0    0  502    0  0.00000000000E+00  0.00000000000E+00  0.10291347013E+03  0.10291347013E+03  0.00000000000E+00 0.  1.
         13   -1    0    0    0    0 -0.00000000000E+00 -0.00000000000E+00 -0.10000000000E+04  0.10000000000E+04  0.00000000000E+00 0.  1.
    9000005    2    1    2  501    0 -0.25623533588E-05  0.29722301065E-05 -0.89708652874E+03  0.11029134660E+04  0.64160258223E+03 0.  0.
         13    1    3    3    0    0  0.14328461430E+03 -0.16590025865E+03 -0.85117091409E+03  0.87894556231E+03  0.00000000000E+00 0.  1.
          1    1    3    3  501    0 -0.14328461686E+03  0.16590026162E+03 -0.45915614656E+02  0.22396790374E+03  0.00000000000E+00 0.  1.
         21    1    1    2  502  501  0.25623533642E-05 -0.29722301156E-05 -0.11273653364E-05  0.40829841079E-05  0.00000000000E+00 0.  1.
<mgrwt>
<rscale>  1 0.64160258E+03</rscale>
<asrwt>0</asrwt>
<pdfrwt beam="1">  1        1 0.37423159E+00 0.64160258E+03</pdfrwt>
<pdfrwt beam="2">0</pdfrwt>
<totfact> 0.17425578E+00</totfact>
</mgrwt>
</event>
<event>
 6    1  0.2959206E-003  0.6457407E+03  0.7818608E-02  0.9814805E-01
          1   -1    0    0  502    0  0.00000000000E+00  0.00000000000E+00  0.10424597659E+03  0.10424597659E+03  0.00000000000E+00 0.  1.
         13   -1    0    0    0    0 -0.00000000000E+00 -0.00000000000E+00 -0.10000000000E+04  0.10000000000E+04  0.00000000000E+00 0.  1.
    9000005    2    1    2  501    0 -0.27343037459E-03  0.12174071750E-02 -0.89575410649E+03  0.11042447261E+04  0.64574065677E+03 0.  0.
         13    1    3    3    0    0  0.12414105167E+03  0.13832787461E+03  0.35864362730E+01  0.18589906974E+03  0.00000000000E+00 0.  1.
          1    1    3    3  501    0 -0.12414132510E+03 -0.13832665721E+03 -0.89934054276E+03  0.91834565635E+03  0.00000000000E+00 0.  1.
         21    1    1    2  502  501  0.27343037460E-03 -0.12174071750E-02  0.83078786504E-04  0.12504984943E-02  0.00000000000E+00 0.  1.
<mgrwt>
<rscale>  1 0.64574066E+03</rscale>
<asrwt>0</asrwt>
<pdfrwt beam="1">  1        1 0.37907708E+00 0.64574066E+03</pdfrwt>
<pdfrwt beam="2">0</pdfrwt>
<totfact> 0.16577250E+00</totfact>
</mgrwt>
</event>
<event>
 6    1  0.2959206E-003  0.6489290E+03  0.7818608E-02  0.9808791E-01
          1   -1    0    0  502    0  0.00000000000E+00  0.00000000000E+00  0.10527726856E+03  0.10527726856E+03  0.00000000000E+00 0.  1.
         13   -1    0    0    0    0 -0.00000000000E+00 -0.00000000000E+00 -0.10000000000E+04  0.10000000000E+04  0.00000000000E+00 0.  1.
    9000005    2    1    2  501    0  0.28537980114E-04 -0.17999939806E-03 -0.89472223338E+03  0.11052767382E+04  0.64892895845E+03 0.  0.
         13    1    3    3    0    0  0.23848387132E+03  0.19715158545E+03 -0.28105488054E+03  0.41801333758E+03  0.00000000000E+00 0.  1.
          1    1    3    3  501    0 -0.23848384278E+03 -0.19715176545E+03 -0.61366735284E+03  0.68726340062E+03  0.00000000000E+00 0.  1.
         21    1    1    2  502  501 -0.28537980102E-04  0.17999939806E-03 -0.49806291824E-03  0.53035918973E-03  0.00000000000E+00 0.  1.
<mgrwt>
<rscale>  1 0.64892896E+03</rscale>
<asrwt>0</asrwt>
<pdfrwt beam="1">  1        1 0.38282724E+00 0.64892896E+03</pdfrwt>
<pdfrwt beam="2">0</pdfrwt>
<totfact> 0.15947895E+00</totfact>
</mgrwt>
</event>
<event>
 6    1  0.2959206E-003  0.6424079E+03  0.7818608E-02  0.9821130E-01
          1   -1    0    0  502    0  0.00000000000E+00  0.00000000000E+00  0.10332031269E+03  0.10332031269E+03  0.00000000000E+00 0.  1.
         13   -1    0    0    0    0 -0.00000000000E+00 -0.00000000000E+00 -0.10000000000E+04  0.10000000000E+04  0.00000000000E+00 0.  1.
    9000005    2    1    2  501    0 -0.55662954912E-02  0.35859230271E-01 -0.89682556827E+03  0.11031699860E+04  0.64240790525E+03 0.  0.
         13    1    3    3    0    0 -0.88916403956E+02  0.18454391095E+03 -0.87330780229E+03  0.89701120367E+03  0.00000000000E+00 0.  1.
          1    1    3    3  501    0  0.88910837660E+02 -0.18450805172E+03 -0.23517765977E+02  0.20615878230E+03  0.00000000000E+00 0.  1.
         21    1    1    2  502  501  0.55662954912E-02 -0.35859230271E-01  0.14588096013E+00  0.15032671941E+00  0.00000000000E+00 0.  1.
<mgrwt>
<rscale>  1 0.64240791E+03</rscale>
<asrwt>0</asrwt>
<pdfrwt beam="1">  1        1 0.37571102E+00 0.64240791E+03</pdfrwt>
<pdfrwt beam="2">0</pdfrwt>
<totfact> 0.17163708E+00</totfact>
</mgrwt>
</event>
<event>
 6    1  0.2959206E-003  0.5672602E+03  0.7818608E-02  0.9975760E-01
          1   -1    0    0  502    0  0.00000000000E+00  0.00000000000E+00  0.80725652980E+02  0.80725652980E+02  0.00000000000E+00 0.  1.
         13   -1    0    0    0    0 -0.00000000000E+00 -0.00000000000E+00 -0.10000000000E+04  0.10000000000E+04  0.00000000000E+00 0.  1.
    9000005    2    1    2  501    0  0.10596455145E-02  0.48008003542E-02 -0.91955395388E+03  0.10804460029E+04  0.56726016170E+03 0.  0.
         13    1    3    3    0    0  0.27325840884E+03  0.73857567619E+02 -0.49393407782E+03  0.56929427498E+03  0.00000000000E+00 0.  1.
          1    1    3    3  501    0 -0.27325734919E+03 -0.73852766819E+02 -0.42561987606E+03  0.51115172792E+03  0.00000000000E+00 0.  1.
         21    1    1    2  502  501 -0.10596455146E-02 -0.48008003543E-02  0.27960686194E+00  0.27965008096E+00  0.00000000000E+00 0.  1.
<mgrwt>
<rscale>  1 0.56726016E+03</rscale>
<asrwt>0</asrwt>
<pdfrwt beam="1">  1        1 0.29354845E+00 0.56726016E+03</pdfrwt>
<pdfrwt beam="2">0</pdfrwt>
<totfact> 0.39568451E+00</totfact>
</mgrwt>
</event>
<event>
 6    1  0.2959206E-003  0.6386051E+03  0.7818608E-02  0.9828399E-01
          1   -1    0    0  502    0  0.00000000000E+00  0.00000000000E+00  0.10196215178E+03  0.10196215178E+03  0.00000000000E+00 0.  1.
         13   -1    0    0    0    0 -0.00000000000E+00 -0.00000000000E+00 -0.10000000000E+04  0.10000000000E+04  0.00000000000E+00 0.  1.
    9000005    2    1    2  501    0 -0.35802372981E-03 -0.23838554000E-04 -0.89804587145E+03  0.11019541205E+04  0.63860511783E+03 0.  0.
         13    1    3    3    0    0  0.11879169001E+02 -0.27566048883E+03 -0.72632012140E+03  0.77696250779E+03  0.00000000000E+00 0.  1.
          1    1    3    3  501    0 -0.11879527025E+02  0.27566046499E+03 -0.17172575005E+03  0.32499161274E+03  0.00000000000E+00 0.  1.
         21    1    1    2  502  501  0.35802372981E-03  0.23838553980E-04  0.80232303504E-02  0.80312498731E-02  0.00000000000E+00 0.  1.
<mgrwt>
<rscale>  1 0.63860512E+03</rscale>
<asrwt>0</asrwt>
<pdfrwt beam="1">  1        1 0.37077224E+00 0.63860512E+03</pdfrwt>
<pdfrwt beam="2">0</pdfrwt>
<totfact> 0.18056553E+00</totfact>
</mgrwt>
</event>
<event>
 6    1  0.2959206E-003  0.6140383E+03  0.7818608E-02  0.9876702E-01
          1   -1    0    0  502    0  0.00000000000E+00  0.00000000000E+00  0.94260831797E+02  0.94260831797E+02  0.00000000000E+00 0.  1.
         13   -1    0    0    0    0 -0.00000000000E+00 -0.00000000000E+00 -0.10000000000E+04  0.10000000000E+04  0.00000000000E+00 0.  1.
    9000005    2    1    2  501    0  0.23798180848E-05 -0.26141782328E-04 -0.90573924419E+03  0.10942607514E+04  0.61403828348E+03 0.  0.
         13    1    3    3    0    0  0.12892185825E+03 -0.64579536522E+02 -0.93590462687E+03  0.94694711186E+03  0.00000000000E+00 0.  1.
          1    1    3    3  501    0 -0.12892185587E+03  0.64579510380E+02  0.30165382674E+02  0.14731363954E+03  0.00000000000E+00 0.  1.
         21    1    1    2  502  501 -0.23798180856E-05  0.26141782325E-04  0.75991325986E-04  0.80397375221E-04  0.00000000000E+00 0. -1.
<mgrwt>
<rscale>  1 0.61403828E+03</rscale>
<asrwt>0</asrwt>
<pdfrwt beam="1">  1        1 0.34276738E+00 0.61403828E+03</pdfrwt>
<pdfrwt beam="2">0</pdfrwt>
<totfact> 0.24038127E+00</totfact>
</mgrwt>
</event>
<event>
 6    1  0.2959206E-003  0.6453729E+03  0.7818608E-02  0.9815500E-01
          1   -1    0    0  502    0  0.00000000000E+00  0.00000000000E+00  0.10463807683E+03  0.10463807683E+03  0.00000000000E+00 0.  1.
         13   -1    0    0    0    0 -0.00000000000E+00 -0.00000000000E+00 -0.10000000000E+04  0.10000000000E+04  0.00000000000E+00 0.  1.
    9000005    2    1    2  501    0 -0.22148777473E-01  0.73995092015E-02 -0.89587314987E+03  0.11041263171E+04  0.64537293312E+03 0.  0.
         13    1    3    3    0    0  0.19699452875E+03 -0.23681415012E+03 -0.61231186893E+03  0.68542950833E+03  0.00000000000E+00 0.  1.
          3    1    3    3  501    0 -0.19701667752E+03  0.23682154963E+03 -0.28356128094E+03  0.41869680873E+03  0.00000000000E+00 0.  1.
         21    1    1    2  502  501  0.22148777473E-01 -0.73995092015E-02  0.51122670176E+00  0.51175976949E+00  0.00000000000E+00 0. -1.
<mgrwt>
<rscale>  1 0.64537293E+03</rscale>
<asrwt>0</asrwt>
<pdfrwt beam="1">  1        1 0.38050290E+00 0.64537293E+03</pdfrwt>
<pdfrwt beam="2">0</pdfrwt>
<totfact> 0.16339982E+00</totfact>
</mgrwt>
</event>
<event>
 6    1  0.2959206E-003  0.6408113E+03  0.7818608E-02  0.9824175E-01
          1   -1    0    0  502    0  0.00000000000E+00  0.00000000000E+00  0.10488193952E+03  0.10488193952E+03  0.00000000000E+00 0.  1.
         13   -1    0    0    0    0 -0.00000000000E+00 -0.00000000000E+00 -0.10000000000E+04  0.10000000000E+04  0.00000000000E+00 0.  1.
    9000005    2    1    2  501    0  0.65624545874E-01 -0.12316919651E-01 -0.89733965994E+03  0.11026593369E+04  0.64081131658E+03 0.  0.
         13    1    3    3    0    0  0.23086305694E+03  0.12702728781E+03 -0.76241766883E+03  0.80666869572E+03  0.00000000000E+00 0.  1.
          1    1    3    3  501    0 -0.23079743240E+03 -0.12703960473E+03 -0.13492199111E+03  0.29599064116E+03  0.00000000000E+00 0.  1.
         21    1    1    2  502  501 -0.65624545874E-01  0.12316919651E-01  0.22215994688E+01  0.22226026382E+01  0.00000000000E+00 0. -1.
<mgrwt>
<rscale>  1 0.64081132E+03</rscale>
<asrwt>0</asrwt>
<pdfrwt beam="1">  1        1 0.38138968E+00 0.64081132E+03</pdfrwt>
<pdfrwt beam="2">0</pdfrwt>
<totfact> 0.16207055E+00</totfact>
</mgrwt>
</event>
<event>
 6    1  0.2959206E-003  0.6462237E+03  0.7818608E-02  0.9813891E-01
          1   -1    0    0  502    0  0.00000000000E+00  0.00000000000E+00  0.10440820431E+03  0.10440820431E+03  0.00000000000E+00 0.  1.
         13   -1    0    0    0    0 -0.00000000000E+00 -0.00000000000E+00 -0.10000000000E+04  0.10000000000E+04  0.00000000000E+00 0.  1.
    9000005    2    1    2  501    0  0.19807293888E-02  0.10037261555E-01 -0.89559427919E+03  0.11043976764E+04  0.64622373412E+03 0.  0.
         13    1    3    3    0    0  0.17861638053E+03 -0.63395090349E+02 -0.57892245995E+00  0.18953385983E+03  0.00000000000E+00 0.  1.
          3    1    3    3  501    0 -0.17861439980E+03  0.63405127610E+02 -0.89501535673E+03  0.91486381653E+03  0.00000000000E+00 0.  1.
         21    1    1    2  502  501 -0.19807293888E-02 -0.10037261555E-01  0.24834990171E-02  0.10527947369E-01  0.00000000000E+00 0.  1.
<mgrwt>
<rscale>  1 0.64622373E+03</rscale>
<asrwt>0</asrwt>
<pdfrwt beam="1">  1        1 0.37966700E+00 0.64622373E+03</pdfrwt>
<pdfrwt beam="2">0</pdfrwt>
<totfact> 0.16476762E+00</totfact>
</mgrwt>
</event>
<event>
 6    1  0.2959206E-003  0.6437903E+03  0.7818608E-02  0.9818502E-01
          1   -1    0    0  502    0  0.00000000000E+00  0.00000000000E+00  0.10361675820E+03  0.10361675820E+03  0.00000000000E+00 0.  1.
         13   -1    0    0    0    0 -0.00000000000E+00 -0.00000000000E+00 -0.10000000000E+04  0.10000000000E+04  0.00000000000E+00 0.  1.
    9000005    2    1    2  501    0  0.52989402377E-06 -0.15126658911E-03 -0.89638348937E+03  0.11036164681E+04  0.64379029861E+03 0.  0.
         13    1    3    3    0    0  0.53102679099E+02  0.25145540160E+03 -0.78044968321E+03  0.82167598331E+03  0.00000000000E+00 0.  1.
          1    1    3    3  501    0 -0.53102678569E+02 -0.25145555287E+03 -0.11593380616E+03  0.28194048477E+03  0.00000000000E+00 0.  1.
         21    1    1    2  502  501 -0.52989402526E-06  0.15126658911E-03  0.24757616062E-03  0.29013068965E-03  0.00000000000E+00 0.  1.
<mgrwt>
<rscale>  1 0.64379030E+03</rscale>
<asrwt>0</asrwt>
<pdfrwt beam="1">  1        1 0.37678901E+00 0.64379030E+03</pdfrwt>
<pdfrwt beam="2">0</pdfrwt>
<totfact> 0.16972794E+00</totfact>
</mgrwt>
</event>
<event>
 6    1  0.2959206E-003  0.6513648E+03  0.7818608E-02  0.9804222E-01
          3   -1    0    0  502    0  0.00000000000E+00  0.00000000000E+00  0.10606984098E+03  0.10606984098E+03  0.00000000000E+00 0.  1.
         13   -1    0    0    0    0 -0.00000000000E+00 -0.00000000000E+00 -0.10000000000E+04  0.10000000000E+04  0.00000000000E+00 0.  1.
    9000005    2    1    2  501    0 -0.26952296290E-03 -0.11381653884E-03 -0.89393094241E+03  0.11060690047E+04  0.65136480826E+03 0.  0.
         13    1    3    3    0    0  0.15214067063E+03 -0.12191242008E+03 -0.39666017969E+01  0.19500039939E+03  0.00000000000E+00 0.  1.
          1    1    3    3  501    0 -0.15214094015E+03  0.12191230627E+03 -0.88996434062E+03  0.91106860535E+03  0.00000000000E+00 0.  1.
         21    1    1    2  502  501  0.26952296289E-03  0.11381653884E-03  0.78338956838E-03  0.83623922886E-03  0.00000000000E+00 0. -1.
<mgrwt>
<rscale>  1 0.65136481E+03</rscale>
<asrwt>0</asrwt>
<pdfrwt beam="1">  1        3 0.38570933E+00 0.65136481E+03</pdfrwt>
<pdfrwt beam="2">0</pdfrwt>
<totfact> 0.70404878E-02</totfact>
</mgrwt>
</event>
<event>
 6    1  0.2959206E-003  0.6544328E+03  0.7818608E-02  0.9798497E-01
          1   -1    0    0  502    0  0.00000000000E+00  0.00000000000E+00  0.10708028475E+03  0.10708028475E+03  0.00000000000E+00 0.  1.
         13   -1    0    0    0    0 -0.00000000000E+00 -0.00000000000E+00 -0.10000000000E+04  0.10000000000E+04  0.00000000000E+00 0.  1.
    9000005    2    1    2  501    0 -0.11327373255E-01 -0.15644369816E-01 -0.89291732875E+03  0.11070608232E+04  0.65443281547E+03 0.  0.
         13    1    3    3    0    0 -0.31515651238E+03  0.87613793282E+02 -0.46091386094E+03  0.56519146426E+03  0.00000000000E+00 0.  1.
          1    1    3    3  501    0  0.31514518501E+03 -0.87629437651E+02 -0.43200346781E+03  0.54186935896E+03  0.00000000000E+00 0.  1.
         21    1    1    2  502  501  0.11327373255E-01  0.15644369816E-01 -0.23864978514E-02  0.19461527787E-01  0.00000000000E+00 0. -1.
<mgrwt>
<rscale>  1 0.65443282E+03</rscale>
<asrwt>0</asrwt>
<pdfrwt beam="1">  1        1 0.38938367E+00 0.65443282E+03</pdfrwt>
<pdfrwt beam="2">0</pdfrwt>
<totfact> 0.14901986E+00</totfact>
</mgrwt>
</event>
<event>
 6    1  0.2959206E-003  0.6492123E+03  0.7818608E-02  0.9808258E-01
          1   -1    0    0  502    0  0.00000000000E+00  0.00000000000E+00  0.10536943689E+03  0.10536943689E+03  0.00000000000E+00 0.  1.
         13   -1    0    0    0    0 -0.00000000000E+00 -0.00000000000E+00 -0.10000000000E+04  0.10000000000E+04  0.00000000000E+00 0.  1.
    9000005    2    1    2  501    0  0.37344345768E-03  0.16595941071E-03 -0.89463065812E+03  0.11053690173E+04  0.64921233046E+03 0.  0.
         13    1    3    3    0    0 -0.15411367714E+03  0.27663184998E+03 -0.56882334533E+03  0.65102703792E+03  0.00000000000E+00 0.  1.
          3    1    3    3  501    0  0.15411405058E+03 -0.27663168402E+03 -0.32580731279E+03  0.45434197942E+03  0.00000000000E+00 0.  1.
         21    1    1    2  502  501 -0.37344345769E-03 -0.16595941071E-03  0.95017578448E-04  0.41956034406E-03  0.00000000000E+00 0. -1.
<mgrwt>
<rscale>  1 0.64921233E+03</rscale>
<asrwt>0</asrwt>
<pdfrwt beam="1">  1        1 0.38316240E+00 0.64921233E+03</pdfrwt>
<pdfrwt beam="2">0</pdfrwt>
<totfact> 0.15892774E+00</totfact>
</mgrwt>
</event>
<event>
 6    1  0.2959206E-003  0.6661354E+03  0.7818608E-02  0.9776965E-01
          1   -1    0    0  502    0  0.00000000000E+00  0.00000000000E+00  0.11514890553E+03  0.11514890553E+03  0.00000000000E+00 0.  1.
         13   -1    0    0    0    0 -0.00000000000E+00 -0.00000000000E+00 -0.10000000000E+04  0.10000000000E+04  0.00000000000E+00 0.  1.
    9000005    2    1    2  501    0  0.52310177704E-01 -0.23088877665E-01 -0.88906570121E+03  0.11109339109E+04  0.66613536922E+03 0.  0.
         13    1    3    3    0    0 -0.33267323891E+03 -0.15220702761E+02 -0.43828587623E+03  0.55045223497E+03  0.00000000000E+00 0.  1.
          1    1    3    3  501    0  0.33272554909E+03  0.15197613883E+02 -0.45077982499E+03  0.56048167597E+03  0.00000000000E+00 0.  1.
         21    1    1    2  502  501 -0.52310177704E-01  0.23088877665E-01  0.42146067426E+01  0.42149945962E+01  0.00000000000E+00 0.  1.
<mgrwt>
<rscale>  1 0.66613537E+03</rscale>
<asrwt>0</asrwt>
<pdfrwt beam="1">  1        1 0.41872418E+00 0.66613537E+03</pdfrwt>
<pdfrwt beam="2">0</pdfrwt>
<totfact> 0.10993621E+00</totfact>
</mgrwt>
</event>
<event>
 6    1  0.2959206E-003  0.5962890E+03  0.7818608E-02  0.9913135E-01
          1   -1    0    0  502    0  0.00000000000E+00  0.00000000000E+00  0.92343915158E+02  0.92343915158E+02  0.00000000000E+00 0.  1.
         13   -1    0    0    0    0 -0.00000000000E+00 -0.00000000000E+00 -0.10000000000E+04  0.10000000000E+04  0.00000000000E+00 0.  1.
    9000005    2    1    2  501    0 -0.40204499668E+00  0.91307513959E+00 -0.91103125286E+03  0.10888243832E+04  0.59628818394E+03 0.  0.
         13    1    3    3    0    0  0.15124590643E+03  0.25311584773E+03 -0.53996822560E+03  0.61523055942E+03  0.00000000000E+00 0.  1.
          1    1    3    3  501    0 -0.15164795143E+03 -0.25220277259E+03 -0.37106302726E+03  0.47359382373E+03  0.00000000000E+00 0.  1.
         21    1    1    2  502  501  0.40204499668E+00 -0.91307513959E+00  0.33751680196E+01  0.35195320073E+01  0.00000000000E+00 0.  1.
<mgrwt>
<rscale>  1 0.59628902E+03</rscale>
<asrwt>0</asrwt>
<pdfrwt beam="1">  1        1 0.33579676E+00 0.59628902E+03</pdfrwt>
<pdfrwt beam="2">0</pdfrwt>
<totfact> 0.25854732E+00</totfact>
</mgrwt>
</event>
<event>
 6    1  0.2959206E-003  0.6435742E+03  0.7818608E-02  0.9818912E-01
          3   -1    0    0  502    0  0.00000000000E+00  0.00000000000E+00  0.10354697628E+03  0.10354697628E+03  0.00000000000E+00 0.  1.
         13   -1    0    0    0    0 -0.00000000000E+00 -0.00000000000E+00 -0.10000000000E+04  0.10000000000E+04  0.00000000000E+00 0.  1.
    9000005    2    1    2  501    0 -0.45714839956E-04  0.27968596392E-04 -0.89645304834E+03  0.11035469173E+04  0.64357418438E+03 0.  0.
         13    1    3    3    0    0 -0.25320974739E+03  0.58273659809E+02 -0.12271966956E+03  0.28735189732E+03  0.00000000000E+00 0.  1.
          1    1    3    3  501    0  0.25320970167E+03 -0.58273631841E+02 -0.77373337879E+03  0.81619501998E+03  0.00000000000E+00 0.  1.
         21    1    1    2  502  501  0.45714839964E-04 -0.27968596391E-04  0.24625402355E-04  0.58978804822E-04  0.00000000000E+00 0. -1.
<mgrwt>
<rscale>  1 0.64357418E+03</rscale>
<asrwt>0</asrwt>
<pdfrwt beam="1">  1        3 0.37653525E+00 0.64357418E+03</pdfrwt>
<pdfrwt beam="2">0</pdfrwt>
<totfact> 0.78813415E-02</totfact>
</mgrwt>
</event>
<event>
 6    1  0.2959206E-003  0.6365399E+03  0.7818608E-02  0.9832369E-01
          1   -1    0    0  502    0  0.00000000000E+00  0.00000000000E+00  0.10129947556E+03  0.10129947556E+03  0.00000000000E+00 0.  1.
         13   -1    0    0    0    0 -0.00000000000E+00 -0.00000000000E+00 -0.10000000000E+04  0.10000000000E+04  0.00000000000E+00 0.  1.
    9000005    2    1    2  501    0 -0.27811823890E-03  0.10324129508E-03 -0.89870423025E+03  0.11012957579E+04  0.63653990675E+03 0.  0.
         13    1    3    3    0    0  0.16881754379E+03 -0.13138110439E+03 -0.41630993440E+02  0.21793002844E+03  0.00000000000E+00 0.  1.
          1    1    3    3  501    0 -0.16881782191E+03  0.13138120763E+03 -0.85707323681E+03  0.88336572945E+03  0.00000000000E+00 0.  1.
         21    1    1    2  502  501  0.27811823890E-03 -0.10324129510E-03  0.37058141918E-02  0.37176696120E-02  0.00000000000E+00 0.  1.
<mgrwt>
<rscale>  1 0.63653991E+03</rscale>
<asrwt>0</asrwt>
<pdfrwt beam="1">  1        1 0.36836251E+00 0.63653991E+03</pdfrwt>
<pdfrwt beam="2">0</pdfrwt>
<totfact> 0.18508845E+00</totfact>
</mgrwt>
</event>
<event>
 6    1  0.2959206E-003  0.6624489E+03  0.7818608E-02  0.9783696E-01
          1   -1    0    0  502    0  0.00000000000E+00  0.00000000000E+00  0.11784291827E+03  0.11784291827E+03  0.00000000000E+00 0.  1.
         13   -1    0    0    0    0 -0.00000000000E+00 -0.00000000000E+00 -0.10000000000E+04  0.10000000000E+04  0.00000000000E+00 0.  1.
    9000005    2    1    2  501    0 -0.37196803135E+00 -0.15032501877E+02 -0.88165976940E+03  0.11027975937E+04  0.66227824148E+03 0.  0.
         13    1    3    3    0    0 -0.63120124348E+01 -0.26608762285E+03 -0.79300879168E+03  0.83648395574E+03  0.00000000000E+00 0.  1.
          1    1    3    3  501    0  0.59400444035E+01  0.25105512097E+03 -0.88650977724E+02  0.26631363792E+03  0.00000000000E+00 0.  1.
         21    1    1    2  502  501  0.37196803135E+00  0.15032501877E+02 -0.49731232524E+00  0.15045324604E+02  0.00000000000E+00 0. -1.
<mgrwt>
<rscale>  1 0.66244893E+03</rscale>
<asrwt>0</asrwt>
<pdfrwt beam="1">  1        1 0.42852061E+00 0.66244893E+03</pdfrwt>
<pdfrwt beam="2">0</pdfrwt>
<totfact> 0.99345160E-01</totfact>
</mgrwt>
</event>
<event>
 6    1  0.2959206E-003  0.6413046E+03  0.7818608E-02  0.9823234E-01
          1   -1    0    0  502    0  0.00000000000E+00  0.00000000000E+00  0.10281842092E+03  0.10281842092E+03  0.00000000000E+00 0.  1.
         13   -1    0    0    0    0 -0.00000000000E+00 -0.00000000000E+00 -0.10000000000E+04  0.10000000000E+04  0.00000000000E+00 0.  1.
    9000005    2    1    2  501    0 -0.63378276514E-03 -0.61003547430E-03 -0.89718165590E+03  0.11028175379E+04  0.64130460642E+03 0.  0.
         13    1    3    3    0    0 -0.20603782689E+03  0.88851611764E+02 -0.84250571168E+03  0.87187273684E+03  0.00000000000E+00 0.  1.
          1    1    3    3  501    0  0.20603719311E+03 -0.88852221800E+02 -0.54675944219E+02  0.23094480106E+03  0.00000000000E+00 0.  1.
         21    1    1    2  502  501  0.63378276515E-03  0.61003547429E-03  0.76821827196E-04  0.88302064892E-03  0.00000000000E+00 0. -1.
<mgrwt>
<rscale>  1 0.64130461E+03</rscale>
<asrwt>0</asrwt>
<pdfrwt beam="1">  1        1 0.37388596E+00 0.64130461E+03</pdfrwt>
<pdfrwt beam="2">0</pdfrwt>
<totfact> 0.17487656E+00</totfact>
</mgrwt>
</event>
<event>
 6    1  0.2959206E-003  0.5702907E+03  0.7818608E-02  0.9969036E-01
          1   -1    0    0  502    0  0.00000000000E+00  0.00000000000E+00  0.84404412635E+02  0.84404412635E+02  0.00000000000E+00 0.  1.
         13   -1    0    0    0    0 -0.00000000000E+00 -0.00000000000E+00 -0.10000000000E+04  0.10000000000E+04  0.00000000000E+00 0.  1.
    9000005    2    1    2  501    0  0.70641024503E-01  0.15545543191E-01 -0.91869167480E+03  0.10813074804E+04  0.57029068782E+03 0.  0.
         13    1    3    3    0    0  0.16917649791E+03  0.22928424375E+03 -0.43765263938E+03  0.52223728767E+03  0.00000000000E+00 0.  1.
          1    1    3    3  501    0 -0.16910585689E+03 -0.22926869821E+03 -0.48103903542E+03  0.55907019274E+03  0.00000000000E+00 0.  1.
         21    1    1    2  502  501 -0.70641024503E-01 -0.15545543191E-01  0.30960874323E+01  0.30969322251E+01  0.00000000000E+00 0.  1.
<mgrwt>
<rscale>  1 0.57029069E+03</rscale>
<asrwt>0</asrwt>
<pdfrwt beam="1">  1        1 0.30692578E+00 0.57029069E+03</pdfrwt>
<pdfrwt beam="2">0</pdfrwt>
<totfact> 0.34627433E+00</totfact>
</mgrwt>
</event>
<event>
 6    1  0.2959206E-003  0.6457976E+03  0.7818608E-02  0.9814697E-01
          1   -1    0    0  502    0  0.00000000000E+00  0.00000000000E+00  0.10435723275E+03  0.10435723275E+03  0.00000000000E+00 0.  1.
         13   -1    0    0    0    0 -0.00000000000E+00 -0.00000000000E+00 -0.10000000000E+04  0.10000000000E+04  0.00000000000E+00 0.  1.
    9000005    2    1    2  501    0  0.40809707872E-03 -0.40910731287E-02 -0.89573630804E+03  0.11042636017E+04  0.64579762185E+03 0.  0.
         13    1    3    3    0    0  0.13120654233E+03 -0.11707759197E+03  0.15206690248E+02  0.17650371871E+03  0.00000000000E+00 0.  1.
          3    1    3    3  501    0 -0.13120613423E+03  0.11707350090E+03 -0.91094299829E+03  0.92775988294E+03  0.00000000000E+00 0.  1.
         21    1    1    2  502  501 -0.40809707872E-03  0.40910731287E-02  0.93540784423E-01  0.93631094050E-01  0.00000000000E+00 0. -1.
<mgrwt>
<rscale>  1 0.64579762E+03</rscale>
<asrwt>0</asrwt>
<pdfrwt beam="1">  1        1 0.37948165E+00 0.64579762E+03</pdfrwt>
<pdfrwt beam="2">0</pdfrwt>
<totfact> 0.16509104E+00</totfact>
</mgrwt>
</event>
<event>
 6    1  0.2959206E-003  0.6544024E+03  0.7818608E-02  0.9798553E-01
          1   -1    0    0  502    0  0.00000000000E+00  0.00000000000E+00  0.10800617388E+03  0.10800617388E+03  0.00000000000E+00 0.  1.
         13   -1    0    0    0    0 -0.00000000000E+00 -0.00000000000E+00 -0.10000000000E+04  0.10000000000E+04  0.00000000000E+00 0.  1.
    9000005    2    1    2  501    0  0.13657745845E+00  0.81299292422E-01 -0.89293196134E+03  0.11070546695E+04  0.65440242078E+03 0.  0.
         13    1    3    3    0    0 -0.22624191630E+03 -0.15875673121E+03 -0.74243580889E+03  0.79221211472E+03  0.00000000000E+00 0.  1.
          3    1    3    3  501    0  0.22637849375E+03  0.15883803051E+03 -0.15049615245E+03  0.31484255473E+03  0.00000000000E+00 0.  1.
         21    1    1    2  502  501 -0.13657745845E+00 -0.81299292422E-01  0.93813522124E+00  0.95150442481E+00  0.00000000000E+00 0. -1.
<mgrwt>
<rscale>  1 0.65440244E+03</rscale>
<asrwt>0</asrwt>
<pdfrwt beam="1">  1        1 0.39275055E+00 0.65440244E+03</pdfrwt>
<pdfrwt beam="2">0</pdfrwt>
<totfact> 0.14398173E+00</totfact>
</mgrwt>
</event>
<event>
 6    1  0.2959206E-003  0.6519586E+03  0.7818608E-02  0.9803111E-01
          1   -1    0    0  502    0  0.00000000000E+00  0.00000000000E+00  0.10626254827E+03  0.10626254827E+03  0.00000000000E+00 0.  1.
         13   -1    0    0    0    0 -0.00000000000E+00 -0.00000000000E+00 -0.10000000000E+04  0.10000000000E+04  0.00000000000E+00 0.  1.
    9000005    2    1    2  501    0 -0.35922856824E-04  0.66814493493E-07 -0.89373747005E+03  0.11062625079E+04  0.65195864218E+03 0.  0.
         13    1    3    3    0    0  0.22005298829E+03 -0.16958535720E+03 -0.15751082109E+03  0.31936212955E+03  0.00000000000E+00 0.  1.
          3    1    3    3  501    0 -0.22005302422E+03  0.16958535727E+03 -0.73622664897E+03  0.78690037839E+03  0.00000000000E+00 0.  1.
         21    1    1    2  502  501  0.35922856818E-04 -0.66814516608E-07  0.18327738623E-04  0.40328180087E-04  0.00000000000E+00 0. -1.
<mgrwt>
<rscale>  1 0.65195864E+03</rscale>
<asrwt>0</asrwt>
<pdfrwt beam="1">  1        1 0.38641008E+00 0.65195864E+03</pdfrwt>
<pdfrwt beam="2">0</pdfrwt>
<totfact> 0.15367942E+00</totfact>
</mgrwt>
</event>
<event>
 6    1  0.2959206E-003  0.6192818E+03  0.7818608E-02  0.9866191E-01
          1   -1    0    0  502    0  0.00000000000E+00  0.00000000000E+00  0.95882616945E+02  0.95882616945E+02  0.00000000000E+00 0.  1.
         13   -1    0    0    0    0 -0.00000000000E+00 -0.00000000000E+00 -0.10000000000E+04  0.10000000000E+04  0.00000000000E+00 0.  1.
    9000005    2    1    2  501    0 -0.21297197727E-02  0.68512905617E-02 -0.90411962875E+03  0.10958750990E+04  0.61928178524E+03 0.  0.
         13    1    3    3    0    0  0.70567724077E+02 -0.19555118087E+03 -0.85812206324E+03  0.88294594593E+03  0.00000000000E+00 0.  1.
          3    1    3    3  501    0 -0.70569853797E+02  0.19555803216E+03 -0.45997565509E+02  0.21292915310E+03  0.00000000000E+00 0.  1.
         21    1    1    2  502  501  0.21297197727E-02 -0.68512905617E-02  0.22456956591E-02  0.75179144491E-02  0.00000000000E+00 0. -1.
<mgrwt>
<rscale>  1 0.61928179E+03</rscale>
<asrwt>0</asrwt>
<pdfrwt beam="1">  1        1 0.34866480E+00 0.61928179E+03</pdfrwt>
<pdfrwt beam="2">0</pdfrwt>
<totfact> 0.22637829E+00</totfact>
</mgrwt>
</event>
