<event>
 6    1  0.6737601E-003  0.6876748E+03  0.7818608E-02  0.9738545E-01
          1   -1    0    0  502    0  0.00000000000E+00  0.00000000000E+00  0.11822457730E+03  0.11822457730E+03  0.00000000000E+00 0.  1.
         13   -1    0    0    0    0 -0.00000000000E+00 -0.00000000000E+00 -0.10000000000E+04  0.10000000000E+04  0.00000000000E+00 0.  1.
    9000005    2    1    2  501    0 -0.58968186238E-04  0.74473709823E-04 -0.88177584192E+03  0.11182241474E+04  0.68767478399E+03 0.  0.
         13    1    3    3    0    0 -0.31921748472E+03  0.30689152755E+02 -0.23920932858E+03  0.40007840423E+03  0.00000000000E+00 0.  1.
          1    1    3    3  501    0  0.31921742575E+03 -0.30689078281E+02 -0.64256651335E+03  0.71814574322E+03  0.00000000000E+00 0.  1.
         21    1    1    2  502  501  0.58968186231E-04 -0.74473709821E-04  0.41922952281E-03  0.42985692182E-03  0.00000000000E+00 0. -1.
<mgrwt>
<rscale>  1 0.68767478E+03</rscale>
<asrwt>0</asrwt>
<pdfrwt beam="1">  1        1 0.42990846E+00 0.68767478E+03</pdfrwt>
<pdfrwt beam="2">0</pdfrwt>
<totfact> 0.97434563E-01</totfact>
</mgrwt>
</event>
<event>
 6    1  0.6737601E-003  0.6552837E+03  0.7818608E-02  0.9796915E-01
          1   -1    0    0  502    0  0.00000000000E+00  0.00000000000E+00  0.10735025111E+03  0.10735025111E+03  0.00000000000E+00 0.  1.
         13   -1    0    0    0    0 -0.00000000000E+00 -0.00000000000E+00 -0.10000000000E+04  0.10000000000E+04  0.00000000000E+00 0.  1.
    9000005    2    1    2  501    0  0.91332441627E-05  0.21169254171E-03 -0.89265080196E+03  0.11073491769E+04  0.65528371368E+03 0.  0.
         13    1    3    3    0    0 -0.21524779956E+03  0.21521528999E+03 -0.65121220081E+03  0.71883695422E+03  0.00000000000E+00 0.  1.
          3    1    3    3  501    0  0.21524780869E+03 -0.21521507830E+03 -0.24143860115E+03  0.38851222272E+03  0.00000000000E+00 0.  1.
         21    1    1    2  502  501 -0.91332441514E-05 -0.21169254171E-03  0.10530730505E-02  0.10741787552E-02  0.00000000000E+00 0.  1.
<mgrwt>
<rscale>  1 0.65528371E+03</rscale>
<asrwt>0</asrwt>
<pdfrwt beam="1">  1        1 0.39036537E+00 0.65528371E+03</pdfrwt>
<pdfrwt beam="2">0</pdfrwt>
<totfact> 0.14751029E+00</totfact>
</mgrwt>
</event>
<event>
 6    1  0.6737601E-003  0.6472586E+03  0.7818608E-02  0.9811937E-01
          1   -1    0    0  502    0  0.00000000000E+00  0.00000000000E+00  0.10573935586E+03  0.10573935586E+03  0.00000000000E+00 0.  1.
         13   -1    0    0    0    0 -0.00000000000E+00 -0.00000000000E+00 -0.10000000000E+04  0.10000000000E+04  0.00000000000E+00 0.  1.
    9000005    2    1    2  501    0 -0.22045498322E+01 -0.16250266506E+00 -0.89368219932E+03  0.11034543951E+04  0.64725485114E+03 0.  0.
         13    1    3    3    0    0  0.40801027378E+01  0.96605576494E+01  0.10458983146E+03  0.10511425430E+03  0.00000000000E+00 0.  1.
          1    1    3    3  501    0 -0.62846525700E+01 -0.98230603145E+01 -0.99827203078E+03  0.99834014083E+03  0.00000000000E+00 0.  1.
         21    1    1    2  502  501  0.22045498322E+01  0.16250266506E+00 -0.57844482651E+00  0.22849607209E+01  0.00000000000E+00 0.  1.
<mgrwt>
<rscale>  1 0.64725863E+03</rscale>
<asrwt>0</asrwt>
<pdfrwt beam="1">  1        1 0.38450756E+00 0.64725863E+03</pdfrwt>
<pdfrwt beam="2">0</pdfrwt>
<totfact> 0.15682319E+00</totfact>
</mgrwt>
</event>
<event>
 6    1  0.6737601E-003  0.6558196E+03  0.7818608E-02  0.9795920E-01
          1   -1    0    0  502    0  0.00000000000E+00  0.00000000000E+00  0.10753896030E+03  0.10753896030E+03  0.00000000000E+00 0.  1.
         13   -1    0    0    0    0 -0.00000000000E+00 -0.00000000000E+00 -0.10000000000E+04  0.10000000000E+04  0.00000000000E+00 0.  1.
    9000005    2    1    2  501    0  0.95561377364E-04  0.25227280179E-03 -0.89247515824E+03  0.11075248392E+04  0.65581961035E+03 0.  0.
         13    1    3    3    0    0  0.90058423690E+02 -0.60604766489E+02  0.76301674885E+02  0.13268535333E+03  0.00000000000E+00 0.  1.
          3    1    3    3  501    0 -0.90058328129E+02  0.60605018761E+02 -0.96877683313E+03  0.97483948585E+03  0.00000000000E+00 0.  1.
         21    1    1    2  502  501 -0.95561377372E-04 -0.25227280179E-03  0.14118544974E-01  0.14121121972E-01  0.00000000000E+00 0. -1.
<mgrwt>
<rscale>  1 0.65581961E+03</rscale>
<asrwt>0</asrwt>
<pdfrwt beam="1">  1        1 0.39105159E+00 0.65581961E+03</pdfrwt>
<pdfrwt beam="2">0</pdfrwt>
<totfact> 0.14646530E+00</totfact>
</mgrwt>
</event>
<event>
 6    1  0.6737601E-003  0.6471620E+03  0.7818608E-02  0.9812119E-01
          1   -1    0    0  502    0  0.00000000000E+00  0.00000000000E+00  0.10470599328E+03  0.10470599328E+03  0.00000000000E+00 0.  1.
         13   -1    0    0    0    0 -0.00000000000E+00 -0.00000000000E+00 -0.10000000000E+04  0.10000000000E+04  0.00000000000E+00 0.  1.
    9000005    2    1    2  501    0 -0.12761973181E-04  0.30428802290E-04 -0.89529532985E+03  0.11047046697E+04  0.64716201965E+03 0.  0.
         13    1    3    3    0    0  0.13862572624E+03 -0.28620014470E+03 -0.54974049735E+03  0.63509229977E+03  0.00000000000E+00 0.  1.
          3    1    3    3  501    0 -0.13862573900E+03  0.28620017513E+03 -0.34555483251E+03  0.46961236997E+03  0.00000000000E+00 0.  1.
         21    1    1    2  502  501  0.12761973204E-04 -0.30428802319E-04  0.13231353891E-02  0.13235467645E-02  0.00000000000E+00 0. -1.
<mgrwt>
<rscale>  1 0.64716202E+03</rscale>
<asrwt>0</asrwt>
<pdfrwt beam="1">  1        1 0.38074987E+00 0.64716202E+03</pdfrwt>
<pdfrwt beam="2">0</pdfrwt>
<totfact> 0.16293657E+00</totfact>
</mgrwt>
</event>
<event>
 6    1  0.6737601E-003  0.6858994E+03  0.7818608E-02  0.9741655E-01
          1   -1    0    0  502    0  0.00000000000E+00  0.00000000000E+00  0.11761526596E+03  0.11761526596E+03  0.00000000000E+00 0.  1.
         13   -1    0    0    0    0 -0.00000000000E+00 -0.00000000000E+00 -0.10000000000E+04  0.10000000000E+04  0.00000000000E+00 0.  1.
    9000005    2    1    2  501    0 -0.90420434589E-03 -0.81526726859E-04 -0.88238517649E+03  0.11176142560E+04  0.68589942815E+03 0.  0.
         13    1    3    3    0    0  0.31306047571E+03  0.13888388085E+03 -0.41210719016E+03  0.53584319534E+03  0.00000000000E+00 0.  1.
          1    1    3    3  501    0 -0.31306137992E+03 -0.13888396237E+03 -0.47027798633E+03  0.58177106067E+03  0.00000000000E+00 0.  1.
         21    1    1    2  502  501  0.90420434591E-03  0.81526726855E-04  0.44244868087E-03  0.10099469994E-02  0.00000000000E+00 0.  1.
<mgrwt>
<rscale>  1 0.68589943E+03</rscale>
<asrwt>0</asrwt>
<pdfrwt beam="1">  1        1 0.42769278E+00 0.68589943E+03</pdfrwt>
<pdfrwt beam="2">0</pdfrwt>
<totfact> 0.99752361E-01</totfact>
</mgrwt>
</event>
<event>
 6    1  0.6737601E-003  0.6567653E+03  0.7818608E-02  0.9794167E-01
          1   -1    0    0  502    0  0.00000000000E+00  0.00000000000E+00  0.11092588925E+03  0.11092588925E+03  0.00000000000E+00 0.  1.
         13   -1    0    0    0    0 -0.00000000000E+00 -0.00000000000E+00 -0.10000000000E+04  0.10000000000E+04  0.00000000000E+00 0.  1.
    9000005    2    1    2  501    0 -0.14441471907E+01  0.18140779449E+00 -0.89197383689E+03  0.11076813736E+04  0.65676371803E+03 0.  0.
         13    1    3    3    0    0  0.13318531525E+03 -0.26125734190E+03 -0.69336781822E+03  0.75282976710E+03  0.00000000000E+00 0.  1.
          1    1    3    3  501    0 -0.13462946244E+03  0.26143874970E+03 -0.19860601867E+03  0.35485160653E+03  0.00000000000E+00 0.  1.
         21    1    1    2  502  501  0.14441471907E+01 -0.18140779449E+00  0.28997261459E+01  0.32445156214E+01  0.00000000000E+00 0. -1.
<mgrwt>
<rscale>  1 0.65676533E+03</rscale>
<asrwt>0</asrwt>
<pdfrwt beam="1">  1        1 0.40336772E+00 0.65676533E+03</pdfrwt>
<pdfrwt beam="2">0</pdfrwt>
<totfact> 0.12907136E+00</totfact>
</mgrwt>
</event>
<event>
 6    1  0.6737601E-003  0.6475702E+03  0.7818608E-02  0.9811349E-01
          3   -1    0    0  502    0  0.00000000000E+00  0.00000000000E+00  0.13226020708E+03  0.13226020708E+03  0.00000000000E+00 0.  1.
         13   -1    0    0    0    0 -0.00000000000E+00 -0.00000000000E+00 -0.10000000000E+04  0.10000000000E+04  0.00000000000E+00 0.  1.
    9000005    2    1    2  501    0  0.22274667922E+01  0.22836196546E+01 -0.89506066774E+03  0.11047537219E+04  0.64756236037E+03 0.  0.
         13    1    3    3    0    0 -0.22258890043E+03 -0.22815464409E+03 -0.52567631978E+03  0.61476495784E+03  0.00000000000E+00 0.  1.
          1    1    3    3  501    0  0.22481636722E+03  0.23043826375E+03 -0.36938434796E+03  0.48998876404E+03  0.00000000000E+00 0.  1.
         21    1    1    2  502  501 -0.22274667922E+01 -0.22836196546E+01  0.27320874817E+02  0.27506485195E+02  0.00000000000E+00 0.  1.
<mgrwt>
<rscale>  1 0.64757022E+03</rscale>
<asrwt>0</asrwt>
<pdfrwt beam="1">  1        3 0.48094722E+00 0.64757022E+03</pdfrwt>
<pdfrwt beam="2">0</pdfrwt>
<totfact> 0.22897960E-02</totfact>
</mgrwt>
</event>
<event>
 6    1  0.6737601E-003  0.6520392E+03  0.7818608E-02  0.9802960E-01
          1   -1    0    0  502    0  0.00000000000E+00  0.00000000000E+00  0.11457667724E+03  0.11457667724E+03  0.00000000000E+00 0.  1.
         13   -1    0    0    0    0 -0.00000000000E+00 -0.00000000000E+00 -0.10000000000E+04  0.10000000000E+04  0.00000000000E+00 0.  1.
    9000005    2    1    2  501    0 -0.24299309999E+01 -0.39037546437E+01 -0.89299970449E+03  0.11057140916E+04  0.65202303348E+03 0.  0.
         13    1    3    3    0    0  0.76666316267E+02  0.52020485125E+02  0.83318081119E+02  0.12460239791E+03  0.00000000000E+00 0.  1.
          1    1    3    3  501    0 -0.79096247267E+02 -0.55924239769E+02 -0.97631778560E+03  0.98111169365E+03  0.00000000000E+00 0.  1.
         21    1    1    2  502  501  0.24299309999E+01  0.39037546437E+01  0.75763817305E+01  0.88625856898E+01  0.00000000000E+00 0.  1.
<mgrwt>
<rscale>  1 0.65203925E+03</rscale>
<asrwt>0</asrwt>
<pdfrwt beam="1">  1        1 0.41664334E+00 0.65203925E+03</pdfrwt>
<pdfrwt beam="2">0</pdfrwt>
<totfact> 0.11264326E+00</totfact>
</mgrwt>
</event>
<event>
 6    1  0.6737601E-003  0.6452782E+03  0.7818608E-02  0.9815680E-01
          1   -1    0    0  502    0  0.00000000000E+00  0.00000000000E+00  0.10577611671E+03  0.10577611671E+03  0.00000000000E+00 0.  1.
         13   -1    0    0    0    0 -0.00000000000E+00 -0.00000000000E+00 -0.10000000000E+04  0.10000000000E+04  0.00000000000E+00 0.  1.
    9000005    2    1    2  501    0  0.62800279172E-01 -0.18172962085E-01 -0.89590329394E+03  0.11040954340E+04  0.64527824316E+03 0.  0.
         13    1    3    3    0    0 -0.49412478321E+02 -0.31337586601E+03 -0.54849531525E+03  0.63363486115E+03  0.00000000000E+00 0.  1.
          1    1    3    3  501    0  0.49475278600E+02  0.31335769305E+03 -0.34740797869E+03  0.47046057289E+03  0.00000000000E+00 0.  1.
         21    1    1    2  502  501 -0.62800279172E-01  0.18172962085E-01  0.16794106423E+01  0.16806826700E+01  0.00000000000E+00 0. -1.
<mgrwt>
<rscale>  1 0.64527825E+03</rscale>
<asrwt>0</asrwt>
<pdfrwt beam="1">  1        1 0.38464124E+00 0.64527825E+03</pdfrwt>
<pdfrwt beam="2">0</pdfrwt>
<totfact> 0.15666745E+00</totfact>
</mgrwt>
</event>
<event>
 6    1  0.6737601E-003  0.6479859E+03  0.7818608E-02  0.9810566E-01
          1   -1    0    0  502    0  0.00000000000E+00  0.00000000000E+00  0.10497148450E+03  0.10497148450E+03  0.00000000000E+00 0.  1.
         13   -1    0    0    0    0 -0.00000000000E+00 -0.00000000000E+00 -0.10000000000E+04  0.10000000000E+04  0.00000000000E+00 0.  1.
    9000005    2    1    2  501    0 -0.11347154287E-03 -0.28003943896E-04 -0.89502837786E+03  0.11049713039E+04  0.64798594533E+03 0.  0.
         13    1    3    3    0    0  0.85892551776E+02  0.28650573454E+03 -0.23515627110E+03  0.38047541079E+03  0.00000000000E+00 0.  1.
          3    1    3    3  501    0 -0.85892665248E+02 -0.28650576254E+03 -0.65987210675E+03  0.72449589315E+03  0.00000000000E+00 0.  1.
         21    1    1    2  502  501  0.11347154287E-03  0.28003943869E-04 -0.13764104741E-03  0.18056873995E-03  0.00000000000E+00 0. -1.
<mgrwt>
<rscale>  1 0.64798595E+03</rscale>
<asrwt>0</asrwt>
<pdfrwt beam="1">  1        1 0.38171529E+00 0.64798595E+03</pdfrwt>
<pdfrwt beam="2">0</pdfrwt>
<totfact> 0.16132084E+00</totfact>
</mgrwt>
</event>
<event>
 6    1  0.6737601E-003  0.6555454E+03  0.7818608E-02  0.9796429E-01
          1   -1    0    0  502    0  0.00000000000E+00  0.00000000000E+00  0.10782638671E+03  0.10782638671E+03  0.00000000000E+00 0.  1.
         13   -1    0    0    0    0 -0.00000000000E+00 -0.00000000000E+00 -0.10000000000E+04  0.10000000000E+04  0.00000000000E+00 0.  1.
    9000005    2    1    2  501    0 -0.18642489909E-01 -0.12255195465E-01 -0.89256471743E+03  0.11074346468E+04  0.65554536196E+03 0.  0.
         13    1    3    3    0    0  0.66950568811E+02  0.31352725270E+03 -0.33109786121E+03  0.46087689305E+03  0.00000000000E+00 0.  1.
          3    1    3    3  501    0 -0.66969211301E+02 -0.31353950789E+03 -0.56146685621E+03  0.64655775372E+03  0.00000000000E+00 0.  1.
         21    1    1    2  502  501  0.18642489909E-01  0.12255195465E-01  0.39110413149E+00  0.39173993148E+00  0.00000000000E+00 0.  1.
<mgrwt>
<rscale>  1 0.65554536E+03</rscale>
<asrwt>0</asrwt>
<pdfrwt beam="1">  1        1 0.39209678E+00 0.65554536E+03</pdfrwt>
<pdfrwt beam="2">0</pdfrwt>
<totfact> 0.14491651E+00</totfact>
</mgrwt>
</event>
<event>
 6    1  0.6737601E-003  0.5773254E+03  0.7818608E-02  0.9953598E-01
          1   -1    0    0  502    0  0.00000000000E+00  0.00000000000E+00  0.93240866832E+02  0.93240866832E+02  0.00000000000E+00 0.  1.
         13   -1    0    0    0    0 -0.00000000000E+00 -0.00000000000E+00 -0.10000000000E+04  0.10000000000E+04  0.00000000000E+00 0.  1.
    9000005    2    1    2  501    0  0.37603654967E+00  0.23335297773E+00 -0.91666848845E+03  0.10833216340E+04  0.57732525426E+03 0.  0.
         13    1    3    3    0    0 -0.75550011655E+02 -0.73685668409E+02 -0.96221266744E+03  0.96798274746E+03  0.00000000000E+00 0.  1.
          1    1    3    3  501    0  0.75926048205E+02  0.73919021387E+02  0.45544178991E+02  0.11533888659E+03  0.00000000000E+00 0.  1.
         21    1    1    2  502  501 -0.37603654967E+00 -0.23335297773E+00  0.99093552797E+01  0.99192327909E+01  0.00000000000E+00 0. -1.
<mgrwt>
<rscale>  1 0.57732542E+03</rscale>
<asrwt>0</asrwt>
<pdfrwt beam="1">  1        1 0.33905841E+00 0.57732542E+03</pdfrwt>
<pdfrwt beam="2">0</pdfrwt>
<totfact> 0.25116531E+00</totfact>
</mgrwt>
</event>
<event>
 6    1  0.6737601E-003  0.6477514E+03  0.7818608E-02  0.9811008E-01
          1   -1    0    0  502    0  0.00000000000E+00  0.00000000000E+00  0.10666720001E+03  0.10666720001E+03  0.00000000000E+00 0.  1.
         13   -1    0    0    0    0 -0.00000000000E+00 -0.00000000000E+00 -0.10000000000E+04  0.10000000000E+04  0.00000000000E+00 0.  1.
    9000005    2    1    2  501    0  0.96352794347E-01 -0.11159558821E+00 -0.89510114819E+03  0.11048927162E+04  0.64775136208E+03 0.  0.
         13    1    3    3    0    0 -0.15975726805E+03  0.53190933358E+02 -0.91935752260E+03  0.93464962122E+03  0.00000000000E+00 0.  1.
          3    1    3    3  501    0  0.15985362084E+03 -0.53302528947E+02  0.24256374410E+02  0.17024309498E+03  0.00000000000E+00 0.  1.
         21    1    1    2  502  501 -0.96352794347E-01  0.11159558821E+00  0.17683482067E+01  0.17744838169E+01  0.00000000000E+00 0. -1.
<mgrwt>
<rscale>  1 0.64775138E+03</rscale>
<asrwt>0</asrwt>
<pdfrwt beam="1">  1        1 0.38788155E+00 0.64775138E+03</pdfrwt>
<pdfrwt beam="2">0</pdfrwt>
<totfact> 0.15150940E+00</totfact>
</mgrwt>
</event>
<event>
 6    1  0.6737601E-003  0.6385828E+03  0.7818608E-02  0.9828442E-01
          1   -1    0    0  502    0  0.00000000000E+00  0.00000000000E+00  0.10195302433E+03  0.10195302433E+03  0.00000000000E+00 0.  1.
         13   -1    0    0    0    0 -0.00000000000E+00 -0.00000000000E+00 -0.10000000000E+04  0.10000000000E+04  0.00000000000E+00 0.  1.
    9000005    2    1    2  501    0  0.27509142626E-05  0.19959640508E-03 -0.89805299629E+03  0.11019470004E+04  0.63858281181E+03 0.  0.
         13    1    3    3    0    0  0.17899185958E+03  0.22689212029E+03 -0.21476909345E+03  0.36006094421E+03  0.00000000000E+00 0.  1.
          3    1    3    3  501    0 -0.17899185683E+03 -0.22689192069E+03 -0.68328390284E+03  0.74188605619E+03  0.00000000000E+00 0.  1.
         21    1    1    2  502  501 -0.27509142539E-05 -0.19959640508E-03  0.60206234077E-02  0.60239316488E-02  0.00000000000E+00 0. -1.
<mgrwt>
<rscale>  1 0.63858281E+03</rscale>
<asrwt>0</asrwt>
<pdfrwt beam="1">  1        1 0.37073905E+00 0.63858281E+03</pdfrwt>
<pdfrwt beam="2">0</pdfrwt>
<totfact> 0.18062690E+00</totfact>
</mgrwt>
</event>
<event>
 6    1  0.6737601E-003  0.6507752E+03  0.7818608E-02  0.9805326E-01
          1   -1    0    0  502    0  0.00000000000E+00  0.00000000000E+00  0.10587945049E+03  0.10587945049E+03  0.00000000000E+00 0.  1.
         13   -1    0    0    0    0 -0.00000000000E+00 -0.00000000000E+00 -0.10000000000E+04  0.10000000000E+04  0.00000000000E+00 0.  1.
    9000005    2    1    2  501    0  0.20620279201E-04 -0.81065453529E-04 -0.89412290660E+03  0.11058770919E+04  0.65077520720E+03 0.  0.
         13    1    3    3    0    0 -0.28991870701E+03 -0.41633729068E+02 -0.68792727570E+03  0.74768319543E+03  0.00000000000E+00 0.  1.
          1    1    3    3  501    0  0.28991872763E+03  0.41633648003E+02 -0.20619563090E+03  0.35819389648E+03  0.00000000000E+00 0.  1.
         21    1    1    2  502  501 -0.20620279180E-04  0.81065453526E-04  0.23570885630E-02  0.23585723006E-02  0.00000000000E+00 0.  1.
<mgrwt>
<rscale>  1 0.65077521E+03</rscale>
<asrwt>0</asrwt>
<pdfrwt beam="1">  1        1 0.38501700E+00 0.65077521E+03</pdfrwt>
<pdfrwt beam="2">0</pdfrwt>
<totfact> 0.15591033E+00</totfact>
</mgrwt>
</event>
<event>
 6    1  0.6737601E-003  0.6478005E+03  0.7818608E-02  0.9810915E-01
          1   -1    0    0  502    0  0.00000000000E+00  0.00000000000E+00  0.10500647757E+03  0.10500647757E+03  0.00000000000E+00 0.  1.
         13   -1    0    0    0    0 -0.00000000000E+00 -0.00000000000E+00 -0.10000000000E+04  0.10000000000E+04  0.00000000000E+00 0.  1.
    9000005    2    1    2  501    0  0.13076748531E+00  0.23926560307E+00 -0.89477357916E+03  0.11046561588E+04  0.64780042990E+03 0.  0.
         13    1    3    3    0    0 -0.22833323311E+03 -0.18285559536E+03 -0.68391762207E+03  0.74385183194E+03  0.00000000000E+00 0.  1.
          3    1    3    3  501    0  0.22846400059E+03  0.18309486097E+03 -0.21085595709E+03  0.36080432691E+03  0.00000000000E+00 0.  1.
         21    1    1    2  502  501 -0.13076748531E+00 -0.23926560307E+00 -0.21994327351E+00  0.35031872286E+00  0.00000000000E+00 0.  1.
<mgrwt>
<rscale>  1 0.64780049E+03</rscale>
<asrwt>0</asrwt>
<pdfrwt beam="1">  1        1 0.38184254E+00 0.64780049E+03</pdfrwt>
<pdfrwt beam="2">0</pdfrwt>
<totfact> 0.16111774E+00</totfact>
</mgrwt>
</event>
<event>
 6    1  0.6737601E-003  0.6467662E+03  0.7818608E-02  0.9812866E-01
          3   -1    0    0  502    0  0.00000000000E+00  0.00000000000E+00  0.10458083497E+03  0.10458083497E+03  0.00000000000E+00 0.  1.
         13   -1    0    0    0    0 -0.00000000000E+00 -0.00000000000E+00 -0.10000000000E+04  0.10000000000E+04  0.00000000000E+00 0.  1.
    9000005    2    1    2  501    0  0.11310447390E-02 -0.28653648004E-02 -0.89542275683E+03  0.11045761031E+04  0.64676615099E+03 0.  0.
         13    1    3    3    0    0 -0.13444723268E+03  0.22108102494E+03 -0.77897411005E+03  0.82082491561E+03  0.00000000000E+00 0.  1.
          3    1    3    3  501    0  0.13444836372E+03 -0.22108389031E+03 -0.11644864678E+03  0.28375118748E+03  0.00000000000E+00 0.  1.
         21    1    1    2  502  501 -0.11310447390E-02  0.28653648004E-02  0.35918063265E-02  0.47318759840E-02  0.00000000000E+00 0.  1.
<mgrwt>
<rscale>  1 0.64676615E+03</rscale>
<asrwt>0</asrwt>
<pdfrwt beam="1">  1        3 0.38029475E+00 0.64676615E+03</pdfrwt>
<pdfrwt beam="2">0</pdfrwt>
<totfact> 0.75249324E-02</totfact>
</mgrwt>
</event>
<event>
 6    1  0.6737601E-003  0.6465962E+03  0.7818608E-02  0.9813187E-01
          1   -1    0    0  502    0  0.00000000000E+00  0.00000000000E+00  0.10452321294E+03  0.10452321294E+03  0.00000000000E+00 0.  1.
         13   -1    0    0    0    0 -0.00000000000E+00 -0.00000000000E+00 -0.10000000000E+04  0.10000000000E+04  0.00000000000E+00 0.  1.
    9000005    2    1    2  501    0  0.65657587157E-04 -0.99593488869E-05 -0.89547832652E+03  0.11045216721E+04  0.64659623474E+03 0.  0.
         13    1    3    3    0    0  0.14236310915E+03 -0.23670670169E+03 -0.16075816816E+03  0.31959428359E+03  0.00000000000E+00 0.  1.
          1    1    3    3  501    0 -0.14236304350E+03  0.23670669173E+03 -0.73472015836E+03  0.78492738846E+03  0.00000000000E+00 0.  1.
         21    1    1    2  502  501 -0.65657587165E-04  0.99593489110E-05  0.15394562250E-02  0.15408879181E-02  0.00000000000E+00 0.  1.
<mgrwt>
<rscale>  1 0.64659623E+03</rscale>
<asrwt>0</asrwt>
<pdfrwt beam="1">  1        1 0.38008521E+00 0.64659623E+03</pdfrwt>
<pdfrwt beam="2">0</pdfrwt>
<totfact> 0.16405784E+00</totfact>
</mgrwt>
</event>
<event>
 6    1  0.6737601E-003  0.6460585E+03  0.7818608E-02  0.9814203E-01
          1   -1    0    0  502    0  0.00000000000E+00  0.00000000000E+00  0.10436065369E+03  0.10436065369E+03  0.00000000000E+00 0.  1.
         13   -1    0    0    0    0 -0.00000000000E+00 -0.00000000000E+00 -0.10000000000E+04  0.10000000000E+04  0.00000000000E+00 0.  1.
    9000005    2    1    2  501    0  0.80733139438E-03  0.70226191958E-02 -0.89565101610E+03  0.11043470099E+04  0.64605849238E+03 0.  0.
         13    1    3    3    0    0 -0.19202505926E+03  0.25825252749E+03 -0.49561666452E+03  0.59093474215E+03  0.00000000000E+00 0.  1.
          1    1    3    3  501    0  0.19202586659E+03 -0.25824550487E+03 -0.40003435158E+03  0.51341226774E+03  0.00000000000E+00 0.  1.
         21    1    1    2  502  501 -0.80733139439E-03 -0.70226191958E-02  0.11669791730E-01  0.13643789920E-01  0.00000000000E+00 0.  1.
<mgrwt>
<rscale>  1 0.64605849E+03</rscale>
<asrwt>0</asrwt>
<pdfrwt beam="1">  1        1 0.37949409E+00 0.64605849E+03</pdfrwt>
<pdfrwt beam="2">0</pdfrwt>
<totfact> 0.16506227E+00</totfact>
</mgrwt>
</event>
<event>
 6    1  0.6737601E-003  0.6568329E+03  0.7818608E-02  0.9794042E-01
          1   -1    0    0  502    0  0.00000000000E+00  0.00000000000E+00  0.11630402102E+03  0.11630402102E+03  0.00000000000E+00 0.  1.
         13   -1    0    0    0    0 -0.00000000000E+00 -0.00000000000E+00 -0.10000000000E+04  0.10000000000E+04  0.00000000000E+00 0.  1.
    9000005    2    1    2  501    0 -0.11273158095E+01 -0.47862360556E+01 -0.89134238014E+03  0.11072130174E+04  0.65681447023E+03 0.  0.
         13    1    3    3    0    0  0.13840447213E+03 -0.29167210308E+03 -0.56572739983E+03  0.65136464790E+03  0.00000000000E+00 0.  1.
          3    1    3    3  501    0 -0.13953178794E+03  0.28688586702E+03 -0.32561498032E+03  0.45584836947E+03  0.00000000000E+00 0.  1.
         21    1    1    2  502  501  0.11273158095E+01  0.47862360556E+01  0.76464011684E+01  0.90910036488E+01  0.00000000000E+00 0.  1.
<mgrwt>
<rscale>  1 0.65683288E+03</rscale>
<asrwt>0</asrwt>
<pdfrwt beam="1">  1        1 0.42292460E+00 0.65683288E+03</pdfrwt>
<pdfrwt beam="2">0</pdfrwt>
<totfact> 0.10543069E+00</totfact>
</mgrwt>
</event>
<event>
 6    1  0.6737601E-003  0.6408093E+03  0.7818608E-02  0.9824179E-01
          1   -1    0    0  502    0  0.00000000000E+00  0.00000000000E+00  0.10272653357E+03  0.10272653357E+03  0.00000000000E+00 0.  1.
         13   -1    0    0    0    0 -0.00000000000E+00 -0.00000000000E+00 -0.10000000000E+04  0.10000000000E+04  0.00000000000E+00 0.  1.
    9000005    2    1    2  501    0 -0.10348199688E-02  0.29646349948E-02 -0.89734083578E+03  0.11026590911E+04  0.64080925054E+03 0.  0.
         13    1    3    3    0    0 -0.38262966097E+02 -0.23534077789E+03 -0.80380181770E+02  0.25161540082E+03  0.00000000000E+00 0.  1.
          1    1    3    3  501    0  0.38261931277E+02  0.23534374252E+03 -0.81696065401E+03  0.85104369026E+03  0.00000000000E+00 0.  1.
         21    1    1    2  502  501  0.10348199688E-02 -0.29646349948E-02  0.67369351521E-01  0.67442489851E-01  0.00000000000E+00 0.  1.
<mgrwt>
<rscale>  1 0.64080925E+03</rscale>
<asrwt>0</asrwt>
<pdfrwt beam="1">  1        1 0.37355182E+00 0.64080925E+03</pdfrwt>
<pdfrwt beam="2">0</pdfrwt>
<totfact> 0.17548534E+00</totfact>
</mgrwt>
</event>
<event>
 6    1  0.6737601E-003  0.6445846E+03  0.7818608E-02  0.9816994E-01
          1   -1    0    0  502    0  0.00000000000E+00  0.00000000000E+00  0.10387237127E+03  0.10387237127E+03  0.00000000000E+00 0.  1.
         13   -1    0    0    0    0 -0.00000000000E+00 -0.00000000000E+00 -0.10000000000E+04  0.10000000000E+04  0.00000000000E+00 0.  1.
    9000005    2    1    2  501    0 -0.48072963580E-04  0.92541516210E-05 -0.89612765441E+03  0.11038723160E+04  0.64458460810E+03 0.  0.
         13    1    3    3    0    0  0.27499779861E+03 -0.15424922924E+03 -0.56237713536E+03  0.64473611372E+03  0.00000000000E+00 0.  1.
          1    1    3    3  501    0 -0.27499784669E+03  0.15424923850E+03 -0.33375051906E+03  0.45913620226E+03  0.00000000000E+00 0.  1.
         21    1    1    2  502  501  0.48072963613E-04 -0.92541516248E-05  0.25682137579E-04  0.55283101790E-04  0.00000000000E+00 0. -1.
<mgrwt>
<rscale>  1 0.64458461E+03</rscale>
<asrwt>0</asrwt>
<pdfrwt beam="1">  1        1 0.37771851E+00 0.64458461E+03</pdfrwt>
<pdfrwt beam="2">0</pdfrwt>
<totfact> 0.16811030E+00</totfact>
</mgrwt>
</event>
<event>
 6    1  0.6737601E-003  0.7023404E+03  0.7818608E-02  0.9713238E-01
          1   -1    0    0  502    0  0.00000000000E+00  0.00000000000E+00  0.12376814113E+03  0.12376814113E+03  0.00000000000E+00 0.  1.
         13   -1    0    0    0    0 -0.00000000000E+00 -0.00000000000E+00 -0.10000000000E+04  0.10000000000E+04  0.00000000000E+00 0.  1.
    9000005    2    1    2  501    0 -0.49695341067E+00 -0.30920634719E+00 -0.87645183162E+03  0.11231428738E+04  0.70234020189E+03 0.  0.
         13    1    3    3    0    0  0.27333833580E+03  0.17327686449E+03 -0.65476196332E+03  0.73037794750E+03  0.00000000000E+00 0.  1.
          1    1    3    3  501    0 -0.27383528921E+03 -0.17358607084E+03 -0.22168986829E+03  0.39276492627E+03  0.00000000000E+00 0.  1.
         21    1    1    2  502  501  0.49695341067E+00  0.30920634719E+00  0.21997274670E+00  0.62526735626E+00  0.00000000000E+00 0.  1.
<mgrwt>
<rscale>  1 0.70234045E+03</rscale>
<asrwt>0</asrwt>
<pdfrwt beam="1">  1        1 0.45006692E+00 0.70234045E+03</pdfrwt>
<pdfrwt beam="2">0</pdfrwt>
<totfact> 0.78557525E-01</totfact>
</mgrwt>
</event>
<event>
 6    1  0.6737601E-003  0.6497068E+03  0.7818608E-02  0.9807330E-01
          1   -1    0    0  502    0  0.00000000000E+00  0.00000000000E+00  0.10553665057E+03  0.10553665057E+03  0.00000000000E+00 0.  1.
         13   -1    0    0    0    0 -0.00000000000E+00 -0.00000000000E+00 -0.10000000000E+04  0.10000000000E+04  0.00000000000E+00 0.  1.
    9000005    2    1    2  501    0  0.14234034155E-02  0.38755053944E-02 -0.89446959291E+03  0.11055291655E+04  0.64970676697E+03 0.  0.
         13    1    3    3    0    0 -0.12309246461E+03  0.18949346937E+03 -0.50104338473E+02  0.23145188379E+03  0.00000000000E+00 0.  1.
          3    1    3    3  501    0  0.12309388801E+03 -0.18948959386E+03 -0.84436525444E+03  0.87407728168E+03  0.00000000000E+00 0.  1.
         21    1    1    2  502  501 -0.14234034155E-02 -0.38755053944E-02  0.62434849196E-02  0.74851000853E-02  0.00000000000E+00 0. -1.
<mgrwt>
<rscale>  1 0.64970677E+03</rscale>
<asrwt>0</asrwt>
<pdfrwt beam="1">  1        1 0.38377045E+00 0.64970677E+03</pdfrwt>
<pdfrwt beam="2">0</pdfrwt>
<totfact> 0.15793291E+00</totfact>
</mgrwt>
</event>
<event>
 6    1  0.6737601E-003  0.6546375E+03  0.7818608E-02  0.9798116E-01
          1   -1    0    0  502    0  0.00000000000E+00  0.00000000000E+00  0.10714729140E+03  0.10714729140E+03  0.00000000000E+00 0.  1.
         13   -1    0    0    0    0 -0.00000000000E+00 -0.00000000000E+00 -0.10000000000E+04  0.10000000000E+04  0.00000000000E+00 0.  1.
    9000005    2    1    2  501    0 -0.24067562619E-02  0.25556182416E-02 -0.89286207823E+03  0.11071372857E+04  0.65463751701E+03 0.  0.
         13    1    3    3    0    0 -0.92182742729E+02  0.34614919889E+02 -0.97435853009E+03  0.97932139561E+03  0.00000000000E+00 0.  1.
          3    1    3    3  501    0  0.92180335972E+02 -0.34612364271E+02  0.81496451858E+02  0.12781589011E+03  0.00000000000E+00 0.  1.
         21    1    1    2  502  501  0.24067562619E-02 -0.25556182416E-02  0.93696298655E-02  0.10005679593E-01  0.00000000000E+00 0.  1.
<mgrwt>
<rscale>  1 0.65463752E+03</rscale>
<asrwt>0</asrwt>
<pdfrwt beam="1">  1        1 0.38962734E+00 0.65463752E+03</pdfrwt>
<pdfrwt beam="2">0</pdfrwt>
<totfact> 0.14864400E+00</totfact>
</mgrwt>
</event>
<event>
 6    1  0.6737601E-003  0.6433144E+03  0.7818608E-02  0.9819406E-01
          1   -1    0    0  502    0  0.00000000000E+00  0.00000000000E+00  0.10563943250E+03  0.10563943250E+03  0.00000000000E+00 0.  1.
         13   -1    0    0    0    0 -0.00000000000E+00 -0.00000000000E+00 -0.10000000000E+04  0.10000000000E+04  0.00000000000E+00 0.  1.
    9000005    2    1    2  501    0  0.17912725006E+00 -0.21771806958E-01 -0.89653250637E+03  0.11034600108E+04  0.64331440824E+03 0.  0.
         13    1    3    3    0    0  0.24224727703E+03 -0.17085655290E+03 -0.66284439871E+03  0.72611183836E+03  0.00000000000E+00 0.  1.
          3    1    3    3  501    0 -0.24206814978E+03  0.17083478110E+03 -0.23368810765E+03  0.37734817242E+03  0.00000000000E+00 0.  1.
         21    1    1    2  502  501 -0.17912725006E+00  0.21771806958E-01  0.21719388663E+01  0.21794217174E+01  0.00000000000E+00 0.  1.
<mgrwt>
<rscale>  1 0.64331443E+03</rscale>
<asrwt>0</asrwt>
<pdfrwt beam="1">  1        1 0.38414420E+00 0.64331443E+03</pdfrwt>
<pdfrwt beam="2">0</pdfrwt>
<totfact> 0.15751965E+00</totfact>
</mgrwt>
</event>
<event>
 6    1  0.6737601E-003  0.6445892E+03  0.7818608E-02  0.9816985E-01
          1   -1    0    0  502    0  0.00000000000E+00  0.00000000000E+00  0.10387391270E+03  0.10387391270E+03  0.00000000000E+00 0.  1.
         13   -1    0    0    0    0 -0.00000000000E+00 -0.00000000000E+00 -0.10000000000E+04  0.10000000000E+04  0.00000000000E+00 0.  1.
    9000005    2    1    2  501    0  0.99110008769E-05  0.31628469230E-05 -0.89612618911E+03  0.11038738104E+04  0.64458920437E+03 0.  0.
         13    1    3    3    0    0  0.26963541848E+02 -0.19739140177E+03 -0.14204900991E+02  0.19973026134E+03  0.00000000000E+00 0.  1.
          1    1    3    3  501    0 -0.26963531937E+02  0.19739140493E+03 -0.88192128812E+03  0.90414354902E+03  0.00000000000E+00 0.  1.
         21    1    1    2  502  501 -0.99110008747E-05 -0.31628469217E-05  0.10181495746E-03  0.10234508831E-03  0.00000000000E+00 0. -1.
<mgrwt>
<rscale>  1 0.64458920E+03</rscale>
<asrwt>0</asrwt>
<pdfrwt beam="1">  1        1 0.37772412E+00 0.64458920E+03</pdfrwt>
<pdfrwt beam="2">0</pdfrwt>
<totfact> 0.16810059E+00</totfact>
</mgrwt>
</event>
<event>
 6    1  0.6737601E-003  0.6504302E+03  0.7818608E-02  0.9805972E-01
          1   -1    0    0  502    0  0.00000000000E+00  0.00000000000E+00  0.10576488478E+03  0.10576488478E+03  0.00000000000E+00 0.  1.
         13   -1    0    0    0    0 -0.00000000000E+00 -0.00000000000E+00 -0.10000000000E+04  0.10000000000E+04  0.00000000000E+00 0.  1.
    9000005    2    1    2  501    0 -0.46716517090E-05 -0.75876239691E-05 -0.89423512875E+03  0.11057648686E+04  0.65043022616E+03 0.  0.
         13    1    3    3    0    0  0.20169211289E+03  0.21404973208E+03 -0.68309959161E+03  0.74372175460E+03  0.00000000000E+00 0.  1.
          3    1    3    3  501    0 -0.20169211757E+03 -0.21404973967E+03 -0.21113553714E+03  0.36204311398E+03  0.00000000000E+00 0.  1.
         21    1    1    2  502  501  0.46716516958E-05  0.75876239582E-05  0.13523293047E-04  0.16194931977E-04  0.00000000000E+00 0. -1.
<mgrwt>
<rscale>  1 0.65043023E+03</rscale>
<asrwt>0</asrwt>
<pdfrwt beam="1">  1        1 0.38460039E+00 0.65043023E+03</pdfrwt>
<pdfrwt beam="2">0</pdfrwt>
<totfact> 0.15658319E+00</totfact>
</mgrwt>
</event>
<event>
 6    1  0.6737601E-003  0.6664203E+03  0.7818608E-02  0.9776446E-01
          1   -1    0    0  502    0  0.00000000000E+00  0.00000000000E+00  0.11943493820E+03  0.11943493820E+03  0.00000000000E+00 0.  1.
         13   -1    0    0    0    0 -0.00000000000E+00 -0.00000000000E+00 -0.10000000000E+04  0.10000000000E+04  0.00000000000E+00 0.  1.
    9000005    2    1    2  501    0 -0.22842329135E+01 -0.78837974663E+00 -0.88877759281E+03  0.11108742765E+04  0.66641594332E+03 0.  0.
         13    1    3    3    0    0 -0.23234396765E+02 -0.33277226275E+03 -0.45840368261E+03  0.56693134706E+03  0.00000000000E+00 0.  1.
          1    1    3    3  501    0  0.20950163852E+02  0.33198388301E+03 -0.43037391020E+03  0.54394292947E+03  0.00000000000E+00 0.  1.
         21    1    1    2  502  501  0.22842329135E+01  0.78837974663E+00  0.82125310066E+01  0.85606616662E+01  0.00000000000E+00 0. -1.
<mgrwt>
<rscale>  1 0.66642032E+03</rscale>
<asrwt>0</asrwt>
<pdfrwt beam="1">  1        1 0.43430978E+00 0.66642032E+03</pdfrwt>
<pdfrwt beam="2">0</pdfrwt>
<totfact> 0.93430069E-01</totfact>
</mgrwt>
</event>
<event>
 6    1  0.6737601E-003  0.6597933E+03  0.7818608E-02  0.9788574E-01
          1   -1    0    0  502    0  0.00000000000E+00  0.00000000000E+00  0.10891458352E+03  0.10891458352E+03  0.00000000000E+00 0.  1.
         13   -1    0    0    0    0 -0.00000000000E+00 -0.00000000000E+00 -0.10000000000E+04  0.10000000000E+04  0.00000000000E+00 0.  1.
    9000005    2    1    2  501    0  0.29419644233E-02 -0.41404063942E-02 -0.89116809910E+03  0.11088317450E+04  0.65979334488E+03 0.  0.
         13    1    3    3    0    0  0.24512733798E+03  0.15227867328E+03 -0.71424336402E+03  0.77033745152E+03  0.00000000000E+00 0.  1.
          3    1    3    3  501    0 -0.24512439602E+03 -0.15228281369E+03 -0.17692473508E+03  0.33849429353E+03  0.00000000000E+00 0.  1.
         21    1    1    2  502  501 -0.29419644233E-02  0.41404063942E-02  0.82682612204E-01  0.82838472226E-01  0.00000000000E+00 0.  1.
<mgrwt>
<rscale>  1 0.65979334E+03</rscale>
<asrwt>0</asrwt>
<pdfrwt beam="1">  1        1 0.39605387E+00 0.65979334E+03</pdfrwt>
<pdfrwt beam="2">0</pdfrwt>
<totfact> 0.13905517E+00</totfact>
</mgrwt>
</event>
<event>
 6    1  0.6737601E-003  0.6506886E+03  0.7818608E-02  0.9805488E-01
          1   -1    0    0  502    0  0.00000000000E+00  0.00000000000E+00  0.10586083665E+03  0.10586083665E+03  0.00000000000E+00 0.  1.
         13   -1    0    0    0    0 -0.00000000000E+00 -0.00000000000E+00 -0.10000000000E+04  0.10000000000E+04  0.00000000000E+00 0.  1.
    9000005    2    1    2  501    0  0.25851587259E-03 -0.31370950435E-03 -0.89415107136E+03  0.11058489217E+04  0.65068863461E+03 0.  0.
         13    1    3    3    0    0 -0.15711118782E+03  0.21508682870E+03 -0.76458072574E+03  0.80964804415E+03  0.00000000000E+00 0.  1.
          1    1    3    3  501    0  0.15711144633E+03 -0.21508714241E+03 -0.12957034562E+03  0.29620087755E+03  0.00000000000E+00 0.  1.
         21    1    1    2  502  501 -0.25851587258E-03  0.31370950434E-03  0.11908011471E-01  0.11914947810E-01  0.00000000000E+00 0. -1.
<mgrwt>
<rscale>  1 0.65068863E+03</rscale>
<asrwt>0</asrwt>
<pdfrwt beam="1">  1        1 0.38494931E+00 0.65068863E+03</pdfrwt>
<pdfrwt beam="2">0</pdfrwt>
<totfact> 0.15602035E+00</totfact>
</mgrwt>
</event>
<event>
 6    1  0.6737601E-003  0.6477995E+03  0.7818608E-02  0.9810917E-01
          3   -1    0    0  502    0  0.00000000000E+00  0.00000000000E+00  0.10491170214E+03  0.10491170214E+03  0.00000000000E+00 0.  1.
         13   -1    0    0    0    0 -0.00000000000E+00 -0.00000000000E+00 -0.10000000000E+04  0.10000000000E+04  0.00000000000E+00 0.  1.
    9000005    2    1    2  501    0 -0.73366287324E-04  0.14328132892E-04 -0.89508896150E+03  0.11049110343E+04  0.64779946335E+03 0.  0.
         13    1    3    3    0    0  0.11121885410E+03  0.20142893387E+03 -0.58719794635E+02  0.23746844673E+03  0.00000000000E+00 0.  1.
          1    1    3    3  501    0 -0.11121892746E+03 -0.20142891955E+03 -0.83636916687E+03  0.86744258758E+03  0.00000000000E+00 0.  1.
         21    1    1    2  502  501  0.73366287319E-04 -0.14328132877E-04  0.66364517187E-03  0.66784191367E-03  0.00000000000E+00 0.  1.
<mgrwt>
<rscale>  1 0.64779946E+03</rscale>
<asrwt>0</asrwt>
<pdfrwt beam="1">  1        3 0.38149790E+00 0.64779946E+03</pdfrwt>
<pdfrwt beam="2">0</pdfrwt>
<totfact> 0.74143868E-02</totfact>
</mgrwt>
</event>
<event>
 6    1  0.6737601E-003  0.6520546E+03  0.7818608E-02  0.9802932E-01
          1   -1    0    0  502    0  0.00000000000E+00  0.00000000000E+00  0.10752218879E+03  0.10752218879E+03  0.00000000000E+00 0.  1.
         13   -1    0    0    0    0 -0.00000000000E+00 -0.00000000000E+00 -0.10000000000E+04  0.10000000000E+04  0.00000000000E+00 0.  1.
    9000005    2    1    2  501    0  0.13325827881E-01 -0.66594102897E-01 -0.89370517640E+03  0.11062929461E+04  0.65205454956E+03 0.  0.
         13    1    3    3    0    0  0.67573932506E+02 -0.28029726259E+03 -0.70520783945E+03  0.76187327595E+03  0.00000000000E+00 0.  1.
          3    1    3    3  501    0 -0.67560606679E+02  0.28023066849E+03 -0.18849733694E+03  0.34441967013E+03  0.00000000000E+00 0.  1.
         21    1    1    2  502  501 -0.13325827881E-01  0.66594102897E-01  0.12273651880E+01  0.12292427168E+01  0.00000000000E+00 0. -1.
<mgrwt>
<rscale>  1 0.65205455E+03</rscale>
<asrwt>0</asrwt>
<pdfrwt beam="1">  1        1 0.39099060E+00 0.65205455E+03</pdfrwt>
<pdfrwt beam="2">0</pdfrwt>
<totfact> 0.14665926E+00</totfact>
</mgrwt>
</event>
<event>
 6    1  0.6737601E-003  0.6159634E+03  0.7818608E-02  0.9872830E-01
          3   -1    0    0  502    0  0.00000000000E+00  0.00000000000E+00  0.94852784032E+02  0.94852784032E+02  0.00000000000E+00 0.  1.
         13   -1    0    0    0    0 -0.00000000000E+00 -0.00000000000E+00 -0.10000000000E+04  0.10000000000E+04  0.00000000000E+00 0.  1.
    9000005    2    1    2  501    0 -0.51690241634E-05 -0.10879912452E-04 -0.90514727074E+03  0.10948527280E+04  0.61596340328E+03 0.  0.
         13    1    3    3    0    0  0.91427159542E+02 -0.29007595440E+03 -0.53873475306E+03  0.61865832167E+03  0.00000000000E+00 0.  1.
          3    1    3    3  501    0 -0.91427164711E+02  0.29007594352E+03 -0.36641251768E+03  0.47619440628E+03  0.00000000000E+00 0.  1.
         21    1    1    2  502  501  0.51690241539E-05  0.10879912478E-04  0.54769631506E-04  0.56078550637E-04  0.00000000000E+00 0. -1.
<mgrwt>
<rscale>  1 0.61596340E+03</rscale>
<asrwt>0</asrwt>
<pdfrwt beam="1">  1        3 0.34491994E+00 0.61596340E+03</pdfrwt>
<pdfrwt beam="2">0</pdfrwt>
<totfact> 0.11652968E-01</totfact>
</mgrwt>
</event>
<event>
 6    1  0.6737601E-003  0.6512046E+03  0.7818608E-02  0.9804521E-01
          1   -1    0    0  502    0  0.00000000000E+00  0.00000000000E+00  0.12373574902E+03  0.12373574902E+03  0.00000000000E+00 0.  1.
         13   -1    0    0    0    0 -0.00000000000E+00 -0.00000000000E+00 -0.10000000000E+04  0.10000000000E+04  0.00000000000E+00 0.  1.
    9000005    2    1    2  501    0  0.17062539970E+00  0.56626474243E+00 -0.89397766767E+03  0.11060124621E+04  0.65120438132E+03 0.  0.
         13    1    3    3    0    0  0.13859136337E+03 -0.29438199704E+03 -0.44275099195E+03  0.54945133274E+03  0.00000000000E+00 0.  1.
          3    1    3    3  501    0 -0.13842073797E+03  0.29494826178E+03 -0.45122667572E+03  0.55656112935E+03  0.00000000000E+00 0.  1.
         21    1    1    2  502  501 -0.17062539970E+00 -0.56626474243E+00  0.17713416684E+02  0.17723286924E+02  0.00000000000E+00 0. -1.
<mgrwt>
<rscale>  1 0.65120465E+03</rscale>
<asrwt>0</asrwt>
<pdfrwt beam="1">  1        1 0.44994913E+00 0.65120465E+03</pdfrwt>
<pdfrwt beam="2">0</pdfrwt>
<totfact> 0.79470714E-01</totfact>
</mgrwt>
</event>
<event>
 6    1  0.6737601E-003  0.6533387E+03  0.7818608E-02  0.9800534E-01
          1   -1    0    0  502    0  0.00000000000E+00  0.00000000000E+00  0.10671295558E+03  0.10671295558E+03  0.00000000000E+00 0.  1.
         13   -1    0    0    0    0 -0.00000000000E+00 -0.00000000000E+00 -0.10000000000E+04  0.10000000000E+04  0.00000000000E+00 0.  1.
    9000005    2    1    2  501    0 -0.15782871685E-05  0.95994460025E-05 -0.89328713339E+03  0.11067128661E+04  0.65333870638E+03 0.  0.
         13    1    3    3    0    0  0.20756463202E+03  0.21459256559E+03 -0.67124049840E+03  0.73464062804E+03  0.00000000000E+00 0.  1.
          3    1    3    3  501    0 -0.20756463360E+03 -0.21459255599E+03 -0.22204663499E+03  0.37207223804E+03  0.00000000000E+00 0.  1.
         21    1    1    2  502  501  0.15782871917E-05 -0.95994460142E-05  0.88966912464E-04  0.89497217094E-04  0.00000000000E+00 0.  1.
<mgrwt>
<rscale>  1 0.65333871E+03</rscale>
<asrwt>0</asrwt>
<pdfrwt beam="1">  1        1 0.38804793E+00 0.65333871E+03</pdfrwt>
<pdfrwt beam="2">0</pdfrwt>
<totfact> 0.15109563E+00</totfact>
</mgrwt>
</event>
<event>
 6    1  0.6737601E-003  0.6926435E+03  0.7818608E-02  0.9729896E-01
          1   -1    0    0  502    0  0.00000000000E+00  0.00000000000E+00  0.12060347337E+03  0.12060347337E+03  0.00000000000E+00 0.  1.
         13   -1    0    0    0    0 -0.00000000000E+00 -0.00000000000E+00 -0.10000000000E+04  0.10000000000E+04  0.00000000000E+00 0.  1.
    9000005    2    1    2  501    0 -0.86873274006E-01  0.19346185735E-02 -0.88005805189E+03  0.11199362655E+04  0.69264352770E+03 0.  0.
         13    1    3    3    0    0 -0.51853160317E+02 -0.27876977850E+03 -0.11851519294E+03  0.30732261647E+03  0.00000000000E+00 0.  1.
          1    1    3    3  501    0  0.51766287043E+02  0.27877171312E+03 -0.76154285896E+03  0.81261364900E+03  0.00000000000E+00 0.  1.
         21    1    1    2  502  501  0.86873274006E-01 -0.19346185735E-02  0.66152526134E+00  0.66720789854E+00  0.00000000000E+00 0.  1.
<mgrwt>
<rscale>  1 0.69264353E+03</rscale>
<asrwt>0</asrwt>
<pdfrwt beam="1">  1        1 0.43855901E+00 0.69264353E+03</pdfrwt>
<pdfrwt beam="2">0</pdfrwt>
<totfact> 0.88891437E-01</totfact>
</mgrwt>
</event>
<event>
 6    1  0.6737601E-003  0.6370797E+03  0.7818608E-02  0.9831330E-01
          1   -1    0    0  502    0  0.00000000000E+00  0.00000000000E+00  0.10147229039E+03  0.10147229039E+03  0.00000000000E+00 0.  1.
         13   -1    0    0    0    0 -0.00000000000E+00 -0.00000000000E+00 -0.10000000000E+04  0.10000000000E+04  0.00000000000E+00 0.  1.
    9000005    2    1    2  501    0 -0.65986523742E-03  0.52133498841E-03 -0.89853233022E+03  0.11014675939E+04  0.63707967470E+03 0.  0.
         13    1    3    3    0    0  0.23127669061E+02 -0.20715510575E+03 -0.32814317804E+02  0.21100925659E+03  0.00000000000E+00 0.  1.
          3    1    3    3  501    0 -0.23128328926E+02  0.20715562708E+03 -0.86571801241E+03  0.89045833729E+03  0.00000000000E+00 0.  1.
         21    1    1    2  502  501  0.65986523742E-03 -0.52133498841E-03  0.46206040179E-02  0.46965086811E-02  0.00000000000E+00 0. -1.
<mgrwt>
<rscale>  1 0.63707967E+03</rscale>
<asrwt>0</asrwt>
<pdfrwt beam="1">  1        1 0.36899092E+00 0.63707967E+03</pdfrwt>
<pdfrwt beam="2">0</pdfrwt>
<totfact> 0.18389857E+00</totfact>
</mgrwt>
</event>
<event>
 6    1  0.6737601E-003  0.6570131E+03  0.7818608E-02  0.9793708E-01
          1   -1    0    0  502    0  0.00000000000E+00  0.00000000000E+00  0.10791659043E+03  0.10791659043E+03  0.00000000000E+00 0.  1.
         13   -1    0    0    0    0 -0.00000000000E+00 -0.00000000000E+00 -0.10000000000E+04  0.10000000000E+04  0.00000000000E+00 0.  1.
    9000005    2    1    2  501    0  0.14845304293E-05 -0.36371444025E-05 -0.89208343466E+03  0.11079165650E+04  0.65701313585E+03 0.  0.
         13    1    3    3    0    0  0.16765550946E+03  0.26974297004E+03 -0.30448423715E+03  0.43997760217E+03  0.00000000000E+00 0.  1.
          1    1    3    3  501    0 -0.16765550798E+03 -0.26974297367E+03 -0.58759919751E+03  0.66793896287E+03  0.00000000000E+00 0.  1.
         21    1    1    2  502  501 -0.14845304070E-05  0.36371444360E-05  0.25086571636E-04  0.25392296600E-04  0.00000000000E+00 0.  1.
<mgrwt>
<rscale>  1 0.65701314E+03</rscale>
<asrwt>0</asrwt>
<pdfrwt beam="1">  1        1 0.39242479E+00 0.65701314E+03</pdfrwt>
<pdfrwt beam="2">0</pdfrwt>
<totfact> 0.14439194E+00</totfact>
</mgrwt>
</event>
<event>
 6    1  0.6737601E-003  0.6449121E+03  0.7818608E-02  0.9816373E-01
          1   -1    0    0  502    0  0.00000000000E+00  0.00000000000E+00  0.10397791351E+03  0.10397791351E+03  0.00000000000E+00 0.  1.
         13   -1    0    0    0    0 -0.00000000000E+00 -0.00000000000E+00 -0.10000000000E+04  0.10000000000E+04  0.00000000000E+00 0.  1.
    9000005    2    1    2  501    0 -0.64062923855E-05 -0.63741010479E-05 -0.89602208500E+03  0.11039779043E+04  0.64491211532E+03 0.  0.
         13    1    3    3    0    0  0.18075021103E+03 -0.15218365943E+03 -0.82362894469E+03  0.85685187957E+03  0.00000000000E+00 0.  1.
          1    1    3    3  501    0 -0.18075021744E+03  0.15218365305E+03 -0.72393140303E+02  0.24712602478E+03  0.00000000000E+00 0.  1.
         21    1    1    2  502  501  0.64062923888E-05  0.63741010624E-05 -0.14978148868E-05  0.91604146172E-05  0.00000000000E+00 0.  1.
<mgrwt>
<rscale>  1 0.64491212E+03</rscale>
<asrwt>0</asrwt>
<pdfrwt beam="1">  1        1 0.37810230E+00 0.64491212E+03</pdfrwt>
<pdfrwt beam="2">0</pdfrwt>
<totfact> 0.16744669E+00</totfact>
</mgrwt>
</event>
<event>
 6    1  0.6737601E-003  0.6452859E+03  0.7818608E-02  0.9815665E-01
          1   -1    0    0  502    0  0.00000000000E+00  0.00000000000E+00  0.10409851028E+03  0.10409851028E+03  0.00000000000E+00 0.  1.
         13   -1    0    0    0    0 -0.00000000000E+00 -0.00000000000E+00 -0.10000000000E+04  0.10000000000E+04  0.00000000000E+00 0.  1.
    9000005    2    1    2  501    0 -0.51862996315E-04 -0.10825291776E-03 -0.89590117617E+03  0.11040981745E+04  0.64528587585E+03 0.  0.
         13    1    3    3    0    0  0.19448405313E+03 -0.24586597857E+03 -0.31736977909E+03  0.44609158591E+03  0.00000000000E+00 0.  1.
          3    1    3    3  501    0 -0.19448410500E+03  0.24586587031E+03 -0.57853139708E+03  0.65800658864E+03  0.00000000000E+00 0.  1.
         21    1    1    2  502  501  0.51862996325E-04  0.10825291775E-03 -0.31354445475E-03  0.33573589277E-03  0.00000000000E+00 0.  1.
<mgrwt>
<rscale>  1 0.64528588E+03</rscale>
<asrwt>0</asrwt>
<pdfrwt beam="1">  1        1 0.37854084E+00 0.64528588E+03</pdfrwt>
<pdfrwt beam="2">0</pdfrwt>
<totfact> 0.16669148E+00</totfact>
</mgrwt>
</event>
<event>
 6    1  0.6737601E-003  0.6534611E+03  0.7818608E-02  0.9800306E-01
          1   -1    0    0  502    0  0.00000000000E+00  0.00000000000E+00  0.11160649769E+03  0.11160649769E+03  0.00000000000E+00 0.  1.
         13   -1    0    0    0    0 -0.00000000000E+00 -0.00000000000E+00 -0.10000000000E+04  0.10000000000E+04  0.00000000000E+00 0.  1.
    9000005    2    1    2  501    0  0.15293878204E+00 -0.77401279463E+00 -0.89321165290E+03  0.11067241764E+04  0.65346057515E+03 0.  0.
         13    1    3    3    0    0 -0.10340818231E+03 -0.29138386856E+03 -0.26649466724E+03  0.40818772482E+03  0.00000000000E+00 0.  1.
          1    1    3    3  501    0  0.10356112109E+03  0.29060985577E+03 -0.62671698566E+03  0.69853645158E+03  0.00000000000E+00 0.  1.
         21    1    1    2  502  501 -0.15293878204E+00  0.77401279463E+00  0.48181505824E+01  0.48823212832E+01  0.00000000000E+00 0. -1.
<mgrwt>
<rscale>  1 0.65346105E+03</rscale>
<asrwt>0</asrwt>
<pdfrwt beam="1">  1        1 0.40584267E+00 0.65346105E+03</pdfrwt>
<pdfrwt beam="2">0</pdfrwt>
<totfact> 0.12590468E+00</totfact>
</mgrwt>
</event>
<event>
 6    1  0.6737601E-003  0.6391285E+03  0.7818608E-02  0.9827395E-01
          1   -1    0    0  502    0  0.00000000000E+00  0.00000000000E+00  0.10212139309E+03  0.10212139309E+03  0.00000000000E+00 0.  1.
         13   -1    0    0    0    0 -0.00000000000E+00 -0.00000000000E+00 -0.10000000000E+04  0.10000000000E+04  0.00000000000E+00 0.  1.
    9000005    2    1    2  501    0 -0.10292692849E-05 -0.14440647529E-04 -0.89787867601E+03  0.11021213225E+04  0.63912854158E+03 0.  0.
         13    1    3    3    0    0  0.10316446131E+03 -0.10716125293E+01 -0.97049154397E+03  0.97595998450E+03  0.00000000000E+00 0.  1.
          3    1    3    3  501    0 -0.10316446234E+03  0.10715980886E+01  0.72612867957E+02  0.12616133800E+03  0.00000000000E+00 0.  1.
         21    1    1    2  502  501  0.10292692804E-05  0.14440647529E-04  0.69093005739E-04  0.70593449684E-04  0.00000000000E+00 0. -1.
<mgrwt>
<rscale>  1 0.63912854E+03</rscale>
<asrwt>0</asrwt>
<pdfrwt beam="1">  1        1 0.37135130E+00 0.63912854E+03</pdfrwt>
<pdfrwt beam="2">0</pdfrwt>
<totfact> 0.17949363E+00</totfact>
</mgrwt>
</event>
<event>
 6    1  0.6737601E-003  0.6515675E+03  0.7818608E-02  0.9803842E-01
          1   -1    0    0  502    0  0.00000000000E+00  0.00000000000E+00  0.13124024256E+03  0.13124024256E+03  0.00000000000E+00 0.  1.
         13   -1    0    0    0    0 -0.00000000000E+00 -0.00000000000E+00 -0.10000000000E+04  0.10000000000E+04  0.00000000000E+00 0.  1.
    9000005    2    1    2  501    0  0.22322515715E+00 -0.42688436604E+01 -0.89366352083E+03  0.11059722730E+04  0.65155345696E+03 0.  0.
         13    1    3    3    0    0  0.99013642949E+01  0.20613415002E+03 -0.20069067609E+02  0.20734534548E+03  0.00000000000E+00 0.  1.
          1    1    3    3  501    0 -0.96781391377E+01 -0.21040299368E+03 -0.87359445322E+03  0.89862692750E+03  0.00000000000E+00 0.  1.
         21    1    1    2  502  501 -0.22322515715E+00  0.42688436604E+01  0.24903763387E+02  0.25267969577E+02  0.00000000000E+00 0.  1.
<mgrwt>
<rscale>  1 0.65156748E+03</rscale>
<asrwt>0</asrwt>
<pdfrwt beam="1">  1        1 0.47723825E+00 0.65156748E+03</pdfrwt>
<pdfrwt beam="2">0</pdfrwt>
<totfact> 0.59310474E-01</totfact>
</mgrwt>
</event>
<event>
 6    1  0.6737601E-003  0.6534752E+03  0.7818608E-02  0.9800280E-01
          1   -1    0    0  502    0  0.00000000000E+00  0.00000000000E+00  0.12536780162E+03  0.12536780162E+03  0.00000000000E+00 0.  1.
         13   -1    0    0    0    0 -0.00000000000E+00 -0.00000000000E+00 -0.10000000000E+04  0.10000000000E+04  0.00000000000E+00 0.  1.
    9000005    2    1    2  501    0  0.76326162024E+01 -0.19438588130E+01 -0.89231569043E+03  0.11060095654E+04  0.65342775579E+03 0.  0.
         13    1    3    3    0    0  0.29982613558E+01  0.28432856476E+03 -0.17553389070E+03  0.33416144167E+03  0.00000000000E+00 0.  1.
          3    1    3    3  501    0  0.46343548466E+01 -0.28627242358E+03 -0.71678179973E+03  0.77184812377E+03  0.00000000000E+00 0.  1.
         21    1    1    2  502  501 -0.76326162024E+01  0.19438588130E+01  0.17683492043E+02  0.19358236180E+02  0.00000000000E+00 0. -1.
<mgrwt>
<rscale>  1 0.65347522E+03</rscale>
<asrwt>0</asrwt>
<pdfrwt beam="1">  1        1 0.45588388E+00 0.65347522E+03</pdfrwt>
<pdfrwt beam="2">0</pdfrwt>
<totfact> 0.74577540E-01</totfact>
</mgrwt>
</event>
<event>
 6    1  0.6737601E-003  0.6393826E+03  0.7818608E-02  0.9826909E-01
          1   -1    0    0  502    0  0.00000000000E+00  0.00000000000E+00  0.10753115710E+03  0.10753115710E+03  0.00000000000E+00 0.  1.
         13   -1    0    0    0    0 -0.00000000000E+00 -0.00000000000E+00 -0.10000000000E+04  0.10000000000E+04  0.00000000000E+00 0.  1.
    9000005    2    1    2  501    0  0.32665707535E+00 -0.53646044503E+00 -0.89777707825E+03  0.11021858922E+04  0.63938225201E+03 0.  0.
         13    1    3    3    0    0  0.10060324811E+03  0.19491458894E+03 -0.48082640885E+02  0.22455433833E+03  0.00000000000E+00 0.  1.
          1    1    3    3  501    0 -0.10027659103E+03 -0.19545104938E+03 -0.84969443736E+03  0.87763155384E+03  0.00000000000E+00 0.  1.
         21    1    1    2  502  501 -0.32665707535E+00  0.53646044503E+00  0.53082353431E+01  0.53452649244E+01  0.00000000000E+00 0.  1.
<mgrwt>
<rscale>  1 0.63938256E+03</rscale>
<asrwt>0</asrwt>
<pdfrwt beam="1">  1        1 0.39102321E+00 0.63938256E+03</pdfrwt>
<pdfrwt beam="2">0</pdfrwt>
<totfact> 0.14696025E+00</totfact>
</mgrwt>
</event>
<event>
 6    1  0.6737601E-003  0.6525091E+03  0.7818608E-02  0.9802082E-01
          1   -1    0    0  502    0  0.00000000000E+00  0.00000000000E+00  0.10644558822E+03  0.10644558822E+03  0.00000000000E+00 0.  1.
         13   -1    0    0    0    0 -0.00000000000E+00 -0.00000000000E+00 -0.10000000000E+04  0.10000000000E+04  0.00000000000E+00 0.  1.
    9000005    2    1    2  501    0 -0.31108756065E-03 -0.27558982526E-03 -0.89355794376E+03  0.11064420319E+04  0.65250913482E+03 0.  0.
         13    1    3    3    0    0 -0.13123652693E+03 -0.27949130442E+03 -0.62545957820E+03  0.69752283060E+03  0.00000000000E+00 0.  1.
          1    1    3    3  501    0  0.13123621584E+03  0.27949102883E+03 -0.26809836556E+03  0.40891920126E+03  0.00000000000E+00 0.  1.
         21    1    1    2  502  501  0.31108756065E-03  0.27558982525E-03  0.35319857070E-02  0.35563532244E-02  0.00000000000E+00 0.  1.
<mgrwt>
<rscale>  1 0.65250913E+03</rscale>
<asrwt>0</asrwt>
<pdfrwt beam="1">  1        1 0.38707568E+00 0.65250913E+03</pdfrwt>
<pdfrwt beam="2">0</pdfrwt>
<totfact> 0.15262467E+00</totfact>
</mgrwt>
</event>
<event>
 6    1  0.6737601E-003  0.6291845E+03  0.7818608E-02  0.9846641E-01
          1   -1    0    0  502    0  0.00000000000E+00  0.00000000000E+00  0.10152000471E+03  0.10152000471E+03  0.00000000000E+00 0.  1.
         13   -1    0    0    0    0 -0.00000000000E+00 -0.00000000000E+00 -0.10000000000E+04  0.10000000000E+04  0.00000000000E+00 0.  1.
    9000005    2    1    2  501    0  0.55768295109E+00 -0.65388372449E+00 -0.90095197174E+03  0.10989028991E+04  0.62918390611E+03 0.  0.
         13    1    3    3    0    0  0.25613149790E+02 -0.23137687991E+03 -0.80590281019E+02  0.24634546351E+03  0.00000000000E+00 0.  1.
          1    1    3    3  501    0 -0.25055466839E+02  0.23072299619E+03 -0.82036169072E+03  0.85255743559E+03  0.00000000000E+00 0.  1.
         21    1    1    2  502  501 -0.55768295109E+00  0.65388372449E+00  0.24719764424E+01  0.26171056017E+01  0.00000000000E+00 0.  1.
<mgrwt>
<rscale>  1 0.62918449E+03</rscale>
<asrwt>0</asrwt>
<pdfrwt beam="1">  1        1 0.36916443E+00 0.62918449E+03</pdfrwt>
<pdfrwt beam="2">0</pdfrwt>
<totfact> 0.18384177E+00</totfact>
</mgrwt>
</event>
<event>
 6    1  0.6737601E-003  0.6336536E+03  0.7818608E-02  0.9837945E-01
          1   -1    0    0  502    0  0.00000000000E+00  0.00000000000E+00  0.10465624691E+03  0.10465624691E+03  0.00000000000E+00 0.  1.
         13   -1    0    0    0    0 -0.00000000000E+00 -0.00000000000E+00 -0.10000000000E+04  0.10000000000E+04  0.00000000000E+00 0.  1.
    9000005    2    1    2  501    0 -0.13312187049E+00 -0.51930885889E-01 -0.89961947429E+03  0.11003781387E+04  0.63365355609E+03 0.  0.
         13    1    3    3    0    0 -0.14276605779E+03  0.71475429184E+01 -0.94091643789E+03  0.95171265502E+03  0.00000000000E+00 0.  1.
          3    1    3    3  501    0  0.14263293591E+03 -0.71994738043E+01  0.41296963599E+02  0.14866548366E+03  0.00000000000E+00 0.  1.
         21    1    1    2  502  501  0.13312187049E+00  0.51930885889E-01  0.42757211998E+01  0.42781082300E+01  0.00000000000E+00 0.  1.
<mgrwt>
<rscale>  1 0.63365357E+03</rscale>
<asrwt>0</asrwt>
<pdfrwt beam="1">  1        1 0.38056897E+00 0.63365357E+03</pdfrwt>
<pdfrwt beam="2">0</pdfrwt>
<totfact> 0.16364598E+00</totfact>
</mgrwt>
</event>
<event>
 6    1  0.6737601E-003  0.6417137E+03  0.7818608E-02  0.9822453E-01
          1   -1    0    0  502    0  0.00000000000E+00  0.00000000000E+00  0.11214755785E+03  0.11214755785E+03  0.00000000000E+00 0.  1.
         13   -1    0    0    0    0 -0.00000000000E+00 -0.00000000000E+00 -0.10000000000E+04  0.10000000000E+04  0.00000000000E+00 0.  1.
    9000005    2    1    2  501    0 -0.18294108131E+00  0.11332082988E+00 -0.89704949713E+03  0.11029479856E+04  0.64171365292E+03 0.  0.
         13    1    3    3    0    0 -0.17201472631E+03  0.25877212247E+03 -0.58677712409E+03  0.66397249250E+03  0.00000000000E+00 0.  1.
          3    1    3    3  501    0  0.17183178523E+03 -0.25865880164E+03 -0.31027237304E+03  0.43897549311E+03  0.00000000000E+00 0.  1.
         21    1    1    2  502  501  0.18294108131E+00 -0.11332082988E+00  0.91970549831E+01  0.91995722407E+01  0.00000000000E+00 0. -1.
<mgrwt>
<rscale>  1 0.64171369E+03</rscale>
<asrwt>0</asrwt>
<pdfrwt beam="1">  1        1 0.40781016E+00 0.64171369E+03</pdfrwt>
<pdfrwt beam="2">0</pdfrwt>
<totfact> 0.12365921E+00</totfact>
</mgrwt>
</event>
<event>
 6    1  0.6737601E-003  0.6551705E+03  0.7818608E-02  0.9797125E-01
          1   -1    0    0  502    0  0.00000000000E+00  0.00000000000E+00  0.10731286152E+03  0.10731286152E+03  0.00000000000E+00 0.  1.
         13   -1    0    0    0    0 -0.00000000000E+00 -0.00000000000E+00 -0.10000000000E+04  0.10000000000E+04  0.00000000000E+00 0.  1.
    9000005    2    1    2  501    0 -0.19232211912E-04 -0.94127780697E-03 -0.89268755657E+03  0.11073118314E+04  0.65517052611E+03 0.  0.
         13    1    3    3    0    0 -0.33972542693E+02  0.10847319628E+03 -0.96559999731E+03  0.97226741320E+03  0.00000000000E+00 0.  1.
          1    1    3    3  501    0  0.33972523461E+02 -0.10847413755E+03  0.72912440743E+02  0.13504441819E+03  0.00000000000E+00 0.  1.
         21    1    1    2  502  501  0.19232211916E-04  0.94127780697E-03  0.41808148954E-03  0.10301290792E-02  0.00000000000E+00 0.  1.
<mgrwt>
<rscale>  1 0.65517053E+03</rscale>
<asrwt>0</asrwt>
<pdfrwt beam="1">  1        1 0.39022941E+00 0.65517053E+03</pdfrwt>
<pdfrwt beam="2">0</pdfrwt>
<totfact> 0.14771836E+00</totfact>
</mgrwt>
</event>
<event>
 6    1  0.6737601E-003  0.6473547E+03  0.7818608E-02  0.9811756E-01
          1   -1    0    0  502    0  0.00000000000E+00  0.00000000000E+00  0.10695511555E+03  0.10695511555E+03  0.00000000000E+00 0.  1.
         13   -1    0    0    0    0 -0.00000000000E+00 -0.00000000000E+00 -0.10000000000E+04  0.10000000000E+04  0.00000000000E+00 0.  1.
    9000005    2    1    2  501    0 -0.25137944229E+01 -0.27548754871E+00 -0.89439526368E+03  0.11040883090E+04  0.64734975964E+03 0.  0.
         13    1    3    3    0    0 -0.19936536910E+03  0.23345800319E+03 -0.62661030878E+03  0.69777479799E+03  0.00000000000E+00 0.  1.
          3    1    3    3  501    0  0.19685157467E+03 -0.23373349074E+03 -0.26778495490E+03  0.40631351099E+03  0.00000000000E+00 0.  1.
         21    1    1    2  502  501  0.25137944229E+01  0.27548754871E+00  0.13503792213E+01  0.28668065564E+01  0.00000000000E+00 0. -1.
<mgrwt>
<rscale>  1 0.64735470E+03</rscale>
<asrwt>0</asrwt>
<pdfrwt beam="1">  1        1 0.38892851E+00 0.64735470E+03</pdfrwt>
<pdfrwt beam="2">0</pdfrwt>
<totfact> 0.14991102E+00</totfact>
</mgrwt>
</event>
<event>
 6    1  0.6737601E-003  0.6170125E+03  0.7818608E-02  0.9870726E-01
          1   -1    0    0  502    0  0.00000000000E+00  0.00000000000E+00  0.95180649002E+02  0.95180649002E+02  0.00000000000E+00 0.  1.
         13   -1    0    0    0    0 -0.00000000000E+00 -0.00000000000E+00 -0.10000000000E+04  0.10000000000E+04  0.00000000000E+00 0.  1.
    9000005    2    1    2  501    0  0.25724932900E-03  0.36165992299E-04 -0.90482389546E+03  0.10951760971E+04  0.61701248116E+03 0.  0.
         13    1    3    3    0    0 -0.16463777201E+03  0.26089778770E+03 -0.44943332923E+03  0.54512711271E+03  0.00000000000E+00 0.  1.
          1    1    3    3  501    0  0.16463802926E+03 -0.26089775153E+03 -0.45539056623E+03  0.55004898441E+03  0.00000000000E+00 0.  1.
         21    1    1    2  502  501 -0.25724932899E-03 -0.36165992309E-04  0.45444618240E-02  0.45518807614E-02  0.00000000000E+00 0.  1.
<mgrwt>
<rscale>  1 0.61701248E+03</rscale>
<asrwt>0</asrwt>
<pdfrwt beam="1">  1        1 0.34611218E+00 0.61701248E+03</pdfrwt>
<pdfrwt beam="2">0</pdfrwt>
<totfact> 0.23233965E+00</totfact>
</mgrwt>
</event>
<event>
 6    1  0.6737601E-003  0.6411745E+03  0.7818608E-02  0.9823482E-01
          1   -1    0    0  502    0  0.00000000000E+00  0.00000000000E+00  0.10695493147E+03  0.10695493147E+03  0.00000000000E+00 0.  1.
         13   -1    0    0    0    0 -0.00000000000E+00 -0.00000000000E+00 -0.10000000000E+04  0.10000000000E+04  0.00000000000E+00 0.  1.
    9000005    2    1    2  501    0 -0.18653105899E+00  0.22853192239E+00 -0.89721806702E+03  0.11027715193E+04  0.64117445134E+03 0.  0.
         13    1    3    3    0    0 -0.28170621446E+03 -0.13270963997E+03 -0.31735468405E+03  0.44461695345E+03  0.00000000000E+00 0.  1.
          3    1    3    3  501    0  0.28151968340E+03  0.13293817189E+03 -0.57986338297E+03  0.65815456589E+03  0.00000000000E+00 0.  1.
         21    1    1    2  502  501  0.18653105899E+00 -0.22853192239E+00  0.41729984946E+01  0.41834121374E+01  0.00000000000E+00 0.  1.
<mgrwt>
<rscale>  1 0.64117452E+03</rscale>
<asrwt>0</asrwt>
<pdfrwt beam="1">  1        1 0.38892784E+00 0.64117452E+03</pdfrwt>
<pdfrwt beam="2">0</pdfrwt>
<totfact> 0.15008601E+00</totfact>
</mgrwt>
</event>
<event>
 6    1  0.6737601E-003  0.6585334E+03  0.7818608E-02  0.9790897E-01
          1   -1    0    0  502    0  0.00000000000E+00  0.00000000000E+00  0.10841656553E+03  0.10841656553E+03  0.00000000000E+00 0.  1.
         13   -1    0    0    0    0 -0.00000000000E+00 -0.00000000000E+00 -0.10000000000E+04  0.10000000000E+04  0.00000000000E+00 0.  1.
    9000005    2    1    2  501    0 -0.73891416719E-05 -0.37981060004E-05 -0.89158344186E+03  0.11084165544E+04  0.65853338890E+03 0.  0.
         13    1    3    3    0    0  0.31205148173E+03  0.53040726205E+02 -0.29312344210E+03  0.43140560752E+03  0.00000000000E+00 0.  1.
          1    1    3    3  501    0 -0.31205148912E+03 -0.53040730003E+02 -0.59845999976E+03  0.67701094689E+03  0.00000000000E+00 0.  1.
         21    1    1    2  502  501  0.73891416687E-05  0.37981060029E-05  0.73912608468E-05  0.11120061183E-04  0.00000000000E+00 0.  1.
<mgrwt>
<rscale>  1 0.65853339E+03</rscale>
<asrwt>0</asrwt>
<pdfrwt beam="1">  1        1 0.39424289E+00 0.65853339E+03</pdfrwt>
<pdfrwt beam="2">0</pdfrwt>
<totfact> 0.14169118E+00</totfact>
</mgrwt>
</event>
<event>
 6    1  0.6737601E-003  0.6613685E+03  0.7818608E-02  0.9785678E-01
          1   -1    0    0  502    0  0.00000000000E+00  0.00000000000E+00  0.10935211336E+03  0.10935211336E+03  0.00000000000E+00 0.  1.
         13   -1    0    0    0    0 -0.00000000000E+00 -0.00000000000E+00 -0.10000000000E+04  0.10000000000E+04  0.00000000000E+00 0.  1.
    9000005    2    1    2  501    0 -0.67116599354E-05  0.26665814552E-04 -0.89064792750E+03  0.11093520641E+04  0.66136848381E+03 0.  0.
         13    1    3    3    0    0 -0.11012705681E+03 -0.57704846375E+02  0.68655063470E+02  0.14202582750E+03  0.00000000000E+00 0.  1.
          1    1    3    3  501    0  0.11012705010E+03  0.57704873041E+02 -0.95930299097E+03  0.96732623661E+03  0.00000000000E+00 0.  1.
         21    1    1    2  502  501  0.67116599291E-05 -0.26665814550E-04  0.40866327989E-04  0.49256155026E-04  0.00000000000E+00 0.  1.
<mgrwt>
<rscale>  1 0.66136848E+03</rscale>
<asrwt>0</asrwt>
<pdfrwt beam="1">  1        1 0.39764489E+00 0.66136848E+03</pdfrwt>
<pdfrwt beam="2">0</pdfrwt>
<totfact> 0.13676573E+00</totfact>
</mgrwt>
</event>
<event>
 6    1  0.6737601E-003  0.6516198E+03  0.7818608E-02  0.9803745E-01
          1   -1    0    0  502    0  0.00000000000E+00  0.00000000000E+00  0.10615225414E+03  0.10615225414E+03  0.00000000000E+00 0.  1.
         13   -1    0    0    0    0 -0.00000000000E+00 -0.00000000000E+00 -0.10000000000E+04  0.10000000000E+04  0.00000000000E+00 0.  1.
    9000005    2    1    2  501    0 -0.14281050483E-04 -0.15060647094E-04 -0.89384791673E+03  0.11061520820E+04  0.65161977434E+03 0.  0.
         13    1    3    3    0    0  0.32248319329E+03  0.41325262061E+02 -0.48288982030E+03  0.58213895746E+03  0.00000000000E+00 0.  1.
          3    1    3    3  501    0 -0.32248320757E+03 -0.41325277121E+02 -0.41095809643E+03  0.52401312456E+03  0.00000000000E+00 0.  1.
         21    1    1    2  502  501  0.14281050500E-04  0.15060647091E-04  0.17086519657E-03  0.17212114017E-03  0.00000000000E+00 0. -1.
<mgrwt>
<rscale>  1 0.65161977E+03</rscale>
<asrwt>0</asrwt>
<pdfrwt beam="1">  1        1 0.38600901E+00 0.65161977E+03</pdfrwt>
<pdfrwt beam="2">0</pdfrwt>
<totfact> 0.15431852E+00</totfact>
</mgrwt>
</event>
<event>
 6    1  0.6737601E-003  0.6471797E+03  0.7818608E-02  0.9812086E-01
          1   -1    0    0  502    0  0.00000000000E+00  0.00000000000E+00  0.10812921705E+03  0.10812921705E+03  0.00000000000E+00 0.  1.
         13   -1    0    0    0    0 -0.00000000000E+00 -0.00000000000E+00 -0.10000000000E+04  0.10000000000E+04  0.00000000000E+00 0.  1.
    9000005    2    1    2  501    0  0.12659708726E+01  0.26818021940E+00 -0.89515383181E+03  0.11046003344E+04  0.64717836919E+03 0.  0.
         13    1    3    3    0    0 -0.16267855144E+03  0.17872596067E+02  0.28693702153E+02  0.16615375208E+03  0.00000000000E+00 0.  1.
          1    1    3    3  501    0  0.16394452231E+03 -0.17604415848E+02 -0.92384753397E+03  0.93844658232E+03  0.00000000000E+00 0.  1.
         21    1    1    2  502  501 -0.12659708726E+01 -0.26818021940E+00  0.32830488634E+01  0.35288826447E+01  0.00000000000E+00 0.  1.
<mgrwt>
<rscale>  1 0.64717966E+03</rscale>
<asrwt>0</asrwt>
<pdfrwt beam="1">  1        1 0.39319798E+00 0.64717966E+03</pdfrwt>
<pdfrwt beam="2">0</pdfrwt>
<totfact> 0.14351874E+00</totfact>
</mgrwt>
</event>
<event>
 6    1  0.6737601E-003  0.6432393E+03  0.7818608E-02  0.9819549E-01
          1   -1    0    0  502    0  0.00000000000E+00  0.00000000000E+00  0.10353866949E+03  0.10353866949E+03  0.00000000000E+00 0.  1.
         13   -1    0    0    0    0 -0.00000000000E+00 -0.00000000000E+00 -0.10000000000E+04  0.10000000000E+04  0.00000000000E+00 0.  1.
    9000005    2    1    2  501    0 -0.62935282593E-01  0.88313820863E-02 -0.89654949527E+03  0.11034299871E+04  0.64323925166E+03 0.  0.
         13    1    3    3    0    0  0.77452171723E+02  0.16516976588E+03 -0.90263171347E+03  0.92088213177E+03  0.00000000000E+00 0.  1.
          3    1    3    3  501    0 -0.77515107005E+02 -0.16516093450E+03  0.60822182011E+01  0.18254785530E+03  0.00000000000E+00 0.  1.
         21    1    1    2  502  501  0.62935282593E-01 -0.88313820863E-02  0.88164757655E-01  0.10868241623E+00  0.00000000000E+00 0. -1.
<mgrwt>
<rscale>  1 0.64323925E+03</rscale>
<asrwt>0</asrwt>
<pdfrwt beam="1">  1        1 0.37650505E+00 0.64323925E+03</pdfrwt>
<pdfrwt beam="2">0</pdfrwt>
<totfact> 0.17023470E+00</totfact>
</mgrwt>
</event>
<event>
 6    1  0.6737601E-003  0.6597871E+03  0.7818608E-02  0.9788586E-01
          1   -1    0    0  502    0  0.00000000000E+00  0.00000000000E+00  0.11717201364E+03  0.11717201364E+03  0.00000000000E+00 0.  1.
         13   -1    0    0    0    0 -0.00000000000E+00 -0.00000000000E+00 -0.10000000000E+04  0.10000000000E+04  0.00000000000E+00 0.  1.
    9000005    2    1    2  501    0 -0.18396393624E-01 -0.10459817977E+01 -0.89113386196E+03  0.11088005152E+04  0.65978627463E+03 0.  0.
         13    1    3    3    0    0  0.20395391595E+03  0.74663329855E+02 -0.86241529089E+03  0.88934354814E+03  0.00000000000E+00 0.  1.
          1    1    3    3  501    0 -0.20397231234E+03 -0.75709311653E+02 -0.28718571071E+02  0.21945696707E+03  0.00000000000E+00 0.  1.
         21    1    1    2  502  501  0.18396393624E-01  0.10459817977E+01  0.83058756078E+01  0.83714984298E+01  0.00000000000E+00 0. -1.
<mgrwt>
<rscale>  1 0.65978710E+03</rscale>
<asrwt>0</asrwt>
<pdfrwt beam="1">  1        1 0.42608095E+00 0.65978710E+03</pdfrwt>
<pdfrwt beam="2">0</pdfrwt>
<totfact> 0.10196096E+00</totfact>
</mgrwt>
</event>
<event>
 6    1  0.6737601E-003  0.6865874E+03  0.7818608E-02  0.9740448E-01
          1   -1    0    0  502    0  0.00000000000E+00  0.00000000000E+00  0.11785063966E+03  0.11785063966E+03  0.00000000000E+00 0.  1.
         13   -1    0    0    0    0 -0.00000000000E+00 -0.00000000000E+00 -0.10000000000E+04  0.10000000000E+04  0.00000000000E+00 0.  1.
    9000005    2    1    2  501    0  0.17290222416E-03 -0.89122423951E-04 -0.88214917415E+03  0.11178503704E+04  0.68658741988E+03 0.  0.
         13    1    3    3    0    0 -0.33055534552E+03  0.43155585765E+02 -0.57455363756E+03  0.66425983129E+03  0.00000000000E+00 0.  1.
          1    1    3    3  501    0  0.33055551842E+03 -0.43155674888E+02 -0.30759553659E+03  0.45359053910E+03  0.00000000000E+00 0.  1.
         21    1    1    2  502  501 -0.17290222417E-03  0.89122423952E-04 -0.18619563913E-03  0.26927087032E-03  0.00000000000E+00 0. -1.
<mgrwt>
<rscale>  1 0.68658742E+03</rscale>
<asrwt>0</asrwt>
<pdfrwt beam="1">  1        1 0.42854868E+00 0.68658742E+03</pdfrwt>
<pdfrwt beam="2">0</pdfrwt>
<totfact> 0.98850925E-01</totfact>
</mgrwt>
</event>
<event>
 6    1  0.6737601E-003  0.6535368E+03  0.7818608E-02  0.9800165E-01
          1   -1    0    0  502    0  0.00000000000E+00  0.00000000000E+00  0.11059037580E+03  0.11059037580E+03  0.00000000000E+00 0.  1.
         13   -1    0    0    0    0 -0.00000000000E+00 -0.00000000000E+00 -0.10000000000E+04  0.10000000000E+04  0.00000000000E+00 0.  1.
    9000005    2    1    2  501    0  0.16667666440E+00  0.11087391301E+01 -0.89313098527E+03  0.11067037819E+04  0.65353580394E+03 0.  0.
         13    1    3    3    0    0  0.30045572830E+03  0.12754869797E+03 -0.41200427325E+03  0.52563279596E+03  0.00000000000E+00 0.  1.
          3    1    3    3  501    0 -0.30028905163E+03 -0.12643995884E+03 -0.48112671203E+03  0.58107098598E+03  0.00000000000E+00 0.  1.
         21    1    1    2  502  501 -0.16667666440E+00 -0.11087391301E+01  0.37213610707E+01  0.38865938542E+01  0.00000000000E+00 0.  1.
<mgrwt>
<rscale>  1 0.65353677E+03</rscale>
<asrwt>0</asrwt>
<pdfrwt beam="1">  1        1 0.40214767E+00 0.65353677E+03</pdfrwt>
<pdfrwt beam="2">0</pdfrwt>
<totfact> 0.13078071E+00</totfact>
</mgrwt>
</event>
<event>
 6    1  0.6737601E-003  0.6610315E+03  0.7818608E-02  0.9786297E-01
          1   -1    0    0  502    0  0.00000000000E+00  0.00000000000E+00  0.10924126863E+03  0.10924126863E+03  0.00000000000E+00 0.  1.
         13   -1    0    0    0    0 -0.00000000000E+00 -0.00000000000E+00 -0.10000000000E+04  0.10000000000E+04  0.00000000000E+00 0.  1.
    9000005    2    1    2  501    0 -0.59981373898E-03 -0.57922789534E-03 -0.89075901803E+03  0.11092403869E+04  0.66103147256E+03 0.  0.
         13    1    3    3    0    0 -0.48702973728E+02  0.32425228056E+03 -0.37560455519E+03  0.49858831011E+03  0.00000000000E+00 0.  1.
          1    1    3    3  501    0  0.48702373914E+02 -0.32425285978E+03 -0.51515446284E+03  0.61065207679E+03  0.00000000000E+00 0.  1.
         21    1    1    2  502  501  0.59981373898E-03  0.57922789535E-03  0.28666061882E-03  0.88173453295E-03  0.00000000000E+00 0. -1.
<mgrwt>
<rscale>  1 0.66103147E+03</rscale>
<asrwt>0</asrwt>
<pdfrwt beam="1">  1        1 0.39724181E+00 0.66103147E+03</pdfrwt>
<pdfrwt beam="2">0</pdfrwt>
<totfact> 0.13734076E+00</totfact>
</mgrwt>
</event>
<event>
 6    1  0.6737601E-003  0.6384377E+03  0.7818608E-02  0.9828720E-01
          1   -1    0    0  502    0  0.00000000000E+00  0.00000000000E+00  0.13701094096E+03  0.13701094096E+03  0.00000000000E+00 0.  1.
         13   -1    0    0    0    0 -0.00000000000E+00 -0.00000000000E+00 -0.10000000000E+04  0.10000000000E+04  0.00000000000E+00 0.  1.
    9000005    2    1    2  501    0 -0.16000880483E+00 -0.31171277423E+01 -0.89802288104E+03  0.11018383554E+04  0.63843004673E+03 0.  0.
         13    1    3    3    0    0 -0.86621282788E+02 -0.25015913155E+03 -0.13910272339E+03  0.29905251275E+03  0.00000000000E+00 0.  1.
          3    1    3    3  501    0  0.86461273983E+02  0.24704200381E+03 -0.75892015765E+03  0.80278584269E+03  0.00000000000E+00 0.  1.
         21    1    1    2  502  501  0.16000880483E+00  0.31171277423E+01  0.35033822001E+02  0.35172585520E+02  0.00000000000E+00 0. -1.
<mgrwt>
<rscale>  1 0.63843768E+03</rscale>
<asrwt>0</asrwt>
<pdfrwt beam="1">  1        1 0.49822265E+00 0.63843768E+03</pdfrwt>
<pdfrwt beam="2">0</pdfrwt>
<totfact> 0.47279427E-01</totfact>
</mgrwt>
</event>
<event>
 6    1  0.6737601E-003  0.6424689E+03  0.7818608E-02  0.9821014E-01
          1   -1    0    0  502    0  0.00000000000E+00  0.00000000000E+00  0.10319350041E+03  0.10319350041E+03  0.00000000000E+00 0.  1.
         13   -1    0    0    0    0 -0.00000000000E+00 -0.00000000000E+00 -0.10000000000E+04  0.10000000000E+04  0.00000000000E+00 0.  1.
    9000005    2    1    2  501    0  0.18041616465E-03 -0.11788562963E-03 -0.89680841178E+03  0.11031915761E+04  0.64246893012E+03 0.  0.
         13    1    3    3    0    0  0.26860317627E+03  0.16123332585E+03 -0.57040098220E+03  0.65076964600E+03  0.00000000000E+00 0.  1.
          3    1    3    3  501    0 -0.26860299585E+03 -0.16123344374E+03 -0.32640742958E+03  0.45242193011E+03  0.00000000000E+00 0.  1.
         21    1    1    2  502  501 -0.18041616465E-03  0.11788562963E-03  0.19121871781E-02  0.19242938492E-02  0.00000000000E+00 0.  1.
<mgrwt>
<rscale>  1 0.64246893E+03</rscale>
<asrwt>0</asrwt>
<pdfrwt beam="1">  1        1 0.37524988E+00 0.64246893E+03</pdfrwt>
<pdfrwt beam="2">0</pdfrwt>
<totfact> 0.17243941E+00</totfact>
</mgrwt>
</event>
<event>
 6    1  0.6737601E-003  0.6457641E+03  0.7818608E-02  0.9814760E-01
          1   -1    0    0  502    0  0.00000000000E+00  0.00000000000E+00  0.10430324835E+03  0.10430324835E+03  0.00000000000E+00 0.  1.
         13   -1    0    0    0    0 -0.00000000000E+00 -0.00000000000E+00 -0.10000000000E+04  0.10000000000E+04  0.00000000000E+00 0.  1.
    9000005    2    1    2  501    0  0.80064872822E-03 -0.14032563609E-02 -0.89574715363E+03  0.11042528205E+04  0.64576414294E+03 0.  0.
         13    1    3    3    0    0  0.27874949958E+03 -0.14857406088E+03 -0.33344883056E+03  0.45930780277E+03  0.00000000000E+00 0.  1.
          3    1    3    3  501    0 -0.27874869893E+03  0.14857265763E+03 -0.56229832307E+03  0.64494501771E+03  0.00000000000E+00 0.  1.
         21    1    1    2  502  501 -0.80064872823E-03  0.14032563609E-02  0.50401974590E-01  0.50427861440E-01  0.00000000000E+00 0. -1.
<mgrwt>
<rscale>  1 0.64576414E+03</rscale>
<asrwt>0</asrwt>
<pdfrwt beam="1">  1        1 0.37928534E+00 0.64576414E+03</pdfrwt>
<pdfrwt beam="2">0</pdfrwt>
<totfact> 0.16542155E+00</totfact>
</mgrwt>
</event>
<event>
 6    1  0.6737601E-003  0.7300784E+03  0.7818608E-02  0.9667133E-01
          1   -1    0    0  502    0  0.00000000000E+00  0.00000000000E+00  0.13325668109E+03  0.13325668109E+03  0.00000000000E+00 0.  1.
         13   -1    0    0    0    0 -0.00000000000E+00 -0.00000000000E+00 -0.10000000000E+04  0.10000000000E+04  0.00000000000E+00 0.  1.
    9000005    2    1    2  501    0  0.23779837351E-02 -0.78794402045E-02 -0.86673601862E+03  0.11332456795E+04  0.73007838217E+03 0.  0.
         13    1    3    3    0    0  0.16404379646E+02  0.25571219650E+03 -0.29804876443E+02  0.25796542747E+03  0.00000000000E+00 0.  1.
          1    1    3    3  501    0 -0.16402001662E+02 -0.25572007594E+03 -0.83693114218E+03  0.87528025206E+03  0.00000000000E+00 0.  1.
         21    1    1    2  502  501 -0.23779837351E-02  0.78794402045E-02 -0.73002865678E-02  0.11001571186E-01  0.00000000000E+00 0. -1.
<mgrwt>
<rscale>  1 0.73007838E+03</rscale>
<asrwt>0</asrwt>
<pdfrwt beam="1">  1        1 0.48457077E+00 0.73007838E+03</pdfrwt>
<pdfrwt beam="2">0</pdfrwt>
<totfact> 0.53872329E-01</totfact>
</mgrwt>
</event>
<event>
 6    1  0.6737601E-003  0.6371942E+03  0.7818608E-02  0.9831110E-01
          1   -1    0    0  502    0  0.00000000000E+00  0.00000000000E+00  0.10229242993E+03  0.10229242993E+03  0.00000000000E+00 0.  1.
         13   -1    0    0    0    0 -0.00000000000E+00 -0.00000000000E+00 -0.10000000000E+04  0.10000000000E+04  0.00000000000E+00 0.  1.
    9000005    2    1    2  501    0 -0.36707148043E-01  0.17660119471E-01 -0.89849531522E+03  0.11015036323E+04  0.63719417669E+03 0.  0.
         13    1    3    3    0    0  0.65678803317E+02 -0.11405646590E+03  0.52308523147E+02  0.14162896672E+03  0.00000000000E+00 0.  1.
          3    1    3    3  501    0 -0.65715510466E+02  0.11407412602E+03 -0.95080383837E+03  0.95987466557E+03  0.00000000000E+00 0.  1.
         21    1    1    2  502  501  0.36707148043E-01 -0.17660119471E-01  0.78774515411E+00  0.78879764348E+00  0.00000000000E+00 0.  1.
<mgrwt>
<rscale>  1 0.63719418E+03</rscale>
<asrwt>0</asrwt>
<pdfrwt beam="1">  1        1 0.37197326E+00 0.63719418E+03</pdfrwt>
<pdfrwt beam="2">0</pdfrwt>
<totfact> 0.17843050E+00</totfact>
</mgrwt>
</event>
<event>
 6    1  0.6737601E-003  0.6444706E+03  0.7818608E-02  0.9817210E-01
          1   -1    0    0  502    0  0.00000000000E+00  0.00000000000E+00  0.11130302926E+03  0.11130302926E+03  0.00000000000E+00 0.  1.
         13   -1    0    0    0    0 -0.00000000000E+00 -0.00000000000E+00 -0.10000000000E+04  0.10000000000E+04  0.00000000000E+00 0.  1.
    9000005    2    1    2  501    0  0.10158249292E+00  0.11300584139E+00 -0.89616357206E+03  0.11038348819E+04  0.64447053897E+03 0.  0.
         13    1    3    3    0    0  0.22652068990E+03  0.22787722524E+03 -0.40469866611E+03  0.51674042137E+03  0.00000000000E+00 0.  1.
          3    1    3    3  501    0 -0.22641910740E+03 -0.22776421940E+03 -0.49146490595E+03  0.58709446056E+03  0.00000000000E+00 0.  1.
         21    1    1    2  502  501 -0.10158249292E+00 -0.11300584139E+00  0.74666013199E+01  0.74681473334E+01  0.00000000000E+00 0.  1.
<mgrwt>
<rscale>  1 0.64447056E+03</rscale>
<asrwt>0</asrwt>
<pdfrwt beam="1">  1        1 0.40473914E+00 0.64447056E+03</pdfrwt>
<pdfrwt beam="2">0</pdfrwt>
<totfact> 0.12756356E+00</totfact>
</mgrwt>
</event>
<event>
 6    1  0.6737601E-003  0.6454727E+03  0.7818608E-02  0.9815312E-01
          1   -1    0    0  502    0  0.00000000000E+00  0.00000000000E+00  0.10415878027E+03  0.10415878027E+03  0.00000000000E+00 0.  1.
         13   -1    0    0    0    0 -0.00000000000E+00 -0.00000000000E+00 -0.10000000000E+04  0.10000000000E+04  0.00000000000E+00 0.  1.
    9000005    2    1    2  501    0 -0.11657440439E-04  0.10211310212E-04 -0.89584123071E+03  0.11041587613E+04  0.64547274107E+03 0.  0.
         13    1    3    3    0    0 -0.14001624314E+03 -0.26121711801E+03 -0.22939041056E+03  0.37477845661E+03  0.00000000000E+00 0.  1.
          3    1    3    3  501    0  0.14001623148E+03  0.26121712822E+03 -0.66645082015E+03  0.72938030466E+03  0.00000000000E+00 0.  1.
         21    1    1    2  502  501  0.11657440439E-04 -0.10211310223E-04  0.10978010366E-04  0.18991668848E-04  0.00000000000E+00 0.  1.
<mgrwt>
<rscale>  1 0.64547274E+03</rscale>
<asrwt>0</asrwt>
<pdfrwt beam="1">  1        1 0.37876000E+00 0.64547274E+03</pdfrwt>
<pdfrwt beam="2">0</pdfrwt>
<totfact> 0.16631528E+00</totfact>
</mgrwt>
</event>
<event>
 6    1  0.6737601E-003  0.6430587E+03  0.7818608E-02  0.9819892E-01
          1   -1    0    0  502    0  0.00000000000E+00  0.00000000000E+00  0.10349593293E+03  0.10349593293E+03  0.00000000000E+00 0.  1.
         13   -1    0    0    0    0 -0.00000000000E+00 -0.00000000000E+00 -0.10000000000E+04  0.10000000000E+04  0.00000000000E+00 0.  1.
    9000005    2    1    2  501    0  0.17158193836E-01 -0.24364447426E-01 -0.89661674650E+03  0.11033793796E+04  0.64305867872E+03 0.  0.
         13    1    3    3    0    0  0.56876271549E+02 -0.23774640342E+03 -0.89925538187E+02  0.26047046862E+03  0.00000000000E+00 0.  1.
          3    1    3    3  501    0 -0.56859113355E+02  0.23772203898E+03 -0.80669120832E+03  0.84290891095E+03  0.00000000000E+00 0.  1.
         21    1    1    2  502  501 -0.17158193836E-01  0.24364447426E-01  0.11267943527E+00  0.11655335708E+00  0.00000000000E+00 0. -1.
<mgrwt>
<rscale>  1 0.64305868E+03</rscale>
<asrwt>0</asrwt>
<pdfrwt beam="1">  1        1 0.37634964E+00 0.64305868E+03</pdfrwt>
<pdfrwt beam="2">0</pdfrwt>
<totfact> 0.17050887E+00</totfact>
</mgrwt>
</event>
<event>
 6    1  0.6737601E-003  0.6703581E+03  0.7818608E-02  0.9769311E-01
          1   -1    0    0  502    0  0.00000000000E+00  0.00000000000E+00  0.11234678523E+03  0.11234678523E+03  0.00000000000E+00 0.  1.
         13   -1    0    0    0    0 -0.00000000000E+00 -0.00000000000E+00 -0.10000000000E+04  0.10000000000E+04  0.00000000000E+00 0.  1.
    9000005    2    1    2  501    0 -0.88757928154E-04 -0.10345800220E-03 -0.88765500777E+03  0.11123449871E+04  0.67035808149E+03 0.  0.
         13    1    3    3    0    0  0.23853408378E+03  0.15669342603E+03 -0.15217405660E+03  0.32343203673E+03  0.00000000000E+00 0.  1.
          1    1    3    3  501    0 -0.23853417253E+03 -0.15669352949E+03 -0.73548095117E+03  0.78891295032E+03  0.00000000000E+00 0.  1.
         21    1    1    2  502  501  0.88757928145E-04  0.10345800221E-03  0.17930018261E-02  0.17981760416E-02  0.00000000000E+00 0.  1.
<mgrwt>
<rscale>  1 0.67035808E+03</rscale>
<asrwt>0</asrwt>
<pdfrwt beam="1">  1        1 0.40853463E+00 0.67035808E+03</pdfrwt>
<pdfrwt beam="2">0</pdfrwt>
<totfact> 0.12206631E+00</totfact>
</mgrwt>
</event>
<event>
 6    1  0.8591579E-003  0.6604258E+03  0.7818608E-02  0.9787410E-01
          1   -1    0    0  502    0  0.00000000000E+00  0.00000000000E+00  0.10904056198E+03  0.10904056198E+03  0.00000000000E+00 0.  1.
         13   -1    0    0    0    0 -0.00000000000E+00 -0.00000000000E+00 -0.10000000000E+04  0.10000000000E+04  0.00000000000E+00 0.  1.
    9000005    2    1    2  501    0 -0.29522852344E-04 -0.22670219948E-04 -0.89095942690E+03  0.11090405231E+04  0.66042575781E+03 0.  0.
         13    1    3    3    0    0 -0.15696614711E+03 -0.27444435617E+03 -0.60551866732E+03  0.68308925657E+03  0.00000000000E+00 0.  1.
          3    1    3    3  501    0  0.15696611758E+03  0.27444433350E+03 -0.28544075959E+03  0.42595126657E+03  0.00000000000E+00 0.  1.
         21    1    1    2  502  501  0.29522852367E-04  0.22670219931E-04 -0.11114651865E-04  0.38846790984E-04  0.00000000000E+00 0. -1.
<mgrwt>
<rscale>  1 0.66042576E+03</rscale>
<asrwt>0</asrwt>
<pdfrwt beam="1">  1        1 0.39651197E+00 0.66042576E+03</pdfrwt>
<pdfrwt beam="2">0</pdfrwt>
<totfact> 0.13838767E+00</totfact>
</mgrwt>
</event>
<event>
 6    1  0.6737601E-003  0.6542350E+03  0.7818608E-02  0.9798865E-01
          1   -1    0    0  502    0  0.00000000000E+00  0.00000000000E+00  0.10729490862E+03  0.10729490862E+03  0.00000000000E+00 0.  1.
         13   -1    0    0    0    0 -0.00000000000E+00 -0.00000000000E+00 -0.10000000000E+04  0.10000000000E+04  0.00000000000E+00 0.  1.
    9000005    2    1    2  501    0 -0.73620827301E-01 -0.13503775817E+00 -0.89297133281E+03  0.11069874355E+04  0.65423494057E+03 0.  0.
         13    1    3    3    0    0  0.87455634266E+02  0.10365434417E+02 -0.97950565733E+03  0.98345679261E+03  0.00000000000E+00 0.  1.
          3    1    3    3  501    0 -0.87529255093E+02 -0.10500472175E+02  0.86534324514E+02  0.12353064289E+03  0.00000000000E+00 0.  1.
         21    1    1    2  502  501  0.73620827301E-01  0.13503775817E+00  0.26624142726E+00  0.30747312067E+00  0.00000000000E+00 0. -1.
<mgrwt>
<rscale>  1 0.65423496E+03</rscale>
<asrwt>0</asrwt>
<pdfrwt beam="1">  1        1 0.39016413E+00 0.65423496E+03</pdfrwt>
<pdfrwt beam="2">0</pdfrwt>
<totfact> 0.14784254E+00</totfact>
</mgrwt>
</event>
<event>
 6    1  0.6737601E-003  0.6578218E+03  0.7818608E-02  0.9792212E-01
          1   -1    0    0  502    0  0.00000000000E+00  0.00000000000E+00  0.11135754250E+03  0.11135754250E+03  0.00000000000E+00 0.  1.
         13   -1    0    0    0    0 -0.00000000000E+00 -0.00000000000E+00 -0.10000000000E+04  0.10000000000E+04  0.00000000000E+00 0.  1.
    9000005    2    1    2  501    0 -0.20337761634E+00 -0.75481270358E+00 -0.89176421332E+03  0.11081393964E+04  0.65782132731E+03 0.  0.
         13    1    3    3    0    0 -0.73624247107E+01  0.22259050932E+02 -0.99847016516E+03  0.99874538365E+03  0.00000000000E+00 0.  1.
          1    1    3    3  501    0  0.71590470943E+01 -0.23013863635E+02  0.10670595184E+03  0.10939401278E+03  0.00000000000E+00 0.  1.
         21    1    1    2  502  501  0.20337761634E+00  0.75481270358E+00  0.31217558184E+01  0.32181460598E+01  0.00000000000E+00 0. -1.
<mgrwt>
<rscale>  1 0.65782179E+03</rscale>
<asrwt>0</asrwt>
<pdfrwt beam="1">  1        1 0.40493737E+00 0.65782179E+03</pdfrwt>
<pdfrwt beam="2">0</pdfrwt>
<totfact> 0.12697800E+00</totfact>
</mgrwt>
</event>
<event>
 6    1  0.6737601E-003  0.5700054E+03  0.7818608E-02  0.9969667E-01
          1   -1    0    0  502    0  0.00000000000E+00  0.00000000000E+00  0.87381425978E+02  0.87381425978E+02  0.00000000000E+00 0.  1.
         13   -1    0    0    0    0 -0.00000000000E+00 -0.00000000000E+00 -0.10000000000E+04  0.10000000000E+04  0.00000000000E+00 0.  1.
    9000005    2    1    2  501    0  0.57053420289E+01  0.14263133310E+01 -0.91722511236E+03  0.10799111186E+04  0.56997502750E+03 0.  0.
         13    1    3    3    0    0  0.27033763382E+03  0.99080247655E+02 -0.46054550878E+03  0.54314040302E+03  0.00000000000E+00 0.  1.
          3    1    3    3  501    0 -0.26463229179E+03 -0.97653934324E+02 -0.45667960358E+03  0.53677071555E+03  0.00000000000E+00 0.  1.
         21    1    1    2  502  501 -0.57053420289E+01 -0.14263133310E+01  0.46065383348E+01  0.74703074110E+01  0.00000000000E+00 0.  1.
<mgrwt>
<rscale>  1 0.57000537E+03</rscale>
<asrwt>0</asrwt>
<pdfrwt beam="1">  1        1 0.31775131E+00 0.57000537E+03</pdfrwt>
<pdfrwt beam="2">0</pdfrwt>
<totfact> 0.31097796E+00</totfact>
</mgrwt>
</event>
<event>
 6    1  0.6737601E-003  0.6415832E+03  0.7818608E-02  0.9822702E-01
          3   -1    0    0  502    0  0.00000000000E+00  0.00000000000E+00  0.10291734132E+03  0.10291734132E+03  0.00000000000E+00 0.  1.
         13   -1    0    0    0    0 -0.00000000000E+00 -0.00000000000E+00 -0.10000000000E+04  0.10000000000E+04  0.00000000000E+00 0.  1.
    9000005    2    1    2  501    0 -0.46250701757E-06 -0.15743532421E-03 -0.89709275668E+03  0.11029072421E+04  0.64158317511E+03 0.  0.
         13    1    3    3    0    0  0.18669035434E+03 -0.19871736864E+03 -0.73908657364E+03  0.78777588459E+03  0.00000000000E+00 0.  1.
          3    1    3    3  501    0 -0.18669035481E+03  0.19871721120E+03 -0.15800618303E+03  0.31513135751E+03  0.00000000000E+00 0.  1.
         21    1    1    2  502  501  0.46250700910E-06  0.15743532420E-03  0.10097990850E-01  0.10099218054E-01  0.00000000000E+00 0.  1.
<mgrwt>
<rscale>  1 0.64158318E+03</rscale>
<asrwt>0</asrwt>
<pdfrwt beam="1">  1        3 0.37424567E+00 0.64158318E+03</pdfrwt>
<pdfrwt beam="2">0</pdfrwt>
<totfact> 0.81068560E-02</totfact>
</mgrwt>
</event>
<event>
 6    1  0.6737601E-003  0.6700406E+03  0.7818608E-02  0.9769884E-01
          1   -1    0    0  502    0  0.00000000000E+00  0.00000000000E+00  0.11223939232E+03  0.11223939232E+03  0.00000000000E+00 0.  1.
         13   -1    0    0    0    0 -0.00000000000E+00 -0.00000000000E+00 -0.10000000000E+04  0.10000000000E+04  0.00000000000E+00 0.  1.
    9000005    2    1    2  501    0 -0.61536396106E-03 -0.12393895906E-02 -0.88776064623E+03  0.11122380080E+04  0.67004061184E+03 0.  0.
         13    1    3    3    0    0 -0.17992654011E+03  0.33386063282E+01 -0.91295841962E+03  0.93052554080E+03  0.00000000000E+00 0.  1.
          1    1    3    3  501    0  0.17992592474E+03 -0.33398457178E+01  0.25197773390E+02  0.18171246723E+03  0.00000000000E+00 0.  1.
         21    1    1    2  502  501  0.61536396104E-03  0.12393895906E-02  0.38545346691E-04  0.13842850522E-02  0.00000000000E+00 0. -1.
<mgrwt>
<rscale>  1 0.67004061E+03</rscale>
<asrwt>0</asrwt>
<pdfrwt beam="1">  1        1 0.40814411E+00 0.67004061E+03</pdfrwt>
<pdfrwt beam="2">0</pdfrwt>
<totfact> 0.12256652E+00</totfact>
</mgrwt>
</event>
<event>
 6    1  0.6737601E-003  0.6770867E+03  0.7818608E-02  0.9757240E-01
          1   -1    0    0  502    0  0.00000000000E+00  0.00000000000E+00  0.11467523293E+03  0.11467523293E+03  0.00000000000E+00 0.  1.
         13   -1    0    0    0    0 -0.00000000000E+00 -0.00000000000E+00 -0.10000000000E+04  0.10000000000E+04  0.00000000000E+00 0.  1.
    9000005    2    1    2  501    0  0.43743747845E-02  0.26075350114E-02 -0.88538829367E+03  0.11146115025E+04  0.67708667907E+03 0.  0.
         13    1    3    3    0    0 -0.11810932421E+02 -0.30122249420E+03 -0.18907138707E+03  0.35584052404E+03  0.00000000000E+00 0.  1.
          1    1    3    3  501    0  0.11815306796E+02  0.30122510173E+03 -0.69631690660E+03  0.75877097850E+03  0.00000000000E+00 0.  1.
         21    1    1    2  502  501 -0.43743747845E-02 -0.26075350113E-02  0.63526604599E-01  0.63730400011E-01  0.00000000000E+00 0. -1.
<mgrwt>
<rscale>  1 0.67708668E+03</rscale>
<asrwt>0</asrwt>
<pdfrwt beam="1">  1        1 0.41700173E+00 0.67708668E+03</pdfrwt>
<pdfrwt beam="2">0</pdfrwt>
<totfact> 0.11168487E+00</totfact>
</mgrwt>
</event>
<event>
 6    1  0.6737601E-003  0.6668981E+03  0.7818608E-02  0.9775578E-01
          1   -1    0    0  502    0  0.00000000000E+00  0.00000000000E+00  0.11189410480E+03  0.11189410480E+03  0.00000000000E+00 0.  1.
         13   -1    0    0    0    0 -0.00000000000E+00 -0.00000000000E+00 -0.10000000000E+04  0.10000000000E+04  0.00000000000E+00 0.  1.
    9000005    2    1    2  501    0 -0.78951504715E-02 -0.48918588238E-01 -0.88881076122E+03  0.11111874992E+04  0.66689810815E+03 0.  0.
         13    1    3    3    0    0  0.23618880096E+03  0.23053692216E+03 -0.36547236935E+03  0.49244540300E+03  0.00000000000E+00 0.  1.
          1    1    3    3  501    0 -0.23619669611E+03 -0.23058584075E+03 -0.52333839188E+03  0.61874209621E+03  0.00000000000E+00 0.  1.
         21    1    1    2  502  501  0.78951504715E-02  0.48918588238E-01  0.70486602149E+00  0.70660559715E+00  0.00000000000E+00 0. -1.
<mgrwt>
<rscale>  1 0.66689811E+03</rscale>
<asrwt>0</asrwt>
<pdfrwt beam="1">  1        1 0.40688851E+00 0.66689811E+03</pdfrwt>
<pdfrwt beam="2">0</pdfrwt>
<totfact> 0.12423753E+00</totfact>
</mgrwt>
</event>
<event>
 6    1  0.6737601E-003  0.6496819E+03  0.7818608E-02  0.9807376E-01
          1   -1    0    0  502    0  0.00000000000E+00  0.00000000000E+00  0.10552323222E+03  0.10552323222E+03  0.00000000000E+00 0.  1.
         13   -1    0    0    0    0 -0.00000000000E+00 -0.00000000000E+00 -0.10000000000E+04  0.10000000000E+04  0.00000000000E+00 0.  1.
    9000005    2    1    2  501    0  0.76630010426E-06  0.16186752859E-03 -0.89447835888E+03  0.11055216329E+04  0.64968188086E+03 0.  0.
         13    1    3    3    0    0  0.27000932455E+03 -0.99890078249E+02 -0.19120913968E+03  0.34560671025E+03  0.00000000000E+00 0.  1.
          1    1    3    3  501    0 -0.27000932378E+03  0.99890240116E+02 -0.70326921920E+03  0.75991492265E+03  0.00000000000E+00 0.  1.
         21    1    1    2  502  501 -0.76630010534E-06 -0.16186752859E-03  0.15910989396E-02  0.15993115768E-02  0.00000000000E+00 0. -1.
<mgrwt>
<rscale>  1 0.64968188E+03</rscale>
<asrwt>0</asrwt>
<pdfrwt beam="1">  1        1 0.38372165E+00 0.64968188E+03</pdfrwt>
<pdfrwt beam="2">0</pdfrwt>
<totfact> 0.15801209E+00</totfact>
</mgrwt>
</event>
<event>
 6    1  0.6737601E-003  0.6478340E+03  0.7818608E-02  0.9810852E-01
          1   -1    0    0  502    0  0.00000000000E+00  0.00000000000E+00  0.13533141115E+03  0.13533141115E+03  0.00000000000E+00 0.  1.
         13   -1    0    0    0    0 -0.00000000000E+00 -0.00000000000E+00 -0.10000000000E+04  0.10000000000E+04  0.00000000000E+00 0.  1.
    9000005    2    1    2  501    0  0.77123538521E+01 -0.12023348194E+01 -0.89452334652E+03  0.11044731454E+04  0.64778699073E+03 0.  0.
         13    1    3    3    0    0 -0.94819991639E+02 -0.74550718184E+02  0.64786149036E+02  0.13691561453E+03  0.00000000000E+00 0.  1.
          1    1    3    3  501    0  0.10253234549E+03  0.73348383365E+02 -0.95930949556E+03  0.96755753084E+03  0.00000000000E+00 0.  1.
         21    1    1    2  502  501 -0.77123538521E+01  0.12023348194E+01  0.29854757674E+02  0.30858265776E+02  0.00000000000E+00 0.  1.
<mgrwt>
<rscale>  1 0.64783402E+03</rscale>
<asrwt>0</asrwt>
<pdfrwt beam="1">  1        1 0.49211526E+00 0.64783402E+03</pdfrwt>
<pdfrwt beam="2">0</pdfrwt>
<totfact> 0.50462893E-01</totfact>
</mgrwt>
</event>
