<event>
 6    1  0.3255736E-003  0.5422462E+03  0.7818608E-02  0.1003305E+00
          1   -1    0    0  502    0  0.00000000000E+00  0.00000000000E+00  0.73522984728E+02  0.73522984728E+02  0.00000000000E+00 0.  1.
         13   -1    0    0    0    0 -0.00000000000E+00 -0.00000000000E+00 -0.10000000000E+04  0.10000000000E+04  0.00000000000E+00 0.  1.
    9000005    2    1    2  501    0 -0.49830155229E-01 -0.17680319059E-01 -0.92641887232E+03  0.10734443957E+04  0.54224619943E+03 0.  0.
         13    1    3    3    0    0  0.12197737534E+03 -0.23720359980E+03 -0.36699650024E+03  0.45368541859E+03  0.00000000000E+00 0.  1.
          1    1    3    3  501    0 -0.12202720550E+03  0.23718591948E+03 -0.55942237208E+03  0.61975897707E+03  0.00000000000E+00 0.  1.
         21    1    1    2  502  501  0.49830155229E-01  0.17680319059E-01 -0.58142952611E-01  0.78589064064E-01  0.00000000000E+00 0.  1.
<mgrwt>
<rscale>  1 0.54224620E+03</rscale>
<asrwt>0</asrwt>
<pdfrwt beam="1">  1        1 0.26735687E+00 0.54224620E+03</pdfrwt>
<pdfrwt beam="2">0</pdfrwt>
<totfact> 0.51560234E+00</totfact>
</mgrwt>
</event>
<event>
 6    1  0.3255736E-003  0.6584549E+03  0.7818608E-02  0.9791042E-01
          1   -1    0    0  502    0  0.00000000000E+00  0.00000000000E+00  0.10904448766E+03  0.10904448766E+03  0.00000000000E+00 0.  1.
         13   -1    0    0    0    0 -0.00000000000E+00 -0.00000000000E+00 -0.10000000000E+04  0.10000000000E+04  0.00000000000E+00 0.  1.
    9000005    2    1    2  501    0  0.26501205410E+00 -0.11665387853E+00 -0.89157356910E+03  0.11083619676E+04  0.65845481104E+03 0.  0.
         13    1    3    3    0    0  0.20426770539E+03 -0.25731657398E+03 -0.48499274174E+03  0.58579439589E+03  0.00000000000E+00 0.  1.
          1    1    3    3  501    0 -0.20400269334E+03  0.25719992011E+03 -0.40658082737E+03  0.52256757168E+03  0.00000000000E+00 0.  1.
         21    1    1    2  502  501 -0.26501205410E+00  0.11665387853E+00  0.61805676581E+00  0.68252009638E+00  0.00000000000E+00 0.  1.
<mgrwt>
<rscale>  1 0.65845487E+03</rscale>
<asrwt>0</asrwt>
<pdfrwt beam="1">  1        1 0.39652625E+00 0.65845487E+03</pdfrwt>
<pdfrwt beam="2">0</pdfrwt>
<totfact> 0.13841833E+00</totfact>
</mgrwt>
</event>
<event>
 6    1  0.3255736E-003  0.6739477E+03  0.7818608E-02  0.9762852E-01
          1   -1    0    0  502    0  0.00000000000E+00  0.00000000000E+00  0.11411000549E+03  0.11411000549E+03  0.00000000000E+00 0.  1.
         13   -1    0    0    0    0 -0.00000000000E+00 -0.00000000000E+00 -0.10000000000E+04  0.10000000000E+04  0.00000000000E+00 0.  1.
    9000005    2    1    2  501    0  0.41731629820E-02  0.14465126643E-01 -0.88644852079E+03  0.11135512763E+04  0.67394767215E+03 0.  0.
         13    1    3    3    0    0 -0.19192004367E+03 -0.26110794892E+03 -0.29055914102E+03  0.43524163241E+03  0.00000000000E+00 0.  1.
          3    1    3    3  501    0  0.19192421683E+03  0.26112241405E+03 -0.59588937978E+03  0.67830964393E+03  0.00000000000E+00 0.  1.
         21    1    1    2  502  501 -0.41731629820E-02 -0.14465126643E-01  0.55852628363E+00  0.55872915146E+00  0.00000000000E+00 0. -1.
<mgrwt>
<rscale>  1 0.67394767E+03</rscale>
<asrwt>0</asrwt>
<pdfrwt beam="1">  1        1 0.41494635E+00 0.67394767E+03</pdfrwt>
<pdfrwt beam="2">0</pdfrwt>
<totfact> 0.11415839E+00</totfact>
</mgrwt>
</event>
<event>
 6    1  0.3255736E-003  0.6061015E+03  0.7818608E-02  0.9892828E-01
          3   -1    0    0  502    0  0.00000000000E+00  0.00000000000E+00  0.10248781061E+03  0.10248781061E+03  0.00000000000E+00 0.  1.
         13   -1    0    0    0    0 -0.00000000000E+00 -0.00000000000E+00 -0.10000000000E+04  0.10000000000E+04  0.00000000000E+00 0.  1.
    9000005    2    1    2  501    0  0.78255018204E+00 -0.11985030615E+00 -0.90814416344E+03  0.10918264026E+04  0.60610101883E+03 0.  0.
         13    1    3    3    0    0 -0.23604140505E+01 -0.96585483992E+02 -0.97155237494E+03  0.97634437804E+03  0.00000000000E+00 0.  1.
          1    1    3    3  501    0  0.31429642326E+01  0.96465633686E+02  0.63408211501E+02  0.11548202454E+03  0.00000000000E+00 0.  1.
         21    1    1    2  502  501 -0.78255018204E+00  0.11985030615E+00  0.10631974048E+02  0.10661408024E+02  0.00000000000E+00 0.  1.
<mgrwt>
<rscale>  1 0.60610154E+03</rscale>
<asrwt>0</asrwt>
<pdfrwt beam="1">  1        3 0.37268373E+00 0.60610154E+03</pdfrwt>
<pdfrwt beam="2">0</pdfrwt>
<totfact> 0.83118984E-02</totfact>
</mgrwt>
</event>
<event>
 6    1  0.3255736E-003  0.6502450E+03  0.7818608E-02  0.9806320E-01
          1   -1    0    0  502    0  0.00000000000E+00  0.00000000000E+00  0.10570471941E+03  0.10570471941E+03  0.00000000000E+00 0.  1.
         13   -1    0    0    0    0 -0.00000000000E+00 -0.00000000000E+00 -0.10000000000E+04  0.10000000000E+04  0.00000000000E+00 0.  1.
    9000005    2    1    2  501    0  0.27631621464E-04  0.80672128149E-04 -0.89429534278E+03  0.11057046139E+04  0.65024497922E+03 0.  0.
         13    1    3    3    0    0 -0.22789648550E+02  0.11229412732E+03 -0.96452774625E+03  0.97130999809E+03  0.00000000000E+00 0.  1.
          3    1    3    3  501    0  0.22789676182E+02 -0.11229404665E+03  0.70232403466E+02  0.13439461578E+03  0.00000000000E+00 0.  1.
         21    1    1    2  502  501 -0.27631621465E-04 -0.80672128143E-04  0.62185847356E-04  0.10553946359E-03  0.00000000000E+00 0.  1.
<mgrwt>
<rscale>  1 0.65024498E+03</rscale>
<asrwt>0</asrwt>
<pdfrwt beam="1">  1        1 0.38438161E+00 0.65024498E+03</pdfrwt>
<pdfrwt beam="2">0</pdfrwt>
<totfact> 0.15693776E+00</totfact>
</mgrwt>
</event>
<event>
 6    1  0.3255736E-003  0.6483656E+03  0.7818608E-02  0.9809851E-01
          1   -1    0    0  502    0  0.00000000000E+00  0.00000000000E+00  0.10532747436E+03  0.10532747436E+03  0.00000000000E+00 0.  1.
         13   -1    0    0    0    0 -0.00000000000E+00 -0.00000000000E+00 -0.10000000000E+04  0.10000000000E+04  0.00000000000E+00 0.  1.
    9000005    2    1    2  501    0  0.84092118041E-01 -0.12918035616E+00 -0.89487700548E+03  0.11050714059E+04  0.64836558626E+03 0.  0.
         13    1    3    3    0    0  0.15636226062E+03 -0.21074266768E+03 -0.12291324955E+03  0.28977455968E+03  0.00000000000E+00 0.  1.
          1    1    3    3  501    0 -0.15627816850E+03  0.21061348732E+03 -0.77196375593E+03  0.81529684622E+03  0.00000000000E+00 0.  1.
         21    1    1    2  502  501 -0.84092118041E-01  0.12918035616E+00  0.20447984246E+00  0.25606845707E+00  0.00000000000E+00 0.  1.
<mgrwt>
<rscale>  1 0.64836560E+03</rscale>
<asrwt>0</asrwt>
<pdfrwt beam="1">  1        1 0.38300981E+00 0.64836560E+03</pdfrwt>
<pdfrwt beam="2">0</pdfrwt>
<totfact> 0.15919953E+00</totfact>
</mgrwt>
</event>
<event>
 6    1  0.3255736E-003  0.6254508E+03  0.7818608E-02  0.9853967E-01
          1   -1    0    0  502    0  0.00000000000E+00  0.00000000000E+00  0.97799107946E+02  0.97799107946E+02  0.00000000000E+00 0.  1.
         13   -1    0    0    0    0 -0.00000000000E+00 -0.00000000000E+00 -0.10000000000E+04  0.10000000000E+04  0.00000000000E+00 0.  1.
    9000005    2    1    2  501    0 -0.46283170241E-02 -0.33233867034E-02 -0.90219620710E+03  0.10977917313E+04  0.62545078876E+03 0.  0.
         13    1    3    3    0    0  0.65757549780E+02  0.29300593013E+03 -0.29788549055E+03  0.42298025476E+03  0.00000000000E+00 0.  1.
          1    1    3    3  501    0 -0.65762178097E+02 -0.29300925351E+03 -0.60431071656E+03  0.67481147653E+03  0.00000000000E+00 0.  1.
         21    1    1    2  502  501  0.46283170241E-02  0.33233867034E-02 -0.46849511558E-02  0.73766513397E-02  0.00000000000E+00 0. -1.
<mgrwt>
<rscale>  1 0.62545079E+03</rscale>
<asrwt>0</asrwt>
<pdfrwt beam="1">  1        1 0.35563387E+00 0.62545079E+03</pdfrwt>
<pdfrwt beam="2">0</pdfrwt>
<totfact> 0.21084567E+00</totfact>
</mgrwt>
</event>
<event>
 6    1  0.3255736E-003  0.6151385E+03  0.7818608E-02  0.9874487E-01
          3   -1    0    0  502    0  0.00000000000E+00  0.00000000000E+00  0.94610531229E+02  0.94610531229E+02  0.00000000000E+00 0.  1.
         13   -1    0    0    0    0 -0.00000000000E+00 -0.00000000000E+00 -0.10000000000E+04  0.10000000000E+04  0.00000000000E+00 0.  1.
    9000005    2    1    2  501    0 -0.74448728656E-02 -0.77518950751E-03 -0.90539983323E+03  0.10945977465E+04  0.61513849547E+03 0.  0.
         13    1    3    3    0    0 -0.29786139050E+03  0.76173459021E+02 -0.46833948722E+03  0.56023716326E+03  0.00000000000E+00 0.  1.
          3    1    3    3  501    0  0.29785394562E+03 -0.76174234211E+02 -0.43706034601E+03  0.53436058325E+03  0.00000000000E+00 0.  1.
         21    1    1    2  502  501  0.74448728656E-02  0.77518950751E-03  0.10364456308E-01  0.12784717647E-01  0.00000000000E+00 0.  1.
<mgrwt>
<rscale>  1 0.61513850E+03</rscale>
<asrwt>0</asrwt>
<pdfrwt beam="1">  1        3 0.34403902E+00 0.61513850E+03</pdfrwt>
<pdfrwt beam="2">0</pdfrwt>
<totfact> 0.11781246E-01</totfact>
</mgrwt>
</event>
<event>
 6    1  0.3255736E-003  0.6555416E+03  0.7818608E-02  0.9796436E-01
          1   -1    0    0  502    0  0.00000000000E+00  0.00000000000E+00  0.10967691712E+03  0.10967691712E+03  0.00000000000E+00 0.  1.
         13   -1    0    0    0    0 -0.00000000000E+00 -0.00000000000E+00 -0.10000000000E+04  0.10000000000E+04  0.00000000000E+00 0.  1.
    9000005    2    1    2  501    0 -0.70221990721E+00  0.28297888633E+00 -0.89249532747E+03  0.11073765179E+04  0.65554120370E+03 0.  0.
         13    1    3    3    0    0  0.27412712902E+02  0.23463302057E+02 -0.99651041536E+03  0.99716347271E+03  0.00000000000E+00 0.  1.
          3    1    3    3  501    0 -0.28114932809E+02 -0.23180323171E+02  0.10401508790E+03  0.11021304523E+03  0.00000000000E+00 0.  1.
         21    1    1    2  502  501  0.70221990721E+00 -0.28297888633E+00  0.21722445890E+01  0.23003991834E+01  0.00000000000E+00 0. -1.
<mgrwt>
<rscale>  1 0.65554164E+03</rscale>
<asrwt>0</asrwt>
<pdfrwt beam="1">  1        1 0.39882599E+00 0.65554164E+03</pdfrwt>
<pdfrwt beam="2">0</pdfrwt>
<totfact> 0.13526666E+00</totfact>
</mgrwt>
</event>
<event>
 6    1  0.3255736E-003  0.6443406E+03  0.7818608E-02  0.9817457E-01
          1   -1    0    0  502    0  0.00000000000E+00  0.00000000000E+00  0.10379501089E+03  0.10379501089E+03  0.00000000000E+00 0.  1.
         13   -1    0    0    0    0 -0.00000000000E+00 -0.00000000000E+00 -0.10000000000E+04  0.10000000000E+04  0.00000000000E+00 0.  1.
    9000005    2    1    2  501    0 -0.10133516383E-04 -0.13156472586E-03 -0.89620629874E+03  0.11037936946E+04  0.64434058573E+03 0.  0.
         13    1    3    3    0    0  0.16058122611E+03  0.18301471068E+02 -0.92552888983E+03  0.93953445915E+03  0.00000000000E+00 0.  1.
          1    1    3    3  501    0 -0.16058123624E+03 -0.18301602633E+02  0.29322591097E+02  0.16425923548E+03  0.00000000000E+00 0.  1.
         21    1    1    2  502  501  0.10133516383E-04  0.13156472586E-03  0.13096299610E-02  0.13162608404E-02  0.00000000000E+00 0.  1.
<mgrwt>
<rscale>  1 0.64434059E+03</rscale>
<asrwt>0</asrwt>
<pdfrwt beam="1">  1        1 0.37743720E+00 0.64434059E+03</pdfrwt>
<pdfrwt beam="2">0</pdfrwt>
<totfact> 0.16859843E+00</totfact>
</mgrwt>
</event>
<event>
 6    1  0.4106106E-003  0.5943362E+03  0.7818608E-02  0.9917227E-01
          1   -1    0    0  502    0  0.00000000000E+00  0.00000000000E+00  0.88308900961E+02  0.88308900961E+02  0.00000000000E+00 0.  1.
         13   -1    0    0    0    0 -0.00000000000E+00 -0.00000000000E+00 -0.10000000000E+04  0.10000000000E+04  0.00000000000E+00 0.  1.
    9000005    2    1    2  501    0 -0.14310519134E-04 -0.31295510109E-04 -0.91169111981E+03  0.10883088608E+04  0.59433616623E+03 0.  0.
         13    1    3    3    0    0 -0.27305622817E+03 -0.17161010806E+02 -0.24344458349E+03  0.36622325058E+03  0.00000000000E+00 0.  1.
          3    1    3    3  501    0  0.27305621386E+03  0.17160979511E+02 -0.66824653631E+03  0.72208561019E+03  0.00000000000E+00 0.  1.
         21    1    1    2  502  501  0.14310519115E-04  0.31295510108E-04  0.20769894661E-04  0.40194383121E-04  0.00000000000E+00 0.  1.
<mgrwt>
<rscale>  1 0.59433617E+03</rscale>
<asrwt>0</asrwt>
<pdfrwt beam="1">  1        1 0.32112395E+00 0.59433617E+03</pdfrwt>
<pdfrwt beam="2">0</pdfrwt>
<totfact> 0.29938093E+00</totfact>
</mgrwt>
</event>
<event>
 6    1  0.3255736E-003  0.6453757E+03  0.7818608E-02  0.9815495E-01
          1   -1    0    0  502    0  0.00000000000E+00  0.00000000000E+00  0.11599480080E+03  0.11599480080E+03  0.00000000000E+00 0.  1.
         13   -1    0    0    0    0 -0.00000000000E+00 -0.00000000000E+00 -0.10000000000E+04  0.10000000000E+04  0.00000000000E+00 0.  1.
    9000005    2    1    2  501    0  0.12876822805E+01 -0.17771950894E+00 -0.89583322954E+03  0.11040955566E+04  0.64537441330E+03 0.  0.
         13    1    3    3    0    0  0.24096259808E+02  0.31396947093E+03 -0.32756581449E+03  0.45437519874E+03  0.00000000000E+00 0.  1.
          3    1    3    3  501    0 -0.22808577527E+02 -0.31414719043E+03 -0.56826741505E+03  0.64972035790E+03  0.00000000000E+00 0.  1.
         21    1    1    2  502  501 -0.12876822805E+01  0.17771950894E+00  0.11828030334E+02  0.11899244155E+02  0.00000000000E+00 0. -1.
<mgrwt>
<rscale>  1 0.64537572E+03</rscale>
<asrwt>0</asrwt>
<pdfrwt beam="1">  1        1 0.42180017E+00 0.64537572E+03</pdfrwt>
<pdfrwt beam="2">0</pdfrwt>
<totfact> 0.10691349E+00</totfact>
</mgrwt>
</event>
<event>
 6    1  0.4352648E-003  0.6436931E+03  0.7818608E-02  0.9818686E-01
          1   -1    0    0  502    0  0.00000000000E+00  0.00000000000E+00  0.10358521391E+03  0.10358521391E+03  0.00000000000E+00 0.  1.
         13   -1    0    0    0    0 -0.00000000000E+00 -0.00000000000E+00 -0.10000000000E+04  0.10000000000E+04  0.00000000000E+00 0.  1.
    9000005    2    1    2  501    0  0.12553430992E-04 -0.31008980443E-04 -0.89641478429E+03  0.11035851804E+04  0.64369308286E+03 0.  0.
         13    1    3    3    0    0 -0.23392784367E+03  0.19398367111E+03 -0.62991804580E+03  0.69939162500E+03  0.00000000000E+00 0.  1.
          1    1    3    3  501    0  0.23392785622E+03 -0.19398370212E+03 -0.26649673849E+03  0.40419355540E+03  0.00000000000E+00 0.  1.
         21    1    1    2  502  501 -0.12553430979E-04  0.31008980453E-04 -0.18018653402E-05  0.33502122571E-04  0.00000000000E+00 0.  1.
<mgrwt>
<rscale>  1 0.64369308E+03</rscale>
<asrwt>0</asrwt>
<pdfrwt beam="1">  1        1 0.37667430E+00 0.64369308E+03</pdfrwt>
<pdfrwt beam="2">0</pdfrwt>
<totfact> 0.16992857E+00</totfact>
</mgrwt>
</event>
<event>
 6    1  0.3255736E-003  0.6576046E+03  0.7818608E-02  0.9792613E-01
          1   -1    0    0  502    0  0.00000000000E+00  0.00000000000E+00  0.11324940979E+03  0.11324940979E+03  0.00000000000E+00 0.  1.
         13   -1    0    0    0    0 -0.00000000000E+00 -0.00000000000E+00 -0.10000000000E+04  0.10000000000E+04  0.00000000000E+00 0.  1.
    9000005    2    1    2  501    0  0.24373719469E+00 -0.27019643102E+00 -0.89188190822E+03  0.11081052054E+04  0.65760449793E+03 0.  0.
         13    1    3    3    0    0  0.32069386098E+01 -0.30793282494E+03 -0.25133082061E+03  0.39749225215E+03  0.00000000000E+00 0.  1.
          3    1    3    3  501    0 -0.29632014151E+01  0.30766262851E+03 -0.64055108760E+03  0.71061295328E+03  0.00000000000E+00 0.  1.
         21    1    1    2  502  501 -0.24373719469E+00  0.27019643102E+00  0.51313180122E+01  0.51442043577E+01  0.00000000000E+00 0.  1.
<mgrwt>
<rscale>  1 0.65760460E+03</rscale>
<asrwt>0</asrwt>
<pdfrwt beam="1">  1        1 0.41181690E+00 0.65760460E+03</pdfrwt>
<pdfrwt beam="2">0</pdfrwt>
<totfact> 0.11828486E+00</totfact>
</mgrwt>
</event>
<event>
 6    1  0.3255736E-003  0.6496398E+03  0.7818608E-02  0.9807455E-01
          3   -1    0    0  502    0  0.00000000000E+00  0.00000000000E+00  0.10550798172E+03  0.10550798172E+03  0.00000000000E+00 0.  1.
         13   -1    0    0    0    0 -0.00000000000E+00 -0.00000000000E+00 -0.10000000000E+04  0.10000000000E+04  0.00000000000E+00 0.  1.
    9000005    2    1    2  501    0 -0.82353972175E-06  0.38705366023E-07 -0.89449203371E+03  0.11055079663E+04  0.64963979644E+03 0.  0.
         13    1    3    3    0    0  0.18190312714E+03 -0.26436099623E+03 -0.53288321456E+03  0.62204501795E+03  0.00000000000E+00 0.  1.
          3    1    3    3  501    0 -0.18190312797E+03  0.26436099627E+03 -0.36160881915E+03  0.48346294832E+03  0.00000000000E+00 0.  1.
         21    1    1    2  502  501  0.82353970083E-06 -0.38705362039E-07  0.15426435682E-04  0.15448450848E-04  0.00000000000E+00 0.  1.
<mgrwt>
<rscale>  1 0.64963980E+03</rscale>
<asrwt>0</asrwt>
<pdfrwt beam="1">  1        3 0.38366620E+00 0.64963980E+03</pdfrwt>
<pdfrwt beam="2">0</pdfrwt>
<totfact> 0.72193887E-02</totfact>
</mgrwt>
</event>
<event>
 6    1  0.3255736E-003  0.6454694E+03  0.7818608E-02  0.9815318E-01
          1   -1    0    0  502    0  0.00000000000E+00  0.00000000000E+00  0.10420864017E+03  0.10420864017E+03  0.00000000000E+00 0.  1.
         13   -1    0    0    0    0 -0.00000000000E+00 -0.00000000000E+00 -0.10000000000E+04  0.10000000000E+04  0.00000000000E+00 0.  1.
    9000005    2    1    2  501    0 -0.17491275126E-01 -0.58420044393E-02 -0.89584046276E+03  0.11041561886E+04  0.64546940570E+03 0.  0.
         13    1    3    3    0    0  0.14903265229E+03 -0.53121389041E+02  0.33262541382E+02  0.16167563230E+03  0.00000000000E+00 0.  1.
          3    1    3    3  501    0 -0.14905014356E+03  0.53115547036E+02 -0.92910300414E+03  0.94248055626E+03  0.00000000000E+00 0.  1.
         21    1    1    2  502  501  0.17491275126E-01  0.58420044393E-02  0.49102921636E-01  0.52451602783E-01  0.00000000000E+00 0. -1.
<mgrwt>
<rscale>  1 0.64546941E+03</rscale>
<asrwt>0</asrwt>
<pdfrwt beam="1">  1        1 0.37894131E+00 0.64546941E+03</pdfrwt>
<pdfrwt beam="2">0</pdfrwt>
<totfact> 0.16600947E+00</totfact>
</mgrwt>
</event>
<event>
 6    1  0.3255736E-003  0.6486450E+03  0.7818608E-02  0.9809325E-01
          1   -1    0    0  502    0  0.00000000000E+00  0.00000000000E+00  0.10518606165E+03  0.10518606165E+03  0.00000000000E+00 0.  1.
         13   -1    0    0    0    0 -0.00000000000E+00 -0.00000000000E+00 -0.10000000000E+04  0.10000000000E+04  0.00000000000E+00 0.  1.
    9000005    2    1    2  501    0 -0.68511706274E-04 -0.18491539890E-04 -0.89481492340E+03  0.11051850741E+04  0.64864497283E+03 0.  0.
         13    1    3    3    0    0 -0.57509548730E+02 -0.22702119472E+03 -0.65128224206E+02  0.24307952739E+03  0.00000000000E+00 0.  1.
          1    1    3    3  501    0  0.57509480218E+02  0.22702117623E+03 -0.82968669919E+03  0.86210554666E+03  0.00000000000E+00 0.  1.
         21    1    1    2  502  501  0.68511706275E-04  0.18491539899E-04  0.98504203111E-03  0.98759485316E-03  0.00000000000E+00 0.  1.
<mgrwt>
<rscale>  1 0.64864497E+03</rscale>
<asrwt>0</asrwt>
<pdfrwt beam="1">  1        1 0.38249558E+00 0.64864497E+03</pdfrwt>
<pdfrwt beam="2">0</pdfrwt>
<totfact> 0.16002631E+00</totfact>
</mgrwt>
</event>
<event>
 6    1  0.3255736E-003  0.6319524E+03  0.7818608E-02  0.9841246E-01
          1   -1    0    0  502    0  0.00000000000E+00  0.00000000000E+00  0.10597658345E+03  0.10597658345E+03  0.00000000000E+00 0.  1.
         13   -1    0    0    0    0 -0.00000000000E+00 -0.00000000000E+00 -0.10000000000E+04  0.10000000000E+04  0.00000000000E+00 0.  1.
    9000005    2    1    2  501    0 -0.11084708713E+00  0.11919974199E-01 -0.90015849457E+03  0.10998404926E+04  0.63195235681E+03 0.  0.
         13    1    3    3    0    0  0.59162641684E+02 -0.13622609392E+03  0.35300740348E+02  0.15265617939E+03  0.00000000000E+00 0.  1.
          1    1    3    3  501    0 -0.59273488771E+02  0.13623801390E+03 -0.93545923492E+03  0.94718431316E+03  0.00000000000E+00 0.  1.
         21    1    1    2  502  501  0.11084708713E+00 -0.11919974199E-01  0.61350780261E+01  0.61360909013E+01  0.00000000000E+00 0.  1.
<mgrwt>
<rscale>  1 0.63195237E+03</rscale>
<asrwt>0</asrwt>
<pdfrwt beam="1">  1        1 0.38537021E+00 0.63195237E+03</pdfrwt>
<pdfrwt beam="2">0</pdfrwt>
<totfact> 0.15589843E+00</totfact>
</mgrwt>
</event>
<event>
 6    1  0.3255736E-003  0.6573361E+03  0.7818608E-02  0.9793110E-01
          1   -1    0    0  502    0  0.00000000000E+00  0.00000000000E+00  0.10802483211E+03  0.10802483211E+03  0.00000000000E+00 0.  1.
         13   -1    0    0    0    0 -0.00000000000E+00 -0.00000000000E+00 -0.10000000000E+04  0.10000000000E+04  0.00000000000E+00 0.  1.
    9000005    2    1    2  501    0  0.12910099389E-03 -0.89359587179E-04 -0.89197730810E+03  0.11080226861E+04  0.65733610493E+03 0.  0.
         13    1    3    3    0    0  0.26629709952E+03 -0.16203561812E+03 -0.27038367153E+03  0.41264635777E+03  0.00000000000E+00 0.  1.
          1    1    3    3  501    0 -0.26629697042E+03  0.16203552877E+03 -0.62159363657E+03  0.69537632838E+03  0.00000000000E+00 0.  1.
         21    1    1    2  502  501 -0.12910099386E-03  0.89359587168E-04  0.21402098314E-02  0.21459613987E-02  0.00000000000E+00 0. -1.
<mgrwt>
<rscale>  1 0.65733610E+03</rscale>
<asrwt>0</asrwt>
<pdfrwt beam="1">  1        1 0.39281840E+00 0.65733610E+03</pdfrwt>
<pdfrwt beam="2">0</pdfrwt>
<totfact> 0.14380330E+00</totfact>
</mgrwt>
</event>
<event>
 6    1  0.3255736E-003  0.6578606E+03  0.7818608E-02  0.9792140E-01
          1   -1    0    0  502    0  0.00000000000E+00  0.00000000000E+00  0.11269821119E+03  0.11269821119E+03  0.00000000000E+00 0.  1.
         13   -1    0    0    0    0 -0.00000000000E+00 -0.00000000000E+00 -0.10000000000E+04  0.10000000000E+04  0.00000000000E+00 0.  1.
    9000005    2    1    2  501    0 -0.68953452405E+01 -0.18654326006E+00 -0.88866194581E+03  0.11056675205E+04  0.65782446853E+03 0.  0.
         13    1    3    3    0    0 -0.83221731043E+01  0.31369903251E+03 -0.60975756422E+03  0.68577009900E+03  0.00000000000E+00 0.  1.
          3    1    3    3  501    0  0.14268278639E+01 -0.31388557577E+03 -0.27890438159E+03  0.41989742151E+03  0.00000000000E+00 0.  1.
         21    1    1    2  502  501  0.68953452405E+01  0.18654326006E+00  0.13601570053E+01  0.70306906810E+01  0.00000000000E+00 0.  1.
<mgrwt>
<rscale>  1 0.65786063E+03</rscale>
<asrwt>0</asrwt>
<pdfrwt beam="1">  1        1 0.40981254E+00 0.65786063E+03</pdfrwt>
<pdfrwt beam="2">0</pdfrwt>
<totfact> 0.12075336E+00</totfact>
</mgrwt>
</event>
<event>
 6    1  0.3255736E-003  0.6503514E+03  0.7818608E-02  0.9806120E-01
          1   -1    0    0  502    0  0.00000000000E+00  0.00000000000E+00  0.10573932152E+03  0.10573932152E+03  0.00000000000E+00 0.  1.
         13   -1    0    0    0    0 -0.00000000000E+00 -0.00000000000E+00 -0.10000000000E+04  0.10000000000E+04  0.00000000000E+00 0.  1.
    9000005    2    1    2  501    0  0.48781038799E-05 -0.75336745908E-05 -0.89426077219E+03  0.11057392274E+04  0.65035137450E+03 0.  0.
         13    1    3    3    0    0  0.22308738224E+03  0.23254999420E+03 -0.37318072476E+03  0.49306321425E+03  0.00000000000E+00 0.  1.
          1    1    3    3  501    0 -0.22308737736E+03 -0.23255000174E+03 -0.52108004743E+03  0.61267601314E+03  0.00000000000E+00 0.  1.
         21    1    1    2  502  501 -0.48781038847E-05  0.75336745909E-05  0.93710701193E-04  0.94139511728E-04  0.00000000000E+00 0.  1.
<mgrwt>
<rscale>  1 0.65035137E+03</rscale>
<asrwt>0</asrwt>
<pdfrwt beam="1">  1        1 0.38450743E+00 0.65035137E+03</pdfrwt>
<pdfrwt beam="2">0</pdfrwt>
<totfact> 0.15673375E+00</totfact>
</mgrwt>
</event>
<event>
 6    1  0.3255736E-003  0.6430276E+03  0.7818608E-02  0.9819951E-01
          1   -1    0    0  502    0  0.00000000000E+00  0.00000000000E+00  0.10337282029E+03  0.10337282029E+03  0.00000000000E+00 0.  1.
         13   -1    0    0    0    0 -0.00000000000E+00 -0.00000000000E+00 -0.10000000000E+04  0.10000000000E+04  0.00000000000E+00 0.  1.
    9000005    2    1    2  501    0  0.11872974687E-02 -0.20435225133E-02 -0.89662793620E+03  0.11033703388E+04  0.64302756434E+03 0.  0.
         13    1    3    3    0    0  0.98771069712E+02 -0.16009730353E+03 -0.89571625287E+03  0.91525650856E+03  0.00000000000E+00 0.  1.
          1    1    3    3  501    0 -0.98769882414E+02  0.16009526001E+03 -0.91168333210E+00  0.18811383021E+03  0.00000000000E+00 0.  1.
         21    1    1    2  502  501 -0.11872974687E-02  0.20435225133E-02  0.75649600229E-03  0.24815208529E-02  0.00000000000E+00 0.  1.
<mgrwt>
<rscale>  1 0.64302756E+03</rscale>
<asrwt>0</asrwt>
<pdfrwt beam="1">  1        1 0.37590196E+00 0.64302756E+03</pdfrwt>
<pdfrwt beam="2">0</pdfrwt>
<totfact> 0.17128568E+00</totfact>
</mgrwt>
</event>
<event>
 6    1  0.3255736E-003  0.6464583E+03  0.7818608E-02  0.9813448E-01
          1   -1    0    0  502    0  0.00000000000E+00  0.00000000000E+00  0.10447758432E+03  0.10447758432E+03  0.00000000000E+00 0.  1.
         13   -1    0    0    0    0 -0.00000000000E+00 -0.00000000000E+00 -0.10000000000E+04  0.10000000000E+04  0.00000000000E+00 0.  1.
    9000005    2    1    2  501    0 -0.42121197652E-04 -0.90363337506E-05 -0.89552293099E+03  0.11044770672E+04  0.64645825238E+03 0.  0.
         13    1    3    3    0    0 -0.23844795751E+03  0.20033736401E+03 -0.29995272105E+03  0.43239348136E+03  0.00000000000E+00 0.  1.
          1    1    3    3  501    0  0.23844791539E+03 -0.20033737305E+03 -0.59557020994E+03  0.67208358585E+03  0.00000000000E+00 0.  1.
         21    1    1    2  502  501  0.42121197632E-04  0.90363337415E-05  0.51530520734E-03  0.51710280151E-03  0.00000000000E+00 0. -1.
<mgrwt>
<rscale>  1 0.64645825E+03</rscale>
<asrwt>0</asrwt>
<pdfrwt beam="1">  1        1 0.37991929E+00 0.64645825E+03</pdfrwt>
<pdfrwt beam="2">0</pdfrwt>
<totfact> 0.16433879E+00</totfact>
</mgrwt>
</event>
<event>
 6    1  0.3255736E-003  0.6591173E+03  0.7818608E-02  0.9789820E-01
          1   -1    0    0  502    0  0.00000000000E+00  0.00000000000E+00  0.10864524676E+03  0.10864524676E+03  0.00000000000E+00 0.  1.
         13   -1    0    0    0    0 -0.00000000000E+00 -0.00000000000E+00 -0.10000000000E+04  0.10000000000E+04  0.00000000000E+00 0.  1.
    9000005    2    1    2  501    0 -0.40567683810E-02  0.13866868262E-02 -0.89139094697E+03  0.11086088000E+04  0.65911732724E+03 0.  0.
         13    1    3    3    0    0  0.18333727759E+03  0.24134801932E+03 -0.22803136932E+03  0.37928845116E+03  0.00000000000E+00 0.  1.
          1    1    3    3  501    0 -0.18334133436E+03 -0.24134663264E+03 -0.66335957765E+03  0.72932034884E+03  0.00000000000E+00 0.  1.
         21    1    1    2  502  501  0.40567683811E-02 -0.13866868262E-02  0.36193734892E-01  0.36446765501E-01  0.00000000000E+00 0.  1.
<mgrwt>
<rscale>  1 0.65911733E+03</rscale>
<asrwt>0</asrwt>
<pdfrwt beam="1">  1        1 0.39507446E+00 0.65911733E+03</pdfrwt>
<pdfrwt beam="2">0</pdfrwt>
<totfact> 0.14047481E+00</totfact>
</mgrwt>
</event>
<event>
 6    1  0.3255736E-003  0.6384105E+03  0.7818608E-02  0.9828772E-01
          1   -1    0    0  502    0  0.00000000000E+00  0.00000000000E+00  0.11542527189E+03  0.11542527189E+03  0.00000000000E+00 0.  1.
         13   -1    0    0    0    0 -0.00000000000E+00 -0.00000000000E+00 -0.10000000000E+04  0.10000000000E+04  0.00000000000E+00 0.  1.
    9000005    2    1    2  501    0  0.20967514512E+02  0.31263563949E+02 -0.85751504856E+03  0.10690650157E+04  0.63729969575E+03 0.  0.
         13    1    3    3    0    0 -0.70356645182E+02  0.25150417212E+03 -0.77329327862E+03  0.81620273271E+03  0.00000000000E+00 0.  1.
          3    1    3    3  501    0  0.91324159694E+02 -0.22024060817E+03 -0.84221769937E+02  0.25286228300E+03  0.00000000000E+00 0.  1.
         21    1    1    2  502  501 -0.20967514512E+02 -0.31263563949E+02 -0.27059679556E+02  0.46360256182E+02  0.00000000000E+00 0. -1.
<mgrwt>
<rscale>  1 0.63841049E+03</rscale>
<asrwt>0</asrwt>
<pdfrwt beam="1">  1        1 0.41972915E+00 0.63841049E+03</pdfrwt>
<pdfrwt beam="2">0</pdfrwt>
<totfact> 0.10939060E+00</totfact>
</mgrwt>
</event>
<event>
 6    1  0.3255736E-003  0.6415494E+03  0.7818608E-02  0.9822767E-01
          1   -1    0    0  502    0  0.00000000000E+00  0.00000000000E+00  0.10289640308E+03  0.10289640308E+03  0.00000000000E+00 0.  1.
         13   -1    0    0    0    0 -0.00000000000E+00 -0.00000000000E+00 -0.10000000000E+04  0.10000000000E+04  0.00000000000E+00 0.  1.
    9000005    2    1    2  501    0  0.10776472266E-05 -0.11037915186E-05 -0.89710360515E+03  0.11028963947E+04  0.64154935827E+03 0.  0.
         13    1    3    3    0    0  0.14580391931E+03  0.10369671053E+03  0.91478695255E+01  0.17915209789E+03  0.00000000000E+00 0.  1.
          3    1    3    3  501    0 -0.14580391823E+03 -0.10369671164E+03 -0.90625147467E+03  0.92374429683E+03  0.00000000000E+00 0.  1.
         21    1    1    2  502  501 -0.10776472313E-05  0.11037915062E-05  0.82250589262E-05  0.83684690108E-05  0.00000000000E+00 0. -1.
<mgrwt>
<rscale>  1 0.64154936E+03</rscale>
<asrwt>0</asrwt>
<pdfrwt beam="1">  1        1 0.37416953E+00 0.64154936E+03</pdfrwt>
<pdfrwt beam="2">0</pdfrwt>
<totfact> 0.17436708E+00</totfact>
</mgrwt>
</event>
<event>
 6    1  0.3255736E-003  0.6483961E+03  0.7818608E-02  0.9809793E-01
          1   -1    0    0  502    0  0.00000000000E+00  0.00000000000E+00  0.11920047868E+03  0.11920047868E+03  0.00000000000E+00 0.  1.
         13   -1    0    0    0    0 -0.00000000000E+00 -0.00000000000E+00 -0.10000000000E+04  0.10000000000E+04  0.00000000000E+00 0.  1.
    9000005    2    1    2  501    0  0.13905161340E+00 -0.36802807152E+00 -0.89489258372E+03  0.11051019260E+04  0.64839600220E+03 0.  0.
         13    1    3    3    0    0  0.22991210493E+03 -0.50120693338E+02 -0.82783279764E+03  0.86062698118E+03  0.00000000000E+00 0.  1.
          1    1    3    3  501    0 -0.22977305332E+03  0.49752665266E+02 -0.67059786083E+02  0.24447494482E+03  0.00000000000E+00 0.  1.
         21    1    1    2  502  501 -0.13905161340E+00  0.36802807152E+00  0.14093062395E+02  0.14098552681E+02  0.00000000000E+00 0. -1.
<mgrwt>
<rscale>  1 0.64839612E+03</rscale>
<asrwt>0</asrwt>
<pdfrwt beam="1">  1        1 0.43345720E+00 0.64839612E+03</pdfrwt>
<pdfrwt beam="2">0</pdfrwt>
<totfact> 0.94610628E-01</totfact>
</mgrwt>
</event>
<event>
 6    1  0.3255736E-003  0.6538569E+03  0.7818608E-02  0.9799569E-01
          1   -1    0    0  502    0  0.00000000000E+00  0.00000000000E+00  0.10688794057E+03  0.10688794057E+03  0.00000000000E+00 0.  1.
         13   -1    0    0    0    0 -0.00000000000E+00 -0.00000000000E+00 -0.10000000000E+04  0.10000000000E+04  0.00000000000E+00 0.  1.
    9000005    2    1    2  501    0 -0.29325736750E-03 -0.42467213240E-03 -0.89311776068E+03  0.11068822160E+04  0.65385694589E+03 0.  0.
         13    1    3    3    0    0 -0.23458935113E+03  0.12218833412E+03 -0.12128439340E+03  0.29098463317E+03  0.00000000000E+00 0.  1.
          3    1    3    3  501    0  0.23458905788E+03 -0.12218875879E+03 -0.77183336727E+03  0.81589758284E+03  0.00000000000E+00 0.  1.
         21    1    1    2  502  501  0.29325736750E-03  0.42467213239E-03  0.57012445150E-02  0.57245554695E-02  0.00000000000E+00 0.  1.
<mgrwt>
<rscale>  1 0.65385695E+03</rscale>
<asrwt>0</asrwt>
<pdfrwt beam="1">  1        1 0.38868424E+00 0.65385695E+03</pdfrwt>
<pdfrwt beam="2">0</pdfrwt>
<totfact> 0.15010348E+00</totfact>
</mgrwt>
</event>
<event>
 6    1  0.3255736E-003  0.5953210E+03  0.7818608E-02  0.9915161E-01
          1   -1    0    0  502    0  0.00000000000E+00  0.00000000000E+00  0.89408940819E+02  0.89408940819E+02  0.00000000000E+00 0.  1.
         13   -1    0    0    0    0 -0.00000000000E+00 -0.00000000000E+00 -0.10000000000E+04  0.10000000000E+04  0.00000000000E+00 0.  1.
    9000005    2    1    2  501    0  0.63928348147E+00  0.49570205328E+00 -0.91117242083E+03  0.10884127555E+04  0.59532049466E+03 0.  0.
         13    1    3    3    0    0  0.17092581388E+03  0.23468551720E+03 -0.33305446805E+03  0.44183504221E+03  0.00000000000E+00 0.  1.
          3    1    3    3  501    0 -0.17028653039E+03 -0.23418981515E+03 -0.57811795278E+03  0.64657771326E+03  0.00000000000E+00 0.  1.
         21    1    1    2  502  501 -0.63928348147E+00 -0.49570205328E+00  0.58136165222E+00  0.99618535724E+00  0.00000000000E+00 0. -1.
<mgrwt>
<rscale>  1 0.59532104E+03</rscale>
<asrwt>0</asrwt>
<pdfrwt beam="1">  1        1 0.32512411E+00 0.59532104E+03</pdfrwt>
<pdfrwt beam="2">0</pdfrwt>
<totfact> 0.28763691E+00</totfact>
</mgrwt>
</event>
<event>
 6    1  0.3255736E-003  0.6467369E+03  0.7818608E-02  0.9812921E-01
          1   -1    0    0  502    0  0.00000000000E+00  0.00000000000E+00  0.10461343051E+03  0.10461343051E+03  0.00000000000E+00 0.  1.
         13   -1    0    0    0    0 -0.00000000000E+00 -0.00000000000E+00 -0.10000000000E+04  0.10000000000E+04  0.00000000000E+00 0.  1.
    9000005    2    1    2  501    0  0.97435159418E-02 -0.83236117057E-01 -0.89538652613E+03  0.11045296260E+04  0.64673692997E+03 0.  0.
         13    1    3    3    0    0  0.27214783733E+03 -0.87509208157E+02 -0.18952516810E+03  0.34298993603E+03  0.00000000000E+00 0.  1.
          3    1    3    3  501    0 -0.27213809381E+03  0.87425972040E+02 -0.70586135804E+03  0.76153969001E+03  0.00000000000E+00 0.  1.
         21    1    1    2  502  501 -0.97435159418E-02  0.83236117057E-01 -0.43359840812E-04  0.83804469844E-01  0.00000000000E+00 0. -1.
<mgrwt>
<rscale>  1 0.64673694E+03</rscale>
<asrwt>0</asrwt>
<pdfrwt beam="1">  1        1 0.38041328E+00 0.64673694E+03</pdfrwt>
<pdfrwt beam="2">0</pdfrwt>
<totfact> 0.16350765E+00</totfact>
</mgrwt>
</event>
<event>
 6    1  0.3255736E-003  0.6779154E+03  0.7818608E-02  0.9755763E-01
          1   -1    0    0  502    0  0.00000000000E+00  0.00000000000E+00  0.11489454052E+03  0.11489454052E+03  0.00000000000E+00 0.  1.
         13   -1    0    0    0    0 -0.00000000000E+00 -0.00000000000E+00 -0.10000000000E+04  0.10000000000E+04  0.00000000000E+00 0.  1.
    9000005    2    1    2  501    0 -0.95190126075E-04  0.13667947960E-03 -0.88510766495E+03  0.11148923288E+04  0.67791542704E+03 0.  0.
         13    1    3    3    0    0  0.17472282925E+03  0.11464044553E+03 -0.88145221256E+03  0.90588547943E+03  0.00000000000E+00 0.  1.
          1    1    3    3  501    0 -0.17472292444E+03 -0.11464030885E+03 -0.36554523828E+01  0.20900684934E+03  0.00000000000E+00 0.  1.
         21    1    1    2  502  501  0.95190126071E-04 -0.13667947960E-03  0.22054690452E-02  0.22117495675E-02  0.00000000000E+00 0. -1.
<mgrwt>
<rscale>  1 0.67791543E+03</rscale>
<asrwt>0</asrwt>
<pdfrwt beam="1">  1        1 0.41779921E+00 0.67791543E+03</pdfrwt>
<pdfrwt beam="2">0</pdfrwt>
<totfact> 0.11074696E+00</totfact>
</mgrwt>
</event>
<event>
 6    1  0.3255736E-003  0.6500345E+03  0.7818608E-02  0.9806714E-01
          1   -1    0    0  502    0  0.00000000000E+00  0.00000000000E+00  0.10563706602E+03  0.10563706602E+03  0.00000000000E+00 0.  1.
         13   -1    0    0    0    0 -0.00000000000E+00 -0.00000000000E+00 -0.10000000000E+04  0.10000000000E+04  0.00000000000E+00 0.  1.
    9000005    2    1    2  501    0  0.11780172878E-02  0.21255838425E-03 -0.89436330614E+03  0.11056358125E+04  0.65003448095E+03 0.  0.
         13    1    3    3    0    0  0.29704111441E+02  0.31766422015E+03 -0.55262894077E+03  0.63811569263E+03  0.00000000000E+00 0.  1.
          3    1    3    3  501    0 -0.29702933424E+02 -0.31766400759E+03 -0.34173436537E+03  0.46752011983E+03  0.00000000000E+00 0.  1.
         21    1    1    2  502  501 -0.11780172878E-02 -0.21255838423E-03  0.37215870311E-03  0.12535580949E-02  0.00000000000E+00 0. -1.
<mgrwt>
<rscale>  1 0.65003448E+03</rscale>
<asrwt>0</asrwt>
<pdfrwt beam="1">  1        1 0.38413560E+00 0.65003448E+03</pdfrwt>
<pdfrwt beam="2">0</pdfrwt>
<totfact> 0.15733745E+00</totfact>
</mgrwt>
</event>
<event>
 6    1  0.3255736E-003  0.6370532E+03  0.7818608E-02  0.9831381E-01
          1   -1    0    0  502    0  0.00000000000E+00  0.00000000000E+00  0.10145921043E+03  0.10145921043E+03  0.00000000000E+00 0.  1.
         13   -1    0    0    0    0 -0.00000000000E+00 -0.00000000000E+00 -0.10000000000E+04  0.10000000000E+04  0.00000000000E+00 0.  1.
    9000005    2    1    2  501    0  0.22696187102E-04 -0.37741098026E-04 -0.89854078995E+03  0.11014591664E+04  0.63705317205E+03 0.  0.
         13    1    3    3    0    0 -0.41818051369E+02  0.29296292623E+03 -0.24554894472E+03  0.38453908750E+03  0.00000000000E+00 0.  1.
          1    1    3    3  501    0  0.41818074065E+02 -0.29296296397E+03 -0.65299184524E+03  0.71692007889E+03  0.00000000000E+00 0.  1.
         21    1    1    2  502  501 -0.22696187098E-04  0.37741098025E-04  0.38768318170E-06  0.44041545013E-04  0.00000000000E+00 0. -1.
<mgrwt>
<rscale>  1 0.63705317E+03</rscale>
<asrwt>0</asrwt>
<pdfrwt beam="1">  1        1 0.36894336E+00 0.63705317E+03</pdfrwt>
<pdfrwt beam="2">0</pdfrwt>
<totfact> 0.18398789E+00</totfact>
</mgrwt>
</event>
<event>
 6    1  0.3255736E-003  0.6473298E+03  0.7818608E-02  0.9811803E-01
          1   -1    0    0  502    0  0.00000000000E+00  0.00000000000E+00  0.10475922051E+03  0.10475922051E+03  0.00000000000E+00 0.  1.
         13   -1    0    0    0    0 -0.00000000000E+00 -0.00000000000E+00 -0.10000000000E+04  0.10000000000E+04  0.00000000000E+00 0.  1.
    9000005    2    1    2  501    0  0.36631541635E-04 -0.36474551109E-04 -0.89524103821E+03  0.11047589567E+04  0.64732977364E+03 0.  0.
         13    1    3    3    0    0  0.45243725458E+01  0.31425313314E+03 -0.31560721011E+03  0.44540252885E+03  0.00000000000E+00 0.  1.
          3    1    3    3  501    0 -0.45243359142E+01 -0.31425316961E+03 -0.57963382810E+03  0.65935642782E+03  0.00000000000E+00 0.  1.
         21    1    1    2  502  501 -0.36631541634E-04  0.36474551109E-04  0.25872759003E-03  0.26384129427E-03  0.00000000000E+00 0.  1.
<mgrwt>
<rscale>  1 0.64732977E+03</rscale>
<asrwt>0</asrwt>
<pdfrwt beam="1">  1        1 0.38094342E+00 0.64732977E+03</pdfrwt>
<pdfrwt beam="2">0</pdfrwt>
<totfact> 0.16261133E+00</totfact>
</mgrwt>
</event>
<event>
 6    1  0.3255736E-003  0.6078866E+03  0.7818608E-02  0.9889178E-01
          1   -1    0    0  502    0  0.00000000000E+00  0.00000000000E+00  0.92393328330E+02  0.92393328330E+02  0.00000000000E+00 0.  1.
         13   -1    0    0    0    0 -0.00000000000E+00 -0.00000000000E+00 -0.10000000000E+04  0.10000000000E+04  0.00000000000E+00 0.  1.
    9000005    2    1    2  501    0  0.12509003075E-02  0.33128476875E-02 -0.90761818563E+03  0.10923812821E+04  0.60788658041E+03 0.  0.
         13    1    3    3    0    0  0.45276727000E+02  0.13836296398E+03 -0.93327249566E+03  0.94455907330E+03  0.00000000000E+00 0.  1.
          1    1    3    3  501    0 -0.45275476100E+02 -0.13835965114E+03  0.25654310026E+02  0.14782220882E+03  0.00000000000E+00 0.  1.
         21    1    1    2  502  501 -0.12509003075E-02 -0.33128476875E-02  0.11513961609E-01  0.12046203689E-01  0.00000000000E+00 0. -1.
<mgrwt>
<rscale>  1 0.60788658E+03</rscale>
<asrwt>0</asrwt>
<pdfrwt beam="1">  1        1 0.33597645E+00 0.60788658E+03</pdfrwt>
<pdfrwt beam="2">0</pdfrwt>
<totfact> 0.25755182E+00</totfact>
</mgrwt>
</event>
<event>
 6    1  0.3255736E-003  0.6498084E+03  0.7818608E-02  0.9807139E-01
          1   -1    0    0  502    0  0.00000000000E+00  0.00000000000E+00  0.10790408690E+03  0.10790408690E+03  0.00000000000E+00 0.  1.
         13   -1    0    0    0    0 -0.00000000000E+00 -0.00000000000E+00 -0.10000000000E+04  0.10000000000E+04  0.00000000000E+00 0.  1.
    9000005    2    1    2  501    0  0.68802747825E-01 -0.50527967198E-01 -0.89443638981E+03  0.11055620540E+04  0.64980842755E+03 0.  0.
         13    1    3    3    0    0  0.23413133887E+03  0.28838465125E+01 -0.83054267625E+03  0.86291768871E+03  0.00000000000E+00 0.  1.
          1    1    3    3  501    0 -0.23406253612E+03 -0.29343744797E+01 -0.63893713561E+02  0.24264436528E+03  0.00000000000E+00 0.  1.
         21    1    1    2  502  501 -0.68802747825E-01  0.50527967198E-01  0.23404767178E+01  0.23420329119E+01  0.00000000000E+00 0.  1.
<mgrwt>
<rscale>  1 0.64980843E+03</rscale>
<asrwt>0</asrwt>
<pdfrwt beam="1">  1        1 0.39237933E+00 0.64980843E+03</pdfrwt>
<pdfrwt beam="2">0</pdfrwt>
<totfact> 0.14465346E+00</totfact>
</mgrwt>
</event>
<event>
 6    1  0.3255736E-003  0.5662597E+03  0.7818608E-02  0.9977990E-01
          1   -1    0    0  502    0  0.00000000000E+00  0.00000000000E+00  0.80162738336E+02  0.80162738336E+02  0.00000000000E+00 0.  1.
         13   -1    0    0    0    0 -0.00000000000E+00 -0.00000000000E+00 -0.10000000000E+04  0.10000000000E+04  0.00000000000E+00 0.  1.
    9000005    2    1    2  501    0  0.29909988254E-03  0.14589639342E-03 -0.91983735583E+03  0.10801623925E+04  0.56625968686E+03 0.  0.
         13    1    3    3    0    0 -0.23705179141E+03 -0.11216596051E+03 -0.66347764725E+03  0.71342648038E+03  0.00000000000E+00 0.  1.
          3    1    3    3  501    0  0.23705209051E+03  0.11216610641E+03 -0.25635970858E+03  0.36673591210E+03  0.00000000000E+00 0.  1.
         21    1    1    2  502  501 -0.29909988252E-03 -0.14589639342E-03  0.94165319661E-04  0.34585199835E-03  0.00000000000E+00 0.  1.
<mgrwt>
<rscale>  1 0.56625969E+03</rscale>
<asrwt>0</asrwt>
<pdfrwt beam="1">  1        1 0.29150148E+00 0.56625969E+03</pdfrwt>
<pdfrwt beam="2">0</pdfrwt>
<totfact> 0.40388180E+00</totfact>
</mgrwt>
</event>
<event>
 6    1  0.3255736E-003  0.6490775E+03  0.7818608E-02  0.9808512E-01
          1   -1    0    0  502    0  0.00000000000E+00  0.00000000000E+00  0.10532542997E+03  0.10532542997E+03  0.00000000000E+00 0.  1.
         13   -1    0    0    0    0 -0.00000000000E+00 -0.00000000000E+00 -0.10000000000E+04  0.10000000000E+04  0.00000000000E+00 0.  1.
    9000005    2    1    2  501    0 -0.12915923037E-04 -0.10287371595E-05 -0.89467458479E+03  0.11053254103E+04  0.64907753779E+03 0.  0.
         13    1    3    3    0    0 -0.16162283693E+03  0.10600070911E+03 -0.33774877576E+01  0.19331192197E+03  0.00000000000E+00 0.  1.
          3    1    3    3  501    0  0.16162282402E+03 -0.10600071014E+03 -0.89129709703E+03  0.91201348837E+03  0.00000000000E+00 0.  1.
         21    1    1    2  502  501  0.12915923051E-04  0.10287371724E-05  0.14756218066E-04  0.19637345545E-04  0.00000000000E+00 0. -1.
<mgrwt>
<rscale>  1 0.64907754E+03</rscale>
<asrwt>0</asrwt>
<pdfrwt beam="1">  1        1 0.38300237E+00 0.64907754E+03</pdfrwt>
<pdfrwt beam="2">0</pdfrwt>
<totfact> 0.15919068E+00</totfact>
</mgrwt>
</event>
<event>
 6    1  0.3255736E-003  0.6530257E+03  0.7818608E-02  0.9801118E-01
          1   -1    0    0  502    0  0.00000000000E+00  0.00000000000E+00  0.10662615576E+03  0.10662615576E+03  0.00000000000E+00 0.  1.
         13   -1    0    0    0    0 -0.00000000000E+00 -0.00000000000E+00 -0.10000000000E+04  0.10000000000E+04  0.00000000000E+00 0.  1.
    9000005    2    1    2  501    0 -0.90605300443E-03  0.43459463308E-03 -0.89338933083E+03  0.11066106366E+04  0.65302573044E+03 0.  0.
         13    1    3    3    0    0  0.12237551026E+03 -0.24302874108E+03 -0.14086091899E+03  0.30639930320E+03  0.00000000000E+00 0.  1.
          3    1    3    3  501    0 -0.12237641631E+03  0.24302917567E+03 -0.75252841184E+03  0.80021133341E+03  0.00000000000E+00 0.  1.
         21    1    1    2  502  501  0.90605300442E-03 -0.43459463306E-03  0.15486584187E-01  0.15519152500E-01  0.00000000000E+00 0. -1.
<mgrwt>
<rscale>  1 0.65302573E+03</rscale>
<asrwt>0</asrwt>
<pdfrwt beam="1">  1        1 0.38773229E+00 0.65302573E+03</pdfrwt>
<pdfrwt beam="2">0</pdfrwt>
<totfact> 0.15159165E+00</totfact>
</mgrwt>
</event>
<event>
 6    1  0.3255736E-003  0.6471345E+03  0.7818608E-02  0.9812171E-01
          1   -1    0    0  502    0  0.00000000000E+00  0.00000000000E+00  0.10469589113E+03  0.10469589113E+03  0.00000000000E+00 0.  1.
         13   -1    0    0    0    0 -0.00000000000E+00 -0.00000000000E+00 -0.10000000000E+04  0.10000000000E+04  0.00000000000E+00 0.  1.
    9000005    2    1    2  501    0  0.67295730695E-05 -0.15068221501E-04 -0.89530423301E+03  0.11046957659E+04  0.64713450343E+03 0.  0.
         13    1    3    3    0    0  0.25039009431E+02 -0.27692040945E+03 -0.16516684211E+03  0.32340678858E+03  0.00000000000E+00 0.  1.
          3    1    3    3  501    0 -0.25039002702E+02  0.27692039439E+03 -0.73013739090E+03  0.78128897731E+03  0.00000000000E+00 0.  1.
         21    1    1    2  502  501 -0.67295730706E-05  0.15068221499E-04  0.12414617623E-03  0.12523821911E-03  0.00000000000E+00 0. -1.
<mgrwt>
<rscale>  1 0.64713450E+03</rscale>
<asrwt>0</asrwt>
<pdfrwt beam="1">  1        1 0.38071313E+00 0.64713450E+03</pdfrwt>
<pdfrwt beam="2">0</pdfrwt>
<totfact> 0.16299824E+00</totfact>
</mgrwt>
</event>
<event>
 6    1  0.3255736E-003  0.6355400E+03  0.7818608E-02  0.9834297E-01
          1   -1    0    0  502    0  0.00000000000E+00  0.00000000000E+00  0.10539461544E+03  0.10539461544E+03  0.00000000000E+00 0.  1.
         13   -1    0    0    0    0 -0.00000000000E+00 -0.00000000000E+00 -0.10000000000E+04  0.10000000000E+04  0.00000000000E+00 0.  1.
    9000005    2    1    2  501    0  0.13037256122E+01 -0.13648437914E+02 -0.87742948254E+03  0.10834175554E+04  0.63539210175E+03 0.  0.
         13    1    3    3    0    0 -0.20817557124E+02 -0.16460210280E+03 -0.91201252308E+03  0.92698115687E+03  0.00000000000E+00 0.  1.
          1    1    3    3  501    0  0.22121282736E+02  0.15095366489E+03  0.34583040541E+02  0.15643639853E+03  0.00000000000E+00 0.  1.
         21    1    1    2  502  501 -0.13037256122E+01  0.13648437914E+02 -0.17175902018E+02  0.21977060042E+02  0.00000000000E+00 0. -1.
<mgrwt>
<rscale>  1 0.63554001E+03</rscale>
<asrwt>0</asrwt>
<pdfrwt beam="1">  1        1 0.38325396E+00 0.63554001E+03</pdfrwt>
<pdfrwt beam="2">0</pdfrwt>
<totfact> 0.15918409E+00</totfact>
</mgrwt>
</event>
<event>
 6    1  0.3255736E-003  0.6170569E+03  0.7818608E-02  0.9870637E-01
          3   -1    0    0  502    0  0.00000000000E+00  0.00000000000E+00  0.95280270597E+02  0.95280270597E+02  0.00000000000E+00 0.  1.
         13   -1    0    0    0    0 -0.00000000000E+00 -0.00000000000E+00 -0.10000000000E+04  0.10000000000E+04  0.00000000000E+00 0.  1.
    9000005    2    1    2  501    0 -0.51048646058E-03 -0.13811428219E-02 -0.90481017457E+03  0.10951898134E+04  0.61705694669E+03 0.  0.
         13    1    3    3    0    0  0.51466937694E+02  0.18642544238E+03 -0.87905896434E+03  0.90008219293E+03  0.00000000000E+00 0.  1.
          3    1    3    3  501    0 -0.51467448181E+02 -0.18642682353E+03 -0.25751210226E+02  0.19510762051E+03  0.00000000000E+00 0.  1.
         21    1    1    2  502  501  0.51048646058E-03  0.13811428219E-02  0.90445168426E-01  0.90457153633E-01  0.00000000000E+00 0. -1.
<mgrwt>
<rscale>  1 0.61705695E+03</rscale>
<asrwt>0</asrwt>
<pdfrwt beam="1">  1        3 0.34647444E+00 0.61705695E+03</pdfrwt>
<pdfrwt beam="2">0</pdfrwt>
<totfact> 0.11430720E-01</totfact>
</mgrwt>
</event>
<event>
 6    1  0.3255736E-003  0.6463842E+03  0.7818608E-02  0.9813588E-01
          3   -1    0    0  502    0  0.00000000000E+00  0.00000000000E+00  0.12292545000E+03  0.12292545000E+03  0.00000000000E+00 0.  1.
         13   -1    0    0    0    0 -0.00000000000E+00 -0.00000000000E+00 -0.10000000000E+04  0.10000000000E+04  0.00000000000E+00 0.  1.
    9000005    2    1    2  501    0 -0.79673447045E+01  0.11152273865E+02 -0.89269659602E+03  0.11021432433E+04  0.64623886017E+03 0.  0.
         13    1    3    3    0    0  0.23840028991E+03 -0.20817180635E+03 -0.43108620775E+03  0.53479483702E+03  0.00000000000E+00 0.  1.
          3    1    3    3  501    0 -0.24636763461E+03  0.21932408021E+03 -0.46161038827E+03  0.56734840627E+03  0.00000000000E+00 0.  1.
         21    1    1    2  502  501  0.79673447045E+01 -0.11152273865E+02  0.15622046016E+02  0.20782206709E+02  0.00000000000E+00 0. -1.
<mgrwt>
<rscale>  1 0.64638419E+03</rscale>
<asrwt>0</asrwt>
<pdfrwt beam="1">  1        3 0.44700258E+00 0.64638419E+03</pdfrwt>
<pdfrwt beam="2">0</pdfrwt>
<totfact> 0.33886711E-02</totfact>
</mgrwt>
</event>
<event>
 6    1  0.3255736E-003  0.6312900E+03  0.7818608E-02  0.9842535E-01
          1   -1    0    0  502    0  0.00000000000E+00  0.00000000000E+00  0.99631894929E+02  0.99631894929E+02  0.00000000000E+00 0.  1.
         13   -1    0    0    0    0 -0.00000000000E+00 -0.00000000000E+00 -0.10000000000E+04  0.10000000000E+04  0.00000000000E+00 0.  1.
    9000005    2    1    2  501    0  0.43257903428E-05 -0.96407476633E-05 -0.90036822978E+03  0.10996317698E+04  0.63129001252E+03 0.  0.
         13    1    3    3    0    0  0.21062421387E+03 -0.17449362794E+03 -0.17575535484E+03  0.32511617987E+03  0.00000000000E+00 0.  1.
          1    1    3    3  501    0 -0.21062420954E+03  0.17449361830E+03 -0.72461287494E+03  0.77451558990E+03  0.00000000000E+00 0.  1.
         21    1    1    2  502  501 -0.43257903349E-05  0.96407476472E-05  0.12470788525E-03  0.12515475669E-03  0.00000000000E+00 0. -1.
<mgrwt>
<rscale>  1 0.63129001E+03</rscale>
<asrwt>0</asrwt>
<pdfrwt beam="1">  1        1 0.36229856E+00 0.63129001E+03</pdfrwt>
<pdfrwt beam="2">0</pdfrwt>
<totfact> 0.19695689E+00</totfact>
</mgrwt>
</event>
<event>
 6    1  0.3255736E-003  0.6596998E+03  0.7818608E-02  0.9788746E-01
          1   -1    0    0  502    0  0.00000000000E+00  0.00000000000E+00  0.10880110509E+03  0.10880110509E+03  0.00000000000E+00 0.  1.
         13   -1    0    0    0    0 -0.00000000000E+00 -0.00000000000E+00 -0.10000000000E+04  0.10000000000E+04  0.00000000000E+00 0.  1.
    9000005    2    1    2  501    0  0.70362858281E-04 -0.11515886106E-03 -0.89119899524E+03  0.11088009369E+04  0.65969983220E+03 0.  0.
         13    1    3    3    0    0  0.20504709033E+03  0.23205906000E+03 -0.25466241543E+03  0.40093473585E+03  0.00000000000E+00 0.  1.
          3    1    3    3  501    0 -0.20504701997E+03 -0.23205917516E+03 -0.63653657982E+03  0.70786620107E+03  0.00000000000E+00 0.  1.
         21    1    1    2  502  501 -0.70362858277E-04  0.11515886106E-03  0.10033857119E-03  0.16816754733E-03  0.00000000000E+00 0.  1.
<mgrwt>
<rscale>  1 0.65969983E+03</rscale>
<asrwt>0</asrwt>
<pdfrwt beam="1">  1        1 0.39564122E+00 0.65969983E+03</pdfrwt>
<pdfrwt beam="2">0</pdfrwt>
<totfact> 0.13964666E+00</totfact>
</mgrwt>
</event>
<event>
 6    1  0.3255736E-003  0.6843892E+03  0.7818608E-02  0.9744308E-01
          1   -1    0    0  502    0  0.00000000000E+00  0.00000000000E+00  0.11709817216E+03  0.11709817216E+03  0.00000000000E+00 0.  1.
         13   -1    0    0    0    0 -0.00000000000E+00 -0.00000000000E+00 -0.10000000000E+04  0.10000000000E+04  0.00000000000E+00 0.  1.
    9000005    2    1    2  501    0  0.75372344344E-03  0.20974994254E-03 -0.88290269826E+03  0.11170970018E+04  0.68438917061E+03 0.  0.
         13    1    3    3    0    0  0.17611759954E+03 -0.23478523632E+03 -0.72863408032E+03  0.78552475395E+03  0.00000000000E+00 0.  1.
          3    1    3    3  501    0 -0.17611684582E+03  0.23478544607E+03 -0.15426861794E+03  0.33157224786E+03  0.00000000000E+00 0.  1.
         21    1    1    2  502  501 -0.75372344344E-03 -0.20974994253E-03  0.87042323518E-03  0.11703549359E-02  0.00000000000E+00 0.  1.
<mgrwt>
<rscale>  1 0.68438917E+03</rscale>
<asrwt>0</asrwt>
<pdfrwt beam="1">  1        1 0.42581243E+00 0.68438917E+03</pdfrwt>
<pdfrwt beam="2">0</pdfrwt>
<totfact> 0.10175977E+00</totfact>
</mgrwt>
</event>
<event>
 6    1  0.3255736E-003  0.6410896E+03  0.7818608E-02  0.9823644E-01
          1   -1    0    0  502    0  0.00000000000E+00  0.00000000000E+00  0.10285007519E+03  0.10285007519E+03  0.00000000000E+00 0.  1.
         13   -1    0    0    0    0 -0.00000000000E+00 -0.00000000000E+00 -0.10000000000E+04  0.10000000000E+04  0.00000000000E+00 0.  1.
    9000005    2    1    2  501    0  0.41156344636E-01  0.20070139051E-01 -0.89724529853E+03  0.11027442792E+04  0.64108955489E+03 0.  0.
         13    1    3    3    0    0  0.26675496064E+03  0.63288351222E+02 -0.73440291538E+03  0.78390769007E+03  0.00000000000E+00 0.  1.
          1    1    3    3  501    0 -0.26671380430E+03 -0.63268281083E+02 -0.16284238315E+03  0.31883658909E+03  0.00000000000E+00 0.  1.
         21    1    1    2  502  501 -0.41156344636E-01 -0.20070139051E-01  0.95373718954E-01  0.10579603704E+00  0.00000000000E+00 0. -1.
<mgrwt>
<rscale>  1 0.64108956E+03</rscale>
<asrwt>0</asrwt>
<pdfrwt beam="1">  1        1 0.37400106E+00 0.64108956E+03</pdfrwt>
<pdfrwt beam="2">0</pdfrwt>
<totfact> 0.17467962E+00</totfact>
</mgrwt>
</event>
<event>
 6    1  0.3255736E-003  0.6469996E+03  0.7818608E-02  0.9812426E-01
          1   -1    0    0  502    0  0.00000000000E+00  0.00000000000E+00  0.10465386083E+03  0.10465386083E+03  0.00000000000E+00 0.  1.
         13   -1    0    0    0    0 -0.00000000000E+00 -0.00000000000E+00 -0.10000000000E+04  0.10000000000E+04  0.00000000000E+00 0.  1.
    9000005    2    1    2  501    0 -0.58466126254E-03  0.79124146339E-03 -0.89534772120E+03  0.11046519978E+04  0.64699960935E+03 0.  0.
         13    1    3    3    0    0 -0.16891589181E+03  0.18788952440E+03 -0.10273427580E+03  0.27274417191E+03  0.00000000000E+00 0.  1.
          1    1    3    3  501    0  0.16891530715E+03 -0.18788873316E+03 -0.79261344540E+03  0.83190782594E+03  0.00000000000E+00 0.  1.
         21    1    1    2  502  501  0.58466126253E-03 -0.79124146340E-03  0.15820250252E-02  0.18629801464E-02  0.00000000000E+00 0.  1.
<mgrwt>
<rscale>  1 0.64699961E+03</rscale>
<asrwt>0</asrwt>
<pdfrwt beam="1">  1        1 0.38056030E+00 0.64699961E+03</pdfrwt>
<pdfrwt beam="2">0</pdfrwt>
<totfact> 0.16325566E+00</totfact>
</mgrwt>
</event>
<event>
 6    1  0.3255736E-003  0.6633590E+03  0.7818608E-02  0.9782030E-01
          1   -1    0    0  502    0  0.00000000000E+00  0.00000000000E+00  0.11001631275E+03  0.11001631275E+03  0.00000000000E+00 0.  1.
         13   -1    0    0    0    0 -0.00000000000E+00 -0.00000000000E+00 -0.10000000000E+04  0.10000000000E+04  0.00000000000E+00 0.  1.
    9000005    2    1    2  501    0 -0.91632604267E-04 -0.47721576976E-04 -0.88998869929E+03  0.11100112996E+04  0.66335902832E+03 0.  0.
         13    1    3    3    0    0  0.21450017091E+03  0.23233859829E+03 -0.61249111558E+03  0.68930175848E+03  0.00000000000E+00 0.  1.
          3    1    3    3  501    0 -0.21450026254E+03 -0.23233864601E+03 -0.27749758371E+03  0.42070954116E+03  0.00000000000E+00 0.  1.
         21    1    1    2  502  501  0.91632604286E-04  0.47721576987E-04  0.50120462205E-02  0.50131109303E-02  0.00000000000E+00 0.  1.
<mgrwt>
<rscale>  1 0.66335903E+03</rscale>
<asrwt>0</asrwt>
<pdfrwt beam="1">  1        1 0.40006016E+00 0.66335903E+03</pdfrwt>
<pdfrwt beam="2">0</pdfrwt>
<totfact> 0.13336818E+00</totfact>
</mgrwt>
</event>
<event>
 6    1  0.3255736E-003  0.6415834E+03  0.7818608E-02  0.9822702E-01
          1   -1    0    0  502    0  0.00000000000E+00  0.00000000000E+00  0.10290740501E+03  0.10290740501E+03  0.00000000000E+00 0.  1.
         13   -1    0    0    0    0 -0.00000000000E+00 -0.00000000000E+00 -0.10000000000E+04  0.10000000000E+04  0.00000000000E+00 0.  1.
    9000005    2    1    2  501    0 -0.43452520572E-04  0.62647811404E-04 -0.89709267055E+03  0.11029072977E+04  0.64158339106E+03 0.  0.
         13    1    3    3    0    0 -0.13398846035E+03  0.16440077471E+03 -0.86228463490E+03  0.88798384772E+03  0.00000000000E+00 0.  1.
          3    1    3    3  501    0  0.13398841690E+03 -0.16440071206E+03 -0.34808035656E+02  0.21492344995E+03  0.00000000000E+00 0.  1.
         21    1    1    2  502  501  0.43452520561E-04 -0.62647811431E-04  0.75559288051E-04  0.10734093269E-03  0.00000000000E+00 0. -1.
<mgrwt>
<rscale>  1 0.64158339E+03</rscale>
<asrwt>0</asrwt>
<pdfrwt beam="1">  1        1 0.37420953E+00 0.64158339E+03</pdfrwt>
<pdfrwt beam="2">0</pdfrwt>
<totfact> 0.17429533E+00</totfact>
</mgrwt>
</event>
<event>
 6    1  0.3255736E-003  0.6607765E+03  0.7818608E-02  0.9786765E-01
          1   -1    0    0  502    0  0.00000000000E+00  0.00000000000E+00  0.10922511134E+03  0.10922511134E+03  0.00000000000E+00 0.  1.
         13   -1    0    0    0    0 -0.00000000000E+00 -0.00000000000E+00 -0.10000000000E+04  0.10000000000E+04  0.00000000000E+00 0.  1.
    9000005    2    1    2  501    0  0.26758353944E-02 -0.13714020423E-02 -0.89084355937E+03  0.11091563748E+04  0.66077652543E+03 0.  0.
         13    1    3    3    0    0 -0.23170579105E+03 -0.18052903882E+01 -0.50101689166E+02  0.23706752611E+03  0.00000000000E+00 0.  1.
          1    1    3    3  501    0  0.23170846689E+03  0.18039189862E+01 -0.84074187020E+03  0.87208884872E+03  0.00000000000E+00 0.  1.
         21    1    1    2  502  501 -0.26758353944E-02  0.13714020423E-02  0.68670713854E-01  0.68736509803E-01  0.00000000000E+00 0.  1.
<mgrwt>
<rscale>  1 0.66077653E+03</rscale>
<asrwt>0</asrwt>
<pdfrwt beam="1">  1        1 0.39718306E+00 0.66077653E+03</pdfrwt>
<pdfrwt beam="2">0</pdfrwt>
<totfact> 0.13743005E+00</totfact>
</mgrwt>
</event>
<event>
 6    1  0.3255736E-003  0.6532056E+03  0.7818608E-02  0.9800783E-01
          1   -1    0    0  502    0  0.00000000000E+00  0.00000000000E+00  0.10687385496E+03  0.10687385496E+03  0.00000000000E+00 0.  1.
         13   -1    0    0    0    0 -0.00000000000E+00 -0.00000000000E+00 -0.10000000000E+04  0.10000000000E+04  0.00000000000E+00 0.  1.
    9000005    2    1    2  501    0 -0.47820323887E-02 -0.23276248850E-03 -0.89333057469E+03  0.11066693693E+04  0.65320561629E+03 0.  0.
         13    1    3    3    0    0  0.13331412294E+03 -0.32210245860E+02  0.55516874104E+02  0.14796039546E+03  0.00000000000E+00 0.  1.
          3    1    3    3  501    0 -0.13331890497E+03  0.32210013097E+02 -0.94884744879E+03  0.95870897380E+03  0.00000000000E+00 0.  1.
         21    1    1    2  502  501  0.47820323887E-02  0.23276248850E-03  0.20442964779E+00  0.20448570343E+00  0.00000000000E+00 0.  1.
<mgrwt>
<rscale>  1 0.65320562E+03</rscale>
<asrwt>0</asrwt>
<pdfrwt beam="1">  1        1 0.38863302E+00 0.65320562E+03</pdfrwt>
<pdfrwt beam="2">0</pdfrwt>
<totfact> 0.15020007E+00</totfact>
</mgrwt>
</event>
<event>
 6    1  0.3255736E-003  0.6536253E+03  0.7818608E-02  0.9800000E-01
          1   -1    0    0  502    0  0.00000000000E+00  0.00000000000E+00  0.10705017560E+03  0.10705017560E+03  0.00000000000E+00 0.  1.
         13   -1    0    0    0    0 -0.00000000000E+00 -0.00000000000E+00 -0.10000000000E+04  0.10000000000E+04  0.00000000000E+00 0.  1.
    9000005    2    1    2  501    0  0.24567697175E-01  0.19458659747E-01 -0.89319239202E+03  0.11068055917E+04  0.65362525026E+03 0.  0.
         13    1    3    3    0    0  0.21962530779E+01 -0.59946731673E+02  0.97403731845E+02  0.11439371112E+03  0.00000000000E+00 0.  1.
          1    1    3    3  501    0 -0.21716853807E+01  0.59966190333E+02 -0.99059612386E+03  0.99241188063E+03  0.00000000000E+00 0.  1.
         21    1    1    2  502  501 -0.24567697175E-01 -0.19458659747E-01  0.24256761930E+00  0.24458385293E+00  0.00000000000E+00 0.  1.
<mgrwt>
<rscale>  1 0.65362525E+03</rscale>
<asrwt>0</asrwt>
<pdfrwt beam="1">  1        1 0.38927419E+00 0.65362525E+03</pdfrwt>
<pdfrwt beam="2">0</pdfrwt>
<totfact> 0.14920884E+00</totfact>
</mgrwt>
</event>
<event>
 6    1  0.3255736E-003  0.6431268E+03  0.7818608E-02  0.9819762E-01
          1   -1    0    0  502    0  0.00000000000E+00  0.00000000000E+00  0.10340380481E+03  0.10340380481E+03  0.00000000000E+00 0.  1.
         13   -1    0    0    0    0 -0.00000000000E+00 -0.00000000000E+00 -0.10000000000E+04  0.10000000000E+04  0.00000000000E+00 0.  1.
    9000005    2    1    2  501    0 -0.28000385598E-04  0.92399971111E-04 -0.89659698586E+03  0.11034030083E+04  0.64312677103E+03 0.  0.
         13    1    3    3    0    0 -0.11406633353E+03 -0.11588071448E+02 -0.96374010062E+03  0.97053613709E+03  0.00000000000E+00 0.  1.
          3    1    3    3  501    0  0.11406630553E+03  0.11588163848E+02  0.67143114765E+02  0.13286687118E+03  0.00000000000E+00 0.  1.
         21    1    1    2  502  501  0.28000385594E-04 -0.92399971112E-04  0.79066357433E-03  0.79653666835E-03  0.00000000000E+00 0.  1.
<mgrwt>
<rscale>  1 0.64312677E+03</rscale>
<asrwt>0</asrwt>
<pdfrwt beam="1">  1        1 0.37601463E+00 0.64312677E+03</pdfrwt>
<pdfrwt beam="2">0</pdfrwt>
<totfact> 0.17108700E+00</totfact>
</mgrwt>
</event>
<event>
 6    1  0.3255736E-003  0.6490022E+03  0.7818608E-02  0.9808653E-01
          1   -1    0    0  502    0  0.00000000000E+00  0.00000000000E+00  0.10530102997E+03  0.10530102997E+03  0.00000000000E+00 0.  1.
         13   -1    0    0    0    0 -0.00000000000E+00 -0.00000000000E+00 -0.10000000000E+04  0.10000000000E+04  0.00000000000E+00 0.  1.
    9000005    2    1    2  501    0  0.17257141394E-04 -0.17704796136E-04 -0.89469902675E+03  0.11053009681E+04  0.64900222004E+03 0.  0.
         13    1    3    3    0    0 -0.29810232672E+03  0.10008938820E+03 -0.58378800417E+03  0.66309223841E+03  0.00000000000E+00 0.  1.
          3    1    3    3  501    0  0.29810234397E+03 -0.10008940591E+03 -0.31091102257E+03  0.44220872969E+03  0.00000000000E+00 0.  1.
         21    1    1    2  502  501 -0.17257141396E-04  0.17704796134E-04  0.56715013879E-04  0.61869714196E-04  0.00000000000E+00 0. -1.
<mgrwt>
<rscale>  1 0.64900222E+03</rscale>
<asrwt>0</asrwt>
<pdfrwt beam="1">  1        1 0.38291364E+00 0.64900222E+03</pdfrwt>
<pdfrwt beam="2">0</pdfrwt>
<totfact> 0.15933667E+00</totfact>
</mgrwt>
</event>
<event>
 6    1  0.3255736E-003  0.6608165E+03  0.7818608E-02  0.9786692E-01
          1   -1    0    0  502    0  0.00000000000E+00  0.00000000000E+00  0.10920146030E+03  0.10920146030E+03  0.00000000000E+00 0.  1.
         13   -1    0    0    0    0 -0.00000000000E+00 -0.00000000000E+00 -0.10000000000E+04  0.10000000000E+04  0.00000000000E+00 0.  1.
    9000005    2    1    2  501    0 -0.11726592038E-02  0.59479915657E-03 -0.89083037797E+03  0.11091695949E+04  0.66081648581E+03 0.  0.
         13    1    3    3    0    0  0.28853512855E+03  0.81936950833E+02 -0.21281812124E+03  0.36777402987E+03  0.00000000000E+00 0.  1.
          1    1    3    3  501    0 -0.28853630121E+03 -0.81936356034E+02 -0.67801225672E+03  0.74139556502E+03  0.00000000000E+00 0.  1.
         21    1    1    2  502  501  0.11726592038E-02 -0.59479915657E-03  0.31838265732E-01  0.31865405700E-01  0.00000000000E+00 0.  1.
<mgrwt>
<rscale>  1 0.66081649E+03</rscale>
<asrwt>0</asrwt>
<pdfrwt beam="1">  1        1 0.39709706E+00 0.66081649E+03</pdfrwt>
<pdfrwt beam="2">0</pdfrwt>
<totfact> 0.13755024E+00</totfact>
</mgrwt>
</event>
<event>
 6    1  0.3255736E-003  0.6467197E+03  0.7818608E-02  0.9812954E-01
          1   -1    0    0  502    0  0.00000000000E+00  0.00000000000E+00  0.10458909445E+03  0.10458909445E+03  0.00000000000E+00 0.  1.
         13   -1    0    0    0    0 -0.00000000000E+00 -0.00000000000E+00 -0.10000000000E+04  0.10000000000E+04  0.00000000000E+00 0.  1.
    9000005    2    1    2  501    0 -0.97963792200E-04  0.57457247858E-03 -0.89543841573E+03  0.11045615781E+04  0.64671966372E+03 0.  0.
         13    1    3    3    0    0 -0.30413149538E+03  0.46820015349E+02 -0.61743060195E+03  0.68986131109E+03  0.00000000000E+00 0.  1.
          3    1    3    3  501    0  0.30413139742E+03 -0.46819440776E+02 -0.27800781378E+03  0.41470026701E+03  0.00000000000E+00 0.  1.
         21    1    1    2  502  501  0.97963792247E-04 -0.57457247858E-03  0.27510181765E-01  0.27516355703E-01  0.00000000000E+00 0.  1.
<mgrwt>
<rscale>  1 0.64671966E+03</rscale>
<asrwt>0</asrwt>
<pdfrwt beam="1">  1        1 0.38032478E+00 0.64671966E+03</pdfrwt>
<pdfrwt beam="2">0</pdfrwt>
<totfact> 0.16365527E+00</totfact>
</mgrwt>
</event>
<event>
 6    1  0.3255736E-003  0.6394693E+03  0.7818608E-02  0.9826742E-01
          1   -1    0    0  502    0  0.00000000000E+00  0.00000000000E+00  0.10225336925E+03  0.10225336925E+03  0.00000000000E+00 0.  1.
         13   -1    0    0    0    0 -0.00000000000E+00 -0.00000000000E+00 -0.10000000000E+04  0.10000000000E+04  0.00000000000E+00 0.  1.
    9000005    2    1    2  501    0  0.53953462005E-01  0.45636252023E-01 -0.89767174192E+03  0.11021504033E+04  0.63946927238E+03 0.  0.
         13    1    3    3    0    0  0.12642378791E+03  0.13545660250E+03  0.28798457147E+00  0.18528774445E+03  0.00000000000E+00 0.  1.
          1    1    3    3  501    0 -0.12636983445E+03 -0.13541096625E+03 -0.89795972649E+03  0.91686265887E+03  0.00000000000E+00 0.  1.
         21    1    1    2  502  501 -0.53953462005E-01 -0.45636252023E-01 -0.74888834853E-01  0.10296592226E+00  0.00000000000E+00 0. -1.
<mgrwt>
<rscale>  1 0.63946928E+03</rscale>
<asrwt>0</asrwt>
<pdfrwt beam="1">  1        1 0.37183122E+00 0.63946928E+03</pdfrwt>
<pdfrwt beam="2">0</pdfrwt>
<totfact> 0.17861291E+00</totfact>
</mgrwt>
</event>
<event>
 6    1  0.3255736E-003  0.6870983E+03  0.7818608E-02  0.9739554E-01
          1   -1    0    0  502    0  0.00000000000E+00  0.00000000000E+00  0.11803893139E+03  0.11803893139E+03  0.00000000000E+00 0.  1.
         13   -1    0    0    0    0 -0.00000000000E+00 -0.00000000000E+00 -0.10000000000E+04  0.10000000000E+04  0.00000000000E+00 0.  1.
    9000005    2    1    2  501    0  0.14620211567E-02  0.74230131698E-02 -0.88197271744E+03  0.11180250413E+04  0.68709833262E+03 0.  0.
         13    1    3    3    0    0 -0.16204823648E+03  0.29832191016E+03 -0.52666654793E+03  0.62660453696E+03  0.00000000000E+00 0.  1.
          3    1    3    3  501    0  0.16204969850E+03 -0.29831448715E+03 -0.35530616951E+03  0.49142050437E+03  0.00000000000E+00 0.  1.
         21    1    1    2  502  501 -0.14620211567E-02 -0.74230131698E-02  0.11648830247E-01  0.13890063949E-01  0.00000000000E+00 0.  1.
<mgrwt>
<rscale>  1 0.68709833E+03</rscale>
<asrwt>0</asrwt>
<pdfrwt beam="1">  1        1 0.42923338E+00 0.68709833E+03</pdfrwt>
<pdfrwt beam="2">0</pdfrwt>
<totfact> 0.98136034E-01</totfact>
</mgrwt>
</event>
<event>
 6    1  0.3255736E-003  0.5501661E+03  0.7818608E-02  0.1001455E+00
          1   -1    0    0  502    0  0.00000000000E+00  0.00000000000E+00  0.75675835278E+02  0.75675835278E+02  0.00000000000E+00 0.  1.
         13   -1    0    0    0    0 -0.00000000000E+00 -0.00000000000E+00 -0.10000000000E+04  0.10000000000E+04  0.00000000000E+00 0.  1.
    9000005    2    1    2  501    0  0.42627377866E-04  0.11569015605E-03 -0.92432930716E+03  0.10756706914E+04  0.55016612779E+03 0.  0.
         13    1    3    3    0    0 -0.17176393801E+03  0.23407759838E+02 -0.87976678115E+03  0.89668297789E+03  0.00000000000E+00 0.  1.
          1    1    3    3  501    0  0.17176398063E+03 -0.23407644148E+02 -0.44562526009E+02  0.17898771347E+03  0.00000000000E+00 0.  1.
         21    1    1    2  502  501 -0.42627377839E-04 -0.11569015605E-03  0.51424413382E-02  0.51439191500E-02  0.00000000000E+00 0.  1.
<mgrwt>
<rscale>  1 0.55016613E+03</rscale>
<asrwt>0</asrwt>
<pdfrwt beam="1">  1        1 0.27518544E+00 0.55016613E+03</pdfrwt>
<pdfrwt beam="2">0</pdfrwt>
<totfact> 0.47630250E+00</totfact>
</mgrwt>
</event>
<event>
 6    1  0.3255736E-003  0.6211284E+03  0.7818608E-02  0.9862516E-01
          1   -1    0    0  502    0  0.00000000000E+00  0.00000000000E+00  0.96450184789E+02  0.96450184789E+02  0.00000000000E+00 0.  1.
         13   -1    0    0    0    0 -0.00000000000E+00 -0.00000000000E+00 -0.10000000000E+04  0.10000000000E+04  0.00000000000E+00 0.  1.
    9000005    2    1    2  501    0  0.75910764821E-05  0.86446373757E-05 -0.90354986765E+03  0.10964501311E+04  0.62112843007E+03 0.  0.
         13    1    3    3    0    0 -0.83527924290E+02  0.29899180154E+03 -0.46727726440E+03  0.56100004755E+03  0.00000000000E+00 0.  1.
          1    1    3    3  501    0  0.83527931881E+02 -0.29899179289E+03 -0.43627260325E+03  0.53545008355E+03  0.00000000000E+00 0.  1.
         21    1    1    2  502  501 -0.75910764780E-05 -0.86446373847E-05  0.52444337584E-04  0.53691365621E-04  0.00000000000E+00 0.  1.
<mgrwt>
<rscale>  1 0.62112843E+03</rscale>
<asrwt>0</asrwt>
<pdfrwt beam="1">  1        1 0.35072868E+00 0.62112843E+03</pdfrwt>
<pdfrwt beam="2">0</pdfrwt>
<totfact> 0.22166609E+00</totfact>
</mgrwt>
</event>
<event>
 6    1  0.3255736E-003  0.5882363E+03  0.7818608E-02  0.9930117E-01
          1   -1    0    0  502    0  0.00000000000E+00  0.00000000000E+00  0.86593949320E+02  0.86593949320E+02  0.00000000000E+00 0.  1.
         13   -1    0    0    0    0 -0.00000000000E+00 -0.00000000000E+00 -0.10000000000E+04  0.10000000000E+04  0.00000000000E+00 0.  1.
    9000005    2    1    2  501    0 -0.49594002898E-01 -0.70288860790E-02 -0.91348675066E+03  0.10864989680E+04  0.58823631412E+03 0.  0.
         13    1    3    3    0    0  0.13101016155E+03 -0.23160274191E+03 -0.22531760741E+03  0.34867107235E+03  0.00000000000E+00 0.  1.
          3    1    3    3  501    0 -0.13105975556E+03  0.23159571302E+03 -0.68816914326E+03  0.73782789561E+03  0.00000000000E+00 0.  1.
         21    1    1    2  502  501  0.49594002898E-01  0.70288860790E-02  0.80699981442E-01  0.94981352736E-01  0.00000000000E+00 0. -1.
<mgrwt>
<rscale>  1 0.58823632E+03</rscale>
<asrwt>0</asrwt>
<pdfrwt beam="1">  1        1 0.31488775E+00 0.58823632E+03</pdfrwt>
<pdfrwt beam="2">0</pdfrwt>
<totfact> 0.31889813E+00</totfact>
</mgrwt>
</event>
<event>
 6    1  0.3255736E-003  0.6526635E+03  0.7818608E-02  0.9801794E-01
          3   -1    0    0  502    0  0.00000000000E+00  0.00000000000E+00  0.10662947490E+03  0.10662947490E+03  0.00000000000E+00 0.  1.
         13   -1    0    0    0    0 -0.00000000000E+00 -0.00000000000E+00 -0.10000000000E+04  0.10000000000E+04  0.00000000000E+00 0.  1.
    9000005    2    1    2  501    0  0.18711271231E-01  0.53881267099E-01 -0.89350098285E+03  0.11064870933E+04  0.65266352585E+03 0.  0.
         13    1    3    3    0    0 -0.99763800691E+02  0.55622913096E+02 -0.96500282481E+03  0.97173925324E+03  0.00000000000E+00 0.  1.
          1    1    3    3  501    0  0.99782511962E+02 -0.55569031829E+02  0.71501841959E+02  0.13474784004E+03  0.00000000000E+00 0.  1.
         21    1    1    2  502  501 -0.18711271231E-01 -0.53881267099E-01  0.13045775089E+00  0.14238162586E+00  0.00000000000E+00 0.  1.
<mgrwt>
<rscale>  1 0.65266353E+03</rscale>
<asrwt>0</asrwt>
<pdfrwt beam="1">  1        3 0.38774436E+00 0.65266353E+03</pdfrwt>
<pdfrwt beam="2">0</pdfrwt>
<totfact> 0.68673142E-02</totfact>
</mgrwt>
</event>
<event>
 6    1  0.3255736E-003  0.6328022E+03  0.7818608E-02  0.9839596E-01
          1   -1    0    0  502    0  0.00000000000E+00  0.00000000000E+00  0.10012374054E+03  0.10012374054E+03  0.00000000000E+00 0.  1.
         13   -1    0    0    0    0 -0.00000000000E+00 -0.00000000000E+00 -0.10000000000E+04  0.10000000000E+04  0.00000000000E+00 0.  1.
    9000005    2    1    2  501    0 -0.91023328844E-02  0.95266749121E-02 -0.89988688294E+03  0.11001068152E+04  0.63280218275E+03 0.  0.
         13    1    3    3    0    0  0.27575245237E+03  0.98445591748E+02 -0.65839042223E+03  0.72056151549E+03  0.00000000000E+00 0.  1.
          3    1    3    3  501    0 -0.27576155471E+03 -0.98436065074E+02 -0.24149646071E+03  0.37954529967E+03  0.00000000000E+00 0.  1.
         21    1    1    2  502  501  0.91023328844E-02 -0.95266749121E-02  0.10623480633E-01  0.16925375611E-01  0.00000000000E+00 0.  1.
<mgrwt>
<rscale>  1 0.63280218E+03</rscale>
<asrwt>0</asrwt>
<pdfrwt beam="1">  1        1 0.36408710E+00 0.63280218E+03</pdfrwt>
<pdfrwt beam="2">0</pdfrwt>
<totfact> 0.19338383E+00</totfact>
</mgrwt>
</event>
<event>
 6    1  0.3255736E-003  0.6550149E+03  0.7818608E-02  0.9797414E-01
          1   -1    0    0  502    0  0.00000000000E+00  0.00000000000E+00  0.10726113122E+03  0.10726113122E+03  0.00000000000E+00 0.  1.
         13   -1    0    0    0    0 -0.00000000000E+00 -0.00000000000E+00 -0.10000000000E+04  0.10000000000E+04  0.00000000000E+00 0.  1.
    9000005    2    1    2  501    0 -0.17231320726E-04  0.20454744174E-05 -0.89273886662E+03  0.11072611137E+04  0.65501487771E+03 0.  0.
         13    1    3    3    0    0  0.18100799881E+03 -0.24535074568E+03 -0.24422095123E+03  0.39064658844E+03  0.00000000000E+00 0.  1.
          3    1    3    3  501    0 -0.18100801604E+03  0.24535074773E+03 -0.64851791539E+03  0.71661452529E+03  0.00000000000E+00 0.  1.
         21    1    1    2  502  501  0.17231320725E-04 -0.20454744076E-05 -0.21588326442E-05  0.17486078402E-04  0.00000000000E+00 0.  1.
<mgrwt>
<rscale>  1 0.65501488E+03</rscale>
<asrwt>0</asrwt>
<pdfrwt beam="1">  1        1 0.39004130E+00 0.65501488E+03</pdfrwt>
<pdfrwt beam="2">0</pdfrwt>
<totfact> 0.14800668E+00</totfact>
</mgrwt>
</event>
<event>
 6    1  0.3255736E-003  0.6129737E+03  0.7818608E-02  0.9878849E-01
          1   -1    0    0  502    0  0.00000000000E+00  0.00000000000E+00  0.93940970435E+02  0.93940970435E+02  0.00000000000E+00 0.  1.
         13   -1    0    0    0    0 -0.00000000000E+00 -0.00000000000E+00 -0.10000000000E+04  0.10000000000E+04  0.00000000000E+00 0.  1.
    9000005    2    1    2  501    0  0.47986636898E-03  0.12883089908E-02 -0.90606574171E+03  0.10939341189E+04  0.61297367667E+03 0.  0.
         13    1    3    3    0    0 -0.21551482408E+03  0.21370909532E+03 -0.37697900440E+03  0.48397457224E+03  0.00000000000E+00 0.  1.
          3    1    3    3  501    0  0.21551530395E+03 -0.21370780701E+03 -0.52908673731E+03  0.60995954670E+03  0.00000000000E+00 0.  1.
         21    1    1    2  502  501 -0.47986636899E-03 -0.12883089908E-02  0.67121454746E-02  0.68514895213E-02  0.00000000000E+00 0.  1.
<mgrwt>
<rscale>  1 0.61297368E+03</rscale>
<asrwt>0</asrwt>
<pdfrwt beam="1">  1        1 0.34160425E+00 0.61297368E+03</pdfrwt>
<pdfrwt beam="2">0</pdfrwt>
<totfact> 0.24324165E+00</totfact>
</mgrwt>
</event>
<event>
 6    1  0.3255736E-003  0.6586205E+03  0.7818608E-02  0.9790737E-01
          1   -1    0    0  502    0  0.00000000000E+00  0.00000000000E+00  0.10994257146E+03  0.10994257146E+03  0.00000000000E+00 0.  1.
         13   -1    0    0    0    0 -0.00000000000E+00 -0.00000000000E+00 -0.10000000000E+04  0.10000000000E+04  0.00000000000E+00 0.  1.
    9000005    2    1    2  501    0  0.79932637371E+00  0.28564412155E+00 -0.89142022321E+03  0.11083370421E+04  0.65861996935E+03 0.  0.
         13    1    3    3    0    0  0.27070142923E+03  0.18140066982E+03 -0.53086748689E+03  0.62290107997E+03  0.00000000000E+00 0.  1.
          1    1    3    3  501    0 -0.26990210286E+03 -0.18111502569E+03 -0.36055273632E+03  0.48543596213E+03  0.00000000000E+00 0.  1.
         21    1    1    2  502  501 -0.79932637371E+00 -0.28564412155E+00  0.13627946638E+01  0.16055293556E+01  0.00000000000E+00 0.  1.
<mgrwt>
<rscale>  1 0.65862052E+03</rscale>
<asrwt>0</asrwt>
<pdfrwt beam="1">  1        1 0.39979201E+00 0.65862052E+03</pdfrwt>
<pdfrwt beam="2">0</pdfrwt>
<totfact> 0.13385474E+00</totfact>
</mgrwt>
</event>
<event>
 6    1  0.3255736E-003  0.6473659E+03  0.7818608E-02  0.9811735E-01
          1   -1    0    0  502    0  0.00000000000E+00  0.00000000000E+00  0.10477069021E+03  0.10477069021E+03  0.00000000000E+00 0.  1.
         13   -1    0    0    0    0 -0.00000000000E+00 -0.00000000000E+00 -0.10000000000E+04  0.10000000000E+04  0.00000000000E+00 0.  1.
    9000005    2    1    2  501    0 -0.13511494785E-05  0.91805443958E-06 -0.89522935349E+03  0.11047706465E+04  0.64736588261E+03 0.  0.
         13    1    3    3    0    0  0.26264163937E+03  0.39590003796E+02 -0.76331797361E+03  0.80820933425E+03  0.00000000000E+00 0.  1.
          1    1    3    3  501    0 -0.26264164072E+03 -0.39590002878E+02 -0.13191137988E+03  0.29656131223E+03  0.00000000000E+00 0.  1.
         21    1    1    2  502  501  0.13511494578E-05 -0.91805443842E-06  0.43695202660E-04  0.43725726573E-04  0.00000000000E+00 0. -1.
<mgrwt>
<rscale>  1 0.64736588E+03</rscale>
<asrwt>0</asrwt>
<pdfrwt beam="1">  1        1 0.38098513E+00 0.64736588E+03</pdfrwt>
<pdfrwt beam="2">0</pdfrwt>
<totfact> 0.16254133E+00</totfact>
</mgrwt>
</event>
<event>
 6    1  0.3255736E-003  0.6529156E+03  0.7818608E-02  0.9801324E-01
          1   -1    0    0  502    0  0.00000000000E+00  0.00000000000E+00  0.10659960483E+03  0.10659960483E+03  0.00000000000E+00 0.  1.
         13   -1    0    0    0    0 -0.00000000000E+00 -0.00000000000E+00 -0.10000000000E+04  0.10000000000E+04  0.00000000000E+00 0.  1.
    9000005    2    1    2  501    0 -0.96386044163E-04 -0.81392982152E-02 -0.89342458280E+03  0.11065740843E+04  0.65291555254E+03 0.  0.
         13    1    3    3    0    0 -0.20530417879E+03  0.84751909056E+02 -0.41222619714E+02  0.22590262569E+03  0.00000000000E+00 0.  1.
          1    1    3    3  501    0  0.20530408241E+03 -0.84760048354E+02 -0.85220196309E+03  0.88067145857E+03  0.00000000000E+00 0.  1.
         21    1    1    2  502  501  0.96386044171E-04  0.81392982152E-02  0.24187635035E-01  0.25520563362E-01  0.00000000000E+00 0. -1.
<mgrwt>
<rscale>  1 0.65291555E+03</rscale>
<asrwt>0</asrwt>
<pdfrwt beam="1">  1        1 0.38763574E+00 0.65291555E+03</pdfrwt>
<pdfrwt beam="2">0</pdfrwt>
<totfact> 0.15174409E+00</totfact>
</mgrwt>
</event>
<event>
 6    1  0.3255736E-003  0.6519003E+03  0.7818608E-02  0.9803220E-01
          1   -1    0    0  502    0  0.00000000000E+00  0.00000000000E+00  0.10625545946E+03  0.10625545946E+03  0.00000000000E+00 0.  1.
         13   -1    0    0    0    0 -0.00000000000E+00 -0.00000000000E+00 -0.10000000000E+04  0.10000000000E+04  0.00000000000E+00 0.  1.
    9000005    2    1    2  501    0 -0.16761559973E-01 -0.14747132206E-01 -0.89374361650E+03  0.11062331149E+04  0.65190033890E+03 0.  0.
         13    1    3    3    0    0  0.17085087242E+03  0.26239465996E+03 -0.29323290662E+03  0.42898311821E+03  0.00000000000E+00 0.  1.
          3    1    3    3  501    0 -0.17086763398E+03 -0.26240940710E+03 -0.60051070988E+03  0.67724999665E+03  0.00000000000E+00 0.  1.
         21    1    1    2  502  501  0.16761559973E-01  0.14747132206E-01 -0.92403854801E-03  0.22344611169E-01  0.00000000000E+00 0.  1.
<mgrwt>
<rscale>  1 0.65190034E+03</rscale>
<asrwt>0</asrwt>
<pdfrwt beam="1">  1        1 0.38638430E+00 0.65190034E+03</pdfrwt>
<pdfrwt beam="2">0</pdfrwt>
<totfact> 0.15372146E+00</totfact>
</mgrwt>
</event>
<event>
 6    1  0.3255736E-003  0.4938236E+03  0.7818608E-02  0.1015404E+00
          1   -1    0    0  502    0  0.00000000000E+00  0.00000000000E+00  0.61036245313E+02  0.61036245313E+02  0.00000000000E+00 0.  1.
         13   -1    0    0    0    0 -0.00000000000E+00 -0.00000000000E+00 -0.10000000000E+04  0.10000000000E+04  0.00000000000E+00 0.  1.
    9000005    2    1    2  501    0 -0.81024527283E-01 -0.19767168923E+00 -0.93800861233E+03  0.10600575033E+04  0.49382355937E+03 0.  0.
         13    1    3    3    0    0 -0.62363431798E+02 -0.56465123488E+02  0.29322554656E+02  0.89091638259E+02  0.00000000000E+00 0.  1.
          3    1    3    3  501    0  0.62282407271E+02  0.56267451799E+02 -0.96733116699E+03  0.97096586501E+03  0.00000000000E+00 0.  1.
         21    1    1    2  502  501  0.81024527283E-01  0.19767168923E+00 -0.95514235247E+00  0.97874204172E+00  0.00000000000E+00 0. -1.
<mgrwt>
<rscale>  1 0.49382361E+03</rscale>
<asrwt>0</asrwt>
<pdfrwt beam="1">  1        1 0.22195045E+00 0.49382361E+03</pdfrwt>
<pdfrwt beam="2">0</pdfrwt>
<totfact> 0.82058965E+00</totfact>
</mgrwt>
</event>
<event>
 6    1  0.3255736E-003  0.6196506E+03  0.7818608E-02  0.9865456E-01
          1   -1    0    0  502    0  0.00000000000E+00  0.00000000000E+00  0.10267531772E+03  0.10267531772E+03  0.00000000000E+00 0.  1.
         13   -1    0    0    0    0 -0.00000000000E+00 -0.00000000000E+00 -0.10000000000E+04  0.10000000000E+04  0.00000000000E+00 0.  1.
    9000005    2    1    2  501    0  0.35505252057E+01 -0.22381049009E+01 -0.90327912096E+03  0.10953903549E+04  0.61963638046E+03 0.  0.
         13    1    3    3    0    0 -0.10268665362E+02 -0.15485464668E+02 -0.99829365040E+03  0.99846655304E+03  0.00000000000E+00 0.  1.
          1    1    3    3  501    0  0.13819190568E+02  0.13247359767E+02  0.95014529444E+02  0.96923801897E+02  0.00000000000E+00 0.  1.
         21    1    1    2  502  501 -0.35505252057E+01  0.22381049009E+01  0.59544386767E+01  0.72849627823E+01  0.00000000000E+00 0. -1.
<mgrwt>
<rscale>  1 0.61965059E+03</rscale>
<asrwt>0</asrwt>
<pdfrwt beam="1">  1        1 0.37336558E+00 0.61965059E+03</pdfrwt>
<pdfrwt beam="2">0</pdfrwt>
<totfact> 0.17650771E+00</totfact>
</mgrwt>
</event>
<event>
 6    1  0.3255736E-003  0.6810265E+03  0.7818608E-02  0.9750241E-01
          1   -1    0    0  502    0  0.00000000000E+00  0.00000000000E+00  0.11620224796E+03  0.11620224796E+03  0.00000000000E+00 0.  1.
         13   -1    0    0    0    0 -0.00000000000E+00 -0.00000000000E+00 -0.10000000000E+04  0.10000000000E+04  0.00000000000E+00 0.  1.
    9000005    2    1    2  501    0 -0.17612712357E+00  0.61736594073E-02 -0.88401599461E+03  0.11159217329E+04  0.68102643428E+03 0.  0.
         13    1    3    3    0    0  0.25433880900E+03  0.15987412843E+03 -0.70439265912E+03  0.76577867882E+03  0.00000000000E+00 0.  1.
          1    1    3    3  501    0 -0.25451493613E+03 -0.15986795477E+03 -0.17962333548E+03  0.35014305409E+03  0.00000000000E+00 0.  1.
         21    1    1    2  502  501  0.17612712357E+00 -0.61736594073E-02  0.21824257210E+00  0.28051505843E+00  0.00000000000E+00 0.  1.
<mgrwt>
<rscale>  1 0.68102646E+03</rscale>
<asrwt>0</asrwt>
<pdfrwt beam="1">  1        1 0.42255452E+00 0.68102646E+03</pdfrwt>
<pdfrwt beam="2">0</pdfrwt>
<totfact> 0.10534258E+00</totfact>
</mgrwt>
</event>
<event>
 6    1  0.3255736E-003  0.5666669E+03  0.7818608E-02  0.9977081E-01
          1   -1    0    0  502    0  0.00000000000E+00  0.00000000000E+00  0.83679279284E+02  0.83679279284E+02  0.00000000000E+00 0.  1.
         13   -1    0    0    0    0 -0.00000000000E+00 -0.00000000000E+00 -0.10000000000E+04  0.10000000000E+04  0.00000000000E+00 0.  1.
    9000005    2    1    2  501    0  0.99136128256E+00 -0.35808222804E+00 -0.91963375755E+03  0.10802026094E+04  0.56666596723E+03 0.  0.
         13    1    3    3    0    0 -0.13307381008E+03 -0.24210748611E+03 -0.57884329736E+03  0.64139242017E+03  0.00000000000E+00 0.  1.
          3    1    3    3  501    0  0.13406517137E+03  0.24174940389E+03 -0.34079046019E+03  0.43881018928E+03  0.00000000000E+00 0.  1.
         21    1    1    2  502  501 -0.99136128256E+00  0.35808222804E+00  0.33130368337E+01  0.34766698342E+01  0.00000000000E+00 0. -1.
<mgrwt>
<rscale>  1 0.56666695E+03</rscale>
<asrwt>0</asrwt>
<pdfrwt beam="1">  1        1 0.30428893E+00 0.56666695E+03</pdfrwt>
<pdfrwt beam="2">0</pdfrwt>
<totfact> 0.35569387E+00</totfact>
</mgrwt>
</event>
<event>
 6    1  0.3255736E-003  0.6421240E+03  0.7818608E-02  0.9821671E-01
          1   -1    0    0  502    0  0.00000000000E+00  0.00000000000E+00  0.10312706048E+03  0.10312706048E+03  0.00000000000E+00 0.  1.
         13   -1    0    0    0    0 -0.00000000000E+00 -0.00000000000E+00 -0.10000000000E+04  0.10000000000E+04  0.00000000000E+00 0.  1.
    9000005    2    1    2  501    0  0.68536119815E-03  0.14272790516E-03 -0.89691918330E+03  0.11030808114E+04  0.64212401848E+03 0.  0.
         13    1    3    3    0    0 -0.13211747880E+03  0.83726729547E+02 -0.93012168251E+03  0.94318160379E+03  0.00000000000E+00 0.  1.
          1    1    3    3  501    0  0.13211816416E+03 -0.83726586819E+02  0.33202499209E+02  0.15989920762E+03  0.00000000000E+00 0.  1.
         21    1    1    2  502  501 -0.68536119816E-03 -0.14272790515E-03  0.46243777102E-01  0.46249075795E-01  0.00000000000E+00 0. -1.
<mgrwt>
<rscale>  1 0.64212402E+03</rscale>
<asrwt>0</asrwt>
<pdfrwt beam="1">  1        1 0.37500828E+00 0.64212402E+03</pdfrwt>
<pdfrwt beam="2">0</pdfrwt>
<totfact> 0.17287313E+00</totfact>
</mgrwt>
</event>
<event>
 6    1  0.3255736E-003  0.6500223E+03  0.7818608E-02  0.9806737E-01
          1   -1    0    0  502    0  0.00000000000E+00  0.00000000000E+00  0.10563237511E+03  0.10563237511E+03  0.00000000000E+00 0.  1.
         13   -1    0    0    0    0 -0.00000000000E+00 -0.00000000000E+00 -0.10000000000E+04  0.10000000000E+04  0.00000000000E+00 0.  1.
    9000005    2    1    2  501    0  0.55060198036E-05  0.17631888340E-05 -0.89436773705E+03  0.11056322628E+04  0.65002234691E+03 0.  0.
         13    1    3    3    0    0 -0.11027791422E+03  0.26575466371E+03 -0.70427244427E+03  0.76078014919E+03  0.00000000000E+00 0.  1.
          1    1    3    3  501    0  0.11027791973E+03 -0.26575466195E+03 -0.19009529278E+03  0.34485211361E+03  0.00000000000E+00 0.  1.
         21    1    1    2  502  501 -0.55060198065E-05 -0.17631888734E-05  0.11215116947E-03  0.11230008861E-03  0.00000000000E+00 0.  1.
<mgrwt>
<rscale>  1 0.65002235E+03</rscale>
<asrwt>0</asrwt>
<pdfrwt beam="1">  1        1 0.38411854E+00 0.65002235E+03</pdfrwt>
<pdfrwt beam="2">0</pdfrwt>
<totfact> 0.15736512E+00</totfact>
</mgrwt>
</event>
<event>
 6    1  0.3255736E-003  0.6378694E+03  0.7818608E-02  0.9829812E-01
          1   -1    0    0  502    0  0.00000000000E+00  0.00000000000E+00  0.10172704999E+03  0.10172704999E+03  0.00000000000E+00 0.  1.
         13   -1    0    0    0    0 -0.00000000000E+00 -0.00000000000E+00 -0.10000000000E+04  0.10000000000E+04  0.00000000000E+00 0.  1.
    9000005    2    1    2  501    0  0.23130093539E-02 -0.47596906927E-03 -0.89828047359E+03  0.11017191645E+04  0.63786935041E+03 0.  0.
         13    1    3    3    0    0  0.18902350167E+03  0.18270195979E+03 -0.76103941254E+03  0.80516512451E+03  0.00000000000E+00 0.  1.
          3    1    3    3  501    0 -0.18902118866E+03 -0.18270243576E+03 -0.13724106106E+03  0.29655403999E+03  0.00000000000E+00 0.  1.
         21    1    1    2  502  501 -0.23130093539E-02  0.47596906926E-03  0.75235870451E-02  0.78854879907E-02  0.00000000000E+00 0. -1.
<mgrwt>
<rscale>  1 0.63786935E+03</rscale>
<asrwt>0</asrwt>
<pdfrwt beam="1">  1        1 0.36991733E+00 0.63786935E+03</pdfrwt>
<pdfrwt beam="2">0</pdfrwt>
<totfact> 0.18215802E+00</totfact>
</mgrwt>
</event>
<event>
 6    1  0.3255736E-003  0.6498022E+03  0.7818608E-02  0.9807150E-01
          1   -1    0    0  502    0  0.00000000000E+00  0.00000000000E+00  0.10556073234E+03  0.10556073234E+03  0.00000000000E+00 0.  1.
         13   -1    0    0    0    0 -0.00000000000E+00 -0.00000000000E+00 -0.10000000000E+04  0.10000000000E+04  0.00000000000E+00 0.  1.
    9000005    2    1    2  501    0 -0.76653888641E-05 -0.83434343168E-05 -0.89443926077E+03  0.11055607191E+04  0.64980221019E+03 0.  0.
         13    1    3    3    0    0 -0.23260995796E+03 -0.99311987478E+02 -0.79419474064E+03  0.83349598047E+03  0.00000000000E+00 0.  1.
          1    1    3    3  501    0  0.23260995030E+03  0.99311979135E+02 -0.10024452013E+03  0.27206473861E+03  0.00000000000E+00 0.  1.
         21    1    1    2  502  501  0.76653888677E-05  0.83434343236E-05 -0.68858203067E-05  0.13258416350E-04  0.00000000000E+00 0.  1.
<mgrwt>
<rscale>  1 0.64980221E+03</rscale>
<asrwt>0</asrwt>
<pdfrwt beam="1">  1        1 0.38385802E+00 0.64980221E+03</pdfrwt>
<pdfrwt beam="2">0</pdfrwt>
<totfact> 0.15778942E+00</totfact>
</mgrwt>
</event>
<event>
 6    1  0.3255736E-003  0.6499848E+03  0.7818608E-02  0.9806808E-01
          1   -1    0    0  502    0  0.00000000000E+00  0.00000000000E+00  0.10666509314E+03  0.10666509314E+03  0.00000000000E+00 0.  1.
         13   -1    0    0    0    0 -0.00000000000E+00 -0.00000000000E+00 -0.10000000000E+04  0.10000000000E+04  0.00000000000E+00 0.  1.
    9000005    2    1    2  501    0 -0.17299230197E+00  0.39766797947E+00 -0.89432996288E+03  0.11055796427E+04  0.64998467351E+03 0.  0.
         13    1    3    3    0    0 -0.29399005972E+03  0.97774840749E+02 -0.27966277683E+03  0.41737434449E+03  0.00000000000E+00 0.  1.
          3    1    3    3  501    0  0.29381706742E+03 -0.97377172770E+02 -0.61466718605E+03  0.68820529822E+03  0.00000000000E+00 0.  1.
         21    1    1    2  502  501  0.17299230197E+00 -0.39766797947E+00  0.99505601883E+00  0.10854504314E+01  0.00000000000E+00 0.  1.
<mgrwt>
<rscale>  1 0.64998482E+03</rscale>
<asrwt>0</asrwt>
<pdfrwt beam="1">  1        1 0.38787388E+00 0.64998482E+03</pdfrwt>
<pdfrwt beam="2">0</pdfrwt>
<totfact> 0.15145827E+00</totfact>
</mgrwt>
</event>
<event>
 6    1  0.3255736E-003  0.6505504E+03  0.7818608E-02  0.9805747E-01
          1   -1    0    0  502    0  0.00000000000E+00  0.00000000000E+00  0.10582559360E+03  0.10582559360E+03  0.00000000000E+00 0.  1.
         13   -1    0    0    0    0 -0.00000000000E+00 -0.00000000000E+00 -0.10000000000E+04  0.10000000000E+04  0.00000000000E+00 0.  1.
    9000005    2    1    2  501    0  0.58607515683E-02  0.21209803629E-01 -0.89418966755E+03  0.11057988147E+04  0.65055042591E+03 0.  0.
         13    1    3    3    0    0 -0.28920764871E+03  0.75886270567E+02 -0.66480105744E+03  0.72894460428E+03  0.00000000000E+00 0.  1.
          3    1    3    3  501    0  0.28921350946E+03 -0.75865060763E+02 -0.22938861011E+03  0.37685421047E+03  0.00000000000E+00 0.  1.
         21    1    1    2  502  501 -0.58607515683E-02 -0.21209803629E-01  0.15261159395E-01  0.26778856679E-01  0.00000000000E+00 0.  1.
<mgrwt>
<rscale>  1 0.65055043E+03</rscale>
<asrwt>0</asrwt>
<pdfrwt beam="1">  1        1 0.38482115E+00 0.65055043E+03</pdfrwt>
<pdfrwt beam="2">0</pdfrwt>
<totfact> 0.15622810E+00</totfact>
</mgrwt>
</event>
<event>
 6    1  0.3255736E-003  0.6501237E+03  0.7818608E-02  0.9806547E-01
          1   -1    0    0  502    0  0.00000000000E+00  0.00000000000E+00  0.10768745531E+03  0.10768745531E+03  0.00000000000E+00 0.  1.
         13   -1    0    0    0    0 -0.00000000000E+00 -0.00000000000E+00 -0.10000000000E+04  0.10000000000E+04  0.00000000000E+00 0.  1.
    9000005    2    1    2  501    0  0.34800642473E+00 -0.32978014344E+00 -0.89430333588E+03  0.11056397461E+04  0.65012349730E+03 0.  0.
         13    1    3    3    0    0 -0.16181831268E+03 -0.25464724261E+03 -0.65313997793E+03  0.71945966896E+03  0.00000000000E+00 0.  1.
          3    1    3    3  501    0  0.16216631911E+03  0.25431746247E+03 -0.24116335795E+03  0.38618007715E+03  0.00000000000E+00 0.  1.
         21    1    1    2  502  501 -0.34800642473E+00  0.32978014344E+00  0.19907911899E+01  0.20477092021E+01  0.00000000000E+00 0.  1.
<mgrwt>
<rscale>  1 0.65012367E+03</rscale>
<asrwt>0</asrwt>
<pdfrwt beam="1">  1        1 0.39159157E+00 0.65012367E+03</pdfrwt>
<pdfrwt beam="2">0</pdfrwt>
<totfact> 0.14581412E+00</totfact>
</mgrwt>
</event>
<event>
 6    1  0.3255736E-003  0.6601233E+03  0.7818608E-02  0.9787967E-01
          1   -1    0    0  502    0  0.00000000000E+00  0.00000000000E+00  0.10933847320E+03  0.10933847320E+03  0.00000000000E+00 0.  1.
         13   -1    0    0    0    0 -0.00000000000E+00 -0.00000000000E+00 -0.10000000000E+04  0.10000000000E+04  0.00000000000E+00 0.  1.
    9000005    2    1    2  501    0  0.11723828057E+00  0.13830904090E+00 -0.89103628094E+03  0.11089221622E+04  0.66012322707E+03 0.  0.
         13    1    3    3    0    0 -0.14523075714E+02 -0.26669599017E+03 -0.11985427949E+03  0.29275026766E+03  0.00000000000E+00 0.  1.
          1    1    3    3  501    0  0.14640313995E+02  0.26683429921E+03 -0.77118200145E+03  0.81617189451E+03  0.00000000000E+00 0.  1.
         21    1    1    2  502  501 -0.11723828057E+00 -0.13830904090E+00  0.37475414795E+00  0.41631103352E+00  0.00000000000E+00 0.  1.
<mgrwt>
<rscale>  1 0.66012325E+03</rscale>
<asrwt>0</asrwt>
<pdfrwt beam="1">  1        1 0.39759529E+00 0.66012325E+03</pdfrwt>
<pdfrwt beam="2">0</pdfrwt>
<totfact> 0.13686713E+00</totfact>
</mgrwt>
</event>
<event>
 6    1  0.3255736E-003  0.6525531E+03  0.7818608E-02  0.9802000E-01
          1   -1    0    0  502    0  0.00000000000E+00  0.00000000000E+00  0.10645655545E+03  0.10645655545E+03  0.00000000000E+00 0.  1.
         13   -1    0    0    0    0 -0.00000000000E+00 -0.00000000000E+00 -0.10000000000E+04  0.10000000000E+04  0.00000000000E+00 0.  1.
    9000005    2    1    2  501    0 -0.23193715720E-04  0.20636383823E-04 -0.89354360183E+03  0.11064563951E+04  0.65255312883E+03 0.  0.
         13    1    3    3    0    0  0.19000501464E+03  0.12349566208E+03 -0.48749618437E+02  0.23179648280E+03  0.00000000000E+00 0.  1.
          1    1    3    3  501    0 -0.19000503783E+03 -0.12349564145E+03 -0.84479398340E+03  0.87465991233E+03  0.00000000000E+00 0.  1.
         21    1    1    2  502  501  0.23193715706E-04 -0.20636383831E-04  0.15728074572E-03  0.16031544455E-03  0.00000000000E+00 0.  1.
<mgrwt>
<rscale>  1 0.65255313E+03</rscale>
<asrwt>0</asrwt>
<pdfrwt beam="1">  1        1 0.38711556E+00 0.65255313E+03</pdfrwt>
<pdfrwt beam="2">0</pdfrwt>
<totfact> 0.15256139E+00</totfact>
</mgrwt>
</event>
<event>
 6    1  0.3255736E-003  0.6618493E+03  0.7818608E-02  0.9784795E-01
          1   -1    0    0  502    0  0.00000000000E+00  0.00000000000E+00  0.10954827727E+03  0.10954827727E+03  0.00000000000E+00 0.  1.
         13   -1    0    0    0    0 -0.00000000000E+00 -0.00000000000E+00 -0.10000000000E+04  0.10000000000E+04  0.00000000000E+00 0.  1.
    9000005    2    1    2  501    0 -0.14175460242E-02 -0.93141564008E-03 -0.89048885500E+03  0.11095111063E+04  0.66184929861E+03 0.  0.
         13    1    3    3    0    0 -0.25508723618E+03  0.15639728160E+03 -0.68221253870E+03  0.74494533740E+03  0.00000000000E+00 0.  1.
          1    1    3    3  501    0  0.25508581863E+03 -0.15639821302E+03 -0.20827631630E+03  0.36456576888E+03  0.00000000000E+00 0.  1.
         21    1    1    2  502  501  0.14175460242E-02  0.93141564008E-03  0.37132270925E-01  0.37170990246E-01  0.00000000000E+00 0.  1.
<mgrwt>
<rscale>  1 0.66184930E+03</rscale>
<asrwt>0</asrwt>
<pdfrwt beam="1">  1        1 0.39835821E+00 0.66184930E+03</pdfrwt>
<pdfrwt beam="2">0</pdfrwt>
<totfact> 0.13575660E+00</totfact>
</mgrwt>
</event>
<event>
 6    1  0.3255736E-003  0.6578290E+03  0.7818608E-02  0.9792198E-01
          1   -1    0    0  502    0  0.00000000000E+00  0.00000000000E+00  0.10819150290E+03  0.10819150290E+03  0.00000000000E+00 0.  1.
         13   -1    0    0    0    0 -0.00000000000E+00 -0.00000000000E+00 -0.10000000000E+04  0.10000000000E+04  0.00000000000E+00 0.  1.
    9000005    2    1    2  501    0  0.14316215577E-02 -0.47324905174E-03 -0.89181514244E+03  0.11081846886E+04  0.65782904760E+03 0.  0.
         13    1    3    3    0    0  0.37653950891E+02 -0.22560420211E+03 -0.84409560740E+03  0.87453557415E+03  0.00000000000E+00 0.  1.
          1    1    3    3  501    0 -0.37652519269E+02  0.22560372886E+03 -0.47719535043E+02  0.23364911450E+03  0.00000000000E+00 0.  1.
         21    1    1    2  502  501 -0.14316215577E-02  0.47324905176E-03  0.66453383944E-02  0.68142517803E-02  0.00000000000E+00 0. -1.
<mgrwt>
<rscale>  1 0.65782905E+03</rscale>
<asrwt>0</asrwt>
<pdfrwt beam="1">  1        1 0.39342448E+00 0.65782905E+03</pdfrwt>
<pdfrwt beam="2">0</pdfrwt>
<totfact> 0.14290148E+00</totfact>
</mgrwt>
</event>
<event>
 6    1  0.3255736E-003  0.6477748E+03  0.7818608E-02  0.9810964E-01
          1   -1    0    0  502    0  0.00000000000E+00  0.00000000000E+00  0.10490430770E+03  0.10490430770E+03  0.00000000000E+00 0.  1.
         13   -1    0    0    0    0 -0.00000000000E+00 -0.00000000000E+00 -0.10000000000E+04  0.10000000000E+04  0.00000000000E+00 0.  1.
    9000005    2    1    2  501    0 -0.33922272294E-04  0.17558166462E-04 -0.89509694597E+03  0.11049030535E+04  0.64777481801E+03 0.  0.
         13    1    3    3    0    0  0.12246511786E+03  0.27517488218E+03 -0.24440563518E+03  0.38788275984E+03  0.00000000000E+00 0.  1.
          1    1    3    3  501    0 -0.12246515178E+03 -0.27517486462E+03 -0.65069131079E+03  0.71702029361E+03  0.00000000000E+00 0.  1.
         21    1    1    2  502  501  0.33922272285E-04 -0.17558166453E-04  0.12536696225E-02  0.12542513831E-02  0.00000000000E+00 0.  1.
<mgrwt>
<rscale>  1 0.64777482E+03</rscale>
<asrwt>0</asrwt>
<pdfrwt beam="1">  1        1 0.38147101E+00 0.64777482E+03</pdfrwt>
<pdfrwt beam="2">0</pdfrwt>
<totfact> 0.16172830E+00</totfact>
</mgrwt>
</event>
<event>
 6    1  0.3255736E-003  0.6464253E+03  0.7818608E-02  0.9813510E-01
          1   -1    0    0  502    0  0.00000000000E+00  0.00000000000E+00  0.10446644334E+03  0.10446644334E+03  0.00000000000E+00 0.  1.
         13   -1    0    0    0    0 -0.00000000000E+00 -0.00000000000E+00 -0.10000000000E+04  0.10000000000E+04  0.00000000000E+00 0.  1.
    9000005    2    1    2  501    0 -0.13079456110E-04 -0.16112998793E-05 -0.89553358142E+03  0.11044664153E+04  0.64642529891E+03 0.  0.
         13    1    3    3    0    0  0.11133070447E+03  0.12498063334E+03 -0.92018630271E+03  0.93528472465E+03  0.00000000000E+00 0.  1.
          3    1    3    3  501    0 -0.11133071754E+03 -0.12498063495E+03  0.24652721294E+02  0.16918169064E+03  0.00000000000E+00 0.  1.
         21    1    1    2  502  501  0.13079456108E-04  0.16112998784E-05  0.24761013881E-04  0.28049532399E-04  0.00000000000E+00 0.  1.
<mgrwt>
<rscale>  1 0.64642530E+03</rscale>
<asrwt>0</asrwt>
<pdfrwt beam="1">  1        1 0.37987878E+00 0.64642530E+03</pdfrwt>
<pdfrwt beam="2">0</pdfrwt>
<totfact> 0.16440744E+00</totfact>
</mgrwt>
</event>
<event>
 6    1  0.3255736E-003  0.6491882E+03  0.7818608E-02  0.9808304E-01
          1   -1    0    0  502    0  0.00000000000E+00  0.00000000000E+00  0.10538970265E+03  0.10538970265E+03  0.00000000000E+00 0.  1.
         13   -1    0    0    0    0 -0.00000000000E+00 -0.00000000000E+00 -0.10000000000E+04  0.10000000000E+04  0.00000000000E+00 0.  1.
    9000005    2    1    2  501    0  0.38590078989E-03 -0.20091915166E-03 -0.89463867911E+03  0.11053613176E+04  0.64918816701E+03 0.  0.
         13    1    3    3    0    0  0.23438880657E+03  0.59950485671E+02 -0.78857978633E+02  0.25446169490E+03  0.00000000000E+00 0.  1.
          3    1    3    3  501    0 -0.23438842067E+03 -0.59950686590E+02 -0.81578070048E+03  0.85089962266E+03  0.00000000000E+00 0.  1.
         21    1    1    2  502  501 -0.38590078988E-03  0.20091915166E-03  0.28381762130E-01  0.28385096610E-01  0.00000000000E+00 0.  1.
<mgrwt>
<rscale>  1 0.64918817E+03</rscale>
<asrwt>0</asrwt>
<pdfrwt beam="1">  1        1 0.38323609E+00 0.64918817E+03</pdfrwt>
<pdfrwt beam="2">0</pdfrwt>
<totfact> 0.15880931E+00</totfact>
</mgrwt>
</event>
<event>
 6    1  0.3255736E-003  0.6314520E+03  0.7818608E-02  0.9842219E-01
          1   -1    0    0  502    0  0.00000000000E+00  0.00000000000E+00  0.99682978037E+02  0.99682978037E+02  0.00000000000E+00 0.  1.
         13   -1    0    0    0    0 -0.00000000000E+00 -0.00000000000E+00 -0.10000000000E+04  0.10000000000E+04  0.00000000000E+00 0.  1.
    9000005    2    1    2  501    0  0.21415034439E-05  0.14181576375E-04 -0.90031709253E+03  0.10996829060E+04  0.63145199873E+03 0.  0.
         13    1    3    3    0    0  0.16225370045E+03 -0.65224211416E+02  0.76394002684E+01  0.17503948555E+03  0.00000000000E+00 0.  1.
          3    1    3    3  501    0 -0.16225369831E+03  0.65224225598E+02 -0.90795649280E+03  0.92464342048E+03  0.00000000000E+00 0.  1.
         21    1    1    2  502  501 -0.21415034364E-05 -0.14181576369E-04  0.70567096990E-04  0.72009848791E-04  0.00000000000E+00 0. -1.
<mgrwt>
<rscale>  1 0.63145200E+03</rscale>
<asrwt>0</asrwt>
<pdfrwt beam="1">  1        1 0.36248432E+00 0.63145200E+03</pdfrwt>
<pdfrwt beam="2">0</pdfrwt>
<totfact> 0.19658269E+00</totfact>
</mgrwt>
</event>
<event>
 6    1  0.3255736E-003  0.6422770E+03  0.7818608E-02  0.9821380E-01
          1   -1    0    0  502    0  0.00000000000E+00  0.00000000000E+00  0.10993520755E+03  0.10993520755E+03  0.00000000000E+00 0.  1.
         13   -1    0    0    0    0 -0.00000000000E+00 -0.00000000000E+00 -0.10000000000E+04  0.10000000000E+04  0.00000000000E+00 0.  1.
    9000005    2    1    2  501    0 -0.70136895930E+01  0.15136608602E+01 -0.89471970168E+03  0.11013823606E+04  0.64223693188E+03 0.  0.
         13    1    3    3    0    0 -0.30389574122E+03 -0.33117443467E+02 -0.63767022029E+03  0.70715818346E+03  0.00000000000E+00 0.  1.
          1    1    3    3  501    0  0.29688205162E+03  0.34631104327E+02 -0.25704948138E+03  0.39422417714E+03  0.00000000000E+00 0.  1.
         21    1    1    2  502  501  0.70136895930E+01 -0.15136608602E+01  0.46549092255E+01  0.85528469414E+01  0.00000000000E+00 0.  1.
<mgrwt>
<rscale>  1 0.64227701E+03</rscale>
<asrwt>0</asrwt>
<pdfrwt beam="1">  1        1 0.39976523E+00 0.64227701E+03</pdfrwt>
<pdfrwt beam="2">0</pdfrwt>
<totfact> 0.13430822E+00</totfact>
</mgrwt>
</event>
<event>
 6    1  0.3255736E-003  0.6291277E+03  0.7818608E-02  0.9846753E-01
          1   -1    0    0  502    0  0.00000000000E+00  0.00000000000E+00  0.98950451677E+02  0.98950451677E+02  0.00000000000E+00 0.  1.
         13   -1    0    0    0    0 -0.00000000000E+00 -0.00000000000E+00 -0.10000000000E+04  0.10000000000E+04  0.00000000000E+00 0.  1.
    9000005    2    1    2  501    0 -0.17540959639E-04 -0.88927531561E-07 -0.90104959117E+03  0.10989504054E+04  0.62912767203E+03 0.  0.
         13    1    3    3    0    0 -0.63282729343E+02 -0.32368062640E+01 -0.98873633497E+03  0.99076471517E+03  0.00000000000E+00 0.  1.
          1    1    3    3  501    0  0.63282711802E+02  0.32368061751E+01  0.87686743793E+02  0.10818569020E+03  0.00000000000E+00 0.  1.
         21    1    1    2  502  501  0.17540959643E-04  0.88927531740E-07  0.42851267154E-04  0.46302529844E-04  0.00000000000E+00 0. -1.
<mgrwt>
<rscale>  1 0.62912767E+03</rscale>
<asrwt>0</asrwt>
<pdfrwt beam="1">  1        1 0.35982058E+00 0.62912767E+03</pdfrwt>
<pdfrwt beam="2">0</pdfrwt>
<totfact> 0.20201458E+00</totfact>
</mgrwt>
</event>
<event>
 6    1  0.3255736E-003  0.6468704E+03  0.7818608E-02  0.9812669E-01
          1   -1    0    0  502    0  0.00000000000E+00  0.00000000000E+00  0.10480666131E+03  0.10480666131E+03  0.00000000000E+00 0.  1.
         13   -1    0    0    0    0 -0.00000000000E+00 -0.00000000000E+00 -0.10000000000E+04  0.10000000000E+04  0.00000000000E+00 0.  1.
    9000005    2    1    2  501    0 -0.21712682132E-02  0.61184590595E-02 -0.89538960443E+03  0.11046102882E+04  0.64687042371E+03 0.  0.
         13    1    3    3    0    0  0.95845050275E+02  0.75845897141E+02 -0.95904685120E+03  0.96680387699E+03  0.00000000000E+00 0.  1.
          1    1    3    3  501    0 -0.95847221543E+02 -0.75839778682E+02  0.63657246767E+02  0.13780641122E+03  0.00000000000E+00 0.  1.
         21    1    1    2  502  501  0.21712682132E-02 -0.61184590595E-02  0.19626574658E+00  0.19637309700E+00  0.00000000000E+00 0. -1.
<mgrwt>
<rscale>  1 0.64687042E+03</rscale>
<asrwt>0</asrwt>
<pdfrwt beam="1">  1        1 0.38111594E+00 0.64687042E+03</pdfrwt>
<pdfrwt beam="2">0</pdfrwt>
<totfact> 0.16234016E+00</totfact>
</mgrwt>
</event>
<event>
 6    1  0.3255736E-003  0.6128351E+03  0.7818608E-02  0.9879129E-01
          1   -1    0    0  502    0  0.00000000000E+00  0.00000000000E+00  0.94851507743E+02  0.94851507743E+02  0.00000000000E+00 0.  1.
         13   -1    0    0    0    0 -0.00000000000E+00 -0.00000000000E+00 -0.10000000000E+04  0.10000000000E+04  0.00000000000E+00 0.  1.
    9000005    2    1    2  501    0  0.11529486198E+01 -0.27986283585E+01 -0.89918465112E+03  0.10881635325E+04  0.61282760637E+03 0.  0.
         13    1    3    3    0    0  0.17070211521E+03 -0.18276298912E+03 -0.13337027848E+03  0.28342398189E+03  0.00000000000E+00 0.  1.
          1    1    3    3  501    0 -0.16954916659E+03  0.17996436076E+03 -0.76581437264E+03  0.80473955065E+03  0.00000000000E+00 0.  1.
         21    1    1    2  502  501 -0.11529486198E+01  0.27986283585E+01 -0.59638411379E+01  0.66879752039E+01  0.00000000000E+00 0.  1.
<mgrwt>
<rscale>  1 0.61283508E+03</rscale>
<asrwt>0</asrwt>
<pdfrwt beam="1">  1        1 0.34491530E+00 0.61283508E+03</pdfrwt>
<pdfrwt beam="2">0</pdfrwt>
<totfact> 0.23531742E+00</totfact>
</mgrwt>
</event>
<event>
 6    1  0.3255736E-003  0.6189508E+03  0.7818608E-02  0.9866851E-01
          1   -1    0    0  502    0  0.00000000000E+00  0.00000000000E+00  0.97367184826E+02  0.97367184826E+02  0.00000000000E+00 0.  1.
         13   -1    0    0    0    0 -0.00000000000E+00 -0.00000000000E+00 -0.10000000000E+04  0.10000000000E+04  0.00000000000E+00 0.  1.
    9000005    2    1    2  501    0  0.53310979547E+00  0.60352479907E-01 -0.90417533016E+03  0.10957340281E+04  0.61895051886E+03 0.  0.
         13    1    3    3    0    0  0.62023203869E+02 -0.30248678496E+03 -0.48944773102E+03  0.57870909297E+03  0.00000000000E+00 0.  1.
          1    1    3    3  501    0 -0.61490094073E+02  0.30254713744E+03 -0.41472759914E+03  0.51702493511E+03  0.00000000000E+00 0.  1.
         21    1    1    2  502  501 -0.53310979547E+00 -0.60352479907E-01  0.15425149812E+01  0.16331567417E+01  0.00000000000E+00 0.  1.
<mgrwt>
<rscale>  1 0.61895075E+03</rscale>
<asrwt>0</asrwt>
<pdfrwt beam="1">  1        1 0.35406324E+00 0.61895075E+03</pdfrwt>
<pdfrwt beam="2">0</pdfrwt>
<totfact> 0.21445126E+00</totfact>
</mgrwt>
</event>
<event>
 6    1  0.3833008E-003  0.6533794E+03  0.7818608E-02  0.9800459E-01
          1   -1    0    0  502    0  0.00000000000E+00  0.00000000000E+00  0.10672626015E+03  0.10672626015E+03  0.00000000000E+00 0.  1.
         13   -1    0    0    0    0 -0.00000000000E+00 -0.00000000000E+00 -0.10000000000E+04  0.10000000000E+04  0.00000000000E+00 0.  1.
    9000005    2    1    2  501    0 -0.12138845932E-03  0.81587777572E-04 -0.89327376698E+03  0.11067261114E+04  0.65337941724E+03 0.  0.
         13    1    3    3    0    0 -0.28698811606E+03 -0.35274708801E+02 -0.18908435272E+03  0.34548426344E+03  0.00000000000E+00 0.  1.
          3    1    3    3  501    0  0.28698799468E+03  0.35274790389E+02 -0.70418941426E+03  0.76124184795E+03  0.00000000000E+00 0.  1.
         21    1    1    2  502  501  0.12138845933E-03 -0.81587777576E-04  0.27124303433E-04  0.14875298768E-03  0.00000000000E+00 0. -1.
<mgrwt>
<rscale>  1 0.65337942E+03</rscale>
<asrwt>0</asrwt>
<pdfrwt beam="1">  1        1 0.38809631E+00 0.65337942E+03</pdfrwt>
<pdfrwt beam="2">0</pdfrwt>
<totfact> 0.15101994E+00</totfact>
</mgrwt>
</event>
<event>
 6    1  0.3255736E-003  0.6379037E+03  0.7818608E-02  0.9829746E-01
          1   -1    0    0  502    0  0.00000000000E+00  0.00000000000E+00  0.10640963970E+03  0.10640963970E+03  0.00000000000E+00 0.  1.
         13   -1    0    0    0    0 -0.00000000000E+00 -0.00000000000E+00 -0.10000000000E+04  0.10000000000E+04  0.00000000000E+00 0.  1.
    9000005    2    1    2  501    0 -0.88694817912E+00 -0.52587562447E+01 -0.89653601493E+03  0.11003171792E+04  0.63788135846E+03 0.  0.
         13    1    3    3    0    0 -0.64644874565E+02 -0.55345289569E+02 -0.98015626096E+03  0.98384366481E+03  0.00000000000E+00 0.  1.
          1    1    3    3  501    0  0.63757926386E+02  0.50086533324E+02  0.83620246029E+02  0.11647351434E+03  0.00000000000E+00 0.  1.
         21    1    1    2  502  501  0.88694817912E+00  0.52587562447E+01  0.29456546291E+01  0.60924605462E+01  0.00000000000E+00 0. -1.
<mgrwt>
<rscale>  1 0.63790365E+03</rscale>
<asrwt>0</asrwt>
<pdfrwt beam="1">  1        1 0.38694496E+00 0.63790365E+03</pdfrwt>
<pdfrwt beam="2">0</pdfrwt>
<totfact> 0.15324551E+00</totfact>
</mgrwt>
</event>
<event>
 6    1  0.3255736E-003  0.6398692E+03  0.7818608E-02  0.9825977E-01
          1   -1    0    0  502    0  0.00000000000E+00  0.00000000000E+00  0.10235816078E+03  0.10235816078E+03  0.00000000000E+00 0.  1.
         13   -1    0    0    0    0 -0.00000000000E+00 -0.00000000000E+00 -0.10000000000E+04  0.10000000000E+04  0.00000000000E+00 0.  1.
    9000005    2    1    2  501    0  0.13975457023E-05  0.17508145049E-05 -0.89764184337E+03  0.11023581561E+04  0.63986922513E+03 0.  0.
         13    1    3    3    0    0  0.31708075691E+03 -0.41155766658E+02 -0.42962493871E+03  0.53554793576E+03  0.00000000000E+00 0.  1.
          1    1    3    3  501    0 -0.31708075552E+03  0.41155768408E+02 -0.46801690466E+03  0.56681022030E+03  0.00000000000E+00 0.  1.
         21    1    1    2  502  501 -0.13975457283E-05 -0.17508145001E-05  0.41524210708E-05  0.47181655573E-05  0.00000000000E+00 0.  1.
<mgrwt>
<rscale>  1 0.63986923E+03</rscale>
<asrwt>0</asrwt>
<pdfrwt beam="1">  1        1 0.37221228E+00 0.63986923E+03</pdfrwt>
<pdfrwt beam="2">0</pdfrwt>
<totfact> 0.17791234E+00</totfact>
</mgrwt>
</event>
<event>
 6    1  0.3255736E-003  0.6378031E+03  0.7818608E-02  0.9829939E-01
          1   -1    0    0  502    0  0.00000000000E+00  0.00000000000E+00  0.10170477340E+03  0.10170477340E+03  0.00000000000E+00 0.  1.
         13   -1    0    0    0    0 -0.00000000000E+00 -0.00000000000E+00 -0.10000000000E+04  0.10000000000E+04  0.00000000000E+00 0.  1.
    9000005    2    1    2  501    0  0.11145585216E-03  0.11495366755E-02 -0.89830175393E+03  0.11016981447E+04  0.63780307376E+03 0.  0.
         13    1    3    3    0    0 -0.21013875616E+03  0.23947277760E+03 -0.42515866075E+03  0.53128654685E+03  0.00000000000E+00 0.  1.
          3    1    3    3  501    0  0.21013886761E+03 -0.23947162806E+03 -0.47314309318E+03  0.57041159784E+03  0.00000000000E+00 0.  1.
         21    1    1    2  502  501 -0.11145585216E-03 -0.11495366755E-02  0.65273222978E-02  0.66287097805E-02  0.00000000000E+00 0. -1.
<mgrwt>
<rscale>  1 0.63780307E+03</rscale>
<asrwt>0</asrwt>
<pdfrwt beam="1">  1        1 0.36983632E+00 0.63780307E+03</pdfrwt>
<pdfrwt beam="2">0</pdfrwt>
<totfact> 0.18230949E+00</totfact>
</mgrwt>
</event>
<event>
 6    1  0.3255736E-003  0.5984385E+03  0.7818608E-02  0.9908651E-01
          1   -1    0    0  502    0  0.00000000000E+00  0.00000000000E+00  0.89532186420E+02  0.89532186420E+02  0.00000000000E+00 0.  1.
         13   -1    0    0    0    0 -0.00000000000E+00 -0.00000000000E+00 -0.10000000000E+04  0.10000000000E+04  0.00000000000E+00 0.  1.
    9000005    2    1    2  501    0  0.15918388456E-05 -0.13644753381E-05 -0.91046784722E+03  0.10895321527E+04  0.59843847717E+03 0.  0.
         13    1    3    3    0    0  0.60525353218E+02 -0.18145324725E+03 -0.87415005813E+03  0.89483346130E+03  0.00000000000E+00 0.  1.
          1    1    3    3  501    0 -0.60525351626E+02  0.18145324589E+03 -0.36317789091E+02  0.19469869141E+03  0.00000000000E+00 0.  1.
         21    1    1    2  502  501 -0.15918388481E-05  0.13644753251E-05  0.33644282058E-04  0.33709545518E-04  0.00000000000E+00 0.  1.
<mgrwt>
<rscale>  1 0.59843848E+03</rscale>
<asrwt>0</asrwt>
<pdfrwt beam="1">  1        1 0.32557227E+00 0.59843848E+03</pdfrwt>
<pdfrwt beam="2">0</pdfrwt>
<totfact> 0.28619729E+00</totfact>
</mgrwt>
</event>
<event>
 6    1  0.3255736E-003  0.6595927E+03  0.7818608E-02  0.9788944E-01
          1   -1    0    0  502    0  0.00000000000E+00  0.00000000000E+00  0.10876772349E+03  0.10876772349E+03  0.00000000000E+00 0.  1.
         13   -1    0    0    0    0 -0.00000000000E+00 -0.00000000000E+00 -0.10000000000E+04  0.10000000000E+04  0.00000000000E+00 0.  1.
    9000005    2    1    2  501    0  0.45218669413E-04 -0.12386424319E-03 -0.89123435247E+03  0.11087656434E+04  0.65959273863E+03 0.  0.
         13    1    3    3    0    0  0.99440301969E+02  0.18977089232E+03 -0.86708629720E+03  0.89316292579E+03  0.00000000000E+00 0.  1.
          3    1    3    3  501    0 -0.99440256750E+02 -0.18977101618E+03 -0.24148055271E+02  0.21560271756E+03  0.00000000000E+00 0.  1.
         21    1    1    2  502  501 -0.45218669422E-04  0.12386424321E-03  0.20759555726E-02  0.20801390862E-02  0.00000000000E+00 0.  1.
<mgrwt>
<rscale>  1 0.65959274E+03</rscale>
<asrwt>0</asrwt>
<pdfrwt beam="1">  1        1 0.39551983E+00 0.65959274E+03</pdfrwt>
<pdfrwt beam="2">0</pdfrwt>
<totfact> 0.13982318E+00</totfact>
</mgrwt>
</event>
<event>
 6    1  0.3255736E-003  0.6452218E+03  0.7818608E-02  0.9815787E-01
          1   -1    0    0  502    0  0.00000000000E+00  0.00000000000E+00  0.10408202419E+03  0.10408202419E+03  0.00000000000E+00 0.  1.
         13   -1    0    0    0    0 -0.00000000000E+00 -0.00000000000E+00 -0.10000000000E+04  0.10000000000E+04  0.00000000000E+00 0.  1.
    9000005    2    1    2  501    0 -0.84668041239E-04  0.19106624990E-04 -0.89592221852E+03  0.11040777806E+04  0.64522176341E+03 0.  0.
         13    1    3    3    0    0 -0.23313904388E+03 -0.19102919035E+03 -0.64479538348E+03  0.71176333982E+03  0.00000000000E+00 0.  1.
          1    1    3    3  501    0  0.23313895921E+03  0.19102920946E+03 -0.25112683503E+03  0.39231444078E+03  0.00000000000E+00 0.  1.
         21    1    1    2  502  501  0.84668041242E-04 -0.19106624971E-04  0.42427072780E-02  0.42435950310E-02  0.00000000000E+00 0. -1.
<mgrwt>
<rscale>  1 0.64522176E+03</rscale>
<asrwt>0</asrwt>
<pdfrwt beam="1">  1        1 0.37848089E+00 0.64522176E+03</pdfrwt>
<pdfrwt beam="2">0</pdfrwt>
<totfact> 0.16679493E+00</totfact>
</mgrwt>
</event>
<event>
 6    1  0.3255736E-003  0.6427336E+03  0.7818608E-02  0.9820510E-01
          1   -1    0    0  502    0  0.00000000000E+00  0.00000000000E+00  0.10328541089E+03  0.10328541089E+03  0.00000000000E+00 0.  1.
         13   -1    0    0    0    0 -0.00000000000E+00 -0.00000000000E+00 -0.10000000000E+04  0.10000000000E+04  0.00000000000E+00 0.  1.
    9000005    2    1    2  501    0  0.54443510857E-02  0.15698774718E-02 -0.89672237005E+03  0.11032757855E+04  0.64273357611E+03 0.  0.
         13    1    3    3    0    0  0.21166196688E+03 -0.64241245935E+02 -0.84854092933E+03  0.87689761926E+03  0.00000000000E+00 0.  1.
          1    1    3    3  501    0 -0.21165652253E+03  0.64242815812E+02 -0.48181440715E+02  0.22637816622E+03  0.00000000000E+00 0.  1.
         21    1    1    2  502  501 -0.54443510857E-02 -0.15698774717E-02  0.77809396843E-02  0.96254088948E-02  0.00000000000E+00 0. -1.
<mgrwt>
<rscale>  1 0.64273358E+03</rscale>
<asrwt>0</asrwt>
<pdfrwt beam="1">  1        1 0.37558410E+00 0.64273358E+03</pdfrwt>
<pdfrwt beam="2">0</pdfrwt>
<totfact> 0.17184782E+00</totfact>
</mgrwt>
</event>
<event>
 6    1  0.3597505E-003  0.6503775E+03  0.7818608E-02  0.9806071E-01
          1   -1    0    0  502    0  0.00000000000E+00  0.00000000000E+00  0.10574782639E+03  0.10574782639E+03  0.00000000000E+00 0.  1.
         13   -1    0    0    0    0 -0.00000000000E+00 -0.00000000000E+00 -0.10000000000E+04  0.10000000000E+04  0.00000000000E+00 0.  1.
    9000005    2    1    2  501    0  0.13928681625E-03 -0.76164110425E-04 -0.89425220084E+03  0.11057476653E+04  0.65037750626E+03 0.  0.
         13    1    3    3    0    0  0.17494313225E+03  0.16831531135E+03 -0.81497706319E+03  0.85036624879E+03  0.00000000000E+00 0.  1.
          1    1    3    3  501    0 -0.17494299296E+03 -0.16831538751E+03 -0.79275137656E+02  0.25538141653E+03  0.00000000000E+00 0.  1.
         21    1    1    2  502  501 -0.13928681623E-03  0.76164110425E-04  0.27229923429E-04  0.16106910822E-03  0.00000000000E+00 0.  1.
<mgrwt>
<rscale>  1 0.65037751E+03</rscale>
<asrwt>0</asrwt>
<pdfrwt beam="1">  1        1 0.38453836E+00 0.65037751E+03</pdfrwt>
<pdfrwt beam="2">0</pdfrwt>
<totfact> 0.15668365E+00</totfact>
</mgrwt>
</event>
<event>
 6    1  0.3255736E-003  0.6515101E+03  0.7818608E-02  0.9803950E-01
          1   -1    0    0  502    0  0.00000000000E+00  0.00000000000E+00  0.10980278941E+03  0.10980278941E+03  0.00000000000E+00 0.  1.
         13   -1    0    0    0    0 -0.00000000000E+00 -0.00000000000E+00 -0.10000000000E+04  0.10000000000E+04  0.00000000000E+00 0.  1.
    9000005    2    1    2  501    0 -0.10076396877E+02 -0.54026390258E+00 -0.88329534800E+03  0.10975773501E+04  0.65143191662E+03 0.  0.
         13    1    3    3    0    0  0.54449713486E+02  0.30923070681E+03 -0.30151280157E+03  0.43531410596E+03  0.00000000000E+00 0.  1.
          3    1    3    3  501    0 -0.64526110363E+02 -0.30977097071E+03 -0.58178254643E+03  0.66226324414E+03  0.00000000000E+00 0.  1.
         21    1    1    2  502  501  0.10076396877E+02  0.54026390258E+00 -0.69018625888E+01  0.12225439309E+02  0.00000000000E+00 0. -1.
<mgrwt>
<rscale>  1 0.65151007E+03</rscale>
<asrwt>0</asrwt>
<pdfrwt beam="1">  1        1 0.39928371E+00 0.65151007E+03</pdfrwt>
<pdfrwt beam="2">0</pdfrwt>
<totfact> 0.13473562E+00</totfact>
</mgrwt>
</event>
<event>
 6    1  0.3255736E-003  0.6537336E+03  0.7818608E-02  0.9799799E-01
          1   -1    0    0  502    0  0.00000000000E+00  0.00000000000E+00  0.10755023101E+03  0.10755023101E+03  0.00000000000E+00 0.  1.
         13   -1    0    0    0    0 -0.00000000000E+00 -0.00000000000E+00 -0.10000000000E+04  0.10000000000E+04  0.00000000000E+00 0.  1.
    9000005    2    1    2  501    0  0.36352718580E+00  0.49414056360E-01 -0.89310514866E+03  0.11067991543E+04  0.65373345236E+03 0.  0.
         13    1    3    3    0    0  0.14159226942E+03  0.25170590672E+03 -0.18713905224E+03  0.34412971262E+03  0.00000000000E+00 0.  1.
          1    1    3    3  501    0 -0.14122874223E+03 -0.25165649266E+03 -0.70596609642E+03  0.76266944165E+03  0.00000000000E+00 0.  1.
         21    1    1    2  502  501 -0.36352718580E+00 -0.49414056360E-01  0.65537966437E+00  0.75107673925E+00  0.00000000000E+00 0.  1.
<mgrwt>
<rscale>  1 0.65373356E+03</rscale>
<asrwt>0</asrwt>
<pdfrwt beam="1">  1        1 0.39109257E+00 0.65373356E+03</pdfrwt>
<pdfrwt beam="2">0</pdfrwt>
<totfact> 0.14646074E+00</totfact>
</mgrwt>
</event>
<event>
 6    1  0.3255736E-003  0.6459323E+03  0.7818608E-02  0.9814442E-01
          1   -1    0    0  502    0  0.00000000000E+00  0.00000000000E+00  0.11587158081E+03  0.11587158081E+03  0.00000000000E+00 0.  1.
         13   -1    0    0    0    0 -0.00000000000E+00 -0.00000000000E+00 -0.10000000000E+04  0.10000000000E+04  0.00000000000E+00 0.  1.
    9000005    2    1    2  501    0  0.17800538209E+00  0.13627401545E+00 -0.89569167691E+03  0.11043061502E+04  0.64593222787E+03 0.  0.
         13    1    3    3    0    0 -0.72060593695E+02 -0.27205336458E+03 -0.71833309703E+03  0.77149737565E+03  0.00000000000E+00 0.  1.
          3    1    3    3  501    0  0.72238599077E+02  0.27218963859E+03 -0.17735857988E+03  0.33280877454E+03  0.00000000000E+00 0.  1.
         21    1    1    2  502  501 -0.17800538209E+00 -0.13627401545E+00  0.11563257714E+02  0.11565430622E+02  0.00000000000E+00 0.  1.
<mgrwt>
<rscale>  1 0.64593227E+03</rscale>
<asrwt>0</asrwt>
<pdfrwt beam="1">  1        1 0.42135209E+00 0.64593227E+03</pdfrwt>
<pdfrwt beam="2">0</pdfrwt>
<totfact> 0.10740063E+00</totfact>
</mgrwt>
</event>
<event>
 6    1  0.3255736E-003  0.6403792E+03  0.7818608E-02  0.9825001E-01
          1   -1    0    0  502    0  0.00000000000E+00  0.00000000000E+00  0.10252141493E+03  0.10252141493E+03  0.00000000000E+00 0.  1.
         13   -1    0    0    0    0 -0.00000000000E+00 -0.00000000000E+00 -0.10000000000E+04  0.10000000000E+04  0.00000000000E+00 0.  1.
    9000005    2    1    2  501    0 -0.16359080206E-05  0.84721957023E-05 -0.89747861958E+03  0.11025213794E+04  0.64037919965E+03 0.  0.
         13    1    3    3    0    0  0.98977572332E+02 -0.24066018323E+03 -0.76994717781E+03  0.81273153023E+03  0.00000000000E+00 0.  1.
          3    1    3    3  501    0 -0.98977573968E+02  0.24066019170E+03 -0.12753144177E+03  0.28978984913E+03  0.00000000000E+00 0.  1.
         21    1    1    2  502  501  0.16359080137E-05 -0.84721957023E-05  0.34513659008E-04  0.35575932218E-04  0.00000000000E+00 0. -1.
<mgrwt>
<rscale>  1 0.64037920E+03</rscale>
<asrwt>0</asrwt>
<pdfrwt beam="1">  1        1 0.37280593E+00 0.64037920E+03</pdfrwt>
<pdfrwt beam="2">0</pdfrwt>
<totfact> 0.17682981E+00</totfact>
</mgrwt>
</event>
<event>
 6    1  0.3255736E-003  0.6507010E+03  0.7818608E-02  0.9805465E-01
          3   -1    0    0  502    0  0.00000000000E+00  0.00000000000E+00  0.10585316519E+03  0.10585316519E+03  0.00000000000E+00 0.  1.
         13   -1    0    0    0    0 -0.00000000000E+00 -0.00000000000E+00 -0.10000000000E+04  0.10000000000E+04  0.00000000000E+00 0.  1.
    9000005    2    1    2  501    0  0.17163150943E-03  0.78407634305E-05 -0.89414700789E+03  0.11058529213E+04  0.65070101571E+03 0.  0.
         13    1    3    3    0    0  0.17870161528E+03  0.26279317437E+03 -0.56553186444E+03  0.64870702902E+03  0.00000000000E+00 0.  1.
          1    1    3    3  501    0 -0.17870144365E+03 -0.26279316653E+03 -0.32861514346E+03  0.45714589230E+03  0.00000000000E+00 0.  1.
         21    1    1    2  502  501 -0.17163150944E-03 -0.78407634822E-05  0.17308930084E-03  0.24388267399E-03  0.00000000000E+00 0. -1.
<mgrwt>
<rscale>  1 0.65070102E+03</rscale>
<asrwt>0</asrwt>
<pdfrwt beam="1">  1        3 0.38492141E+00 0.65070102E+03</pdfrwt>
<pdfrwt beam="2">0</pdfrwt>
<totfact> 0.71089303E-02</totfact>
</mgrwt>
</event>
<event>
 6    1  0.3255736E-003  0.6415019E+03  0.7818608E-02  0.9822857E-01
          1   -1    0    0  502    0  0.00000000000E+00  0.00000000000E+00  0.10288180251E+03  0.10288180251E+03  0.00000000000E+00 0.  1.
         13   -1    0    0    0    0 -0.00000000000E+00 -0.00000000000E+00 -0.10000000000E+04  0.10000000000E+04  0.00000000000E+00 0.  1.
    9000005    2    1    2  501    0  0.87127390768E-03 -0.15788185727E-02 -0.89711687433E+03  0.11028795659E+04  0.64150187109E+03 0.  0.
         13    1    3    3    0    0  0.21107954128E+01 -0.26474386646E+03 -0.13725414734E+03  0.29821547788E+03  0.00000000000E+00 0.  1.
          1    1    3    3  501    0 -0.21099241389E+01  0.26474228764E+03 -0.75986272699E+03  0.80466408800E+03  0.00000000000E+00 0.  1.
         21    1    1    2  502  501 -0.87127390768E-03  0.15788185727E-02 -0.13231588442E-02  0.22366348908E-02  0.00000000000E+00 0. -1.
<mgrwt>
<rscale>  1 0.64150187E+03</rscale>
<asrwt>0</asrwt>
<pdfrwt beam="1">  1        1 0.37411643E+00 0.64150187E+03</pdfrwt>
<pdfrwt beam="2">0</pdfrwt>
<totfact> 0.17446241E+00</totfact>
</mgrwt>
</event>
<event>
 6    1  0.3255736E-003  0.6528412E+03  0.7818608E-02  0.9801462E-01
          1   -1    0    0  502    0  0.00000000000E+00  0.00000000000E+00  0.10655080333E+03  0.10655080333E+03  0.00000000000E+00 0.  1.
         13   -1    0    0    0    0 -0.00000000000E+00 -0.00000000000E+00 -0.10000000000E+04  0.10000000000E+04  0.00000000000E+00 0.  1.
    9000005    2    1    2  501    0 -0.97750930763E-05  0.36448321623E-04 -0.89344958067E+03  0.11065504175E+04  0.65284123125E+03 0.  0.
         13    1    3    3    0    0  0.18821588044E+03 -0.23970796836E+03 -0.24858443072E+03  0.39329295308E+03  0.00000000000E+00 0.  1.
          3    1    3    3  501    0 -0.18821589022E+03  0.23970800481E+03 -0.64486514995E+03  0.71325746440E+03  0.00000000000E+00 0.  1.
         21    1    1    2  502  501  0.97750930861E-05 -0.36448321631E-04  0.38399667739E-03  0.38584644723E-03  0.00000000000E+00 0. -1.
<mgrwt>
<rscale>  1 0.65284123E+03</rscale>
<asrwt>0</asrwt>
<pdfrwt beam="1">  1        1 0.38745828E+00 0.65284123E+03</pdfrwt>
<pdfrwt beam="2">0</pdfrwt>
<totfact> 0.15202106E+00</totfact>
</mgrwt>
</event>
<event>
 6    1  0.3255736E-003  0.6515447E+03  0.7818608E-02  0.9803885E-01
          1   -1    0    0  502    0  0.00000000000E+00  0.00000000000E+00  0.10789888444E+03  0.10789888444E+03  0.00000000000E+00 0.  1.
         13   -1    0    0    0    0 -0.00000000000E+00 -0.00000000000E+00 -0.10000000000E+04  0.10000000000E+04  0.00000000000E+00 0.  1.
    9000005    2    1    2  501    0 -0.18463879060E+00  0.11489507176E+01 -0.89365848405E+03  0.11059547713E+04  0.65154364083E+03 0.  0.
         13    1    3    3    0    0  0.30763200624E+03  0.87376212815E+02 -0.55290372051E+03  0.63872887674E+03  0.00000000000E+00 0.  1.
          1    1    3    3  501    0 -0.30781664503E+03 -0.86227262098E+02 -0.34075476353E+03  0.46722589457E+03  0.00000000000E+00 0.  1.
         21    1    1    2  502  501  0.18463879060E+00 -0.11489507176E+01  0.15573684863E+01  0.19441131235E+01  0.00000000000E+00 0. -1.
<mgrwt>
<rscale>  1 0.65154468E+03</rscale>
<asrwt>0</asrwt>
<pdfrwt beam="1">  1        1 0.39236041E+00 0.65154468E+03</pdfrwt>
<pdfrwt beam="2">0</pdfrwt>
<totfact> 0.14463439E+00</totfact>
</mgrwt>
</event>
<event>
 6    1  0.3255736E-003  0.6525377E+03  0.7818608E-02  0.9802029E-01
          1   -1    0    0  502    0  0.00000000000E+00  0.00000000000E+00  0.10651422183E+03  0.10651422183E+03  0.00000000000E+00 0.  1.
         13   -1    0    0    0    0 -0.00000000000E+00 -0.00000000000E+00 -0.10000000000E+04  0.10000000000E+04  0.00000000000E+00 0.  1.
    9000005    2    1    2  501    0 -0.45192396295E-02  0.10033149267E-02 -0.89354855894E+03  0.11064512706E+04  0.65253765181E+03 0.  0.
         13    1    3    3    0    0  0.39942452082E+01 -0.19785708980E+03 -0.69338341179E+01  0.19801883757E+03  0.00000000000E+00 0.  1.
          3    1    3    3  501    0 -0.39987644478E+01  0.19785809311E+03 -0.88661472482E+03  0.90843243304E+03  0.00000000000E+00 0.  1.
         21    1    1    2  502  501  0.45192396295E-02 -0.10033149267E-02  0.62780775058E-01  0.62951218293E-01  0.00000000000E+00 0. -1.
<mgrwt>
<rscale>  1 0.65253765E+03</rscale>
<asrwt>0</asrwt>
<pdfrwt beam="1">  1        1 0.38732526E+00 0.65253765E+03</pdfrwt>
<pdfrwt beam="2">0</pdfrwt>
<totfact> 0.15223596E+00</totfact>
</mgrwt>
</event>
<event>
 6    1  0.3255736E-003  0.6443390E+03  0.7818608E-02  0.9817460E-01
          1   -1    0    0  502    0  0.00000000000E+00  0.00000000000E+00  0.10380863773E+03  0.10380863773E+03  0.00000000000E+00 0.  1.
         13   -1    0    0    0    0 -0.00000000000E+00 -0.00000000000E+00 -0.10000000000E+04  0.10000000000E+04  0.00000000000E+00 0.  1.
    9000005    2    1    2  501    0 -0.12122332826E-02  0.25422952488E-02 -0.89620666054E+03  0.11037930824E+04  0.64433903362E+03 0.  0.
         13    1    3    3    0    0  0.11225703440E+03  0.30062682270E+03 -0.49703046903E+03  0.59162269686E+03  0.00000000000E+00 0.  1.
          3    1    3    3  501    0 -0.11225824663E+03 -0.30062428040E+03 -0.39917619151E+03  0.51217038549E+03  0.00000000000E+00 0.  1.
         21    1    1    2  502  501  0.12122332826E-02 -0.25422952488E-02  0.15298271865E-01  0.15555381600E-01  0.00000000000E+00 0. -1.
<mgrwt>
<rscale>  1 0.64433903E+03</rscale>
<asrwt>0</asrwt>
<pdfrwt beam="1">  1        1 0.37748675E+00 0.64433903E+03</pdfrwt>
<pdfrwt beam="2">0</pdfrwt>
<totfact> 0.16851372E+00</totfact>
</mgrwt>
</event>
<event>
 6    1  0.3255736E-003  0.6556857E+03  0.7818608E-02  0.9796168E-01
          1   -1    0    0  502    0  0.00000000000E+00  0.00000000000E+00  0.10748237420E+03  0.10748237420E+03  0.00000000000E+00 0.  1.
         13   -1    0    0    0    0 -0.00000000000E+00 -0.00000000000E+00 -0.10000000000E+04  0.10000000000E+04  0.00000000000E+00 0.  1.
    9000005    2    1    2  501    0 -0.27955644384E-03  0.19638401142E-03 -0.89251904054E+03  0.11074809188E+04  0.65568570806E+03 0.  0.
         13    1    3    3    0    0  0.26516148138E+03  0.10827328830E+03 -0.17682053176E+03  0.33659948993E+03  0.00000000000E+00 0.  1.
          3    1    3    3  501    0 -0.26516176094E+03 -0.10827309191E+03 -0.71569850878E+03  0.77088142887E+03  0.00000000000E+00 0.  1.
         21    1    1    2  502  501  0.27955644382E-03 -0.19638401142E-03  0.14147405738E-02  0.14554069453E-02  0.00000000000E+00 0.  1.
<mgrwt>
<rscale>  1 0.65568571E+03</rscale>
<asrwt>0</asrwt>
<pdfrwt beam="1">  1        1 0.39084582E+00 0.65568571E+03</pdfrwt>
<pdfrwt beam="2">0</pdfrwt>
<totfact> 0.14677718E+00</totfact>
</mgrwt>
</event>
<event>
 6    1  0.3255736E-003  0.6492760E+03  0.7818608E-02  0.9808139E-01
          1   -1    0    0  502    0  0.00000000000E+00  0.00000000000E+00  0.10549752215E+03  0.10549752215E+03  0.00000000000E+00 0.  1.
         13   -1    0    0    0    0 -0.00000000000E+00 -0.00000000000E+00 -0.10000000000E+04  0.10000000000E+04  0.00000000000E+00 0.  1.
    9000005    2    1    2  501    0  0.18444715088E-01  0.16070275581E+00 -0.89453846034E+03  0.11053318106E+04  0.64927600317E+03 0.  0.
         13    1    3    3    0    0 -0.12973344980E+03  0.28424074849E+03 -0.59780549509E+03  0.67453315786E+03  0.00000000000E+00 0.  1.
          3    1    3    3  501    0  0.12975189452E+03 -0.28408004574E+03 -0.29673296525E+03  0.43079865272E+03  0.00000000000E+00 0.  1.
         21    1    1    2  502  501 -0.18444715088E-01 -0.16070275581E+00  0.35982485408E-01  0.16571156416E+00  0.00000000000E+00 0.  1.
<mgrwt>
<rscale>  1 0.64927602E+03</rscale>
<asrwt>0</asrwt>
<pdfrwt beam="1">  1        1 0.38362816E+00 0.64927602E+03</pdfrwt>
<pdfrwt beam="2">0</pdfrwt>
<totfact> 0.15817436E+00</totfact>
</mgrwt>
</event>
<event>
 6    1  0.3255736E-003  0.6410470E+03  0.7818608E-02  0.9823725E-01
          1   -1    0    0  502    0  0.00000000000E+00  0.00000000000E+00  0.10273534136E+03  0.10273534136E+03  0.00000000000E+00 0.  1.
         13   -1    0    0    0    0 -0.00000000000E+00 -0.00000000000E+00 -0.10000000000E+04  0.10000000000E+04  0.00000000000E+00 0.  1.
    9000005    2    1    2  501    0 -0.36802163663E-05  0.30869968981E-05 -0.89726468573E+03  0.11027353138E+04  0.64104699994E+03 0.  0.
         13    1    3    3    0    0 -0.29058252116E+03  0.12784154191E+03 -0.52466589154E+03  0.61323401666E+03  0.00000000000E+00 0.  1.
          1    1    3    3  501    0  0.29058251748E+03 -0.12784153882E+03 -0.37259879419E+03  0.48950129718E+03  0.00000000000E+00 0.  1.
         21    1    1    2  502  501  0.36802164128E-05 -0.30869968873E-05  0.27096505450E-04  0.27518978001E-04  0.00000000000E+00 0.  1.
<mgrwt>
<rscale>  1 0.64104700E+03</rscale>
<asrwt>0</asrwt>
<pdfrwt beam="1">  1        1 0.37358385E+00 0.64104700E+03</pdfrwt>
<pdfrwt beam="2">0</pdfrwt>
<totfact> 0.17542080E+00</totfact>
</mgrwt>
</event>
<event>
 6    1  0.3255736E-003  0.6367474E+03  0.7818608E-02  0.9831970E-01
          1   -1    0    0  502    0  0.00000000000E+00  0.00000000000E+00  0.10351072972E+03  0.10351072972E+03  0.00000000000E+00 0.  1.
         13   -1    0    0    0    0 -0.00000000000E+00 -0.00000000000E+00 -0.10000000000E+04  0.10000000000E+04  0.00000000000E+00 0.  1.
    9000005    2    1    2  501    0  0.93510126344E+00 -0.19189345753E+00 -0.89852085308E+03  0.11012660547E+04  0.63674664388E+03 0.  0.
         13    1    3    3    0    0  0.83153675156E+02  0.25323980987E+03 -0.75060575806E+03  0.79652616971E+03  0.00000000000E+00 0.  1.
          3    1    3    3  501    0 -0.82218573893E+02 -0.25343170333E+03 -0.14791509502E+03  0.30473988495E+03  0.00000000000E+00 0.  1.
         21    1    1    2  502  501 -0.93510126344E+00  0.19189345753E+00  0.20315827947E+01  0.22446750597E+01  0.00000000000E+00 0. -1.
<mgrwt>
<rscale>  1 0.63674736E+03</rscale>
<asrwt>0</asrwt>
<pdfrwt beam="1">  1        1 0.37640345E+00 0.63674736E+03</pdfrwt>
<pdfrwt beam="2">0</pdfrwt>
<totfact> 0.17061392E+00</totfact>
</mgrwt>
</event>
<event>
 6    1  0.3255736E-003  0.6581704E+03  0.7818608E-02  0.9791568E-01
          1   -1    0    0  502    0  0.00000000000E+00  0.00000000000E+00  0.10829766379E+03  0.10829766379E+03  0.00000000000E+00 0.  1.
         13   -1    0    0    0    0 -0.00000000000E+00 -0.00000000000E+00 -0.10000000000E+04  0.10000000000E+04  0.00000000000E+00 0.  1.
    9000005    2    1    2  501    0 -0.35050764318E-05 -0.12539290140E-04 -0.89170294531E+03  0.11082970545E+04  0.65817035670E+03 0.  0.
         13    1    3    3    0    0  0.24957978762E+02  0.29918374131E+03 -0.21890965721E+03  0.37155786870E+03  0.00000000000E+00 0.  1.
          1    1    3    3  501    0 -0.24957982267E+02 -0.29918375385E+03 -0.67279328810E+03  0.73673918585E+03  0.00000000000E+00 0.  1.
         21    1    1    2  502  501  0.35050764297E-05  0.12539290165E-04  0.60910661062E-03  0.60924574882E-03  0.00000000000E+00 0.  1.
<mgrwt>
<rscale>  1 0.65817036E+03</rscale>
<asrwt>0</asrwt>
<pdfrwt beam="1">  1        1 0.39381052E+00 0.65817036E+03</pdfrwt>
<pdfrwt beam="2">0</pdfrwt>
<totfact> 0.14232913E+00</totfact>
</mgrwt>
</event>
<event>
 6    1  0.3255736E-003  0.5325219E+03  0.7818608E-02  0.1005622E+00
          1   -1    0    0  502    0  0.00000000000E+00  0.00000000000E+00  0.93884709754E+02  0.93884709754E+02  0.00000000000E+00 0.  1.
         13   -1    0    0    0    0 -0.00000000000E+00 -0.00000000000E+00 -0.10000000000E+04  0.10000000000E+04  0.00000000000E+00 0.  1.
    9000005    2    1    2  501    0  0.36849577203E+02 -0.20184992963E+02 -0.90709678034E+03  0.10518574733E+04  0.53086179931E+03 0.  0.
         13    1    3    3    0    0  0.70671403325E+02 -0.78350697627E+02  0.32072473739E+02  0.11028110735E+03  0.00000000000E+00 0.  1.
          1    1    3    3  501    0 -0.33821826122E+02  0.58165704664E+02 -0.93916925408E+03  0.94157636595E+03  0.00000000000E+00 0.  1.
         21    1    1    2  502  501 -0.36849577203E+02  0.20184992963E+02  0.98149009025E+00  0.42027236451E+02  0.00000000000E+00 0.  1.
<mgrwt>
<rscale>  1 0.53252190E+03</rscale>
<asrwt>0</asrwt>
<pdfrwt beam="1">  1        1 0.34139966E+00 0.53252190E+03</pdfrwt>
<pdfrwt beam="2">0</pdfrwt>
<totfact> 0.24758431E+00</totfact>
</mgrwt>
</event>
<event>
 6    1  0.3255736E-003  0.6437596E+03  0.7818608E-02  0.9818560E-01
          1   -1    0    0  502    0  0.00000000000E+00  0.00000000000E+00  0.10484905495E+03  0.10484905495E+03  0.00000000000E+00 0.  1.
         13   -1    0    0    0    0 -0.00000000000E+00 -0.00000000000E+00 -0.10000000000E+04  0.10000000000E+04  0.00000000000E+00 0.  1.
    9000005    2    1    2  501    0  0.27059587538E-01 -0.33958098205E-01 -0.89639297068E+03  0.11036062706E+04  0.64375961401E+03 0.  0.
         13    1    3    3    0    0 -0.70184031324E+02  0.65876810385E+01  0.90210023113E+02  0.11448599943E+03  0.00000000000E+00 0.  1.
          1    1    3    3  501    0  0.70211090912E+02 -0.66216391367E+01 -0.98660299380E+03  0.98912027113E+03  0.00000000000E+00 0.  1.
         21    1    1    2  502  501 -0.27059587538E-01  0.33958098205E-01  0.12420256328E+01  0.12427843925E+01  0.00000000000E+00 0. -1.
<mgrwt>
<rscale>  1 0.64375962E+03</rscale>
<asrwt>0</asrwt>
<pdfrwt beam="1">  1        1 0.38127009E+00 0.64375962E+03</pdfrwt>
<pdfrwt beam="2">0</pdfrwt>
<totfact> 0.16217903E+00</totfact>
</mgrwt>
</event>
<event>
 6    1  0.3255736E-003  0.6347010E+03  0.7818608E-02  0.9835918E-01
          1   -1    0    0  502    0  0.00000000000E+00  0.00000000000E+00  0.10269712518E+03  0.10269712518E+03  0.00000000000E+00 0.  1.
         13   -1    0    0    0    0 -0.00000000000E+00 -0.00000000000E+00 -0.10000000000E+04  0.10000000000E+04  0.00000000000E+00 0.  1.
    9000005    2    1    2  501    0  0.55396408671E-01 -0.62614901436E-01 -0.89928770029E+03  0.11007105398E+04  0.63470096700E+03 0.  0.
         13    1    3    3    0    0  0.14993735771E+02  0.30177897289E+03 -0.28148349533E+03  0.41295074613E+03  0.00000000000E+00 0.  1.
          1    1    3    3  501    0 -0.14938339363E+02 -0.30184158779E+03 -0.61780420496E+03  0.68775979365E+03  0.00000000000E+00 0.  1.
         21    1    1    2  502  501 -0.55396408671E-01  0.62614901436E-01  0.19848254682E+01  0.19865853939E+01  0.00000000000E+00 0.  1.
<mgrwt>
<rscale>  1 0.63470097E+03</rscale>
<asrwt>0</asrwt>
<pdfrwt beam="1">  1        1 0.37344488E+00 0.63470097E+03</pdfrwt>
<pdfrwt beam="2">0</pdfrwt>
<totfact> 0.17587252E+00</totfact>
</mgrwt>
</event>
<event>
 6    1  0.3255736E-003  0.6319136E+03  0.7818608E-02  0.9841322E-01
          1   -1    0    0  502    0  0.00000000000E+00  0.00000000000E+00  0.99853072983E+02  0.99853072983E+02  0.00000000000E+00 0.  1.
         13   -1    0    0    0    0 -0.00000000000E+00 -0.00000000000E+00 -0.10000000000E+04  0.10000000000E+04  0.00000000000E+00 0.  1.
    9000005    2    1    2  501    0  0.50021506063E-01  0.58511710304E-01 -0.90004574221E+03  0.10997259347E+04  0.63191359181E+03 0.  0.
         13    1    3    3    0    0  0.22041109090E+02  0.10741201377E+03 -0.96575005311E+03  0.97195489415E+03  0.00000000000E+00 0.  1.
          1    1    3    3  501    0 -0.21991087584E+02 -0.10735350206E+03  0.65704310899E+02  0.12777104057E+03  0.00000000000E+00 0.  1.
         21    1    1    2  502  501 -0.50021506063E-01 -0.58511710304E-01 -0.10118481082E+00  0.12713826038E+00  0.00000000000E+00 0. -1.
<mgrwt>
<rscale>  1 0.63191360E+03</rscale>
<asrwt>0</asrwt>
<pdfrwt beam="1">  1        1 0.36310285E+00 0.63191360E+03</pdfrwt>
<pdfrwt beam="2">0</pdfrwt>
<totfact> 0.19534435E+00</totfact>
</mgrwt>
</event>
<event>
 6    1  0.3255736E-003  0.6560483E+03  0.7818608E-02  0.9795496E-01
          1   -1    0    0  502    0  0.00000000000E+00  0.00000000000E+00  0.10759985793E+03  0.10759985793E+03  0.00000000000E+00 0.  1.
         13   -1    0    0    0    0 -0.00000000000E+00 -0.00000000000E+00 -0.10000000000E+04  0.10000000000E+04  0.00000000000E+00 0.  1.
    9000005    2    1    2  501    0  0.15609417687E-05  0.31575096955E-05 -0.89240014769E+03  0.11075998513E+04  0.65604832673E+03 0.  0.
         13    1    3    3    0    0  0.29871038648E+03 -0.10649195170E+03 -0.30463092854E+03  0.43973677739E+03  0.00000000000E+00 0.  1.
          1    1    3    3  501    0 -0.29871038492E+03  0.10649195486E+03 -0.58776921915E+03  0.66786307391E+03  0.00000000000E+00 0.  1.
         21    1    1    2  502  501 -0.15609418096E-05 -0.31575096920E-05  0.56217917477E-05  0.66340748596E-05  0.00000000000E+00 0.  1.
<mgrwt>
<rscale>  1 0.65604833E+03</rscale>
<asrwt>0</asrwt>
<pdfrwt beam="1">  1        1 0.39127304E+00 0.65604833E+03</pdfrwt>
<pdfrwt beam="2">0</pdfrwt>
<totfact> 0.14612807E+00</totfact>
</mgrwt>
</event>
<event>
 6    1  0.3255736E-003  0.6476104E+03  0.7818608E-02  0.9811273E-01
          1   -1    0    0  502    0  0.00000000000E+00  0.00000000000E+00  0.10495884171E+03  0.10495884171E+03  0.00000000000E+00 0.  1.
         13   -1    0    0    0    0 -0.00000000000E+00 -0.00000000000E+00 -0.10000000000E+04  0.10000000000E+04  0.00000000000E+00 0.  1.
    9000005    2    1    2  501    0  0.99666455094E-03  0.56563911365E-02 -0.89515009859E+03  0.11048497501E+04  0.64761043172E+03 0.  0.
         13    1    3    3    0    0  0.28058506879E+03 -0.13986988764E+03 -0.30941899702E+03  0.44049027459E+03  0.00000000000E+00 0.  1.
          1    1    3    3  501    0 -0.28058407213E+03  0.13987554403E+03 -0.58573110158E+03  0.66435947551E+03  0.00000000000E+00 0.  1.
         21    1    1    2  502  501 -0.99666455094E-03 -0.56563911364E-02  0.10894030372E+00  0.10909160314E+00  0.00000000000E+00 0.  1.
<mgrwt>
<rscale>  1 0.64761043E+03</rscale>
<asrwt>0</asrwt>
<pdfrwt beam="1">  1        1 0.38166932E+00 0.64761043E+03</pdfrwt>
<pdfrwt beam="2">0</pdfrwt>
<totfact> 0.16140742E+00</totfact>
</mgrwt>
</event>
<event>
 6    1  0.3255736E-003  0.7264913E+03  0.7818608E-02  0.9672971E-01
          1   -1    0    0  502    0  0.00000000000E+00  0.00000000000E+00  0.13195541040E+03  0.13195541040E+03  0.00000000000E+00 0.  1.
         13   -1    0    0    0    0 -0.00000000000E+00 -0.00000000000E+00 -0.10000000000E+04  0.10000000000E+04  0.00000000000E+00 0.  1.
    9000005    2    1    2  501    0  0.14607775801E-01 -0.98518830180E-02 -0.86803895422E+03  0.11319369116E+04  0.72649125637E+03 0.  0.
         13    1    3    3    0    0  0.35069342653E+03 -0.80145854967E+02 -0.35544131243E+03  0.50571510167E+03  0.00000000000E+00 0.  1.
          3    1    3    3  501    0 -0.35067881875E+03  0.80136003084E+02 -0.51259764179E+03  0.62622180997E+03  0.00000000000E+00 0.  1.
         21    1    1    2  502  501 -0.14607775801E-01  0.98518830180E-02 -0.56353738605E-02  0.18498760807E-01  0.00000000000E+00 0.  1.
<mgrwt>
<rscale>  1 0.72649126E+03</rscale>
<asrwt>0</asrwt>
<pdfrwt beam="1">  1        1 0.47983887E+00 0.72649126E+03</pdfrwt>
<pdfrwt beam="2">0</pdfrwt>
<totfact> 0.56767196E-01</totfact>
</mgrwt>
</event>
<event>
 6    1  0.3255736E-003  0.6542009E+03  0.7818608E-02  0.9798928E-01
          1   -1    0    0  502    0  0.00000000000E+00  0.00000000000E+00  0.10699484607E+03  0.10699484607E+03  0.00000000000E+00 0.  1.
         13   -1    0    0    0    0 -0.00000000000E+00 -0.00000000000E+00 -0.10000000000E+04  0.10000000000E+04  0.00000000000E+00 0.  1.
    9000005    2    1    2  501    0 -0.51457034829E-05 -0.11690817416E-05 -0.89300529021E+03  0.11069947097E+04  0.65420091635E+03 0.  0.
         13    1    3    3    0    0 -0.28341033395E+03 -0.16081479043E+03 -0.39828734429E+03  0.51460239296E+03  0.00000000000E+00 0.  1.
          3    1    3    3  501    0  0.28341032881E+03  0.16081478926E+03 -0.49471794591E+03  0.59239231674E+03  0.00000000000E+00 0.  1.
         21    1    1    2  502  501  0.51457034743E-05  0.11690817493E-05  0.13627299033E-03  0.13637511837E-03  0.00000000000E+00 0.  1.
<mgrwt>
<rscale>  1 0.65420092E+03</rscale>
<asrwt>0</asrwt>
<pdfrwt beam="1">  1        1 0.38907299E+00 0.65420092E+03</pdfrwt>
<pdfrwt beam="2">0</pdfrwt>
<totfact> 0.14949962E+00</totfact>
</mgrwt>
</event>
<event>
 6    1  0.3255736E-003  0.6557525E+03  0.7818608E-02  0.9796044E-01
          1   -1    0    0  502    0  0.00000000000E+00  0.00000000000E+00  0.10750286156E+03  0.10750286156E+03  0.00000000000E+00 0.  1.
         13   -1    0    0    0    0 -0.00000000000E+00 -0.00000000000E+00 -0.10000000000E+04  0.10000000000E+04  0.00000000000E+00 0.  1.
    9000005    2    1    2  501    0  0.77310446045E-05  0.49841987959E-06 -0.89249715358E+03  0.11075028446E+04  0.65575253073E+03 0.  0.
         13    1    3    3    0    0 -0.29331641275E+03 -0.71783595503E+02 -0.23052168473E+03  0.37990479031E+03  0.00000000000E+00 0.  1.
          1    1    3    3  501    0  0.29331642048E+03  0.71783596001E+02 -0.66197546885E+03  0.72759805424E+03  0.00000000000E+00 0.  1.
         21    1    1    2  502  501 -0.77310446229E-05 -0.49841987617E-06  0.15138194789E-04  0.17005364295E-04  0.00000000000E+00 0.  1.
<mgrwt>
<rscale>  1 0.65575253E+03</rscale>
<asrwt>0</asrwt>
<pdfrwt beam="1">  1        1 0.39092032E+00 0.65575253E+03</pdfrwt>
<pdfrwt beam="2">0</pdfrwt>
<totfact> 0.14666369E+00</totfact>
</mgrwt>
</event>
<event>
 6    1  0.3255736E-003  0.6470262E+03  0.7818608E-02  0.9812375E-01
          1   -1    0    0  502    0  0.00000000000E+00  0.00000000000E+00  0.10466682724E+03  0.10466682724E+03  0.00000000000E+00 0.  1.
         13   -1    0    0    0    0 -0.00000000000E+00 -0.00000000000E+00 -0.10000000000E+04  0.10000000000E+04  0.00000000000E+00 0.  1.
    9000005    2    1    2  501    0 -0.14906658951E-04  0.90529922204E-04 -0.89533926890E+03  0.11046607304E+04  0.64702621497E+03 0.  0.
         13    1    3    3    0    0  0.27454721385E+02 -0.31872311100E+03 -0.52994811731E+03  0.61901792402E+03  0.00000000000E+00 0.  1.
          3    1    3    3  501    0 -0.27454736292E+02  0.31872320153E+03 -0.36539115159E+03  0.48564280639E+03  0.00000000000E+00 0.  1.
         21    1    1    2  502  501  0.14906658952E-04 -0.90529922204E-04  0.60961445925E-02  0.60968349795E-02  0.00000000000E+00 0.  1.
<mgrwt>
<rscale>  1 0.64702621E+03</rscale>
<asrwt>0</asrwt>
<pdfrwt beam="1">  1        1 0.38060745E+00 0.64702621E+03</pdfrwt>
<pdfrwt beam="2">0</pdfrwt>
<totfact> 0.16317666E+00</totfact>
</mgrwt>
</event>
<event>
 6    1  0.3255736E-003  0.6499583E+03  0.7818608E-02  0.9806857E-01
          1   -1    0    0  502    0  0.00000000000E+00  0.00000000000E+00  0.10566658077E+03  0.10566658077E+03  0.00000000000E+00 0.  1.
         13   -1    0    0    0    0 -0.00000000000E+00 -0.00000000000E+00 -0.10000000000E+04  0.10000000000E+04  0.00000000000E+00 0.  1.
    9000005    2    1    2  501    0  0.14402584142E-01 -0.85944276236E-01 -0.89434757824E+03  0.11055782953E+04  0.64995828225E+03 0.  0.
         13    1    3    3    0    0 -0.58601503550E+02 -0.23154848259E+03 -0.72292751182E+02  0.24954975031E+03  0.00000000000E+00 0.  1.
          3    1    3    3  501    0  0.58615906134E+02  0.23146253831E+03 -0.82205482706E+03  0.85602854496E+03  0.00000000000E+00 0.  1.
         21    1    1    2  502  501 -0.14402584142E-01  0.85944276236E-01  0.14159009832E-01  0.88285506212E-01  0.00000000000E+00 0.  1.
<mgrwt>
<rscale>  1 0.64995829E+03</rscale>
<asrwt>0</asrwt>
<pdfrwt beam="1">  1        1 0.38424292E+00 0.64995829E+03</pdfrwt>
<pdfrwt beam="2">0</pdfrwt>
<totfact> 0.15716783E+00</totfact>
</mgrwt>
</event>
<event>
 6    1  0.3255736E-003  0.6589283E+03  0.7818608E-02  0.9790169E-01
          1   -1    0    0  502    0  0.00000000000E+00  0.00000000000E+00  0.11163846443E+03  0.11163846443E+03  0.00000000000E+00 0.  1.
         13   -1    0    0    0    0 -0.00000000000E+00 -0.00000000000E+00 -0.10000000000E+04  0.10000000000E+04  0.00000000000E+00 0.  1.
    9000005    2    1    2  501    0  0.58208039630E-01 -0.12646345012E-01 -0.89145306982E+03  0.11085463564E+04  0.65892825483E+03 0.  0.
         13    1    3    3    0    0 -0.93220490150E+02 -0.12445664808E+03 -0.93436237922E+03  0.94721305562E+03  0.00000000000E+00 0.  1.
          1    1    3    3  501    0  0.93278698190E+02  0.12444400174E+03  0.42909309394E+02  0.16133330077E+03  0.00000000000E+00 0.  1.
         21    1    1    2  502  501 -0.58208039630E-01  0.12646345012E-01  0.30915342514E+01  0.30921080404E+01  0.00000000000E+00 0. -1.
<mgrwt>
<rscale>  1 0.65892826E+03</rscale>
<asrwt>0</asrwt>
<pdfrwt beam="1">  1        1 0.40595891E+00 0.65892826E+03</pdfrwt>
<pdfrwt beam="2">0</pdfrwt>
<totfact> 0.12562285E+00</totfact>
</mgrwt>
</event>
<event>
 6    1  0.3255736E-003  0.6316719E+03  0.7818608E-02  0.9841792E-01
          1   -1    0    0  502    0  0.00000000000E+00  0.00000000000E+00  0.99766852418E+02  0.99766852418E+02  0.00000000000E+00 0.  1.
         13   -1    0    0    0    0 -0.00000000000E+00 -0.00000000000E+00 -0.10000000000E+04  0.10000000000E+04  0.00000000000E+00 0.  1.
    9000005    2    1    2  501    0  0.25552401085E-02 -0.37943705081E-03 -0.90024752407E+03  0.10997522457E+04  0.63167190635E+03 0.  0.
         13    1    3    3    0    0 -0.59009101471E+02  0.86554680368E+02  0.68625208231E+02  0.12523260739E+03  0.00000000000E+00 0.  1.
          3    1    3    3  501    0  0.59011656712E+02 -0.86555059805E+02 -0.96887273230E+03  0.97451963829E+03  0.00000000000E+00 0.  1.
         21    1    1    2  502  501 -0.25552401085E-02  0.37943705081E-03  0.14376491635E-01  0.14606735988E-01  0.00000000000E+00 0.  1.
<mgrwt>
<rscale>  1 0.63167191E+03</rscale>
<asrwt>0</asrwt>
<pdfrwt beam="1">  1        1 0.36278932E+00 0.63167191E+03</pdfrwt>
<pdfrwt beam="2">0</pdfrwt>
<totfact> 0.19597139E+00</totfact>
</mgrwt>
</event>
<event>
 6    1  0.3255736E-003  0.6048020E+03  0.7818608E-02  0.9895493E-01
          1   -1    0    0  502    0  0.00000000000E+00  0.00000000000E+00  0.92132338759E+02  0.92132338759E+02  0.00000000000E+00 0.  1.
         13   -1    0    0    0    0 -0.00000000000E+00 -0.00000000000E+00 -0.10000000000E+04  0.10000000000E+04  0.00000000000E+00 0.  1.
    9000005    2    1    2  501    0 -0.22347640776E-01  0.15469983086E-01 -0.90855334719E+03  0.10914461143E+04  0.60480198004E+03 0.  0.
         13    1    3    3    0    0 -0.29082614548E+03  0.68385962233E+02 -0.53889080339E+03  0.61616538746E+03  0.00000000000E+00 0.  1.
          3    1    3    3  501    0  0.29080379784E+03 -0.68370492250E+02 -0.36966254381E+03  0.47528072688E+03  0.00000000000E+00 0.  1.
         21    1    1    2  502  501  0.22347640776E-01 -0.15469983086E-01  0.68568595330E+00  0.68622442683E+00  0.00000000000E+00 0. -1.
<mgrwt>
<rscale>  1 0.60480198E+03</rscale>
<asrwt>0</asrwt>
<pdfrwt beam="1">  1        1 0.33502739E+00 0.60480198E+03</pdfrwt>
<pdfrwt beam="2">0</pdfrwt>
<totfact> 0.26014656E+00</totfact>
</mgrwt>
</event>
<event>
 6    1  0.3255736E-003  0.6488853E+03  0.7818608E-02  0.9808873E-01
          1   -1    0    0  502    0  0.00000000000E+00  0.00000000000E+00  0.10681620882E+03  0.10681620882E+03  0.00000000000E+00 0.  1.
         13   -1    0    0    0    0 -0.00000000000E+00 -0.00000000000E+00 -0.10000000000E+04  0.10000000000E+04  0.00000000000E+00 0.  1.
    9000005    2    1    2  501    0  0.19601439818E+00 -0.44225514090E+01 -0.88966489343E+03  0.11011611205E+04  0.64887024380E+03 0.  0.
         13    1    3    3    0    0  0.13747791395E+03  0.26682143486E+03 -0.24151481687E+03  0.38525739667E+03  0.00000000000E+00 0.  1.
          1    1    3    3  501    0 -0.13728189955E+03 -0.27124398626E+03 -0.64815007656E+03  0.71590372382E+03  0.00000000000E+00 0.  1.
         21    1    1    2  502  501 -0.19601439818E+00  0.44225514090E+01 -0.35188977563E+01  0.56550883307E+01  0.00000000000E+00 0. -1.
<mgrwt>
<rscale>  1 0.64888534E+03</rscale>
<asrwt>0</asrwt>
<pdfrwt beam="1">  1        1 0.38842340E+00 0.64888534E+03</pdfrwt>
<pdfrwt beam="2">0</pdfrwt>
<totfact> 0.15064252E+00</totfact>
</mgrwt>
</event>
<event>
 6    1  0.3255736E-003  0.6267642E+03  0.7818608E-02  0.9851384E-01
          1   -1    0    0  502    0  0.00000000000E+00  0.00000000000E+00  0.98208339530E+02  0.98208339530E+02  0.00000000000E+00 0.  1.
         13   -1    0    0    0    0 -0.00000000000E+00 -0.00000000000E+00 -0.10000000000E+04  0.10000000000E+04  0.00000000000E+00 0.  1.
    9000005    2    1    2  501    0  0.34822749058E-05  0.39366786666E-05 -0.90179167419E+03  0.10982083248E+04  0.62676415111E+03 0.  0.
         13    1    3    3    0    0 -0.13798491975E+03  0.17575639942E+03 -0.83589165174E+03  0.86524274251E+03  0.00000000000E+00 0.  1.
          1    1    3    3  501    0  0.13798492323E+03 -0.17575639548E+03 -0.65900022450E+02  0.23296558234E+03  0.00000000000E+00 0.  1.
         21    1    1    2  502  501 -0.34822749109E-05 -0.39366786672E-05  0.13716419478E-04  0.14688901959E-04  0.00000000000E+00 0. -1.
<mgrwt>
<rscale>  1 0.62676415E+03</rscale>
<asrwt>0</asrwt>
<pdfrwt beam="1">  1        1 0.35712199E+00 0.62676415E+03</pdfrwt>
<pdfrwt beam="2">0</pdfrwt>
<totfact> 0.20766476E+00</totfact>
</mgrwt>
</event>
<event>
 6    1  0.3255736E-003  0.6497194E+03  0.7818608E-02  0.9807306E-01
          1   -1    0    0  502    0  0.00000000000E+00  0.00000000000E+00  0.10579676199E+03  0.10579676199E+03  0.00000000000E+00 0.  1.
         13   -1    0    0    0    0 -0.00000000000E+00 -0.00000000000E+00 -0.10000000000E+04  0.10000000000E+04  0.00000000000E+00 0.  1.
    9000005    2    1    2  501    0 -0.35230935844E+00  0.25248231230E+00 -0.89425202820E+03  0.11053605858E+04  0.64971928307E+03 0.  0.
         13    1    3    3    0    0 -0.26815267591E+03 -0.15221860931E+03 -0.62168619693E+03  0.69395251284E+03  0.00000000000E+00 0.  1.
          1    1    3    3  501    0  0.26780036656E+03  0.15247109163E+03 -0.27256583127E+03  0.41140807294E+03  0.00000000000E+00 0.  1.
         21    1    1    2  502  501  0.35230935844E+00 -0.25248231230E+00  0.48790186632E-01  0.43617620795E+00  0.00000000000E+00 0.  1.
<mgrwt>
<rscale>  1 0.64971943E+03</rscale>
<asrwt>0</asrwt>
<pdfrwt beam="1">  1        1 0.38471631E+00 0.64971943E+03</pdfrwt>
<pdfrwt beam="2">0</pdfrwt>
<totfact> 0.15641899E+00</totfact>
</mgrwt>
</event>
<event>
 6    1  0.3255736E-003  0.5874508E+03  0.7818608E-02  0.9931789E-01
          1   -1    0    0  502    0  0.00000000000E+00  0.00000000000E+00  0.86275299388E+02  0.86275299388E+02  0.00000000000E+00 0.  1.
         13   -1    0    0    0    0 -0.00000000000E+00 -0.00000000000E+00 -0.10000000000E+04  0.10000000000E+04  0.00000000000E+00 0.  1.
    9000005    2    1    2  501    0 -0.25738947272E-04 -0.14922493165E-04 -0.91372539754E+03  0.10862746018E+04  0.58745077110E+03 0.  0.
         13    1    3    3    0    0  0.21059781560E+03 -0.19598048327E+03 -0.34723530442E+03  0.45092365916E+03  0.00000000000E+00 0.  1.
          3    1    3    3  501    0 -0.21059784133E+03  0.19598046834E+03 -0.56649009311E+03  0.63535094266E+03  0.00000000000E+00 0.  1.
         21    1    1    2  502  501  0.25738947275E-04  0.14922493165E-04  0.69692562724E-03  0.69756039460E-03  0.00000000000E+00 0. -1.
<mgrwt>
<rscale>  1 0.58745077E+03</rscale>
<asrwt>0</asrwt>
<pdfrwt beam="1">  1        1 0.31372902E+00 0.58745077E+03</pdfrwt>
<pdfrwt beam="2">0</pdfrwt>
<totfact> 0.32263982E+00</totfact>
</mgrwt>
</event>
<event>
 6    1  0.3255736E-003  0.6884301E+03  0.7818608E-02  0.9737225E-01
          1   -1    0    0  502    0  0.00000000000E+00  0.00000000000E+00  0.11852611054E+03  0.11852611054E+03  0.00000000000E+00 0.  1.
         13   -1    0    0    0    0 -0.00000000000E+00 -0.00000000000E+00 -0.10000000000E+04  0.10000000000E+04  0.00000000000E+00 0.  1.
    9000005    2    1    2  501    0 -0.33238788991E-01 -0.27269449016E-01 -0.88150330079E+03  0.11184740196E+04  0.68843014270E+03 0.  0.
         13    1    3    3    0    0  0.55770788448E+02 -0.16270273774E+03 -0.92518169118E+03  0.94103332747E+03  0.00000000000E+00 0.  1.
          3    1    3    3  501    0 -0.55804027237E+02  0.16267546829E+03  0.43678390389E+02  0.17744069214E+03  0.00000000000E+00 0.  1.
         21    1    1    2  502  501  0.33238788991E-01  0.27269449016E-01  0.29411332967E-01  0.52090944032E-01  0.00000000000E+00 0. -1.
<mgrwt>
<rscale>  1 0.68843014E+03</rscale>
<asrwt>0</asrwt>
<pdfrwt beam="1">  1        1 0.43100495E+00 0.68843014E+03</pdfrwt>
<pdfrwt beam="2">0</pdfrwt>
<totfact> 0.96308507E-01</totfact>
</mgrwt>
</event>
<event>
 6    1  0.3255736E-003  0.6458257E+03  0.7818608E-02  0.9814644E-01
          1   -1    0    0  502    0  0.00000000000E+00  0.00000000000E+00  0.10707100042E+03  0.10707100042E+03  0.00000000000E+00 0.  1.
         13   -1    0    0    0    0 -0.00000000000E+00 -0.00000000000E+00 -0.10000000000E+04  0.10000000000E+04  0.00000000000E+00 0.  1.
    9000005    2    1    2  501    0  0.28531578533E-01  0.15279869785E+00 -0.89572489401E+03  0.11042707884E+04  0.64582572284E+03 0.  0.
         13    1    3    3    0    0 -0.21339728805E+03 -0.24195319828E+03 -0.42683530951E+03  0.53504031077E+03  0.00000000000E+00 0.  1.
          3    1    3    3  501    0  0.21342581962E+03  0.24210599698E+03 -0.46888958450E+03  0.56923047767E+03  0.00000000000E+00 0.  1.
         21    1    1    2  502  501 -0.28531578533E-01 -0.15279869785E+00  0.27958944268E+01  0.28002119810E+01  0.00000000000E+00 0. -1.
<mgrwt>
<rscale>  1 0.64582574E+03</rscale>
<asrwt>0</asrwt>
<pdfrwt beam="1">  1        1 0.38934991E+00 0.64582574E+03</pdfrwt>
<pdfrwt beam="2">0</pdfrwt>
<totfact> 0.14931050E+00</totfact>
</mgrwt>
</event>
<event>
 6    1  0.3255736E-003  0.6437872E+03  0.7818608E-02  0.9818507E-01
          1   -1    0    0  502    0  0.00000000000E+00  0.00000000000E+00  0.10361926684E+03  0.10361926684E+03  0.00000000000E+00 0.  1.
         13   -1    0    0    0    0 -0.00000000000E+00 -0.00000000000E+00 -0.10000000000E+04  0.10000000000E+04  0.00000000000E+00 0.  1.
    9000005    2    1    2  501    0 -0.68769730980E-04  0.40888631304E-03 -0.89638448706E+03  0.11036154901E+04  0.64378723301E+03 0.  0.
         13    1    3    3    0    0 -0.60791782369E+02 -0.30705955835E+03 -0.31951814779E+03  0.44729527155E+03  0.00000000000E+00 0.  1.
          1    1    3    3  501    0  0.60791713599E+02  0.30705996724E+03 -0.57686633926E+03  0.65632021857E+03  0.00000000000E+00 0.  1.
         21    1    1    2  502  501  0.68769730978E-04 -0.40888631306E-03  0.37538950815E-02  0.37767241858E-02  0.00000000000E+00 0. -1.
<mgrwt>
<rscale>  1 0.64378723E+03</rscale>
<asrwt>0</asrwt>
<pdfrwt beam="1">  1        1 0.37679813E+00 0.64378723E+03</pdfrwt>
<pdfrwt beam="2">0</pdfrwt>
<totfact> 0.16971233E+00</totfact>
</mgrwt>
</event>
<event>
 6    1  0.3255736E-003  0.6403851E+03  0.7818608E-02  0.9824990E-01
          1   -1    0    0  502    0  0.00000000000E+00  0.00000000000E+00  0.10253647251E+03  0.10253647251E+03  0.00000000000E+00 0.  1.
         13   -1    0    0    0    0 -0.00000000000E+00 -0.00000000000E+00 -0.10000000000E+04  0.10000000000E+04  0.00000000000E+00 0.  1.
    9000005    2    1    2  501    0  0.47982192373E-02 -0.30955742963E-02 -0.89747604009E+03  0.11025227186E+04  0.64038512040E+03 0.  0.
         13    1    3    3    0    0  0.92418523999E+02 -0.65893969265E+02  0.66725339082E+02  0.13166423068E+03  0.00000000000E+00 0.  1.
          3    1    3    3  501    0 -0.92413725780E+02  0.65890873691E+02 -0.96420137917E+03  0.97085848791E+03  0.00000000000E+00 0.  1.
         21    1    1    2  502  501 -0.47982192373E-02  0.30955742963E-02  0.12512597076E-01  0.13753929390E-01  0.00000000000E+00 0. -1.
<mgrwt>
<rscale>  1 0.64038512E+03</rscale>
<asrwt>0</asrwt>
<pdfrwt beam="1">  1        1 0.37286069E+00 0.64038512E+03</pdfrwt>
<pdfrwt beam="2">0</pdfrwt>
<totfact> 0.17673161E+00</totfact>
</mgrwt>
</event>
<event>
 6    1  0.3255736E-003  0.6506667E+03  0.7818608E-02  0.9805529E-01
          1   -1    0    0  502    0  0.00000000000E+00  0.00000000000E+00  0.10588537541E+03  0.10588537541E+03  0.00000000000E+00 0.  1.
         13   -1    0    0    0    0 -0.00000000000E+00 -0.00000000000E+00 -0.10000000000E+04  0.10000000000E+04  0.00000000000E+00 0.  1.
    9000005    2    1    2  501    0  0.17079735499E-01  0.13452988411E-01 -0.89415517604E+03  0.11058393632E+04  0.65066674878E+03 0.  0.
         13    1    3    3    0    0 -0.48334303229E-01  0.26028963401E+02  0.10406976910E+03  0.10727546836E+03  0.00000000000E+00 0.  1.
          1    1    3    3  501    0  0.65414038727E-01 -0.26015510413E+02 -0.99822494513E+03  0.99856389488E+03  0.00000000000E+00 0.  1.
         21    1    1    2  502  501 -0.17079735499E-01 -0.13452988411E-01  0.40551446651E-01  0.46012173252E-01  0.00000000000E+00 0. -1.
<mgrwt>
<rscale>  1 0.65066675E+03</rscale>
<asrwt>0</asrwt>
<pdfrwt beam="1">  1        1 0.38503854E+00 0.65066675E+03</pdfrwt>
<pdfrwt beam="2">0</pdfrwt>
<totfact> 0.15587925E+00</totfact>
</mgrwt>
</event>
<event>
 6    1  0.3255736E-003  0.6523380E+03  0.7818608E-02  0.9802402E-01
          1   -1    0    0  502    0  0.00000000000E+00  0.00000000000E+00  0.10638780442E+03  0.10638780442E+03  0.00000000000E+00 0.  1.
         13   -1    0    0    0    0 -0.00000000000E+00 -0.00000000000E+00 -0.10000000000E+04  0.10000000000E+04  0.00000000000E+00 0.  1.
    9000005    2    1    2  501    0  0.88041072466E-04  0.44303693073E-04 -0.89361378273E+03  0.11063862142E+04  0.65233799698E+03 0.  0.
         13    1    3    3    0    0 -0.60720122356E+02  0.27245612601E+03 -0.73296401303E+03  0.78431850562E+03  0.00000000000E+00 0.  1.
          3    1    3    3  501    0  0.60720210397E+02 -0.27245608171E+03 -0.16064976970E+03  0.32206770859E+03  0.00000000000E+00 0.  1.
         21    1    1    2  502  501 -0.88041072468E-04 -0.44303693066E-04  0.15871529235E-02  0.15902101906E-02  0.00000000000E+00 0. -1.
<mgrwt>
<rscale>  1 0.65233800E+03</rscale>
<asrwt>0</asrwt>
<pdfrwt beam="1">  1        1 0.38686556E+00 0.65233800E+03</pdfrwt>
<pdfrwt beam="2">0</pdfrwt>
<totfact> 0.15295683E+00</totfact>
</mgrwt>
</event>
<event>
 6    1  0.3255736E-003  0.6325097E+03  0.7818608E-02  0.9840163E-01
          1   -1    0    0  502    0  0.00000000000E+00  0.00000000000E+00  0.10002179875E+03  0.10002179875E+03  0.00000000000E+00 0.  1.
         13   -1    0    0    0    0 -0.00000000000E+00 -0.00000000000E+00 -0.10000000000E+04  0.10000000000E+04  0.00000000000E+00 0.  1.
    9000005    2    1    2  501    0 -0.17883404432E-04 -0.12442147170E-03 -0.89998286441E+03  0.11000171339E+04  0.63250971427E+03 0.  0.
         13    1    3    3    0    0  0.30537300444E+02 -0.30103623052E+03 -0.29001196596E+03  0.41912084082E+03  0.00000000000E+00 0.  1.
          1    1    3    3  501    0 -0.30537318327E+02  0.30103610610E+03 -0.60997089844E+03  0.68089629308E+03  0.00000000000E+00 0.  1.
         21    1    1    2  502  501  0.17883404433E-04  0.12442147168E-03  0.46631553006E-02  0.46648491804E-02  0.00000000000E+00 0.  1.
<mgrwt>
<rscale>  1 0.63250971E+03</rscale>
<asrwt>0</asrwt>
<pdfrwt beam="1">  1        1 0.36371640E+00 0.63250971E+03</pdfrwt>
<pdfrwt beam="2">0</pdfrwt>
<totfact> 0.19411852E+00</totfact>
</mgrwt>
</event>
<event>
 6    1  0.3255736E-003  0.6392514E+03  0.7818608E-02  0.9827160E-01
          1   -1    0    0  502    0  0.00000000000E+00  0.00000000000E+00  0.10338786933E+03  0.10338786933E+03  0.00000000000E+00 0.  1.
         13   -1    0    0    0    0 -0.00000000000E+00 -0.00000000000E+00 -0.10000000000E+04  0.10000000000E+04  0.00000000000E+00 0.  1.
    9000005    2    1    2  501    0 -0.82513489816E+00  0.51358475403E-02 -0.89768474477E+03  0.11020345863E+04  0.63925084866E+03 0.  0.
         13    1    3    3    0    0 -0.24947208116E+02  0.31865095400E+03 -0.44086519817E+03  0.54453917824E+03  0.00000000000E+00 0.  1.
          1    1    3    3  501    0  0.24122073217E+02 -0.31864581815E+03 -0.45681954660E+03  0.55749540805E+03  0.00000000000E+00 0.  1.
         21    1    1    2  502  501  0.82513489816E+00 -0.51358475403E-02  0.10726141002E+01  0.13532830395E+01  0.00000000000E+00 0. -1.
<mgrwt>
<rscale>  1 0.63925138E+03</rscale>
<asrwt>0</asrwt>
<pdfrwt beam="1">  1        1 0.37595668E+00 0.63925138E+03</pdfrwt>
<pdfrwt beam="2">0</pdfrwt>
<totfact> 0.17130938E+00</totfact>
</mgrwt>
</event>
<event>
 6    1  0.3255736E-003  0.6527014E+03  0.7818608E-02  0.9801723E-01
          1   -1    0    0  502    0  0.00000000000E+00  0.00000000000E+00  0.10650790858E+03  0.10650790858E+03  0.00000000000E+00 0.  1.
         13   -1    0    0    0    0 -0.00000000000E+00 -0.00000000000E+00 -0.10000000000E+04  0.10000000000E+04  0.00000000000E+00 0.  1.
    9000005    2    1    2  501    0  0.43032099228E-04  0.87187676911E-04 -0.89349521652E+03  0.11065047820E+04  0.65270140997E+03 0.  0.
         13    1    3    3    0    0  0.12273813313E+03  0.29819350655E+03 -0.36163236044E+03  0.48452242547E+03  0.00000000000E+00 0.  1.
          1    1    3    3  501    0 -0.12273809010E+03 -0.29819341936E+03 -0.53186285608E+03  0.62198235649E+03  0.00000000000E+00 0.  1.
         21    1    1    2  502  501 -0.43032099231E-04 -0.87187676922E-04  0.31251012660E-02  0.31266134036E-02  0.00000000000E+00 0. -1.
<mgrwt>
<rscale>  1 0.65270141E+03</rscale>
<asrwt>0</asrwt>
<pdfrwt beam="1">  1        1 0.38730230E+00 0.65270141E+03</pdfrwt>
<pdfrwt beam="2">0</pdfrwt>
<totfact> 0.15226699E+00</totfact>
</mgrwt>
</event>
<event>
 6    1  0.3255736E-003  0.5255509E+03  0.7818608E-02  0.1007317E+00
          1   -1    0    0  502    0  0.00000000000E+00  0.00000000000E+00  0.72332728286E+02  0.72332728286E+02  0.00000000000E+00 0.  1.
         13   -1    0    0    0    0 -0.00000000000E+00 -0.00000000000E+00 -0.10000000000E+04  0.10000000000E+04  0.00000000000E+00 0.  1.
    9000005    2    1    2  501    0  0.81462761806E-01  0.20914358340E+00 -0.93094494808E+03  0.10690473760E+04  0.52555089708E+03 0.  0.
         13    1    3    3    0    0  0.24254043763E+03 -0.28261255769E+02 -0.26787992727E+03  0.36246960962E+03  0.00000000000E+00 0.  1.
          1    1    3    3  501    0 -0.24245897487E+03  0.28470399353E+02 -0.66306502081E+03  0.70657776639E+03  0.00000000000E+00 0.  1.
         21    1    1    2  502  501 -0.81462761806E-01 -0.20914358340E+00  0.32776763650E+01  0.32853522754E+01  0.00000000000E+00 0. -1.
<mgrwt>
<rscale>  1 0.52555095E+03</rscale>
<asrwt>0</asrwt>
<pdfrwt beam="1">  1        1 0.26302866E+00 0.52555095E+03</pdfrwt>
<pdfrwt beam="2">0</pdfrwt>
<totfact> 0.53986264E+00</totfact>
</mgrwt>
</event>
<event>
 6    1  0.3255736E-003  0.6497482E+03  0.7818608E-02  0.9807252E-01
          1   -1    0    0  502    0  0.00000000000E+00  0.00000000000E+00  0.10554319547E+03  0.10554319547E+03  0.00000000000E+00 0.  1.
         13   -1    0    0    0    0 -0.00000000000E+00 -0.00000000000E+00 -0.10000000000E+04  0.10000000000E+04  0.00000000000E+00 0.  1.
    9000005    2    1    2  501    0  0.66523694500E-05  0.51646719811E-04 -0.89445678652E+03  0.11055431404E+04  0.64974817605E+03 0.  0.
         13    1    3    3    0    0 -0.31708202515E+03  0.70571261477E+02 -0.43927293307E+03  0.54633508340E+03  0.00000000000E+00 0.  1.
          1    1    3    3  501    0  0.31708203180E+03 -0.70571209831E+02 -0.45518385345E+03  0.55920805698E+03  0.00000000000E+00 0.  1.
         21    1    1    2  502  501 -0.66523694610E-05 -0.51646719809E-04 -0.18003365288E-04  0.55097720898E-04  0.00000000000E+00 0.  1.
<mgrwt>
<rscale>  1 0.64974818E+03</rscale>
<asrwt>0</asrwt>
<pdfrwt beam="1">  1        1 0.38379425E+00 0.64974818E+03</pdfrwt>
<pdfrwt beam="2">0</pdfrwt>
<totfact> 0.15789345E+00</totfact>
</mgrwt>
</event>
<event>
 6    1  0.3255736E-003  0.6406346E+03  0.7818608E-02  0.9824513E-01
          1   -1    0    0  502    0  0.00000000000E+00  0.00000000000E+00  0.10260331956E+03  0.10260331956E+03  0.00000000000E+00 0.  1.
         13   -1    0    0    0    0 -0.00000000000E+00 -0.00000000000E+00 -0.10000000000E+04  0.10000000000E+04  0.00000000000E+00 0.  1.
    9000005    2    1    2  501    0  0.43733416248E-04 -0.26895979516E-04 -0.89739682827E+03  0.11026031631E+04  0.64063458214E+03 0.  0.
         13    1    3    3    0    0 -0.21056811910E+03  0.35160771578E+02 -0.85970869923E+03  0.88581841264E+03  0.00000000000E+00 0.  1.
          1    1    3    3  501    0  0.21056816284E+03 -0.35160798474E+02 -0.37688129036E+02  0.21678475043E+03  0.00000000000E+00 0.  1.
         21    1    1    2  502  501 -0.43733416238E-04  0.26895979515E-04  0.14782413539E-03  0.15648635856E-03  0.00000000000E+00 0. -1.
<mgrwt>
<rscale>  1 0.64063458E+03</rscale>
<asrwt>0</asrwt>
<pdfrwt beam="1">  1        1 0.37310377E+00 0.64063458E+03</pdfrwt>
<pdfrwt beam="2">0</pdfrwt>
<totfact> 0.17628909E+00</totfact>
</mgrwt>
</event>
<event>
 6    1  0.3255736E-003  0.6504653E+03  0.7818608E-02  0.9805906E-01
          1   -1    0    0  502    0  0.00000000000E+00  0.00000000000E+00  0.10646896466E+03  0.10646896466E+03  0.00000000000E+00 0.  1.
         13   -1    0    0    0    0 -0.00000000000E+00 -0.00000000000E+00 -0.10000000000E+04  0.10000000000E+04  0.00000000000E+00 0.  1.
    9000005    2    1    2  501    0 -0.13887918987E-01 -0.65567854191E-02 -0.89422361841E+03  0.11057762113E+04  0.65046533313E+03 0.  0.
         13    1    3    3    0    0 -0.23432841221E+03 -0.17113675378E+03 -0.69686772619E+03  0.75486569738E+03  0.00000000000E+00 0.  1.
          1    1    3    3  501    0  0.23431452429E+03  0.17113019700E+03 -0.19735589221E+03  0.35091051396E+03  0.00000000000E+00 0.  1.
         21    1    1    2  502  501  0.13887918987E-01  0.65567854191E-02  0.69258307019E+00  0.69275332900E+00  0.00000000000E+00 0. -1.
<mgrwt>
<rscale>  1 0.65046533E+03</rscale>
<asrwt>0</asrwt>
<pdfrwt beam="1">  1        1 0.38716069E+00 0.65046533E+03</pdfrwt>
<pdfrwt beam="2">0</pdfrwt>
<totfact> 0.15255017E+00</totfact>
</mgrwt>
</event>
<event>
 6    1  0.4104317E-003  0.6622789E+03  0.7818608E-02  0.9784008E-01
          1   -1    0    0  502    0  0.00000000000E+00  0.00000000000E+00  0.10965369795E+03  0.10965369795E+03  0.00000000000E+00 0.  1.
         13   -1    0    0    0    0 -0.00000000000E+00 -0.00000000000E+00 -0.10000000000E+04  0.10000000000E+04  0.00000000000E+00 0.  1.
    9000005    2    1    2  501    0  0.36514566318E-03  0.59235132059E-03 -0.89034621924E+03  0.11096529972E+04  0.66227893221E+03 0.  0.
         13    1    3    3    0    0  0.26488146365E+03 -0.88914421321E+02 -0.74294914962E+03  0.79375147434E+03  0.00000000000E+00 0.  1.
          3    1    3    3  501    0 -0.26488109850E+03  0.88915013672E+02 -0.14739706962E+03  0.31590152284E+03  0.00000000000E+00 0.  1.
         21    1    1    2  502  501 -0.36514566314E-03 -0.59235132058E-03 -0.82814473096E-04  0.70076364008E-03  0.00000000000E+00 0.  1.
<mgrwt>
<rscale>  1 0.66227893E+03</rscale>
<asrwt>0</asrwt>
<pdfrwt beam="1">  1        1 0.39874156E+00 0.66227893E+03</pdfrwt>
<pdfrwt beam="2">0</pdfrwt>
<totfact> 0.13521287E+00</totfact>
</mgrwt>
</event>
<event>
 6    1  0.3255736E-003  0.6667564E+03  0.7818608E-02  0.9775835E-01
          1   -1    0    0  502    0  0.00000000000E+00  0.00000000000E+00  0.11114127902E+03  0.11114127902E+03  0.00000000000E+00 0.  1.
         13   -1    0    0    0    0 -0.00000000000E+00 -0.00000000000E+00 -0.10000000000E+04  0.10000000000E+04  0.00000000000E+00 0.  1.
    9000005    2    1    2  501    0 -0.57974688758E-04 -0.37353774246E-04 -0.88885897128E+03  0.11111410194E+04  0.66675639792E+03 0.  0.
         13    1    3    3    0    0  0.25535320369E+03  0.19335774079E+03 -0.59850992473E+03  0.67882737464E+03  0.00000000000E+00 0.  1.
          3    1    3    3  501    0 -0.25535326166E+03 -0.19335777815E+03 -0.29034904654E+03  0.43231364475E+03  0.00000000000E+00 0.  1.
         21    1    1    2  502  501  0.57974688772E-04  0.37353774251E-04  0.25029584010E-03  0.25962352852E-03  0.00000000000E+00 0.  1.
<mgrwt>
<rscale>  1 0.66675640E+03</rscale>
<asrwt>0</asrwt>
<pdfrwt beam="1">  1        1 0.40415096E+00 0.66675640E+03</pdfrwt>
<pdfrwt beam="2">0</pdfrwt>
<totfact> 0.12779422E+00</totfact>
</mgrwt>
</event>
<event>
 6    1  0.3255736E-003  0.6477765E+03  0.7818608E-02  0.9810960E-01
          1   -1    0    0  502    0  0.00000000000E+00  0.00000000000E+00  0.10519648695E+03  0.10519648695E+03  0.00000000000E+00 0.  1.
         13   -1    0    0    0    0 -0.00000000000E+00 -0.00000000000E+00 -0.10000000000E+04  0.10000000000E+04  0.00000000000E+00 0.  1.
    9000005    2    1    2  501    0 -0.24433363493E+00 -0.13696054469E+00 -0.89502052515E+03  0.11048421547E+04  0.64777647984E+03 0.  0.
         13    1    3    3    0    0  0.21060848030E+03  0.17443137463E+03 -0.15170594872E+03  0.31272500909E+03  0.00000000000E+00 0.  1.
          3    1    3    3  501    0 -0.21085281394E+03 -0.17456833518E+03 -0.74331457643E+03  0.79211714558E+03  0.00000000000E+00 0.  1.
         21    1    1    2  502  501  0.24433363493E+00  0.13696054469E+00  0.21701210076E+00  0.35433228450E+00  0.00000000000E+00 0. -1.
<mgrwt>
<rscale>  1 0.64777654E+03</rscale>
<asrwt>0</asrwt>
<pdfrwt beam="1">  1        1 0.38253349E+00 0.64777654E+03</pdfrwt>
<pdfrwt beam="2">0</pdfrwt>
<totfact> 0.15999021E+00</totfact>
</mgrwt>
</event>
<event>
 6    1  0.3255736E-003  0.6462639E+03  0.7818608E-02  0.9813815E-01
          1   -1    0    0  502    0  0.00000000000E+00  0.00000000000E+00  0.10443848611E+03  0.10443848611E+03  0.00000000000E+00 0.  1.
         13   -1    0    0    0    0 -0.00000000000E+00 -0.00000000000E+00 -0.10000000000E+04  0.10000000000E+04  0.00000000000E+00 0.  1.
    9000005    2    1    2  501    0  0.29314467991E-01 -0.36948717026E-03 -0.89557553819E+03  0.11044059876E+04  0.64626390886E+03 0.  0.
         13    1    3    3    0    0  0.12352006309E+03  0.81710550180E+02 -0.93859459992E+03  0.95020715793E+03  0.00000000000E+00 0.  1.
          3    1    3    3  501    0 -0.12349074862E+03 -0.81710919667E+02  0.43019061725E+02  0.15419882963E+03  0.00000000000E+00 0.  1.
         21    1    1    2  502  501 -0.29314467991E-01  0.36948717027E-03  0.14024298850E-01  0.32498546315E-01  0.00000000000E+00 0. -1.
<mgrwt>
<rscale>  1 0.64626391E+03</rscale>
<asrwt>0</asrwt>
<pdfrwt beam="1">  1        1 0.37977711E+00 0.64626391E+03</pdfrwt>
<pdfrwt beam="2">0</pdfrwt>
<totfact> 0.16458220E+00</totfact>
</mgrwt>
</event>
<event>
 6    1  0.3255736E-003  0.6173581E+03  0.7818608E-02  0.9870034E-01
          1   -1    0    0  502    0  0.00000000000E+00  0.00000000000E+00  0.10229344092E+03  0.10229344092E+03  0.00000000000E+00 0.  1.
         13   -1    0    0    0    0 -0.00000000000E+00 -0.00000000000E+00 -0.10000000000E+04  0.10000000000E+04  0.00000000000E+00 0.  1.
    9000005    2    1    2  501    0 -0.30502173297E+00 -0.28148378221E+01 -0.90440291888E+03  0.10950231187E+04  0.61735158095E+03 0.  0.
         13    1    3    3    0    0 -0.17200532962E+03  0.23275723216E+03 -0.26545011899E+03  0.39271558183E+03  0.00000000000E+00 0.  1.
          1    1    3    3  501    0  0.17170030789E+03 -0.23557206998E+03 -0.63895279990E+03  0.70230753689E+03  0.00000000000E+00 0.  1.
         21    1    1    2  502  501  0.30502173297E+00  0.28148378221E+01  0.66963598051E+01  0.72703221979E+01  0.00000000000E+00 0. -1.
<mgrwt>
<rscale>  1 0.61735807E+03</rscale>
<asrwt>0</asrwt>
<pdfrwt beam="1">  1        1 0.37197693E+00 0.61735807E+03</pdfrwt>
<pdfrwt beam="2">0</pdfrwt>
<totfact> 0.17908205E+00</totfact>
</mgrwt>
</event>
<event>
 6    1  0.3255736E-003  0.6276069E+03  0.7818608E-02  0.9849730E-01
          1   -1    0    0  502    0  0.00000000000E+00  0.00000000000E+00  0.10111792667E+03  0.10111792667E+03  0.00000000000E+00 0.  1.
         13   -1    0    0    0    0 -0.00000000000E+00 -0.00000000000E+00 -0.10000000000E+04  0.10000000000E+04  0.00000000000E+00 0.  1.
    9000005    2    1    2  501    0  0.56810073210E-01  0.85918561343E+00 -0.90145021678E+03  0.10984092761E+04  0.62760632805E+03 0.  0.
         13    1    3    3    0    0 -0.29174553198E+02 -0.24056421104E+03 -0.79826743393E+03  0.83423808967E+03  0.00000000000E+00 0.  1.
          3    1    3    3  501    0  0.29231363271E+02  0.24142339665E+03 -0.10318278285E+03  0.26417118640E+03  0.00000000000E+00 0.  1.
         21    1    1    2  502  501 -0.56810073210E-01 -0.85918561343E+00  0.25681434463E+01  0.27086505983E+01  0.00000000000E+00 0.  1.
<mgrwt>
<rscale>  1 0.62760692E+03</rscale>
<asrwt>0</asrwt>
<pdfrwt beam="1">  1        1 0.36770233E+00 0.62760692E+03</pdfrwt>
<pdfrwt beam="2">0</pdfrwt>
<totfact> 0.18663159E+00</totfact>
</mgrwt>
</event>
<event>
 6    1  0.3255736E-003  0.6441698E+03  0.7818608E-02  0.9817781E-01
          1   -1    0    0  502    0  0.00000000000E+00  0.00000000000E+00  0.10374196818E+03  0.10374196818E+03  0.00000000000E+00 0.  1.
         13   -1    0    0    0    0 -0.00000000000E+00 -0.00000000000E+00 -0.10000000000E+04  0.10000000000E+04  0.00000000000E+00 0.  1.
    9000005    2    1    2  501    0 -0.45365255286E-03  0.13205467750E-02 -0.89626115206E+03  0.11037385498E+04  0.64416980179E+03 0.  0.
         13    1    3    3    0    0 -0.25065339390E+03  0.19287860391E+03 -0.34377007574E+03  0.46712647612E+03  0.00000000000E+00 0.  1.
          1    1    3    3  501    0  0.25065294025E+03 -0.19287728336E+03 -0.55249107632E+03  0.63661207364E+03  0.00000000000E+00 0.  1.
         21    1    1    2  502  501  0.45365255286E-03 -0.13205467750E-02  0.31202423112E-02  0.34184143260E-02  0.00000000000E+00 0.  1.
<mgrwt>
<rscale>  1 0.64416980E+03</rscale>
<asrwt>0</asrwt>
<pdfrwt beam="1">  1        1 0.37724432E+00 0.64416980E+03</pdfrwt>
<pdfrwt beam="2">0</pdfrwt>
<totfact> 0.16893401E+00</totfact>
</mgrwt>
</event>
<event>
 6    1  0.3255736E-003  0.5883283E+03  0.7818608E-02  0.9929921E-01
          1   -1    0    0  502    0  0.00000000000E+00  0.00000000000E+00  0.86542388529E+02  0.86542388529E+02  0.00000000000E+00 0.  1.
         13   -1    0    0    0    0 -0.00000000000E+00 -0.00000000000E+00 -0.10000000000E+04  0.10000000000E+04  0.00000000000E+00 0.  1.
    9000005    2    1    2  501    0  0.24978948402E-01 -0.10785473902E-01 -0.91344162668E+03  0.10865108324E+04  0.58832829515E+03 0.  0.
         13    1    3    3    0    0 -0.18354612113E+03  0.21177974939E+03 -0.29166827127E+03  0.40448760339E+03  0.00000000000E+00 0.  1.
          3    1    3    3  501    0  0.18357110008E+03 -0.21179053486E+03 -0.62177335541E+03  0.68202322903E+03  0.00000000000E+00 0.  1.
         21    1    1    2  502  501 -0.24978948402E-01  0.10785473902E-01 -0.15984789408E-01  0.31556105637E-01  0.00000000000E+00 0. -1.
<mgrwt>
<rscale>  1 0.58832830E+03</rscale>
<asrwt>0</asrwt>
<pdfrwt beam="1">  1        1 0.31470026E+00 0.58832830E+03</pdfrwt>
<pdfrwt beam="2">0</pdfrwt>
<totfact> 0.31948812E+00</totfact>
</mgrwt>
</event>
<event>
 6    1  0.3255736E-003  0.6347333E+03  0.7818608E-02  0.9835855E-01
          1   -1    0    0  502    0  0.00000000000E+00  0.00000000000E+00  0.10072932337E+03  0.10072932337E+03  0.00000000000E+00 0.  1.
         13   -1    0    0    0    0 -0.00000000000E+00 -0.00000000000E+00 -0.10000000000E+04  0.10000000000E+04  0.00000000000E+00 0.  1.
    9000005    2    1    2  501    0  0.57557927184E-02  0.36870777307E-02 -0.89927669661E+03  0.11007202149E+04  0.63473334119E+03 0.  0.
         13    1    3    3    0    0  0.10643609536E+03 -0.29856575710E+03 -0.42216531820E+03  0.52791449080E+03  0.00000000000E+00 0.  1.
          1    1    3    3  501    0 -0.10643033957E+03  0.29856944418E+03 -0.47711137841E+03  0.57280572412E+03  0.00000000000E+00 0.  1.
         21    1    1    2  502  501 -0.57557927184E-02 -0.36870777307E-02  0.60199797583E-02  0.91084492808E-02  0.00000000000E+00 0. -1.
<mgrwt>
<rscale>  1 0.63473334E+03</rscale>
<asrwt>0</asrwt>
<pdfrwt beam="1">  1        1 0.36628922E+00 0.63473334E+03</pdfrwt>
<pdfrwt beam="2">0</pdfrwt>
<totfact> 0.18906745E+00</totfact>
</mgrwt>
</event>
<event>
 6    1  0.3255736E-003  0.6438693E+03  0.7818608E-02  0.9818351E-01
          1   -1    0    0  502    0  0.00000000000E+00  0.00000000000E+00  0.10476206003E+03  0.10476206003E+03  0.00000000000E+00 0.  1.
         13   -1    0    0    0    0 -0.00000000000E+00 -0.00000000000E+00 -0.10000000000E+04  0.10000000000E+04  0.00000000000E+00 0.  1.
    9000005    2    1    2  501    0  0.20154059439E+00 -0.24287730697E+00 -0.89633348127E+03  0.11036219641E+04  0.64386926497E+03 0.  0.
         13    1    3    3    0    0 -0.13371518316E+03  0.20705802949E+03 -0.93345734836E+02  0.26356442096E+03  0.00000000000E+00 0.  1.
          3    1    3    3  501    0  0.13391672375E+03 -0.20730090679E+03 -0.80298774644E+03  0.84005754314E+03  0.00000000000E+00 0.  1.
         21    1    1    2  502  501 -0.20154059439E+00  0.24287730697E+00  0.10955413067E+01  0.11400959399E+01  0.00000000000E+00 0. -1.
<mgrwt>
<rscale>  1 0.64386934E+03</rscale>
<asrwt>0</asrwt>
<pdfrwt beam="1">  1        1 0.38095375E+00 0.64386934E+03</pdfrwt>
<pdfrwt beam="2">0</pdfrwt>
<totfact> 0.16269802E+00</totfact>
</mgrwt>
</event>
<event>
 6    1  0.4843915E-003  0.6528351E+03  0.7818608E-02  0.9801474E-01
          1   -1    0    0  502    0  0.00000000000E+00  0.00000000000E+00  0.10654841047E+03  0.10654841047E+03  0.00000000000E+00 0.  1.
         13   -1    0    0    0    0 -0.00000000000E+00 -0.00000000000E+00 -0.10000000000E+04  0.10000000000E+04  0.00000000000E+00 0.  1.
    9000005    2    1    2  501    0 -0.25199331901E-05  0.58180095834E-05 -0.89345158912E+03  0.11065484041E+04  0.65283506994E+03 0.  0.
         13    1    3    3    0    0  0.87247071853E+02 -0.29554908252E+03 -0.62918012910E+03  0.70059185449E+03  0.00000000000E+00 0.  1.
          3    1    3    3  501    0 -0.87247074373E+02  0.29554908833E+03 -0.26427146002E+03  0.40595654962E+03  0.00000000000E+00 0.  1.
         21    1    1    2  502  501  0.25199331916E-05 -0.58180095808E-05 -0.41528857035E-06  0.63538778214E-05  0.00000000000E+00 0. -1.
<mgrwt>
<rscale>  1 0.65283507E+03</rscale>
<asrwt>0</asrwt>
<pdfrwt beam="1">  1        1 0.38744958E+00 0.65283507E+03</pdfrwt>
<pdfrwt beam="2">0</pdfrwt>
<totfact> 0.15203472E+00</totfact>
</mgrwt>
</event>
<event>
 6    1  0.3255736E-003  0.6722864E+03  0.7818608E-02  0.9765836E-01
          1   -1    0    0  502    0  0.00000000000E+00  0.00000000000E+00  0.11299324773E+03  0.11299324773E+03  0.00000000000E+00 0.  1.
         13   -1    0    0    0    0 -0.00000000000E+00 -0.00000000000E+00 -0.10000000000E+04  0.10000000000E+04  0.00000000000E+00 0.  1.
    9000005    2    1    2  501    0 -0.34490407472E-05 -0.19093967794E-04 -0.88700775403E+03  0.11129922458E+04  0.67228638501E+03 0.  0.
         13    1    3    3    0    0  0.19852565121E+03 -0.10268820505E+03 -0.27853182291E+02  0.22524009725E+03  0.00000000000E+00 0.  1.
          3    1    3    3  501    0 -0.19852565466E+03  0.10268818595E+03 -0.85915457174E+03  0.88775214854E+03  0.00000000000E+00 0.  1.
         21    1    1    2  502  501  0.34490407547E-05  0.19093967785E-04  0.10017574213E-02  0.10019453112E-02  0.00000000000E+00 0. -1.
<mgrwt>
<rscale>  1 0.67228639E+03</rscale>
<asrwt>0</asrwt>
<pdfrwt beam="1">  1        1 0.41088540E+00 0.67228639E+03</pdfrwt>
<pdfrwt beam="2">0</pdfrwt>
<totfact> 0.11909523E+00</totfact>
</mgrwt>
</event>
<event>
 6    1  0.3255736E-003  0.6516112E+03  0.7818608E-02  0.9803761E-01
          3   -1    0    0  502    0  0.00000000000E+00  0.00000000000E+00  0.10616000666E+03  0.10616000666E+03  0.00000000000E+00 0.  1.
         13   -1    0    0    0    0 -0.00000000000E+00 -0.00000000000E+00 -0.10000000000E+04  0.10000000000E+04  0.00000000000E+00 0.  1.
    9000005    2    1    2  501    0 -0.12640555724E-04  0.20323332070E-03 -0.89385072075E+03  0.11061492773E+04  0.65161116682E+03 0.  0.
         13    1    3    3    0    0 -0.29436998784E+03  0.75605007202E+02 -0.64619534515E+03  0.71409959456E+03  0.00000000000E+00 0.  1.
          1    1    3    3  501    0  0.29436997520E+03 -0.75604803969E+02 -0.24765537560E+03  0.39204968275E+03  0.00000000000E+00 0.  1.
         21    1    1    2  502  501  0.12640555712E-04 -0.20323332070E-03  0.10727409129E-01  0.10729341554E-01  0.00000000000E+00 0. -1.
<mgrwt>
<rscale>  1 0.65161117E+03</rscale>
<asrwt>0</asrwt>
<pdfrwt beam="1">  1        3 0.38603720E+00 0.65161117E+03</pdfrwt>
<pdfrwt beam="2">0</pdfrwt>
<totfact> 0.70122419E-02</totfact>
</mgrwt>
</event>
<event>
 6    1  0.3255736E-003  0.6533485E+03  0.7818608E-02  0.9800516E-01
          1   -1    0    0  502    0  0.00000000000E+00  0.00000000000E+00  0.10705111723E+03  0.10705111723E+03  0.00000000000E+00 0.  1.
         13   -1    0    0    0    0 -0.00000000000E+00 -0.00000000000E+00 -0.10000000000E+04  0.10000000000E+04  0.00000000000E+00 0.  1.
    9000005    2    1    2  501    0 -0.57001641923E-03  0.71971935757E-02 -0.89328390272E+03  0.11067160195E+04  0.65334846514E+03 0.  0.
         13    1    3    3    0    0 -0.17551273412E+03 -0.24943622754E+03 -0.24843450252E+03  0.39337368175E+03  0.00000000000E+00 0.  1.
          3    1    3    3  501    0  0.17551216411E+03  0.24944342473E+03 -0.64484940020E+03  0.71334233775E+03  0.00000000000E+00 0.  1.
         21    1    1    2  502  501  0.57001641921E-03 -0.71971935757E-02  0.33501995291E+00  0.33509773703E+00  0.00000000000E+00 0.  1.
<mgrwt>
<rscale>  1 0.65334847E+03</rscale>
<asrwt>0</asrwt>
<pdfrwt beam="1">  1        1 0.38927761E+00 0.65334847E+03</pdfrwt>
<pdfrwt beam="2">0</pdfrwt>
<totfact> 0.14921128E+00</totfact>
</mgrwt>
</event>
<event>
 6    1  0.3255736E-003  0.6579148E+03  0.7818608E-02  0.9792040E-01
          1   -1    0    0  502    0  0.00000000000E+00  0.00000000000E+00  0.11185132267E+03  0.11185132267E+03  0.00000000000E+00 0.  1.
         13   -1    0    0    0    0 -0.00000000000E+00 -0.00000000000E+00 -0.10000000000E+04  0.10000000000E+04  0.00000000000E+00 0.  1.
    9000005    2    1    2  501    0  0.37112225271E+00  0.13912046906E+00 -0.89177506528E+03  0.11082033402E+04  0.65791467470E+03 0.  0.
         13    1    3    3    0    0 -0.30267226364E+03  0.11964801628E+03 -0.36684434463E+03  0.49040893157E+03  0.00000000000E+00 0.  1.
          3    1    3    3  501    0  0.30304338589E+03 -0.11950889581E+03 -0.52493072064E+03  0.61779440867E+03  0.00000000000E+00 0.  1.
         21    1    1    2  502  501 -0.37112225271E+00 -0.13912046906E+00  0.36263879474E+01  0.36479824254E+01  0.00000000000E+00 0.  1.
<mgrwt>
<rscale>  1 0.65791479E+03</rscale>
<asrwt>0</asrwt>
<pdfrwt beam="1">  1        1 0.40673294E+00 0.65791479E+03</pdfrwt>
<pdfrwt beam="2">0</pdfrwt>
<totfact> 0.12464910E+00</totfact>
</mgrwt>
</event>
<event>
 6    1  0.3255736E-003  0.6501664E+03  0.7818608E-02  0.9806467E-01
          1   -1    0    0  502    0  0.00000000000E+00  0.00000000000E+00  0.10596319117E+03  0.10596319117E+03  0.00000000000E+00 0.  1.
         13   -1    0    0    0    0 -0.00000000000E+00 -0.00000000000E+00 -0.10000000000E+04  0.10000000000E+04  0.00000000000E+00 0.  1.
    9000005    2    1    2  501    0 -0.20395849264E-02  0.19152148639E-01 -0.89432055790E+03  0.11056787892E+04  0.65016638189E+03 0.  0.
         13    1    3    3    0    0  0.80049695119E+02 -0.30889518248E+03 -0.34164365450E+03  0.46748751225E+03  0.00000000000E+00 0.  1.
          3    1    3    3  501    0 -0.80051734704E+02  0.30891433463E+03 -0.55267690340E+03  0.63819127691E+03  0.00000000000E+00 0.  1.
         21    1    1    2  502  501  0.20395849264E-02 -0.19152148639E-01  0.28374907457E+00  0.28440200777E+00  0.00000000000E+00 0. -1.
<mgrwt>
<rscale>  1 0.65016638E+03</rscale>
<asrwt>0</asrwt>
<pdfrwt beam="1">  1        1 0.38532151E+00 0.65016638E+03</pdfrwt>
<pdfrwt beam="2">0</pdfrwt>
<totfact> 0.15544498E+00</totfact>
</mgrwt>
</event>
<event>
 6    1  0.3255736E-003  0.6510417E+03  0.7818608E-02  0.9804827E-01
          1   -1    0    0  502    0  0.00000000000E+00  0.00000000000E+00  0.10821809658E+03  0.10821809658E+03  0.00000000000E+00 0.  1.
         13   -1    0    0    0    0 -0.00000000000E+00 -0.00000000000E+00 -0.10000000000E+04  0.10000000000E+04  0.00000000000E+00 0.  1.
    9000005    2    1    2  501    0  0.75135952061E-01 -0.29023780125E+00 -0.89402516222E+03  0.11059548923E+04  0.65104158339E+03 0.  0.
         13    1    3    3    0    0 -0.65697705209E+02 -0.28074731856E+03 -0.70426948153E+03  0.76100640468E+03  0.00000000000E+00 0.  1.
          3    1    3    3  501    0  0.65772841161E+02  0.28045708076E+03 -0.18975568069E+03  0.34494848765E+03  0.00000000000E+00 0.  1.
         21    1    1    2  502  501 -0.75135952061E-01  0.29023780125E+00  0.22432588005E+01  0.22632042415E+01  0.00000000000E+00 0. -1.
<mgrwt>
<rscale>  1 0.65104165E+03</rscale>
<asrwt>0</asrwt>
<pdfrwt beam="1">  1        1 0.39352118E+00 0.65104165E+03</pdfrwt>
<pdfrwt beam="2">0</pdfrwt>
<totfact> 0.14294128E+00</totfact>
</mgrwt>
</event>
<event>
 6    1  0.3255736E-003  0.6491755E+03  0.7818608E-02  0.9808328E-01
          1   -1    0    0  502    0  0.00000000000E+00  0.00000000000E+00  0.11156066339E+03  0.11156066339E+03  0.00000000000E+00 0.  1.
         13   -1    0    0    0    0 -0.00000000000E+00 -0.00000000000E+00 -0.10000000000E+04  0.10000000000E+04  0.00000000000E+00 0.  1.
    9000005    2    1    2  501    0 -0.11284955380E+00 -0.15348270438E+00 -0.89464117291E+03  0.11053559019E+04  0.64917548110E+03 0.  0.
         13    1    3    3    0    0 -0.54482536627E+02 -0.31929336993E+03 -0.40952606383E+03  0.52213810418E+03  0.00000000000E+00 0.  1.
          3    1    3    3  501    0  0.54369687073E+02  0.31913988723E+03 -0.48511510908E+03  0.58321779770E+03  0.00000000000E+00 0.  1.
         21    1    1    2  502  501  0.11284955380E+00  0.15348270438E+00  0.62018362971E+01  0.62047615118E+01  0.00000000000E+00 0.  1.
<mgrwt>
<rscale>  1 0.64917551E+03</rscale>
<asrwt>0</asrwt>
<pdfrwt beam="1">  1        1 0.40567600E+00 0.64917551E+03</pdfrwt>
<pdfrwt beam="2">0</pdfrwt>
<totfact> 0.12622481E+00</totfact>
</mgrwt>
</event>
<event>
 6    1  0.3255736E-003  0.6488370E+03  0.7818608E-02  0.9808964E-01
          1   -1    0    0  502    0  0.00000000000E+00  0.00000000000E+00  0.10524740275E+03  0.10524740275E+03  0.00000000000E+00 0.  1.
         13   -1    0    0    0    0 -0.00000000000E+00 -0.00000000000E+00 -0.10000000000E+04  0.10000000000E+04  0.00000000000E+00 0.  1.
    9000005    2    1    2  501    0  0.84090534756E-04  0.79868933398E-04 -0.89475256815E+03  0.11052472832E+04  0.64883695855E+03 0.  0.
         13    1    3    3    0    0  0.28023439038E+03 -0.13542380262E+03 -0.60327902820E+03  0.67883466745E+03  0.00000000000E+00 0.  1.
          1    1    3    3  501    0 -0.28023430628E+03  0.13542388249E+03 -0.29147353995E+03  0.42641261574E+03  0.00000000000E+00 0.  1.
         21    1    1    2  502  501 -0.84090534781E-04 -0.79868933385E-04 -0.29100732607E-04  0.11957055322E-03  0.00000000000E+00 0.  1.
<mgrwt>
<rscale>  1 0.64883696E+03</rscale>
<asrwt>0</asrwt>
<pdfrwt beam="1">  1        1 0.38271864E+00 0.64883696E+03</pdfrwt>
<pdfrwt beam="2">0</pdfrwt>
<totfact> 0.15965796E+00</totfact>
</mgrwt>
</event>
<event>
 6    1  0.3255736E-003  0.6363710E+03  0.7818608E-02  0.9832695E-01
          1   -1    0    0  502    0  0.00000000000E+00  0.00000000000E+00  0.10243899395E+03  0.10243899395E+03  0.00000000000E+00 0.  1.
         13   -1    0    0    0    0 -0.00000000000E+00 -0.00000000000E+00 -0.10000000000E+04  0.10000000000E+04  0.00000000000E+00 0.  1.
    9000005    2    1    2  501    0  0.21754847221E+00  0.75809981906E-02 -0.89874708525E+03  0.11012331048E+04  0.63637094562E+03 0.  0.
         13    1    3    3    0    0  0.25286009092E+03 -0.12597050237E+03 -0.70316954416E+03  0.75779561946E+03  0.00000000000E+00 0.  1.
          3    1    3    3  501    0 -0.25264254245E+03  0.12597808336E+03 -0.19557754110E+03  0.34343748532E+03  0.00000000000E+00 0.  1.
         21    1    1    2  502  501 -0.21754847221E+00 -0.75809981906E-02  0.11860792056E+01  0.12058891704E+01  0.00000000000E+00 0. -1.
<mgrwt>
<rscale>  1 0.63637098E+03</rscale>
<asrwt>0</asrwt>
<pdfrwt beam="1">  1        1 0.37250622E+00 0.63637098E+03</pdfrwt>
<pdfrwt beam="2">0</pdfrwt>
<totfact> 0.17749734E+00</totfact>
</mgrwt>
</event>
<event>
 6    1  0.3255736E-003  0.6410527E+03  0.7818608E-02  0.9823714E-01
          1   -1    0    0  502    0  0.00000000000E+00  0.00000000000E+00  0.10276027623E+03  0.10276027623E+03  0.00000000000E+00 0.  1.
         13   -1    0    0    0    0 -0.00000000000E+00 -0.00000000000E+00 -0.10000000000E+04  0.10000000000E+04  0.00000000000E+00 0.  1.
    9000005    2    1    2  501    0 -0.13663309192E-01 -0.23231990937E-01 -0.89725386509E+03  0.11027298396E+04  0.64105272794E+03 0.  0.
         13    1    3    3    0    0 -0.13070381369E+03 -0.11538255294E+03  0.14042138893E+02  0.17491084043E+03  0.00000000000E+00 0.  1.
          3    1    3    3  501    0  0.13069015038E+03  0.11535932095E+03 -0.91129600399E+03  0.92781899917E+03  0.00000000000E+00 0.  1.
         21    1    1    2  502  501  0.13663309192E-01  0.23231990937E-01  0.14141323675E-01  0.30436630172E-01  0.00000000000E+00 0. -1.
<mgrwt>
<rscale>  1 0.64105273E+03</rscale>
<asrwt>0</asrwt>
<pdfrwt beam="1">  1        1 0.37367452E+00 0.64105273E+03</pdfrwt>
<pdfrwt beam="2">0</pdfrwt>
<totfact> 0.17525958E+00</totfact>
</mgrwt>
</event>
<event>
 6    1  0.3255736E-003  0.6512506E+03  0.7818608E-02  0.9804435E-01
          1   -1    0    0  502    0  0.00000000000E+00  0.00000000000E+00  0.10605678698E+03  0.10605678698E+03  0.00000000000E+00 0.  1.
         13   -1    0    0    0    0 -0.00000000000E+00 -0.00000000000E+00 -0.10000000000E+04  0.10000000000E+04  0.00000000000E+00 0.  1.
    9000005    2    1    2  501    0  0.22582962609E-02 -0.25068406060E-02 -0.89396803267E+03  0.11060317390E+04  0.65125061562E+03 0.  0.
         13    1    3    3    0    0 -0.31019352941E+03 -0.98932736656E+02 -0.45524683418E+03  0.55969401650E+03  0.00000000000E+00 0.  1.
          1    1    3    3  501    0  0.31019578771E+03  0.98930229815E+02 -0.43872119848E+03  0.54633772255E+03  0.00000000000E+00 0.  1.
         21    1    1    2  502  501 -0.22582962609E-02  0.25068406060E-02  0.24819646420E-01  0.25047934051E-01  0.00000000000E+00 0.  1.
<mgrwt>
<rscale>  1 0.65125062E+03</rscale>
<asrwt>0</asrwt>
<pdfrwt beam="1">  1        1 0.38566186E+00 0.65125062E+03</pdfrwt>
<pdfrwt beam="2">0</pdfrwt>
<totfact> 0.15487592E+00</totfact>
</mgrwt>
</event>
<event>
 6    1  0.3255736E-003  0.6233636E+03  0.7818608E-02  0.9858086E-01
          1   -1    0    0  502    0  0.00000000000E+00  0.00000000000E+00  0.97145566091E+02  0.97145566091E+02  0.00000000000E+00 0.  1.
         13   -1    0    0    0    0 -0.00000000000E+00 -0.00000000000E+00 -0.10000000000E+04  0.10000000000E+04  0.00000000000E+00 0.  1.
    9000005    2    1    2  501    0 -0.71832252502E-06 -0.30466685530E-05 -0.90285445794E+03  0.10971455419E+04  0.62336359198E+03 0.  0.
         13    1    3    3    0    0  0.20213841268E+03 -0.14148109496E+03 -0.78661551250E+03  0.82440330095E+03  0.00000000000E+00 0.  1.
          3    1    3    3  501    0 -0.20213841339E+03  0.14148109191E+03 -0.11623894543E+03  0.27274224091E+03  0.00000000000E+00 0.  1.
         21    1    1    2  502  501  0.71832251740E-06  0.30466685705E-05  0.24028617837E-04  0.24231645667E-04  0.00000000000E+00 0.  1.
<mgrwt>
<rscale>  1 0.62336359E+03</rscale>
<asrwt>0</asrwt>
<pdfrwt beam="1">  1        1 0.35325735E+00 0.62336359E+03</pdfrwt>
<pdfrwt beam="2">0</pdfrwt>
<totfact> 0.21602266E+00</totfact>
</mgrwt>
</event>
<event>
 6    1  0.3255736E-003  0.6447158E+03  0.7818608E-02  0.9816745E-01
          1   -1    0    0  502    0  0.00000000000E+00  0.00000000000E+00  0.10461092183E+03  0.10461092183E+03  0.00000000000E+00 0.  1.
         13   -1    0    0    0    0 -0.00000000000E+00 -0.00000000000E+00 -0.10000000000E+04  0.10000000000E+04  0.00000000000E+00 0.  1.
    9000005    2    1    2  501    0 -0.15881605788E+01 -0.69527220249E+00 -0.89459214040E+03  0.11027028424E+04  0.64471346752E+03 0.  0.
         13    1    3    3    0    0 -0.31421671936E+02 -0.28672005956E+03 -0.69548948653E+03  0.75292850915E+03  0.00000000000E+00 0.  1.
          1    1    3    3  501    0  0.29833511357E+02  0.28602478736E+03 -0.19910265387E+03  0.34977433320E+03  0.00000000000E+00 0.  1.
         21    1    1    2  502  501  0.15881605788E+01  0.69527220249E+00 -0.79693777130E+00  0.19080794718E+01  0.00000000000E+00 0. -1.
<mgrwt>
<rscale>  1 0.64471580E+03</rscale>
<asrwt>0</asrwt>
<pdfrwt beam="1">  1        1 0.38040415E+00 0.64471580E+03</pdfrwt>
<pdfrwt beam="2">0</pdfrwt>
<totfact> 0.16358366E+00</totfact>
</mgrwt>
</event>
<event>
 6    1  0.3255736E-003  0.6849945E+03  0.7818608E-02  0.9743243E-01
          1   -1    0    0  502    0  0.00000000000E+00  0.00000000000E+00  0.11730471756E+03  0.11730471756E+03  0.00000000000E+00 0.  1.
         13   -1    0    0    0    0 -0.00000000000E+00 -0.00000000000E+00 -0.10000000000E+04  0.10000000000E+04  0.00000000000E+00 0.  1.
    9000005    2    1    2  501    0  0.37777717452E-05  0.20754583545E-04 -0.88269563583E+03  0.11173043635E+04  0.68499449288E+03 0.  0.
         13    1    3    3    0    0 -0.23876367911E+02 -0.29844007524E+03 -0.17003411256E+03  0.34430823239E+03  0.00000000000E+00 0.  1.
          3    1    3    3  501    0  0.23876371689E+02  0.29844009600E+03 -0.71266152327E+03  0.77299613115E+03  0.00000000000E+00 0.  1.
         21    1    1    2  502  501 -0.37777717467E-05 -0.20754583565E-04  0.35339135830E-03  0.35402044633E-03  0.00000000000E+00 0.  1.
<mgrwt>
<rscale>  1 0.68499449E+03</rscale>
<asrwt>0</asrwt>
<pdfrwt beam="1">  1        1 0.42656351E+00 0.68499449E+03</pdfrwt>
<pdfrwt beam="2">0</pdfrwt>
<totfact> 0.10095341E+00</totfact>
</mgrwt>
</event>
<event>
 6    1  0.3255736E-003  0.6530160E+03  0.7818608E-02  0.9801136E-01
          1   -1    0    0  502    0  0.00000000000E+00  0.00000000000E+00  0.10661357622E+03  0.10661357622E+03  0.00000000000E+00 0.  1.
         13   -1    0    0    0    0 -0.00000000000E+00 -0.00000000000E+00 -0.10000000000E+04  0.10000000000E+04  0.00000000000E+00 0.  1.
    9000005    2    1    2  501    0  0.92542672962E-03  0.21943926501E-03 -0.89339248368E+03  0.11066074421E+04  0.65301600370E+03 0.  0.
         13    1    3    3    0    0  0.18963093928E+03  0.16467614322E+03 -0.80025569467E+03  0.83874149899E+03  0.00000000000E+00 0.  1.
          3    1    3    3  501    0 -0.18963001385E+03 -0.16467592378E+03 -0.93136789011E+02  0.26786594314E+03  0.00000000000E+00 0.  1.
         21    1    1    2  502  501 -0.92542672965E-03 -0.21943926503E-03  0.60599042664E-02  0.61340857462E-02  0.00000000000E+00 0.  1.
<mgrwt>
<rscale>  1 0.65301600E+03</rscale>
<asrwt>0</asrwt>
<pdfrwt beam="1">  1        1 0.38768655E+00 0.65301600E+03</pdfrwt>
<pdfrwt beam="2">0</pdfrwt>
<totfact> 0.15166267E+00</totfact>
</mgrwt>
</event>
<event>
 6    1  0.3255736E-003  0.6438358E+03  0.7818608E-02  0.9818415E-01
          1   -1    0    0  502    0  0.00000000000E+00  0.00000000000E+00  0.13199338462E+03  0.13199338462E+03  0.00000000000E+00 0.  1.
         13   -1    0    0    0    0 -0.00000000000E+00 -0.00000000000E+00 -0.10000000000E+04  0.10000000000E+04  0.00000000000E+00 0.  1.
    9000005    2    1    2  501    0  0.11597062314E+02  0.28624751769E+02 -0.88677484778E+03  0.10958531741E+04  0.64309461225E+03 0.  0.
         13    1    3    3    0    0 -0.27440866553E+03  0.11042274398E+03 -0.65518184163E+03  0.71885780493E+03  0.00000000000E+00 0.  1.
          3    1    3    3  501    0  0.28600572785E+03 -0.81797992215E+02 -0.23159300615E+03  0.37699536919E+03  0.00000000000E+00 0.  1.
         21    1    1    2  502  501 -0.11597062314E+02 -0.28624751769E+02  0.18768232399E+02  0.36140210507E+02  0.00000000000E+00 0.  1.
<mgrwt>
<rscale>  1 0.64383581E+03</rscale>
<asrwt>0</asrwt>
<pdfrwt beam="1">  1        1 0.47997696E+00 0.64383581E+03</pdfrwt>
<pdfrwt beam="2">0</pdfrwt>
<totfact> 0.57671294E-01</totfact>
</mgrwt>
</event>
<event>
 6    1  0.3255736E-003  0.6468379E+03  0.7818608E-02  0.9812731E-01
          1   -1    0    0  502    0  0.00000000000E+00  0.00000000000E+00  0.10632274832E+03  0.10632274832E+03  0.00000000000E+00 0.  1.
         13   -1    0    0    0    0 -0.00000000000E+00 -0.00000000000E+00 -0.10000000000E+04  0.10000000000E+04  0.00000000000E+00 0.  1.
    9000005    2    1    2  501    0  0.12717539257E+00  0.12687788226E+01 -0.89513574100E+03  0.11043854398E+04  0.64683659358E+03 0.  0.
         13    1    3    3    0    0 -0.17194169066E+01 -0.23778741050E+03 -0.82001454203E+03  0.85379719965E+03  0.00000000000E+00 0.  1.
          1    1    3    3  501    0  0.18465922992E+01  0.23905618932E+03 -0.75121198977E+02  0.25058824013E+03  0.00000000000E+00 0.  1.
         21    1    1    2  502  501 -0.12717539257E+00 -0.12687788226E+01  0.14584893230E+01  0.19373085418E+01  0.00000000000E+00 0. -1.
<mgrwt>
<rscale>  1 0.64683785E+03</rscale>
<asrwt>0</asrwt>
<pdfrwt beam="1">  1        1 0.38662899E+00 0.64683785E+03</pdfrwt>
<pdfrwt beam="2">0</pdfrwt>
<totfact> 0.15348263E+00</totfact>
</mgrwt>
</event>
<event>
 6    1  0.3255736E-003  0.6619330E+03  0.7818608E-02  0.9784642E-01
          1   -1    0    0  502    0  0.00000000000E+00  0.00000000000E+00  0.11009304956E+03  0.11009304956E+03  0.00000000000E+00 0.  1.
         13   -1    0    0    0    0 -0.00000000000E+00 -0.00000000000E+00 -0.10000000000E+04  0.10000000000E+04  0.00000000000E+00 0.  1.
    9000005    2    1    2  501    0  0.15813209999E-02 -0.26482689181E-01 -0.89046082525E+03  0.11095385397E+04  0.66193299448E+03 0.  0.
         13    1    3    3    0    0 -0.12626586608E+03 -0.28457112555E+03 -0.25692433635E+03  0.40365072655E+03  0.00000000000E+00 0.  1.
          3    1    3    3  501    0  0.12626744741E+03  0.28454464286E+03 -0.63353648889E+03  0.70588781319E+03  0.00000000000E+00 0.  1.
         21    1    1    2  502  501 -0.15813209999E-02  0.26482689181E-01  0.55387480619E+00  0.55450981446E+00  0.00000000000E+00 0.  1.
<mgrwt>
<rscale>  1 0.66193300E+03</rscale>
<asrwt>0</asrwt>
<pdfrwt beam="1">  1        1 0.40033921E+00 0.66193300E+03</pdfrwt>
<pdfrwt beam="2">0</pdfrwt>
<totfact> 0.13302207E+00</totfact>
</mgrwt>
</event>
<event>
 6    1  0.3255736E-003  0.6568668E+03  0.7818608E-02  0.9793979E-01
          3   -1    0    0  502    0  0.00000000000E+00  0.00000000000E+00  0.11033760546E+03  0.11033760546E+03  0.00000000000E+00 0.  1.
         13   -1    0    0    0    0 -0.00000000000E+00 -0.00000000000E+00 -0.10000000000E+04  0.10000000000E+04  0.00000000000E+00 0.  1.
    9000005    2    1    2  501    0  0.16743568506E+00  0.23170922027E+00 -0.89212232995E+03  0.11078611148E+04  0.65686674169E+03 0.  0.
         13    1    3    3    0    0  0.27475047763E+03 -0.15925923648E+03 -0.58745378785E+03  0.66779733619E+03  0.00000000000E+00 0.  1.
          1    1    3    3  501    0 -0.27458304195E+03  0.15949094570E+03 -0.30466854210E+03  0.44006377859E+03  0.00000000000E+00 0.  1.
         21    1    1    2  502  501 -0.16743568506E+00 -0.23170922026E+00  0.24599354075E+01  0.24764906785E+01  0.00000000000E+00 0. -1.
<mgrwt>
<rscale>  1 0.65686680E+03</rscale>
<asrwt>0</asrwt>
<pdfrwt beam="1">  1        3 0.40122850E+00 0.65686680E+03</pdfrwt>
<pdfrwt beam="2">0</pdfrwt>
<totfact> 0.58299049E-02</totfact>
</mgrwt>
</event>
<event>
 6    1  0.3255736E-003  0.6090795E+03  0.7818608E-02  0.9886746E-01
          1   -1    0    0  502    0  0.00000000000E+00  0.00000000000E+00  0.92888500453E+02  0.92888500453E+02  0.00000000000E+00 0.  1.
         13   -1    0    0    0    0 -0.00000000000E+00 -0.00000000000E+00 -0.10000000000E+04  0.10000000000E+04  0.00000000000E+00 0.  1.
    9000005    2    1    2  501    0  0.33588161034E+00  0.21473672590E+00 -0.90686361727E+03  0.10924190604E+04  0.60907932514E+03 0.  0.
         13    1    3    3    0    0  0.22409639205E+03  0.11527607094E+03 -0.14647656427E+03  0.29148438953E+03  0.00000000000E+00 0.  1.
          1    1    3    3  501    0 -0.22376051044E+03 -0.11506133421E+03 -0.76038705300E+03  0.80093467089E+03  0.00000000000E+00 0.  1.
         21    1    1    2  502  501 -0.33588161034E+00 -0.21473672590E+00 -0.24788227346E+00  0.46944002717E+00  0.00000000000E+00 0.  1.
<mgrwt>
<rscale>  1 0.60907946E+03</rscale>
<asrwt>0</asrwt>
<pdfrwt beam="1">  1        1 0.33777708E+00 0.60907946E+03</pdfrwt>
<pdfrwt beam="2">0</pdfrwt>
<totfact> 0.25290591E+00</totfact>
</mgrwt>
</event>
<event>
 6    1  0.3255736E-003  0.6878650E+03  0.7818608E-02  0.9738213E-01
          1   -1    0    0  502    0  0.00000000000E+00  0.00000000000E+00  0.11830940630E+03  0.11830940630E+03  0.00000000000E+00 0.  1.
         13   -1    0    0    0    0 -0.00000000000E+00 -0.00000000000E+00 -0.10000000000E+04  0.10000000000E+04  0.00000000000E+00 0.  1.
    9000005    2    1    2  501    0 -0.32878451036E-01  0.38141720855E-01 -0.88166249603E+03  0.11182517412E+04  0.68786495570E+03 0.  0.
         13    1    3    3    0    0 -0.22695459243E+03  0.25822822812E+03 -0.45842208057E+03  0.57301047877E+03  0.00000000000E+00 0.  1.
          1    1    3    3  501    0  0.22692171398E+03 -0.25819008640E+03 -0.42324041546E+03  0.54524126245E+03  0.00000000000E+00 0.  1.
         21    1    1    2  502  501  0.32878451036E-01 -0.38141720855E-01 -0.28097664534E-01  0.57665086183E-01  0.00000000000E+00 0. -1.
<mgrwt>
<rscale>  1 0.68786496E+03</rscale>
<asrwt>0</asrwt>
<pdfrwt beam="1">  1        1 0.43021693E+00 0.68786496E+03</pdfrwt>
<pdfrwt beam="2">0</pdfrwt>
<totfact> 0.97116958E-01</totfact>
</mgrwt>
</event>
<event>
 6    1  0.3255736E-003  0.6541781E+03  0.7818608E-02  0.9798971E-01
          1   -1    0    0  502    0  0.00000000000E+00  0.00000000000E+00  0.10698829387E+03  0.10698829387E+03  0.00000000000E+00 0.  1.
         13   -1    0    0    0    0 -0.00000000000E+00 -0.00000000000E+00 -0.10000000000E+04  0.10000000000E+04  0.00000000000E+00 0.  1.
    9000005    2    1    2  501    0 -0.29335627106E-02 -0.31654917274E-03 -0.89300957079E+03  0.11069846517E+04  0.65417805334E+03 0.  0.
         13    1    3    3    0    0  0.20737734737E+02 -0.26360514659E+03 -0.77230713693E+03  0.81631859020E+03  0.00000000000E+00 0.  1.
          3    1    3    3  501    0 -0.20740668300E+02  0.26360483005E+03 -0.12070243386E+03  0.29066606146E+03  0.00000000000E+00 0.  1.
         21    1    1    2  502  501  0.29335627106E-02  0.31654917274E-03 -0.21353419359E-02  0.36422079483E-02  0.00000000000E+00 0. -1.
<mgrwt>
<rscale>  1 0.65417805E+03</rscale>
<asrwt>0</asrwt>
<pdfrwt beam="1">  1        1 0.38904916E+00 0.65417805E+03</pdfrwt>
<pdfrwt beam="2">0</pdfrwt>
<totfact> 0.14953661E+00</totfact>
</mgrwt>
</event>
<event>
 6    1  0.3255736E-003  0.6568952E+03  0.7818608E-02  0.9793926E-01
          1   -1    0    0  502    0  0.00000000000E+00  0.00000000000E+00  0.10787873926E+03  0.10787873926E+03  0.00000000000E+00 0.  1.
         13   -1    0    0    0    0 -0.00000000000E+00 -0.00000000000E+00 -0.10000000000E+04  0.10000000000E+04  0.00000000000E+00 0.  1.
    9000005    2    1    2  501    0  0.15735225816E-05 -0.78248194711E-04 -0.89212215768E+03  0.11078778389E+04  0.65689524412E+03 0.  0.
         13    1    3    3    0    0  0.99913824438E+02 -0.27936511602E+03 -0.20844361324E+03  0.36259671849E+03  0.00000000000E+00 0.  1.
          3    1    3    3  501    0 -0.99913822864E+02  0.27936503777E+03 -0.68367854444E+03  0.74528112042E+03  0.00000000000E+00 0.  1.
         21    1    1    2  502  501 -0.15735225830E-05  0.78248194699E-04  0.89693438777E-03  0.90034246368E-03  0.00000000000E+00 0.  1.
<mgrwt>
<rscale>  1 0.65689524E+03</rscale>
<asrwt>0</asrwt>
<pdfrwt beam="1">  1        1 0.39228715E+00 0.65689524E+03</pdfrwt>
<pdfrwt beam="2">0</pdfrwt>
<totfact> 0.14459845E+00</totfact>
</mgrwt>
</event>
<event>
 6    1  0.3255736E-003  0.6473699E+03  0.7818608E-02  0.9811727E-01
          3   -1    0    0  502    0  0.00000000000E+00  0.00000000000E+00  0.10481368893E+03  0.10481368893E+03  0.00000000000E+00 0.  1.
         13   -1    0    0    0    0 -0.00000000000E+00 -0.00000000000E+00 -0.10000000000E+04  0.10000000000E+04  0.00000000000E+00 0.  1.
    9000005    2    1    2  501    0  0.91732344208E-03 -0.67777059527E-03 -0.89522804972E+03  0.11047719347E+04  0.64736988399E+03 0.  0.
         13    1    3    3    0    0  0.25550885220E+03  0.74593126480E+02 -0.76193198813E+03  0.80708689905E+03  0.00000000000E+00 0.  1.
          1    1    3    3  501    0 -0.25550793488E+03 -0.74593804251E+02 -0.13329606158E+03  0.29768503565E+03  0.00000000000E+00 0.  1.
         21    1    1    2  502  501 -0.91732344208E-03  0.67777059527E-03  0.41738648245E-01  0.41754228679E-01  0.00000000000E+00 0.  1.
<mgrwt>
<rscale>  1 0.64736988E+03</rscale>
<asrwt>0</asrwt>
<pdfrwt beam="1">  1        3 0.38114149E+00 0.64736988E+03</pdfrwt>
<pdfrwt beam="2">0</pdfrwt>
<totfact> 0.74471109E-02</totfact>
</mgrwt>
</event>
