<event>
 6    1  0.1059109E-002  0.6482033E+03  0.7818608E-02  0.9810157E-01
          1   -1    0    0  502    0  0.00000000000E+00  0.00000000000E+00  0.10504186441E+03  0.10504186441E+03  0.00000000000E+00 0.  1.
         13   -1    0    0    0    0 -0.00000000000E+00 -0.00000000000E+00 -0.10000000000E+04  0.10000000000E+04  0.00000000000E+00 0.  1.
    9000005    2    1    2  501    0  0.17723669998E-06  0.60058778217E-06 -0.89495813583E+03  0.11050418637E+04  0.64820325187E+03 0.  0.
         13    1    3    3    0    0 -0.21493691380E+03  0.24256691986E+03 -0.44356308154E+03  0.54934942872E+03  0.00000000000E+00 0.  1.
          3    1    3    3  501    0  0.21493691398E+03 -0.24256691926E+03 -0.45139505428E+03  0.55569243502E+03  0.00000000000E+00 0.  1.
         21    1    1    2  502  501 -0.17723670849E-06 -0.60058775617E-06  0.24042094108E-06  0.67076130822E-06  0.00000000000E+00 0. -1.
<mgrwt>
<rscale>  1 0.64820325E+03</rscale>
<asrwt>0</asrwt>
<pdfrwt beam="1">  1        1 0.38197122E+00 0.64820325E+03</pdfrwt>
<pdfrwt beam="2">0</pdfrwt>
<totfact> 0.16089511E+00</totfact>
</mgrwt>
</event>
<event>
 6    1  0.1059109E-002  0.6499692E+03  0.7818608E-02  0.9806837E-01
          1   -1    0    0  502    0  0.00000000000E+00  0.00000000000E+00  0.14168185249E+03  0.14168185249E+03  0.00000000000E+00 0.  1.
         13   -1    0    0    0    0 -0.00000000000E+00 -0.00000000000E+00 -0.10000000000E+04  0.10000000000E+04  0.00000000000E+00 0.  1.
    9000005    2    1    2  501    0  0.20572968836E+00  0.50100603281E+00 -0.89438275747E+03  0.11056131760E+04  0.64996898753E+03 0.  0.
         13    1    3    3    0    0  0.11797956837E+03 -0.94605562127E+02  0.42097719178E+02  0.15697645969E+03  0.00000000000E+00 0.  1.
          3    1    3    3  501    0 -0.11777383868E+03  0.95106568160E+02 -0.93648047665E+03  0.94863671631E+03  0.00000000000E+00 0.  1.
         21    1    1    2  502  501 -0.20572968836E+00 -0.50100603281E+00  0.36064609958E+02  0.36068676482E+02  0.00000000000E+00 0.  1.
<mgrwt>
<rscale>  1 0.64996921E+03</rscale>
<asrwt>0</asrwt>
<pdfrwt beam="1">  1        1 0.51520782E+00 0.64996921E+03</pdfrwt>
<pdfrwt beam="2">0</pdfrwt>
<totfact> 0.39020319E-01</totfact>
</mgrwt>
</event>
<event>
 6    1  0.1059109E-002  0.6561522E+03  0.7818608E-02  0.9795303E-01
          1   -1    0    0  502    0  0.00000000000E+00  0.00000000000E+00  0.10763549892E+03  0.10763549892E+03  0.00000000000E+00 0.  1.
         13   -1    0    0    0    0 -0.00000000000E+00 -0.00000000000E+00 -0.10000000000E+04  0.10000000000E+04  0.00000000000E+00 0.  1.
    9000005    2    1    2  501    0 -0.22506963489E-03 -0.64320801030E-04 -0.89236607429E+03  0.11076339084E+04  0.65615216565E+03 0.  0.
         13    1    3    3    0    0 -0.29826142655E+03 -0.88627451480E+02 -0.27059675318E+03  0.41235580092E+03  0.00000000000E+00 0.  1.
          1    1    3    3  501    0  0.29826120148E+03  0.88627387159E+02 -0.62176932111E+03  0.69527810747E+03  0.00000000000E+00 0.  1.
         21    1    1    2  502  501  0.22506963494E-03  0.64320801029E-04  0.15732058325E-02  0.15905251011E-02  0.00000000000E+00 0. -1.
<mgrwt>
<rscale>  1 0.65615217E+03</rscale>
<asrwt>0</asrwt>
<pdfrwt beam="1">  1        1 0.39140264E+00 0.65615217E+03</pdfrwt>
<pdfrwt beam="2">0</pdfrwt>
<totfact> 0.14593185E+00</totfact>
</mgrwt>
</event>
<event>
 6    1  0.1059109E-002  0.6516339E+03  0.7818608E-02  0.9803718E-01
          1   -1    0    0  502    0  0.00000000000E+00  0.00000000000E+00  0.10615721136E+03  0.10615721136E+03  0.00000000000E+00 0.  1.
         13   -1    0    0    0    0 -0.00000000000E+00 -0.00000000000E+00 -0.10000000000E+04  0.10000000000E+04  0.00000000000E+00 0.  1.
    9000005    2    1    2  501    0 -0.17259945110E-04 -0.17227799304E-04 -0.89384332242E+03  0.11061566770E+04  0.65163387656E+03 0.  0.
         13    1    3    3    0    0 -0.13973087994E+03  0.52146523598E+02 -0.93865181615E+03  0.95042685710E+03  0.00000000000E+00 0.  1.
          1    1    3    3  501    0  0.13973086268E+03 -0.52146540826E+02  0.44808493727E+02  0.15572981993E+03  0.00000000000E+00 0.  1.
         21    1    1    2  502  501  0.17259945104E-04  0.17227799307E-04  0.53378357290E-03  0.53434034610E-03  0.00000000000E+00 0. -1.
<mgrwt>
<rscale>  1 0.65163388E+03</rscale>
<asrwt>0</asrwt>
<pdfrwt beam="1">  1        1 0.38602704E+00 0.65163388E+03</pdfrwt>
<pdfrwt beam="2">0</pdfrwt>
<totfact> 0.15428978E+00</totfact>
</mgrwt>
</event>
<event>
 6    1  0.1147524E-002  0.5190600E+03  0.7818608E-02  0.1008920E+00
          1   -1    0    0  502    0  0.00000000000E+00  0.00000000000E+00  0.67355830094E+02  0.67355830094E+02  0.00000000000E+00 0.  1.
         13   -1    0    0    0    0 -0.00000000000E+00 -0.00000000000E+00 -0.10000000000E+04  0.10000000000E+04  0.00000000000E+00 0.  1.
    9000005    2    1    2  501    0  0.23587280680E-05 -0.36557068483E-07 -0.93264417029E+03  0.10673558277E+04  0.51906002981E+03 0.  0.
         13    1    3    3    0    0  0.24447652779E+03  0.62863152383E+02 -0.34233952406E+03  0.42534327114E+03  0.00000000000E+00 0.  1.
          1    1    3    3  501    0 -0.24447652543E+03 -0.62863152420E+02 -0.59030464623E+03  0.64201255656E+03  0.00000000000E+00 0.  1.
         21    1    1    2  502  501 -0.23587280758E-05  0.36557075181E-07  0.38796306030E-06  0.23907007114E-05  0.00000000000E+00 0. -1.
<mgrwt>
<rscale>  1 0.51906003E+03</rscale>
<asrwt>0</asrwt>
<pdfrwt beam="1">  1        1 0.24493081E+00 0.51906003E+03</pdfrwt>
<pdfrwt beam="2">0</pdfrwt>
<totfact> 0.64772712E+00</totfact>
</mgrwt>
</event>
<event>
 6    1  0.1059109E-002  0.6555646E+03  0.7818608E-02  0.9796393E-01
          1   -1    0    0  502    0  0.00000000000E+00  0.00000000000E+00  0.10752855109E+03  0.10752855109E+03  0.00000000000E+00 0.  1.
         13   -1    0    0    0    0 -0.00000000000E+00 -0.00000000000E+00 -0.10000000000E+04  0.10000000000E+04  0.00000000000E+00 0.  1.
    9000005    2    1    2  501    0 -0.25456021536E-02 -0.68394852939E-01 -0.89254366976E+03  0.11074290514E+04  0.65556456341E+03 0.  0.
         13    1    3    3    0    0 -0.32077266930E+02 -0.25555646712E+03 -0.10375289603E+03  0.27767376969E+03  0.00000000000E+00 0.  1.
          1    1    3    3  501    0  0.32074721328E+02  0.25548807227E+03 -0.78879077373E+03  0.82975528172E+03  0.00000000000E+00 0.  1.
         21    1    1    2  502  501  0.25456021536E-02  0.68394852939E-01  0.72220843924E-01  0.99499679879E-01  0.00000000000E+00 0. -1.
<mgrwt>
<rscale>  1 0.65556457E+03</rscale>
<asrwt>0</asrwt>
<pdfrwt beam="1">  1        1 0.39101374E+00 0.65556457E+03</pdfrwt>
<pdfrwt beam="2">0</pdfrwt>
<totfact> 0.14652889E+00</totfact>
</mgrwt>
</event>
<event>
 6    1  0.1059109E-002  0.6632324E+03  0.7818608E-02  0.9782262E-01
          1   -1    0    0  502    0  0.00000000000E+00  0.00000000000E+00  0.10996996483E+03  0.10996996483E+03  0.00000000000E+00 0.  1.
         13   -1    0    0    0    0 -0.00000000000E+00 -0.00000000000E+00 -0.10000000000E+04  0.10000000000E+04  0.00000000000E+00 0.  1.
    9000005    2    1    2  501    0  0.43899390676E-04 -0.10847695225E-03 -0.89003069810E+03  0.11099692916E+04  0.66323237620E+03 0.  0.
         13    1    3    3    0    0  0.25607223607E+03 -0.19045824016E+03 -0.59584156586E+03  0.67592492403E+03  0.00000000000E+00 0.  1.
          1    1    3    3  501    0 -0.25607219217E+03  0.19045813168E+03 -0.29418913225E+03  0.43404436761E+03  0.00000000000E+00 0.  1.
         21    1    1    2  502  501 -0.43899390685E-04  0.10847695225E-03  0.66293727590E-03  0.67318662899E-03  0.00000000000E+00 0. -1.
<mgrwt>
<rscale>  1 0.66323238E+03</rscale>
<asrwt>0</asrwt>
<pdfrwt beam="1">  1        1 0.39989162E+00 0.66323238E+03</pdfrwt>
<pdfrwt beam="2">0</pdfrwt>
<totfact> 0.13360235E+00</totfact>
</mgrwt>
</event>
<event>
 6    1  0.1059109E-002  0.6445617E+03  0.7818608E-02  0.9817038E-01
          1   -1    0    0  502    0  0.00000000000E+00  0.00000000000E+00  0.11056989087E+03  0.11056989087E+03  0.00000000000E+00 0.  1.
         13   -1    0    0    0    0 -0.00000000000E+00 -0.00000000000E+00 -0.10000000000E+04  0.10000000000E+04  0.00000000000E+00 0.  1.
    9000005    2    1    2  501    0 -0.73332989668E-01  0.16659352155E+00 -0.89613369506E+03  0.11038638342E+04  0.64456165880E+03 0.  0.
         13    1    3    3    0    0  0.14484513308E+03  0.25685251640E+03 -0.22521261629E+03  0.37104453950E+03  0.00000000000E+00 0.  1.
          1    1    3    3  501    0 -0.14491846607E+03 -0.25668592288E+03 -0.67092107877E+03  0.73281929474E+03  0.00000000000E+00 0.  1.
         21    1    1    2  502  501  0.73332989668E-01 -0.16659352155E+00  0.67035859313E+01  0.67060566257E+01  0.00000000000E+00 0.  1.
<mgrwt>
<rscale>  1 0.64456168E+03</rscale>
<asrwt>0</asrwt>
<pdfrwt beam="1">  1        1 0.40207318E+00 0.64456168E+03</pdfrwt>
<pdfrwt beam="2">0</pdfrwt>
<totfact> 0.13110579E+00</totfact>
</mgrwt>
</event>
<event>
 6    1  0.1059109E-002  0.6530113E+03  0.7818608E-02  0.9801145E-01
          1   -1    0    0  502    0  0.00000000000E+00  0.00000000000E+00  0.10667935713E+03  0.10667935713E+03  0.00000000000E+00 0.  1.
         13   -1    0    0    0    0 -0.00000000000E+00 -0.00000000000E+00 -0.10000000000E+04  0.10000000000E+04  0.00000000000E+00 0.  1.
    9000005    2    1    2  501    0 -0.10241088659E+00  0.25623231251E-01 -0.89334945941E+03  0.11065699271E+04  0.65301128304E+03 0.  0.
         13    1    3    3    0    0 -0.19857683942E+03 -0.93520361040E+02 -0.85638031077E+03  0.88406224654E+03  0.00000000000E+00 0.  1.
          1    1    3    3  501    0  0.19847442853E+03  0.93545984271E+02 -0.36969148641E+02  0.22250768055E+03  0.00000000000E+00 0.  1.
         21    1    1    2  502  501  0.10241088659E+00 -0.25623231251E-01  0.28816544339E-01  0.10943003655E+00  0.00000000000E+00 0. -1.
<mgrwt>
<rscale>  1 0.65301129E+03</rscale>
<asrwt>0</asrwt>
<pdfrwt beam="1">  1        1 0.38792575E+00 0.65301129E+03</pdfrwt>
<pdfrwt beam="2">0</pdfrwt>
<totfact> 0.15129322E+00</totfact>
</mgrwt>
</event>
<event>
 6    1  0.1059109E-002  0.7056388E+03  0.7818608E-02  0.9707637E-01
          1   -1    0    0  502    0  0.00000000000E+00  0.00000000000E+00  0.12453080819E+03  0.12453080819E+03  0.00000000000E+00 0.  1.
         13   -1    0    0    0    0 -0.00000000000E+00 -0.00000000000E+00 -0.10000000000E+04  0.10000000000E+04  0.00000000000E+00 0.  1.
    9000005    2    1    2  501    0  0.13456495008E-01  0.53514066360E-02 -0.87551726710E+03  0.11244805991E+04  0.70563881176E+03 0.  0.
         13    1    3    3    0    0  0.26552174060E+02  0.26850709341E+03 -0.75485246109E+02  0.28017690758E+03  0.00000000000E+00 0.  1.
          1    1    3    3  501    0 -0.26538717565E+02 -0.26850174201E+03 -0.80003202099E+03  0.84430369157E+03  0.00000000000E+00 0.  1.
         21    1    1    2  502  501 -0.13456495008E-01 -0.53514066360E-02  0.48075287901E-01  0.50209044182E-01  0.00000000000E+00 0.  1.
<mgrwt>
<rscale>  1 0.70563881E+03</rscale>
<asrwt>0</asrwt>
<pdfrwt beam="1">  1        1 0.45284026E+00 0.70563881E+03</pdfrwt>
<pdfrwt beam="2">0</pdfrwt>
<totfact> 0.76225380E-01</totfact>
</mgrwt>
</event>
<event>
 6    1  0.1059109E-002  0.6612791E+03  0.7818608E-02  0.9785842E-01
          3   -1    0    0  502    0  0.00000000000E+00  0.00000000000E+00  0.10941570223E+03  0.10941570223E+03  0.00000000000E+00 0.  1.
         13   -1    0    0    0    0 -0.00000000000E+00 -0.00000000000E+00 -0.10000000000E+04  0.10000000000E+04  0.00000000000E+00 0.  1.
    9000005    2    1    2  501    0  0.11067008679E-02 -0.12693701889E-02 -0.89067746732E+03  0.11093225175E+04  0.66127913695E+03 0.  0.
         13    1    3    3    0    0  0.16965131324E+03 -0.28038956799E+03 -0.51890701989E+03  0.61372988620E+03  0.00000000000E+00 0.  1.
          3    1    3    3  501    0 -0.16965020654E+03  0.28038829862E+03 -0.37177044743E+03  0.49559263126E+03  0.00000000000E+00 0.  1.
         21    1    1    2  502  501 -0.11067008679E-02  0.12693701889E-02  0.93169552326E-01  0.93184771117E-01  0.00000000000E+00 0. -1.
<mgrwt>
<rscale>  1 0.66127914E+03</rscale>
<asrwt>0</asrwt>
<pdfrwt beam="1">  1        3 0.39787612E+00 0.66127914E+03</pdfrwt>
<pdfrwt beam="2">0</pdfrwt>
<totfact> 0.60660504E-02</totfact>
</mgrwt>
</event>
<event>
 6    1  0.1059109E-002  0.6341565E+03  0.7818608E-02  0.9836971E-01
          1   -1    0    0  502    0  0.00000000000E+00  0.00000000000E+00  0.10053989563E+03  0.10053989563E+03  0.00000000000E+00 0.  1.
         13   -1    0    0    0    0 -0.00000000000E+00 -0.00000000000E+00 -0.10000000000E+04  0.10000000000E+04  0.00000000000E+00 0.  1.
    9000005    2    1    2  501    0 -0.37273940436E-04  0.22610321224E-04 -0.89946137526E+03  0.11005386240E+04  0.63415652430E+03 0.  0.
         13    1    3    3    0    0 -0.66927462161E+02  0.14879177742E+03  0.22105042444E+02  0.16464176603E+03  0.00000000000E+00 0.  1.
          3    1    3    3  501    0  0.66927424887E+02 -0.14879175481E+03 -0.92156641770E+03  0.93589685796E+03  0.00000000000E+00 0.  1.
         21    1    1    2  502  501  0.37273940442E-04 -0.22610321236E-04  0.12708939395E-02  0.12716414505E-02  0.00000000000E+00 0. -1.
<mgrwt>
<rscale>  1 0.63415652E+03</rscale>
<asrwt>0</asrwt>
<pdfrwt beam="1">  1        1 0.36560039E+00 0.63415652E+03</pdfrwt>
<pdfrwt beam="2">0</pdfrwt>
<totfact> 0.19040667E+00</totfact>
</mgrwt>
</event>
<event>
 6    1  0.1059109E-002  0.6410103E+03  0.7818608E-02  0.9823796E-01
          1   -1    0    0  502    0  0.00000000000E+00  0.00000000000E+00  0.10889987997E+03  0.10889987997E+03  0.00000000000E+00 0.  1.
         13   -1    0    0    0    0 -0.00000000000E+00 -0.00000000000E+00 -0.10000000000E+04  0.10000000000E+04  0.00000000000E+00 0.  1.
    9000005    2    1    2  501    0  0.17448217044E+00 -0.60435655917E+00 -0.89725879561E+03  0.11027091631E+04  0.64100995024E+03 0.  0.
         13    1    3    3    0    0  0.27527393438E+03  0.10468876230E+03 -0.23118336254E+03  0.37440782980E+03  0.00000000000E+00 0.  1.
          1    1    3    3  501    0 -0.27509945221E+03 -0.10529311886E+03 -0.66607543307E+03  0.72830133326E+03  0.00000000000E+00 0.  1.
         21    1    1    2  502  501 -0.17448217044E+00  0.60435655917E+00  0.61586755854E+01  0.61907169088E+01  0.00000000000E+00 0.  1.
<mgrwt>
<rscale>  1 0.64101026E+03</rscale>
<asrwt>0</asrwt>
<pdfrwt beam="1">  1        1 0.39600040E+00 0.64101026E+03</pdfrwt>
<pdfrwt beam="2">0</pdfrwt>
<totfact> 0.13962548E+00</totfact>
</mgrwt>
</event>
<event>
 6    1  0.1059109E-002  0.6541365E+03  0.7818608E-02  0.9799048E-01
          1   -1    0    0  502    0  0.00000000000E+00  0.00000000000E+00  0.10697402870E+03  0.10697402870E+03  0.00000000000E+00 0.  1.
         13   -1    0    0    0    0 -0.00000000000E+00 -0.00000000000E+00 -0.10000000000E+04  0.10000000000E+04  0.00000000000E+00 0.  1.
    9000005    2    1    2  501    0 -0.12266966482E-03  0.15318204908E-03 -0.89302632628E+03  0.11069736231E+04  0.65413651693E+03 0.  0.
         13    1    3    3    0    0  0.18179265326E+03  0.25347131820E+03 -0.28003863897E+03  0.41918721026E+03  0.00000000000E+00 0.  1.
          1    1    3    3  501    0 -0.18179277593E+03 -0.25347116502E+03 -0.61298768731E+03  0.68778641283E+03  0.00000000000E+00 0.  1.
         21    1    1    2  502  501  0.12266966480E-03 -0.15318204908E-03  0.35497899521E-03  0.40561394683E-03  0.00000000000E+00 0.  1.
<mgrwt>
<rscale>  1 0.65413652E+03</rscale>
<asrwt>0</asrwt>
<pdfrwt beam="1">  1        1 0.38899729E+00 0.65413652E+03</pdfrwt>
<pdfrwt beam="2">0</pdfrwt>
<totfact> 0.14961696E+00</totfact>
</mgrwt>
</event>
<event>
 6    1  0.1059109E-002  0.6346679E+03  0.7818608E-02  0.9835982E-01
          1   -1    0    0  502    0  0.00000000000E+00  0.00000000000E+00  0.10077245533E+03  0.10077245533E+03  0.00000000000E+00 0.  1.
         13   -1    0    0    0    0 -0.00000000000E+00 -0.00000000000E+00 -0.10000000000E+04  0.10000000000E+04  0.00000000000E+00 0.  1.
    9000005    2    1    2  501    0 -0.59055625777E-01  0.34342625339E-02 -0.89928547885E+03  0.11006896560E+04  0.63466789964E+03 0.  0.
         13    1    3    3    0    0 -0.27100533169E+03 -0.16442556275E+03 -0.47635462101E+03  0.57218299559E+03  0.00000000000E+00 0.  1.
          3    1    3    3  501    0  0.27094627606E+03  0.16442899701E+03 -0.42293085784E+03  0.52850666040E+03  0.00000000000E+00 0.  1.
         21    1    1    2  502  501  0.59055625777E-01 -0.34342625338E-02  0.57934178304E-01  0.82799336415E-01  0.00000000000E+00 0. -1.
<mgrwt>
<rscale>  1 0.63466790E+03</rscale>
<asrwt>0</asrwt>
<pdfrwt beam="1">  1        1 0.36644606E+00 0.63466790E+03</pdfrwt>
<pdfrwt beam="2">0</pdfrwt>
<totfact> 0.18877053E+00</totfact>
</mgrwt>
</event>
<event>
 6    1  0.1059109E-002  0.6590965E+03  0.7818608E-02  0.9789858E-01
          1   -1    0    0  502    0  0.00000000000E+00  0.00000000000E+00  0.10862417867E+03  0.10862417867E+03  0.00000000000E+00 0.  1.
         13   -1    0    0    0    0 -0.00000000000E+00 -0.00000000000E+00 -0.10000000000E+04  0.10000000000E+04  0.00000000000E+00 0.  1.
    9000005    2    1    2  501    0  0.60751405281E-01  0.11447203055E-02 -0.89133316148E+03  0.11085499365E+04  0.65909646728E+03 0.  0.
         13    1    3    3    0    0 -0.83214290005E+02 -0.15581342761E+03  0.22252663587E+02  0.17803826365E+03  0.00000000000E+00 0.  1.
          1    1    3    3  501    0  0.83275041410E+02  0.15581457234E+03 -0.91358582507E+03  0.93051167281E+03  0.00000000000E+00 0.  1.
         21    1    1    2  502  501 -0.60751405281E-01 -0.11447203055E-02 -0.42659849159E-01  0.74242214127E-01  0.00000000000E+00 0. -1.
<mgrwt>
<rscale>  1 0.65909647E+03</rscale>
<asrwt>0</asrwt>
<pdfrwt beam="1">  1        1 0.39499785E+00 0.65909647E+03</pdfrwt>
<pdfrwt beam="2">0</pdfrwt>
<totfact> 0.14058560E+00</totfact>
</mgrwt>
</event>
<event>
 6    1  0.1059109E-002  0.6466105E+03  0.7818608E-02  0.9813160E-01
          1   -1    0    0  502    0  0.00000000000E+00  0.00000000000E+00  0.10699759073E+03  0.10699759073E+03  0.00000000000E+00 0.  1.
         13   -1    0    0    0    0 -0.00000000000E+00 -0.00000000000E+00 -0.10000000000E+04  0.10000000000E+04  0.00000000000E+00 0.  1.
    9000005    2    1    2  501    0 -0.49072919579E-01 -0.11466683817E+00 -0.89547198623E+03  0.11045248661E+04  0.64661045940E+03 0.  0.
         13    1    3    3    0    0  0.27216274893E+03 -0.59802430439E+02 -0.72773214913E+03  0.77925796337E+03  0.00000000000E+00 0.  1.
          1    1    3    3  501    0 -0.27221182185E+03  0.59687763601E+02 -0.16773983710E+03  0.32526690275E+03  0.00000000000E+00 0.  1.
         21    1    1    2  502  501  0.49072919579E-01  0.11466683817E+00  0.24695769548E+01  0.24727246047E+01  0.00000000000E+00 0. -1.
<mgrwt>
<rscale>  1 0.64661047E+03</rscale>
<asrwt>0</asrwt>
<pdfrwt beam="1">  1        1 0.38908297E+00 0.64661047E+03</pdfrwt>
<pdfrwt beam="2">0</pdfrwt>
<totfact> 0.14969577E+00</totfact>
</mgrwt>
</event>
<event>
 6    1  0.1059109E-002  0.5847369E+03  0.7818608E-02  0.9937588E-01
          1   -1    0    0  502    0  0.00000000000E+00  0.00000000000E+00  0.85502036492E+02  0.85502036492E+02  0.00000000000E+00 0.  1.
         13   -1    0    0    0    0 -0.00000000000E+00 -0.00000000000E+00 -0.10000000000E+04  0.10000000000E+04  0.00000000000E+00 0.  1.
    9000005    2    1    2  501    0  0.20042158713E-01 -0.81757102879E-02 -0.91451497765E+03  0.10854745045E+04  0.58473691100E+03 0.  0.
         13    1    3    3    0    0 -0.60684982959E+02 -0.27665333316E+03 -0.59190143211E+03  0.65617607335E+03  0.00000000000E+00 0.  1.
          1    1    3    3  501    0  0.60705025118E+02  0.27664515744E+03 -0.32261354553E+03  0.42929843113E+03  0.00000000000E+00 0.  1.
         21    1    1    2  502  501 -0.20042158713E-01  0.81757102879E-02  0.17014139796E-01  0.27532005331E-01  0.00000000000E+00 0.  1.
<mgrwt>
<rscale>  1 0.58473691E+03</rscale>
<asrwt>0</asrwt>
<pdfrwt beam="1">  1        1 0.31091715E+00 0.58473691E+03</pdfrwt>
<pdfrwt beam="2">0</pdfrwt>
<totfact> 0.33194843E+00</totfact>
</mgrwt>
</event>
<event>
 6    1  0.1059109E-002  0.6505407E+03  0.7818608E-02  0.9805765E-01
          1   -1    0    0  502    0  0.00000000000E+00  0.00000000000E+00  0.10580079312E+03  0.10580079312E+03  0.00000000000E+00 0.  1.
         13   -1    0    0    0    0 -0.00000000000E+00 -0.00000000000E+00 -0.10000000000E+04  0.10000000000E+04  0.00000000000E+00 0.  1.
    9000005    2    1    2  501    0 -0.11423479123E-05 -0.13402857491E-06 -0.89419920758E+03  0.11058007918E+04  0.65054067379E+03 0.  0.
         13    1    3    3    0    0 -0.11543306454E+03  0.23501676536E+02  0.68266820310E+02  0.13615241439E+03  0.00000000000E+00 0.  1.
          3    1    3    3  501    0  0.11543306340E+03 -0.23501676670E+02 -0.96246602789E+03  0.96964837739E+03  0.00000000000E+00 0.  1.
         21    1    1    2  502  501  0.11423479067E-05  0.13402857451E-06  0.69345201442E-06  0.13430555070E-05  0.00000000000E+00 0. -1.
<mgrwt>
<rscale>  1 0.65054067E+03</rscale>
<asrwt>0</asrwt>
<pdfrwt beam="1">  1        1 0.38473097E+00 0.65054067E+03</pdfrwt>
<pdfrwt beam="2">0</pdfrwt>
<totfact> 0.15637193E+00</totfact>
</mgrwt>
</event>
<event>
 6    1  0.1059109E-002  0.6254800E+03  0.7818608E-02  0.9853909E-01
          1   -1    0    0  502    0  0.00000000000E+00  0.00000000000E+00  0.97820371275E+02  0.97820371275E+02  0.00000000000E+00 0.  1.
         13   -1    0    0    0    0 -0.00000000000E+00 -0.00000000000E+00 -0.10000000000E+04  0.10000000000E+04  0.00000000000E+00 0.  1.
    9000005    2    1    2  501    0 -0.40123776705E-01  0.19519996328E-01 -0.90212469686E+03  0.10977496008E+04  0.62547998803E+03 0.  0.
         13    1    3    3    0    0  0.29853022351E+03 -0.53822393698E+01 -0.28785283997E+03  0.41473909910E+03  0.00000000000E+00 0.  1.
          3    1    3    3  501    0 -0.29857034728E+03  0.54017593661E+01 -0.61427185690E+03  0.68301050172E+03  0.00000000000E+00 0.  1.
         21    1    1    2  502  501  0.40123776705E-01 -0.19519996328E-01 -0.54931863315E-01  0.70770455142E-01  0.00000000000E+00 0. -1.
<mgrwt>
<rscale>  1 0.62547999E+03</rscale>
<asrwt>0</asrwt>
<pdfrwt beam="1">  1        1 0.35571119E+00 0.62547999E+03</pdfrwt>
<pdfrwt beam="2">0</pdfrwt>
<totfact> 0.21068073E+00</totfact>
</mgrwt>
</event>
<event>
 6    1  0.1059109E-002  0.6568785E+03  0.7818608E-02  0.9793957E-01
          1   -1    0    0  502    0  0.00000000000E+00  0.00000000000E+00  0.10787233128E+03  0.10787233128E+03  0.00000000000E+00 0.  1.
         13   -1    0    0    0    0 -0.00000000000E+00 -0.00000000000E+00 -0.10000000000E+04  0.10000000000E+04  0.00000000000E+00 0.  1.
    9000005    2    1    2  501    0 -0.10270899793E-05 -0.21039092530E-05 -0.89212766833E+03  0.11078723289E+04  0.65687846711E+03 0.  0.
         13    1    3    3    0    0  0.24964675754E+03  0.20684503739E+03 -0.35739514441E+03  0.48253462289E+03  0.00000000000E+00 0.  1.
          1    1    3    3  501    0 -0.24964675857E+03 -0.20684503949E+03 -0.53473252392E+03  0.62533770601E+03  0.00000000000E+00 0.  1.
         21    1    1    2  502  501  0.10270900051E-05  0.21039092524E-05 -0.39240957091E-06  0.23738856948E-05  0.00000000000E+00 0.  1.
<mgrwt>
<rscale>  1 0.65687847E+03</rscale>
<asrwt>0</asrwt>
<pdfrwt beam="1">  1        1 0.39226385E+00 0.65687847E+03</pdfrwt>
<pdfrwt beam="2">0</pdfrwt>
<totfact> 0.14463336E+00</totfact>
</mgrwt>
</event>
<event>
 6    1  0.1059109E-002  0.6654176E+03  0.7818608E-02  0.9778272E-01
          1   -1    0    0  502    0  0.00000000000E+00  0.00000000000E+00  0.11072833925E+03  0.11072833925E+03  0.00000000000E+00 0.  1.
         13   -1    0    0    0    0 -0.00000000000E+00 -0.00000000000E+00 -0.10000000000E+04  0.10000000000E+04  0.00000000000E+00 0.  1.
    9000005    2    1    2  501    0  0.53480096906E-03 -0.39150011247E-04 -0.88930485570E+03  0.11106951400E+04  0.66541758888E+03 0.  0.
         13    1    3    3    0    0  0.99951218735E+00 -0.11457477445E+03  0.76724187418E+02  0.13789481099E+03  0.00000000000E+00 0.  1.
          1    1    3    3  501    0 -0.99897738638E+00  0.11457473530E+03 -0.96602904311E+03  0.97280032898E+03  0.00000000000E+00 0.  1.
         21    1    1    2  502  501 -0.53480096906E-03  0.39150011246E-04  0.33194946284E-01  0.33199277154E-01  0.00000000000E+00 0.  1.
<mgrwt>
<rscale>  1 0.66541759E+03</rscale>
<asrwt>0</asrwt>
<pdfrwt beam="1">  1        1 0.40264936E+00 0.66541759E+03</pdfrwt>
<pdfrwt beam="2">0</pdfrwt>
<totfact> 0.12981644E+00</totfact>
</mgrwt>
</event>
<event>
 6    1  0.1059109E-002  0.6451521E+03  0.7818608E-02  0.9815919E-01
          1   -1    0    0  502    0  0.00000000000E+00  0.00000000000E+00  0.10429765719E+03  0.10429765719E+03  0.00000000000E+00 0.  1.
         13   -1    0    0    0    0 -0.00000000000E+00 -0.00000000000E+00 -0.10000000000E+04  0.10000000000E+04  0.00000000000E+00 0.  1.
    9000005    2    1    2  501    0  0.60462094032E+00 -0.36901681735E+00 -0.89508687170E+03  0.11033592838E+04  0.64515168726E+03 0.  0.
         13    1    3    3    0    0 -0.24080973418E+03 -0.20210189826E+03 -0.57011683326E+03  0.65105123371E+03  0.00000000000E+00 0.  1.
          3    1    3    3  501    0  0.24141435512E+03  0.20173288144E+03 -0.32497003845E+03  0.45230805012E+03  0.00000000000E+00 0.  1.
         21    1    1    2  502  501 -0.60462094032E+00  0.36901681735E+00 -0.61547110316E+00  0.93837336481E+00  0.00000000000E+00 0. -1.
<mgrwt>
<rscale>  1 0.64515208E+03</rscale>
<asrwt>0</asrwt>
<pdfrwt beam="1">  1        1 0.37926501E+00 0.64515208E+03</pdfrwt>
<pdfrwt beam="2">0</pdfrwt>
<totfact> 0.16547431E+00</totfact>
</mgrwt>
</event>
<event>
 6    1  0.1059109E-002  0.6312546E+03  0.7818608E-02  0.9842604E-01
          1   -1    0    0  502    0  0.00000000000E+00  0.00000000000E+00  0.10017647092E+03  0.10017647092E+03  0.00000000000E+00 0.  1.
         13   -1    0    0    0    0 -0.00000000000E+00 -0.00000000000E+00 -0.10000000000E+04  0.10000000000E+04  0.00000000000E+00 0.  1.
    9000005    2    1    2  501    0  0.11296833406E+01 -0.17070990930E+00 -0.89964618529E+03  0.10990202801E+04  0.63125352443E+03 0.  0.
         13    1    3    3    0    0  0.26157828033E+03  0.18886195253E+02 -0.75767242300E+03  0.80177764105E+03  0.00000000000E+00 0.  1.
          1    1    3    3  501    0 -0.26044859699E+03 -0.19056905162E+02 -0.14197376228E+03  0.29724263908E+03  0.00000000000E+00 0.  1.
         21    1    1    2  502  501 -0.11296833406E+01  0.17070990930E+00 -0.17734379553E+00  0.11561907909E+01  0.00000000000E+00 0. -1.
<mgrwt>
<rscale>  1 0.63125456E+03</rscale>
<asrwt>0</asrwt>
<pdfrwt beam="1">  1        1 0.36427884E+00 0.63125456E+03</pdfrwt>
<pdfrwt beam="2">0</pdfrwt>
<totfact> 0.19306435E+00</totfact>
</mgrwt>
</event>
<event>
 6    1  0.1059109E-002  0.5697218E+03  0.7818608E-02  0.9970294E-01
          1   -1    0    0  502    0  0.00000000000E+00  0.00000000000E+00  0.10339907165E+03  0.10339907165E+03  0.00000000000E+00 0.  1.
         13   -1    0    0    0    0 -0.00000000000E+00 -0.00000000000E+00 -0.10000000000E+04  0.10000000000E+04  0.00000000000E+00 0.  1.
    9000005    2    1    2  501    0 -0.18807317481E+00  0.25501920687E+00 -0.91885305456E+03  0.10811446894E+04  0.56972168929E+03 0.  0.
         13    1    3    3    0    0  0.18063216631E+03  0.16447829240E+03 -0.18137333261E+03  0.30426530193E+03  0.00000000000E+00 0.  1.
          1    1    3    3  501    0 -0.18082023949E+03 -0.16422327319E+03 -0.73747972195E+03  0.77687938752E+03  0.00000000000E+00 0.  1.
         21    1    1    2  502  501  0.18807317481E+00 -0.25501920687E+00  0.22252126208E+02  0.22254382200E+02  0.00000000000E+00 0.  1.
<mgrwt>
<rscale>  1 0.56972178E+03</rscale>
<asrwt>0</asrwt>
<pdfrwt beam="1">  1        1 0.37599742E+00 0.56972178E+03</pdfrwt>
<pdfrwt beam="2">0</pdfrwt>
<totfact> 0.17359694E+00</totfact>
</mgrwt>
</event>
<event>
 6    1  0.1059109E-002  0.6460730E+03  0.7818608E-02  0.9814176E-01
          1   -1    0    0  502    0  0.00000000000E+00  0.00000000000E+00  0.10435327679E+03  0.10435327679E+03  0.00000000000E+00 0.  1.
         13   -1    0    0    0    0 -0.00000000000E+00 -0.00000000000E+00 -0.10000000000E+04  0.10000000000E+04  0.00000000000E+00 0.  1.
    9000005    2    1    2  501    0  0.22677792288E-04  0.76008562893E-05 -0.89564743358E+03  0.11043525660E+04  0.64607295624E+03 0.  0.
         13    1    3    3    0    0 -0.28466606612E+03 -0.23195751676E+02 -0.18983503186E+03  0.34294336474E+03  0.00000000000E+00 0.  1.
          1    1    3    3  501    0  0.28466608880E+03  0.23195759277E+02 -0.70581240172E+03  0.76140920128E+03  0.00000000000E+00 0.  1.
         21    1    1    2  502  501 -0.22677792303E-04 -0.76008562890E-05  0.71037071529E-03  0.71077324684E-03  0.00000000000E+00 0. -1.
<mgrwt>
<rscale>  1 0.64607296E+03</rscale>
<asrwt>0</asrwt>
<pdfrwt beam="1">  1        1 0.37946726E+00 0.64607296E+03</pdfrwt>
<pdfrwt beam="2">0</pdfrwt>
<totfact> 0.16510682E+00</totfact>
</mgrwt>
</event>
<event>
 6    1  0.1059109E-002  0.6530784E+03  0.7818608E-02  0.9801020E-01
          1   -1    0    0  502    0  0.00000000000E+00  0.00000000000E+00  0.10705492902E+03  0.10705492902E+03  0.00000000000E+00 0.  1.
         13   -1    0    0    0    0 -0.00000000000E+00 -0.00000000000E+00 -0.10000000000E+04  0.10000000000E+04  0.00000000000E+00 0.  1.
    9000005    2    1    2  501    0 -0.49227024241E-01 -0.15157511723E+00 -0.89335565245E+03  0.11066145026E+04  0.65307833385E+03 0.  0.
         13    1    3    3    0    0 -0.72027991265E+02 -0.26513002828E+03 -0.14751817597E+03  0.31183902204E+03  0.00000000000E+00 0.  1.
          1    1    3    3  501    0  0.71978764241E+02  0.26497845317E+03 -0.74583747648E+03  0.79477548054E+03  0.00000000000E+00 0.  1.
         21    1    1    2  502  501  0.49227024241E-01  0.15157511723E+00  0.41058146839E+00  0.44042645046E+00  0.00000000000E+00 0.  1.
<mgrwt>
<rscale>  1 0.65307835E+03</rscale>
<asrwt>0</asrwt>
<pdfrwt beam="1">  1        1 0.38929147E+00 0.65307835E+03</pdfrwt>
<pdfrwt beam="2">0</pdfrwt>
<totfact> 0.14919765E+00</totfact>
</mgrwt>
</event>
<event>
 6    1  0.1059109E-002  0.6581908E+03  0.7818608E-02  0.9791530E-01
          1   -1    0    0  502    0  0.00000000000E+00  0.00000000000E+00  0.10830380645E+03  0.10830380645E+03  0.00000000000E+00 0.  1.
         13   -1    0    0    0    0 -0.00000000000E+00 -0.00000000000E+00 -0.10000000000E+04  0.10000000000E+04  0.00000000000E+00 0.  1.
    9000005    2    1    2  501    0  0.37585474786E-05  0.21800410224E-05 -0.89169620477E+03  0.11083037944E+04  0.65819083792E+03 0.  0.
         13    1    3    3    0    0  0.23505790167E+03  0.10644312149E+03 -0.78979123189E+03  0.83087456648E+03  0.00000000000E+00 0.  1.
          3    1    3    3  501    0 -0.23505789791E+03 -0.10644311931E+03 -0.10190497288E+03  0.27742922794E+03  0.00000000000E+00 0.  1.
         21    1    1    2  502  501 -0.37585474732E-05 -0.21800410150E-05  0.11218191908E-04  0.12030257172E-04  0.00000000000E+00 0.  1.
<mgrwt>
<rscale>  1 0.65819084E+03</rscale>
<asrwt>0</asrwt>
<pdfrwt beam="1">  1        1 0.39383285E+00 0.65819084E+03</pdfrwt>
<pdfrwt beam="2">0</pdfrwt>
<totfact> 0.14229606E+00</totfact>
</mgrwt>
</event>
<event>
 6    1  0.1059109E-002  0.6446532E+03  0.7818608E-02  0.9816864E-01
          1   -1    0    0  502    0  0.00000000000E+00  0.00000000000E+00  0.10389443081E+03  0.10389443081E+03  0.00000000000E+00 0.  1.
         13   -1    0    0    0    0 -0.00000000000E+00 -0.00000000000E+00 -0.10000000000E+04  0.10000000000E+04  0.00000000000E+00 0.  1.
    9000005    2    1    2  501    0 -0.58884324972E-06 -0.42123588173E-07 -0.89610556920E+03  0.11038944302E+04  0.64465317956E+03 0.  0.
         13    1    3    3    0    0 -0.27355774462E+03  0.81481285138E+02 -0.19164412389E+03  0.34380301000E+03  0.00000000000E+00 0.  1.
          3    1    3    3  501    0  0.27355774403E+03 -0.81481285180E+02 -0.70446144531E+03  0.76009142021E+03  0.00000000000E+00 0.  1.
         21    1    1    2  502  501  0.58884321810E-06  0.42123601535E-07  0.58542050659E-08  0.59037700245E-06  0.00000000000E+00 0.  1.
<mgrwt>
<rscale>  1 0.64465318E+03</rscale>
<asrwt>0</asrwt>
<pdfrwt beam="1">  1        1 0.37779873E+00 0.64465318E+03</pdfrwt>
<pdfrwt beam="2">0</pdfrwt>
<totfact> 0.16797139E+00</totfact>
</mgrwt>
</event>
<event>
 6    1  0.1059109E-002  0.5590898E+03  0.7818608E-02  0.9994116E-01
          1   -1    0    0  502    0  0.00000000000E+00  0.00000000000E+00  0.78189902856E+02  0.78189902856E+02  0.00000000000E+00 0.  1.
         13   -1    0    0    0    0 -0.00000000000E+00 -0.00000000000E+00 -0.10000000000E+04  0.10000000000E+04  0.00000000000E+00 0.  1.
    9000005    2    1    2  501    0 -0.15300469084E-01 -0.36400038071E-01 -0.92184507268E+03  0.10781371548E+04  0.55908978262E+03 0.  0.
         13    1    3    3    0    0  0.59500999462E+02 -0.26027865215E+03 -0.62076569568E+03  0.67574802600E+03  0.00000000000E+00 0.  1.
          3    1    3    3  501    0 -0.59516299931E+02  0.26024225212E+03 -0.30107937700E+03  0.40238912882E+03  0.00000000000E+00 0.  1.
         21    1    1    2  502  501  0.15300469084E-01  0.36400038071E-01  0.34975533967E-01  0.52748034106E-01  0.00000000000E+00 0.  1.
<mgrwt>
<rscale>  1 0.55908978E+03</rscale>
<asrwt>0</asrwt>
<pdfrwt beam="1">  1        1 0.28432752E+00 0.55908978E+03</pdfrwt>
<pdfrwt beam="2">0</pdfrwt>
<totfact> 0.43425478E+00</totfact>
</mgrwt>
</event>
<event>
 6    1  0.1059109E-002  0.6366520E+03  0.7818608E-02  0.9832153E-01
          1   -1    0    0  502    0  0.00000000000E+00  0.00000000000E+00  0.10164186441E+03  0.10164186441E+03  0.00000000000E+00 0.  1.
         13   -1    0    0    0    0 -0.00000000000E+00 -0.00000000000E+00 -0.10000000000E+04  0.10000000000E+04  0.00000000000E+00 0.  1.
    9000005    2    1    2  501    0  0.67624339512E-02  0.19916142265E-02 -0.89866851728E+03  0.11013314027E+04  0.63665198853E+03 0.  0.
         13    1    3    3    0    0 -0.27977092958E+03 -0.13717427368E+03 -0.33667829625E+03  0.45873830183E+03  0.00000000000E+00 0.  1.
          3    1    3    3  501    0  0.27977769201E+03  0.13717626530E+03 -0.56199022103E+03  0.64259310084E+03  0.00000000000E+00 0.  1.
         21    1    1    2  502  501 -0.67624339512E-02 -0.19916142265E-02  0.31038169859E+00  0.31046174621E+00  0.00000000000E+00 0.  1.
<mgrwt>
<rscale>  1 0.63665199E+03</rscale>
<asrwt>0</asrwt>
<pdfrwt beam="1">  1        1 0.36960756E+00 0.63665199E+03</pdfrwt>
<pdfrwt beam="2">0</pdfrwt>
<totfact> 0.18277000E+00</totfact>
</mgrwt>
</event>
<event>
 6    1  0.1059109E-002  0.5144973E+03  0.7818608E-02  0.1010063E+00
          1   -1    0    0  502    0  0.00000000000E+00  0.00000000000E+00  0.66358452289E+02  0.66358452289E+02  0.00000000000E+00 0.  1.
         13   -1    0    0    0    0 -0.00000000000E+00 -0.00000000000E+00 -0.10000000000E+04  0.10000000000E+04  0.00000000000E+00 0.  1.
    9000005    2    1    2  501    0 -0.28560960753E-01 -0.78020878276E-02 -0.93382183435E+03  0.10661757507E+04  0.51449733932E+03 0.  0.
         13    1    3    3    0    0 -0.25452046087E+03 -0.71618376676E+01 -0.39073349344E+03  0.46637390560E+03  0.00000000000E+00 0.  1.
          3    1    3    3  501    0  0.25449189991E+03  0.71540355798E+01 -0.54308834091E+03  0.59980184509E+03  0.00000000000E+00 0.  1.
         21    1    1    2  502  501  0.28560960753E-01  0.78020878276E-02  0.18028664300E+00  0.18270160016E+00  0.00000000000E+00 0. -1.
<mgrwt>
<rscale>  1 0.51449734E+03</rscale>
<asrwt>0</asrwt>
<pdfrwt beam="1">  1        1 0.24130397E+00 0.51449734E+03</pdfrwt>
<pdfrwt beam="2">0</pdfrwt>
<totfact> 0.67228820E+00</totfact>
</mgrwt>
</event>
<event>
 6    1  0.1059109E-002  0.6571600E+03  0.7818608E-02  0.9793436E-01
          1   -1    0    0  502    0  0.00000000000E+00  0.00000000000E+00  0.10797604746E+03  0.10797604746E+03  0.00000000000E+00 0.  1.
         13   -1    0    0    0    0 -0.00000000000E+00 -0.00000000000E+00 -0.10000000000E+04  0.10000000000E+04  0.00000000000E+00 0.  1.
    9000005    2    1    2  501    0  0.11033741707E-05 -0.68677411127E-03 -0.89203517756E+03  0.11079648015E+04  0.65715998300E+03 0.  0.
         13    1    3    3    0    0  0.25513850300E+02 -0.28035528736E+03 -0.73171714379E+03  0.78400256519E+03  0.00000000000E+00 0.  1.
          3    1    3    3  501    0 -0.25513849196E+02  0.28035460059E+03 -0.16031803377E+03  0.32396223626E+03  0.00000000000E+00 0.  1.
         21    1    1    2  502  501 -0.11033741736E-05  0.68677411130E-03  0.11225016109E-01  0.11246005804E-01  0.00000000000E+00 0. -1.
<mgrwt>
<rscale>  1 0.65715998E+03</rscale>
<asrwt>0</asrwt>
<pdfrwt beam="1">  1        1 0.39264100E+00 0.65715998E+03</pdfrwt>
<pdfrwt beam="2">0</pdfrwt>
<totfact> 0.14406914E+00</totfact>
</mgrwt>
</event>
<event>
 6    1  0.1059109E-002  0.6589809E+03  0.7818608E-02  0.9790072E-01
          1   -1    0    0  502    0  0.00000000000E+00  0.00000000000E+00  0.10856398848E+03  0.10856398848E+03  0.00000000000E+00 0.  1.
         13   -1    0    0    0    0 -0.00000000000E+00 -0.00000000000E+00 -0.10000000000E+04  0.10000000000E+04  0.00000000000E+00 0.  1.
    9000005    2    1    2  501    0  0.73323156471E-05  0.25766603414E-04 -0.89143602323E+03  0.11085639592E+04  0.65898093160E+03 0.  0.
         13    1    3    3    0    0  0.66010807547E+02 -0.31908488640E+03 -0.36345375335E+03  0.48813033328E+03  0.00000000000E+00 0.  1.
          3    1    3    3  501    0 -0.66010800215E+02  0.31908491217E+03 -0.52798226988E+03  0.62043362596E+03  0.00000000000E+00 0.  1.
         21    1    1    2  502  501 -0.73323156465E-05 -0.25766603365E-04  0.11704536116E-04  0.29234857061E-04  0.00000000000E+00 0.  1.
<mgrwt>
<rscale>  1 0.65898093E+03</rscale>
<asrwt>0</asrwt>
<pdfrwt beam="1">  1        1 0.39477897E+00 0.65898093E+03</pdfrwt>
<pdfrwt beam="2">0</pdfrwt>
<totfact> 0.14090403E+00</totfact>
</mgrwt>
</event>
<event>
 6    1  0.1059109E-002  0.6663728E+03  0.7818608E-02  0.9776533E-01
          1   -1    0    0  502    0  0.00000000000E+00  0.00000000000E+00  0.11101533948E+03  0.11101533948E+03  0.00000000000E+00 0.  1.
         13   -1    0    0    0    0 -0.00000000000E+00 -0.00000000000E+00 -0.10000000000E+04  0.10000000000E+04  0.00000000000E+00 0.  1.
    9000005    2    1    2  501    0 -0.22879871381E-04 -0.54548968137E-04 -0.88898683653E+03  0.11110131627E+04  0.66637275763E+03 0.  0.
         13    1    3    3    0    0  0.13026707764E+03  0.28483404735E+03 -0.25503279224E+03  0.40390799839E+03  0.00000000000E+00 0.  1.
          3    1    3    3  501    0 -0.13026710052E+03 -0.28483410190E+03 -0.63395404428E+03  0.70710516428E+03  0.00000000000E+00 0.  1.
         21    1    1    2  502  501  0.22879871385E-04  0.54548968117E-04  0.21760099930E-02  0.21768138570E-02  0.00000000000E+00 0.  1.
<mgrwt>
<rscale>  1 0.66637276E+03</rscale>
<asrwt>0</asrwt>
<pdfrwt beam="1">  1        1 0.40369299E+00 0.66637276E+03</pdfrwt>
<pdfrwt beam="2">0</pdfrwt>
<totfact> 0.12840720E+00</totfact>
</mgrwt>
</event>
<event>
 6    1  0.1059109E-002  0.6600157E+03  0.7818608E-02  0.9788165E-01
          1   -1    0    0  502    0  0.00000000000E+00  0.00000000000E+00  0.10893926184E+03  0.10893926184E+03  0.00000000000E+00 0.  1.
         13   -1    0    0    0    0 -0.00000000000E+00 -0.00000000000E+00 -0.10000000000E+04  0.10000000000E+04  0.00000000000E+00 0.  1.
    9000005    2    1    2  501    0 -0.39170127244E-01  0.31519465055E-01 -0.89107286952E+03  0.11088875420E+04  0.66001569633E+03 0.  0.
         13    1    3    3    0    0 -0.59908028671E+02  0.14343944109E+03  0.43550446098E+02  0.16143260673E+03  0.00000000000E+00 0.  1.
          3    1    3    3  501    0  0.59868858544E+02 -0.14340792162E+03 -0.93462331562E+03  0.94745493524E+03  0.00000000000E+00 0.  1.
         21    1    1    2  502  501  0.39170127244E-01 -0.31519465055E-01  0.12131358296E-01  0.51719874321E-01  0.00000000000E+00 0. -1.
<mgrwt>
<rscale>  1 0.66001570E+03</rscale>
<asrwt>0</asrwt>
<pdfrwt beam="1">  1        1 0.39614361E+00 0.66001570E+03</pdfrwt>
<pdfrwt beam="2">0</pdfrwt>
<totfact> 0.13892162E+00</totfact>
</mgrwt>
</event>
<event>
 6    1  0.1059109E-002  0.6519484E+03  0.7818608E-02  0.9803130E-01
          1   -1    0    0  502    0  0.00000000000E+00  0.00000000000E+00  0.10625947740E+03  0.10625947740E+03  0.00000000000E+00 0.  1.
         13   -1    0    0    0    0 -0.00000000000E+00 -0.00000000000E+00 -0.10000000000E+04  0.10000000000E+04  0.00000000000E+00 0.  1.
    9000005    2    1    2  501    0 -0.98532742498E-04 -0.80512074646E-04 -0.89374080976E+03  0.11062591633E+04  0.65194838860E+03 0.  0.
         13    1    3    3    0    0 -0.61363136682E+02  0.19864863433E+03 -0.20854529421E+02  0.20895364524E+03  0.00000000000E+00 0.  1.
          3    1    3    3  501    0  0.61363038149E+02 -0.19864871484E+03 -0.87288628034E+03  0.89730551807E+03  0.00000000000E+00 0.  1.
         21    1    1    2  502  501  0.98532742502E-04  0.80512074656E-04  0.28715613630E-03  0.31408524659E-03  0.00000000000E+00 0. -1.
<mgrwt>
<rscale>  1 0.65194839E+03</rscale>
<asrwt>0</asrwt>
<pdfrwt beam="1">  1        1 0.38639891E+00 0.65194839E+03</pdfrwt>
<pdfrwt beam="2">0</pdfrwt>
<totfact> 0.15369721E+00</totfact>
</mgrwt>
</event>
<event>
 6    1  0.1059109E-002  0.6568323E+03  0.7818608E-02  0.9794043E-01
          1   -1    0    0  502    0  0.00000000000E+00  0.00000000000E+00  0.10786293623E+03  0.10786293623E+03  0.00000000000E+00 0.  1.
         13   -1    0    0    0    0 -0.00000000000E+00 -0.00000000000E+00 -0.10000000000E+04  0.10000000000E+04  0.00000000000E+00 0.  1.
    9000005    2    1    2  501    0  0.50415078779E-02 -0.39426092947E-02 -0.89214078794E+03  0.11078555315E+04  0.65683231730E+03 0.  0.
         13    1    3    3    0    0 -0.32246329881E+03  0.37373219455E+02 -0.36213821697E+03  0.48633674013E+03  0.00000000000E+00 0.  1.
          3    1    3    3  501    0  0.32246834032E+03 -0.37377162065E+02 -0.53000257097E+03  0.62151879134E+03  0.00000000000E+00 0.  1.
         21    1    1    2  502  501 -0.50415078779E-02  0.39426092947E-02  0.37241712964E-02  0.74047566860E-02  0.00000000000E+00 0.  1.
<mgrwt>
<rscale>  1 0.65683232E+03</rscale>
<asrwt>0</asrwt>
<pdfrwt beam="1">  1        1 0.39222969E+00 0.65683232E+03</pdfrwt>
<pdfrwt beam="2">0</pdfrwt>
<totfact> 0.14468513E+00</totfact>
</mgrwt>
</event>
<event>
 6    1  0.1059109E-002  0.6510929E+03  0.7818608E-02  0.9804731E-01
          3   -1    0    0  502    0  0.00000000000E+00  0.00000000000E+00  0.11527217841E+03  0.11527217841E+03  0.00000000000E+00 0.  1.
         13   -1    0    0    0    0 -0.00000000000E+00 -0.00000000000E+00 -0.10000000000E+04  0.10000000000E+04  0.00000000000E+00 0.  1.
    9000005    2    1    2  501    0  0.49827420335E+01  0.11088135806E+02 -0.88939939773E+03  0.11022491950E+04  0.65097943490E+03 0.  0.
         13    1    3    3    0    0  0.18272394408E+03 -0.14775139686E+03 -0.82142178049E+03  0.85437243429E+03  0.00000000000E+00 0.  1.
          3    1    3    3  501    0 -0.17774120204E+03  0.15883953266E+03 -0.67977617236E+02  0.24787676068E+03  0.00000000000E+00 0.  1.
         21    1    1    2  502  501 -0.49827420335E+01 -0.11088135806E+02  0.46715761356E+01  0.13022983430E+02  0.00000000000E+00 0.  1.
<mgrwt>
<rscale>  1 0.65109293E+03</rscale>
<asrwt>0</asrwt>
<pdfrwt beam="1">  1        3 0.41917244E+00 0.65109293E+03</pdfrwt>
<pdfrwt beam="2">0</pdfrwt>
<totfact> 0.47053697E-02</totfact>
</mgrwt>
</event>
<event>
 6    1  0.1059109E-002  0.6479076E+03  0.7818608E-02  0.9810713E-01
          1   -1    0    0  502    0  0.00000000000E+00  0.00000000000E+00  0.10500752054E+03  0.10500752054E+03  0.00000000000E+00 0.  1.
         13   -1    0    0    0    0 -0.00000000000E+00 -0.00000000000E+00 -0.10000000000E+04  0.10000000000E+04  0.00000000000E+00 0.  1.
    9000005    2    1    2  501    0  0.18316919907E-03 -0.42272312781E-02 -0.89505383879E+03  0.11049460155E+04  0.64790764991E+03 0.  0.
         13    1    3    3    0    0  0.31353738470E+01  0.24729846949E+03 -0.90696428869E+02  0.26342400383E+03  0.00000000000E+00 0.  1.
          3    1    3    3  501    0 -0.31351906778E+01 -0.24730269672E+03 -0.80435740992E+03  0.84152201167E+03  0.00000000000E+00 0.  1.
         21    1    1    2  502  501 -0.18316919906E-03  0.42272312781E-02  0.61359332399E-01  0.61505046196E-01  0.00000000000E+00 0. -1.
<mgrwt>
<rscale>  1 0.64790765E+03</rscale>
<asrwt>0</asrwt>
<pdfrwt beam="1">  1        1 0.38184633E+00 0.64790765E+03</pdfrwt>
<pdfrwt beam="2">0</pdfrwt>
<totfact> 0.16110835E+00</totfact>
</mgrwt>
</event>
<event>
 6    1  0.1059109E-002  0.6488046E+03  0.7818608E-02  0.9809025E-01
          1   -1    0    0  502    0  0.00000000000E+00  0.00000000000E+00  0.10523696650E+03  0.10523696650E+03  0.00000000000E+00 0.  1.
         13   -1    0    0    0    0 -0.00000000000E+00 -0.00000000000E+00 -0.10000000000E+04  0.10000000000E+04  0.00000000000E+00 0.  1.
    9000005    2    1    2  501    0 -0.14945882211E-03  0.25967974017E-03 -0.89476272177E+03  0.11052365341E+04  0.64880464554E+03 0.  0.
         13    1    3    3    0    0 -0.17147469588E+03 -0.25555071579E+03 -0.62216274112E+03  0.69411541987E+03  0.00000000000E+00 0.  1.
          3    1    3    3  501    0  0.17147454642E+03  0.25555097547E+03 -0.27259998065E+03  0.41112111425E+03  0.00000000000E+00 0.  1.
         21    1    1    2  502  501  0.14945882213E-03 -0.25967974018E-03 -0.31173265498E-03  0.43237571064E-03  0.00000000000E+00 0. -1.
<mgrwt>
<rscale>  1 0.64880465E+03</rscale>
<asrwt>0</asrwt>
<pdfrwt beam="1">  1        1 0.38268069E+00 0.64880465E+03</pdfrwt>
<pdfrwt beam="2">0</pdfrwt>
<totfact> 0.15972056E+00</totfact>
</mgrwt>
</event>
<event>
 6    1  0.1059109E-002  0.6514818E+03  0.7818608E-02  0.9804003E-01
          1   -1    0    0  502    0  0.00000000000E+00  0.00000000000E+00  0.10610714582E+03  0.10610714582E+03  0.00000000000E+00 0.  1.
         13   -1    0    0    0    0 -0.00000000000E+00 -0.00000000000E+00 -0.10000000000E+04  0.10000000000E+04  0.00000000000E+00 0.  1.
    9000005    2    1    2  501    0 -0.87533460658E-06  0.98850688346E-06 -0.89389285641E+03  0.11061071432E+04  0.65148182903E+03 0.  0.
         13    1    3    3    0    0  0.84943289942E+02  0.22228637114E+03 -0.82461613455E+03  0.85826473926E+03  0.00000000000E+00 0.  1.
          3    1    3    3  501    0 -0.84943290817E+02 -0.22228637015E+03 -0.69276721859E+02  0.24784240396E+03  0.00000000000E+00 0.  1.
         21    1    1    2  502  501  0.87533461206E-06 -0.98850689214E-06  0.22339114595E-05  0.25949406482E-05  0.00000000000E+00 0. -1.
<mgrwt>
<rscale>  1 0.65148183E+03</rscale>
<asrwt>0</asrwt>
<pdfrwt beam="1">  1        1 0.38584498E+00 0.65148183E+03</pdfrwt>
<pdfrwt beam="2">0</pdfrwt>
<totfact> 0.15458061E+00</totfact>
</mgrwt>
</event>
<event>
 6    1  0.1059109E-002  0.6500497E+03  0.7818608E-02  0.9806686E-01
          1   -1    0    0  502    0  0.00000000000E+00  0.00000000000E+00  0.10564945665E+03  0.10564945665E+03  0.00000000000E+00 0.  1.
         13   -1    0    0    0    0 -0.00000000000E+00 -0.00000000000E+00 -0.10000000000E+04  0.10000000000E+04  0.00000000000E+00 0.  1.
    9000005    2    1    2  501    0 -0.34435212645E-03  0.64389242169E-03 -0.89435881467E+03  0.11056411532E+04  0.65004974440E+03 0.  0.
         13    1    3    3    0    0 -0.93273509163E+01  0.27000112086E+03 -0.13982918033E+03  0.30420355752E+03  0.00000000000E+00 0.  1.
          1    1    3    3  501    0  0.93270065642E+01 -0.27000047696E+03 -0.75452963434E+03  0.80143759564E+03  0.00000000000E+00 0.  1.
         21    1    1    2  502  501  0.34435212645E-03 -0.64389242168E-03  0.82713144509E-02  0.83034823167E-02  0.00000000000E+00 0. -1.
<mgrwt>
<rscale>  1 0.65004974E+03</rscale>
<asrwt>0</asrwt>
<pdfrwt beam="1">  1        1 0.38418065E+00 0.65004974E+03</pdfrwt>
<pdfrwt beam="2">0</pdfrwt>
<totfact> 0.15726485E+00</totfact>
</mgrwt>
</event>
<event>
 6    1  0.1059109E-002  0.6385150E+03  0.7818608E-02  0.9828572E-01
          1   -1    0    0  502    0  0.00000000000E+00  0.00000000000E+00  0.10192651911E+03  0.10192651911E+03  0.00000000000E+00 0.  1.
         13   -1    0    0    0    0 -0.00000000000E+00 -0.00000000000E+00 -0.10000000000E+04  0.10000000000E+04  0.00000000000E+00 0.  1.
    9000005    2    1    2  501    0  0.21546819701E-02 -0.20709864135E-02 -0.89807189504E+03  0.11019231358E+04  0.63851504964E+03 0.  0.
         13    1    3    3    0    0 -0.27021347685E+03 -0.76199965947E+02 -0.18672426204E+03  0.33717607850E+03  0.00000000000E+00 0.  1.
          3    1    3    3  501    0  0.27021563153E+03  0.76197894961E+02 -0.71134763300E+03  0.76474705733E+03  0.00000000000E+00 0.  1.
         21    1    1    2  502  501 -0.21546819702E-02  0.20709864135E-02 -0.15858485560E-02  0.33832757440E-02  0.00000000000E+00 0. -1.
<mgrwt>
<rscale>  1 0.63851505E+03</rscale>
<asrwt>0</asrwt>
<pdfrwt beam="1">  1        1 0.37064267E+00 0.63851505E+03</pdfrwt>
<pdfrwt beam="2">0</pdfrwt>
<totfact> 0.18080532E+00</totfact>
</mgrwt>
</event>
<event>
 6    1  0.1059109E-002  0.6479783E+03  0.7818608E-02  0.9810580E-01
          1   -1    0    0  502    0  0.00000000000E+00  0.00000000000E+00  0.10529974786E+03  0.10529974786E+03  0.00000000000E+00 0.  1.
         13   -1    0    0    0    0 -0.00000000000E+00 -0.00000000000E+00 -0.10000000000E+04  0.10000000000E+04  0.00000000000E+00 0.  1.
    9000005    2    1    2  501    0  0.59325020362E+00 -0.26312332941E+00 -0.89463395169E+03  0.11046473864E+04  0.64797802404E+03 0.  0.
         13    1    3    3    0    0 -0.16022399225E+03  0.32186712782E+02  0.29498176665E+02  0.16606581406E+03  0.00000000000E+00 0.  1.
          1    1    3    3  501    0  0.16081724245E+03 -0.32449836111E+02 -0.92413212836E+03  0.93858157237E+03  0.00000000000E+00 0.  1.
         21    1    1    2  502  501 -0.59325020362E+00  0.26312332941E+00 -0.66300446315E-01  0.65236143338E+00  0.00000000000E+00 0.  1.
<mgrwt>
<rscale>  1 0.64797835E+03</rscale>
<asrwt>0</asrwt>
<pdfrwt beam="1">  1        1 0.38290898E+00 0.64797835E+03</pdfrwt>
<pdfrwt beam="2">0</pdfrwt>
<totfact> 0.15937430E+00</totfact>
</mgrwt>
</event>
<event>
 6    1  0.1059109E-002  0.6509961E+03  0.7818608E-02  0.9804912E-01
          1   -1    0    0  502    0  0.00000000000E+00  0.00000000000E+00  0.10595253455E+03  0.10595253455E+03  0.00000000000E+00 0.  1.
         13   -1    0    0    0    0 -0.00000000000E+00 -0.00000000000E+00 -0.10000000000E+04  0.10000000000E+04  0.00000000000E+00 0.  1.
    9000005    2    1    2  501    0 -0.39589841961E-04  0.27349558380E-03 -0.89405101312E+03  0.11059489761E+04  0.65099610119E+03 0.  0.
         13    1    3    3    0    0  0.11749503886E+03  0.17533078345E+03 -0.86799613172E+03  0.89328788890E+03  0.00000000000E+00 0.  1.
          1    1    3    3  501    0 -0.11749507845E+03 -0.17533050995E+03 -0.26054881399E+02  0.21266108724E+03  0.00000000000E+00 0.  1.
         21    1    1    2  502  501  0.39589841966E-04 -0.27349558380E-03  0.35476648334E-02  0.35584115782E-02  0.00000000000E+00 0. -1.
<mgrwt>
<rscale>  1 0.65099610E+03</rscale>
<asrwt>0</asrwt>
<pdfrwt beam="1">  1        1 0.38528276E+00 0.65099610E+03</pdfrwt>
<pdfrwt beam="2">0</pdfrwt>
<totfact> 0.15548252E+00</totfact>
</mgrwt>
</event>
<event>
 6    1  0.1059109E-002  0.6544598E+03  0.7818608E-02  0.9798446E-01
          1   -1    0    0  502    0  0.00000000000E+00  0.00000000000E+00  0.10708393499E+03  0.10708393499E+03  0.00000000000E+00 0.  1.
         13   -1    0    0    0    0 -0.00000000000E+00 -0.00000000000E+00 -0.10000000000E+04  0.10000000000E+04  0.00000000000E+00 0.  1.
    9000005    2    1    2  501    0 -0.38432214960E-03 -0.17166190170E-03 -0.89292057185E+03  0.11070794085E+04  0.65445983007E+03 0.  0.
         13    1    3    3    0    0  0.88229682315E+02 -0.11395668986E+03  0.50501895597E+02  0.15271229637E+03  0.00000000000E+00 0.  1.
          3    1    3    3  501    0 -0.88230066638E+02  0.11395651820E+03 -0.94342246745E+03  0.95436711216E+03  0.00000000000E+00 0.  1.
         21    1    1    2  502  501  0.38432214960E-03  0.17166190171E-03  0.45068399597E-02  0.45264531088E-02  0.00000000000E+00 0. -1.
<mgrwt>
<rscale>  1 0.65445983E+03</rscale>
<asrwt>0</asrwt>
<pdfrwt beam="1">  1        1 0.38939695E+00 0.65445983E+03</pdfrwt>
<pdfrwt beam="2">0</pdfrwt>
<totfact> 0.14899893E+00</totfact>
</mgrwt>
</event>
<event>
 6    1  0.1059109E-002  0.6501286E+03  0.7818608E-02  0.9806538E-01
          1   -1    0    0  502    0  0.00000000000E+00  0.00000000000E+00  0.10566680213E+03  0.10566680213E+03  0.00000000000E+00 0.  1.
         13   -1    0    0    0    0 -0.00000000000E+00 -0.00000000000E+00 -0.10000000000E+04  0.10000000000E+04  0.00000000000E+00 0.  1.
    9000005    2    1    2  501    0  0.36075273385E-04 -0.22236369375E-04 -0.89433313768E+03  0.11056667285E+04  0.65012856684E+03 0.  0.
         13    1    3    3    0    0  0.13816296715E+03  0.14506449114E+03 -0.88253666151E+03  0.90498821594E+03  0.00000000000E+00 0.  1.
          1    1    3    3  501    0 -0.13816293107E+03 -0.14506451338E+03 -0.11796476172E+02  0.20067851259E+03  0.00000000000E+00 0.  1.
         21    1    1    2  502  501 -0.36075273376E-04  0.22236369381E-04 -0.60186403069E-04  0.73608998001E-04  0.00000000000E+00 0. -1.
<mgrwt>
<rscale>  1 0.65012857E+03</rscale>
<asrwt>0</asrwt>
<pdfrwt beam="1">  1        1 0.38424373E+00 0.65012857E+03</pdfrwt>
<pdfrwt beam="2">0</pdfrwt>
<totfact> 0.15716161E+00</totfact>
</mgrwt>
</event>
<event>
 6    1  0.1059109E-002  0.6478904E+03  0.7818608E-02  0.9810746E-01
          1   -1    0    0  502    0  0.00000000000E+00  0.00000000000E+00  0.10557450909E+03  0.10557450909E+03  0.00000000000E+00 0.  1.
         13   -1    0    0    0    0 -0.00000000000E+00 -0.00000000000E+00 -0.10000000000E+04  0.10000000000E+04  0.00000000000E+00 0.  1.
    9000005    2    1    2  501    0  0.91743514818E+00 -0.72453148585E+00 -0.89439854953E+03  0.11044051678E+04  0.64788937537E+03 0.  0.
         13    1    3    3    0    0 -0.94912376697E+02 -0.36209467165E+02 -0.97124698492E+03  0.97654502737E+03  0.00000000000E+00 0.  1.
          3    1    3    3  501    0  0.95829811845E+02  0.35484935679E+02  0.76848435393E+02  0.12786014047E+03  0.00000000000E+00 0.  1.
         21    1    1    2  502  501 -0.91743514818E+00  0.72453148585E+00 -0.26941386684E-01  0.11693412519E+01  0.00000000000E+00 0.  1.
<mgrwt>
<rscale>  1 0.64789043E+03</rscale>
<asrwt>0</asrwt>
<pdfrwt beam="1">  1        1 0.38390812E+00 0.64789043E+03</pdfrwt>
<pdfrwt beam="2">0</pdfrwt>
<totfact> 0.15776465E+00</totfact>
</mgrwt>
</event>
<event>
 6    1  0.1059109E-002  0.6478255E+03  0.7818608E-02  0.9810868E-01
          1   -1    0    0  502    0  0.00000000000E+00  0.00000000000E+00  0.10491962690E+03  0.10491962690E+03  0.00000000000E+00 0.  1.
         13   -1    0    0    0    0 -0.00000000000E+00 -0.00000000000E+00 -0.10000000000E+04  0.10000000000E+04  0.00000000000E+00 0.  1.
    9000005    2    1    2  501    0 -0.80549091876E-04 -0.18665425802E-03 -0.89508047735E+03  0.11049193984E+04  0.64782545189E+03 0.  0.
         13    1    3    3    0    0  0.28032977100E+03  0.16226249834E+03 -0.44353935036E+03  0.54921858508E+03  0.00000000000E+00 0.  1.
          3    1    3    3  501    0 -0.28032985155E+03 -0.16226268500E+03 -0.45154112698E+03  0.55570081336E+03  0.00000000000E+00 0.  1.
         21    1    1    2  502  501  0.80549091866E-04  0.18665425800E-03  0.10424139887E-03  0.22846058187E-03  0.00000000000E+00 0.  1.
<mgrwt>
<rscale>  1 0.64782545E+03</rscale>
<asrwt>0</asrwt>
<pdfrwt beam="1">  1        1 0.38152672E+00 0.64782545E+03</pdfrwt>
<pdfrwt beam="2">0</pdfrwt>
<totfact> 0.16163522E+00</totfact>
</mgrwt>
</event>
<event>
 6    1  0.1059109E-002  0.6490541E+03  0.7818608E-02  0.9808556E-01
          1   -1    0    0  502    0  0.00000000000E+00  0.00000000000E+00  0.10555123896E+03  0.10555123896E+03  0.00000000000E+00 0.  1.
         13   -1    0    0    0    0 -0.00000000000E+00 -0.00000000000E+00 -0.10000000000E+04  0.10000000000E+04  0.00000000000E+00 0.  1.
    9000005    2    1    2  501    0  0.11123160386E+00  0.22226845706E+00 -0.89460674193E+03  0.11052567331E+04  0.64905405137E+03 0.  0.
         13    1    3    3    0    0  0.26558216749E+03  0.23243052850E+02 -0.13210001840E+03  0.29753074136E+03  0.00000000000E+00 0.  1.
          1    1    3    3  501    0 -0.26547093588E+03 -0.23020784392E+02 -0.76250672353E+03  0.80772599175E+03  0.00000000000E+00 0.  1.
         21    1    1    2  502  501 -0.11123160386E+00 -0.22226845706E+00  0.15798089203E+00  0.29450585554E+00  0.00000000000E+00 0. -1.
<mgrwt>
<rscale>  1 0.64905410E+03</rscale>
<asrwt>0</asrwt>
<pdfrwt beam="1">  1        1 0.38382350E+00 0.64905410E+03</pdfrwt>
<pdfrwt beam="2">0</pdfrwt>
<totfact> 0.15786666E+00</totfact>
</mgrwt>
</event>
<event>
 6    1  0.1059109E-002  0.6467587E+03  0.7818608E-02  0.9812880E-01
          1   -1    0    0  502    0  0.00000000000E+00  0.00000000000E+00  0.10457442042E+03  0.10457442042E+03  0.00000000000E+00 0.  1.
         13   -1    0    0    0    0 -0.00000000000E+00 -0.00000000000E+00 -0.10000000000E+04  0.10000000000E+04  0.00000000000E+00 0.  1.
    9000005    2    1    2  501    0 -0.21992443902E-03  0.19679033898E-04 -0.89542571675E+03  0.11045741605E+04  0.64675873537E+03 0.  0.
         13    1    3    3    0    0  0.13355128861E+03 -0.53243284090E+02 -0.94241327479E+03  0.95331714266E+03  0.00000000000E+00 0.  1.
          3    1    3    3  501    0 -0.13355150853E+03  0.53243303769E+02  0.46987558043E+02  0.15125701781E+03  0.00000000000E+00 0.  1.
         21    1    1    2  502  501  0.21992443902E-03 -0.19679033891E-04  0.13716587666E-03  0.25993941789E-03  0.00000000000E+00 0. -1.
<mgrwt>
<rscale>  1 0.64675874E+03</rscale>
<asrwt>0</asrwt>
<pdfrwt beam="1">  1        1 0.38027142E+00 0.64675874E+03</pdfrwt>
<pdfrwt beam="2">0</pdfrwt>
<totfact> 0.16374285E+00</totfact>
</mgrwt>
</event>
<event>
 6    1  0.1059109E-002  0.6273459E+03  0.7818608E-02  0.9850242E-01
          1   -1    0    0  502    0  0.00000000000E+00  0.00000000000E+00  0.98392509763E+02  0.98392509763E+02  0.00000000000E+00 0.  1.
         13   -1    0    0    0    0 -0.00000000000E+00 -0.00000000000E+00 -0.10000000000E+04  0.10000000000E+04  0.00000000000E+00 0.  1.
    9000005    2    1    2  501    0  0.95308379872E-03 -0.27422023758E-02 -0.90160789132E+03  0.10983895791E+04  0.62734589959E+03 0.  0.
         13    1    3    3    0    0  0.19964322373E+03 -0.20435708878E+02 -0.87288661420E+03  0.89565957608E+03  0.00000000000E+00 0.  1.
          1    1    3    3  501    0 -0.19964227065E+03  0.20432966676E+02 -0.28721277122E+02  0.20273000300E+03  0.00000000000E+00 0.  1.
         21    1    1    2  502  501 -0.95308379873E-03  0.27422023758E-02  0.40108056935E-03  0.29306839168E-02  0.00000000000E+00 0.  1.
<mgrwt>
<rscale>  1 0.62734590E+03</rscale>
<asrwt>0</asrwt>
<pdfrwt beam="1">  1        1 0.35779170E+00 0.62734590E+03</pdfrwt>
<pdfrwt beam="2">0</pdfrwt>
<totfact> 0.20624872E+00</totfact>
</mgrwt>
</event>
