<event>
 6    1  0.3721217E-003  0.6482789E+03  0.7818608E-02  0.9810014E-01
          1   -1    0    0  502    0  0.00000000000E+00  0.00000000000E+00  0.10507004088E+03  0.10507004088E+03  0.00000000000E+00 0.  1.
         13   -1    0    0    0    0 -0.00000000000E+00 -0.00000000000E+00 -0.10000000000E+04  0.10000000000E+04  0.00000000000E+00 0.  1.
    9000005    2    1    2  501    0  0.28560086318E-03  0.10150456798E-02 -0.89493353054E+03  0.11050663170E+04  0.64827890678E+03 0.  0.
         13    1    3    3    0    0 -0.22826415019E+03  0.21002031203E+03 -0.28707480683E+03  0.42264050734E+03  0.00000000000E+00 0.  1.
          3    1    3    3  501    0  0.22826443579E+03 -0.21001929699E+03 -0.60785872372E+03  0.68242580970E+03  0.00000000000E+00 0.  1.
         21    1    1    2  502  501 -0.28560086318E-03 -0.10150456798E-02  0.35714266527E-02  0.37238386002E-02  0.00000000000E+00 0.  1.
<mgrwt>
<rscale>  1 0.64827891E+03</rscale>
<asrwt>0</asrwt>
<pdfrwt beam="1">  1        1 0.38207368E+00 0.64827891E+03</pdfrwt>
<pdfrwt beam="2">0</pdfrwt>
<totfact> 0.16072531E+00</totfact>
</mgrwt>
</event>
<event>
 6    1  0.5939361E-003  0.6688950E+03  0.7818608E-02  0.9771956E-01
          1   -1    0    0  502    0  0.00000000000E+00  0.00000000000E+00  0.11185515305E+03  0.11185515305E+03  0.00000000000E+00 0.  1.
         13   -1    0    0    0    0 -0.00000000000E+00 -0.00000000000E+00 -0.10000000000E+04  0.10000000000E+04  0.00000000000E+00 0.  1.
    9000005    2    1    2  501    0  0.13195737580E-04  0.12649371968E-04 -0.88814478637E+03  0.11118550898E+04  0.66889504343E+03 0.  0.
         13    1    3    3    0    0  0.14940374359E+03  0.29682178090E+03 -0.38120370319E+03  0.50570832655E+03  0.00000000000E+00 0.  1.
          1    1    3    3  501    0 -0.14940373039E+03 -0.29682176825E+03 -0.50694108318E+03  0.60614676323E+03  0.00000000000E+00 0.  1.
         21    1    1    2  502  501 -0.13195737571E-04 -0.12649372003E-04 -0.60571307522E-04  0.63269403324E-04  0.00000000000E+00 0.  1.
<mgrwt>
<rscale>  1 0.66889504E+03</rscale>
<asrwt>0</asrwt>
<pdfrwt beam="1">  1        1 0.40674687E+00 0.66889504E+03</pdfrwt>
<pdfrwt beam="2">0</pdfrwt>
<totfact> 0.12437230E+00</totfact>
</mgrwt>
</event>
<event>
 6    1  0.3721217E-003  0.4886878E+03  0.7818608E-02  0.1016774E+00
          1   -1    0    0  502    0  0.00000000000E+00  0.00000000000E+00  0.59709028660E+02  0.59709028660E+02  0.00000000000E+00 0.  1.
         13   -1    0    0    0    0 -0.00000000000E+00 -0.00000000000E+00 -0.10000000000E+04  0.10000000000E+04  0.00000000000E+00 0.  1.
    9000005    2    1    2  501    0 -0.23700020336E-04 -0.68893206219E-04 -0.94029606491E+03  0.10597039346E+04  0.48868777277E+03 0.  0.
         13    1    3    3    0    0 -0.90772707236E+02 -0.22467727537E+03 -0.53818377255E+03  0.59022142919E+03  0.00000000000E+00 0.  1.
          1    1    3    3  501    0  0.90772683536E+02  0.22467720647E+03 -0.40211229237E+03  0.46948250538E+03  0.00000000000E+00 0.  1.
         21    1    1    2  502  501  0.23700020330E-04  0.68893206222E-04  0.50935703732E-02  0.50940913921E-02  0.00000000000E+00 0. -1.
<mgrwt>
<rscale>  1 0.48868777E+03</rscale>
<asrwt>0</asrwt>
<pdfrwt beam="1">  1        1 0.21712420E+00 0.48868777E+03</pdfrwt>
<pdfrwt beam="2">0</pdfrwt>
<totfact> 0.86280606E+00</totfact>
</mgrwt>
</event>
<event>
 6    1  0.3721217E-003  0.6458564E+03  0.7818608E-02  0.9814586E-01
          1   -1    0    0  502    0  0.00000000000E+00  0.00000000000E+00  0.10439617750E+03  0.10439617750E+03  0.00000000000E+00 0.  1.
         13   -1    0    0    0    0 -0.00000000000E+00 -0.00000000000E+00 -0.10000000000E+04  0.10000000000E+04  0.00000000000E+00 0.  1.
    9000005    2    1    2  501    0 -0.62019964044E-01 -0.91083689089E-01 -0.89568711064E+03  0.11042580485E+04  0.64585635035E+03 0.  0.
         13    1    3    3    0    0 -0.24307359004E+03  0.93132328522E+02 -0.12107113141E+03  0.28708294908E+03  0.00000000000E+00 0.  1.
          1    1    3    3  501    0  0.24301157007E+03 -0.93223412211E+02 -0.77461597924E+03  0.81717509939E+03  0.00000000000E+00 0.  1.
         21    1    1    2  502  501  0.62019964044E-01  0.91083689089E-01  0.83288143720E-01  0.13812903114E+00  0.00000000000E+00 0.  1.
<mgrwt>
<rscale>  1 0.64585636E+03</rscale>
<asrwt>0</asrwt>
<pdfrwt beam="1">  1        1 0.37962326E+00 0.64585636E+03</pdfrwt>
<pdfrwt beam="2">0</pdfrwt>
<totfact> 0.16485196E+00</totfact>
</mgrwt>
</event>
<event>
 6    1  0.3721217E-003  0.6495855E+03  0.7818608E-02  0.9807557E-01
          1   -1    0    0  502    0  0.00000000000E+00  0.00000000000E+00  0.10549057791E+03  0.10549057791E+03  0.00000000000E+00 0.  1.
         13   -1    0    0    0    0 -0.00000000000E+00 -0.00000000000E+00 -0.10000000000E+04  0.10000000000E+04  0.00000000000E+00 0.  1.
    9000005    2    1    2  501    0  0.24384934626E-03 -0.88862131747E-04 -0.89450960665E+03  0.11054902594E+04  0.64958546576E+03 0.  0.
         13    1    3    3    0    0 -0.74406123849E+02  0.29420951889E+03 -0.25029103649E+03  0.39337147230E+03  0.00000000000E+00 0.  1.
          3    1    3    3  501    0  0.74406367698E+02 -0.29420960776E+03 -0.64421857017E+03  0.71211878714E+03  0.00000000000E+00 0.  1.
         21    1    1    2  502  501 -0.24384934626E-03  0.88862131734E-04  0.18455742600E-03  0.31846573696E-03  0.00000000000E+00 0. -1.
<mgrwt>
<rscale>  1 0.64958547E+03</rscale>
<asrwt>0</asrwt>
<pdfrwt beam="1">  1        1 0.38360291E+00 0.64958547E+03</pdfrwt>
<pdfrwt beam="2">0</pdfrwt>
<totfact> 0.15820599E+00</totfact>
</mgrwt>
</event>
<event>
 6    1  0.3721217E-003  0.6309093E+03  0.7818608E-02  0.9843276E-01
          1   -1    0    0  502    0  0.00000000000E+00  0.00000000000E+00  0.99511640674E+02  0.99511640674E+02  0.00000000000E+00 0.  1.
         13   -1    0    0    0    0 -0.00000000000E+00 -0.00000000000E+00 -0.10000000000E+04  0.10000000000E+04  0.00000000000E+00 0.  1.
    9000005    2    1    2  501    0  0.15107460740E-05 -0.88817444066E-06 -0.90048836462E+03  0.10995116351E+04  0.63090929690E+03 0.  0.
         13    1    3    3    0    0  0.28313948736E+03  0.13900339084E+03 -0.45836684594E+03  0.55640819317E+03  0.00000000000E+00 0.  1.
          1    1    3    3  501    0 -0.28313948585E+03 -0.13900339173E+03 -0.44212151868E+03  0.54310344193E+03  0.00000000000E+00 0.  1.
         21    1    1    2  502  501 -0.15107460822E-05  0.88817446322E-06  0.52907258952E-05  0.55734179908E-05  0.00000000000E+00 0. -1.
<mgrwt>
<rscale>  1 0.63090930E+03</rscale>
<asrwt>0</asrwt>
<pdfrwt beam="1">  1        1 0.36186127E+00 0.63090930E+03</pdfrwt>
<pdfrwt beam="2">0</pdfrwt>
<totfact> 0.19784046E+00</totfact>
</mgrwt>
</event>
<event>
 6    1  0.3721217E-003  0.6389590E+03  0.7818608E-02  0.9827720E-01
          1   -1    0    0  502    0  0.00000000000E+00  0.00000000000E+00  0.10206999506E+03  0.10206999506E+03  0.00000000000E+00 0.  1.
         13   -1    0    0    0    0 -0.00000000000E+00 -0.00000000000E+00 -0.10000000000E+04  0.10000000000E+04  0.00000000000E+00 0.  1.
    9000005    2    1    2  501    0 -0.11811440405E-02 -0.47024207952E-02 -0.89793037268E+03  0.11020651326E+04  0.63895899898E+03 0.  0.
         13    1    3    3    0    0 -0.13541531983E+03  0.24660881485E+03 -0.71004360304E+03  0.76375070188E+03  0.00000000000E+00 0.  1.
          3    1    3    3  501    0  0.13541413869E+03 -0.24661351727E+03 -0.18788676964E+03  0.33831443076E+03  0.00000000000E+00 0.  1.
         21    1    1    2  502  501  0.11811440405E-02  0.47024207951E-02  0.36774614496E-03  0.48624170745E-02  0.00000000000E+00 0. -1.
<mgrwt>
<rscale>  1 0.63895900E+03</rscale>
<asrwt>0</asrwt>
<pdfrwt beam="1">  1        1 0.37116440E+00 0.63895900E+03</pdfrwt>
<pdfrwt beam="2">0</pdfrwt>
<totfact> 0.17983896E+00</totfact>
</mgrwt>
</event>
<event>
 6    1  0.3721217E-003  0.6507265E+03  0.7818608E-02  0.9805417E-01
          3   -1    0    0  502    0  0.00000000000E+00  0.00000000000E+00  0.10601466008E+03  0.10601466008E+03  0.00000000000E+00 0.  1.
         13   -1    0    0    0    0 -0.00000000000E+00 -0.00000000000E+00 -0.10000000000E+04  0.10000000000E+04  0.00000000000E+00 0.  1.
    9000005    2    1    2  501    0 -0.29133244354E-01  0.66843809428E-02 -0.89413715927E+03  0.11058599263E+04  0.65072645260E+03 0.  0.
         13    1    3    3    0    0  0.68761635870E+02 -0.30399718973E+03 -0.28841415277E+03  0.42464712109E+03  0.00000000000E+00 0.  1.
          1    1    3    3  501    0 -0.68790769115E+02  0.30400387411E+03 -0.60572300650E+03  0.68121280522E+03  0.00000000000E+00 0.  1.
         21    1    1    2  502  501  0.29133244354E-01 -0.66843809429E-02  0.15181934725E+00  0.15473377484E+00  0.00000000000E+00 0. -1.
<mgrwt>
<rscale>  1 0.65072645E+03</rscale>
<asrwt>0</asrwt>
<pdfrwt beam="1">  1        3 0.38550867E+00 0.65072645E+03</pdfrwt>
<pdfrwt beam="2">0</pdfrwt>
<totfact> 0.70584045E-02</totfact>
</mgrwt>
</event>
<event>
 6    1  0.3721217E-003  0.6519902E+03  0.7818608E-02  0.9803052E-01
          1   -1    0    0  502    0  0.00000000000E+00  0.00000000000E+00  0.10627759271E+03  0.10627759271E+03  0.00000000000E+00 0.  1.
         13   -1    0    0    0    0 -0.00000000000E+00 -0.00000000000E+00 -0.10000000000E+04  0.10000000000E+04  0.00000000000E+00 0.  1.
    9000005    2    1    2  501    0  0.40406621786E-02  0.71362801289E-02 -0.89372292072E+03  0.11062693758E+04  0.65199023982E+03 0.  0.
         13    1    3    3    0    0  0.12801452609E+03 -0.27765132089E+03 -0.63877493371E+03  0.70817468948E+03  0.00000000000E+00 0.  1.
          3    1    3    3  501    0 -0.12801048543E+03  0.27765845717E+03 -0.25494798700E+03  0.39809468635E+03  0.00000000000E+00 0.  1.
         21    1    1    2  502  501 -0.40406621786E-02 -0.71362801289E-02  0.51342374939E-03  0.82168758581E-02  0.00000000000E+00 0. -1.
<mgrwt>
<rscale>  1 0.65199024E+03</rscale>
<asrwt>0</asrwt>
<pdfrwt beam="1">  1        1 0.38646479E+00 0.65199024E+03</pdfrwt>
<pdfrwt beam="2">0</pdfrwt>
<totfact> 0.15359286E+00</totfact>
</mgrwt>
</event>
<event>
 6    1  0.3721217E-003  0.6351361E+03  0.7818608E-02  0.9835077E-01
          1   -1    0    0  502    0  0.00000000000E+00  0.00000000000E+00  0.10090845404E+03  0.10090845404E+03  0.00000000000E+00 0.  1.
         13   -1    0    0    0    0 -0.00000000000E+00 -0.00000000000E+00 -0.10000000000E+04  0.10000000000E+04  0.00000000000E+00 0.  1.
    9000005    2    1    2  501    0  0.62842051108E-04  0.91902201569E-03 -0.89915052517E+03  0.11008494676E+04  0.63513611414E+03 0.  0.
         13    1    3    3    0    0  0.20995797880E+03  0.21179256497E+03 -0.26041127212E+03  0.39591978239E+03  0.00000000000E+00 0.  1.
          1    1    3    3  501    0 -0.20995791596E+03 -0.21179164595E+03 -0.63873925305E+03  0.70492968525E+03  0.00000000000E+00 0.  1.
         21    1    1    2  502  501 -0.62842051104E-04 -0.91902201569E-03  0.58979211886E-01  0.58986405088E-01  0.00000000000E+00 0. -1.
<mgrwt>
<rscale>  1 0.63513611E+03</rscale>
<asrwt>0</asrwt>
<pdfrwt beam="1">  1        1 0.36694061E+00 0.63513611E+03</pdfrwt>
<pdfrwt beam="2">0</pdfrwt>
<totfact> 0.18781421E+00</totfact>
</mgrwt>
</event>
<event>
 6    1  0.3721217E-003  0.6463531E+03  0.7818608E-02  0.9813646E-01
          1   -1    0    0  502    0  0.00000000000E+00  0.00000000000E+00  0.10444330392E+03  0.10444330392E+03  0.00000000000E+00 0.  1.
         13   -1    0    0    0    0 -0.00000000000E+00 -0.00000000000E+00 -0.10000000000E+04  0.10000000000E+04  0.00000000000E+00 0.  1.
    9000005    2    1    2  501    0  0.34992004652E-03  0.10080008232E-03 -0.89555671633E+03  0.11044429392E+04  0.64635313398E+03 0.  0.
         13    1    3    3    0    0  0.29034909804E+03  0.13937813183E+03 -0.40210892731E+03  0.51518972407E+03  0.00000000000E+00 0.  1.
          3    1    3    3  501    0 -0.29034874812E+03 -0.13937803103E+03 -0.49344778902E+03  0.58925321514E+03  0.00000000000E+00 0.  1.
         21    1    1    2  502  501 -0.34992004651E-03 -0.10080008232E-03  0.20254525233E-04  0.36471213489E-03  0.00000000000E+00 0.  1.
<mgrwt>
<rscale>  1 0.64635313E+03</rscale>
<asrwt>0</asrwt>
<pdfrwt beam="1">  1        1 0.37979463E+00 0.64635313E+03</pdfrwt>
<pdfrwt beam="2">0</pdfrwt>
<totfact> 0.16455022E+00</totfact>
</mgrwt>
</event>
<event>
 6    1  0.3721217E-003  0.6491717E+03  0.7818608E-02  0.9808335E-01
          1   -1    0    0  502    0  0.00000000000E+00  0.00000000000E+00  0.10570512567E+03  0.10570512567E+03  0.00000000000E+00 0.  1.
         13   -1    0    0    0    0 -0.00000000000E+00 -0.00000000000E+00 -0.10000000000E+04  0.10000000000E+04  0.00000000000E+00 0.  1.
    9000005    2    1    2  501    0  0.14158997424E-01 -0.39002012359E+00 -0.89451923169E+03  0.11052549564E+04  0.64917155698E+03 0.  0.
         13    1    3    3    0    0 -0.24582308366E+03  0.11333800578E+03 -0.14243429118E+03  0.30587909265E+03  0.00000000000E+00 0.  1.
          3    1    3    3  501    0  0.24583724266E+03 -0.11372802591E+03 -0.75208494051E+03  0.79937586372E+03  0.00000000000E+00 0.  1.
         21    1    1    2  502  501 -0.14158997424E-01  0.39002012359E+00  0.22435735839E+00  0.45016929958E+00  0.00000000000E+00 0.  1.
<mgrwt>
<rscale>  1 0.64917167E+03</rscale>
<asrwt>0</asrwt>
<pdfrwt beam="1">  1        1 0.38438309E+00 0.64917167E+03</pdfrwt>
<pdfrwt beam="2">0</pdfrwt>
<totfact> 0.15696650E+00</totfact>
</mgrwt>
</event>
<event>
 6    1  0.3721217E-003  0.6194375E+03  0.7818608E-02  0.9865880E-01
          1   -1    0    0  502    0  0.00000000000E+00  0.00000000000E+00  0.98935779860E+02  0.98935779860E+02  0.00000000000E+00 0.  1.
         13   -1    0    0    0    0 -0.00000000000E+00 -0.00000000000E+00 -0.10000000000E+04  0.10000000000E+04  0.00000000000E+00 0.  1.
    9000005    2    1    2  501    0  0.42146135826E+00  0.12592931048E+00 -0.90405668569E+03  0.10959111579E+04  0.61943731048E+03 0.  0.
         13    1    3    3    0    0 -0.20012935639E+03  0.10605508658E+03 -0.82530612624E+03  0.85582103426E+03  0.00000000000E+00 0.  1.
          3    1    3    3  501    0  0.20055081775E+03 -0.10592915727E+03 -0.78750559447E+02  0.24009012365E+03  0.00000000000E+00 0.  1.
         21    1    1    2  502  501 -0.42146135826E+00 -0.12592931048E+00  0.29924655465E+01  0.30246219458E+01  0.00000000000E+00 0. -1.
<mgrwt>
<rscale>  1 0.61943747E+03</rscale>
<asrwt>0</asrwt>
<pdfrwt beam="1">  1        1 0.35976723E+00 0.61943747E+03</pdfrwt>
<pdfrwt beam="2">0</pdfrwt>
<totfact> 0.20247923E+00</totfact>
</mgrwt>
</event>
<event>
 6    1  0.3721217E-003  0.6391748E+03  0.7818608E-02  0.9827307E-01
          1   -1    0    0  502    0  0.00000000000E+00  0.00000000000E+00  0.10670871049E+03  0.10670871049E+03  0.00000000000E+00 0.  1.
         13   -1    0    0    0    0 -0.00000000000E+00 -0.00000000000E+00 -0.10000000000E+04  0.10000000000E+04  0.00000000000E+00 0.  1.
    9000005    2    1    2  501    0 -0.16330796952E+01 -0.34062425968E+01 -0.89698845258E+03  0.11014230267E+04  0.63916361780E+03 0.  0.
         13    1    3    3    0    0 -0.12174448022E+03 -0.61027400232E+02  0.50028215372E+02  0.14508233654E+03  0.00000000000E+00 0.  1.
          3    1    3    3  501    0  0.12011140052E+03  0.57621157635E+02 -0.94701666796E+03  0.95634069020E+03  0.00000000000E+00 0.  1.
         21    1    1    2  502  501  0.16330796952E+01  0.34062425968E+01  0.36971630784E+01  0.52856837540E+01  0.00000000000E+00 0.  1.
<mgrwt>
<rscale>  1 0.63917478E+03</rscale>
<asrwt>0</asrwt>
<pdfrwt beam="1">  1        1 0.38803249E+00 0.63917478E+03</pdfrwt>
<pdfrwt beam="2">0</pdfrwt>
<totfact> 0.15151985E+00</totfact>
</mgrwt>
</event>
<event>
 6    1  0.3721217E-003  0.6511557E+03  0.7818608E-02  0.9804613E-01
          1   -1    0    0  502    0  0.00000000000E+00  0.00000000000E+00  0.10751046828E+03  0.10751046828E+03  0.00000000000E+00 0.  1.
         13   -1    0    0    0    0 -0.00000000000E+00 -0.00000000000E+00 -0.10000000000E+04  0.10000000000E+04  0.00000000000E+00 0.  1.
    9000005    2    1    2  501    0 -0.14110050493E+01  0.10187708862E+00 -0.89362350597E+03  0.11056974013E+04  0.65115418417E+03 0.  0.
         13    1    3    3    0    0  0.97725761914E+02  0.22841840105E+03 -0.80340210412E+03  0.84094008786E+03  0.00000000000E+00 0.  1.
          1    1    3    3  501    0 -0.99136766964E+02 -0.22831652396E+03 -0.90221401853E+02  0.26475731346E+03  0.00000000000E+00 0.  1.
         21    1    1    2  502  501  0.14110050493E+01 -0.10187708862E+00  0.11339742463E+01  0.18130669546E+01  0.00000000000E+00 0.  1.
<mgrwt>
<rscale>  1 0.65115572E+03</rscale>
<asrwt>0</asrwt>
<pdfrwt beam="1">  1        1 0.39094798E+00 0.65115572E+03</pdfrwt>
<pdfrwt beam="2">0</pdfrwt>
<totfact> 0.14674773E+00</totfact>
</mgrwt>
</event>
<event>
 6    1  0.3721217E-003  0.6514109E+03  0.7818608E-02  0.9804135E-01
          1   -1    0    0  502    0  0.00000000000E+00  0.00000000000E+00  0.10608432696E+03  0.10608432696E+03  0.00000000000E+00 0.  1.
         13   -1    0    0    0    0 -0.00000000000E+00 -0.00000000000E+00 -0.10000000000E+04  0.10000000000E+04  0.00000000000E+00 0.  1.
    9000005    2    1    2  501    0  0.26967171323E-05 -0.19637532148E-04 -0.89391594827E+03  0.11060840510E+04  0.65141093432E+03 0.  0.
         13    1    3    3    0    0  0.14063226215E+03 -0.28905285033E+03 -0.53608302251E+03  0.62507118832E+03  0.00000000000E+00 0.  1.
          1    1    3    3  501    0 -0.14063225946E+03  0.28905283069E+03 -0.35783292576E+03  0.48101286270E+03  0.00000000000E+00 0.  1.
         21    1    1    2  502  501 -0.26967171313E-05  0.19637532130E-04  0.27522286340E-03  0.27593573435E-03  0.00000000000E+00 0. -1.
<mgrwt>
<rscale>  1 0.65141093E+03</rscale>
<asrwt>0</asrwt>
<pdfrwt beam="1">  1        1 0.38576200E+00 0.65141093E+03</pdfrwt>
<pdfrwt beam="2">0</pdfrwt>
<totfact> 0.15471339E+00</totfact>
</mgrwt>
</event>
<event>
 6    1  0.3721217E-003  0.6203638E+03  0.7818608E-02  0.9864036E-01
          1   -1    0    0  502    0  0.00000000000E+00  0.00000000000E+00  0.10799998033E+03  0.10799998033E+03  0.00000000000E+00 0.  1.
         13   -1    0    0    0    0 -0.00000000000E+00 -0.00000000000E+00 -0.10000000000E+04  0.10000000000E+04  0.00000000000E+00 0.  1.
    9000005    2    1    2  501    0 -0.26110581163E+00  0.36529742480E+00 -0.90378249780E+03  0.10962089494E+04  0.62036364811E+03 0.  0.
         13    1    3    3    0    0  0.15223042908E+03 -0.47561407471E+02  0.18154769218E+02  0.16051724724E+03  0.00000000000E+00 0.  1.
          1    1    3    3  501    0 -0.15249153489E+03  0.47926704896E+02 -0.92193726702E+03  0.93569170220E+03  0.00000000000E+00 0.  1.
         21    1    1    2  502  501  0.26110581163E+00 -0.36529742480E+00  0.11782478128E+02  0.11791030883E+02  0.00000000000E+00 0. -1.
<mgrwt>
<rscale>  1 0.62036381E+03</rscale>
<asrwt>0</asrwt>
<pdfrwt beam="1">  1        1 0.39272803E+00 0.62036381E+03</pdfrwt>
<pdfrwt beam="2">0</pdfrwt>
<totfact> 0.14495382E+00</totfact>
</mgrwt>
</event>
<event>
 6    1  0.3721217E-003  0.6341808E+03  0.7818608E-02  0.9836924E-01
          1   -1    0    0  502    0  0.00000000000E+00  0.00000000000E+00  0.10054644857E+03  0.10054644857E+03  0.00000000000E+00 0.  1.
         13   -1    0    0    0    0 -0.00000000000E+00 -0.00000000000E+00 -0.10000000000E+04  0.10000000000E+04  0.00000000000E+00 0.  1.
    9000005    2    1    2  501    0  0.10138352849E-04 -0.64176940668E-05 -0.89945367560E+03  0.11005463238E+04  0.63418080727E+03 0.  0.
         13    1    3    3    0    0 -0.13739756509E+03 -0.51108958953E+02  0.38209256678E+02  0.15149311494E+03  0.00000000000E+00 0.  1.
          3    1    3    3  501    0  0.13739757523E+03  0.51108952535E+02 -0.93766293228E+03  0.94905320888E+03  0.00000000000E+00 0.  1.
         21    1    1    2  502  501 -0.10138352860E-04  0.64176940670E-05  0.12417500039E-03  0.12475337157E-03  0.00000000000E+00 0. -1.
<mgrwt>
<rscale>  1 0.63418081E+03</rscale>
<asrwt>0</asrwt>
<pdfrwt beam="1">  1        1 0.36562422E+00 0.63418081E+03</pdfrwt>
<pdfrwt beam="2">0</pdfrwt>
<totfact> 0.19036004E+00</totfact>
</mgrwt>
</event>
<event>
 6    1  0.3721217E-003  0.6543325E+03  0.7818608E-02  0.9798683E-01
          1   -1    0    0  502    0  0.00000000000E+00  0.00000000000E+00  0.11284947965E+03  0.11284947965E+03  0.00000000000E+00 0.  1.
         13   -1    0    0    0    0 -0.00000000000E+00 -0.00000000000E+00 -0.10000000000E+04  0.10000000000E+04  0.00000000000E+00 0.  1.
    9000005    2    1    2  501    0 -0.37876375753E+01  0.45859464178E+01 -0.89122715274E+03  0.11056386521E+04  0.65430544400E+03 0.  0.
         13    1    3    3    0    0  0.20151839065E+03 -0.25350531168E+03 -0.41602936439E+03  0.52721441261E+03  0.00000000000E+00 0.  1.
          1    1    3    3  501    0 -0.20530602823E+03  0.25809125810E+03 -0.47519778835E+03  0.57842423945E+03  0.00000000000E+00 0.  1.
         21    1    1    2  502  501  0.37876375753E+01 -0.45859464178E+01  0.40766323847E+01  0.72108275911E+01  0.00000000000E+00 0. -1.
<mgrwt>
<rscale>  1 0.65433248E+03</rscale>
<asrwt>0</asrwt>
<pdfrwt beam="1">  1        1 0.41036261E+00 0.65433248E+03</pdfrwt>
<pdfrwt beam="2">0</pdfrwt>
<totfact> 0.12015109E+00</totfact>
</mgrwt>
</event>
<event>
 6    1  0.3721217E-003  0.6321877E+03  0.7818608E-02  0.9840789E-01
          1   -1    0    0  502    0  0.00000000000E+00  0.00000000000E+00  0.99915321087E+02  0.99915321087E+02  0.00000000000E+00 0.  1.
         13   -1    0    0    0    0 -0.00000000000E+00 -0.00000000000E+00 -0.10000000000E+04  0.10000000000E+04  0.00000000000E+00 0.  1.
    9000005    2    1    2  501    0 -0.98629896446E-05 -0.62603135120E-06 -0.90008468681E+03  0.10999153084E+04  0.63218766383E+03 0.  0.
         13    1    3    3    0    0  0.14261965743E+02  0.31423755506E+03 -0.39594806169E+03  0.50569112335E+03  0.00000000000E+00 0.  1.
          3    1    3    3  501    0 -0.14261975606E+02 -0.31423755569E+03 -0.50413662512E+03  0.59422418509E+03  0.00000000000E+00 0.  1.
         21    1    1    2  502  501  0.98629896445E-05  0.62603137739E-06  0.78976420616E-05  0.12650819347E-04  0.00000000000E+00 0.  1.
<mgrwt>
<rscale>  1 0.63218766E+03</rscale>
<asrwt>0</asrwt>
<pdfrwt beam="1">  1        1 0.36332921E+00 0.63218766E+03</pdfrwt>
<pdfrwt beam="2">0</pdfrwt>
<totfact> 0.19488933E+00</totfact>
</mgrwt>
</event>
<event>
 6    1  0.3721217E-003  0.5917545E+03  0.7818608E-02  0.9922662E-01
          1   -1    0    0  502    0  0.00000000000E+00  0.00000000000E+00  0.87556582383E+02  0.87556582383E+02  0.00000000000E+00 0.  1.
         13   -1    0    0    0    0 -0.00000000000E+00 -0.00000000000E+00 -0.10000000000E+04  0.10000000000E+04  0.00000000000E+00 0.  1.
    9000005    2    1    2  501    0 -0.43674910076E-03  0.11241132751E-03 -0.91245665681E+03  0.10875433355E+04  0.59175447279E+03 0.  0.
         13    1    3    3    0    0 -0.11446951272E+03 -0.16418815629E+03 -0.85669946118E+03  0.87976984876E+03  0.00000000000E+00 0.  1.
          1    1    3    3  501    0  0.11446907597E+03  0.16418826870E+03 -0.55757195633E+02  0.20777348675E+03  0.00000000000E+00 0.  1.
         21    1    1    2  502  501  0.43674910076E-03 -0.11241132753E-03  0.13239191539E-01  0.13246870525E-01  0.00000000000E+00 0. -1.
<mgrwt>
<rscale>  1 0.59175447E+03</rscale>
<asrwt>0</asrwt>
<pdfrwt beam="1">  1        1 0.31838824E+00 0.59175447E+03</pdfrwt>
<pdfrwt beam="2">0</pdfrwt>
<totfact> 0.30778869E+00</totfact>
</mgrwt>
</event>
<event>
 6    1  0.3721217E-003  0.6653660E+03  0.7818608E-02  0.9778366E-01
          1   -1    0    0  502    0  0.00000000000E+00  0.00000000000E+00  0.12530827179E+03  0.12530827179E+03  0.00000000000E+00 0.  1.
         13   -1    0    0    0    0 -0.00000000000E+00 -0.00000000000E+00 -0.10000000000E+04  0.10000000000E+04  0.00000000000E+00 0.  1.
    9000005    2    1    2  501    0 -0.29201959829E+01 -0.33347010275E+01 -0.88894817206E+03  0.11103786379E+04  0.66535119990E+03 0.  0.
         13    1    3    3    0    0  0.31895623496E+02 -0.34239878554E+02 -0.99419484521E+03  0.99529547891E+03  0.00000000000E+00 0.  1.
          1    1    3    3  501    0 -0.34815819479E+02  0.30905177527E+02  0.10524667315E+03  0.11508315904E+03  0.00000000000E+00 0.  1.
         21    1    1    2  502  501  0.29201959829E+01  0.33347010275E+01  0.14256443857E+02  0.14929633853E+02  0.00000000000E+00 0. -1.
<mgrwt>
<rscale>  1 0.66536596E+03</rscale>
<asrwt>0</asrwt>
<pdfrwt beam="1">  1        1 0.45566740E+00 0.66536596E+03</pdfrwt>
<pdfrwt beam="2">0</pdfrwt>
<totfact> 0.74564956E-01</totfact>
</mgrwt>
</event>
<event>
 6    1  0.3721217E-003  0.6496838E+03  0.7818608E-02  0.9807373E-01
          1   -1    0    0  502    0  0.00000000000E+00  0.00000000000E+00  0.11505548060E+03  0.11505548060E+03  0.00000000000E+00 0.  1.
         13   -1    0    0    0    0 -0.00000000000E+00 -0.00000000000E+00 -0.10000000000E+04  0.10000000000E+04  0.00000000000E+00 0.  1.
    9000005    2    1    2  501    0 -0.26392646392E+01 -0.20053813686E+02 -0.88067249782E+03  0.10943825193E+04  0.64936886970E+03 0.  0.
         13    1    3    3    0    0 -0.11379433052E+03  0.11269440009E+03 -0.90542662900E+03  0.91948167897E+03  0.00000000000E+00 0.  1.
          3    1    3    3  501    0  0.11115506588E+03 -0.13274821377E+03  0.24754131178E+02  0.17490084031E+03  0.00000000000E+00 0.  1.
         21    1    1    2  502  501  0.26392646392E+01  0.20053813686E+02 -0.42720215790E+01  0.20672961316E+02  0.00000000000E+00 0. -1.
<mgrwt>
<rscale>  1 0.64968381E+03</rscale>
<asrwt>0</asrwt>
<pdfrwt beam="1">  1        1 0.41838445E+00 0.64968381E+03</pdfrwt>
<pdfrwt beam="2">0</pdfrwt>
<totfact> 0.11067914E+00</totfact>
</mgrwt>
</event>
<event>
 6    1  0.3721217E-003  0.6463389E+03  0.7818608E-02  0.9813673E-01
          1   -1    0    0  502    0  0.00000000000E+00  0.00000000000E+00  0.10443896008E+03  0.10443896008E+03  0.00000000000E+00 0.  1.
         13   -1    0    0    0    0 -0.00000000000E+00 -0.00000000000E+00 -0.10000000000E+04  0.10000000000E+04  0.00000000000E+00 0.  1.
    9000005    2    1    2  501    0  0.39321742520E-04  0.23849316108E-04 -0.89556149009E+03  0.11044385076E+04  0.64633894704E+03 0.  0.
         13    1    3    3    0    0  0.16712101071E+03 -0.22625098389E+03 -0.17588064229E+03  0.33174227989E+03  0.00000000000E+00 0.  1.
          3    1    3    3  501    0 -0.16712097139E+03  0.22625100774E+03 -0.71968084780E+03  0.77269622768E+03  0.00000000000E+00 0.  1.
         21    1    1    2  502  501 -0.39321742524E-04 -0.23849316092E-04  0.45017636005E-03  0.45251933049E-03  0.00000000000E+00 0. -1.
<mgrwt>
<rscale>  1 0.64633895E+03</rscale>
<asrwt>0</asrwt>
<pdfrwt beam="1">  1        1 0.37977884E+00 0.64633895E+03</pdfrwt>
<pdfrwt beam="2">0</pdfrwt>
<totfact> 0.16457705E+00</totfact>
</mgrwt>
</event>
<event>
 6    1  0.3721217E-003  0.6478885E+03  0.7818608E-02  0.9810749E-01
          1   -1    0    0  502    0  0.00000000000E+00  0.00000000000E+00  0.10513194607E+03  0.10513194607E+03  0.00000000000E+00 0.  1.
         13   -1    0    0    0    0 -0.00000000000E+00 -0.00000000000E+00 -0.10000000000E+04  0.10000000000E+04  0.00000000000E+00 0.  1.
    9000005    2    1    2  501    0 -0.28797417209E-02  0.13878720058E-02 -0.89506011045E+03  0.11049398630E+04  0.64788849304E+03 0.  0.
         13    1    3    3    0    0 -0.26433424146E+02 -0.31778164890E+03 -0.54483858972E+03  0.63129469437E+03  0.00000000000E+00 0.  1.
          1    1    3    3  501    0  0.26430544404E+02  0.31778303677E+03 -0.35022152073E+03  0.47364516858E+03  0.00000000000E+00 0.  1.
         21    1    1    2  502  501  0.28797417209E-02 -0.13878720057E-02  0.19205651752E+00  0.19208312009E+00  0.00000000000E+00 0. -1.
<mgrwt>
<rscale>  1 0.64788849E+03</rscale>
<asrwt>0</asrwt>
<pdfrwt beam="1">  1        1 0.38229879E+00 0.64788849E+03</pdfrwt>
<pdfrwt beam="2">0</pdfrwt>
<totfact> 0.16036929E+00</totfact>
</mgrwt>
</event>
<event>
 6    1  0.3721217E-003  0.6670989E+03  0.7818608E-02  0.9775213E-01
          1   -1    0    0  502    0  0.00000000000E+00  0.00000000000E+00  0.11125545552E+03  0.11125545552E+03  0.00000000000E+00 0.  1.
         13   -1    0    0    0    0 -0.00000000000E+00 -0.00000000000E+00 -0.10000000000E+04  0.10000000000E+04  0.00000000000E+00 0.  1.
    9000005    2    1    2  501    0 -0.23558176417E-03  0.47553457783E-04 -0.88874469170E+03  0.11112551737E+04  0.66709889373E+03 0.  0.
         13    1    3    3    0    0  0.26927425760E+03  0.52248549653E+02 -0.76050909306E+03  0.80846312060E+03  0.00000000000E+00 0.  1.
          3    1    3    3  501    0 -0.26927449318E+03 -0.52248502099E+02 -0.12823559864E+03  0.30279205308E+03  0.00000000000E+00 0.  1.
         21    1    1    2  502  501  0.23558176420E-03 -0.47553457780E-04  0.14722086395E-03  0.28184052539E-03  0.00000000000E+00 0.  1.
<mgrwt>
<rscale>  1 0.66709889E+03</rscale>
<asrwt>0</asrwt>
<pdfrwt beam="1">  1        1 0.40456615E+00 0.66709889E+03</pdfrwt>
<pdfrwt beam="2">0</pdfrwt>
<totfact> 0.12724101E+00</totfact>
</mgrwt>
</event>
<event>
 6    1  0.3721217E-003  0.6517068E+03  0.7818608E-02  0.9803582E-01
          3   -1    0    0  502    0  0.00000000000E+00  0.00000000000E+00  0.10618305389E+03  0.10618305389E+03  0.00000000000E+00 0.  1.
         13   -1    0    0    0    0 -0.00000000000E+00 -0.00000000000E+00 -0.10000000000E+04  0.10000000000E+04  0.00000000000E+00 0.  1.
    9000005    2    1    2  501    0 -0.28992638917E-03  0.23709722331E-03 -0.89381956106E+03  0.11061804123E+04  0.65170675669E+03 0.  0.
         13    1    3    3    0    0 -0.17341069864E+03  0.12179226756E+03 -0.26746268908E+02  0.21358836518E+03  0.00000000000E+00 0.  1.
          3    1    3    3  501    0  0.17341040871E+03 -0.12179203046E+03 -0.86707329215E+03  0.89259204707E+03  0.00000000000E+00 0.  1.
         21    1    1    2  502  501  0.28992638918E-03 -0.23709722330E-03  0.26149514484E-02  0.26416365158E-02  0.00000000000E+00 0. -1.
<mgrwt>
<rscale>  1 0.65170676E+03</rscale>
<asrwt>0</asrwt>
<pdfrwt beam="1">  1        3 0.38612101E+00 0.65170676E+03</pdfrwt>
<pdfrwt beam="2">0</pdfrwt>
<totfact> 0.70050027E-02</totfact>
</mgrwt>
</event>
<event>
 6    1  0.3721217E-003  0.6498131E+03  0.7818608E-02  0.9807130E-01
          3   -1    0    0  502    0  0.00000000000E+00  0.00000000000E+00  0.10581584627E+03  0.10581584627E+03  0.00000000000E+00 0.  1.
         13   -1    0    0    0    0 -0.00000000000E+00 -0.00000000000E+00 -0.10000000000E+04  0.10000000000E+04  0.00000000000E+00 0.  1.
    9000005    2    1    2  501    0 -0.63042981224E-01 -0.12632060677E+00 -0.89441365513E+03  0.11055463983E+04  0.64981307495E+03 0.  0.
         13    1    3    3    0    0  0.18009805973E+03  0.10472704638E+03 -0.87124888574E+03  0.89581118896E+03  0.00000000000E+00 0.  1.
          1    1    3    3  501    0 -0.18016110271E+03 -0.10485336699E+03 -0.23164769398E+02  0.20973520935E+03  0.00000000000E+00 0.  1.
         21    1    1    2  502  501  0.63042981224E-01  0.12632060677E+00  0.22950140357E+00  0.26944796792E+00  0.00000000000E+00 0.  1.
<mgrwt>
<rscale>  1 0.64981309E+03</rscale>
<asrwt>0</asrwt>
<pdfrwt beam="1">  1        3 0.38478571E+00 0.64981309E+03</pdfrwt>
<pdfrwt beam="2">0</pdfrwt>
<totfact> 0.71217034E-02</totfact>
</mgrwt>
</event>
<event>
 6    1  0.3721217E-003  0.6857785E+03  0.7818608E-02  0.9741867E-01
          1   -1    0    0  502    0  0.00000000000E+00  0.00000000000E+00  0.11787562911E+03  0.11787562911E+03  0.00000000000E+00 0.  1.
         13   -1    0    0    0    0 -0.00000000000E+00 -0.00000000000E+00 -0.10000000000E+04  0.10000000000E+04  0.00000000000E+00 0.  1.
    9000005    2    1    2  501    0  0.30334840170E+00  0.39435889833E+00 -0.88217660151E+03  0.11173753619E+04  0.68577831381E+03 0.  0.
         13    1    3    3    0    0  0.29024971569E+03 -0.10393786819E+03 -0.19638265004E+03  0.36553265673E+03  0.00000000000E+00 0.  1.
          1    1    3    3  501    0 -0.28994636729E+03  0.10433222709E+03 -0.68579395147E+03  0.75184270522E+03  0.00000000000E+00 0.  1.
         21    1    1    2  502  501 -0.30334840170E+00 -0.39435889833E+00  0.52230617786E-01  0.50026715956E+00  0.00000000000E+00 0.  1.
<mgrwt>
<rscale>  1 0.68577849E+03</rscale>
<asrwt>0</asrwt>
<pdfrwt beam="1">  1        1 0.42863956E+00 0.68577849E+03</pdfrwt>
<pdfrwt beam="2">0</pdfrwt>
<totfact> 0.98772358E-01</totfact>
</mgrwt>
</event>
<event>
 6    1  0.3721217E-003  0.6475493E+03  0.7818608E-02  0.9811389E-01
          1   -1    0    0  502    0  0.00000000000E+00  0.00000000000E+00  0.10786462635E+03  0.10786462635E+03  0.00000000000E+00 0.  1.
         13   -1    0    0    0    0 -0.00000000000E+00 -0.00000000000E+00 -0.10000000000E+04  0.10000000000E+04  0.00000000000E+00 0.  1.
    9000005    2    1    2  501    0 -0.10940597861E+00  0.73243676678E+00 -0.89511999594E+03  0.11047894998E+04  0.64754882690E+03 0.  0.
         13    1    3    3    0    0 -0.21156510702E+03  0.24509150240E+03 -0.47229152731E+03  0.57261586236E+03  0.00000000000E+00 0.  1.
          1    1    3    3  501    0  0.21145570104E+03 -0.24435906564E+03 -0.42282846864E+03  0.53217363741E+03  0.00000000000E+00 0.  1.
         21    1    1    2  502  501  0.10940597861E+00 -0.73243676678E+00  0.29846222930E+01  0.30751265856E+01  0.00000000000E+00 0.  1.
<mgrwt>
<rscale>  1 0.64754925E+03</rscale>
<asrwt>0</asrwt>
<pdfrwt beam="1">  1        1 0.39223583E+00 0.64754925E+03</pdfrwt>
<pdfrwt beam="2">0</pdfrwt>
<totfact> 0.14492725E+00</totfact>
</mgrwt>
</event>
<event>
 6    1  0.3721217E-003  0.6381388E+03  0.7818608E-02  0.9829294E-01
          1   -1    0    0  502    0  0.00000000000E+00  0.00000000000E+00  0.10180780044E+03  0.10180780044E+03  0.00000000000E+00 0.  1.
         13   -1    0    0    0    0 -0.00000000000E+00 -0.00000000000E+00 -0.10000000000E+04  0.10000000000E+04  0.00000000000E+00 0.  1.
    9000005    2    1    2  501    0  0.15755338673E-03 -0.95952665959E-04 -0.89819469954E+03  0.11018052937E+04  0.63813884608E+03 0.  0.
         13    1    3    3    0    0  0.89566863084E+02  0.30610495487E+03 -0.43338484694E+03  0.53809375755E+03  0.00000000000E+00 0.  1.
          1    1    3    3  501    0 -0.89566705531E+02 -0.30610505082E+03 -0.46480985259E+03  0.56371153611E+03  0.00000000000E+00 0.  1.
         21    1    1    2  502  501 -0.15755338672E-03  0.95952666000E-04  0.24999763398E-02  0.25067731615E-02  0.00000000000E+00 0. -1.
<mgrwt>
<rscale>  1 0.63813885E+03</rscale>
<asrwt>0</asrwt>
<pdfrwt beam="1">  1        1 0.37021096E+00 0.63813885E+03</pdfrwt>
<pdfrwt beam="2">0</pdfrwt>
<totfact> 0.18160898E+00</totfact>
</mgrwt>
</event>
<event>
 6    1  0.3721217E-003  0.6475991E+03  0.7818608E-02  0.9811295E-01
          1   -1    0    0  502    0  0.00000000000E+00  0.00000000000E+00  0.10488038701E+03  0.10488038701E+03  0.00000000000E+00 0.  1.
         13   -1    0    0    0    0 -0.00000000000E+00 -0.00000000000E+00 -0.10000000000E+04  0.10000000000E+04  0.00000000000E+00 0.  1.
    9000005    2    1    2  501    0 -0.45101463637E-02  0.33516487548E-04 -0.89515369935E+03  0.11048460036E+04  0.64759906276E+03 0.  0.
         13    1    3    3    0    0  0.29434408678E+03 -0.13171828109E+03 -0.39763968358E+03  0.51196236674E+03  0.00000000000E+00 0.  1.
          3    1    3    3  501    0 -0.29434859693E+03  0.13171831460E+03 -0.49751401577E+03  0.59288363681E+03  0.00000000000E+00 0.  1.
         21    1    1    2  502  501  0.45101463638E-02 -0.33516487535E-04  0.34086359659E-01  0.34383461989E-01  0.00000000000E+00 0. -1.
<mgrwt>
<rscale>  1 0.64759906E+03</rscale>
<asrwt>0</asrwt>
<pdfrwt beam="1">  1        1 0.38138403E+00 0.64759906E+03</pdfrwt>
<pdfrwt beam="2">0</pdfrwt>
<totfact> 0.16187662E+00</totfact>
</mgrwt>
</event>
<event>
 6    1  0.3721217E-003  0.6491419E+03  0.7818608E-02  0.9808391E-01
          1   -1    0    0  502    0  0.00000000000E+00  0.00000000000E+00  0.10534638522E+03  0.10534638522E+03  0.00000000000E+00 0.  1.
         13   -1    0    0    0    0 -0.00000000000E+00 -0.00000000000E+00 -0.10000000000E+04  0.10000000000E+04  0.00000000000E+00 0.  1.
    9000005    2    1    2  501    0 -0.10284571829E-04  0.88602259396E-06 -0.89465368731E+03  0.11053463120E+04  0.64914193298E+03 0.  0.
         13    1    3    3    0    0 -0.31405833197E+03 -0.20389270102E+02 -0.58245896033E+03  0.66204742933E+03  0.00000000000E+00 0.  1.
          3    1    3    3  501    0  0.31405832168E+03  0.20389270988E+02 -0.31219472698E+03  0.44329888263E+03  0.00000000000E+00 0.  1.
         21    1    1    2  502  501  0.10284571843E-04 -0.88602259510E-06  0.72525100552E-04  0.73256041826E-04  0.00000000000E+00 0.  1.
<mgrwt>
<rscale>  1 0.64914193E+03</rscale>
<asrwt>0</asrwt>
<pdfrwt beam="1">  1        1 0.38307857E+00 0.64914193E+03</pdfrwt>
<pdfrwt beam="2">0</pdfrwt>
<totfact> 0.15906542E+00</totfact>
</mgrwt>
</event>
<event>
 6    1  0.3721217E-003  0.6510104E+03  0.7818608E-02  0.9804885E-01
          1   -1    0    0  502    0  0.00000000000E+00  0.00000000000E+00  0.10595372353E+03  0.10595372353E+03  0.00000000000E+00 0.  1.
         13   -1    0    0    0    0 -0.00000000000E+00 -0.00000000000E+00 -0.10000000000E+04  0.10000000000E+04  0.00000000000E+00 0.  1.
    9000005    2    1    2  501    0  0.99430731581E-04  0.41786304905E-05 -0.89404633440E+03  0.11059536084E+04  0.65101039610E+03 0.  0.
         13    1    3    3    0    0  0.23166704155E+03  0.20769173516E+03 -0.28453704665E+03  0.42162401012E+03  0.00000000000E+00 0.  1.
          1    1    3    3  501    0 -0.23166694212E+03 -0.20769173098E+03 -0.60950928776E+03  0.68432959826E+03  0.00000000000E+00 0.  1.
         21    1    1    2  502  501 -0.99430731574E-04 -0.41786305118E-05  0.57931786355E-04  0.11515217412E-03  0.00000000000E+00 0. -1.
<mgrwt>
<rscale>  1 0.65101040E+03</rscale>
<asrwt>0</asrwt>
<pdfrwt beam="1">  1        1 0.38528708E+00 0.65101040E+03</pdfrwt>
<pdfrwt beam="2">0</pdfrwt>
<totfact> 0.15547526E+00</totfact>
</mgrwt>
</event>
<event>
 6    1  0.3721217E-003  0.6017917E+03  0.7818608E-02  0.9901696E-01
          1   -1    0    0  502    0  0.00000000000E+00  0.00000000000E+00  0.90538424158E+02  0.90538424158E+02  0.00000000000E+00 0.  1.
         13   -1    0    0    0    0 -0.00000000000E+00 -0.00000000000E+00 -0.10000000000E+04  0.10000000000E+04  0.00000000000E+00 0.  1.
    9000005    2    1    2  501    0 -0.15522576575E-05 -0.88955784321E-05 -0.90946168014E+03  0.10905383195E+04  0.60179172361E+03 0.  0.
         13    1    3    3    0    0  0.17003901205E+03  0.10544567668E+03 -0.86198668940E+03  0.88490288114E+03  0.00000000000E+00 0.  1.
          1    1    3    3  501    0 -0.17003901360E+03 -0.10544568557E+03 -0.47474990734E+02  0.20563543833E+03  0.00000000000E+00 0.  1.
         21    1    1    2  502  501  0.15522576571E-05  0.88955784410E-05  0.10429491793E-03  0.10468510269E-03  0.00000000000E+00 0. -1.
<mgrwt>
<rscale>  1 0.60179172E+03</rscale>
<asrwt>0</asrwt>
<pdfrwt beam="1">  1        1 0.32923133E+00 0.60179172E+03</pdfrwt>
<pdfrwt beam="2">0</pdfrwt>
<totfact> 0.27578401E+00</totfact>
</mgrwt>
</event>
<event>
 6    1  0.3721217E-003  0.6568379E+03  0.7818608E-02  0.9794032E-01
          1   -1    0    0  502    0  0.00000000000E+00  0.00000000000E+00  0.10789300523E+03  0.10789300523E+03  0.00000000000E+00 0.  1.
         13   -1    0    0    0    0 -0.00000000000E+00 -0.00000000000E+00 -0.10000000000E+04  0.10000000000E+04  0.00000000000E+00 0.  1.
    9000005    2    1    2  501    0 -0.44656144704E-01 -0.79553929002E-02 -0.89212333328E+03  0.11078447931E+04  0.65683791139E+03 0.  0.
         13    1    3    3    0    0 -0.18154928683E+03 -0.21175191057E+03 -0.73855498170E+03  0.78946974367E+03  0.00000000000E+00 0.  1.
          3    1    3    3  501    0  0.18150463069E+03  0.21174395517E+03 -0.15356835158E+03  0.31837504946E+03  0.00000000000E+00 0.  1.
         21    1    1    2  502  501  0.44656144704E-01  0.79553929002E-02  0.16338502355E-01  0.48212095943E-01  0.00000000000E+00 0. -1.
<mgrwt>
<rscale>  1 0.65683791E+03</rscale>
<asrwt>0</asrwt>
<pdfrwt beam="1">  1        1 0.39233903E+00 0.65683791E+03</pdfrwt>
<pdfrwt beam="2">0</pdfrwt>
<totfact> 0.14452332E+00</totfact>
</mgrwt>
</event>
<event>
 6    1  0.3721217E-003  0.6112485E+03  0.7818608E-02  0.9882340E-01
          1   -1    0    0  502    0  0.00000000000E+00  0.00000000000E+00  0.93411389575E+02  0.93411389575E+02  0.00000000000E+00 0.  1.
         13   -1    0    0    0    0 -0.00000000000E+00 -0.00000000000E+00 -0.10000000000E+04  0.10000000000E+04  0.00000000000E+00 0.  1.
    9000005    2    1    2  501    0  0.55410812149E-03  0.97499068434E-03 -0.90659374806E+03  0.10934061310E+04  0.61124851183E+03 0.  0.
         13    1    3    3    0    0  0.22580689239E+03  0.19089659046E+03 -0.31501183612E+03  0.43204480994E+03  0.00000000000E+00 0.  1.
          1    1    3    3  501    0 -0.22580633829E+03 -0.19089561547E+03 -0.59158191194E+03  0.66136132103E+03  0.00000000000E+00 0.  1.
         21    1    1    2  502  501 -0.55410812149E-03 -0.97499068436E-03  0.51376356238E-02  0.52586065120E-02  0.00000000000E+00 0.  1.
<mgrwt>
<rscale>  1 0.61124851E+03</rscale>
<asrwt>0</asrwt>
<pdfrwt beam="1">  1        1 0.33967850E+00 0.61124851E+03</pdfrwt>
<pdfrwt beam="2">0</pdfrwt>
<totfact> 0.24804851E+00</totfact>
</mgrwt>
</event>
<event>
 6    1  0.3721217E-003  0.6551240E+03  0.7818608E-02  0.9797212E-01
          1   -1    0    0  502    0  0.00000000000E+00  0.00000000000E+00  0.10729687788E+03  0.10729687788E+03  0.00000000000E+00 0.  1.
         13   -1    0    0    0    0 -0.00000000000E+00 -0.00000000000E+00 -0.10000000000E+04  0.10000000000E+04  0.00000000000E+00 0.  1.
    9000005    2    1    2  501    0 -0.31824199738E-05 -0.17276659037E-05 -0.89270313035E+03  0.11072968689E+04  0.65512401645E+03 0.  0.
         13    1    3    3    0    0 -0.69806681098E+02  0.90162404888E+02  0.72668380956E+02  0.13521436895E+03  0.00000000000E+00 0.  1.
          3    1    3    3  501    0  0.69806677916E+02 -0.90162406616E+02 -0.96537151130E+03  0.97208249994E+03  0.00000000000E+00 0.  1.
         21    1    1    2  502  501  0.31824199717E-05  0.17276659089E-05  0.82283921643E-05  0.89899423791E-05  0.00000000000E+00 0.  1.
<mgrwt>
<rscale>  1 0.65512402E+03</rscale>
<asrwt>0</asrwt>
<pdfrwt beam="1">  1        1 0.39017129E+00 0.65512402E+03</pdfrwt>
<pdfrwt beam="2">0</pdfrwt>
<totfact> 0.14780735E+00</totfact>
</mgrwt>
</event>
<event>
 6    1  0.3721217E-003  0.6519557E+03  0.7818608E-02  0.9803116E-01
          1   -1    0    0  502    0  0.00000000000E+00  0.00000000000E+00  0.10626445817E+03  0.10626445817E+03  0.00000000000E+00 0.  1.
         13   -1    0    0    0    0 -0.00000000000E+00 -0.00000000000E+00 -0.10000000000E+04  0.10000000000E+04  0.00000000000E+00 0.  1.
    9000005    2    1    2  501    0  0.67095054060E-02 -0.53226147737E-02 -0.89371900948E+03  0.11062458392E+04  0.65195566473E+03 0.  0.
         13    1    3    3    0    0  0.30177518629E+03  0.14571663421E+02 -0.23916598953E+03  0.38533228126E+03  0.00000000000E+00 0.  1.
          3    1    3    3  501    0 -0.30176847678E+03 -0.14576986036E+02 -0.65455301994E+03  0.72091355794E+03  0.00000000000E+00 0.  1.
         21    1    1    2  502  501 -0.67095054061E-02  0.53226147737E-02 -0.16532345842E-01  0.18618972847E-01  0.00000000000E+00 0.  1.
<mgrwt>
<rscale>  1 0.65195566E+03</rscale>
<asrwt>0</asrwt>
<pdfrwt beam="1">  1        1 0.38641703E+00 0.65195566E+03</pdfrwt>
<pdfrwt beam="2">0</pdfrwt>
<totfact> 0.15366863E+00</totfact>
</mgrwt>
</event>
<event>
 6    1  0.3721217E-003  0.6474544E+03  0.7818608E-02  0.9811568E-01
          1   -1    0    0  502    0  0.00000000000E+00  0.00000000000E+00  0.10479935034E+03  0.10479935034E+03  0.00000000000E+00 0.  1.
         13   -1    0    0    0    0 -0.00000000000E+00 -0.00000000000E+00 -0.10000000000E+04  0.10000000000E+04  0.00000000000E+00 0.  1.
    9000005    2    1    2  501    0  0.24081762464E-04  0.31406439689E-05 -0.89520069681E+03  0.11047992973E+04  0.64745439976E+03 0.  0.
         13    1    3    3    0    0  0.78927285184E+00 -0.19893615039E+03 -0.88338794797E+03  0.90551117139E+03  0.00000000000E+00 0.  1.
          1    1    3    3  501    0 -0.78924877008E+00  0.19893615354E+03 -0.11812748832E+02  0.19928812592E+03  0.00000000000E+00 0.  1.
         21    1    1    2  502  501 -0.24081762464E-04 -0.31406439602E-05  0.47145520508E-04  0.53032961748E-04  0.00000000000E+00 0.  1.
<mgrwt>
<rscale>  1 0.64745440E+03</rscale>
<asrwt>0</asrwt>
<pdfrwt beam="1">  1        1 0.38108935E+00 0.64745440E+03</pdfrwt>
<pdfrwt beam="2">0</pdfrwt>
<totfact> 0.16236659E+00</totfact>
</mgrwt>
</event>
<event>
 6    1  0.3721217E-003  0.6609544E+03  0.7818608E-02  0.9786438E-01
          1   -1    0    0  502    0  0.00000000000E+00  0.00000000000E+00  0.10950317654E+03  0.10950317654E+03  0.00000000000E+00 0.  1.
         13   -1    0    0    0    0 -0.00000000000E+00 -0.00000000000E+00 -0.10000000000E+04  0.10000000000E+04  0.00000000000E+00 0.  1.
    9000005    2    1    2  501    0 -0.49429789297E-02  0.25031854750E-02 -0.89078477782E+03  0.11092151689E+04  0.66095443901E+03 0.  0.
         13    1    3    3    0    0  0.23147691872E+03 -0.23029630252E+03 -0.53088699887E+03  0.62326475629E+03  0.00000000000E+00 0.  1.
          3    1    3    3  501    0 -0.23148186170E+03  0.23029880571E+03 -0.35989777895E+03  0.48595041259E+03  0.00000000000E+00 0.  1.
         21    1    1    2  502  501  0.49429789297E-02 -0.25031854750E-02  0.28795436018E+00  0.28800766053E+00  0.00000000000E+00 0. -1.
<mgrwt>
<rscale>  1 0.66095444E+03</rscale>
<asrwt>0</asrwt>
<pdfrwt beam="1">  1        1 0.39819421E+00 0.66095444E+03</pdfrwt>
<pdfrwt beam="2">0</pdfrwt>
<totfact> 0.13600791E+00</totfact>
</mgrwt>
</event>
<event>
 6    1  0.3721217E-003  0.6698947E+03  0.7818608E-02  0.9770148E-01
          1   -1    0    0  502    0  0.00000000000E+00  0.00000000000E+00  0.12745509286E+03  0.12745509286E+03  0.00000000000E+00 0.  1.
         13   -1    0    0    0    0 -0.00000000000E+00 -0.00000000000E+00 -0.10000000000E+04  0.10000000000E+04  0.00000000000E+00 0.  1.
    9000005    2    1    2  501    0  0.11272371832E+01  0.10570332606E+01 -0.88776674793E+03  0.11121550138E+04  0.66989296752E+03 0.  0.
         13    1    3    3    0    0  0.93809381693E+02 -0.32101676201E+03 -0.46027878511E+03  0.56895388355E+03  0.00000000000E+00 0.  1.
          1    1    3    3  501    0 -0.92682144510E+02  0.32207379527E+03 -0.42748796282E+03  0.54320113022E+03  0.00000000000E+00 0.  1.
         21    1    1    2  502  501 -0.11272371832E+01 -0.10570332606E+01  0.15221840789E+02  0.15300079084E+02  0.00000000000E+00 0.  1.
<mgrwt>
<rscale>  1 0.66989475E+03</rscale>
<asrwt>0</asrwt>
<pdfrwt beam="1">  1        1 0.46347404E+00 0.66989475E+03</pdfrwt>
<pdfrwt beam="2">0</pdfrwt>
<totfact> 0.68531088E-01</totfact>
</mgrwt>
</event>
<event>
 6    1  0.3721217E-003  0.6549568E+03  0.7818608E-02  0.9797522E-01
          1   -1    0    0  502    0  0.00000000000E+00  0.00000000000E+00  0.10726256614E+03  0.10726256614E+03  0.00000000000E+00 0.  1.
         13   -1    0    0    0    0 -0.00000000000E+00 -0.00000000000E+00 -0.10000000000E+04  0.10000000000E+04  0.00000000000E+00 0.  1.
    9000005    2    1    2  501    0 -0.90742610924E-02  0.14462448387E-01 -0.89275386697E+03  0.11072388691E+04  0.65495682749E+03 0.  0.
         13    1    3    3    0    0  0.40376839393E+02 -0.20087956102E+03 -0.87822588414E+03  0.90181128334E+03  0.00000000000E+00 0.  1.
          3    1    3    3  501    0 -0.40385913654E+02  0.20089402347E+03 -0.14527982830E+02  0.20542758572E+03  0.00000000000E+00 0.  1.
         21    1    1    2  502  501  0.90742610924E-02 -0.14462448387E-01  0.16433108740E-01  0.23697081900E-01  0.00000000000E+00 0. -1.
<mgrwt>
<rscale>  1 0.65495683E+03</rscale>
<asrwt>0</asrwt>
<pdfrwt beam="1">  1        1 0.39004652E+00 0.65495683E+03</pdfrwt>
<pdfrwt beam="2">0</pdfrwt>
<totfact> 0.14800039E+00</totfact>
</mgrwt>
</event>
<event>
 6    1  0.3721217E-003  0.6421373E+03  0.7818608E-02  0.9821646E-01
          1   -1    0    0  502    0  0.00000000000E+00  0.00000000000E+00  0.10308655407E+03  0.10308655407E+03  0.00000000000E+00 0.  1.
         13   -1    0    0    0    0 -0.00000000000E+00 -0.00000000000E+00 -0.10000000000E+04  0.10000000000E+04  0.00000000000E+00 0.  1.
    9000005    2    1    2  501    0  0.18055715631E-03 -0.19106186244E-03 -0.89691492045E+03  0.11030850563E+04  0.64213726486E+03 0.  0.
         13    1    3    3    0    0 -0.17478164108E+03  0.15998086724E+03 -0.76267705592E+02  0.24891617637E+03  0.00000000000E+00 0.  1.
          3    1    3    3  501    0  0.17478182164E+03 -0.15998105831E+03 -0.82064721485E+03  0.85416887993E+03  0.00000000000E+00 0.  1.
         21    1    1    2  502  501 -0.18055715632E-03  0.19106186244E-03  0.14745163039E-02  0.14977662876E-02  0.00000000000E+00 0. -1.
<mgrwt>
<rscale>  1 0.64213726E+03</rscale>
<asrwt>0</asrwt>
<pdfrwt beam="1">  1        1 0.37486099E+00 0.64213726E+03</pdfrwt>
<pdfrwt beam="2">0</pdfrwt>
<totfact> 0.17313098E+00</totfact>
</mgrwt>
</event>
<event>
 6    1  0.3721217E-003  0.7050433E+03  0.7818608E-02  0.9708646E-01
          1   -1    0    0  502    0  0.00000000000E+00  0.00000000000E+00  0.12430130771E+03  0.12430130771E+03  0.00000000000E+00 0.  1.
         13   -1    0    0    0    0 -0.00000000000E+00 -0.00000000000E+00 -0.10000000000E+04  0.10000000000E+04  0.00000000000E+00 0.  1.
    9000005    2    1    2  501    0  0.11413006822E-02 -0.44478321168E-02 -0.87572827714E+03  0.11242713686E+04  0.70504332838E+03 0.  0.
         13    1    3    3    0    0 -0.13926953808E+03  0.12099641803E+03  0.41144361751E+02  0.18902115204E+03  0.00000000000E+00 0.  1.
          1    1    3    3  501    0  0.13927067938E+03 -0.12100086586E+03 -0.91687263889E+03  0.93525021658E+03  0.00000000000E+00 0.  1.
         21    1    1    2  502  501 -0.11413006822E-02  0.44478321168E-02  0.29584853045E-01  0.29939093297E-01  0.00000000000E+00 0.  1.
<mgrwt>
<rscale>  1 0.70504333E+03</rscale>
<asrwt>0</asrwt>
<pdfrwt beam="1">  1        1 0.45200571E+00 0.70504333E+03</pdfrwt>
<pdfrwt beam="2">0</pdfrwt>
<totfact> 0.76914359E-01</totfact>
</mgrwt>
</event>
<event>
 6    1  0.3721217E-003  0.7444338E+03  0.7818608E-02  0.9644123E-01
          3   -1    0    0  502    0  0.00000000000E+00  0.00000000000E+00  0.13874349199E+03  0.13874349199E+03  0.00000000000E+00 0.  1.
         13   -1    0    0    0    0 -0.00000000000E+00 -0.00000000000E+00 -0.10000000000E+04  0.10000000000E+04  0.00000000000E+00 0.  1.
    9000005    2    1    2  501    0  0.64549168404E-01 -0.57665961636E-01 -0.86144373140E+03  0.11385372287E+04  0.74443381922E+03 0.  0.
         13    1    3    3    0    0  0.28824501360E+03  0.23407740880E+03 -0.39105041205E+03  0.53925675327E+03  0.00000000000E+00 0.  1.
          1    1    3    3  501    0 -0.28818046443E+03 -0.23413507476E+03 -0.47039331935E+03  0.59928047540E+03  0.00000000000E+00 0.  1.
         21    1    1    2  502  501 -0.64549168404E-01  0.57665961636E-01  0.18722339800E+00  0.20626332449E+00  0.00000000000E+00 0.  1.
<mgrwt>
<rscale>  1 0.74443382E+03</rscale>
<asrwt>0</asrwt>
<pdfrwt beam="1">  1        3 0.50452285E+00 0.74443382E+03</pdfrwt>
<pdfrwt beam="2">0</pdfrwt>
<totfact> 0.17243299E-02</totfact>
</mgrwt>
</event>
<event>
 6    1  0.3721217E-003  0.6547652E+03  0.7818608E-02  0.9797879E-01
          1   -1    0    0  502    0  0.00000000000E+00  0.00000000000E+00  0.10821744433E+03  0.10821744433E+03  0.00000000000E+00 0.  1.
         13   -1    0    0    0    0 -0.00000000000E+00 -0.00000000000E+00 -0.10000000000E+04  0.10000000000E+04  0.00000000000E+00 0.  1.
    9000005    2    1    2  501    0 -0.13503414915E-02  0.49664173700E-01 -0.89281997794E+03  0.11071788331E+04  0.65476518917E+03 0.  0.
         13    1    3    3    0    0  0.30193964871E+03 -0.12513214320E+03 -0.47790136508E+03  0.57897782295E+03  0.00000000000E+00 0.  1.
          3    1    3    3  501    0 -0.30194099905E+03  0.12518180737E+03 -0.41491861286E+03  0.52820101013E+03  0.00000000000E+00 0.  1.
         21    1    1    2  502  501  0.13503414915E-02 -0.49664173700E-01  0.10374222688E+01  0.10386112446E+01  0.00000000000E+00 0. -1.
<mgrwt>
<rscale>  1 0.65476519E+03</rscale>
<asrwt>0</asrwt>
<pdfrwt beam="1">  1        1 0.39351881E+00 0.65476519E+03</pdfrwt>
<pdfrwt beam="2">0</pdfrwt>
<totfact> 0.14284516E+00</totfact>
</mgrwt>
</event>
<event>
 6    1  0.3721217E-003  0.6396320E+03  0.7818608E-02  0.9826431E-01
          1   -1    0    0  502    0  0.00000000000E+00  0.00000000000E+00  0.10233854428E+03  0.10233854428E+03  0.00000000000E+00 0.  1.
         13   -1    0    0    0    0 -0.00000000000E+00 -0.00000000000E+00 -0.10000000000E+04  0.10000000000E+04  0.00000000000E+00 0.  1.
    9000005    2    1    2  501    0  0.33864361459E-02  0.49286485805E-02 -0.89771756106E+03  0.11022821212E+04  0.63963196853E+03 0.  0.
         13    1    3    3    0    0 -0.10152908002E+02  0.28491662512E+03 -0.19911265871E+03  0.34774475649E+03  0.00000000000E+00 0.  1.
          3    1    3    3  501    0  0.10156294438E+02 -0.28491169647E+03 -0.69860490235E+03  0.75453736467E+03  0.00000000000E+00 0.  1.
         21    1    1    2  502  501 -0.33864361459E-02 -0.49286485805E-02  0.56105340831E-01  0.56423122887E-01  0.00000000000E+00 0. -1.
<mgrwt>
<rscale>  1 0.63963197E+03</rscale>
<asrwt>0</asrwt>
<pdfrwt beam="1">  1        1 0.37214095E+00 0.63963197E+03</pdfrwt>
<pdfrwt beam="2">0</pdfrwt>
<totfact> 0.17804856E+00</totfact>
</mgrwt>
</event>
<event>
 6    1  0.3721217E-003  0.6200915E+03  0.7818608E-02  0.9864578E-01
          1   -1    0    0  502    0  0.00000000000E+00  0.00000000000E+00  0.96128369083E+02  0.96128369083E+02  0.00000000000E+00 0.  1.
         13   -1    0    0    0    0 -0.00000000000E+00 -0.00000000000E+00 -0.10000000000E+04  0.10000000000E+04  0.00000000000E+00 0.  1.
    9000005    2    1    2  501    0  0.32743151053E-05 -0.28305207138E-05 -0.90387163524E+03  0.10961283630E+04  0.62009148929E+03 0.  0.
         13    1    3    3    0    0 -0.24074823284E+03  0.98559793066E+02 -0.15375340084E+03  0.30218182059E+03  0.00000000000E+00 0.  1.
          1    1    3    3  501    0  0.24074823611E+03 -0.98559795897E+02 -0.75011823441E+03  0.79394654238E+03  0.00000000000E+00 0.  1.
         21    1    1    2  502  501 -0.32743150887E-05  0.28305207082E-05  0.43268905894E-05  0.61200464829E-05  0.00000000000E+00 0. -1.
<mgrwt>
<rscale>  1 0.62009149E+03</rscale>
<asrwt>0</asrwt>
<pdfrwt beam="1">  1        1 0.34955844E+00 0.62009149E+03</pdfrwt>
<pdfrwt beam="2">0</pdfrwt>
<totfact> 0.22432579E+00</totfact>
</mgrwt>
</event>
<event>
 6    1  0.3721217E-003  0.6539804E+03  0.7818608E-02  0.9799339E-01
          1   -1    0    0  502    0  0.00000000000E+00  0.00000000000E+00  0.10729370621E+03  0.10729370621E+03  0.00000000000E+00 0.  1.
         13   -1    0    0    0    0 -0.00000000000E+00 -0.00000000000E+00 -0.10000000000E+04  0.10000000000E+04  0.00000000000E+00 0.  1.
    9000005    2    1    2  501    0  0.31592934109E-01 -0.39612674210E-02 -0.89307665688E+03  0.11069219770E+04  0.65398038734E+03 0.  0.
         13    1    3    3    0    0  0.31291037791E+03  0.32806946079E+02 -0.59740978948E+03  0.67519453262E+03  0.00000000000E+00 0.  1.
          1    1    3    3  501    0 -0.31287878497E+03 -0.32810907346E+02 -0.29566686740E+03  0.43172744435E+03  0.00000000000E+00 0.  1.
         21    1    1    2  502  501 -0.31592934109E-01  0.39612674210E-02  0.37036309633E+00  0.37172924051E+00  0.00000000000E+00 0. -1.
<mgrwt>
<rscale>  1 0.65398039E+03</rscale>
<asrwt>0</asrwt>
<pdfrwt beam="1">  1        1 0.39015975E+00 0.65398039E+03</pdfrwt>
<pdfrwt beam="2">0</pdfrwt>
<totfact> 0.14785613E+00</totfact>
</mgrwt>
</event>
<event>
 6    1  0.3721217E-003  0.6403547E+03  0.7818608E-02  0.9825048E-01
          3   -1    0    0  502    0  0.00000000000E+00  0.00000000000E+00  0.10251979855E+03  0.10251979855E+03  0.00000000000E+00 0.  1.
         13   -1    0    0    0    0 -0.00000000000E+00 -0.00000000000E+00 -0.10000000000E+04  0.10000000000E+04  0.00000000000E+00 0.  1.
    9000005    2    1    2  501    0 -0.64881290939E-03  0.23766595187E-02 -0.89748619657E+03  0.11025133170E+04  0.64035469942E+03 0.  0.
         13    1    3    3    0    0  0.12327710690E+03  0.20813736924E+03 -0.87610677102E+02  0.25728202483E+03  0.00000000000E+00 0.  1.
          1    1    3    3  501    0 -0.12327775571E+03 -0.20813499258E+03 -0.80987551946E+03  0.84523129214E+03  0.00000000000E+00 0.  1.
         21    1    1    2  502  501  0.64881290939E-03 -0.23766595187E-02  0.59951168874E-02  0.64815812232E-02  0.00000000000E+00 0.  1.
<mgrwt>
<rscale>  1 0.64035470E+03</rscale>
<asrwt>0</asrwt>
<pdfrwt beam="1">  1        3 0.37280005E+00 0.64035470E+03</pdfrwt>
<pdfrwt beam="2">0</pdfrwt>
<totfact> 0.82525765E-02</totfact>
</mgrwt>
</event>
<event>
 6    1  0.3721217E-003  0.6526673E+03  0.7818608E-02  0.9801787E-01
          1   -1    0    0  502    0  0.00000000000E+00  0.00000000000E+00  0.10650961841E+03  0.10650961841E+03  0.00000000000E+00 0.  1.
         13   -1    0    0    0    0 -0.00000000000E+00 -0.00000000000E+00 -0.10000000000E+04  0.10000000000E+04  0.00000000000E+00 0.  1.
    9000005    2    1    2  501    0 -0.20032179014E-01 -0.21543734653E-01 -0.89348965706E+03  0.11064801915E+04  0.65266733176E+03 0.  0.
         13    1    3    3    0    0 -0.30588650054E+03 -0.67225009880E+02 -0.29123890191E+03  0.42767493632E+03  0.00000000000E+00 0.  1.
          3    1    3    3  501    0  0.30586646836E+03  0.67203466145E+02 -0.60225075514E+03  0.67880525514E+03  0.00000000000E+00 0.  1.
         21    1    1    2  502  501  0.20032179014E-01  0.21543734653E-01 -0.72453354333E-03  0.29426954442E-01  0.00000000000E+00 0.  1.
<mgrwt>
<rscale>  1 0.65266733E+03</rscale>
<asrwt>0</asrwt>
<pdfrwt beam="1">  1        1 0.38730852E+00 0.65266733E+03</pdfrwt>
<pdfrwt beam="2">0</pdfrwt>
<totfact> 0.15225830E+00</totfact>
</mgrwt>
</event>
<event>
 6    1  0.3721217E-003  0.6583767E+03  0.7818608E-02  0.9791187E-01
          3   -1    0    0  502    0  0.00000000000E+00  0.00000000000E+00  0.13067163312E+03  0.13067163312E+03  0.00000000000E+00 0.  1.
         13   -1    0    0    0    0 -0.00000000000E+00 -0.00000000000E+00 -0.10000000000E+04  0.10000000000E+04  0.00000000000E+00 0.  1.
    9000005    2    1    2  501    0  0.31801124449E+00  0.40453813324E-01 -0.89163376629E+03  0.11083639302E+04  0.65837658356E+03 0.  0.
         13    1    3    3    0    0 -0.97186657329E+02  0.14712903273E+03  0.22132229393E+02  0.17771334844E+03  0.00000000000E+00 0.  1.
          3    1    3    3  501    0  0.97504668574E+02 -0.14708857892E+03 -0.91376599568E+03  0.93065058174E+03  0.00000000000E+00 0.  1.
         21    1    1    2  502  501 -0.31801124449E+00 -0.40453813324E-01  0.22305399408E+02  0.22307702939E+02  0.00000000000E+00 0. -1.
<mgrwt>
<rscale>  1 0.65837666E+03</rscale>
<asrwt>0</asrwt>
<pdfrwt beam="1">  1        3 0.47517058E+00 0.65837666E+03</pdfrwt>
<pdfrwt beam="2">0</pdfrwt>
<totfact> 0.24404589E-02</totfact>
</mgrwt>
</event>
<event>
 6    1  0.3721217E-003  0.6110655E+03  0.7818608E-02  0.9882711E-01
          1   -1    0    0  502    0  0.00000000000E+00  0.00000000000E+00  0.93383977440E+02  0.93383977440E+02  0.00000000000E+00 0.  1.
         13   -1    0    0    0    0 -0.00000000000E+00 -0.00000000000E+00 -0.10000000000E+04  0.10000000000E+04  0.00000000000E+00 0.  1.
    9000005    2    1    2  501    0  0.24160731061E-01  0.65811133342E-02 -0.90664459909E+03  0.10933459818E+04  0.61106546801E+03 0.  0.
         13    1    3    3    0    0  0.26279000151E+03 -0.14784279147E+03 -0.36496127505E+03  0.47340554303E+03  0.00000000000E+00 0.  1.
          3    1    3    3  501    0 -0.26276584078E+03  0.14784937258E+03 -0.54168332404E+03  0.61994043875E+03  0.00000000000E+00 0.  1.
         21    1    1    2  502  501 -0.24160731061E-01 -0.65811133343E-02  0.28576531538E-01  0.37995659395E-01  0.00000000000E+00 0.  1.
<mgrwt>
<rscale>  1 0.61106547E+03</rscale>
<asrwt>0</asrwt>
<pdfrwt beam="1">  1        1 0.33957882E+00 0.61106547E+03</pdfrwt>
<pdfrwt beam="2">0</pdfrwt>
<totfact> 0.24830393E+00</totfact>
</mgrwt>
</event>
<event>
 6    1  0.3721217E-003  0.6416845E+03  0.7818608E-02  0.9822509E-01
          1   -1    0    0  502    0  0.00000000000E+00  0.00000000000E+00  0.10293977381E+03  0.10293977381E+03  0.00000000000E+00 0.  1.
         13   -1    0    0    0    0 -0.00000000000E+00 -0.00000000000E+00 -0.10000000000E+04  0.10000000000E+04  0.00000000000E+00 0.  1.
    9000005    2    1    2  501    0 -0.69045984219E-06  0.40907333680E-05 -0.89706023459E+03  0.11029397644E+04  0.64168454827E+03 0.  0.
         13    1    3    3    0    0 -0.28802974671E+03 -0.83759814793E+01 -0.69105102708E+03  0.74872078512E+03  0.00000000000E+00 0.  1.
          3    1    3    3  501    0  0.28802974602E+03  0.83759855700E+01 -0.20600920752E+03  0.35421897931E+03  0.00000000000E+00 0.  1.
         21    1    1    2  502  501  0.69045986116E-06 -0.40907333673E-05  0.84002077438E-05  0.93687952502E-05  0.00000000000E+00 0. -1.
<mgrwt>
<rscale>  1 0.64168455E+03</rscale>
<asrwt>0</asrwt>
<pdfrwt beam="1">  1        1 0.37432724E+00 0.64168455E+03</pdfrwt>
<pdfrwt beam="2">0</pdfrwt>
<totfact> 0.17408437E+00</totfact>
</mgrwt>
</event>
<event>
 6    1  0.3721217E-003  0.6449105E+03  0.7818608E-02  0.9816376E-01
          1   -1    0    0  502    0  0.00000000000E+00  0.00000000000E+00  0.10397741383E+03  0.10397741383E+03  0.00000000000E+00 0.  1.
         13   -1    0    0    0    0 -0.00000000000E+00 -0.00000000000E+00 -0.10000000000E+04  0.10000000000E+04  0.00000000000E+00 0.  1.
    9000005    2    1    2  501    0  0.31390541722E-05  0.80047842630E-05 -0.89602260722E+03  0.11039773911E+04  0.64491051116E+03 0.  0.
         13    1    3    3    0    0 -0.25343388833E+03  0.15360613833E+03 -0.23044170123E+03  0.37540239630E+03  0.00000000000E+00 0.  1.
          3    1    3    3  501    0  0.25343389146E+03 -0.15360613033E+03 -0.66558090599E+03  0.72857499479E+03  0.00000000000E+00 0.  1.
         21    1    1    2  502  501 -0.31390541949E-05 -0.80047842569E-05  0.21050837683E-04  0.22739129258E-04  0.00000000000E+00 0. -1.
<mgrwt>
<rscale>  1 0.64491051E+03</rscale>
<asrwt>0</asrwt>
<pdfrwt beam="1">  1        1 0.37810048E+00 0.64491051E+03</pdfrwt>
<pdfrwt beam="2">0</pdfrwt>
<totfact> 0.16744982E+00</totfact>
</mgrwt>
</event>
<event>
 6    1  0.3721217E-003  0.6517401E+03  0.7818608E-02  0.9803520E-01
          1   -1    0    0  502    0  0.00000000000E+00  0.00000000000E+00  0.10619139771E+03  0.10619139771E+03  0.00000000000E+00 0.  1.
         13   -1    0    0    0    0 -0.00000000000E+00 -0.00000000000E+00 -0.10000000000E+04  0.10000000000E+04  0.00000000000E+00 0.  1.
    9000005    2    1    2  501    0 -0.35577026694E-05  0.95469125654E-05 -0.89380871739E+03  0.11061912822E+04  0.65174007813E+03 0.  0.
         13    1    3    3    0    0  0.77184178292E+02 -0.29349885875E+03 -0.24541747257E+03  0.39029311204E+03  0.00000000000E+00 0.  1.
          1    1    3    3  501    0 -0.77184181850E+02  0.29349886829E+03 -0.64839124482E+03  0.71589817012E+03  0.00000000000E+00 0.  1.
         21    1    1    2  502  501  0.35577026737E-05 -0.95469125419E-05  0.11510512050E-03  0.11555513642E-03  0.00000000000E+00 0.  1.
<mgrwt>
<rscale>  1 0.65174008E+03</rscale>
<asrwt>0</asrwt>
<pdfrwt beam="1">  1        1 0.38615135E+00 0.65174008E+03</pdfrwt>
<pdfrwt beam="2">0</pdfrwt>
<totfact> 0.15409142E+00</totfact>
</mgrwt>
</event>
<event>
 6    1  0.3721217E-003  0.6444073E+03  0.7818608E-02  0.9817330E-01
          1   -1    0    0  502    0  0.00000000000E+00  0.00000000000E+00  0.10786596854E+03  0.10786596854E+03  0.00000000000E+00 0.  1.
         13   -1    0    0    0    0 -0.00000000000E+00 -0.00000000000E+00 -0.10000000000E+04  0.10000000000E+04  0.00000000000E+00 0.  1.
    9000005    2    1    2  501    0  0.17848607862E+00  0.75054915349E-01 -0.89618224836E+03  0.11038131238E+04  0.64440728774E+03 0.  0.
         13    1    3    3    0    0  0.18936976187E+03  0.25768522158E+03 -0.51684516894E+03  0.60777587052E+03  0.00000000000E+00 0.  1.
          3    1    3    3  501    0 -0.18919127579E+03 -0.25761016667E+03 -0.37933707942E+03  0.49603725327E+03  0.00000000000E+00 0.  1.
         21    1    1    2  502  501 -0.17848607862E+00 -0.75054915349E-01  0.40482168988E+01  0.40528447515E+01  0.00000000000E+00 0.  1.
<mgrwt>
<rscale>  1 0.64440732E+03</rscale>
<asrwt>0</asrwt>
<pdfrwt beam="1">  1        1 0.39224071E+00 0.64440732E+03</pdfrwt>
<pdfrwt beam="2">0</pdfrwt>
<totfact> 0.14500586E+00</totfact>
</mgrwt>
</event>
<event>
 6    1  0.3721217E-003  0.6263882E+03  0.7818608E-02  0.9852122E-01
          1   -1    0    0  502    0  0.00000000000E+00  0.00000000000E+00  0.98096810190E+02  0.98096810190E+02  0.00000000000E+00 0.  1.
         13   -1    0    0    0    0 -0.00000000000E+00 -0.00000000000E+00 -0.10000000000E+04  0.10000000000E+04  0.00000000000E+00 0.  1.
    9000005    2    1    2  501    0 -0.31031382827E-03 -0.63901776338E-03 -0.90190942536E+03  0.10980905343E+04  0.62638822626E+03 0.  0.
         13    1    3    3    0    0  0.76187331909E+02 -0.16306352437E+03 -0.90028486366E+03  0.91809969952E+03  0.00000000000E+00 0.  1.
          1    1    3    3  501    0 -0.76187642223E+02  0.16306288536E+03 -0.16245616980E+01  0.17999083479E+03  0.00000000000E+00 0.  1.
         21    1    1    2  502  501  0.31031382826E-03  0.63901776340E-03  0.62355456119E-02  0.62758798150E-02  0.00000000000E+00 0.  1.
<mgrwt>
<rscale>  1 0.62638823E+03</rscale>
<asrwt>0</asrwt>
<pdfrwt beam="1">  1        1 0.35671643E+00 0.62638823E+03</pdfrwt>
<pdfrwt beam="2">0</pdfrwt>
<totfact> 0.20852773E+00</totfact>
</mgrwt>
</event>
<event>
 6    1  0.3721217E-003  0.6087949E+03  0.7818608E-02  0.9887326E-01
          1   -1    0    0  502    0  0.00000000000E+00  0.00000000000E+00  0.93226007493E+02  0.93226007493E+02  0.00000000000E+00 0.  1.
         13   -1    0    0    0    0 -0.00000000000E+00 -0.00000000000E+00 -0.10000000000E+04  0.10000000000E+04  0.00000000000E+00 0.  1.
    9000005    2    1    2  501    0  0.95582837972E-02  0.74790989190E-02 -0.90734211326E+03  0.10926577571E+04  0.60879492734E+03 0.  0.
         13    1    3    3    0    0  0.25816824336E+02  0.22166019685E+03 -0.82524436104E+03  0.85488479148E+03  0.00000000000E+00 0.  1.
          1    1    3    3  501    0 -0.25807266053E+02 -0.22165271775E+03 -0.82097752221E+02  0.23777296563E+03  0.00000000000E+00 0.  1.
         21    1    1    2  502  501 -0.95582837972E-02 -0.74790989190E-02  0.56812075283E+00  0.56825037397E+00  0.00000000000E+00 0. -1.
<mgrwt>
<rscale>  1 0.60879493E+03</rscale>
<asrwt>0</asrwt>
<pdfrwt beam="1">  1        1 0.33900438E+00 0.60879493E+03</pdfrwt>
<pdfrwt beam="2">0</pdfrwt>
<totfact> 0.24983468E+00</totfact>
</mgrwt>
</event>
<event>
 6    1  0.3721217E-003  0.6366557E+03  0.7818608E-02  0.9832146E-01
          1   -1    0    0  502    0  0.00000000000E+00  0.00000000000E+00  0.10133340357E+03  0.10133340357E+03  0.00000000000E+00 0.  1.
         13   -1    0    0    0    0 -0.00000000000E+00 -0.00000000000E+00 -0.10000000000E+04  0.10000000000E+04  0.00000000000E+00 0.  1.
    9000005    2    1    2  501    0 -0.10842185816E-07 -0.28765795733E-04 -0.89866737867E+03  0.11013326208E+04  0.63665570299E+03 0.  0.
         13    1    3    3    0    0 -0.83356809075E+02 -0.93940201361E+02  0.56663372406E+02  0.13778191762E+03  0.00000000000E+00 0.  1.
          1    1    3    3  501    0  0.83356809064E+02  0.93940172595E+02 -0.95533075108E+03  0.96355070318E+03  0.00000000000E+00 0.  1.
         21    1    1    2  502  501  0.10842177814E-07  0.28765795722E-04  0.78223803685E-03  0.78276677076E-03  0.00000000000E+00 0. -1.
<mgrwt>
<rscale>  1 0.63665570E+03</rscale>
<asrwt>0</asrwt>
<pdfrwt beam="1">  1        1 0.36848588E+00 0.63665570E+03</pdfrwt>
<pdfrwt beam="2">0</pdfrwt>
<totfact> 0.18485393E+00</totfact>
</mgrwt>
</event>
<event>
 6    1  0.3721217E-003  0.6430499E+03  0.7818608E-02  0.9819909E-01
          3   -1    0    0  502    0  0.00000000000E+00  0.00000000000E+00  0.10338100061E+03  0.10338100061E+03  0.00000000000E+00 0.  1.
         13   -1    0    0    0    0 -0.00000000000E+00 -0.00000000000E+00 -0.10000000000E+04  0.10000000000E+04  0.00000000000E+00 0.  1.
    9000005    2    1    2  501    0  0.47410520458E-02 -0.27720862067E-03 -0.89661918589E+03  0.11033762478E+04  0.64304990451E+03 0.  0.
         13    1    3    3    0    0 -0.16262947209E+02  0.31963469853E+03 -0.39549829037E+03  0.50877276032E+03  0.00000000000E+00 0.  1.
          1    1    3    3  501    0  0.16267688261E+02 -0.31963497574E+03 -0.50112089552E+03  0.59460348748E+03  0.00000000000E+00 0.  1.
         21    1    1    2  502  501 -0.47410520458E-02  0.27720862066E-03  0.18649616759E-03  0.47528096891E-02  0.00000000000E+00 0.  1.
<mgrwt>
<rscale>  1 0.64304990E+03</rscale>
<asrwt>0</asrwt>
<pdfrwt beam="1">  1        3 0.37593170E+00 0.64304990E+03</pdfrwt>
<pdfrwt beam="2">0</pdfrwt>
<totfact> 0.79401682E-02</totfact>
</mgrwt>
</event>
<event>
 6    1  0.3721217E-003  0.6460858E+03  0.7818608E-02  0.9814152E-01
          1   -1    0    0  502    0  0.00000000000E+00  0.00000000000E+00  0.11410917726E+03  0.11410917726E+03  0.00000000000E+00 0.  1.
         13   -1    0    0    0    0 -0.00000000000E+00 -0.00000000000E+00 -0.10000000000E+04  0.10000000000E+04  0.00000000000E+00 0.  1.
    9000005    2    1    2  501    0 -0.32313729299E-01 -0.19731704859E+00 -0.89564214083E+03  0.11043558095E+04  0.64608580665E+03 0.  0.
         13    1    3    3    0    0 -0.21829834090E+03 -0.13266506231E+03 -0.10974522933E+03  0.27802553796E+03  0.00000000000E+00 0.  1.
          1    1    3    3  501    0  0.21826602717E+03  0.13246774526E+03 -0.78589691150E+03  0.82633027154E+03  0.00000000000E+00 0.  1.
         21    1    1    2  502  501  0.32313729299E-01  0.19731704859E+00  0.97513180962E+01  0.97533677675E+01  0.00000000000E+00 0. -1.
<mgrwt>
<rscale>  1 0.64608584E+03</rscale>
<asrwt>0</asrwt>
<pdfrwt beam="1">  1        1 0.41494334E+00 0.64608584E+03</pdfrwt>
<pdfrwt beam="2">0</pdfrwt>
<totfact> 0.11477828E+00</totfact>
</mgrwt>
</event>
<event>
 6    1  0.3721217E-003  0.6486683E+03  0.7818608E-02  0.9809281E-01
          1   -1    0    0  502    0  0.00000000000E+00  0.00000000000E+00  0.10519865987E+03  0.10519865987E+03  0.00000000000E+00 0.  1.
         13   -1    0    0    0    0 -0.00000000000E+00 -0.00000000000E+00 -0.10000000000E+04  0.10000000000E+04  0.00000000000E+00 0.  1.
    9000005    2    1    2  501    0  0.40895286750E-03 -0.79523659653E-03 -0.89480732265E+03  0.11051926109E+04  0.64866829927E+03 0.  0.
         13    1    3    3    0    0 -0.20852003272E+03  0.22049866517E+03 -0.64235174163E+03  0.71043368822E+03  0.00000000000E+00 0.  1.
          3    1    3    3  501    0  0.20852044167E+03 -0.22049946041E+03 -0.25245558102E+03  0.39475892266E+03  0.00000000000E+00 0.  1.
         21    1    1    2  502  501 -0.40895286752E-03  0.79523659653E-03  0.59825185513E-02  0.60489810637E-02  0.00000000000E+00 0. -1.
<mgrwt>
<rscale>  1 0.64866830E+03</rscale>
<asrwt>0</asrwt>
<pdfrwt beam="1">  1        1 0.38254139E+00 0.64866830E+03</pdfrwt>
<pdfrwt beam="2">0</pdfrwt>
<totfact> 0.15995107E+00</totfact>
</mgrwt>
</event>
<event>
 6    1  0.3721217E-003  0.6515220E+03  0.7818608E-02  0.9803927E-01
          1   -1    0    0  502    0  0.00000000000E+00  0.00000000000E+00  0.10613221593E+03  0.10613221593E+03  0.00000000000E+00 0.  1.
         13   -1    0    0    0    0 -0.00000000000E+00 -0.00000000000E+00 -0.10000000000E+04  0.10000000000E+04  0.00000000000E+00 0.  1.
    9000005    2    1    2  501    0  0.27797067399E-01  0.23461306495E-01 -0.89382670999E+03  0.11060773507E+04  0.65152200038E+03 0.  0.
         13    1    3    3    0    0 -0.19879710646E+03 -0.22280695083E+03 -0.22589023654E+03  0.37441905111E+03  0.00000000000E+00 0.  1.
          1    1    3    3  501    0  0.19882490352E+03  0.22283041213E+03 -0.66793647345E+03  0.73165829962E+03  0.00000000000E+00 0.  1.
         21    1    1    2  502  501 -0.27797067399E-01 -0.23461306495E-01 -0.41074078525E-01  0.54865196483E-01  0.00000000000E+00 0. -1.
<mgrwt>
<rscale>  1 0.65152200E+03</rscale>
<asrwt>0</asrwt>
<pdfrwt beam="1">  1        1 0.38593614E+00 0.65152200E+03</pdfrwt>
<pdfrwt beam="2">0</pdfrwt>
<totfact> 0.15443594E+00</totfact>
</mgrwt>
</event>
<event>
 6    1  0.3721217E-003  0.6512088E+03  0.7818608E-02  0.9804514E-01
          1   -1    0    0  502    0  0.00000000000E+00  0.00000000000E+00  0.10601994597E+03  0.10601994597E+03  0.00000000000E+00 0.  1.
         13   -1    0    0    0    0 -0.00000000000E+00 -0.00000000000E+00 -0.10000000000E+04  0.10000000000E+04  0.00000000000E+00 0.  1.
    9000005    2    1    2  501    0 -0.44733015642E-03 -0.51716650823E-03 -0.89398171213E+03  0.11060181524E+04  0.65120876211E+03 0.  0.
         13    1    3    3    0    0  0.17868735794E+03 -0.30818633759E+02  0.12331111867E+02  0.18174437101E+03  0.00000000000E+00 0.  1.
          3    1    3    3  501    0 -0.17868780527E+03  0.30818116593E+02 -0.90631282399E+03  0.92427378141E+03  0.00000000000E+00 0.  1.
         21    1    1    2  502  501  0.44733015643E-03  0.51716650823E-03  0.16580968121E-02  0.17935580572E-02  0.00000000000E+00 0. -1.
<mgrwt>
<rscale>  1 0.65120876E+03</rscale>
<asrwt>0</asrwt>
<pdfrwt beam="1">  1        1 0.38552789E+00 0.65120876E+03</pdfrwt>
<pdfrwt beam="2">0</pdfrwt>
<totfact> 0.15508864E+00</totfact>
</mgrwt>
</event>
<event>
 6    1  0.3721217E-003  0.6614836E+03  0.7818608E-02  0.9785466E-01
          1   -1    0    0  502    0  0.00000000000E+00  0.00000000000E+00  0.10946406758E+03  0.10946406758E+03  0.00000000000E+00 0.  1.
         13   -1    0    0    0    0 -0.00000000000E+00 -0.00000000000E+00 -0.10000000000E+04  0.10000000000E+04  0.00000000000E+00 0.  1.
    9000005    2    1    2  501    0  0.43947995490E-01 -0.70997690782E-02 -0.89060235042E+03  0.11093841102E+04  0.66148360175E+03 0.  0.
         13    1    3    3    0    0  0.26685159486E+03  0.19377433219E+03 -0.48782395674E+03  0.58883824457E+03  0.00000000000E+00 0.  1.
          3    1    3    3  501    0 -0.26680764687E+03 -0.19378143195E+03 -0.40277839368E+03  0.52054586562E+03  0.00000000000E+00 0.  1.
         21    1    1    2  502  501 -0.43947995490E-01  0.70997690782E-02  0.66418006532E-01  0.79957392530E-01  0.00000000000E+00 0.  1.
<mgrwt>
<rscale>  1 0.66148360E+03</rscale>
<asrwt>0</asrwt>
<pdfrwt beam="1">  1        1 0.39805199E+00 0.66148360E+03</pdfrwt>
<pdfrwt beam="2">0</pdfrwt>
<totfact> 0.13619299E+00</totfact>
</mgrwt>
</event>
<event>
 6    1  0.3721217E-003  0.6282893E+03  0.7818608E-02  0.9848393E-01
          1   -1    0    0  502    0  0.00000000000E+00  0.00000000000E+00  0.12131913851E+03  0.12131913851E+03  0.00000000000E+00 0.  1.
         13   -1    0    0    0    0 -0.00000000000E+00 -0.00000000000E+00 -0.10000000000E+04  0.10000000000E+04  0.00000000000E+00 0.  1.
    9000005    2    1    2  501    0  0.97090311044E+00  0.18008480431E+01 -0.90126231949E+03  0.10986451898E+04  0.62828600075E+03 0.  0.
         13    1    3    3    0    0 -0.28250543022E+03  0.12786168754E+03 -0.36339517875E+03  0.47771747423E+03  0.00000000000E+00 0.  1.
          3    1    3    3  501    0  0.28347633333E+03 -0.12606083950E+03 -0.53786714074E+03  0.62092771552E+03  0.00000000000E+00 0.  1.
         21    1    1    2  502  501 -0.97090311044E+00 -0.18008480431E+01  0.22581458001E+02  0.22673948752E+02  0.00000000000E+00 0.  1.
<mgrwt>
<rscale>  1 0.62828933E+03</rscale>
<asrwt>0</asrwt>
<pdfrwt beam="1">  1        1 0.44116143E+00 0.62828933E+03</pdfrwt>
<pdfrwt beam="2">0</pdfrwt>
<totfact> 0.87622122E-01</totfact>
</mgrwt>
</event>
<event>
 6    1  0.3721217E-003  0.6448094E+03  0.7818608E-02  0.9816568E-01
          1   -1    0    0  502    0  0.00000000000E+00  0.00000000000E+00  0.10408519000E+03  0.10408519000E+03  0.00000000000E+00 0.  1.
         13   -1    0    0    0    0 -0.00000000000E+00 -0.00000000000E+00 -0.10000000000E+04  0.10000000000E+04  0.00000000000E+00 0.  1.
    9000005    2    1    2  501    0  0.37257562167E-01 -0.27788931252E+00 -0.89588013161E+03  0.11038026777E+04  0.64480932262E+03 0.  0.
         13    1    3    3    0    0  0.12388340261E+03  0.28290849669E+03 -0.29008371073E+03  0.42371319801E+03  0.00000000000E+00 0.  1.
          1    1    3    3  501    0 -0.12384614505E+03 -0.28318638600E+03 -0.60579642088E+03  0.68008947971E+03  0.00000000000E+00 0.  1.
         21    1    1    2  502  501 -0.37257562167E-01  0.27788931252E+00 -0.34678386268E-01  0.28251227659E+00  0.00000000000E+00 0. -1.
<mgrwt>
<rscale>  1 0.64480938E+03</rscale>
<asrwt>0</asrwt>
<pdfrwt beam="1">  1        1 0.37849240E+00 0.64480938E+03</pdfrwt>
<pdfrwt beam="2">0</pdfrwt>
<totfact> 0.16678806E+00</totfact>
</mgrwt>
</event>
<event>
 6    1  0.3721217E-003  0.6430151E+03  0.7818608E-02  0.9819975E-01
          1   -1    0    0  502    0  0.00000000000E+00  0.00000000000E+00  0.10336727818E+03  0.10336727818E+03  0.00000000000E+00 0.  1.
         13   -1    0    0    0    0 -0.00000000000E+00 -0.00000000000E+00 -0.10000000000E+04  0.10000000000E+04  0.00000000000E+00 0.  1.
    9000005    2    1    2  501    0 -0.18968534434E-04 -0.49646319553E-05 -0.89663290714E+03  0.11033670918E+04  0.64301506137E+03 0.  0.
         13    1    3    3    0    0  0.90784511439E+02 -0.29332623168E+03 -0.28476250949E+03  0.41877415455E+03  0.00000000000E+00 0.  1.
          3    1    3    3  501    0 -0.90784530407E+02  0.29332622672E+03 -0.61187039765E+03  0.68459293727E+03  0.00000000000E+00 0.  1.
         21    1    1    2  502  501  0.18968534431E-04  0.49646319406E-05  0.18531888386E-03  0.18635327093E-03  0.00000000000E+00 0.  1.
<mgrwt>
<rscale>  1 0.64301506E+03</rscale>
<asrwt>0</asrwt>
<pdfrwt beam="1">  1        1 0.37588180E+00 0.64301506E+03</pdfrwt>
<pdfrwt beam="2">0</pdfrwt>
<totfact> 0.17132108E+00</totfact>
</mgrwt>
</event>
<event>
 6    1  0.3721217E-003  0.6455553E+03  0.7818608E-02  0.9815155E-01
          1   -1    0    0  502    0  0.00000000000E+00  0.00000000000E+00  0.10420860808E+03  0.10420860808E+03  0.00000000000E+00 0.  1.
         13   -1    0    0    0    0 -0.00000000000E+00 -0.00000000000E+00 -0.10000000000E+04  0.10000000000E+04  0.00000000000E+00 0.  1.
    9000005    2    1    2  501    0 -0.27543510078E-03  0.79331458372E-03 -0.89581458519E+03  0.11041853996E+04  0.64555528475E+03 0.  0.
         13    1    3    3    0    0 -0.29685852779E+03 -0.12323302060E+03 -0.49847471553E+03  0.59311753043E+03  0.00000000000E+00 0.  1.
          3    1    3    3  501    0  0.29685825235E+03  0.12323381392E+03 -0.39733986966E+03  0.51106786918E+03  0.00000000000E+00 0.  1.
         21    1    1    2  502  501  0.27543510080E-03 -0.79331458371E-03  0.23193273264E-01  0.23208471238E-01  0.00000000000E+00 0.  1.
<mgrwt>
<rscale>  1 0.64555528E+03</rscale>
<asrwt>0</asrwt>
<pdfrwt beam="1">  1        1 0.37894119E+00 0.64555528E+03</pdfrwt>
<pdfrwt beam="2">0</pdfrwt>
<totfact> 0.16600705E+00</totfact>
</mgrwt>
</event>
<event>
 6    1  0.3721217E-003  0.6458660E+03  0.7818608E-02  0.9814567E-01
          1   -1    0    0  502    0  0.00000000000E+00  0.00000000000E+00  0.10436544675E+03  0.10436544675E+03  0.00000000000E+00 0.  1.
         13   -1    0    0    0    0 -0.00000000000E+00 -0.00000000000E+00 -0.10000000000E+04  0.10000000000E+04  0.00000000000E+00 0.  1.
    9000005    2    1    2  501    0 -0.11048212728E-02  0.13977238194E-02 -0.89571425669E+03  0.11042857234E+04  0.64586603044E+03 0.  0.
         13    1    3    3    0    0 -0.19361500859E+03 -0.25532437949E+03 -0.37928910025E+03  0.49652545945E+03  0.00000000000E+00 0.  1.
          1    1    3    3  501    0  0.19361390377E+03  0.25532577721E+03 -0.51642515644E+03  0.60776026396E+03  0.00000000000E+00 0.  1.
         21    1    1    2  502  501  0.11048212728E-02 -0.13977238194E-02  0.79703440141E-01  0.79723350609E-01  0.00000000000E+00 0.  1.
<mgrwt>
<rscale>  1 0.64586603E+03</rscale>
<asrwt>0</asrwt>
<pdfrwt beam="1">  1        1 0.37951152E+00 0.64586603E+03</pdfrwt>
<pdfrwt beam="2">0</pdfrwt>
<totfact> 0.16503889E+00</totfact>
</mgrwt>
</event>
<event>
 6    1  0.3721217E-003  0.6511960E+03  0.7818608E-02  0.9804538E-01
          1   -1    0    0  502    0  0.00000000000E+00  0.00000000000E+00  0.10601405009E+03  0.10601405009E+03  0.00000000000E+00 0.  1.
         13   -1    0    0    0    0 -0.00000000000E+00 -0.00000000000E+00 -0.10000000000E+04  0.10000000000E+04  0.00000000000E+00 0.  1.
    9000005    2    1    2  501    0  0.20627281003E-05  0.22425574571E-05 -0.89398595124E+03  0.11060140468E+04  0.65119596946E+03 0.  0.
         13    1    3    3    0    0 -0.64738834582E+02 -0.31299400675E+03 -0.34150276719E+03  0.46773978339E+03  0.00000000000E+00 0.  1.
          3    1    3    3  501    0  0.64738836645E+02  0.31299400899E+03 -0.55248318404E+03  0.63827426338E+03  0.00000000000E+00 0.  1.
         21    1    1    2  502  501 -0.20627281069E-05 -0.22425574179E-05  0.13237057077E-05  0.33220637887E-05  0.00000000000E+00 0.  1.
<mgrwt>
<rscale>  1 0.65119597E+03</rscale>
<asrwt>0</asrwt>
<pdfrwt beam="1">  1        1 0.38550645E+00 0.65119597E+03</pdfrwt>
<pdfrwt beam="2">0</pdfrwt>
<totfact> 0.15512289E+00</totfact>
</mgrwt>
</event>
<event>
 6    1  0.3721217E-003  0.6592424E+03  0.7818608E-02  0.9789589E-01
          1   -1    0    0  502    0  0.00000000000E+00  0.00000000000E+00  0.11868973027E+03  0.11868973027E+03  0.00000000000E+00 0.  1.
         13   -1    0    0    0    0 -0.00000000000E+00 -0.00000000000E+00 -0.10000000000E+04  0.10000000000E+04  0.00000000000E+00 0.  1.
    9000005    2    1    2  501    0  0.43572637990E-01 -0.29455147745E+00 -0.89134741321E+03  0.11086481712E+04  0.65924234376E+03 0.  0.
         13    1    3    3    0    0 -0.28319962620E+03 -0.16133978965E+03 -0.36245958161E+03  0.48745205334E+03  0.00000000000E+00 0.  1.
          3    1    3    3  501    0  0.28324319884E+03  0.16104523817E+03 -0.52888783161E+03  0.62119611786E+03  0.00000000000E+00 0.  1.
         21    1    1    2  502  501 -0.43572637990E-01  0.29455147745E+00  0.10037143484E+02  0.10041559065E+02  0.00000000000E+00 0. -1.
<mgrwt>
<rscale>  1 0.65924241E+03</rscale>
<asrwt>0</asrwt>
<pdfrwt beam="1">  1        1 0.43159993E+00 0.65924241E+03</pdfrwt>
<pdfrwt beam="2">0</pdfrwt>
<totfact> 0.96258437E-01</totfact>
</mgrwt>
</event>
<event>
 6    1  0.3721217E-003  0.6461345E+03  0.7818608E-02  0.9814060E-01
          1   -1    0    0  502    0  0.00000000000E+00  0.00000000000E+00  0.10437300169E+03  0.10437300169E+03  0.00000000000E+00 0.  1.
         13   -1    0    0    0    0 -0.00000000000E+00 -0.00000000000E+00 -0.10000000000E+04  0.10000000000E+04  0.00000000000E+00 0.  1.
    9000005    2    1    2  501    0  0.27047018648E-04 -0.15845031925E-04 -0.89562755209E+03  0.11043724470E+04  0.64613449815E+03 0.  0.
         13    1    3    3    0    0  0.26292805258E+03  0.79101914150E+02 -0.15682708828E+03  0.31620090018E+03  0.00000000000E+00 0.  1.
          3    1    3    3  501    0 -0.26292802553E+03 -0.79101929995E+02 -0.73880046381E+03  0.78817154685E+03  0.00000000000E+00 0.  1.
         21    1    1    2  502  501 -0.27047018601E-04  0.15845031928E-04  0.55377667045E-03  0.55466314731E-03  0.00000000000E+00 0.  1.
<mgrwt>
<rscale>  1 0.64613450E+03</rscale>
<asrwt>0</asrwt>
<pdfrwt beam="1">  1        1 0.37953899E+00 0.64613450E+03</pdfrwt>
<pdfrwt beam="2">0</pdfrwt>
<totfact> 0.16498471E+00</totfact>
</mgrwt>
</event>
<event>
 6    1  0.3721217E-003  0.6439948E+03  0.7818608E-02  0.9818113E-01
          1   -1    0    0  502    0  0.00000000000E+00  0.00000000000E+00  0.10368246098E+03  0.10368246098E+03  0.00000000000E+00 0.  1.
         13   -1    0    0    0    0 -0.00000000000E+00 -0.00000000000E+00 -0.10000000000E+04  0.10000000000E+04  0.00000000000E+00 0.  1.
    9000005    2    1    2  501    0 -0.21985690239E-04  0.14669258235E-04 -0.89631767584E+03  0.11036823216E+04  0.64399479118E+03 0.  0.
         13    1    3    3    0    0  0.21434106333E+03 -0.22674824710E+03 -0.31185512148E+03  0.44114677352E+03  0.00000000000E+00 0.  1.
          3    1    3    3  501    0 -0.21434108531E+03  0.22674826177E+03 -0.58446255435E+03  0.66253554811E+03  0.00000000000E+00 0.  1.
         21    1    1    2  502  501  0.21985690252E-04 -0.14669258238E-04  0.13681328703E-03  0.13934286211E-03  0.00000000000E+00 0.  1.
<mgrwt>
<rscale>  1 0.64399479E+03</rscale>
<asrwt>0</asrwt>
<pdfrwt beam="1">  1        1 0.37702793E+00 0.64399479E+03</pdfrwt>
<pdfrwt beam="2">0</pdfrwt>
<totfact> 0.16931072E+00</totfact>
</mgrwt>
</event>
<event>
 6    1  0.3721217E-003  0.6250438E+03  0.7818608E-02  0.9854769E-01
          1   -1    0    0  502    0  0.00000000000E+00  0.00000000000E+00  0.97671776494E+02  0.97671776494E+02  0.00000000000E+00 0.  1.
         13   -1    0    0    0    0 -0.00000000000E+00 -0.00000000000E+00 -0.10000000000E+04  0.10000000000E+04  0.00000000000E+00 0.  1.
    9000005    2    1    2  501    0 -0.57124344977E-04 -0.64616270237E-04 -0.90233007346E+03  0.10976699245E+04  0.62504375985E+03 0.  0.
         13    1    3    3    0    0 -0.14786859830E+03  0.19536669091E+03 -0.79186088229E+03  0.82890103341E+03  0.00000000000E+00 0.  1.
          1    1    3    3  501    0  0.14786854118E+03 -0.19536675553E+03 -0.11046919117E+03  0.26876889112E+03  0.00000000000E+00 0.  1.
         21    1    1    2  502  501  0.57124344989E-04  0.64616270245E-04  0.18499577205E-02  0.18519670680E-02  0.00000000000E+00 0. -1.
<mgrwt>
<rscale>  1 0.62504376E+03</rscale>
<asrwt>0</asrwt>
<pdfrwt beam="1">  1        1 0.35517085E+00 0.62504376E+03</pdfrwt>
<pdfrwt beam="2">0</pdfrwt>
<totfact> 0.21184487E+00</totfact>
</mgrwt>
</event>
<event>
 6    1  0.3721217E-003  0.6451544E+03  0.7818608E-02  0.9815914E-01
          1   -1    0    0  502    0  0.00000000000E+00  0.00000000000E+00  0.10406095801E+03  0.10406095801E+03  0.00000000000E+00 0.  1.
         13   -1    0    0    0    0 -0.00000000000E+00 -0.00000000000E+00 -0.10000000000E+04  0.10000000000E+04  0.00000000000E+00 0.  1.
    9000005    2    1    2  501    0  0.56759485711E-04 -0.24951428698E-02 -0.89594359552E+03  0.11040557654E+04  0.64515440531E+03 0.  0.
         13    1    3    3    0    0  0.33085717416E+01  0.22084226961E+03 -0.85030284567E+03  0.87851988255E+03  0.00000000000E+00 0.  1.
          3    1    3    3  501    0 -0.33085149821E+01 -0.22084476475E+03 -0.45640749850E+02  0.22553588281E+03  0.00000000000E+00 0.  1.
         21    1    1    2  502  501 -0.56759485711E-04  0.24951428698E-02  0.45535245522E-02  0.51926433949E-02  0.00000000000E+00 0. -1.
<mgrwt>
<rscale>  1 0.64515441E+03</rscale>
<asrwt>0</asrwt>
<pdfrwt beam="1">  1        1 0.37840428E+00 0.64515441E+03</pdfrwt>
<pdfrwt beam="2">0</pdfrwt>
<totfact> 0.16692676E+00</totfact>
</mgrwt>
</event>
<event>
 6    1  0.3721217E-003  0.6388536E+03  0.7818608E-02  0.9827922E-01
          1   -1    0    0  502    0  0.00000000000E+00  0.00000000000E+00  0.11748032910E+03  0.11748032910E+03  0.00000000000E+00 0.  1.
         13   -1    0    0    0    0 -0.00000000000E+00 -0.00000000000E+00 -0.10000000000E+04  0.10000000000E+04  0.00000000000E+00 0.  1.
    9000005    2    1    2  501    0  0.18019289388E+02 -0.13122223074E+02 -0.88856285712E+03  0.10943847099E+04  0.63846460715E+03 0.  0.
         13    1    3    3    0    0 -0.24203505325E+03 -0.14716638002E+03 -0.20149439161E+03  0.34761890090E+03  0.00000000000E+00 0.  1.
          1    1    3    3  501    0  0.26005434264E+03  0.13404415694E+03 -0.68706846551E+03  0.74676580896E+03  0.00000000000E+00 0.  1.
         21    1    1    2  502  501 -0.18019289388E+02  0.13122223074E+02  0.60431862205E+01  0.23095619242E+02  0.00000000000E+00 0. -1.
<mgrwt>
<rscale>  1 0.63885362E+03</rscale>
<asrwt>0</asrwt>
<pdfrwt beam="1">  1        1 0.42720210E+00 0.63885362E+03</pdfrwt>
<pdfrwt beam="2">0</pdfrwt>
<totfact> 0.10119920E+00</totfact>
</mgrwt>
</event>
<event>
 6    1  0.3721217E-003  0.6491847E+03  0.7818608E-02  0.9808310E-01
          1   -1    0    0  502    0  0.00000000000E+00  0.00000000000E+00  0.10939309633E+03  0.10939309633E+03  0.00000000000E+00 0.  1.
         13   -1    0    0    0    0 -0.00000000000E+00 -0.00000000000E+00 -0.10000000000E+04  0.10000000000E+04  0.00000000000E+00 0.  1.
    9000005    2    1    2  501    0 -0.50764200780E+00  0.59187611265E+00 -0.89459811248E+03  0.11053264312E+04  0.64918420234E+03 0.  0.
         13    1    3    3    0    0 -0.23380206968E+03  0.18897688925E+03 -0.23776981051E+03  0.38328860569E+03  0.00000000000E+00 0.  1.
          1    1    3    3  501    0  0.23329442767E+03 -0.18838501314E+03 -0.65682830197E+03  0.72203782548E+03  0.00000000000E+00 0.  1.
         21    1    1    2  502  501  0.50764200780E+00 -0.59187611265E+00  0.39912088082E+01  0.40666651561E+01  0.00000000000E+00 0. -1.
<mgrwt>
<rscale>  1 0.64918467E+03</rscale>
<asrwt>0</asrwt>
<pdfrwt beam="1">  1        1 0.39779392E+00 0.64918467E+03</pdfrwt>
<pdfrwt beam="2">0</pdfrwt>
<totfact> 0.13687030E+00</totfact>
</mgrwt>
</event>
<event>
 6    1  0.3721217E-003  0.6493937E+03  0.7818608E-02  0.9807918E-01
          1   -1    0    0  502    0  0.00000000000E+00  0.00000000000E+00  0.10574027593E+03  0.10574027593E+03  0.00000000000E+00 0.  1.
         13   -1    0    0    0    0 -0.00000000000E+00 -0.00000000000E+00 -0.10000000000E+04  0.10000000000E+04  0.00000000000E+00 0.  1.
    9000005    2    1    2  501    0 -0.57078063076E-01  0.42773198717E-01 -0.89456745567E+03  0.11054243864E+04  0.64939366816E+03 0.  0.
         13    1    3    3    0    0 -0.29435899779E+03 -0.73482216858E+02 -0.64432333766E+03  0.71217934485E+03  0.00000000000E+00 0.  1.
          1    1    3    3  501    0  0.29430191973E+03  0.73524990057E+02 -0.25024411801E+03  0.39324504157E+03  0.00000000000E+00 0.  1.
         21    1    1    2  502  501  0.57078063076E-01 -0.42773198717E-01  0.30773159898E+00  0.31588951996E+00  0.00000000000E+00 0.  1.
<mgrwt>
<rscale>  1 0.64939367E+03</rscale>
<asrwt>0</asrwt>
<pdfrwt beam="1">  1        1 0.38451091E+00 0.64939367E+03</pdfrwt>
<pdfrwt beam="2">0</pdfrwt>
<totfact> 0.15675592E+00</totfact>
</mgrwt>
</event>
<event>
 6    1  0.3721217E-003  0.6394772E+03  0.7818608E-02  0.9826727E-01
          1   -1    0    0  502    0  0.00000000000E+00  0.00000000000E+00  0.10223299970E+03  0.10223299970E+03  0.00000000000E+00 0.  1.
         13   -1    0    0    0    0 -0.00000000000E+00 -0.00000000000E+00 -0.10000000000E+04  0.10000000000E+04  0.00000000000E+00 0.  1.
    9000005    2    1    2  501    0 -0.70886468649E-04  0.27035346464E-03 -0.89776710739E+03  0.11022327004E+04  0.63947724486E+03 0.  0.
         13    1    3    3    0    0 -0.20340592028E+03 -0.12072653537E+02 -0.87359049150E+03  0.89703961128E+03  0.00000000000E+00 0.  1.
          1    1    3    3  501    0  0.20340584940E+03  0.12072923891E+02 -0.24176615891E+02  0.20519308911E+03  0.00000000000E+00 0.  1.
         21    1    1    2  502  501  0.70886468665E-04 -0.27035346464E-03  0.10708974158E-03  0.29930603074E-03  0.00000000000E+00 0.  1.
<mgrwt>
<rscale>  1 0.63947724E+03</rscale>
<asrwt>0</asrwt>
<pdfrwt beam="1">  1        1 0.37175715E+00 0.63947724E+03</pdfrwt>
<pdfrwt beam="2">0</pdfrwt>
<totfact> 0.17874660E+00</totfact>
</mgrwt>
</event>
<event>
 6    1  0.3721217E-003  0.6472863E+03  0.7818608E-02  0.9811885E-01
          1   -1    0    0  502    0  0.00000000000E+00  0.00000000000E+00  0.10479230648E+03  0.10479230648E+03  0.00000000000E+00 0.  1.
         13   -1    0    0    0    0 -0.00000000000E+00 -0.00000000000E+00 -0.10000000000E+04  0.10000000000E+04  0.00000000000E+00 0.  1.
    9000005    2    1    2  501    0 -0.26959586158E-02  0.68643151443E-01 -0.89522592430E+03  0.11047212325E+04  0.64728629003E+03 0.  0.
         13    1    3    3    0    0  0.24997497831E+03  0.20256381988E+03 -0.50770444037E+03  0.60106853992E+03  0.00000000000E+00 0.  1.
          1    1    3    3  501    0 -0.24997767427E+03 -0.20249517673E+03 -0.38752148393E+03  0.50365269257E+03  0.00000000000E+00 0.  1.
         21    1    1    2  502  501  0.26959586158E-02 -0.68643151443E-01  0.18230783526E-01  0.71073988919E-01  0.00000000000E+00 0. -1.
<mgrwt>
<rscale>  1 0.64728629E+03</rscale>
<asrwt>0</asrwt>
<pdfrwt beam="1">  1        1 0.38106374E+00 0.64728629E+03</pdfrwt>
<pdfrwt beam="2">0</pdfrwt>
<totfact> 0.16241389E+00</totfact>
</mgrwt>
</event>
<event>
 6    1  0.3721217E-003  0.6484248E+03  0.7818608E-02  0.9809739E-01
          1   -1    0    0  502    0  0.00000000000E+00  0.00000000000E+00  0.10513932389E+03  0.10513932389E+03  0.00000000000E+00 0.  1.
         13   -1    0    0    0    0 -0.00000000000E+00 -0.00000000000E+00 -0.10000000000E+04  0.10000000000E+04  0.00000000000E+00 0.  1.
    9000005    2    1    2  501    0  0.30380007406E-02  0.42858560106E-02 -0.89488603192E+03  0.11051134296E+04  0.64842476979E+03 0.  0.
         13    1    3    3    0    0 -0.45038316198E+02 -0.15890758202E+03  0.28034658591E+02  0.16752913666E+03  0.00000000000E+00 0.  1.
          3    1    3    3  501    0  0.45041354199E+02  0.15891186787E+03 -0.92292069052E+03  0.93758429292E+03  0.00000000000E+00 0.  1.
         21    1    1    2  502  501 -0.30380007406E-02 -0.42858560106E-02  0.25355812547E-01  0.25894309031E-01  0.00000000000E+00 0. -1.
<mgrwt>
<rscale>  1 0.64842477E+03</rscale>
<asrwt>0</asrwt>
<pdfrwt beam="1">  1        1 0.38232562E+00 0.64842477E+03</pdfrwt>
<pdfrwt beam="2">0</pdfrwt>
<totfact> 0.16030969E+00</totfact>
</mgrwt>
</event>
<event>
 6    1  0.3721217E-003  0.6425191E+03  0.7818608E-02  0.9820919E-01
          1   -1    0    0  502    0  0.00000000000E+00  0.00000000000E+00  0.10325809182E+03  0.10325809182E+03  0.00000000000E+00 0.  1.
         13   -1    0    0    0    0 -0.00000000000E+00 -0.00000000000E+00 -0.10000000000E+04  0.10000000000E+04  0.00000000000E+00 0.  1.
    9000005    2    1    2  501    0  0.49019190773E-02 -0.19346585036E-01 -0.89679011765E+03  0.11032059145E+04  0.64251908476E+03 0.  0.
         13    1    3    3    0    0 -0.21984374287E+02 -0.46570389523E+02 -0.99286852858E+03  0.99420321310E+03  0.00000000000E+00 0.  1.
          3    1    3    3  501    0  0.21989276206E+02  0.46551042938E+02  0.96078410928E+02  0.10900270140E+03  0.00000000000E+00 0.  1.
         21    1    1    2  502  501 -0.49019190773E-02  0.19346585036E-01  0.48209477623E-01  0.52177321662E-01  0.00000000000E+00 0. -1.
<mgrwt>
<rscale>  1 0.64251909E+03</rscale>
<asrwt>0</asrwt>
<pdfrwt beam="1">  1        1 0.37548476E+00 0.64251909E+03</pdfrwt>
<pdfrwt beam="2">0</pdfrwt>
<totfact> 0.17202774E+00</totfact>
</mgrwt>
</event>
<event>
 6    1  0.3721217E-003  0.6461965E+03  0.7818608E-02  0.9813943E-01
          1   -1    0    0  502    0  0.00000000000E+00  0.00000000000E+00  0.10456286762E+03  0.10456286762E+03  0.00000000000E+00 0.  1.
         13   -1    0    0    0    0 -0.00000000000E+00 -0.00000000000E+00 -0.10000000000E+04  0.10000000000E+04  0.00000000000E+00 0.  1.
    9000005    2    1    2  501    0 -0.27613194235E+00  0.30920881909E+00 -0.89526329840E+03  0.11041133377E+04  0.64619634560E+03 0.  0.
         13    1    3    3    0    0 -0.22253710279E+03 -0.20056099025E+03 -0.65439861354E+03  0.71971176059E+03  0.00000000000E+00 0.  1.
          1    1    3    3  501    0  0.22226097084E+03  0.20087019907E+03 -0.24086468486E+03  0.38440157706E+03  0.00000000000E+00 0.  1.
         21    1    1    2  502  501  0.27613194235E+00 -0.30920881909E+00 -0.17383397885E+00  0.44952997185E+00  0.00000000000E+00 0.  1.
<mgrwt>
<rscale>  1 0.64619648E+03</rscale>
<asrwt>0</asrwt>
<pdfrwt beam="1">  1        1 0.38022941E+00 0.64619648E+03</pdfrwt>
<pdfrwt beam="2">0</pdfrwt>
<totfact> 0.16382969E+00</totfact>
</mgrwt>
</event>
<event>
 6    1  0.3721217E-003  0.6543688E+03  0.7818608E-02  0.9798616E-01
          1   -1    0    0  502    0  0.00000000000E+00  0.00000000000E+00  0.10704973229E+03  0.10704973229E+03  0.00000000000E+00 0.  1.
         13   -1    0    0    0    0 -0.00000000000E+00 -0.00000000000E+00 -0.10000000000E+04  0.10000000000E+04  0.00000000000E+00 0.  1.
    9000005    2    1    2  501    0  0.35930297571E-04 -0.21950826209E-04 -0.89295036270E+03  0.11070496284E+04  0.65436880233E+03 0.  0.
         13    1    3    3    0    0  0.19800407753E+03 -0.13511214378E+03 -0.82321025081E+03  0.85740073662E+03  0.00000000000E+00 0.  1.
          3    1    3    3  501    0 -0.19800404160E+03  0.13511212182E+03 -0.69740111890E+02  0.24964889177E+03  0.00000000000E+00 0.  1.
         21    1    1    2  502  501 -0.35930297567E-04  0.21950826203E-04  0.94988190866E-04  0.10390178756E-03  0.00000000000E+00 0.  1.
<mgrwt>
<rscale>  1 0.65436880E+03</rscale>
<asrwt>0</asrwt>
<pdfrwt beam="1">  1        1 0.38927257E+00 0.65436880E+03</pdfrwt>
<pdfrwt beam="2">0</pdfrwt>
<totfact> 0.14919073E+00</totfact>
</mgrwt>
</event>
<event>
 6    1  0.3721217E-003  0.6282431E+03  0.7818608E-02  0.9848483E-01
          1   -1    0    0  502    0  0.00000000000E+00  0.00000000000E+00  0.98684070726E+02  0.98684070726E+02  0.00000000000E+00 0.  1.
         13   -1    0    0    0    0 -0.00000000000E+00 -0.00000000000E+00 -0.10000000000E+04  0.10000000000E+04  0.00000000000E+00 0.  1.
    9000005    2    1    2  501    0  0.58314856079E-03  0.16207759692E-02 -0.90132759191E+03  0.10986722816E+04  0.62824306948E+03 0.  0.
         13    1    3    3    0    0 -0.27747253272E+03  0.10615842028E+03 -0.27221981658E+03  0.40294446907E+03  0.00000000000E+00 0.  1.
          1    1    3    3  501    0  0.27747311587E+03 -0.10615679951E+03 -0.62910777533E+03  0.69572781250E+03  0.00000000000E+00 0.  1.
         21    1    1    2  502  501 -0.58314856077E-03 -0.16207759692E-02  0.11662637658E-01  0.11789151544E-01  0.00000000000E+00 0.  1.
<mgrwt>
<rscale>  1 0.62824307E+03</rscale>
<asrwt>0</asrwt>
<pdfrwt beam="1">  1        1 0.35885192E+00 0.62824307E+03</pdfrwt>
<pdfrwt beam="2">0</pdfrwt>
<totfact> 0.20402683E+00</totfact>
</mgrwt>
</event>
<event>
 6    1  0.3721217E-003  0.6426805E+03  0.7818608E-02  0.9820612E-01
          1   -1    0    0  502    0  0.00000000000E+00  0.00000000000E+00  0.10429138471E+03  0.10429138471E+03  0.00000000000E+00 0.  1.
         13   -1    0    0    0    0 -0.00000000000E+00 -0.00000000000E+00 -0.10000000000E+04  0.10000000000E+04  0.00000000000E+00 0.  1.
    9000005    2    1    2  501    0 -0.11872955603E+00  0.48016503819E+00 -0.89667466227E+03  0.11032060728E+04  0.64268028167E+03 0.  0.
         13    1    3    3    0    0 -0.23686371146E+02 -0.23059227279E+03 -0.82969792429E+03  0.86147111735E+03  0.00000000000E+00 0.  1.
          1    1    3    3  501    0  0.23567641590E+02  0.23107243783E+03 -0.66976737981E+02  0.24173495545E+03  0.00000000000E+00 0.  1.
         21    1    1    2  502  501  0.11872955603E+00 -0.48016503819E+00  0.96604697836E+00  0.10853119071E+01  0.00000000000E+00 0. -1.
<mgrwt>
<rscale>  1 0.64268047E+03</rscale>
<asrwt>0</asrwt>
<pdfrwt beam="1">  1        1 0.37924220E+00 0.64268047E+03</pdfrwt>
<pdfrwt beam="2">0</pdfrwt>
<totfact> 0.16558799E+00</totfact>
</mgrwt>
</event>
<event>
 6    1  0.3721217E-003  0.6460514E+03  0.7818608E-02  0.9814217E-01
          1   -1    0    0  502    0  0.00000000000E+00  0.00000000000E+00  0.10434565483E+03  0.10434565483E+03  0.00000000000E+00 0.  1.
         13   -1    0    0    0    0 -0.00000000000E+00 -0.00000000000E+00 -0.10000000000E+04  0.10000000000E+04  0.00000000000E+00 0.  1.
    9000005    2    1    2  501    0  0.31032153061E-05 -0.11410655844E-04 -0.89565438847E+03  0.11043456099E+04  0.64605142411E+03 0.  0.
         13    1    3    3    0    0 -0.24901106531E+03  0.49366022869E+02 -0.10637039049E+03  0.27524202956E+03  0.00000000000E+00 0.  1.
          1    1    3    3  501    0  0.24901106841E+03 -0.49366034279E+02 -0.78928399798E+03  0.82910358038E+03  0.00000000000E+00 0.  1.
         21    1    1    2  502  501 -0.31032153077E-05  0.11410655841E-04  0.43303989405E-04  0.44889514481E-04  0.00000000000E+00 0. -1.
<mgrwt>
<rscale>  1 0.64605142E+03</rscale>
<asrwt>0</asrwt>
<pdfrwt beam="1">  1        1 0.37943954E+00 0.64605142E+03</pdfrwt>
<pdfrwt beam="2">0</pdfrwt>
<totfact> 0.16515395E+00</totfact>
</mgrwt>
</event>
<event>
 6    1  0.3721217E-003  0.6568074E+03  0.7818608E-02  0.9794089E-01
          1   -1    0    0  502    0  0.00000000000E+00  0.00000000000E+00  0.10788664665E+03  0.10788664665E+03  0.00000000000E+00 0.  1.
         13   -1    0    0    0    0 -0.00000000000E+00 -0.00000000000E+00 -0.10000000000E+04  0.10000000000E+04  0.00000000000E+00 0.  1.
    9000005    2    1    2  501    0 -0.40596427005E-02  0.30459605851E-02 -0.89215082962E+03  0.11078488283E+04  0.65680737168E+03 0.  0.
         13    1    3    3    0    0  0.18632055581E+03 -0.17109592637E+03 -0.79931251443E+03  0.83838515090E+03  0.00000000000E+00 0.  1.
          3    1    3    3  501    0 -0.18632461545E+03  0.17109897233E+03 -0.92838315192E+02  0.26946367737E+03  0.00000000000E+00 0.  1.
         21    1    1    2  502  501  0.40596427005E-02 -0.30459605851E-02  0.37476273896E-01  0.37818377541E-01  0.00000000000E+00 0.  1.
<mgrwt>
<rscale>  1 0.65680737E+03</rscale>
<asrwt>0</asrwt>
<pdfrwt beam="1">  1        1 0.39231591E+00 0.65680737E+03</pdfrwt>
<pdfrwt beam="2">0</pdfrwt>
<totfact> 0.14455831E+00</totfact>
</mgrwt>
</event>
<event>
 6    1  0.3721217E-003  0.6492658E+03  0.7818608E-02  0.9808158E-01
          1   -1    0    0  502    0  0.00000000000E+00  0.00000000000E+00  0.10554054359E+03  0.10554054359E+03  0.00000000000E+00 0.  1.
         13   -1    0    0    0    0 -0.00000000000E+00 -0.00000000000E+00 -0.10000000000E+04  0.10000000000E+04  0.00000000000E+00 0.  1.
    9000005    2    1    2  501    0 -0.23529445319E-01 -0.13865446369E+00 -0.89457717423E+03  0.11053571419E+04  0.64926579357E+03 0.  0.
         13    1    3    3    0    0  0.76632746533E+01 -0.23262728892E+03 -0.61964069008E+02  0.24086038938E+03  0.00000000000E+00 0.  1.
          1    1    3    3  501    0 -0.76868040986E+01  0.23248863445E+03 -0.83261310523E+03  0.86449675251E+03  0.00000000000E+00 0.  1.
         21    1    1    2  502  501  0.23529445319E-01  0.13865446369E+00  0.11771781915E+00  0.18340169040E+00  0.00000000000E+00 0.  1.
<mgrwt>
<rscale>  1 0.64926581E+03</rscale>
<asrwt>0</asrwt>
<pdfrwt beam="1">  1        1 0.38378460E+00 0.64926581E+03</pdfrwt>
<pdfrwt beam="2">0</pdfrwt>
<totfact> 0.15792299E+00</totfact>
</mgrwt>
</event>
<event>
 6    1  0.3721217E-003  0.6484230E+03  0.7818608E-02  0.9809743E-01
          1   -1    0    0  502    0  0.00000000000E+00  0.00000000000E+00  0.10511314639E+03  0.10511314639E+03  0.00000000000E+00 0.  1.
         13   -1    0    0    0    0 -0.00000000000E+00 -0.00000000000E+00 -0.10000000000E+04  0.10000000000E+04  0.00000000000E+00 0.  1.
    9000005    2    1    2  501    0  0.51953448896E-04  0.81100091336E-05 -0.89488688808E+03  0.11051130835E+04  0.64842299842E+03 0.  0.
         13    1    3    3    0    0 -0.33191109904E+02  0.22380597069E+03 -0.84320413158E+03  0.87303148271E+03  0.00000000000E+00 0.  1.
          3    1    3    3  501    0  0.33191161857E+02 -0.22380596258E+03 -0.51682756506E+02  0.23208160080E+03  0.00000000000E+00 0.  1.
         21    1    1    2  502  501 -0.51953448896E-04 -0.81100091104E-05  0.34472250893E-04  0.62875028283E-04  0.00000000000E+00 0.  1.
<mgrwt>
<rscale>  1 0.64842300E+03</rscale>
<asrwt>0</asrwt>
<pdfrwt beam="1">  1        1 0.38223043E+00 0.64842300E+03</pdfrwt>
<pdfrwt beam="2">0</pdfrwt>
<totfact> 0.16046503E+00</totfact>
</mgrwt>
</event>
<event>
 6    1  0.3721217E-003  0.6826287E+03  0.7818608E-02  0.9747409E-01
          1   -1    0    0  502    0  0.00000000000E+00  0.00000000000E+00  0.11656658717E+03  0.11656658717E+03  0.00000000000E+00 0.  1.
         13   -1    0    0    0    0 -0.00000000000E+00 -0.00000000000E+00 -0.10000000000E+04  0.10000000000E+04  0.00000000000E+00 0.  1.
    9000005    2    1    2  501    0  0.51837758377E-02  0.15853779670E-02 -0.88350440309E+03  0.11164953902E+04  0.68262868832E+03 0.  0.
         13    1    3    3    0    0  0.26137858086E+03  0.16283397801E+03 -0.68248845785E+03  0.74874839701E+03  0.00000000000E+00 0.  1.
          3    1    3    3  501    0 -0.26137339708E+03 -0.16283239263E+03 -0.20101594524E+03  0.36774699323E+03  0.00000000000E+00 0.  1.
         21    1    1    2  502  501 -0.51837758377E-02 -0.15853779670E-02  0.70990262122E-01  0.71196925997E-01  0.00000000000E+00 0. -1.
<mgrwt>
<rscale>  1 0.68262869E+03</rscale>
<asrwt>0</asrwt>
<pdfrwt beam="1">  1        1 0.42387939E+00 0.68262869E+03</pdfrwt>
<pdfrwt beam="2">0</pdfrwt>
<totfact> 0.10386691E+00</totfact>
</mgrwt>
</event>
<event>
 6    1  0.3721217E-003  0.6556535E+03  0.7818608E-02  0.9796228E-01
          1   -1    0    0  502    0  0.00000000000E+00  0.00000000000E+00  0.10747038854E+03  0.10747038854E+03  0.00000000000E+00 0.  1.
         13   -1    0    0    0    0 -0.00000000000E+00 -0.00000000000E+00 -0.10000000000E+04  0.10000000000E+04  0.00000000000E+00 0.  1.
    9000005    2    1    2  501    0 -0.25381532431E-05  0.76046478625E-06 -0.89252961704E+03  0.11074703824E+04  0.65565351408E+03 0.  0.
         13    1    3    3    0    0 -0.30091675088E+02 -0.17024778671E+03  0.24207640209E+02  0.17457327297E+03  0.00000000000E+00 0.  1.
          1    1    3    3  501    0  0.30091672550E+02  0.17024778747E+03 -0.91673725725E+03  0.93289710940E+03  0.00000000000E+00 0.  1.
         21    1    1    2  502  501  0.25381532430E-05 -0.76046478396E-06  0.55833914931E-05  0.61801932929E-05  0.00000000000E+00 0. -1.
<mgrwt>
<rscale>  1 0.65565351E+03</rscale>
<asrwt>0</asrwt>
<pdfrwt beam="1">  1        1 0.39080224E+00 0.65565351E+03</pdfrwt>
<pdfrwt beam="2">0</pdfrwt>
<totfact> 0.14684343E+00</totfact>
</mgrwt>
</event>
<event>
 6    1  0.3721217E-003  0.6438585E+03  0.7818608E-02  0.9818372E-01
          1   -1    0    0  502    0  0.00000000000E+00  0.00000000000E+00  0.10363866089E+03  0.10363866089E+03  0.00000000000E+00 0.  1.
         13   -1    0    0    0    0 -0.00000000000E+00 -0.00000000000E+00 -0.10000000000E+04  0.10000000000E+04  0.00000000000E+00 0.  1.
    9000005    2    1    2  501    0 -0.19985327592E-03 -0.56323395825E-04 -0.89636150342E+03  0.11036383961E+04  0.64385849731E+03 0.  0.
         13    1    3    3    0    0  0.13066189572E+03  0.28748025104E+03 -0.55551366842E+03  0.63899363184E+03  0.00000000000E+00 0.  1.
          1    1    3    3  501    0 -0.13066209558E+03 -0.28748030736E+03 -0.34084783499E+03  0.46464476427E+03  0.00000000000E+00 0.  1.
         21    1    1    2  502  501  0.19985327594E-03  0.56323395793E-04  0.16430819749E-03  0.26478451726E-03  0.00000000000E+00 0. -1.
<mgrwt>
<rscale>  1 0.64385850E+03</rscale>
<asrwt>0</asrwt>
<pdfrwt beam="1">  1        1 0.37686865E+00 0.64385850E+03</pdfrwt>
<pdfrwt beam="2">0</pdfrwt>
<totfact> 0.16958875E+00</totfact>
</mgrwt>
</event>
<event>
 6    1  0.3721217E-003  0.6493030E+03  0.7818608E-02  0.9808088E-01
          1   -1    0    0  502    0  0.00000000000E+00  0.00000000000E+00  0.10539859266E+03  0.10539859266E+03  0.00000000000E+00 0.  1.
         13   -1    0    0    0    0 -0.00000000000E+00 -0.00000000000E+00 -0.10000000000E+04  0.10000000000E+04  0.00000000000E+00 0.  1.
    9000005    2    1    2  501    0 -0.11281658772E-05  0.74857098298E-09 -0.89460140865E+03  0.11053985909E+04  0.64930298358E+03 0.  0.
         13    1    3    3    0    0 -0.27414346801E+03 -0.17344119304E+03 -0.46897609635E+03  0.57024123618E+03  0.00000000000E+00 0.  1.
          3    1    3    3  501    0  0.27414346688E+03  0.17344119304E+03 -0.42562531230E+03  0.53515735475E+03  0.00000000000E+00 0.  1.
         21    1    1    2  502  501  0.11281659000E-05 -0.74856125279E-09  0.13069462241E-05  0.17265188359E-05  0.00000000000E+00 0.  1.
<mgrwt>
<rscale>  1 0.64930298E+03</rscale>
<asrwt>0</asrwt>
<pdfrwt beam="1">  1        1 0.38326842E+00 0.64930298E+03</pdfrwt>
<pdfrwt beam="2">0</pdfrwt>
<totfact> 0.15875372E+00</totfact>
</mgrwt>
</event>
<event>
 6    1  0.3721217E-003  0.6053703E+03  0.7818608E-02  0.9894327E-01
          1   -1    0    0  502    0  0.00000000000E+00  0.00000000000E+00  0.91752828675E+02  0.91752828675E+02  0.00000000000E+00 0.  1.
         13   -1    0    0    0    0 -0.00000000000E+00 -0.00000000000E+00 -0.10000000000E+04  0.10000000000E+04  0.00000000000E+00 0.  1.
    9000005    2    1    2  501    0 -0.17783904294E-02 -0.67484110778E-01 -0.90837239325E+03  0.10916105691E+04  0.60537032064E+03 0.  0.
         13    1    3    3    0    0 -0.21467879184E+02  0.28051133652E+03 -0.65535652506E+03  0.71318977467E+03  0.00000000000E+00 0.  1.
          3    1    3    3  501    0  0.21466100794E+02 -0.28057882063E+03 -0.25301586819E+03  0.37842079439E+03  0.00000000000E+00 0.  1.
         21    1    1    2  502  501  0.17783904294E-02  0.67484110778E-01  0.12522192329E+00  0.14225961462E+00  0.00000000000E+00 0. -1.
<mgrwt>
<rscale>  1 0.60537032E+03</rscale>
<asrwt>0</asrwt>
<pdfrwt beam="1">  1        1 0.33364735E+00 0.60537032E+03</pdfrwt>
<pdfrwt beam="2">0</pdfrwt>
<totfact> 0.26372974E+00</totfact>
</mgrwt>
</event>
<event>
 6    1  0.3721217E-003  0.6473149E+03  0.7818608E-02  0.9811831E-01
          1   -1    0    0  502    0  0.00000000000E+00  0.00000000000E+00  0.10476646790E+03  0.10476646790E+03  0.00000000000E+00 0.  1.
         13   -1    0    0    0    0 -0.00000000000E+00 -0.00000000000E+00 -0.10000000000E+04  0.10000000000E+04  0.00000000000E+00 0.  1.
    9000005    2    1    2  501    0 -0.30525243795E-03 -0.66674586873E-03 -0.89524585741E+03  0.11047541208E+04  0.64731485554E+03 0.  0.
         13    1    3    3    0    0  0.96864268311E+02 -0.26444387423E+03 -0.71984158514E+03  0.77297164035E+03  0.00000000000E+00 0.  1.
          1    1    3    3  501    0 -0.96864573563E+02  0.26444320749E+03 -0.17540427227E+03  0.33178248044E+03  0.00000000000E+00 0.  1.
         21    1    1    2  502  501  0.30525243795E-03  0.66674586873E-03  0.12325313632E-01  0.12347108376E-01  0.00000000000E+00 0. -1.
<mgrwt>
<rscale>  1 0.64731486E+03</rscale>
<asrwt>0</asrwt>
<pdfrwt beam="1">  1        1 0.38096978E+00 0.64731486E+03</pdfrwt>
<pdfrwt beam="2">0</pdfrwt>
<totfact> 0.16256823E+00</totfact>
</mgrwt>
</event>
<event>
 6    1  0.3721217E-003  0.5768645E+03  0.7818608E-02  0.9954602E-01
          1   -1    0    0  502    0  0.00000000000E+00  0.00000000000E+00  0.89706369201E+02  0.89706369201E+02  0.00000000000E+00 0.  1.
         13   -1    0    0    0    0 -0.00000000000E+00 -0.00000000000E+00 -0.10000000000E+04  0.10000000000E+04  0.00000000000E+00 0.  1.
    9000005    2    1    2  501    0  0.14983175545E+00 -0.37881306876E+00 -0.91679993816E+03  0.10831873214E+04  0.57686435203E+03 0.  0.
         13    1    3    3    0    0 -0.14291470905E+03  0.19060463993E+03 -0.76291501398E+03  0.79924593298E+03  0.00000000000E+00 0.  1.
          1    1    3    3  501    0  0.14306454081E+03 -0.19098345300E+03 -0.15388492418E+03  0.28394138840E+03  0.00000000000E+00 0.  1.
         21    1    1    2  502  501 -0.14983175545E+00  0.37881306876E+00  0.65063073652E+01  0.65190478160E+01  0.00000000000E+00 0.  1.
<mgrwt>
<rscale>  1 0.57686450E+03</rscale>
<asrwt>0</asrwt>
<pdfrwt beam="1">  1        1 0.32620567E+00 0.57686450E+03</pdfrwt>
<pdfrwt beam="2">0</pdfrwt>
<totfact> 0.28552671E+00</totfact>
</mgrwt>
</event>
<event>
 6    1  0.3721217E-003  0.6456122E+03  0.7818608E-02  0.9815048E-01
          1   -1    0    0  502    0  0.00000000000E+00  0.00000000000E+00  0.10422281093E+03  0.10422281093E+03  0.00000000000E+00 0.  1.
         13   -1    0    0    0    0 -0.00000000000E+00 -0.00000000000E+00 -0.10000000000E+04  0.10000000000E+04  0.00000000000E+00 0.  1.
    9000005    2    1    2  501    0  0.10311176281E-02  0.20195144930E-03 -0.89579620132E+03  0.11042037697E+04  0.64561221383E+03 0.  0.
         13    1    3    3    0    0 -0.94474121242E+02  0.30225999674E+03 -0.55494387738E+03  0.63894379429E+03  0.00000000000E+00 0.  1.
          1    1    3    3  501    0  0.94475152360E+02 -0.30225979479E+03 -0.34085232394E+03  0.46525997538E+03  0.00000000000E+00 0.  1.
         21    1    1    2  502  501 -0.10311176281E-02 -0.20195144930E-03  0.19012254111E-01  0.19041265565E-01  0.00000000000E+00 0.  1.
<mgrwt>
<rscale>  1 0.64561221E+03</rscale>
<asrwt>0</asrwt>
<pdfrwt beam="1">  1        1 0.37899284E+00 0.64561221E+03</pdfrwt>
<pdfrwt beam="2">0</pdfrwt>
<totfact> 0.16591828E+00</totfact>
</mgrwt>
</event>
<event>
 6    1  0.3721217E-003  0.6503043E+03  0.7818608E-02  0.9806208E-01
          1   -1    0    0  502    0  0.00000000000E+00  0.00000000000E+00  0.10599806737E+03  0.10599806737E+03  0.00000000000E+00 0.  1.
         13   -1    0    0    0    0 -0.00000000000E+00 -0.00000000000E+00 -0.10000000000E+04  0.10000000000E+04  0.00000000000E+00 0.  1.
    9000005    2    1    2  501    0 -0.11479791960E+00  0.27698584004E-01 -0.89426194622E+03  0.11057124928E+04  0.65030429362E+03 0.  0.
         13    1    3    3    0    0  0.19533947761E+03  0.23824907185E+03 -0.62369933281E+03  0.69564429812E+03  0.00000000000E+00 0.  1.
          3    1    3    3  501    0 -0.19545427553E+03 -0.23822137327E+03 -0.27056261341E+03  0.41006819467E+03  0.00000000000E+00 0.  1.
         21    1    1    2  502  501  0.11479791960E+00 -0.27698584004E-01  0.26001359390E+00  0.28557458381E+00  0.00000000000E+00 0. -1.
<mgrwt>
<rscale>  1 0.65030430E+03</rscale>
<asrwt>0</asrwt>
<pdfrwt beam="1">  1        1 0.38544833E+00 0.65030430E+03</pdfrwt>
<pdfrwt beam="2">0</pdfrwt>
<totfact> 0.15524033E+00</totfact>
</mgrwt>
</event>
<event>
 6    1  0.3721217E-003  0.6522060E+03  0.7818608E-02  0.9802649E-01
          1   -1    0    0  502    0  0.00000000000E+00  0.00000000000E+00  0.10663409466E+03  0.10663409466E+03  0.00000000000E+00 0.  1.
         13   -1    0    0    0    0 -0.00000000000E+00 -0.00000000000E+00 -0.10000000000E+04  0.10000000000E+04  0.00000000000E+00 0.  1.
    9000005    2    1    2  501    0  0.10594600160E-01 -0.79008009296E-02 -0.89365665989E+03  0.11063430399E+04  0.65220602266E+03 0.  0.
         13    1    3    3    0    0 -0.15228439854E+03 -0.28734691889E+03 -0.48785939201E+03  0.58631525326E+03  0.00000000000E+00 0.  1.
          1    1    3    3  501    0  0.15229499314E+03  0.28733901809E+03 -0.40579726788E+03  0.52002778663E+03  0.00000000000E+00 0.  1.
         21    1    1    2  502  501 -0.10594600160E-01  0.79008009296E-02  0.29075455313E+00  0.29105476869E+00  0.00000000000E+00 0.  1.
<mgrwt>
<rscale>  1 0.65220602E+03</rscale>
<asrwt>0</asrwt>
<pdfrwt beam="1">  1        1 0.38776116E+00 0.65220602E+03</pdfrwt>
<pdfrwt beam="2">0</pdfrwt>
<totfact> 0.15157002E+00</totfact>
</mgrwt>
</event>
<event>
 6    1  0.3721217E-003  0.6467143E+03  0.7818608E-02  0.9812964E-01
          1   -1    0    0  502    0  0.00000000000E+00  0.00000000000E+00  0.10456117289E+03  0.10456117289E+03  0.00000000000E+00 0.  1.
         13   -1    0    0    0    0 -0.00000000000E+00 -0.00000000000E+00 -0.10000000000E+04  0.10000000000E+04  0.00000000000E+00 0.  1.
    9000005    2    1    2  501    0 -0.80683577323E-04 -0.23283318399E-04 -0.89544015917E+03  0.11045598382E+04  0.64671427810E+03 0.  0.
         13    1    3    3    0    0 -0.13295355354E+03  0.29044005673E+03 -0.53359089096E+03  0.62189332917E+03  0.00000000000E+00 0.  1.
          3    1    3    3  501    0  0.13295347286E+03 -0.29044008002E+03 -0.36184926821E+03  0.48266650902E+03  0.00000000000E+00 0.  1.
         21    1    1    2  502  501  0.80683577325E-04  0.23283318420E-04  0.13320571308E-02  0.13347015218E-02  0.00000000000E+00 0. -1.
<mgrwt>
<rscale>  1 0.64671428E+03</rscale>
<asrwt>0</asrwt>
<pdfrwt beam="1">  1        1 0.38022325E+00 0.64671428E+03</pdfrwt>
<pdfrwt beam="2">0</pdfrwt>
<totfact> 0.16382435E+00</totfact>
</mgrwt>
</event>
<event>
 6    1  0.3721217E-003  0.6549706E+03  0.7818608E-02  0.9797497E-01
          1   -1    0    0  502    0  0.00000000000E+00  0.00000000000E+00  0.10724676916E+03  0.10724676916E+03  0.00000000000E+00 0.  1.
         13   -1    0    0    0    0 -0.00000000000E+00 -0.00000000000E+00 -0.10000000000E+04  0.10000000000E+04  0.00000000000E+00 0.  1.
    9000005    2    1    2  501    0  0.36156479837E-05  0.19173599851E-03 -0.89275331662E+03  0.11072465591E+04  0.65497057815E+03 0.  0.
         13    1    3    3    0    0 -0.22312817544E+03 -0.10301827771E+03 -0.81228000579E+03  0.84864465828E+03  0.00000000000E+00 0.  1.
          1    1    3    3  501    0  0.22312817906E+03  0.10301846945E+03 -0.80473310832E+02  0.25860190079E+03  0.00000000000E+00 0.  1.
         21    1    1    2  502  501 -0.36156479689E-05 -0.19173599851E-03  0.85780319956E-04  0.21008100659E-03  0.00000000000E+00 0. -1.
<mgrwt>
<rscale>  1 0.65497058E+03</rscale>
<asrwt>0</asrwt>
<pdfrwt beam="1">  1        1 0.38998907E+00 0.65497058E+03</pdfrwt>
<pdfrwt beam="2">0</pdfrwt>
<totfact> 0.14808685E+00</totfact>
</mgrwt>
</event>
<event>
 6    1  0.3721217E-003  0.6469083E+03  0.7818608E-02  0.9812598E-01
          1   -1    0    0  502    0  0.00000000000E+00  0.00000000000E+00  0.10462257843E+03  0.10462257843E+03  0.00000000000E+00 0.  1.
         13   -1    0    0    0    0 -0.00000000000E+00 -0.00000000000E+00 -0.10000000000E+04  0.10000000000E+04  0.00000000000E+00 0.  1.
    9000005    2    1    2  501    0 -0.60956211598E-05 -0.26603549941E-06 -0.89537742130E+03  0.11046225723E+04  0.64690826298E+03 0.  0.
         13    1    3    3    0    0  0.16627479665E+03 -0.26781907709E+03 -0.32398670273E+03  0.45204175648E+03  0.00000000000E+00 0.  1.
          3    1    3    3  501    0 -0.16627480274E+03  0.26781907683E+03 -0.57139071857E+03  0.65258081584E+03  0.00000000000E+00 0.  1.
         21    1    1    2  502  501  0.60956211729E-05  0.26603554681E-06 -0.26930965736E-06  0.61073644142E-05  0.00000000000E+00 0. -1.
<mgrwt>
<rscale>  1 0.64690826E+03</rscale>
<asrwt>0</asrwt>
<pdfrwt beam="1">  1        1 0.38044654E+00 0.64690826E+03</pdfrwt>
<pdfrwt beam="2">0</pdfrwt>
<totfact> 0.16344724E+00</totfact>
</mgrwt>
</event>
<event>
 6    1  0.3721217E-003  0.6434902E+03  0.7818608E-02  0.9819072E-01
          1   -1    0    0  502    0  0.00000000000E+00  0.00000000000E+00  0.10352373572E+03  0.10352373572E+03  0.00000000000E+00 0.  1.
         13   -1    0    0    0    0 -0.00000000000E+00 -0.00000000000E+00 -0.10000000000E+04  0.10000000000E+04  0.00000000000E+00 0.  1.
    9000005    2    1    2  501    0 -0.45714070460E-04 -0.11794319239E-03 -0.89648010213E+03  0.11035198958E+04  0.64349016066E+03 0.  0.
         13    1    3    3    0    0 -0.48299202225E+02  0.61506657271E+02 -0.98345306636E+03  0.98655755816E+03  0.00000000000E+00 0.  1.
          1    1    3    3  501    0  0.48299156511E+02 -0.61506775214E+02  0.86972964227E+02  0.11696233763E+03  0.00000000000E+00 0.  1.
         21    1    1    2  502  501  0.45714070461E-04  0.11794319239E-03  0.38378565056E-02  0.38399404853E-02  0.00000000000E+00 0.  1.
<mgrwt>
<rscale>  1 0.64349016E+03</rscale>
<asrwt>0</asrwt>
<pdfrwt beam="1">  1        1 0.37645074E+00 0.64349016E+03</pdfrwt>
<pdfrwt beam="2">0</pdfrwt>
<totfact> 0.17032066E+00</totfact>
</mgrwt>
</event>
<event>
 6    1  0.3721217E-003  0.6371148E+03  0.7818608E-02  0.9831262E-01
          1   -1    0    0  502    0  0.00000000000E+00  0.00000000000E+00  0.11162991870E+03  0.11162991870E+03  0.00000000000E+00 0.  1.
         13   -1    0    0    0    0 -0.00000000000E+00 -0.00000000000E+00 -0.10000000000E+04  0.10000000000E+04  0.00000000000E+00 0.  1.
    9000005    2    1    2  501    0 -0.15139944893E+00 -0.27877391191E+00 -0.89851843897E+03  0.11014766040E+04  0.63711476461E+03 0.  0.
         13    1    3    3    0    0 -0.28703698334E+03  0.12178530360E+03 -0.33635564148E+03  0.45864693123E+03  0.00000000000E+00 0.  1.
          3    1    3    3  501    0  0.28688558389E+03 -0.12206407751E+03 -0.56216279749E+03  0.64282967273E+03  0.00000000000E+00 0.  1.
         21    1    1    2  502  501  0.15139944893E+00  0.27877391191E+00  0.10148357666E+02  0.10153314730E+02  0.00000000000E+00 0. -1.
<mgrwt>
<rscale>  1 0.63711484E+03</rscale>
<asrwt>0</asrwt>
<pdfrwt beam="1">  1        1 0.40592783E+00 0.63711484E+03</pdfrwt>
<pdfrwt beam="2">0</pdfrwt>
<totfact> 0.12619331E+00</totfact>
</mgrwt>
</event>
<event>
 6    1  0.3721217E-003  0.6380811E+03  0.7818608E-02  0.9829405E-01
          1   -1    0    0  502    0  0.00000000000E+00  0.00000000000E+00  0.10178736773E+03  0.10178736773E+03  0.00000000000E+00 0.  1.
         13   -1    0    0    0    0 -0.00000000000E+00 -0.00000000000E+00 -0.10000000000E+04  0.10000000000E+04  0.00000000000E+00 0.  1.
    9000005    2    1    2  501    0 -0.19499215625E-04  0.24237380813E-05 -0.89821313463E+03  0.11017868650E+04  0.63808107685E+03 0.  0.
         13    1    3    3    0    0 -0.13941579691E+03 -0.59524171185E+02  0.35628068726E+02  0.15572170903E+03  0.00000000000E+00 0.  1.
          1    1    3    3  501    0  0.13941577741E+03  0.59524173609E+02 -0.93384120335E+03  0.94606515596E+03  0.00000000000E+00 0.  1.
         21    1    1    2  502  501  0.19499215620E-04 -0.24237380776E-05  0.50235905974E-03  0.50274319371E-03  0.00000000000E+00 0. -1.
<mgrwt>
<rscale>  1 0.63808108E+03</rscale>
<asrwt>0</asrwt>
<pdfrwt beam="1">  1        1 0.37013666E+00 0.63808108E+03</pdfrwt>
<pdfrwt beam="2">0</pdfrwt>
<totfact> 0.18174741E+00</totfact>
</mgrwt>
</event>
<event>
 6    1  0.3721217E-003  0.6577904E+03  0.7818608E-02  0.9792270E-01
          1   -1    0    0  502    0  0.00000000000E+00  0.00000000000E+00  0.10819106558E+03  0.10819106558E+03  0.00000000000E+00 0.  1.
         13   -1    0    0    0    0 -0.00000000000E+00 -0.00000000000E+00 -0.10000000000E+04  0.10000000000E+04  0.00000000000E+00 0.  1.
    9000005    2    1    2  501    0 -0.53275666381E-02  0.62595318317E-03 -0.89182753561E+03  0.11081717064E+04  0.65779037505E+03 0.  0.
         13    1    3    3    0    0 -0.29395146453E+03  0.13964567268E+03 -0.52610055675E+03  0.61861957067E+03  0.00000000000E+00 0.  1.
          3    1    3    3  501    0  0.29394613696E+03 -0.13964504673E+03 -0.36572697885E+03  0.48955213570E+03  0.00000000000E+00 0.  1.
         21    1    1    2  502  501  0.53275666381E-02 -0.62595318316E-03  0.18601183648E-01  0.19359204962E-01  0.00000000000E+00 0.  1.
<mgrwt>
<rscale>  1 0.65779038E+03</rscale>
<asrwt>0</asrwt>
<pdfrwt beam="1">  1        1 0.39342289E+00 0.65779038E+03</pdfrwt>
<pdfrwt beam="2">0</pdfrwt>
<totfact> 0.14290483E+00</totfact>
</mgrwt>
</event>
<event>
 6    1  0.3721217E-003  0.6440055E+03  0.7818608E-02  0.9818093E-01
          1   -1    0    0  502    0  0.00000000000E+00  0.00000000000E+00  0.11079227218E+03  0.11079227218E+03  0.00000000000E+00 0.  1.
         13   -1    0    0    0    0 -0.00000000000E+00 -0.00000000000E+00 -0.10000000000E+04  0.10000000000E+04  0.00000000000E+00 0.  1.
    9000005    2    1    2  501    0  0.36170513199E+01  0.17204297798E+02 -0.83949063073E+03  0.10580584058E+04  0.64376548525E+03 0.  0.
         13    1    3    3    0    0 -0.23773559577E+03  0.21020394729E+03 -0.30206444137E+03  0.43811738118E+03  0.00000000000E+00 0.  1.
          1    1    3    3  501    0  0.24135264709E+03 -0.19299964949E+03 -0.53742618936E+03  0.61994102459E+03  0.00000000000E+00 0.  1.
         21    1    1    2  502  501 -0.36170513199E+01 -0.17204297798E+02 -0.49717097099E+02  0.52733866414E+02  0.00000000000E+00 0. -1.
<mgrwt>
<rscale>  1 0.64400549E+03</rscale>
<asrwt>0</asrwt>
<pdfrwt beam="1">  1        1 0.40288184E+00 0.64400549E+03</pdfrwt>
<pdfrwt beam="2">0</pdfrwt>
<totfact> 0.13003488E+00</totfact>
</mgrwt>
</event>
<event>
 6    1  0.3721217E-003  0.6516581E+03  0.7818608E-02  0.9803673E-01
          1   -1    0    0  502    0  0.00000000000E+00  0.00000000000E+00  0.10735679179E+03  0.10735679179E+03  0.00000000000E+00 0.  1.
         13   -1    0    0    0    0 -0.00000000000E+00 -0.00000000000E+00 -0.10000000000E+04  0.10000000000E+04  0.00000000000E+00 0.  1.
    9000005    2    1    2  501    0 -0.41703831315E-01 -0.87040143079E-01 -0.89383326832E+03  0.11061628243E+04  0.65165809525E+03 0.  0.
         13    1    3    3    0    0  0.29653891982E+03  0.89335680421E+02 -0.27520221758E+03  0.41430961288E+03  0.00000000000E+00 0.  1.
          3    1    3    3  501    0 -0.29658062366E+03 -0.89422720564E+02 -0.61863105074E+03  0.69185321147E+03  0.00000000000E+00 0.  1.
         21    1    1    2  502  501  0.41703831315E-01  0.87040143079E-01  0.11900601078E+01  0.11939674436E+01  0.00000000000E+00 0. -1.
<mgrwt>
<rscale>  1 0.65165810E+03</rscale>
<asrwt>0</asrwt>
<pdfrwt beam="1">  1        1 0.39038916E+00 0.65165810E+03</pdfrwt>
<pdfrwt beam="2">0</pdfrwt>
<totfact> 0.14757388E+00</totfact>
</mgrwt>
</event>
<event>
 6    1  0.3721217E-003  0.6177616E+03  0.7818608E-02  0.9869226E-01
          1   -1    0    0  502    0  0.00000000000E+00  0.00000000000E+00  0.95505809006E+02  0.95505809006E+02  0.00000000000E+00 0.  1.
         13   -1    0    0    0    0 -0.00000000000E+00 -0.00000000000E+00 -0.10000000000E+04  0.10000000000E+04  0.00000000000E+00 0.  1.
    9000005    2    1    2  501    0 -0.15760397807E-01  0.63227694849E-01 -0.90458070563E+03  0.10953974997E+04  0.61776162477E+03 0.  0.
         13    1    3    3    0    0  0.25255862695E+03  0.12423251424E+03 -0.22666976278E+03  0.36138450299E+03  0.00000000000E+00 0.  1.
          3    1    3    3  501    0 -0.25257438734E+03 -0.12416928655E+03 -0.67791094284E+03  0.73401299668E+03  0.00000000000E+00 0.  1.
         21    1    1    2  502  501  0.15760397807E-01 -0.63227694849E-01  0.86514632192E-01  0.10830933994E+00  0.00000000000E+00 0. -1.
<mgrwt>
<rscale>  1 0.61776163E+03</rscale>
<asrwt>0</asrwt>
<pdfrwt beam="1">  1        1 0.34729458E+00 0.61776163E+03</pdfrwt>
<pdfrwt beam="2">0</pdfrwt>
<totfact> 0.22957202E+00</totfact>
</mgrwt>
</event>
<event>
 6    1  0.3721217E-003  0.6458850E+03  0.7818608E-02  0.9814531E-01
          1   -1    0    0  502    0  0.00000000000E+00  0.00000000000E+00  0.10487907447E+03  0.10487907447E+03  0.00000000000E+00 0.  1.
         13   -1    0    0    0    0 -0.00000000000E+00 -0.00000000000E+00 -0.10000000000E+04  0.10000000000E+04  0.00000000000E+00 0.  1.
    9000005    2    1    2  501    0 -0.86457857263E+00 -0.22239455579E+00 -0.89530762356E+03  0.11039670374E+04  0.64588441840E+03 0.  0.
         13    1    3    3    0    0 -0.29693798023E+03 -0.85168055019E+02 -0.61166676241E+03  0.68524593391E+03  0.00000000000E+00 0.  1.
          1    1    3    3  501    0  0.29607340166E+03  0.84945660463E+02 -0.28364086115E+03  0.41872110350E+03  0.00000000000E+00 0.  1.
         21    1    1    2  502  501  0.86457857263E+00  0.22239455579E+00  0.18669802185E+00  0.91203705958E+00  0.00000000000E+00 0. -1.
<mgrwt>
<rscale>  1 0.64588504E+03</rscale>
<asrwt>0</asrwt>
<pdfrwt beam="1">  1        1 0.38137926E+00 0.64588504E+03</pdfrwt>
<pdfrwt beam="2">0</pdfrwt>
<totfact> 0.16193559E+00</totfact>
</mgrwt>
</event>
<event>
 6    1  0.3721217E-003  0.6552538E+03  0.7818608E-02  0.9796970E-01
          1   -1    0    0  502    0  0.00000000000E+00  0.00000000000E+00  0.10734065685E+03  0.10734065685E+03  0.00000000000E+00 0.  1.
         13   -1    0    0    0    0 -0.00000000000E+00 -0.00000000000E+00 -0.10000000000E+04  0.10000000000E+04  0.00000000000E+00 0.  1.
    9000005    2    1    2  501    0 -0.56888009689E-03  0.88426382709E-03 -0.89266037432E+03  0.11073391841E+04  0.65525378660E+03 0.  0.
         13    1    3    3    0    0 -0.16892885709E+03  0.12423305997E+02  0.27601005602E+02  0.17161909218E+03  0.00000000000E+00 0.  1.
          3    1    3    3  501    0  0.16892828821E+03 -0.12422421733E+02 -0.92026137992E+03  0.93572009196E+03  0.00000000000E+00 0.  1.
         21    1    1    2  502  501  0.56888009688E-03 -0.88426382709E-03  0.10311725957E-02  0.14727063532E-02  0.00000000000E+00 0. -1.
<mgrwt>
<rscale>  1 0.65525379E+03</rscale>
<asrwt>0</asrwt>
<pdfrwt beam="1">  1        1 0.39033048E+00 0.65525379E+03</pdfrwt>
<pdfrwt beam="2">0</pdfrwt>
<totfact> 0.14756368E+00</totfact>
</mgrwt>
</event>
<event>
 6    1  0.3721217E-003  0.6530242E+03  0.7818608E-02  0.9801121E-01
          1   -1    0    0  502    0  0.00000000000E+00  0.00000000000E+00  0.10661294706E+03  0.10661294706E+03  0.00000000000E+00 0.  1.
         13   -1    0    0    0    0 -0.00000000000E+00 -0.00000000000E+00 -0.10000000000E+04  0.10000000000E+04  0.00000000000E+00 0.  1.
    9000005    2    1    2  501    0  0.16472271292E-03 -0.13735407322E-02 -0.89338964875E+03  0.11066100056E+04  0.65302422626E+03 0.  0.
         13    1    3    3    0    0 -0.86897610787E+02 -0.11461074074E+03 -0.94342610190E+03  0.95432679224E+03  0.00000000000E+00 0.  1.
          1    1    3    3  501    0  0.86897775510E+02  0.11460936720E+03  0.50036453147E+02  0.15228321339E+03  0.00000000000E+00 0.  1.
         21    1    1    2  502  501 -0.16472271293E-03  0.13735407322E-02  0.25958048346E-02  0.29414198025E-02  0.00000000000E+00 0.  1.
<mgrwt>
<rscale>  1 0.65302423E+03</rscale>
<asrwt>0</asrwt>
<pdfrwt beam="1">  1        1 0.38768426E+00 0.65302423E+03</pdfrwt>
<pdfrwt beam="2">0</pdfrwt>
<totfact> 0.15166597E+00</totfact>
</mgrwt>
</event>
<event>
 6    1  0.3721217E-003  0.6445571E+03  0.7818608E-02  0.9817046E-01
          1   -1    0    0  502    0  0.00000000000E+00  0.00000000000E+00  0.10386373626E+03  0.10386373626E+03  0.00000000000E+00 0.  1.
         13   -1    0    0    0    0 -0.00000000000E+00 -0.00000000000E+00 -0.10000000000E+04  0.10000000000E+04  0.00000000000E+00 0.  1.
    9000005    2    1    2  501    0 -0.21963517042E-04 -0.14172811086E-03 -0.89613650090E+03  0.11038634591E+04  0.64455714107E+03 0.  0.
         13    1    3    3    0    0  0.64712112489E+02  0.25848610769E+03 -0.75851871441E+03  0.80396104724E+03  0.00000000000E+00 0.  1.
          3    1    3    3  501    0 -0.64712134453E+02 -0.25848624942E+03 -0.13761778649E+03  0.29990241186E+03  0.00000000000E+00 0.  1.
         21    1    1    2  502  501  0.21963517048E-04  0.14172811087E-03  0.23716396661E-03  0.27715699622E-03  0.00000000000E+00 0.  1.
<mgrwt>
<rscale>  1 0.64455714E+03</rscale>
<asrwt>0</asrwt>
<pdfrwt beam="1">  1        1 0.37768711E+00 0.64455714E+03</pdfrwt>
<pdfrwt beam="2">0</pdfrwt>
<totfact> 0.16816472E+00</totfact>
</mgrwt>
</event>
<event>
 6    1  0.3721217E-003  0.6810159E+03  0.7818608E-02  0.9750260E-01
          1   -1    0    0  502    0  0.00000000000E+00  0.00000000000E+00  0.11594866232E+03  0.11594866232E+03  0.00000000000E+00 0.  1.
         13   -1    0    0    0    0 -0.00000000000E+00 -0.00000000000E+00 -0.10000000000E+04  0.10000000000E+04  0.00000000000E+00 0.  1.
    9000005    2    1    2  501    0 -0.23179640881E-02 -0.12420954729E-02 -0.88405366559E+03  0.11159451502E+04  0.68101592833E+03 0.  0.
         13    1    3    3    0    0  0.14075615341E+03  0.24973578214E+03 -0.74313033151E+03  0.79650671385E+03  0.00000000000E+00 0.  1.
          1    1    3    3  501    0 -0.14075847137E+03 -0.24973702424E+03 -0.14092333408E+03  0.31943843636E+03  0.00000000000E+00 0.  1.
         21    1    1    2  502  501  0.23179640882E-02  0.12420954729E-02  0.23279105058E-02  0.35121113309E-02  0.00000000000E+00 0. -1.
<mgrwt>
<rscale>  1 0.68101593E+03</rscale>
<asrwt>0</asrwt>
<pdfrwt beam="1">  1        1 0.42163239E+00 0.68101593E+03</pdfrwt>
<pdfrwt beam="2">0</pdfrwt>
<totfact> 0.10635884E+00</totfact>
</mgrwt>
</event>
<event>
 6    1  0.3721217E-003  0.6579763E+03  0.7818608E-02  0.9791926E-01
          1   -1    0    0  502    0  0.00000000000E+00  0.00000000000E+00  0.10835190055E+03  0.10835190055E+03  0.00000000000E+00 0.  1.
         13   -1    0    0    0    0 -0.00000000000E+00 -0.00000000000E+00 -0.10000000000E+04  0.10000000000E+04  0.00000000000E+00 0.  1.
    9000005    2    1    2  501    0  0.21887660455E+00  0.23144368144E+00 -0.89144440629E+03  0.11079737947E+04  0.65797621440E+03 0.  0.
         13    1    3    3    0    0  0.12837112102E+03 -0.25792162082E+03 -0.71296357714E+03  0.76897319168E+03  0.00000000000E+00 0.  1.
          3    1    3    3  501    0 -0.12815224441E+03  0.25815306450E+03 -0.17848082915E+03  0.33900060300E+03  0.00000000000E+00 0.  1.
         21    1    1    2  502  501 -0.21887660455E+00 -0.23144368144E+00 -0.20369316301E+00  0.37810587189E+00  0.00000000000E+00 0. -1.
<mgrwt>
<rscale>  1 0.65797629E+03</rscale>
<asrwt>0</asrwt>
<pdfrwt beam="1">  1        1 0.39400774E+00 0.65797629E+03</pdfrwt>
<pdfrwt beam="2">0</pdfrwt>
<totfact> 0.14204730E+00</totfact>
</mgrwt>
</event>
<event>
 6    1  0.3721217E-003  0.4939992E+03  0.7818608E-02  0.1015357E+00
          1   -1    0    0  502    0  0.00000000000E+00  0.00000000000E+00  0.61024031806E+02  0.61024031806E+02  0.00000000000E+00 0.  1.
         13   -1    0    0    0    0 -0.00000000000E+00 -0.00000000000E+00 -0.10000000000E+04  0.10000000000E+04  0.00000000000E+00 0.  1.
    9000005    2    1    2  501    0  0.66763293785E-03  0.58547894989E-03 -0.93899117447E+03  0.10610087996E+04  0.49399923801E+03 0.  0.
         13    1    3    3    0    0 -0.17394071986E+03 -0.14518712889E+03 -0.68074362376E+03  0.71745840138E+03  0.00000000000E+00 0.  1.
          1    1    3    3  501    0  0.17394138749E+03  0.14518771437E+03 -0.25824755071E+03  0.34355039824E+03  0.00000000000E+00 0.  1.
         21    1    1    2  502  501 -0.66763293785E-03 -0.58547894991E-03  0.15206274650E-01  0.15232180017E-01  0.00000000000E+00 0. -1.
<mgrwt>
<rscale>  1 0.49399924E+03</rscale>
<asrwt>0</asrwt>
<pdfrwt beam="1">  1        1 0.22190604E+00 0.49399924E+03</pdfrwt>
<pdfrwt beam="2">0</pdfrwt>
<totfact> 0.82093811E+00</totfact>
</mgrwt>
</event>
<event>
 6    1  0.3721217E-003  0.6391114E+03  0.7818608E-02  0.9827428E-01
          1   -1    0    0  502    0  0.00000000000E+00  0.00000000000E+00  0.10211855439E+03  0.10211855439E+03  0.00000000000E+00 0.  1.
         13   -1    0    0    0    0 -0.00000000000E+00 -0.00000000000E+00 -0.10000000000E+04  0.10000000000E+04  0.00000000000E+00 0.  1.
    9000005    2    1    2  501    0 -0.68734520909E-02 -0.38319220664E-02 -0.89787495521E+03  0.11021083537E+04  0.63911140509E+03 0.  0.
         13    1    3    3    0    0  0.15440232151E+03 -0.39262970495E+02 -0.92661827499E+03  0.94021438262E+03  0.00000000000E+00 0.  1.
          3    1    3    3  501    0 -0.15440919496E+03  0.39259138573E+02  0.28743319781E+02  0.16189397111E+03  0.00000000000E+00 0.  1.
         21    1    1    2  502  501  0.68734520909E-02  0.38319220664E-02 -0.64904045866E-02  0.10200653022E-01  0.00000000000E+00 0. -1.
<mgrwt>
<rscale>  1 0.63911141E+03</rscale>
<asrwt>0</asrwt>
<pdfrwt beam="1">  1        1 0.37134098E+00 0.63911141E+03</pdfrwt>
<pdfrwt beam="2">0</pdfrwt>
<totfact> 0.17951294E+00</totfact>
</mgrwt>
</event>
<event>
 6    1  0.3721217E-003  0.6511787E+03  0.7818608E-02  0.9804570E-01
          1   -1    0    0  502    0  0.00000000000E+00  0.00000000000E+00  0.10676351376E+03  0.10676351376E+03  0.00000000000E+00 0.  1.
         13   -1    0    0    0    0 -0.00000000000E+00 -0.00000000000E+00 -0.10000000000E+04  0.10000000000E+04  0.00000000000E+00 0.  1.
    9000005    2    1    2  501    0 -0.86884060564E+00 -0.19367843323E+00 -0.89368982943E+03  0.11057645566E+04  0.65117812543E+03 0.  0.
         13    1    3    3    0    0 -0.28725418100E+03 -0.15172976843E+03 -0.49394563391E+03  0.59120146853E+03  0.00000000000E+00 0.  1.
          3    1    3    3  501    0  0.28638534040E+03  0.15153609000E+03 -0.39974419552E+03  0.51456308808E+03  0.00000000000E+00 0.  1.
         21    1    1    2  502  501  0.86884060564E+00  0.19367843323E+00  0.45334319051E+00  0.99895714718E+00  0.00000000000E+00 0. -1.
<mgrwt>
<rscale>  1 0.65117873E+03</rscale>
<asrwt>0</asrwt>
<pdfrwt beam="1">  1        1 0.38823178E+00 0.65117873E+03</pdfrwt>
<pdfrwt beam="2">0</pdfrwt>
<totfact> 0.15087291E+00</totfact>
</mgrwt>
</event>
<event>
 6    1  0.3721217E-003  0.6425197E+03  0.7818608E-02  0.9820918E-01
          1   -1    0    0  502    0  0.00000000000E+00  0.00000000000E+00  0.10321778043E+03  0.10321778043E+03  0.00000000000E+00 0.  1.
         13   -1    0    0    0    0 -0.00000000000E+00 -0.00000000000E+00 -0.10000000000E+04  0.10000000000E+04  0.00000000000E+00 0.  1.
    9000005    2    1    2  501    0 -0.17679465654E-03 -0.48136971742E-03 -0.89679210707E+03  0.11032078796E+04  0.64251968249E+03 0.  0.
         13    1    3    3    0    0 -0.16483097188E+03  0.27227853832E+03 -0.52329595806E+03  0.61248960109E+03  0.00000000000E+00 0.  1.
          3    1    3    3  501    0  0.16483079508E+03 -0.27227901969E+03 -0.37349614901E+03  0.49071827855E+03  0.00000000000E+00 0.  1.
         21    1    1    2  502  501  0.17679465652E-03  0.48136971739E-03  0.98874987255E-02  0.99007880596E-02  0.00000000000E+00 0.  1.
<mgrwt>
<rscale>  1 0.64251968E+03</rscale>
<asrwt>0</asrwt>
<pdfrwt beam="1">  1        1 0.37533817E+00 0.64251968E+03</pdfrwt>
<pdfrwt beam="2">0</pdfrwt>
<totfact> 0.17228355E+00</totfact>
</mgrwt>
</event>
<event>
 6    1  0.3721217E-003  0.6955415E+03  0.7818608E-02  0.9724887E-01
          1   -1    0    0  502    0  0.00000000000E+00  0.00000000000E+00  0.12101126729E+03  0.12101126729E+03  0.00000000000E+00 0.  1.
         13   -1    0    0    0    0 -0.00000000000E+00 -0.00000000000E+00 -0.10000000000E+04  0.10000000000E+04  0.00000000000E+00 0.  1.
    9000005    2    1    2  501    0 -0.28322701354E-04  0.61850052023E-02 -0.87905534782E+03  0.11209443657E+04  0.69554149146E+03 0.  0.
         13    1    3    3    0    0 -0.68474898987E+02 -0.28889087670E+03 -0.14766672402E+03  0.33159042781E+03  0.00000000000E+00 0.  1.
          1    1    3    3  501    0  0.68474870664E+02  0.28889706171E+03 -0.73138862380E+03  0.78935393785E+03  0.00000000000E+00 0.  1.
         21    1    1    2  502  501  0.28322701359E-04 -0.61850052022E-02  0.66615109769E-01  0.66901628837E-01  0.00000000000E+00 0. -1.
<mgrwt>
<rscale>  1 0.69554149E+03</rscale>
<asrwt>0</asrwt>
<pdfrwt beam="1">  1        1 0.44004190E+00 0.69554149E+03</pdfrwt>
<pdfrwt beam="2">0</pdfrwt>
<totfact> 0.87464397E-01</totfact>
</mgrwt>
</event>
<event>
 6    1  0.3721217E-003  0.6397125E+03  0.7818608E-02  0.9826277E-01
          1   -1    0    0  502    0  0.00000000000E+00  0.00000000000E+00  0.12851340834E+03  0.12851340834E+03  0.00000000000E+00 0.  1.
         13   -1    0    0    0    0 -0.00000000000E+00 -0.00000000000E+00 -0.10000000000E+04  0.10000000000E+04  0.00000000000E+00 0.  1.
    9000005    2    1    2  501    0  0.44969918619E+01  0.14587427428E+01 -0.89745674421E+03  0.11021164447E+04  0.63969500473E+03 0.  0.
         13    1    3    3    0    0 -0.16363241194E+03 -0.26119980872E+03 -0.58171509324E+03  0.65832617753E+03  0.00000000000E+00 0.  1.
          1    1    3    3  501    0  0.16812940380E+03  0.26265855146E+03 -0.31574165096E+03  0.44379026717E+03  0.00000000000E+00 0.  1.
         21    1    1    2  502  501 -0.44969918619E+01 -0.14587427428E+01  0.25970152549E+02  0.26396963643E+02  0.00000000000E+00 0. -1.
<mgrwt>
<rscale>  1 0.63971247E+03</rscale>
<asrwt>0</asrwt>
<pdfrwt beam="1">  1        1 0.46732247E+00 0.63971247E+03</pdfrwt>
<pdfrwt beam="2">0</pdfrwt>
<totfact> 0.66181658E-01</totfact>
</mgrwt>
</event>
<event>
 6    1  0.3721217E-003  0.6447921E+03  0.7818608E-02  0.9816601E-01
          1   -1    0    0  502    0  0.00000000000E+00  0.00000000000E+00  0.10394123271E+03  0.10394123271E+03  0.00000000000E+00 0.  1.
         13   -1    0    0    0    0 -0.00000000000E+00 -0.00000000000E+00 -0.10000000000E+04  0.10000000000E+04  0.00000000000E+00 0.  1.
    9000005    2    1    2  501    0 -0.80469700912E-03  0.64439625504E-03 -0.89606063182E+03  0.11039391022E+04  0.64479212571E+03 0.  0.
         13    1    3    3    0    0 -0.50654594500E+02  0.27298697247E+03 -0.72858124271E+03  0.77969122242E+03  0.00000000000E+00 0.  1.
          1    1    3    3  501    0  0.50653789803E+02 -0.27298632808E+03 -0.16747938911E+03  0.32424787974E+03  0.00000000000E+00 0.  1.
         21    1    1    2  502  501  0.80469700912E-03 -0.64439625503E-03  0.18645340408E-02  0.21305564999E-02  0.00000000000E+00 0. -1.
<mgrwt>
<rscale>  1 0.64479213E+03</rscale>
<asrwt>0</asrwt>
<pdfrwt beam="1">  1        1 0.37796892E+00 0.64479213E+03</pdfrwt>
<pdfrwt beam="2">0</pdfrwt>
<totfact> 0.16767723E+00</totfact>
</mgrwt>
</event>
<event>
 6    1  0.3721217E-003  0.6684023E+03  0.7818608E-02  0.9772848E-01
          1   -1    0    0  502    0  0.00000000000E+00  0.00000000000E+00  0.11179437848E+03  0.11179437848E+03  0.00000000000E+00 0.  1.
         13   -1    0    0    0    0 -0.00000000000E+00 -0.00000000000E+00 -0.10000000000E+04  0.10000000000E+04  0.00000000000E+00 0.  1.
    9000005    2    1    2  501    0  0.31626158930E-02  0.37138220821E-02 -0.88830952737E+03  0.11116903582E+04  0.66840230106E+03 0.  0.
         13    1    3    3    0    0 -0.15454200948E+02  0.18457674625E+03 -0.90682510688E+03  0.92554804416E+03  0.00000000000E+00 0.  1.
          3    1    3    3  501    0  0.15457363564E+02 -0.18457303243E+03  0.18515579513E+02  0.18614231403E+03  0.00000000000E+00 0.  1.
         21    1    1    2  502  501 -0.31626158930E-02 -0.37138220821E-02  0.10390585250E+00  0.10402029031E+00  0.00000000000E+00 0. -1.
<mgrwt>
<rscale>  1 0.66840230E+03</rscale>
<asrwt>0</asrwt>
<pdfrwt beam="1">  1        1 0.40652587E+00 0.66840230E+03</pdfrwt>
<pdfrwt beam="2">0</pdfrwt>
<totfact> 0.12466750E+00</totfact>
</mgrwt>
</event>
<event>
 6    1  0.5084297E-003  0.6621823E+03  0.7818608E-02  0.9784185E-01
          1   -1    0    0  502    0  0.00000000000E+00  0.00000000000E+00  0.10962140675E+03  0.10962140675E+03  0.00000000000E+00 0.  1.
         13   -1    0    0    0    0 -0.00000000000E+00 -0.00000000000E+00 -0.10000000000E+04  0.10000000000E+04  0.00000000000E+00 0.  1.
    9000005    2    1    2  501    0 -0.98041763607E-04  0.10731217239E-03 -0.89037849819E+03  0.11096212331E+04  0.66218230938E+03 0.  0.
         13    1    3    3    0    0 -0.20820595293E+03 -0.74886951120E+02 -0.85791471615E+03  0.88598839409E+03  0.00000000000E+00 0.  1.
          3    1    3    3  501    0  0.20820585488E+03  0.74887058432E+02 -0.32463782044E+02  0.22363283899E+03  0.00000000000E+00 0.  1.
         21    1    1    2  502  501  0.98041763615E-04 -0.10731217239E-03 -0.95054713416E-04  0.17367638958E-03  0.00000000000E+00 0.  1.
<mgrwt>
<rscale>  1 0.66218231E+03</rscale>
<asrwt>0</asrwt>
<pdfrwt beam="1">  1        1 0.39862414E+00 0.66218231E+03</pdfrwt>
<pdfrwt beam="2">0</pdfrwt>
<totfact> 0.13537831E+00</totfact>
</mgrwt>
</event>
<event>
 6    1  0.3721217E-003  0.6143569E+03  0.7818608E-02  0.9876060E-01
          1   -1    0    0  502    0  0.00000000000E+00  0.00000000000E+00  0.94365008943E+02  0.94365008943E+02  0.00000000000E+00 0.  1.
         13   -1    0    0    0    0 -0.00000000000E+00 -0.00000000000E+00 -0.10000000000E+04  0.10000000000E+04  0.00000000000E+00 0.  1.
    9000005    2    1    2  501    0 -0.12669689534E-01  0.12344827673E-01 -0.90562401861E+03  0.10943441928E+04  0.61435685802E+03 0.  0.
         13    1    3    3    0    0  0.44076738315E+02  0.18805656729E+03 -0.87828715446E+03  0.89927546228E+03  0.00000000000E+00 0.  1.
          3    1    3    3  501    0 -0.44089408005E+02 -0.18804422246E+03 -0.27336864145E+02  0.19506873056E+03  0.00000000000E+00 0.  1.
         21    1    1    2  502  501  0.12669689534E-01 -0.12344827673E-01 -0.10972451352E-01  0.20816111352E-01  0.00000000000E+00 0. -1.
<mgrwt>
<rscale>  1 0.61435686E+03</rscale>
<asrwt>0</asrwt>
<pdfrwt beam="1">  1        1 0.34314621E+00 0.61435686E+03</pdfrwt>
<pdfrwt beam="2">0</pdfrwt>
<totfact> 0.23945791E+00</totfact>
</mgrwt>
</event>
<event>
 6    1  0.3721217E-003  0.6610279E+03  0.7818608E-02  0.9786303E-01
          1   -1    0    0  502    0  0.00000000000E+00  0.00000000000E+00  0.10925466855E+03  0.10925466855E+03  0.00000000000E+00 0.  1.
         13   -1    0    0    0    0 -0.00000000000E+00 -0.00000000000E+00 -0.10000000000E+04  0.10000000000E+04  0.00000000000E+00 0.  1.
    9000005    2    1    2  501    0 -0.58331451822E-03  0.87681286308E-03 -0.89076051568E+03  0.11092394478E+04  0.66102787866E+03 0.  0.
         13    1    3    3    0    0  0.12403804455E+03 -0.20843128777E+03 -0.68619888781E+02  0.25206691047E+03  0.00000000000E+00 0.  1.
          1    1    3    3  501    0 -0.12403862786E+03  0.20843216458E+03 -0.82214062690E+03  0.85717253738E+03  0.00000000000E+00 0.  1.
         21    1    1    2  502  501  0.58331451824E-03 -0.87681286309E-03  0.15184229080E-01  0.15220705285E-01  0.00000000000E+00 0. -1.
<mgrwt>
<rscale>  1 0.66102788E+03</rscale>
<asrwt>0</asrwt>
<pdfrwt beam="1">  1        1 0.39729054E+00 0.66102788E+03</pdfrwt>
<pdfrwt beam="2">0</pdfrwt>
<totfact> 0.13727226E+00</totfact>
</mgrwt>
</event>
<event>
 6    1  0.3721217E-003  0.6546318E+03  0.7818608E-02  0.9798127E-01
          1   -1    0    0  502    0  0.00000000000E+00  0.00000000000E+00  0.10713959562E+03  0.10713959562E+03  0.00000000000E+00 0.  1.
         13   -1    0    0    0    0 -0.00000000000E+00 -0.00000000000E+00 -0.10000000000E+04  0.10000000000E+04  0.00000000000E+00 0.  1.
    9000005    2    1    2  501    0  0.22169183105E-02 -0.23635570641E-02 -0.89286353784E+03  0.11071350879E+04  0.65463180919E+03 0.  0.
         13    1    3    3    0    0 -0.14792323360E+01 -0.32702294983E+03 -0.46976216897E+03  0.57238334466E+03  0.00000000000E+00 0.  1.
          3    1    3    3  501    0  0.14814492543E+01  0.32702058628E+03 -0.42310136887E+03  0.53475174322E+03  0.00000000000E+00 0.  1.
         21    1    1    2  502  501 -0.22169183105E-02  0.23635570641E-02  0.31334643557E-02  0.45077408598E-02  0.00000000000E+00 0. -1.
<mgrwt>
<rscale>  1 0.65463181E+03</rscale>
<asrwt>0</asrwt>
<pdfrwt beam="1">  1        1 0.38959935E+00 0.65463181E+03</pdfrwt>
<pdfrwt beam="2">0</pdfrwt>
<totfact> 0.14868663E+00</totfact>
</mgrwt>
</event>
<event>
 6    1  0.3721217E-003  0.6566505E+03  0.7818608E-02  0.9794379E-01
          1   -1    0    0  502    0  0.00000000000E+00  0.00000000000E+00  0.10780020281E+03  0.10780020281E+03  0.00000000000E+00 0.  1.
         13   -1    0    0    0    0 -0.00000000000E+00 -0.00000000000E+00 -0.10000000000E+04  0.10000000000E+04  0.00000000000E+00 0.  1.
    9000005    2    1    2  501    0  0.24494196911E-02  0.15637640917E-02 -0.89220164374E+03  0.11077967597E+04  0.65665050656E+03 0.  0.
         13    1    3    3    0    0  0.32265108636E+03 -0.57145951687E+01 -0.34401378956E+03  0.47167983584E+03  0.00000000000E+00 0.  1.
          1    1    3    3  501    0 -0.32264863694E+03  0.57161589328E+01 -0.54818785418E+03  0.63611692389E+03  0.00000000000E+00 0.  1.
         21    1    1    2  502  501 -0.24494196911E-02 -0.15637640917E-02  0.18465500067E-02  0.34430744814E-02  0.00000000000E+00 0.  1.
<mgrwt>
<rscale>  1 0.65665051E+03</rscale>
<asrwt>0</asrwt>
<pdfrwt beam="1">  1        1 0.39200156E+00 0.65665051E+03</pdfrwt>
<pdfrwt beam="2">0</pdfrwt>
<totfact> 0.14502784E+00</totfact>
</mgrwt>
</event>
<event>
 6    1  0.3721217E-003  0.6496477E+03  0.7818608E-02  0.9807440E-01
          1   -1    0    0  502    0  0.00000000000E+00  0.00000000000E+00  0.10552230788E+03  0.10552230788E+03  0.00000000000E+00 0.  1.
         13   -1    0    0    0    0 -0.00000000000E+00 -0.00000000000E+00 -0.10000000000E+04  0.10000000000E+04  0.00000000000E+00 0.  1.
    9000005    2    1    2  501    0 -0.22892772773E-03 -0.15163736421E-03 -0.89448944850E+03  0.11055105483E+04  0.64964774988E+03 0.  0.
         13    1    3    3    0    0  0.13034196573E+03  0.11173347910E+03  0.21998304652E+02  0.17308184131E+03  0.00000000000E+00 0.  1.
          1    1    3    3  501    0 -0.13034219466E+03 -0.11173363074E+03 -0.91648775315E+03  0.93242870699E+03  0.00000000000E+00 0.  1.
         21    1    1    2  502  501  0.22892772773E-03  0.15163736421E-03  0.11756376430E-01  0.11759582840E-01  0.00000000000E+00 0. -1.
<mgrwt>
<rscale>  1 0.64964775E+03</rscale>
<asrwt>0</asrwt>
<pdfrwt beam="1">  1        1 0.38371829E+00 0.64964775E+03</pdfrwt>
<pdfrwt beam="2">0</pdfrwt>
<totfact> 0.15801849E+00</totfact>
</mgrwt>
</event>
<event>
 6    1  0.3721217E-003  0.6491769E+03  0.7818608E-02  0.9808325E-01
          1   -1    0    0  502    0  0.00000000000E+00  0.00000000000E+00  0.10537826495E+03  0.10537826495E+03  0.00000000000E+00 0.  1.
         13   -1    0    0    0    0 -0.00000000000E+00 -0.00000000000E+00 -0.10000000000E+04  0.10000000000E+04  0.00000000000E+00 0.  1.
    9000005    2    1    2  501    0  0.33384702793E-01  0.24757827214E-02 -0.89462605527E+03  0.11053445110E+04  0.64917694660E+03 0.  0.
         13    1    3    3    0    0  0.21487493008E+03 -0.38196262443E+02 -0.38206348202E+02  0.22156244060E+03  0.00000000000E+00 0.  1.
          1    1    3    3  501    0 -0.21484154537E+03  0.38198738226E+02 -0.85641970707E+03  0.88378207035E+03  0.00000000000E+00 0.  1.
         21    1    1    2  502  501 -0.33384702793E-01 -0.24757827214E-02  0.43202193667E-02  0.33753994965E-01  0.00000000000E+00 0.  1.
<mgrwt>
<rscale>  1 0.64917695E+03</rscale>
<asrwt>0</asrwt>
<pdfrwt beam="1">  1        1 0.38319450E+00 0.64917695E+03</pdfrwt>
<pdfrwt beam="2">0</pdfrwt>
<totfact> 0.15887687E+00</totfact>
</mgrwt>
</event>
<event>
 6    1  0.3721217E-003  0.6484195E+03  0.7818608E-02  0.9809749E-01
          1   -1    0    0  502    0  0.00000000000E+00  0.00000000000E+00  0.10511198342E+03  0.10511198342E+03  0.00000000000E+00 0.  1.
         13   -1    0    0    0    0 -0.00000000000E+00 -0.00000000000E+00 -0.10000000000E+04  0.10000000000E+04  0.00000000000E+00 0.  1.
    9000005    2    1    2  501    0 -0.45442823335E-05 -0.62140418322E-06 -0.89488802812E+03  0.11051119710E+04  0.64841952899E+03 0.  0.
         13    1    3    3    0    0  0.65042104545E+02  0.31418575830E+03 -0.36807327250E+03  0.48828383140E+03  0.00000000000E+00 0.  1.
          1    1    3    3  501    0 -0.65042109089E+02 -0.31418575892E+03 -0.52681475562E+03  0.61682813960E+03  0.00000000000E+00 0.  1.
         21    1    1    2  502  501  0.45442823339E-05  0.62140416768E-06  0.11545468954E-04  0.12423143661E-04  0.00000000000E+00 0.  1.
<mgrwt>
<rscale>  1 0.64841953E+03</rscale>
<asrwt>0</asrwt>
<pdfrwt beam="1">  1        1 0.38222620E+00 0.64841953E+03</pdfrwt>
<pdfrwt beam="2">0</pdfrwt>
<totfact> 0.16047204E+00</totfact>
</mgrwt>
</event>
<event>
 6    1  0.3721217E-003  0.6285965E+03  0.7818608E-02  0.9847791E-01
          1   -1    0    0  502    0  0.00000000000E+00  0.00000000000E+00  0.99051369172E+02  0.99051369172E+02  0.00000000000E+00 0.  1.
         13   -1    0    0    0    0 -0.00000000000E+00 -0.00000000000E+00 -0.10000000000E+04  0.10000000000E+04  0.00000000000E+00 0.  1.
    9000005    2    1    2  501    0 -0.11690667522E+00 -0.37394994701E-01 -0.90120107079E+03  0.10987706709E+04  0.62859653377E+03 0.  0.
         13    1    3    3    0    0  0.25653796778E+02  0.29622905847E+03 -0.62848051022E+03  0.69526795130E+03  0.00000000000E+00 0.  1.
          3    1    3    3  501    0 -0.25770703453E+02 -0.29626645347E+03 -0.27272056057E+03  0.40350271965E+03  0.00000000000E+00 0.  1.
         21    1    1    2  502  501  0.11690667522E+00  0.37394994701E-01  0.25243996646E+00  0.28069822409E+00  0.00000000000E+00 0. -1.
<mgrwt>
<rscale>  1 0.62859655E+03</rscale>
<asrwt>0</asrwt>
<pdfrwt beam="1">  1        1 0.36018756E+00 0.62859655E+03</pdfrwt>
<pdfrwt beam="2">0</pdfrwt>
<totfact> 0.20128872E+00</totfact>
</mgrwt>
</event>
<event>
 6    1  0.3721217E-003  0.6027965E+03  0.7818608E-02  0.9899621E-01
          1   -1    0    0  502    0  0.00000000000E+00  0.00000000000E+00  0.90856012040E+02  0.90856012040E+02  0.00000000000E+00 0.  1.
         13   -1    0    0    0    0 -0.00000000000E+00 -0.00000000000E+00 -0.10000000000E+04  0.10000000000E+04  0.00000000000E+00 0.  1.
    9000005    2    1    2  501    0 -0.61549228643E-02 -0.37982372753E-02 -0.90915814526E+03  0.10908401143E+04  0.60279650114E+03 0.  0.
         13    1    3    3    0    0 -0.26269940353E+03  0.67808507447E+02 -0.69214313852E+03  0.74341851907E+03  0.00000000000E+00 0.  1.
          1    1    3    3  501    0  0.26269324861E+03 -0.67812305684E+02 -0.21701500674E+03  0.34742159521E+03  0.00000000000E+00 0.  1.
         21    1    1    2  502  501  0.61549228643E-02  0.37982372753E-02  0.14157298355E-01  0.15897760175E-01  0.00000000000E+00 0. -1.
<mgrwt>
<rscale>  1 0.60279650E+03</rscale>
<asrwt>0</asrwt>
<pdfrwt beam="1">  1        1 0.33038620E+00 0.60279650E+03</pdfrwt>
<pdfrwt beam="2">0</pdfrwt>
<totfact> 0.27257743E+00</totfact>
</mgrwt>
</event>
<event>
 6    1  0.3721217E-003  0.5355654E+03  0.7818608E-02  0.1004891E+00
          1   -1    0    0  502    0  0.00000000000E+00  0.00000000000E+00  0.71961315500E+02  0.71961315500E+02  0.00000000000E+00 0.  1.
         13   -1    0    0    0    0 -0.00000000000E+00 -0.00000000000E+00 -0.10000000000E+04  0.10000000000E+04  0.00000000000E+00 0.  1.
    9000005    2    1    2  501    0 -0.32116204205E-01  0.62717374218E-01 -0.92828718659E+03  0.10717030168E+04  0.53556535597E+03 0.  0.
         13    1    3    3    0    0 -0.21740235446E+03  0.13718519621E+02 -0.77586982963E+03  0.80586970041E+03  0.00000000000E+00 0.  1.
          1    1    3    3  501    0  0.21737023825E+03 -0.13655802247E+02 -0.15241735695E+03  0.26583331641E+03  0.00000000000E+00 0.  1.
         21    1    1    2  502  501  0.32116204205E-01 -0.62717374218E-01  0.24850208764E+00  0.25829867820E+00  0.00000000000E+00 0.  1.
<mgrwt>
<rscale>  1 0.53556536E+03</rscale>
<asrwt>0</asrwt>
<pdfrwt beam="1">  1        1 0.26167806E+00 0.53556536E+03</pdfrwt>
<pdfrwt beam="2">0</pdfrwt>
<totfact> 0.54625610E+00</totfact>
</mgrwt>
</event>
<event>
 6    1  0.3721217E-003  0.6642907E+03  0.7818608E-02  0.9780327E-01
          1   -1    0    0  502    0  0.00000000000E+00  0.00000000000E+00  0.11032107010E+03  0.11032107010E+03  0.00000000000E+00 0.  1.
         13   -1    0    0    0    0 -0.00000000000E+00 -0.00000000000E+00 -0.10000000000E+04  0.10000000000E+04  0.00000000000E+00 0.  1.
    9000005    2    1    2  501    0  0.27141802065E-04 -0.22328270525E-04 -0.88967946651E+03  0.11103205323E+04  0.66429069798E+03 0.  0.
         13    1    3    3    0    0  0.65284825197E+02  0.51527317582E+02 -0.98231381661E+03  0.98582838627E+03  0.00000000000E+00 0.  1.
          1    1    3    3  501    0 -0.65284798055E+02 -0.51527339910E+02  0.92634350108E+02  0.12449214608E+03  0.00000000000E+00 0.  1.
         21    1    1    2  502  501 -0.27141802061E-04  0.22328270527E-04  0.53660284396E-03  0.53775258366E-03  0.00000000000E+00 0.  1.
<mgrwt>
<rscale>  1 0.66429070E+03</rscale>
<asrwt>0</asrwt>
<pdfrwt beam="1">  1        1 0.40116837E+00 0.66429070E+03</pdfrwt>
<pdfrwt beam="2">0</pdfrwt>
<totfact> 0.13183565E+00</totfact>
</mgrwt>
</event>
<event>
 6    1  0.3721217E-003  0.6387784E+03  0.7818608E-02  0.9828067E-01
          1   -1    0    0  502    0  0.00000000000E+00  0.00000000000E+00  0.10201016507E+03  0.10201016507E+03  0.00000000000E+00 0.  1.
         13   -1    0    0    0    0 -0.00000000000E+00 -0.00000000000E+00 -0.10000000000E+04  0.10000000000E+04  0.00000000000E+00 0.  1.
    9000005    2    1    2  501    0  0.25197878585E-04  0.37316220187E-04 -0.89799054071E+03  0.11020094579E+04  0.63877839193E+03 0.  0.
         13    1    3    3    0    0  0.15437152471E+03  0.13886179108E+03 -0.86767230796E+03  0.89217061074E+03  0.00000000000E+00 0.  1.
          3    1    3    3  501    0 -0.15437149951E+03 -0.13886175377E+03 -0.30318232749E+02  0.20983884711E+03  0.00000000000E+00 0.  1.
         21    1    1    2  502  501 -0.25197878613E-04 -0.37316220176E-04  0.70577761429E-03  0.70721246751E-03  0.00000000000E+00 0. -1.
<mgrwt>
<rscale>  1 0.63877839E+03</rscale>
<asrwt>0</asrwt>
<pdfrwt beam="1">  1        1 0.37094684E+00 0.63877839E+03</pdfrwt>
<pdfrwt beam="2">0</pdfrwt>
<totfact> 0.18024119E+00</totfact>
</mgrwt>
</event>
<event>
 6    1  0.3721217E-003  0.6502980E+03  0.7818608E-02  0.9806220E-01
          1   -1    0    0  502    0  0.00000000000E+00  0.00000000000E+00  0.11005112335E+03  0.11005112335E+03  0.00000000000E+00 0.  1.
         13   -1    0    0    0    0 -0.00000000000E+00 -0.00000000000E+00 -0.10000000000E+04  0.10000000000E+04  0.00000000000E+00 0.  1.
    9000005    2    1    2  501    0  0.35028513905E-01 -0.83731253848E-01 -0.89427761219E+03  0.11057214364E+04  0.65029796169E+03 0.  0.
         13    1    3    3    0    0 -0.41588429380E+02  0.27093653933E+03 -0.74433697484E+03  0.79320472636E+03  0.00000000000E+00 0.  1.
          1    1    3    3  501    0  0.41623457894E+02 -0.27102027059E+03 -0.14994063735E+03  0.31251671002E+03  0.00000000000E+00 0.  1.
         21    1    1    2  502  501 -0.35028513905E-01  0.83731253849E-01  0.43287355316E+01  0.43296869658E+01  0.00000000000E+00 0.  1.
<mgrwt>
<rscale>  1 0.65029797E+03</rscale>
<asrwt>0</asrwt>
<pdfrwt beam="1">  1        1 0.40018675E+00 0.65029797E+03</pdfrwt>
<pdfrwt beam="2">0</pdfrwt>
<totfact> 0.13352353E+00</totfact>
</mgrwt>
</event>
<event>
 6    1  0.3721217E-003  0.6424053E+03  0.7818608E-02  0.9821135E-01
          1   -1    0    0  502    0  0.00000000000E+00  0.00000000000E+00  0.10317117969E+03  0.10317117969E+03  0.00000000000E+00 0.  1.
         13   -1    0    0    0    0 -0.00000000000E+00 -0.00000000000E+00 -0.10000000000E+04  0.10000000000E+04  0.00000000000E+00 0.  1.
    9000005    2    1    2  501    0  0.54062784045E-05 -0.83898770598E-06 -0.89682886362E+03  0.11031711360E+04  0.64240528076E+03 0.  0.
         13    1    3    3    0    0  0.16150372232E+03 -0.27155554047E+02  0.26088661643E+02  0.16583574617E+03  0.00000000000E+00 0.  1.
          1    1    3    3  501    0 -0.16150371692E+03  0.27155553208E+02 -0.92291752527E+03  0.93733538987E+03  0.00000000000E+00 0.  1.
         21    1    1    2  502  501 -0.54062784123E-05  0.83898770881E-06  0.43311017246E-04  0.43655193981E-04  0.00000000000E+00 0.  1.
<mgrwt>
<rscale>  1 0.64240528E+03</rscale>
<asrwt>0</asrwt>
<pdfrwt beam="1">  1        1 0.37516872E+00 0.64240528E+03</pdfrwt>
<pdfrwt beam="2">0</pdfrwt>
<totfact> 0.17258336E+00</totfact>
</mgrwt>
</event>
<event>
 6    1  0.3721217E-003  0.6480450E+03  0.7818608E-02  0.9810455E-01
          1   -1    0    0  502    0  0.00000000000E+00  0.00000000000E+00  0.10499071565E+03  0.10499071565E+03  0.00000000000E+00 0.  1.
         13   -1    0    0    0    0 -0.00000000000E+00 -0.00000000000E+00 -0.10000000000E+04  0.10000000000E+04  0.00000000000E+00 0.  1.
    9000005    2    1    2  501    0 -0.18802386307E-04 -0.24086880779E-03 -0.89500928546E+03  0.11049904740E+04  0.64804500359E+03 0.  0.
         13    1    3    3    0    0 -0.28708722441E+03 -0.14723948596E+03 -0.49843262510E+03  0.59374541885E+03  0.00000000000E+00 0.  1.
          3    1    3    3  501    0  0.28708720561E+03  0.14723924509E+03 -0.39657666036E+03  0.51124505519E+03  0.00000000000E+00 0.  1.
         21    1    1    2  502  501  0.18802386358E-04  0.24086880779E-03  0.11104301892E-05  0.24160410873E-03  0.00000000000E+00 0. -1.
<mgrwt>
<rscale>  1 0.64804500E+03</rscale>
<asrwt>0</asrwt>
<pdfrwt beam="1">  1        1 0.38178523E+00 0.64804500E+03</pdfrwt>
<pdfrwt beam="2">0</pdfrwt>
<totfact> 0.16120441E+00</totfact>
</mgrwt>
</event>
<event>
 6    1  0.3721217E-003  0.6510351E+03  0.7818608E-02  0.9804839E-01
          1   -1    0    0  502    0  0.00000000000E+00  0.00000000000E+00  0.11183825863E+03  0.11183825863E+03  0.00000000000E+00 0.  1.
         13   -1    0    0    0    0 -0.00000000000E+00 -0.00000000000E+00 -0.10000000000E+04  0.10000000000E+04  0.00000000000E+00 0.  1.
    9000005    2    1    2  501    0 -0.17193453475E+01 -0.23991214780E+00 -0.89389618447E+03  0.11058468027E+04  0.65103283232E+03 0.  0.
         13    1    3    3    0    0  0.27918505491E+03  0.14535324692E+03 -0.31024681757E+03  0.44195582255E+03  0.00000000000E+00 0.  1.
          1    1    3    3  501    0 -0.28090440026E+03 -0.14559315907E+03 -0.58364936690E+03  0.66389098016E+03  0.00000000000E+00 0.  1.
         21    1    1    2  502  501  0.17193453475E+01  0.23991214780E+00  0.57344431087E+01  0.59914559190E+01  0.00000000000E+00 0. -1.
<mgrwt>
<rscale>  1 0.65103515E+03</rscale>
<asrwt>0</asrwt>
<pdfrwt beam="1">  1        1 0.40668543E+00 0.65103515E+03</pdfrwt>
<pdfrwt beam="2">0</pdfrwt>
<totfact> 0.12487466E+00</totfact>
</mgrwt>
</event>
<event>
 6    1  0.3721217E-003  0.6487820E+03  0.7818608E-02  0.9809067E-01
          1   -1    0    0  502    0  0.00000000000E+00  0.00000000000E+00  0.10522957590E+03  0.10522957590E+03  0.00000000000E+00 0.  1.
         13   -1    0    0    0    0 -0.00000000000E+00 -0.00000000000E+00 -0.10000000000E+04  0.10000000000E+04  0.00000000000E+00 0.  1.
    9000005    2    1    2  501    0 -0.13400769915E-04 -0.36299944384E-05 -0.89477047336E+03  0.11052295247E+04  0.64878201450E+03 0.  0.
         13    1    3    3    0    0 -0.52651031894E+01 -0.21849965366E+03 -0.39032589047E+02  0.22202108677E+03  0.00000000000E+00 0.  1.
          1    1    3    3  501    0  0.52650897887E+01  0.21849965003E+03 -0.85573788431E+03  0.88320843796E+03  0.00000000000E+00 0.  1.
         21    1    1    2  502  501  0.13400769915E-04  0.36299944646E-05  0.49250903942E-04  0.51170392154E-04  0.00000000000E+00 0.  1.
<mgrwt>
<rscale>  1 0.64878201E+03</rscale>
<asrwt>0</asrwt>
<pdfrwt beam="1">  1        1 0.38265381E+00 0.64878201E+03</pdfrwt>
<pdfrwt beam="2">0</pdfrwt>
<totfact> 0.15976490E+00</totfact>
</mgrwt>
</event>
<event>
 6    1  0.3721217E-003  0.6539415E+03  0.7818608E-02  0.9799411E-01
          1   -1    0    0  502    0  0.00000000000E+00  0.00000000000E+00  0.10691184142E+03  0.10691184142E+03  0.00000000000E+00 0.  1.
         13   -1    0    0    0    0 -0.00000000000E+00 -0.00000000000E+00 -0.10000000000E+04  0.10000000000E+04  0.00000000000E+00 0.  1.
    9000005    2    1    2  501    0 -0.29811225514E-03 -0.25452539757E-03 -0.89309011232E+03  0.11069098487E+04  0.65394148403E+03 0.  0.
         13    1    3    3    0    0 -0.18429922146E+03  0.15576273230E+03 -0.73074843384E+02  0.25212727845E+03  0.00000000000E+00 0.  1.
          1    1    3    3  501    0  0.18429892334E+03 -0.15576298682E+03 -0.82001526893E+03  0.85478257030E+03  0.00000000000E+00 0.  1.
         21    1    1    2  502  501  0.29811225513E-03  0.25452539758E-03  0.19537384627E-02  0.19926735998E-02  0.00000000000E+00 0.  1.
<mgrwt>
<rscale>  1 0.65394148E+03</rscale>
<asrwt>0</asrwt>
<pdfrwt beam="1">  1        1 0.38877115E+00 0.65394148E+03</pdfrwt>
<pdfrwt beam="2">0</pdfrwt>
<totfact> 0.14996806E+00</totfact>
</mgrwt>
</event>
<event>
 6    1  0.3721217E-003  0.6338113E+03  0.7818608E-02  0.9837639E-01
          1   -1    0    0  502    0  0.00000000000E+00  0.00000000000E+00  0.10391163462E+03  0.10391163462E+03  0.00000000000E+00 0.  1.
         13   -1    0    0    0    0 -0.00000000000E+00 -0.00000000000E+00 -0.10000000000E+04  0.10000000000E+04  0.00000000000E+00 0.  1.
    9000005    2    1    2  501    0  0.17104299802E+00 -0.27082981650E+00 -0.89956271370E+03  0.11004225515E+04  0.63381118124E+03 0.  0.
         13    1    3    3    0    0  0.25998721850E+03 -0.14867819896E+03 -0.26941195462E+03  0.40284160898E+03  0.00000000000E+00 0.  1.
          3    1    3    3  501    0 -0.25981617550E+03  0.14840736914E+03 -0.63015075907E+03  0.69758094257E+03  0.00000000000E+00 0.  1.
         21    1    1    2  502  501 -0.17104299802E+00  0.27082981650E+00  0.34743483128E+01  0.34890830737E+01  0.00000000000E+00 0. -1.
<mgrwt>
<rscale>  1 0.63381126E+03</rscale>
<asrwt>0</asrwt>
<pdfrwt beam="1">  1        1 0.37786129E+00 0.63381126E+03</pdfrwt>
<pdfrwt beam="2">0</pdfrwt>
<totfact> 0.16820141E+00</totfact>
</mgrwt>
</event>
<event>
 6    1  0.3721217E-003  0.6582018E+03  0.7818608E-02  0.9791510E-01
          1   -1    0    0  502    0  0.00000000000E+00  0.00000000000E+00  0.10831837729E+03  0.10831837729E+03  0.00000000000E+00 0.  1.
         13   -1    0    0    0    0 -0.00000000000E+00 -0.00000000000E+00 -0.10000000000E+04  0.10000000000E+04  0.00000000000E+00 0.  1.
    9000005    2    1    2  501    0 -0.59055912658E-03 -0.23655917682E-03 -0.89169258277E+03  0.11083073988E+04  0.65820181406E+03 0.  0.
         13    1    3    3    0    0  0.15837531653E+03  0.20296285963E+02  0.38716010663E+02  0.16429732071E+03  0.00000000000E+00 0.  1.
          3    1    3    3  501    0 -0.15837590709E+03 -0.20296522522E+02 -0.93040859343E+03  0.94401007807E+03  0.00000000000E+00 0.  1.
         21    1    1    2  502  501  0.59055912659E-03  0.23655917682E-03  0.10960055712E-01  0.10978503611E-01  0.00000000000E+00 0. -1.
<mgrwt>
<rscale>  1 0.65820181E+03</rscale>
<asrwt>0</asrwt>
<pdfrwt beam="1">  1        1 0.39388584E+00 0.65820181E+03</pdfrwt>
<pdfrwt beam="2">0</pdfrwt>
<totfact> 0.14221864E+00</totfact>
</mgrwt>
</event>
<event>
 6    1  0.3721217E-003  0.6531411E+03  0.7818608E-02  0.9800903E-01
          1   -1    0    0  502    0  0.00000000000E+00  0.00000000000E+00  0.10664925859E+03  0.10664925859E+03  0.00000000000E+00 0.  1.
         13   -1    0    0    0    0 -0.00000000000E+00 -0.00000000000E+00 -0.10000000000E+04  0.10000000000E+04  0.00000000000E+00 0.  1.
    9000005    2    1    2  501    0  0.10510947838E-02 -0.39556040083E-03 -0.89335130992E+03  0.11066479998E+04  0.65314105107E+03 0.  0.
         13    1    3    3    0    0  0.23123873587E+03 -0.66563415700E+02 -0.72587679541E+02  0.25133844214E+03  0.00000000000E+00 0.  1.
          3    1    3    3  501    0 -0.23123768478E+03  0.66563020139E+02 -0.82076363038E+03  0.85530955768E+03  0.00000000000E+00 0.  1.
         21    1    1    2  502  501 -0.10510947838E-02  0.39556040083E-03  0.56850624777E-03  0.12587563819E-02  0.00000000000E+00 0. -1.
<mgrwt>
<rscale>  1 0.65314105E+03</rscale>
<asrwt>0</asrwt>
<pdfrwt beam="1">  1        1 0.38781630E+00 0.65314105E+03</pdfrwt>
<pdfrwt beam="2">0</pdfrwt>
<totfact> 0.15145858E+00</totfact>
</mgrwt>
</event>
