<event>
 6    1  0.1875959E-004  0.3000000E+03  0.7818608E-02  0.1093470E+00
          1   -1    0    0  502    0  0.00000000000E+00  0.00000000000E+00  0.36852662241E+02  0.36852662241E+02  0.00000000000E+00 0.  1.
         13   -1    0    0    0    0 -0.00000000000E+00 -0.00000000000E+00 -0.10000000000E+04  0.10000000000E+04  0.00000000000E+00 0.  1.
    9000005    2    1    2  501    0 -0.52285073532E+01 -0.10636406028E+02 -0.96837805511E+03  0.10238977085E+04  0.33237025958E+03 0.  0.
         13    1    3    3    0    0  0.16034820185E+03  0.26581411926E+02 -0.49679358469E+03  0.52270640238E+03  0.00000000000E+00 0.  1.
          1    1    3    3  501    0 -0.16557670920E+03 -0.37217817954E+02 -0.47158447041E+03  0.50119130613E+03  0.00000000000E+00 0.  1.
         21    1    1    2  502  501  0.52285073532E+01  0.10636406028E+02  0.52307173466E+01  0.12954953736E+02  0.00000000000E+00 0. -1.
<mgrwt>
<rscale>  1 0.30000000E+03</rscale>
<asrwt>0</asrwt>
<pdfrwt beam="1">  1        1 0.13400996E+00 0.30000000E+03</pdfrwt>
<pdfrwt beam="2">0</pdfrwt>
<totfact> 0.21766356E+01</totfact>
</mgrwt>
</event>
<event>
 6    1  0.1875959E-004  0.3000000E+03  0.7818608E-02  0.1093470E+00
          3   -1    0    0  502    0  0.00000000000E+00  0.00000000000E+00  0.49996455089E+02  0.49996455089E+02  0.00000000000E+00 0.  1.
         13   -1    0    0    0    0 -0.00000000000E+00 -0.00000000000E+00 -0.10000000000E+04  0.10000000000E+04  0.00000000000E+00 0.  1.
    9000005    2    1    2  501    0 -0.39175214214E+02  0.75006214832E+01 -0.95671967222E+03  0.10095481783E+04  0.31981875540E+03 0.  0.
         13    1    3    3    0    0 -0.10742834321E+03 -0.10018099438E+03 -0.23853769126E+03  0.28013802083E+03  0.00000000000E+00 0.  1.
          1    1    3    3  501    0  0.68253128995E+02  0.10768161586E+03 -0.71818198096E+03  0.72941015744E+03  0.00000000000E+00 0.  1.
         21    1    1    2  502  501  0.39175214214E+02 -0.75006214832E+01  0.67161273096E+01  0.40448276817E+02  0.00000000000E+00 0.  1.
<mgrwt>
<rscale>  1 0.30000000E+03</rscale>
<asrwt>0</asrwt>
<pdfrwt beam="1">  1        3 0.18180567E+00 0.30000000E+03</pdfrwt>
<pdfrwt beam="2">0</pdfrwt>
<totfact> 0.30359149E-01</totfact>
</mgrwt>
</event>
<event>
 6    1  0.1875959E-004  0.3000000E+03  0.7818608E-02  0.1093470E+00
          3   -1    0    0  502    0  0.00000000000E+00  0.00000000000E+00  0.37135988671E+02  0.37135988671E+02  0.00000000000E+00 0.  1.
         13   -1    0    0    0    0 -0.00000000000E+00 -0.00000000000E+00 -0.10000000000E+04  0.10000000000E+04  0.00000000000E+00 0.  1.
    9000005    2    1    2  501    0 -0.10551369395E+02  0.36257742702E+01 -0.97038543594E+03  0.10236805265E+04  0.32580584451E+03 0.  0.
         13    1    3    3    0    0 -0.66750625005E+02  0.15217858660E+03 -0.45615543320E+03  0.48548094442E+03  0.00000000000E+00 0.  1.
          3    1    3    3  501    0  0.56199255610E+02 -0.14855281233E+03 -0.51423000274E+03  0.53819958203E+03  0.00000000000E+00 0.  1.
         21    1    1    2  502  501  0.10551369395E+02 -0.36257742702E+01  0.75214246151E+01  0.13455462215E+02  0.00000000000E+00 0.  1.
<mgrwt>
<rscale>  1 0.30000000E+03</rscale>
<asrwt>0</asrwt>
<pdfrwt beam="1">  1        3 0.13504024E+00 0.30000000E+03</pdfrwt>
<pdfrwt beam="2">0</pdfrwt>
<totfact> 0.15416974E+00</totfact>
</mgrwt>
</event>
<event>
 6    1  0.1875959E-004  0.3000000E+03  0.7818608E-02  0.1093470E+00
          1   -1    0    0  502    0  0.00000000000E+00  0.00000000000E+00  0.34458107637E+02  0.34458107637E+02  0.00000000000E+00 0.  1.
         13   -1    0    0    0    0 -0.00000000000E+00 -0.00000000000E+00 -0.10000000000E+04  0.10000000000E+04  0.00000000000E+00 0.  1.
    9000005    2    1    2  501    0 -0.34458503452E+01 -0.10818067414E+02 -0.94432054454E+03  0.10103904931E+04  0.35919180557E+03 0.  0.
         13    1    3    3    0    0  0.16516937118E+03  0.59818624864E+02 -0.42726511257E+03  0.46196825159E+03  0.00000000000E+00 0.  1.
          1    1    3    3  501    0 -0.16861522153E+03 -0.70636692278E+02 -0.51705543197E+03  0.54842224149E+03  0.00000000000E+00 0.  1.
         21    1    1    2  502  501  0.34458503452E+01  0.10818067414E+02 -0.21221347822E+02  0.24067614559E+02  0.00000000000E+00 0.  1.
<mgrwt>
<rscale>  1 0.30000000E+03</rscale>
<asrwt>0</asrwt>
<pdfrwt beam="1">  1        1 0.12530247E+00 0.30000000E+03</pdfrwt>
<pdfrwt beam="2">0</pdfrwt>
<totfact> 0.24280070E+01</totfact>
</mgrwt>
</event>
<event>
 6    1  0.1875959E-004  0.3000000E+03  0.7818608E-02  0.1093470E+00
          1   -1    0    0  502    0  0.00000000000E+00  0.00000000000E+00  0.55178488394E+02  0.55178488394E+02  0.00000000000E+00 0.  1.
         13   -1    0    0    0    0 -0.00000000000E+00 -0.00000000000E+00 -0.10000000000E+04  0.10000000000E+04  0.00000000000E+00 0.  1.
    9000005    2    1    2  501    0  0.29715375285E+02 -0.39481581470E+02 -0.95119154998E+03  0.10053550382E+04  0.32176325026E+03 0.  0.
         13    1    3    3    0    0  0.56502617718E+02 -0.90766774950E+02 -0.83297812074E+02  0.13553478793E+03  0.00000000000E+00 0.  1.
          1    1    3    3  501    0 -0.26787242433E+02  0.51285193480E+02 -0.86789373790E+03  0.86982025023E+03  0.00000000000E+00 0.  1.
         21    1    1    2  502  501 -0.29715375285E+02  0.39481581470E+02  0.63700383700E+01  0.49823450227E+02  0.00000000000E+00 0.  1.
<mgrwt>
<rscale>  1 0.30000000E+03</rscale>
<asrwt>0</asrwt>
<pdfrwt beam="1">  1        1 0.20064947E+00 0.30000000E+03</pdfrwt>
<pdfrwt beam="2">0</pdfrwt>
<totfact> 0.10170867E+01</totfact>
</mgrwt>
</event>
<event>
 6    1  0.1875959E-004  0.3000000E+03  0.7818608E-02  0.1093470E+00
          3   -1    0    0  502    0  0.00000000000E+00  0.00000000000E+00  0.27781438902E+02  0.27781438902E+02  0.00000000000E+00 0.  1.
         13   -1    0    0    0    0 -0.00000000000E+00 -0.00000000000E+00 -0.10000000000E+04  0.10000000000E+04  0.00000000000E+00 0.  1.
    9000005    2    1    2  501    0 -0.11744316192E+01 -0.75665558946E+01 -0.95295748396E+03  0.10070541344E+04  0.32553253508E+03 0.  0.
         13    1    3    3    0    0  0.13082065877E+02  0.15240270816E+03 -0.60142167298E+03  0.62056889596E+03  0.00000000000E+00 0.  1.
          3    1    3    3  501    0 -0.14256497496E+02 -0.15996926405E+03 -0.35153581098E+03  0.38648523848E+03  0.00000000000E+00 0.  1.
         21    1    1    2  502  501  0.11744316192E+01  0.75665558946E+01 -0.19261077141E+02  0.20727304464E+02  0.00000000000E+00 0.  1.
<mgrwt>
<rscale>  1 0.30000000E+03</rscale>
<asrwt>0</asrwt>
<pdfrwt beam="1">  1        3 0.10102363E+00 0.30000000E+03</pdfrwt>
<pdfrwt beam="2">0</pdfrwt>
<totfact> 0.38132698E+00</totfact>
</mgrwt>
</event>
<event>
 6    1  0.1875959E-004  0.3000000E+03  0.7818608E-02  0.1093470E+00
          3   -1    0    0  502    0  0.00000000000E+00  0.00000000000E+00  0.25262133516E+02  0.25262133516E+02  0.00000000000E+00 0.  1.
         13   -1    0    0    0    0 -0.00000000000E+00 -0.00000000000E+00 -0.10000000000E+04  0.10000000000E+04  0.00000000000E+00 0.  1.
    9000005    2    1    2  501    0  0.14636822016E+02  0.20405718022E+01 -0.96560520236E+03  0.10078895676E+04  0.28849536077E+03 0.  0.
         13    1    3    3    0    0 -0.10109516704E+03 -0.90168907721E+02 -0.36508901444E+03  0.38941064852E+03  0.00000000000E+00 0.  1.
          3    1    3    3  501    0  0.11573198906E+03  0.92209479524E+02 -0.60051618792E+03  0.61847891909E+03  0.00000000000E+00 0.  1.
         21    1    1    2  502  501 -0.14636822016E+02 -0.20405718022E+01 -0.91326641221E+01  0.17372565901E+02  0.00000000000E+00 0.  1.
<mgrwt>
<rscale>  1 0.30000000E+03</rscale>
<asrwt>0</asrwt>
<pdfrwt beam="1">  1        3 0.91862497E-01 0.30000000E+03</pdfrwt>
<pdfrwt beam="2">0</pdfrwt>
<totfact> 0.48547933E+00</totfact>
</mgrwt>
</event>
<event>
 6    1  0.1875959E-004  0.3000000E+03  0.7818608E-02  0.1093470E+00
          1   -1    0    0  502    0  0.00000000000E+00  0.00000000000E+00  0.32286056830E+02  0.32286056830E+02  0.00000000000E+00 0.  1.
         13   -1    0    0    0    0 -0.00000000000E+00 -0.00000000000E+00 -0.10000000000E+04  0.10000000000E+04  0.00000000000E+00 0.  1.
    9000005    2    1    2  501    0 -0.78738724979E+01 -0.11488043029E+02 -0.96601755375E+03  0.10182557062E+04  0.32165322341E+03 0.  0.
         13    1    3    3    0    0  0.90974962832E+02 -0.13049792844E+03 -0.37545753381E+03  0.40776771928E+03  0.00000000000E+00 0.  1.
          3    1    3    3  501    0 -0.98848835330E+02  0.11900988541E+03 -0.59056001994E+03  0.61048798696E+03  0.00000000000E+00 0.  1.
         21    1    1    2  502  501  0.78738724979E+01  0.11488043029E+02 -0.16963894226E+01  0.14030350595E+02  0.00000000000E+00 0.  1.
<mgrwt>
<rscale>  1 0.30000000E+03</rscale>
<asrwt>0</asrwt>
<pdfrwt beam="1">  1        1 0.11740409E+00 0.30000000E+03</pdfrwt>
<pdfrwt beam="2">0</pdfrwt>
<totfact> 0.26895051E+01</totfact>
</mgrwt>
</event>
<event>
 6    1  0.1875959E-004  0.3000000E+03  0.7818608E-02  0.1093470E+00
          1   -1    0    0  502    0  0.00000000000E+00  0.00000000000E+00  0.55293565627E+02  0.55293565627E+02  0.00000000000E+00 0.  1.
         13   -1    0    0    0    0 -0.00000000000E+00 -0.00000000000E+00 -0.10000000000E+04  0.10000000000E+04  0.00000000000E+00 0.  1.
    9000005    2    1    2  501    0  0.28797941849E+02 -0.81738802881E+01 -0.96519294034E+03  0.10190191849E+04  0.32543287058E+03 0.  0.
         13    1    3    3    0    0 -0.47489222982E+02 -0.14543036785E+03 -0.63811639553E+03  0.65619947610E+03  0.00000000000E+00 0.  1.
          1    1    3    3  501    0  0.76287164831E+02  0.13725648757E+03 -0.32707654481E+03  0.36281970875E+03  0.00000000000E+00 0.  1.
         21    1    1    2  502  501 -0.28797941849E+02  0.81738802881E+01  0.20486505964E+02  0.36274380771E+02  0.00000000000E+00 0. -1.
<mgrwt>
<rscale>  1 0.30000000E+03</rscale>
<asrwt>0</asrwt>
<pdfrwt beam="1">  1        1 0.20106794E+00 0.30000000E+03</pdfrwt>
<pdfrwt beam="2">0</pdfrwt>
<totfact> 0.10124410E+01</totfact>
</mgrwt>
</event>
<event>
 6    1  0.1875959E-004  0.3000000E+03  0.7818608E-02  0.1093470E+00
          1   -1    0    0  502    0  0.00000000000E+00  0.00000000000E+00  0.37538623388E+02  0.37538623388E+02  0.00000000000E+00 0.  1.
         13   -1    0    0    0    0 -0.00000000000E+00 -0.00000000000E+00 -0.10000000000E+04  0.10000000000E+04  0.00000000000E+00 0.  1.
    9000005    2    1    2  501    0 -0.38220957545E+02  0.14887186659E+02 -0.91853631392E+03  0.97743969615E+03  0.33165785036E+03 0.  0.
         13    1    3    3    0    0 -0.14484674095E+02 -0.15613967765E+03 -0.51944168498E+03  0.54259475561E+03  0.00000000000E+00 0.  1.
          3    1    3    3  501    0 -0.23736283450E+02  0.17102686431E+03 -0.39909462894E+03  0.43484494054E+03  0.00000000000E+00 0.  1.
         21    1    1    2  502  501  0.38220957545E+02 -0.14887186659E+02 -0.43925062692E+02  0.60098927234E+02  0.00000000000E+00 0.  1.
<mgrwt>
<rscale>  1 0.30000000E+03</rscale>
<asrwt>0</asrwt>
<pdfrwt beam="1">  1        1 0.13650437E+00 0.30000000E+03</pdfrwt>
<pdfrwt beam="2">0</pdfrwt>
<totfact> 0.21109691E+01</totfact>
</mgrwt>
</event>
<event>
 6    1  0.1875959E-004  0.3000000E+03  0.7818608E-02  0.1093470E+00
          1   -1    0    0  502    0  0.00000000000E+00  0.00000000000E+00  0.38367506705E+02  0.38367506705E+02  0.00000000000E+00 0.  1.
         13   -1    0    0    0    0 -0.00000000000E+00 -0.00000000000E+00 -0.10000000000E+04  0.10000000000E+04  0.00000000000E+00 0.  1.
    9000005    2    1    2  501    0 -0.18607261797E+02 -0.27088142762E+01 -0.96534162069E+03  0.10192017692E+04  0.32639582402E+03 0.  0.
         13    1    3    3    0    0  0.42377471054E+01  0.67652303397E+02 -0.93782733551E+03  0.94027384516E+03  0.00000000000E+00 0.  1.
          3    1    3    3  501    0 -0.22845008902E+02 -0.70361117673E+02 -0.27514285171E+02  0.78927924086E+02  0.00000000000E+00 0.  1.
         21    1    1    2  502  501  0.18607261797E+02  0.27088142762E+01  0.37091273902E+01  0.19165737459E+02  0.00000000000E+00 0.  1.
<mgrwt>
<rscale>  1 0.30000000E+03</rscale>
<asrwt>0</asrwt>
<pdfrwt beam="1">  1        1 0.13951850E+00 0.30000000E+03</pdfrwt>
<pdfrwt beam="2">0</pdfrwt>
<totfact> 0.20350292E+01</totfact>
</mgrwt>
</event>
<event>
 6    1  0.1875959E-004  0.3000000E+03  0.7818608E-02  0.1093470E+00
          1   -1    0    0  502    0  0.00000000000E+00  0.00000000000E+00  0.78867547739E+02  0.78867547739E+02  0.00000000000E+00 0.  1.
         13   -1    0    0    0    0 -0.00000000000E+00 -0.00000000000E+00 -0.10000000000E+04  0.10000000000E+04  0.00000000000E+00 0.  1.
    9000005    2    1    2  501    0 -0.16729062797E+03 -0.27711692045E+02 -0.72818835231E+03  0.82199886964E+03  0.34156957296E+03 0.  0.
         13    1    3    3    0    0 -0.31794660364E+02 -0.17394557015E+03 -0.27561188125E+03  0.32745972407E+03  0.00000000000E+00 0.  1.
          3    1    3    3  501    0 -0.13549596760E+03  0.14623387811E+03 -0.45257647106E+03  0.49453914557E+03  0.00000000000E+00 0.  1.
         21    1    1    2  502  501  0.16729062797E+03  0.27711692045E+02 -0.19294409995E+03  0.25686867810E+03  0.00000000000E+00 0.  1.
<mgrwt>
<rscale>  1 0.30000000E+03</rscale>
<asrwt>0</asrwt>
<pdfrwt beam="1">  1        1 0.28679169E+00 0.30000000E+03</pdfrwt>
<pdfrwt beam="2">0</pdfrwt>
<totfact> 0.40121847E+00</totfact>
</mgrwt>
</event>
<event>
 6    1  0.1875959E-004  0.3000000E+03  0.7818608E-02  0.1093470E+00
          1   -1    0    0  502    0  0.00000000000E+00  0.00000000000E+00  0.34344112031E+02  0.34344112031E+02  0.00000000000E+00 0.  1.
         13   -1    0    0    0    0 -0.00000000000E+00 -0.00000000000E+00 -0.10000000000E+04  0.10000000000E+04  0.00000000000E+00 0.  1.
    9000005    2    1    2  501    0  0.24992590612E+02 -0.21839788694E+02 -0.92978911333E+03  0.98547662306E+03  0.32489194106E+03 0.  0.
         13    1    3    3    0    0  0.13971548775E+03 -0.10411306649E+03 -0.38326107363E+03  0.42100949952E+03  0.00000000000E+00 0.  1.
          1    1    3    3  501    0 -0.11472289714E+03  0.82273277796E+02 -0.54652803970E+03  0.56446712353E+03  0.00000000000E+00 0.  1.
         21    1    1    2  502  501 -0.24992590612E+02  0.21839788694E+02 -0.35866774638E+02  0.48867488974E+02  0.00000000000E+00 0.  1.
<mgrwt>
<rscale>  1 0.30000000E+03</rscale>
<asrwt>0</asrwt>
<pdfrwt beam="1">  1        1 0.12488794E+00 0.30000000E+03</pdfrwt>
<pdfrwt beam="2">0</pdfrwt>
<totfact> 0.24408838E+01</totfact>
</mgrwt>
</event>
<event>
 6    1  0.1875959E-004  0.3000000E+03  0.7818608E-02  0.1093470E+00
          1   -1    0    0  502    0  0.00000000000E+00  0.00000000000E+00  0.48150127659E+02  0.48150127659E+02  0.00000000000E+00 0.  1.
         13   -1    0    0    0    0 -0.00000000000E+00 -0.00000000000E+00 -0.10000000000E+04  0.10000000000E+04  0.00000000000E+00 0.  1.
    9000005    2    1    2  501    0 -0.69324313532E+02 -0.14866992913E+02 -0.89587091635E+03  0.95781446782E+03  0.33135625553E+03 0.  0.
         13    1    3    3    0    0 -0.42772963449E+02 -0.29437246209E+02  0.87764497881E+01  0.52660269060E+02  0.00000000000E+00 0.  1.
          3    1    3    3  501    0 -0.26551350082E+02  0.14570253296E+02 -0.90464736613E+03  0.90515419876E+03  0.00000000000E+00 0.  1.
         21    1    1    2  502  501  0.69324313532E+02  0.14866992913E+02 -0.55978955994E+02  0.90335659842E+02  0.00000000000E+00 0. -1.
<mgrwt>
<rscale>  1 0.30000000E+03</rscale>
<asrwt>0</asrwt>
<pdfrwt beam="1">  1        1 0.17509174E+00 0.30000000E+03</pdfrwt>
<pdfrwt beam="2">0</pdfrwt>
<totfact> 0.13493988E+01</totfact>
</mgrwt>
</event>
<event>
 6    1  0.1875959E-004  0.3000000E+03  0.7818608E-02  0.1093470E+00
          1   -1    0    0  502    0  0.00000000000E+00  0.00000000000E+00  0.44786877931E+02  0.44786877931E+02  0.00000000000E+00 0.  1.
         13   -1    0    0    0    0 -0.00000000000E+00 -0.00000000000E+00 -0.10000000000E+04  0.10000000000E+04  0.00000000000E+00 0.  1.
    9000005    2    1    2  501    0 -0.10864780476E+02  0.20786766823E+02 -0.95837521241E+03  0.10211197711E+04  0.35164244065E+03 0.  0.
         13    1    3    3    0    0 -0.94920214528E+02 -0.13256362309E+03 -0.60864593880E+03  0.63010541984E+03  0.00000000000E+00 0.  1.
          3    1    3    3  501    0  0.84055434052E+02  0.15335038992E+03 -0.34972927361E+03  0.39101435128E+03  0.00000000000E+00 0.  1.
         21    1    1    2  502  501  0.10864780476E+02 -0.20786766823E+02  0.31620903422E+01  0.23667106817E+02  0.00000000000E+00 0.  1.
<mgrwt>
<rscale>  1 0.30000000E+03</rscale>
<asrwt>0</asrwt>
<pdfrwt beam="1">  1        1 0.16286172E+00 0.30000000E+03</pdfrwt>
<pdfrwt beam="2">0</pdfrwt>
<totfact> 0.15488998E+01</totfact>
</mgrwt>
</event>
<event>
 6    1  0.1875959E-004  0.3000000E+03  0.7818608E-02  0.1093470E+00
          1   -1    0    0  502    0  0.00000000000E+00  0.00000000000E+00  0.29420065847E+02  0.29420065847E+02  0.00000000000E+00 0.  1.
         13   -1    0    0    0    0 -0.00000000000E+00 -0.00000000000E+00 -0.10000000000E+04  0.10000000000E+04  0.00000000000E+00 0.  1.
    9000005    2    1    2  501    0 -0.41156752345E+01 -0.18514808357E+02 -0.93685051060E+03  0.99072367164E+03  0.32169049944E+03 0.  0.
         13    1    3    3    0    0  0.27821409630E+02  0.40889959472E+02 -0.91983659154E+03  0.92116522663E+03  0.00000000000E+00 0.  1.
          1    1    3    3  501    0 -0.31937084864E+02 -0.59404767829E+02 -0.17013919057E+02  0.69558445009E+02  0.00000000000E+00 0.  1.
         21    1    1    2  502  501  0.41156752345E+01  0.18514808357E+02 -0.33729423555E+02  0.38696394206E+02  0.00000000000E+00 0.  1.
<mgrwt>
<rscale>  1 0.30000000E+03</rscale>
<asrwt>0</asrwt>
<pdfrwt beam="1">  1        1 0.10698228E+00 0.30000000E+03</pdfrwt>
<pdfrwt beam="2">0</pdfrwt>
<totfact> 0.30977361E+01</totfact>
</mgrwt>
</event>
<event>
 6    1  0.1875959E-004  0.3000000E+03  0.7818608E-02  0.1093470E+00
          1   -1    0    0  502    0  0.00000000000E+00  0.00000000000E+00  0.58973276047E+02  0.58973276047E+02  0.00000000000E+00 0.  1.
         13   -1    0    0    0    0 -0.00000000000E+00 -0.00000000000E+00 -0.10000000000E+04  0.10000000000E+04  0.00000000000E+00 0.  1.
    9000005    2    1    2  501    0 -0.40255834524E+01 -0.11176332513E+02 -0.97246760985E+03  0.10253630836E+04  0.32486164022E+03 0.  0.
         13    1    3    3    0    0 -0.15377384992E+03 -0.54120401743E+02 -0.59706749305E+03  0.61892245561E+03  0.00000000000E+00 0.  1.
          3    1    3    3  501    0  0.14974826646E+03  0.42944069231E+02 -0.37540011680E+03  0.40644062799E+03  0.00000000000E+00 0.  1.
         21    1    1    2  502  501  0.40255834524E+01  0.11176332513E+02  0.31440885892E+02  0.33610192446E+02  0.00000000000E+00 0.  1.
<mgrwt>
<rscale>  1 0.30000000E+03</rscale>
<asrwt>0</asrwt>
<pdfrwt beam="1">  1        1 0.21444873E+00 0.30000000E+03</pdfrwt>
<pdfrwt beam="2">0</pdfrwt>
<totfact> 0.87530009E+00</totfact>
</mgrwt>
</event>
<event>
 6    1  0.1875959E-004  0.3000000E+03  0.7818608E-02  0.1093470E+00
          1   -1    0    0  502    0  0.00000000000E+00  0.00000000000E+00  0.15573251076E+03  0.15573251076E+03  0.00000000000E+00 0.  1.
         13   -1    0    0    0    0 -0.00000000000E+00 -0.00000000000E+00 -0.10000000000E+04  0.10000000000E+04  0.00000000000E+00 0.  1.
    9000005    2    1    2  501    0  0.83140615367E+02  0.43499695619E+02 -0.92999438991E+03  0.10286353552E+04  0.42941418623E+03 0.  0.
         13    1    3    3    0    0 -0.55954344881E+02  0.11858657493E+03 -0.59652038821E+02  0.14405564966E+03  0.00000000000E+00 0.  1.
          3    1    3    3  501    0  0.13909496025E+03 -0.75086879311E+02 -0.87034235109E+03  0.88457970557E+03  0.00000000000E+00 0.  1.
         21    1    1    2  502  501 -0.83140615367E+02 -0.43499695619E+02  0.85726900670E+02  0.12709715552E+03  0.00000000000E+00 0.  1.
<mgrwt>
<rscale>  1 0.30000000E+03</rscale>
<asrwt>0</asrwt>
<pdfrwt beam="1">  1        1 0.56630123E+00 0.30000000E+03</pdfrwt>
<pdfrwt beam="2">0</pdfrwt>
<totfact> 0.80609537E-02</totfact>
</mgrwt>
</event>
<event>
 6    1  0.1875959E-004  0.3000000E+03  0.7818608E-02  0.1093470E+00
          1   -1    0    0  502    0  0.00000000000E+00  0.00000000000E+00  0.43719933776E+02  0.43719933776E+02  0.00000000000E+00 0.  1.
         13   -1    0    0    0    0 -0.00000000000E+00 -0.00000000000E+00 -0.10000000000E+04  0.10000000000E+04  0.00000000000E+00 0.  1.
    9000005    2    1    2  501    0  0.17600267851E+02  0.17346258202E+01 -0.97273268755E+03  0.10195648701E+04  0.30494403498E+03 0.  0.
         13    1    3    3    0    0  0.60925107117E+02  0.74555403248E+02 -0.86933264324E+02  0.12972189205E+03  0.00000000000E+00 0.  1.
          3    1    3    3  501    0 -0.43324839266E+02 -0.72820777428E+02 -0.88579942322E+03  0.88984297800E+03  0.00000000000E+00 0.  1.
         21    1    1    2  502  501 -0.17600267851E+02 -0.17346258202E+01  0.16452621322E+02  0.24155063724E+02  0.00000000000E+00 0.  1.
<mgrwt>
<rscale>  1 0.30000000E+03</rscale>
<asrwt>0</asrwt>
<pdfrwt beam="1">  1        1 0.15898191E+00 0.30000000E+03</pdfrwt>
<pdfrwt beam="2">0</pdfrwt>
<totfact> 0.16190685E+01</totfact>
</mgrwt>
</event>
<event>
 6    1  0.1875959E-004  0.3000000E+03  0.7818608E-02  0.1093470E+00
          1   -1    0    0  502    0  0.00000000000E+00  0.00000000000E+00  0.51029753028E+02  0.51029753028E+02  0.00000000000E+00 0.  1.
         13   -1    0    0    0    0 -0.00000000000E+00 -0.00000000000E+00 -0.10000000000E+04  0.10000000000E+04  0.00000000000E+00 0.  1.
    9000005    2    1    2  501    0 -0.14921024423E+02  0.19688569075E+02 -0.95851857781E+03  0.10245449018E+04  0.36100431452E+03 0.  0.
         13    1    3    3    0    0  0.14129986391E+03  0.10916738838E+03 -0.54591581761E+03  0.57437553060E+03  0.00000000000E+00 0.  1.
          3    1    3    3  501    0 -0.15622088834E+03 -0.89478819308E+02 -0.41260276020E+03  0.45016937122E+03  0.00000000000E+00 0.  1.
         21    1    1    2  502  501  0.14921024423E+02 -0.19688569075E+02  0.95483308394E+01  0.26484851214E+02  0.00000000000E+00 0.  1.
<mgrwt>
<rscale>  1 0.30000000E+03</rscale>
<asrwt>0</asrwt>
<pdfrwt beam="1">  1        1 0.18556313E+00 0.30000000E+03</pdfrwt>
<pdfrwt beam="2">0</pdfrwt>
<totfact> 0.12009258E+01</totfact>
</mgrwt>
</event>
<event>
 6    1  0.1875959E-004  0.3000000E+03  0.7818608E-02  0.1093470E+00
          3   -1    0    0  502    0  0.00000000000E+00  0.00000000000E+00  0.44166174878E+02  0.44166174878E+02  0.00000000000E+00 0.  1.
         13   -1    0    0    0    0 -0.00000000000E+00 -0.00000000000E+00 -0.10000000000E+04  0.10000000000E+04  0.00000000000E+00 0.  1.
    9000005    2    1    2  501    0 -0.88080974364E+02  0.41071864130E+02 -0.84733198895E+03  0.89850284895E+03  0.28264945428E+03 0.  0.
         13    1    3    3    0    0  0.44944444100E+02  0.80907037022E+02 -0.91950662191E+02  0.13046407924E+03  0.00000000000E+00 0.  1.
          1    1    3    3  501    0 -0.13302541846E+03 -0.39835172892E+02 -0.75538132676E+03  0.76803876971E+03  0.00000000000E+00 0.  1.
         21    1    1    2  502  501  0.88080974364E+02 -0.41071864130E+02 -0.10850183617E+03  0.14566332593E+03  0.00000000000E+00 0.  1.
<mgrwt>
<rscale>  1 0.30000000E+03</rscale>
<asrwt>0</asrwt>
<pdfrwt beam="1">  1        3 0.16060461E+00 0.30000000E+03</pdfrwt>
<pdfrwt beam="2">0</pdfrwt>
<totfact> 0.69334332E-01</totfact>
</mgrwt>
</event>
<event>
 6    1  0.1875959E-004  0.3000000E+03  0.7818608E-02  0.1093470E+00
          1   -1    0    0  502    0  0.00000000000E+00  0.00000000000E+00  0.42122189188E+02  0.42122189188E+02  0.00000000000E+00 0.  1.
         13   -1    0    0    0    0 -0.00000000000E+00 -0.00000000000E+00 -0.10000000000E+04  0.10000000000E+04  0.00000000000E+00 0.  1.
    9000005    2    1    2  501    0 -0.63325695809E+02 -0.27110680235E+02 -0.76407329324E+03  0.83643960907E+03  0.33328379715E+03 0.  0.
         13    1    3    3    0    0  0.73948560187E+02 -0.13403497428E+03 -0.24414699105E+03  0.28816925083E+03  0.00000000000E+00 0.  1.
          3    1    3    3  501    0 -0.13727425600E+03  0.10692429405E+03 -0.51992630219E+03  0.54827035824E+03  0.00000000000E+00 0.  1.
         21    1    1    2  502  501  0.63325695809E+02  0.27110680235E+02 -0.19380451757E+03  0.20568258012E+03  0.00000000000E+00 0.  1.
<mgrwt>
<rscale>  1 0.30000000E+03</rscale>
<asrwt>0</asrwt>
<pdfrwt beam="1">  1        1 0.15317192E+00 0.30000000E+03</pdfrwt>
<pdfrwt beam="2">0</pdfrwt>
<totfact> 0.17312744E+01</totfact>
</mgrwt>
</event>
<event>
 6    1  0.1875959E-004  0.3000000E+03  0.7818608E-02  0.1093470E+00
          1   -1    0    0  502    0  0.00000000000E+00  0.00000000000E+00  0.30973747921E+02  0.30973747921E+02  0.00000000000E+00 0.  1.
         13   -1    0    0    0    0 -0.00000000000E+00 -0.00000000000E+00 -0.10000000000E+04  0.10000000000E+04  0.00000000000E+00 0.  1.
    9000005    2    1    2  501    0 -0.11872678544E+02  0.10132682831E+01 -0.95880649754E+03  0.10152756400E+04  0.33366560852E+03 0.  0.
         13    1    3    3    0    0 -0.84713909676E+02 -0.93617599621E+02 -0.83031465967E+03  0.83985899740E+03  0.00000000000E+00 0.  1.
          3    1    3    3  501    0  0.72841231132E+02  0.94630867904E+02 -0.12849183787E+03  0.17541664263E+03  0.00000000000E+00 0.  1.
         21    1    1    2  502  501  0.11872678544E+02 -0.10132682831E+01 -0.10219754540E+02  0.15698107889E+02  0.00000000000E+00 0.  1.
<mgrwt>
<rscale>  1 0.30000000E+03</rscale>
<asrwt>0</asrwt>
<pdfrwt beam="1">  1        1 0.11263205E+00 0.30000000E+03</pdfrwt>
<pdfrwt beam="2">0</pdfrwt>
<totfact> 0.28663297E+01</totfact>
</mgrwt>
</event>
<event>
 6    1  0.1875959E-004  0.3000000E+03  0.7818608E-02  0.1093470E+00
          1   -1    0    0  502    0  0.00000000000E+00  0.00000000000E+00  0.35327588364E+02  0.35327588364E+02  0.00000000000E+00 0.  1.
         13   -1    0    0    0    0 -0.00000000000E+00 -0.00000000000E+00 -0.10000000000E+04  0.10000000000E+04  0.00000000000E+00 0.  1.
    9000005    2    1    2  501    0  0.16203263963E+02  0.10896870131E+02 -0.96407023009E+03  0.10157917197E+04  0.31940588869E+03 0.  0.
         13    1    3    3    0    0  0.79588160234E+02  0.35182904745E+02 -0.52356132378E+02  0.10155430386E+03  0.00000000000E+00 0.  1.
          1    1    3    3  501    0 -0.63384896271E+02 -0.24286034614E+02 -0.91171409771E+03  0.91423741584E+03  0.00000000000E+00 0.  1.
         21    1    1    2  502  501 -0.16203263963E+02 -0.10896870131E+02 -0.60218154641E+00  0.19535868661E+02  0.00000000000E+00 0. -1.
<mgrwt>
<rscale>  1 0.30000000E+03</rscale>
<asrwt>0</asrwt>
<pdfrwt beam="1">  1        1 0.12846423E+00 0.30000000E+03</pdfrwt>
<pdfrwt beam="2">0</pdfrwt>
<totfact> 0.23325870E+01</totfact>
</mgrwt>
</event>
<event>
 6    1  0.1875959E-004  0.3000000E+03  0.7818608E-02  0.1093470E+00
          1   -1    0    0  502    0  0.00000000000E+00  0.00000000000E+00  0.36953430244E+02  0.36953430244E+02  0.00000000000E+00 0.  1.
         13   -1    0    0    0    0 -0.00000000000E+00 -0.00000000000E+00 -0.10000000000E+04  0.10000000000E+04  0.00000000000E+00 0.  1.
    9000005    2    1    2  501    0  0.32853388247E+02 -0.24995543551E+02 -0.92439419031E+03  0.98040142980E+03  0.32400342926E+03 0.  0.
         13    1    3    3    0    0 -0.11632888729E+03 -0.36829386165E+02 -0.15852059853E+03  0.20004397982E+03  0.00000000000E+00 0.  1.
          1    1    3    3  501    0  0.14918227554E+03  0.11833842614E+02 -0.76587359178E+03  0.78035744999E+03  0.00000000000E+00 0.  1.
         21    1    1    2  502  501 -0.32853388247E+02  0.24995543551E+02 -0.38652379449E+02  0.56552000440E+02  0.00000000000E+00 0. -1.
<mgrwt>
<rscale>  1 0.30000000E+03</rscale>
<asrwt>0</asrwt>
<pdfrwt beam="1">  1        1 0.13437639E+00 0.30000000E+03</pdfrwt>
<pdfrwt beam="2">0</pdfrwt>
<totfact> 0.21668203E+01</totfact>
</mgrwt>
</event>
<event>
 6    1  0.1875959E-004  0.3000000E+03  0.7818608E-02  0.1093470E+00
          1   -1    0    0  502    0  0.00000000000E+00  0.00000000000E+00  0.41251976207E+02  0.41251976207E+02  0.00000000000E+00 0.  1.
         13   -1    0    0    0    0 -0.00000000000E+00 -0.00000000000E+00 -0.10000000000E+04  0.10000000000E+04  0.00000000000E+00 0.  1.
    9000005    2    1    2  501    0  0.51696566991E+02 -0.25168042908E+02 -0.90912108248E+03  0.96529936778E+03  0.31936775262E+03 0.  0.
         13    1    3    3    0    0 -0.75631841523E+02  0.18944495951E+02 -0.76127437041E+03  0.76525664742E+03  0.00000000000E+00 0.  1.
          1    1    3    3  501    0  0.12732840851E+03 -0.44112538859E+02 -0.14784671206E+03  0.20004272036E+03  0.00000000000E+00 0.  1.
         21    1    1    2  502  501 -0.51696566991E+02  0.25168042908E+02 -0.49626941316E+02  0.75952608427E+02  0.00000000000E+00 0.  1.
<mgrwt>
<rscale>  1 0.30000000E+03</rscale>
<asrwt>0</asrwt>
<pdfrwt beam="1">  1        1 0.15000750E+00 0.30000000E+03</pdfrwt>
<pdfrwt beam="2">0</pdfrwt>
<totfact> 0.17963377E+01</totfact>
</mgrwt>
</event>
<event>
 6    1  0.1875959E-004  0.3000000E+03  0.7818608E-02  0.1093470E+00
          1   -1    0    0  502    0  0.00000000000E+00  0.00000000000E+00  0.37351559194E+02  0.37351559194E+02  0.00000000000E+00 0.  1.
         13   -1    0    0    0    0 -0.00000000000E+00 -0.00000000000E+00 -0.10000000000E+04  0.10000000000E+04  0.00000000000E+00 0.  1.
    9000005    2    1    2  501    0 -0.19417093247E+02 -0.49863107074E+02 -0.86663099899E+03  0.92743021418E+03  0.32590514081E+03 0.  0.
         13    1    3    3    0    0 -0.28427772094E+02 -0.12170890062E+03 -0.10750609634E+03  0.16485980549E+03  0.00000000000E+00 0.  1.
          3    1    3    3  501    0  0.90106788478E+01  0.71845793546E+02 -0.75912490265E+03  0.76257040868E+03  0.00000000000E+00 0.  1.
         21    1    1    2  502  501  0.19417093247E+02  0.49863107074E+02 -0.96017441818E+02  0.10992134502E+03  0.00000000000E+00 0.  1.
<mgrwt>
<rscale>  1 0.30000000E+03</rscale>
<asrwt>0</asrwt>
<pdfrwt beam="1">  1        1 0.13582414E+00 0.30000000E+03</pdfrwt>
<pdfrwt beam="2">0</pdfrwt>
<totfact> 0.21286114E+01</totfact>
</mgrwt>
</event>
<event>
 6    1  0.1875959E-004  0.3000000E+03  0.7818608E-02  0.1093470E+00
          1   -1    0    0  502    0  0.00000000000E+00  0.00000000000E+00  0.82278700402E+02  0.82278700402E+02  0.00000000000E+00 0.  1.
         13   -1    0    0    0    0 -0.00000000000E+00 -0.00000000000E+00 -0.10000000000E+04  0.10000000000E+04  0.00000000000E+00 0.  1.
    9000005    2    1    2  501    0 -0.42912743548E+02  0.14466304938E+02 -0.96325702810E+03  0.10180581421E+04  0.32638550977E+03 0.  0.
         13    1    3    3    0    0 -0.87732877533E+02  0.15512642774E+03 -0.60124287863E+03  0.62709988478E+03  0.00000000000E+00 0.  1.
          3    1    3    3  501    0  0.44820133985E+02 -0.14066012280E+03 -0.36201414947E+03  0.39095825733E+03  0.00000000000E+00 0.  1.
         21    1    1    2  502  501  0.42912743548E+02 -0.14466304938E+02  0.45535728503E+02  0.64220558295E+02  0.00000000000E+00 0.  1.
<mgrwt>
<rscale>  1 0.30000000E+03</rscale>
<asrwt>0</asrwt>
<pdfrwt beam="1">  1        1 0.29919591E+00 0.30000000E+03</pdfrwt>
<pdfrwt beam="2">0</pdfrwt>
<totfact> 0.35050407E+00</totfact>
</mgrwt>
</event>
<event>
 6    1  0.1875959E-004  0.3000000E+03  0.7818608E-02  0.1093470E+00
          1   -1    0    0  502    0  0.00000000000E+00  0.00000000000E+00  0.76305032831E+02  0.76305032831E+02  0.00000000000E+00 0.  1.
         13   -1    0    0    0    0 -0.00000000000E+00 -0.00000000000E+00 -0.10000000000E+04  0.10000000000E+04  0.00000000000E+00 0.  1.
    9000005    2    1    2  501    0  0.24825336567E+02  0.57663730912E+01 -0.96911676734E+03  0.10242215582E+04  0.33044355529E+03 0.  0.
         13    1    3    3    0    0 -0.51943697567E+02  0.92645880145E+00 -0.94083101091E+03  0.94226429262E+03  0.00000000000E+00 0.  1.
          3    1    3    3  501    0  0.76769034133E+02  0.48399142897E+01 -0.28285756428E+02  0.81957265626E+02  0.00000000000E+00 0.  1.
         21    1    1    2  502  501 -0.24825336567E+02 -0.57663730912E+01  0.45421800173E+02  0.52083474589E+02  0.00000000000E+00 0. -1.
<mgrwt>
<rscale>  1 0.30000000E+03</rscale>
<asrwt>0</asrwt>
<pdfrwt beam="1">  1        1 0.27747343E+00 0.30000000E+03</pdfrwt>
<pdfrwt beam="2">0</pdfrwt>
<totfact> 0.44368979E+00</totfact>
</mgrwt>
</event>
<event>
 6    1  0.1875959E-004  0.3000000E+03  0.7818608E-02  0.1093470E+00
          1   -1    0    0  502    0  0.00000000000E+00  0.00000000000E+00  0.49767533368E+02  0.49767533368E+02  0.00000000000E+00 0.  1.
         13   -1    0    0    0    0 -0.00000000000E+00 -0.00000000000E+00 -0.10000000000E+04  0.10000000000E+04  0.00000000000E+00 0.  1.
    9000005    2    1    2  501    0 -0.41183238027E+02 -0.22505794592E+02 -0.95120316953E+03  0.10028259511E+04  0.31411757117E+03 0.  0.
         13    1    3    3    0    0 -0.17863653625E+03 -0.99483064739E+01 -0.50453760532E+03  0.53532062922E+03  0.00000000000E+00 0.  1.
          1    1    3    3  501    0  0.13745329823E+03 -0.12557488118E+02 -0.44666556421E+03  0.46750532185E+03  0.00000000000E+00 0.  1.
         21    1    1    2  502  501  0.41183238027E+02  0.22505794592E+02  0.97070290244E+00  0.46941582299E+02  0.00000000000E+00 0.  1.
<mgrwt>
<rscale>  1 0.30000000E+03</rscale>
<asrwt>0</asrwt>
<pdfrwt beam="1">  1        1 0.18097323E+00 0.30000000E+03</pdfrwt>
<pdfrwt beam="2">0</pdfrwt>
<totfact> 0.12636803E+01</totfact>
</mgrwt>
</event>
<event>
 6    1  0.1875959E-004  0.3000000E+03  0.7818608E-02  0.1093470E+00
          1   -1    0    0  502    0  0.00000000000E+00  0.00000000000E+00  0.51862722635E+02  0.51862722635E+02  0.00000000000E+00 0.  1.
         13   -1    0    0    0    0 -0.00000000000E+00 -0.00000000000E+00 -0.10000000000E+04  0.10000000000E+04  0.00000000000E+00 0.  1.
    9000005    2    1    2  501    0 -0.30754603630E+01  0.27426698046E+02 -0.96584688026E+03  0.10190707685E+04  0.32385699444E+03 0.  0.
         13    1    3    3    0    0  0.52938563857E+01 -0.96227445725E+02 -0.82844273882E+03  0.83402944656E+03  0.00000000000E+00 0.  1.
          3    1    3    3  501    0 -0.83693167487E+01  0.12365414377E+03 -0.13740414144E+03  0.18504132192E+03  0.00000000000E+00 0.  1.
         21    1    1    2  502  501  0.30754603630E+01 -0.27426698046E+02  0.17709602896E+02  0.32791954149E+02  0.00000000000E+00 0.  1.
<mgrwt>
<rscale>  1 0.30000000E+03</rscale>
<asrwt>0</asrwt>
<pdfrwt beam="1">  1        1 0.18859212E+00 0.30000000E+03</pdfrwt>
<pdfrwt beam="2">0</pdfrwt>
<totfact> 0.11613352E+01</totfact>
</mgrwt>
</event>
<event>
 6    1  0.1875959E-004  0.3000000E+03  0.7818608E-02  0.1093470E+00
          1   -1    0    0  502    0  0.00000000000E+00  0.00000000000E+00  0.44976363689E+02  0.44976363689E+02  0.00000000000E+00 0.  1.
         13   -1    0    0    0    0 -0.00000000000E+00 -0.00000000000E+00 -0.10000000000E+04  0.10000000000E+04  0.00000000000E+00 0.  1.
    9000005    2    1    2  501    0  0.87459042077E+01  0.23158558065E+02 -0.96576360338E+03  0.10179919878E+04  0.32092918201E+03 0.  0.
         13    1    3    3    0    0  0.97866092647E+02 -0.10663574899E+03 -0.28978869843E+03  0.32392351688E+03  0.00000000000E+00 0.  1.
          1    1    3    3  501    0 -0.89120188439E+02  0.12979430706E+03 -0.67597490495E+03  0.69406847087E+03  0.00000000000E+00 0.  1.
         21    1    1    2  502  501 -0.87459042077E+01 -0.23158558065E+02  0.10739967067E+02  0.26984375936E+02  0.00000000000E+00 0.  1.
<mgrwt>
<rscale>  1 0.30000000E+03</rscale>
<asrwt>0</asrwt>
<pdfrwt beam="1">  1        1 0.16355076E+00 0.30000000E+03</pdfrwt>
<pdfrwt beam="2">0</pdfrwt>
<totfact> 0.15368091E+01</totfact>
</mgrwt>
</event>
<event>
 6    1  0.1875959E-004  0.3000000E+03  0.7818608E-02  0.1093470E+00
          1   -1    0    0  502    0  0.00000000000E+00  0.00000000000E+00  0.31720803177E+02  0.31720803177E+02  0.00000000000E+00 0.  1.
         13   -1    0    0    0    0 -0.00000000000E+00 -0.00000000000E+00 -0.10000000000E+04  0.10000000000E+04  0.00000000000E+00 0.  1.
    9000005    2    1    2  501    0  0.62846721510E+01  0.28587031561E+02 -0.92557659251E+03  0.97994988574E+03  0.32055114175E+03 0.  0.
         13    1    3    3    0    0  0.15986325069E+03 -0.91660215239E+01 -0.39244030703E+03  0.42385099911E+03  0.00000000000E+00 0.  1.
          1    1    3    3  501    0 -0.15357857854E+03  0.37753053085E+02 -0.53313628549E+03  0.55609888662E+03  0.00000000000E+00 0.  1.
         21    1    1    2  502  501 -0.62846721510E+01 -0.28587031561E+02 -0.42702604309E+02  0.51770917438E+02  0.00000000000E+00 0.  1.
<mgrwt>
<rscale>  1 0.30000000E+03</rscale>
<asrwt>0</asrwt>
<pdfrwt beam="1">  1        1 0.11534862E+00 0.30000000E+03</pdfrwt>
<pdfrwt beam="2">0</pdfrwt>
<totfact> 0.27637403E+01</totfact>
</mgrwt>
</event>
<event>
 6    1  0.1875959E-004  0.3000000E+03  0.7818608E-02  0.1093470E+00
          1   -1    0    0  502    0  0.00000000000E+00  0.00000000000E+00  0.36564488793E+02  0.36564488793E+02  0.00000000000E+00 0.  1.
         13   -1    0    0    0    0 -0.00000000000E+00 -0.00000000000E+00 -0.10000000000E+04  0.10000000000E+04  0.00000000000E+00 0.  1.
    9000005    2    1    2  501    0  0.16891158090E+02  0.10991377304E+02 -0.96376020423E+03  0.10164094144E+04  0.32225493776E+03 0.  0.
         13    1    3    3    0    0 -0.10777919999E+03  0.28497790572E+02 -0.81022629155E+03  0.81786008800E+03  0.00000000000E+00 0.  1.
          1    1    3    3  501    0  0.12467035808E+03 -0.17506413268E+02 -0.15353391268E+03  0.19854932644E+03  0.00000000000E+00 0.  1.
         21    1    1    2  502  501 -0.16891158090E+02 -0.10991377304E+02  0.32469302280E+00  0.20155074354E+02  0.00000000000E+00 0.  1.
<mgrwt>
<rscale>  1 0.30000000E+03</rscale>
<asrwt>0</asrwt>
<pdfrwt beam="1">  1        1 0.13296206E+00 0.30000000E+03</pdfrwt>
<pdfrwt beam="2">0</pdfrwt>
<totfact> 0.22050319E+01</totfact>
</mgrwt>
</event>
<event>
 6    1  0.1875959E-004  0.3000000E+03  0.7818608E-02  0.1093470E+00
          1   -1    0    0  502    0  0.00000000000E+00  0.00000000000E+00  0.35891394474E+02  0.35891394474E+02  0.00000000000E+00 0.  1.
         13   -1    0    0    0    0 -0.00000000000E+00 -0.00000000000E+00 -0.10000000000E+04  0.10000000000E+04  0.00000000000E+00 0.  1.
    9000005    2    1    2  501    0  0.37630207517E+02  0.34793579550E+02 -0.87474998750E+03  0.93287883063E+03  0.32007615703E+03 0.  0.
         13    1    3    3    0    0  0.14988565264E+02  0.37875363000E+02 -0.89878946585E+03  0.89971201178E+03  0.00000000000E+00 0.  1.
          1    1    3    3  501    0  0.22641642253E+02 -0.30817834498E+01  0.24039478349E+02  0.33166818847E+02  0.00000000000E+00 0.  1.
         21    1    1    2  502  501 -0.37630207517E+02 -0.34793579550E+02 -0.89358618023E+02  0.10301256385E+03  0.00000000000E+00 0.  1.
<mgrwt>
<rscale>  1 0.30000000E+03</rscale>
<asrwt>0</asrwt>
<pdfrwt beam="1">  1        1 0.13051444E+00 0.30000000E+03</pdfrwt>
<pdfrwt beam="2">0</pdfrwt>
<totfact> 0.22732830E+01</totfact>
</mgrwt>
</event>
<event>
 6    1  0.1875959E-004  0.3000000E+03  0.7818608E-02  0.1093470E+00
          3   -1    0    0  502    0  0.00000000000E+00  0.00000000000E+00  0.32998399637E+02  0.32998399637E+02  0.00000000000E+00 0.  1.
         13   -1    0    0    0    0 -0.00000000000E+00 -0.00000000000E+00 -0.10000000000E+04  0.10000000000E+04  0.00000000000E+00 0.  1.
    9000005    2    1    2  501    0 -0.47446273757E+01  0.14109029880E+02 -0.96189342041E+03  0.10172608739E+04  0.33069496091E+03 0.  0.
         13    1    3    3    0    0  0.59111920992E+02 -0.51960688263E+02 -0.35529129519E+02  0.86350746219E+02  0.00000000000E+00 0.  1.
          1    1    3    3  501    0 -0.63856548368E+02  0.66069718144E+02 -0.92636429089E+03  0.93091012771E+03  0.00000000000E+00 0.  1.
         21    1    1    2  502  501  0.47446273757E+01 -0.14109029880E+02 -0.51081799487E+01  0.15737525710E+02  0.00000000000E+00 0. -1.
<mgrwt>
<rscale>  1 0.30000000E+03</rscale>
<asrwt>0</asrwt>
<pdfrwt beam="1">  1        3 0.11999443E+00 0.30000000E+03</pdfrwt>
<pdfrwt beam="2">0</pdfrwt>
<totfact> 0.23133304E+00</totfact>
</mgrwt>
</event>
<event>
 6    1  0.1875959E-004  0.3000000E+03  0.7818608E-02  0.1093470E+00
          1   -1    0    0  502    0  0.00000000000E+00  0.00000000000E+00  0.45125871556E+02  0.45125871556E+02  0.00000000000E+00 0.  1.
         13   -1    0    0    0    0 -0.00000000000E+00 -0.00000000000E+00 -0.10000000000E+04  0.10000000000E+04  0.00000000000E+00 0.  1.
    9000005    2    1    2  501    0  0.80738150937E+01  0.14348539074E+02 -0.98043068930E+03  0.10147251336E+04  0.26105879265E+03 0.  0.
         13    1    3    3    0    0 -0.28688179986E+02 -0.99956990831E+02 -0.72570795922E+03  0.73312103623E+03  0.00000000000E+00 0.  1.
          1    1    3    3  501    0  0.36761995080E+02  0.11430552991E+03 -0.25472273008E+03  0.28160409739E+03  0.00000000000E+00 0.  1.
         21    1    1    2  502  501 -0.80738150937E+01 -0.14348539074E+02  0.25556560860E+02  0.30400737930E+02  0.00000000000E+00 0. -1.
<mgrwt>
<rscale>  1 0.30000000E+03</rscale>
<asrwt>0</asrwt>
<pdfrwt beam="1">  1        1 0.16409442E+00 0.30000000E+03</pdfrwt>
<pdfrwt beam="2">0</pdfrwt>
<totfact> 0.15273458E+01</totfact>
</mgrwt>
</event>
<event>
 6    1  0.1875959E-004  0.3000000E+03  0.7818608E-02  0.1093470E+00
          1   -1    0    0  502    0  0.00000000000E+00  0.00000000000E+00  0.31219290178E+02  0.31219290178E+02  0.00000000000E+00 0.  1.
         13   -1    0    0    0    0 -0.00000000000E+00 -0.00000000000E+00 -0.10000000000E+04  0.10000000000E+04  0.00000000000E+00 0.  1.
    9000005    2    1    2  501    0  0.20151345008E+01 -0.10209005857E+02 -0.95074083011E+03  0.10103933009E+04  0.34187455591E+03 0.  0.
         13    1    3    3    0    0 -0.10181164894E+03  0.92931703732E+02 -0.18453983430E+03  0.23034075597E+03  0.00000000000E+00 0.  1.
          3    1    3    3  501    0  0.10382678344E+03 -0.10314070959E+03 -0.76620099581E+03  0.78005254497E+03  0.00000000000E+00 0.  1.
         21    1    1    2  502  501 -0.20151345008E+01  0.10209005857E+02 -0.18039879709E+02  0.20825989233E+02  0.00000000000E+00 0.  1.
<mgrwt>
<rscale>  1 0.30000000E+03</rscale>
<asrwt>0</asrwt>
<pdfrwt beam="1">  1        1 0.11352493E+00 0.30000000E+03</pdfrwt>
<pdfrwt beam="2">0</pdfrwt>
<totfact> 0.28320237E+01</totfact>
</mgrwt>
</event>
<event>
 6    1  0.1875959E-004  0.3000000E+03  0.7818608E-02  0.1093470E+00
          1   -1    0    0  502    0  0.00000000000E+00  0.00000000000E+00  0.95711159447E+01  0.95711159447E+01  0.00000000000E+00 0.  1.
         13   -1    0    0    0    0 -0.00000000000E+00 -0.00000000000E+00 -0.10000000000E+04  0.10000000000E+04  0.00000000000E+00 0.  1.
    9000005    2    1    2  501    0  0.13788013916E+02 -0.18255012661E+02 -0.90795125457E+03  0.92397956157E+03  0.16982165559E+03 0.  0.
         13    1    3    3    0    0  0.14839962699E+02  0.24866033530E+02 -0.20497167777E+02  0.35477852293E+02  0.00000000000E+00 0.  1.
          3    1    3    3  501    0 -0.10519487828E+01 -0.43121046191E+02 -0.88745408679E+03  0.88850170928E+03  0.00000000000E+00 0.  1.
         21    1    1    2  502  501 -0.13788013916E+02  0.18255012661E+02 -0.82477629485E+02  0.85591554376E+02  0.00000000000E+00 0.  1.
<mgrwt>
<rscale>  1 0.30000000E+03</rscale>
<asrwt>0</asrwt>
<pdfrwt beam="1">  1        1 0.34804131E-01 0.30000000E+03</pdfrwt>
<pdfrwt beam="2">0</pdfrwt>
<totfact> 0.14175795E+02</totfact>
</mgrwt>
</event>
<event>
 6    1  0.1875959E-004  0.3000000E+03  0.7818608E-02  0.1093470E+00
          1   -1    0    0  502    0  0.00000000000E+00  0.00000000000E+00  0.30186968169E+02  0.30186968169E+02  0.00000000000E+00 0.  1.
         13   -1    0    0    0    0 -0.00000000000E+00 -0.00000000000E+00 -0.10000000000E+04  0.10000000000E+04  0.00000000000E+00 0.  1.
    9000005    2    1    2  501    0  0.78393614143E+01  0.12522848617E+01 -0.94469072440E+03  0.10038401631E+04  0.33939871030E+03 0.  0.
         13    1    3    3    0    0  0.11568777921E+03 -0.40666958085E+02 -0.83646602638E+03  0.84540692984E+03  0.00000000000E+00 0.  1.
          1    1    3    3  501    0 -0.10784841780E+03  0.41919242947E+02 -0.10822469802E+03  0.15843323329E+03  0.00000000000E+00 0.  1.
         21    1    1    2  502  501 -0.78393614143E+01 -0.12522848617E+01 -0.25122307434E+02  0.26346805036E+02  0.00000000000E+00 0.  1.
<mgrwt>
<rscale>  1 0.30000000E+03</rscale>
<asrwt>0</asrwt>
<pdfrwt beam="1">  1        1 0.10977102E+00 0.30000000E+03</pdfrwt>
<pdfrwt beam="2">0</pdfrwt>
<totfact> 0.29803213E+01</totfact>
</mgrwt>
</event>
<event>
 6    1  0.1875959E-004  0.3000000E+03  0.7818608E-02  0.1093470E+00
          1   -1    0    0  502    0  0.00000000000E+00  0.00000000000E+00  0.31594657930E+02  0.31594657930E+02  0.00000000000E+00 0.  1.
         13   -1    0    0    0    0 -0.00000000000E+00 -0.00000000000E+00 -0.10000000000E+04  0.10000000000E+04  0.00000000000E+00 0.  1.
    9000005    2    1    2  501    0  0.12117802445E+00 -0.16402797060E+02 -0.96365876382E+03  0.10145184628E+04  0.31676557863E+03 0.  0.
         13    1    3    3    0    0  0.55206151482E+02  0.13954019053E+03 -0.40568500008E+03  0.43255000084E+03  0.00000000000E+00 0.  1.
          1    1    3    3  501    0 -0.55084973458E+02 -0.15594298759E+03 -0.55797376374E+03  0.58196846195E+03  0.00000000000E+00 0.  1.
         21    1    1    2  502  501 -0.12117802445E+00  0.16402797060E+02 -0.47465782470E+01  0.17076195143E+02  0.00000000000E+00 0. -1.
<mgrwt>
<rscale>  1 0.30000000E+03</rscale>
<asrwt>0</asrwt>
<pdfrwt beam="1">  1        1 0.11488991E+00 0.30000000E+03</pdfrwt>
<pdfrwt beam="2">0</pdfrwt>
<totfact> 0.27806955E+01</totfact>
</mgrwt>
</event>
<event>
 6    1  0.1875959E-004  0.3000000E+03  0.7818608E-02  0.1093470E+00
          1   -1    0    0  502    0  0.00000000000E+00  0.00000000000E+00  0.23317782145E+02  0.23317782145E+02  0.00000000000E+00 0.  1.
         13   -1    0    0    0    0 -0.00000000000E+00 -0.00000000000E+00 -0.10000000000E+04  0.10000000000E+04  0.00000000000E+00 0.  1.
    9000005    2    1    2  501    0 -0.13701898442E+02  0.49825163123E+01 -0.95324068481E+03  0.99571211314E+03  0.28733646060E+03 0.  0.
         13    1    3    3    0    0 -0.52120986088E+02 -0.12531208594E+03 -0.64086673083E+03  0.65508005828E+03  0.00000000000E+00 0.  1.
          3    1    3    3  501    0  0.38419087645E+02  0.13029460225E+03 -0.31237395398E+03  0.34063205486E+03  0.00000000000E+00 0.  1.
         21    1    1    2  502  501  0.13701898442E+02 -0.49825163123E+01 -0.23441533046E+02  0.27605669006E+02  0.00000000000E+00 0.  1.
<mgrwt>
<rscale>  1 0.30000000E+03</rscale>
<asrwt>0</asrwt>
<pdfrwt beam="1">  1        1 0.84792114E-01 0.30000000E+03</pdfrwt>
<pdfrwt beam="2">0</pdfrwt>
<totfact> 0.43317273E+01</totfact>
</mgrwt>
</event>
<event>
 6    1  0.1875959E-004  0.3000000E+03  0.7818608E-02  0.1093470E+00
          1   -1    0    0  502    0  0.00000000000E+00  0.00000000000E+00  0.73976407115E+02  0.73976407115E+02  0.00000000000E+00 0.  1.
         13   -1    0    0    0    0 -0.00000000000E+00 -0.00000000000E+00 -0.10000000000E+04  0.10000000000E+04  0.00000000000E+00 0.  1.
    9000005    2    1    2  501    0  0.73167128825E+02 -0.76207379444E+02 -0.90706898104E+03  0.96664388300E+03  0.31696256367E+03 0.  0.
         13    1    3    3    0    0  0.45420609549E+02 -0.18973405708E+03 -0.38447431259E+03  0.43114097605E+03  0.00000000000E+00 0.  1.
          3    1    3    3  501    0  0.27746519276E+02  0.11352667763E+03 -0.52259466845E+03  0.53550290696E+03  0.00000000000E+00 0.  1.
         21    1    1    2  502  501 -0.73167128825E+02  0.76207379444E+02 -0.18954611849E+02  0.10733252411E+03  0.00000000000E+00 0.  1.
<mgrwt>
<rscale>  1 0.30000000E+03</rscale>
<asrwt>0</asrwt>
<pdfrwt beam="1">  1        1 0.26900568E+00 0.30000000E+03</pdfrwt>
<pdfrwt beam="2">0</pdfrwt>
<totfact> 0.48600571E+00</totfact>
</mgrwt>
</event>
<event>
 6    1  0.1875959E-004  0.3000000E+03  0.7818608E-02  0.1093470E+00
          1   -1    0    0  502    0  0.00000000000E+00  0.00000000000E+00  0.49673735363E+02  0.49673735363E+02  0.00000000000E+00 0.  1.
         13   -1    0    0    0    0 -0.00000000000E+00 -0.00000000000E+00 -0.10000000000E+04  0.10000000000E+04  0.00000000000E+00 0.  1.
    9000005    2    1    2  501    0 -0.74984386443E+02  0.78606073029E+02 -0.75089550351E+03  0.82257419461E+03  0.31777771400E+03 0.  0.
         13    1    3    3    0    0  0.65381884965E+01  0.88684102578E+02 -0.25452868185E+02  0.92495764539E+02  0.00000000000E+00 0.  1.
          3    1    3    3  501    0 -0.81522574940E+02 -0.10078029549E+02 -0.72544263533E+03  0.73007843007E+03  0.00000000000E+00 0.  1.
         21    1    1    2  502  501  0.74984386443E+02 -0.78606073029E+02 -0.19943076113E+03  0.22709954075E+03  0.00000000000E+00 0.  1.
<mgrwt>
<rscale>  1 0.30000000E+03</rscale>
<asrwt>0</asrwt>
<pdfrwt beam="1">  1        1 0.18063215E+00 0.30000000E+03</pdfrwt>
<pdfrwt beam="2">0</pdfrwt>
<totfact> 0.12684858E+01</totfact>
</mgrwt>
</event>
<event>
 6    1  0.1875959E-004  0.3000000E+03  0.7818608E-02  0.1093470E+00
          1   -1    0    0  502    0  0.00000000000E+00  0.00000000000E+00  0.38206929667E+02  0.38206929667E+02  0.00000000000E+00 0.  1.
         13   -1    0    0    0    0 -0.00000000000E+00 -0.00000000000E+00 -0.10000000000E+04  0.10000000000E+04  0.00000000000E+00 0.  1.
    9000005    2    1    2  501    0  0.12184628439E+02  0.24180614580E+01 -0.92880255844E+03  0.10029551770E+04  0.37827315832E+03 0.  0.
         13    1    3    3    0    0 -0.81384428577E+02 -0.50942358847E+02 -0.87909741617E+03  0.88432506255E+03  0.00000000000E+00 0.  1.
          3    1    3    3  501    0  0.93569057016E+02  0.53360420305E+02 -0.49705142277E+02  0.11863011445E+03  0.00000000000E+00 0.  1.
         21    1    1    2  502  501 -0.12184628439E+02 -0.24180614580E+01 -0.32990511889E+02  0.35251752667E+02  0.00000000000E+00 0. -1.
<mgrwt>
<rscale>  1 0.30000000E+03</rscale>
<asrwt>0</asrwt>
<pdfrwt beam="1">  1        1 0.13893458E+00 0.30000000E+03</pdfrwt>
<pdfrwt beam="2">0</pdfrwt>
<totfact> 0.20494645E+01</totfact>
</mgrwt>
</event>
<event>
 6    1  0.1875959E-004  0.3000000E+03  0.7818608E-02  0.1093470E+00
          1   -1    0    0  502    0  0.00000000000E+00  0.00000000000E+00  0.11560838245E+03  0.11560838245E+03  0.00000000000E+00 0.  1.
         13   -1    0    0    0    0 -0.00000000000E+00 -0.00000000000E+00 -0.10000000000E+04  0.10000000000E+04  0.00000000000E+00 0.  1.
    9000005    2    1    2  501    0 -0.58959769369E+02 -0.17575349909E+02 -0.96298031790E+03  0.10158019140E+04  0.31739138051E+03 0.  0.
         13    1    3    3    0    0 -0.81840659115E+02 -0.98297101462E+02 -0.90457471325E+03  0.91357299954E+03  0.00000000000E+00 0.  1.
          1    1    3    3  501    0  0.22880889746E+02  0.80721751553E+02 -0.58405604649E+02  0.10222891442E+03  0.00000000000E+00 0.  1.
         21    1    1    2  502  501  0.58959769369E+02  0.17575349909E+02  0.78588700348E+02  0.99806468482E+02  0.00000000000E+00 0.  1.
<mgrwt>
<rscale>  1 0.30000000E+03</rscale>
<asrwt>0</asrwt>
<pdfrwt beam="1">  1        1 0.42039500E+00 0.30000000E+03</pdfrwt>
<pdfrwt beam="2">0</pdfrwt>
<totfact> 0.79755021E-01</totfact>
</mgrwt>
</event>
<event>
 6    1  0.1875959E-004  0.3000000E+03  0.7818608E-02  0.1093470E+00
          1   -1    0    0  502    0  0.00000000000E+00  0.00000000000E+00  0.29517462788E+02  0.29517462788E+02  0.00000000000E+00 0.  1.
         13   -1    0    0    0    0 -0.00000000000E+00 -0.00000000000E+00 -0.10000000000E+04  0.10000000000E+04  0.00000000000E+00 0.  1.
    9000005    2    1    2  501    0  0.53609760144E+01 -0.10731596160E+02 -0.96160581979E+03  0.10145942147E+04  0.32337557224E+03 0.  0.
         13    1    3    3    0    0 -0.65382756134E+02  0.13356262269E+03 -0.31529881336E+03  0.34860754537E+03  0.00000000000E+00 0.  1.
          3    1    3    3  501    0  0.70743732148E+02 -0.14429421885E+03 -0.64630700643E+03  0.66598666938E+03  0.00000000000E+00 0.  1.
         21    1    1    2  502  501 -0.53609760144E+01  0.10731596160E+02 -0.88767174211E+01  0.14923248043E+02  0.00000000000E+00 0.  1.
<mgrwt>
<rscale>  1 0.30000000E+03</rscale>
<asrwt>0</asrwt>
<pdfrwt beam="1">  1        1 0.10733645E+00 0.30000000E+03</pdfrwt>
<pdfrwt beam="2">0</pdfrwt>
<totfact> 0.30824613E+01</totfact>
</mgrwt>
</event>
<event>
 6    1  0.1875959E-004  0.3000000E+03  0.7818608E-02  0.1093470E+00
          1   -1    0    0  502    0  0.00000000000E+00  0.00000000000E+00  0.46290185719E+02  0.46290185719E+02  0.00000000000E+00 0.  1.
         13   -1    0    0    0    0 -0.00000000000E+00 -0.00000000000E+00 -0.10000000000E+04  0.10000000000E+04  0.00000000000E+00 0.  1.
    9000005    2    1    2  501    0 -0.14116869818E+02 -0.76255550217E+01 -0.94463872000E+03  0.10278586949E+04  0.40483793081E+03 0.  0.
         13    1    3    3    0    0 -0.36421075164E+02  0.19648402631E+03 -0.46568847565E+03  0.50675262571E+03  0.00000000000E+00 0.  1.
          1    1    3    3  501    0  0.22304205346E+02 -0.20410958133E+03 -0.47895024436E+03  0.52110606918E+03  0.00000000000E+00 0.  1.
         21    1    1    2  502  501  0.14116869818E+02  0.76255550217E+01 -0.90710942772E+01  0.18431490830E+02  0.00000000000E+00 0. -1.
<mgrwt>
<rscale>  1 0.30000000E+03</rscale>
<asrwt>0</asrwt>
<pdfrwt beam="1">  1        1 0.16832830E+00 0.30000000E+03</pdfrwt>
<pdfrwt beam="2">0</pdfrwt>
<totfact> 0.14558847E+01</totfact>
</mgrwt>
</event>
<event>
 6    1  0.1875959E-004  0.3000000E+03  0.7818608E-02  0.1093470E+00
          1   -1    0    0  502    0  0.00000000000E+00  0.00000000000E+00  0.31153155285E+02  0.31153155285E+02  0.00000000000E+00 0.  1.
         13   -1    0    0    0    0 -0.00000000000E+00 -0.00000000000E+00 -0.10000000000E+04  0.10000000000E+04  0.00000000000E+00 0.  1.
    9000005    2    1    2  501    0 -0.10567812691E+02  0.89998022087E-01 -0.92652617335E+03  0.98753290781E+03  0.34155352047E+03 0.  0.
         13    1    3    3    0    0 -0.12290079444E+03 -0.10632383511E+03 -0.28959863581E+03  0.33207940775E+03  0.00000000000E+00 0.  1.
          1    1    3    3  501    0  0.11233298175E+03  0.10641383313E+03 -0.63692753754E+03  0.65545350006E+03  0.00000000000E+00 0.  1.
         21    1    1    2  502  501  0.10567812691E+02 -0.89998022087E-01 -0.42320671367E+02  0.43620247474E+02  0.00000000000E+00 0. -1.
<mgrwt>
<rscale>  1 0.30000000E+03</rscale>
<asrwt>0</asrwt>
<pdfrwt beam="1">  1        1 0.11328444E+00 0.30000000E+03</pdfrwt>
<pdfrwt beam="2">0</pdfrwt>
<totfact> 0.28412058E+01</totfact>
</mgrwt>
</event>
<event>
 6    1  0.1875959E-004  0.3000000E+03  0.7818608E-02  0.1093470E+00
          1   -1    0    0  502    0  0.00000000000E+00  0.00000000000E+00  0.40294159966E+02  0.40294159966E+02  0.00000000000E+00 0.  1.
         13   -1    0    0    0    0 -0.00000000000E+00 -0.00000000000E+00 -0.10000000000E+04  0.10000000000E+04  0.00000000000E+00 0.  1.
    9000005    2    1    2  501    0  0.11438349633E+02  0.84810606456E+02 -0.75585279435E+03  0.81920653245E+03  0.30407601231E+03 0.  0.
         13    1    3    3    0    0  0.80402414272E+02 -0.69465785364E+02 -0.50951712154E+03  0.52047837679E+03  0.00000000000E+00 0.  1.
          1    1    3    3  501    0 -0.68964064639E+02  0.15427639182E+03 -0.24633567281E+03  0.29872815566E+03  0.00000000000E+00 0.  1.
         21    1    1    2  502  501 -0.11438349633E+02 -0.84810606456E+02 -0.20385304568E+03  0.22108762752E+03  0.00000000000E+00 0.  1.
<mgrwt>
<rscale>  1 0.30000000E+03</rscale>
<asrwt>0</asrwt>
<pdfrwt beam="1">  1        1 0.14652453E+00 0.30000000E+03</pdfrwt>
<pdfrwt beam="2">0</pdfrwt>
<totfact> 0.18714879E+01</totfact>
</mgrwt>
</event>
<event>
 6    1  0.1875959E-004  0.3000000E+03  0.7818608E-02  0.1093470E+00
          1   -1    0    0  502    0  0.00000000000E+00  0.00000000000E+00  0.29846874972E+02  0.29846874972E+02  0.00000000000E+00 0.  1.
         13   -1    0    0    0    0 -0.00000000000E+00 -0.00000000000E+00 -0.10000000000E+04  0.10000000000E+04  0.00000000000E+00 0.  1.
    9000005    2    1    2  501    0  0.66490995291E+01  0.88871960083E+01 -0.96443070368E+03  0.10173593258E+04  0.32368228694E+03 0.  0.
         13    1    3    3    0    0  0.44210983120E+02  0.16084871707E+03 -0.52639166583E+03  0.55219118669E+03  0.00000000000E+00 0.  1.
          1    1    3    3  501    0 -0.37561883591E+02 -0.15196152107E+03 -0.43803903786E+03  0.46516813914E+03  0.00000000000E+00 0.  1.
         21    1    1    2  502  501 -0.66490995291E+01 -0.88871960083E+01 -0.57224213477E+01  0.12487549140E+02  0.00000000000E+00 0. -1.
<mgrwt>
<rscale>  1 0.30000000E+03</rscale>
<asrwt>0</asrwt>
<pdfrwt beam="1">  1        1 0.10853432E+00 0.30000000E+03</pdfrwt>
<pdfrwt beam="2">0</pdfrwt>
<totfact> 0.30315919E+01</totfact>
</mgrwt>
</event>
<event>
 6    1  0.1875959E-004  0.3000000E+03  0.7818608E-02  0.1093470E+00
          1   -1    0    0  502    0  0.00000000000E+00  0.00000000000E+00  0.32921220095E+02  0.32921220095E+02  0.00000000000E+00 0.  1.
         13   -1    0    0    0    0 -0.00000000000E+00 -0.00000000000E+00 -0.10000000000E+04  0.10000000000E+04  0.00000000000E+00 0.  1.
    9000005    2    1    2  501    0  0.40194105960E+01  0.14728037938E+02 -0.96371305757E+03  0.10172879591E+04  0.32542105585E+03 0.  0.
         13    1    3    3    0    0 -0.12919100317E+03 -0.66194329622E+02 -0.66160555193E+03  0.67734327406E+03  0.00000000000E+00 0.  1.
          3    1    3    3  501    0  0.13321041376E+03  0.80922367561E+02 -0.30210750565E+03  0.33994468502E+03  0.00000000000E+00 0.  1.
         21    1    1    2  502  501 -0.40194105960E+01 -0.14728037938E+02 -0.33657223306E+01  0.15633261012E+02  0.00000000000E+00 0. -1.
<mgrwt>
<rscale>  1 0.30000000E+03</rscale>
<asrwt>0</asrwt>
<pdfrwt beam="1">  1        1 0.11971378E+00 0.30000000E+03</pdfrwt>
<pdfrwt beam="2">0</pdfrwt>
<totfact> 0.26093134E+01</totfact>
</mgrwt>
</event>
<event>
 6    1  0.1875959E-004  0.3000000E+03  0.7818608E-02  0.1093470E+00
          1   -1    0    0  502    0  0.00000000000E+00  0.00000000000E+00  0.40746291784E+02  0.40746291784E+02  0.00000000000E+00 0.  1.
         13   -1    0    0    0    0 -0.00000000000E+00 -0.00000000000E+00 -0.10000000000E+04  0.10000000000E+04  0.00000000000E+00 0.  1.
    9000005    2    1    2  501    0  0.41354424273E+02 -0.23559006620E+02 -0.92974728787E+03  0.98474768428E+03  0.32098717608E+03 0.  0.
         13    1    3    3    0    0 -0.37251200423E+02 -0.13708728476E+03 -0.71825093526E+03  0.73216458640E+03  0.00000000000E+00 0.  1.
          3    1    3    3  501    0  0.78605624696E+02  0.11352827814E+03 -0.21149635261E+03  0.25258309789E+03  0.00000000000E+00 0.  1.
         21    1    1    2  502  501 -0.41354424273E+02  0.23559006620E+02 -0.29506420351E+02  0.55998607499E+02  0.00000000000E+00 0.  1.
<mgrwt>
<rscale>  1 0.30000000E+03</rscale>
<asrwt>0</asrwt>
<pdfrwt beam="1">  1        1 0.14816865E+00 0.30000000E+03</pdfrwt>
<pdfrwt beam="2">0</pdfrwt>
<totfact> 0.18355341E+01</totfact>
</mgrwt>
</event>
<event>
 6    1  0.1875959E-004  0.3000000E+03  0.7818608E-02  0.1093470E+00
          1   -1    0    0  502    0  0.00000000000E+00  0.00000000000E+00  0.48969511709E+02  0.48969511709E+02  0.00000000000E+00 0.  1.
         13   -1    0    0    0    0 -0.00000000000E+00 -0.00000000000E+00 -0.10000000000E+04  0.10000000000E+04  0.00000000000E+00 0.  1.
    9000005    2    1    2  501    0  0.58096178317E+02 -0.27240089144E+02 -0.92116030420E+03  0.97819228169E+03  0.32281054124E+03 0.  0.
         13    1    3    3    0    0  0.48407164563E+02 -0.17398128443E+03 -0.46127623512E+03  0.49536704170E+03  0.00000000000E+00 0.  1.
          1    1    3    3  501    0  0.96890137538E+01  0.14674119529E+03 -0.45988406907E+03  0.48282523999E+03  0.00000000000E+00 0.  1.
         21    1    1    2  502  501 -0.58096178317E+02  0.27240089144E+02 -0.29870184093E+02  0.70777230021E+02  0.00000000000E+00 0.  1.
<mgrwt>
<rscale>  1 0.30000000E+03</rscale>
<asrwt>0</asrwt>
<pdfrwt beam="1">  1        1 0.17807133E+00 0.30000000E+03</pdfrwt>
<pdfrwt beam="2">0</pdfrwt>
<totfact> 0.13052092E+01</totfact>
</mgrwt>
</event>
<event>
 6    1  0.1875959E-004  0.3000000E+03  0.7818608E-02  0.1093470E+00
          1   -1    0    0  502    0  0.00000000000E+00  0.00000000000E+00  0.33387509719E+02  0.33387509719E+02  0.00000000000E+00 0.  1.
         13   -1    0    0    0    0 -0.00000000000E+00 -0.00000000000E+00 -0.10000000000E+04  0.10000000000E+04  0.00000000000E+00 0.  1.
    9000005    2    1    2  501    0  0.12088828775E+02 -0.11619322903E+01 -0.96758168346E+03  0.10212043573E+04  0.32633806903E+03 0.  0.
         13    1    3    3    0    0 -0.81054071200E+02 -0.13027173712E+03 -0.62314148129E+03  0.64175212789E+03  0.00000000000E+00 0.  1.
          3    1    3    3  501    0  0.93142899974E+02  0.12910980483E+03 -0.34444020218E+03  0.37945222940E+03  0.00000000000E+00 0.  1.
         21    1    1    2  502  501 -0.12088828775E+02  0.11619322903E+01  0.96919318293E+00  0.12183152433E+02  0.00000000000E+00 0.  1.
<mgrwt>
<rscale>  1 0.30000000E+03</rscale>
<asrwt>0</asrwt>
<pdfrwt beam="1">  1        1 0.12140938E+00 0.30000000E+03</pdfrwt>
<pdfrwt beam="2">0</pdfrwt>
<totfact> 0.25524799E+01</totfact>
</mgrwt>
</event>
<event>
 6    1  0.1875959E-004  0.3000000E+03  0.7818608E-02  0.1093470E+00
          3   -1    0    0  502    0  0.00000000000E+00  0.00000000000E+00  0.31536159258E+02  0.31536159258E+02  0.00000000000E+00 0.  1.
         13   -1    0    0    0    0 -0.00000000000E+00 -0.00000000000E+00 -0.10000000000E+04  0.10000000000E+04  0.00000000000E+00 0.  1.
    9000005    2    1    2  501    0 -0.13123363029E+02 -0.16752851813E+02 -0.94789783885E+03  0.10019415460E+04  0.32391923063E+03 0.  0.
         13    1    3    3    0    0  0.10759157206E+03 -0.12286790867E+03 -0.44790929632E+03  0.47675487107E+03  0.00000000000E+00 0.  1.
          3    1    3    3  501    0 -0.12071493509E+03  0.10611505685E+03 -0.49998854253E+03  0.52518667491E+03  0.00000000000E+00 0.  1.
         21    1    1    2  502  501  0.13123363029E+02  0.16752851813E+02 -0.20566001892E+02  0.29594613275E+02  0.00000000000E+00 0. -1.
<mgrwt>
<rscale>  1 0.30000000E+03</rscale>
<asrwt>0</asrwt>
<pdfrwt beam="1">  1        3 0.11467718E+00 0.30000000E+03</pdfrwt>
<pdfrwt beam="2">0</pdfrwt>
<totfact> 0.26645530E+00</totfact>
</mgrwt>
</event>
<event>
 6    1  0.1875959E-004  0.3000000E+03  0.7818608E-02  0.1093470E+00
          1   -1    0    0  502    0  0.00000000000E+00  0.00000000000E+00  0.28015256839E+02  0.28015256839E+02  0.00000000000E+00 0.  1.
         13   -1    0    0    0    0 -0.00000000000E+00 -0.00000000000E+00 -0.10000000000E+04  0.10000000000E+04  0.00000000000E+00 0.  1.
    9000005    2    1    2  501    0  0.73928503210E+01  0.70564410037E+01 -0.92149950549E+03  0.97650596818E+03  0.32295219410E+03 0.  0.
         13    1    3    3    0    0  0.66091548819E+02  0.10649769667E+03 -0.14584616168E+03  0.19230432938E+03  0.00000000000E+00 0.  1.
          1    1    3    3  501    0 -0.58698698498E+02 -0.99441255665E+02 -0.77565334381E+03  0.78420163880E+03  0.00000000000E+00 0.  1.
         21    1    1    2  502  501 -0.73928503210E+01 -0.70564410037E+01 -0.50485237673E+02  0.51509288661E+02  0.00000000000E+00 0. -1.
<mgrwt>
<rscale>  1 0.30000000E+03</rscale>
<asrwt>0</asrwt>
<pdfrwt beam="1">  1        1 0.10187388E+00 0.30000000E+03</pdfrwt>
<pdfrwt beam="2">0</pdfrwt>
<totfact> 0.33307755E+01</totfact>
</mgrwt>
</event>
<event>
 6    1  0.1875959E-004  0.3000000E+03  0.7818608E-02  0.1093470E+00
          1   -1    0    0  502    0  0.00000000000E+00  0.00000000000E+00  0.63664432766E+02  0.63664432766E+02  0.00000000000E+00 0.  1.
         13   -1    0    0    0    0 -0.00000000000E+00 -0.00000000000E+00 -0.10000000000E+04  0.10000000000E+04  0.00000000000E+00 0.  1.
    9000005    2    1    2  501    0  0.74713188647E+02  0.27582923827E+02 -0.93631841145E+03  0.98402224207E+03  0.29200124491E+03 0.  0.
         13    1    3    3    0    0  0.17468485184E+03 -0.16493988948E+02 -0.40162096351E+03  0.43827645096E+03  0.00000000000E+00 0.  1.
          3    1    3    3  501    0 -0.99971663198E+02  0.44076912776E+02 -0.53469744794E+03  0.54574579111E+03  0.00000000000E+00 0.  1.
         21    1    1    2  502  501 -0.74713188647E+02 -0.27582923827E+02 -0.17155785467E-01  0.79642190696E+02  0.00000000000E+00 0.  1.
<mgrwt>
<rscale>  1 0.30000000E+03</rscale>
<asrwt>0</asrwt>
<pdfrwt beam="1">  1        1 0.23150752E+00 0.30000000E+03</pdfrwt>
<pdfrwt beam="2">0</pdfrwt>
<totfact> 0.72811454E+00</totfact>
</mgrwt>
</event>
<event>
 6    1  0.1875959E-004  0.3000000E+03  0.7818608E-02  0.1093470E+00
          1   -1    0    0  502    0  0.00000000000E+00  0.00000000000E+00  0.24343800177E+02  0.24343800177E+02  0.00000000000E+00 0.  1.
         13   -1    0    0    0    0 -0.00000000000E+00 -0.00000000000E+00 -0.10000000000E+04  0.10000000000E+04  0.00000000000E+00 0.  1.
    9000005    2    1    2  501    0 -0.37441120653E+01  0.85945360617E+01 -0.96171178592E+03  0.10075410890E+04  0.30026921643E+03 0.  0.
         13    1    3    3    0    0 -0.53468909225E+02  0.14507863413E+03 -0.46570048717E+03  0.49069713478E+03  0.00000000000E+00 0.  1.
          3    1    3    3  501    0  0.49724797159E+02 -0.13648409807E+03 -0.49601129875E+03  0.51684395417E+03  0.00000000000E+00 0.  1.
         21    1    1    2  502  501  0.37441120653E+01 -0.85945360617E+01 -0.13944413907E+02  0.16802711225E+02  0.00000000000E+00 0.  1.
<mgrwt>
<rscale>  1 0.30000000E+03</rscale>
<asrwt>0</asrwt>
<pdfrwt beam="1">  1        1 0.88523096E-01 0.30000000E+03</pdfrwt>
<pdfrwt beam="2">0</pdfrwt>
<totfact> 0.40775136E+01</totfact>
</mgrwt>
</event>
<event>
 6    1  0.1875959E-004  0.3000000E+03  0.7818608E-02  0.1093470E+00
          1   -1    0    0  502    0  0.00000000000E+00  0.00000000000E+00  0.41682631948E+02  0.41682631948E+02  0.00000000000E+00 0.  1.
         13   -1    0    0    0    0 -0.00000000000E+00 -0.00000000000E+00 -0.10000000000E+04  0.10000000000E+04  0.00000000000E+00 0.  1.
    9000005    2    1    2  501    0 -0.11414389955E+02  0.16290616028E+01 -0.97228941041E+03  0.10235674420E+04  0.31970403276E+03 0.  0.
         13    1    3    3    0    0 -0.99412372304E+02 -0.93921090362E+02 -0.77751161941E+03  0.78944810425E+03  0.00000000000E+00 0.  1.
          3    1    3    3  501    0  0.87997982349E+02  0.95550151964E+02 -0.19477779100E+03  0.23411933774E+03  0.00000000000E+00 0.  1.
         21    1    1    2  502  501  0.11414389955E+02 -0.16290616028E+01  0.13972042355E+02  0.18115189961E+02  0.00000000000E+00 0.  1.
<mgrwt>
<rscale>  1 0.30000000E+03</rscale>
<asrwt>0</asrwt>
<pdfrwt beam="1">  1        1 0.15157353E+00 0.30000000E+03</pdfrwt>
<pdfrwt beam="2">0</pdfrwt>
<totfact> 0.17637710E+01</totfact>
</mgrwt>
</event>
<event>
 6    1  0.1875959E-004  0.3000000E+03  0.7818608E-02  0.1093470E+00
          1   -1    0    0  502    0  0.00000000000E+00  0.00000000000E+00  0.28769577475E+02  0.28769577475E+02  0.00000000000E+00 0.  1.
         13   -1    0    0    0    0 -0.00000000000E+00 -0.00000000000E+00 -0.10000000000E+04  0.10000000000E+04  0.00000000000E+00 0.  1.
    9000005    2    1    2  501    0  0.20371104596E+01 -0.10457147203E+02 -0.95945439436E+03  0.10128895087E+04  0.32446713258E+03 0.  0.
         13    1    3    3    0    0 -0.91335968880E+02 -0.98571927704E+02 -0.78425798970E+03  0.79568792786E+03  0.00000000000E+00 0.  1.
          1    1    3    3  501    0  0.93373079340E+02  0.88114780501E+02 -0.17519640467E+03  0.21720158079E+03  0.00000000000E+00 0.  1.
         21    1    1    2  502  501 -0.20371104596E+01  0.10457147203E+02 -0.11776028160E+02  0.15880068825E+02  0.00000000000E+00 0.  1.
<mgrwt>
<rscale>  1 0.30000000E+03</rscale>
<asrwt>0</asrwt>
<pdfrwt beam="1">  1        1 0.10461687E+00 0.30000000E+03</pdfrwt>
<pdfrwt beam="2">0</pdfrwt>
<totfact> 0.32026029E+01</totfact>
</mgrwt>
</event>
<event>
 6    1  0.1875959E-004  0.3000000E+03  0.7818608E-02  0.1093470E+00
          1   -1    0    0  502    0  0.00000000000E+00  0.00000000000E+00  0.28498317439E+02  0.28498317439E+02  0.00000000000E+00 0.  1.
         13   -1    0    0    0    0 -0.00000000000E+00 -0.00000000000E+00 -0.10000000000E+04  0.10000000000E+04  0.00000000000E+00 0.  1.
    9000005    2    1    2  501    0  0.16874740428E+02 -0.63597207737E+01 -0.92473178895E+03  0.97837221784E+03  0.31899547368E+03 0.  0.
         13    1    3    3    0    0  0.12368818142E+03 -0.11213282176E+03 -0.42863080605E+03  0.45999663460E+03  0.00000000000E+00 0.  1.
          3    1    3    3  501    0 -0.10681344100E+03  0.10577310099E+03 -0.49610098290E+03  0.51837558324E+03  0.00000000000E+00 0.  1.
         21    1    1    2  502  501 -0.16874740428E+02  0.63597207737E+01 -0.46769893610E+02  0.50126099600E+02  0.00000000000E+00 0.  1.
<mgrwt>
<rscale>  1 0.30000000E+03</rscale>
<asrwt>0</asrwt>
<pdfrwt beam="1">  1        1 0.10363046E+00 0.30000000E+03</pdfrwt>
<pdfrwt beam="2">0</pdfrwt>
<totfact> 0.32478547E+01</totfact>
</mgrwt>
</event>
<event>
 6    1  0.1875959E-004  0.3000000E+03  0.7818608E-02  0.1093470E+00
          1   -1    0    0  502    0  0.00000000000E+00  0.00000000000E+00  0.31607382478E+02  0.31607382478E+02  0.00000000000E+00 0.  1.
         13   -1    0    0    0    0 -0.00000000000E+00 -0.00000000000E+00 -0.10000000000E+04  0.10000000000E+04  0.00000000000E+00 0.  1.
    9000005    2    1    2  501    0 -0.61096296006E+01  0.89441550016E+01 -0.96833394777E+03  0.10207755348E+04  0.32279208868E+03 0.  0.
         13    1    3    3    0    0  0.84695015262E+02 -0.51563016179E+02 -0.86444058177E+03  0.87010890678E+03  0.00000000000E+00 0.  1.
          3    1    3    3  501    0 -0.90804644863E+02  0.60507171180E+02 -0.10389336600E+03  0.15066662799E+03  0.00000000000E+00 0.  1.
         21    1    1    2  502  501  0.61096296006E+01 -0.89441550016E+01 -0.58669756420E-01  0.10831847704E+02  0.00000000000E+00 0. -1.
<mgrwt>
<rscale>  1 0.30000000E+03</rscale>
<asrwt>0</asrwt>
<pdfrwt beam="1">  1        1 0.11493618E+00 0.30000000E+03</pdfrwt>
<pdfrwt beam="2">0</pdfrwt>
<totfact> 0.27789786E+01</totfact>
</mgrwt>
</event>
<event>
 6    1  0.1875959E-004  0.3000000E+03  0.7818608E-02  0.1093470E+00
          1   -1    0    0  502    0  0.00000000000E+00  0.00000000000E+00  0.29634969843E+02  0.29634969843E+02  0.00000000000E+00 0.  1.
         13   -1    0    0    0    0 -0.00000000000E+00 -0.00000000000E+00 -0.10000000000E+04  0.10000000000E+04  0.00000000000E+00 0.  1.
    9000005    2    1    2  501    0 -0.18908251881E+02  0.31817612460E+01 -0.93723898686E+03  0.99135990828E+03  0.32250566451E+03 0.  0.
         13    1    3    3    0    0  0.22816354028E+01  0.76680881638E+02 -0.32371614681E+02  0.83265148208E+02  0.00000000000E+00 0.  1.
          1    1    3    3  501    0 -0.21189887284E+02 -0.73499120392E+02 -0.90486737218E+03  0.90809476007E+03  0.00000000000E+00 0.  1.
         21    1    1    2  502  501  0.18908251881E+02 -0.31817612460E+01 -0.33126043292E+02  0.38275061568E+02  0.00000000000E+00 0.  1.
<mgrwt>
<rscale>  1 0.30000000E+03</rscale>
<asrwt>0</asrwt>
<pdfrwt beam="1">  1        1 0.10776375E+00 0.30000000E+03</pdfrwt>
<pdfrwt beam="2">0</pdfrwt>
<totfact> 0.30641761E+01</totfact>
</mgrwt>
</event>
<event>
 6    1  0.1875959E-004  0.3000000E+03  0.7818608E-02  0.1093470E+00
          1   -1    0    0  502    0  0.00000000000E+00  0.00000000000E+00  0.31444150537E+02  0.31444150537E+02  0.00000000000E+00 0.  1.
         13   -1    0    0    0    0 -0.00000000000E+00 -0.00000000000E+00 -0.10000000000E+04  0.10000000000E+04  0.00000000000E+00 0.  1.
    9000005    2    1    2  501    0 -0.19428294592E+02  0.74634010705E+01 -0.94559822021E+03  0.10004568350E+04  0.32607472081E+03 0.  0.
         13    1    3    3    0    0 -0.54827057524E+02  0.13977358001E+03 -0.72815486733E+03  0.74347304640E+03  0.00000000000E+00 0.  1.
          1    1    3    3  501    0  0.35398762932E+02 -0.13231017894E+03 -0.21744335288E+03  0.25698378855E+03  0.00000000000E+00 0.  1.
         21    1    1    2  502  501  0.19428294592E+02 -0.74634010705E+01 -0.22957629248E+02  0.30987315582E+02  0.00000000000E+00 0.  1.
<mgrwt>
<rscale>  1 0.30000000E+03</rscale>
<asrwt>0</asrwt>
<pdfrwt beam="1">  1        1 0.11434261E+00 0.30000000E+03</pdfrwt>
<pdfrwt beam="2">0</pdfrwt>
<totfact> 0.28011170E+01</totfact>
</mgrwt>
</event>
<event>
 6    1  0.1875959E-004  0.3000000E+03  0.7818608E-02  0.1093470E+00
          1   -1    0    0  502    0  0.00000000000E+00  0.00000000000E+00  0.37969651113E+02  0.37969651113E+02  0.00000000000E+00 0.  1.
         13   -1    0    0    0    0 -0.00000000000E+00 -0.00000000000E+00 -0.10000000000E+04  0.10000000000E+04  0.00000000000E+00 0.  1.
    9000005    2    1    2  501    0  0.12602255091E+02 -0.40108247050E+02 -0.86176619583E+03  0.92924804009E+03  0.34509919650E+03 0.  0.
         13    1    3    3    0    0  0.14720114481E+03 -0.12061663138E+02 -0.17565134968E+03  0.22949304433E+03  0.00000000000E+00 0.  1.
          3    1    3    3  501    0 -0.13459888972E+03 -0.28046583912E+02 -0.68611484615E+03  0.69975499576E+03  0.00000000000E+00 0.  1.
         21    1    1    2  502  501 -0.12602255091E+02  0.40108247050E+02 -0.10026415306E+03  0.10872161103E+03  0.00000000000E+00 0.  1.
<mgrwt>
<rscale>  1 0.30000000E+03</rscale>
<asrwt>0</asrwt>
<pdfrwt beam="1">  1        1 0.13807175E+00 0.30000000E+03</pdfrwt>
<pdfrwt beam="2">0</pdfrwt>
<totfact> 0.20710354E+01</totfact>
</mgrwt>
</event>
<event>
 6    1  0.1875959E-004  0.3000000E+03  0.7818608E-02  0.1093470E+00
          1   -1    0    0  502    0  0.00000000000E+00  0.00000000000E+00  0.47433428135E+02  0.47433428135E+02  0.00000000000E+00 0.  1.
         13   -1    0    0    0    0 -0.00000000000E+00 -0.00000000000E+00 -0.10000000000E+04  0.10000000000E+04  0.00000000000E+00 0.  1.
    9000005    2    1    2  501    0  0.17562417022E+02 -0.58464063697E+01 -0.97075472527E+03  0.10214829391E+04  0.31736420592E+03 0.  0.
         13    1    3    3    0    0 -0.53594057759E+02 -0.14690093266E+03 -0.55900443672E+03  0.58046375194E+03  0.00000000000E+00 0.  1.
          3    1    3    3  501    0  0.71156474781E+02  0.14105452629E+03 -0.41175028854E+03  0.44101918712E+03  0.00000000000E+00 0.  1.
         21    1    1    2  502  501 -0.17562417022E+02  0.58464063697E+01  0.18188153402E+02  0.25950489076E+02  0.00000000000E+00 0. -1.
<mgrwt>
<rscale>  1 0.30000000E+03</rscale>
<asrwt>0</asrwt>
<pdfrwt beam="1">  1        1 0.17248556E+00 0.30000000E+03</pdfrwt>
<pdfrwt beam="2">0</pdfrwt>
<totfact> 0.13893748E+01</totfact>
</mgrwt>
</event>
<event>
 6    1  0.1875959E-004  0.3000000E+03  0.7818608E-02  0.1093470E+00
          1   -1    0    0  502    0  0.00000000000E+00  0.00000000000E+00  0.45872670742E+02  0.45872670742E+02  0.00000000000E+00 0.  1.
         13   -1    0    0    0    0 -0.00000000000E+00 -0.00000000000E+00 -0.10000000000E+04  0.10000000000E+04  0.00000000000E+00 0.  1.
    9000005    2    1    2  501    0 -0.15645374683E+02  0.37160146601E+02 -0.94907677253E+03  0.10052381735E+04  0.32883340922E+03 0.  0.
         13    1    3    3    0    0 -0.93442019765E+02  0.36064168912E+02 -0.68761863534E+02  0.12149168372E+03  0.00000000000E+00 0.  1.
          3    1    3    3  501    0  0.77796645082E+02  0.10959776884E+01 -0.88031490900E+03  0.88374648976E+03  0.00000000000E+00 0.  1.
         21    1    1    2  502  501  0.15645374683E+02 -0.37160146601E+02 -0.50505567234E+01  0.40634497260E+02  0.00000000000E+00 0. -1.
<mgrwt>
<rscale>  1 0.30000000E+03</rscale>
<asrwt>0</asrwt>
<pdfrwt beam="1">  1        1 0.16681006E+00 0.30000000E+03</pdfrwt>
<pdfrwt beam="2">0</pdfrwt>
<totfact> 0.14810633E+01</totfact>
</mgrwt>
</event>
<event>
 6    1  0.1875959E-004  0.3000000E+03  0.7818608E-02  0.1093470E+00
          1   -1    0    0  502    0  0.00000000000E+00  0.00000000000E+00  0.63497028761E+02  0.63497028761E+02  0.00000000000E+00 0.  1.
         13   -1    0    0    0    0 -0.00000000000E+00 -0.00000000000E+00 -0.10000000000E+04  0.10000000000E+04  0.00000000000E+00 0.  1.
    9000005    2    1    2  501    0 -0.69754628659E+02  0.50246989751E+02 -0.92005994952E+03  0.97597079748E+03  0.31403537800E+03 0.  0.
         13    1    3    3    0    0  0.83176390417E+01 -0.12447963428E+03 -0.48292432904E+03  0.49877877866E+03  0.00000000000E+00 0.  1.
          3    1    3    3  501    0 -0.78072267701E+02  0.17472662403E+03 -0.43713562048E+03  0.47719201882E+03  0.00000000000E+00 0.  1.
         21    1    1    2  502  501  0.69754628659E+02 -0.50246989751E+02 -0.16443021720E+02  0.87526231278E+02  0.00000000000E+00 0.  1.
<mgrwt>
<rscale>  1 0.30000000E+03</rscale>
<asrwt>0</asrwt>
<pdfrwt beam="1">  1        1 0.23089877E+00 0.30000000E+03</pdfrwt>
<pdfrwt beam="2">0</pdfrwt>
<totfact> 0.73290718E+00</totfact>
</mgrwt>
</event>
<event>
 6    1  0.1875959E-004  0.3000000E+03  0.7818608E-02  0.1093470E+00
          1   -1    0    0  502    0  0.00000000000E+00  0.00000000000E+00  0.49972570408E+02  0.49972570408E+02  0.00000000000E+00 0.  1.
         13   -1    0    0    0    0 -0.00000000000E+00 -0.00000000000E+00 -0.10000000000E+04  0.10000000000E+04  0.00000000000E+00 0.  1.
    9000005    2    1    2  501    0 -0.87499966504E+01  0.13944378501E+02 -0.96339338609E+03  0.10287674548E+04  0.36050610485E+03 0.  0.
         13    1    3    3    0    0  0.68140756383E+02 -0.84397896038E+02 -0.75545476288E+02  0.13218655954E+03  0.00000000000E+00 0.  1.
          1    1    3    3  501    0 -0.76890753033E+02  0.98342274540E+02 -0.88784790980E+03  0.89658089530E+03  0.00000000000E+00 0.  1.
         21    1    1    2  502  501  0.87499966504E+01 -0.13944378501E+02  0.13365956500E+02  0.21205115570E+02  0.00000000000E+00 0.  1.
<mgrwt>
<rscale>  1 0.30000000E+03</rscale>
<asrwt>0</asrwt>
<pdfrwt beam="1">  1        1 0.18171882E+00 0.30000000E+03</pdfrwt>
<pdfrwt beam="2">0</pdfrwt>
<totfact> 0.12532453E+01</totfact>
</mgrwt>
</event>
<event>
 6    1  0.1875959E-004  0.3000000E+03  0.7818608E-02  0.1093470E+00
          1   -1    0    0  502    0  0.00000000000E+00  0.00000000000E+00  0.36098563188E+02  0.36098563188E+02  0.00000000000E+00 0.  1.
         13   -1    0    0    0    0 -0.00000000000E+00 -0.00000000000E+00 -0.10000000000E+04  0.10000000000E+04  0.00000000000E+00 0.  1.
    9000005    2    1    2  501    0 -0.17263746125E+02 -0.30487646900E+02 -0.89300613561E+03  0.95701836797E+03  0.34233998429E+03 0.  0.
         13    1    3    3    0    0 -0.10302704080E+03 -0.15192084498E+03 -0.61432934478E+03  0.64116695028E+03  0.00000000000E+00 0.  1.
          1    1    3    3  501    0  0.85763294671E+02  0.12143319808E+03 -0.27867679084E+03  0.31585141769E+03  0.00000000000E+00 0.  1.
         21    1    1    2  502  501  0.17263746125E+02  0.30487646900E+02 -0.70895301199E+02  0.79080195219E+02  0.00000000000E+00 0. -1.
<mgrwt>
<rscale>  1 0.30000000E+03</rscale>
<asrwt>0</asrwt>
<pdfrwt beam="1">  1        1 0.13126778E+00 0.30000000E+03</pdfrwt>
<pdfrwt beam="2">0</pdfrwt>
<totfact> 0.22519851E+01</totfact>
</mgrwt>
</event>
<event>
 6    1  0.1875959E-004  0.3000000E+03  0.7818608E-02  0.1093470E+00
          1   -1    0    0  502    0  0.00000000000E+00  0.00000000000E+00  0.29687342716E+02  0.29687342716E+02  0.00000000000E+00 0.  1.
         13   -1    0    0    0    0 -0.00000000000E+00 -0.00000000000E+00 -0.10000000000E+04  0.10000000000E+04  0.00000000000E+00 0.  1.
    9000005    2    1    2  501    0  0.12312785614E+02  0.13235002519E+01 -0.93175862730E+03  0.98919327438E+03  0.33192745922E+03 0.  0.
         13    1    3    3    0    0 -0.11888656141E+03 -0.61761762479E+02 -0.71913465552E+03  0.73150747266E+03  0.00000000000E+00 0.  1.
          1    1    3    3  501    0  0.13119934702E+03  0.63085262731E+02 -0.21262397178E+03  0.25768580172E+03  0.00000000000E+00 0.  1.
         21    1    1    2  502  501 -0.12312785614E+02 -0.13235002519E+01 -0.38554029980E+02  0.40494068334E+02  0.00000000000E+00 0.  1.
<mgrwt>
<rscale>  1 0.30000000E+03</rscale>
<asrwt>0</asrwt>
<pdfrwt beam="1">  1        1 0.10795420E+00 0.30000000E+03</pdfrwt>
<pdfrwt beam="2">0</pdfrwt>
<totfact> 0.30560764E+01</totfact>
</mgrwt>
</event>
<event>
 6    1  0.1875959E-004  0.3000000E+03  0.7818608E-02  0.1093470E+00
          3   -1    0    0  502    0  0.00000000000E+00  0.00000000000E+00  0.33522800158E+02  0.33522800158E+02  0.00000000000E+00 0.  1.
         13   -1    0    0    0    0 -0.00000000000E+00 -0.00000000000E+00 -0.10000000000E+04  0.10000000000E+04  0.00000000000E+00 0.  1.
    9000005    2    1    2  501    0 -0.10860420944E+02  0.21810255020E+01 -0.96711573483E+03  0.10224271550E+04  0.33154447219E+03 0.  0.
         13    1    3    3    0    0  0.62752519367E+02 -0.13702386780E+03 -0.66354068791E+03  0.68044078622E+03  0.00000000000E+00 0.  1.
          1    1    3    3  501    0 -0.73612940311E+02  0.13920489330E+03 -0.30357504692E+03  0.34198636875E+03  0.00000000000E+00 0.  1.
         21    1    1    2  502  501  0.10860420944E+02 -0.21810255020E+01  0.63853498759E+00  0.11095645193E+02  0.00000000000E+00 0.  1.
<mgrwt>
<rscale>  1 0.30000000E+03</rscale>
<asrwt>0</asrwt>
<pdfrwt beam="1">  1        3 0.12190135E+00 0.30000000E+03</pdfrwt>
<pdfrwt beam="2">0</pdfrwt>
<totfact> 0.21984107E+00</totfact>
</mgrwt>
</event>
<event>
 6    1  0.1875959E-004  0.3000000E+03  0.7818608E-02  0.1093470E+00
          1   -1    0    0  502    0  0.00000000000E+00  0.00000000000E+00  0.31154137300E+02  0.31154137300E+02  0.00000000000E+00 0.  1.
         13   -1    0    0    0    0 -0.00000000000E+00 -0.00000000000E+00 -0.10000000000E+04  0.10000000000E+04  0.00000000000E+00 0.  1.
    9000005    2    1    2  501    0  0.74431572046E+01 -0.97589859999E+01 -0.96578171418E+03  0.10185039435E+04  0.32321096067E+03 0.  0.
         13    1    3    3    0    0 -0.89159457613E+02 -0.12519978570E+03 -0.31445227099E+03  0.35000660844E+03  0.00000000000E+00 0.  1.
          3    1    3    3  501    0  0.96602614817E+02  0.11544079970E+03 -0.65132944319E+03  0.66849733507E+03  0.00000000000E+00 0.  1.
         21    1    1    2  502  501 -0.74431572046E+01  0.97589859999E+01 -0.30641485209E+01  0.12650193796E+02  0.00000000000E+00 0.  1.
<mgrwt>
<rscale>  1 0.30000000E+03</rscale>
<asrwt>0</asrwt>
<pdfrwt beam="1">  1        1 0.11328801E+00 0.30000000E+03</pdfrwt>
<pdfrwt beam="2">0</pdfrwt>
<totfact> 0.28410692E+01</totfact>
</mgrwt>
</event>
<event>
 6    1  0.1875959E-004  0.3000000E+03  0.7818608E-02  0.1093470E+00
          1   -1    0    0  502    0  0.00000000000E+00  0.00000000000E+00  0.29304855607E+02  0.29304855607E+02  0.00000000000E+00 0.  1.
         13   -1    0    0    0    0 -0.00000000000E+00 -0.00000000000E+00 -0.10000000000E+04  0.10000000000E+04  0.00000000000E+00 0.  1.
    9000005    2    1    2  501    0  0.19886955357E+02 -0.17341024940E+01 -0.96527656248E+03  0.10086200995E+04  0.29181700594E+03 0.  0.
         13    1    3    3    0    0 -0.34193176204E+02 -0.40816102686E+02 -0.14066400423E+02  0.55072598979E+02  0.00000000000E+00 0.  1.
          1    1    3    3  501    0  0.54080131561E+02  0.39082000192E+02 -0.95121016206E+03  0.95354750053E+03  0.00000000000E+00 0.  1.
         21    1    1    2  502  501 -0.19886955357E+02  0.17341024940E+01 -0.54185819136E+01  0.20684756097E+02  0.00000000000E+00 0.  1.
<mgrwt>
<rscale>  1 0.30000000E+03</rscale>
<asrwt>0</asrwt>
<pdfrwt beam="1">  1        1 0.10656334E+00 0.30000000E+03</pdfrwt>
<pdfrwt beam="2">0</pdfrwt>
<totfact> 0.31159452E+01</totfact>
</mgrwt>
</event>
<event>
 6    1  0.1875959E-004  0.3000000E+03  0.7818608E-02  0.1093470E+00
          1   -1    0    0  502    0  0.00000000000E+00  0.00000000000E+00  0.25195252705E+02  0.25195252705E+02  0.00000000000E+00 0.  1.
         13   -1    0    0    0    0 -0.00000000000E+00 -0.00000000000E+00 -0.10000000000E+04  0.10000000000E+04  0.00000000000E+00 0.  1.
    9000005    2    1    2  501    0 -0.42103167654E+01  0.12034099171E+02 -0.96300210910E+03  0.10078214627E+04  0.29693179734E+03 0.  0.
         13    1    3    3    0    0  0.58930592324E+02 -0.81136566878E+02 -0.81869221354E+03  0.82481082541E+03  0.00000000000E+00 0.  1.
          3    1    3    3  501    0 -0.63140909089E+02  0.93170666049E+02 -0.14430989556E+03  0.18301063731E+03  0.00000000000E+00 0.  1.
         21    1    1    2  502  501  0.42103167654E+01 -0.12034099171E+02 -0.11802638193E+02  0.17373789985E+02  0.00000000000E+00 0. -1.
<mgrwt>
<rscale>  1 0.30000000E+03</rscale>
<asrwt>0</asrwt>
<pdfrwt beam="1">  1        1 0.91619294E-01 0.30000000E+03</pdfrwt>
<pdfrwt beam="2">0</pdfrwt>
<totfact> 0.38835040E+01</totfact>
</mgrwt>
</event>
<event>
 6    1  0.1875959E-004  0.3000000E+03  0.7818608E-02  0.1093470E+00
          1   -1    0    0  502    0  0.00000000000E+00  0.00000000000E+00  0.98159976931E+02  0.98159976931E+02  0.00000000000E+00 0.  1.
         13   -1    0    0    0    0 -0.00000000000E+00 -0.00000000000E+00 -0.10000000000E+04  0.10000000000E+04  0.00000000000E+00 0.  1.
    9000005    2    1    2  501    0  0.31134302199E+02  0.50055101207E+01 -0.96588735297E+03  0.10267704793E+04  0.34687870882E+03 0.  0.
         13    1    3    3    0    0  0.27656831674E+02 -0.15865783567E+03 -0.66511305319E+03  0.68433367788E+03  0.00000000000E+00 0.  1.
          3    1    3    3  501    0  0.34774705245E+01  0.16366334579E+03 -0.30077429978E+03  0.34243680142E+03  0.00000000000E+00 0.  1.
         21    1    1    2  502  501 -0.31134302199E+02 -0.50055101207E+01  0.64047329899E+02  0.71389497632E+02  0.00000000000E+00 0.  1.
<mgrwt>
<rscale>  1 0.30000000E+03</rscale>
<asrwt>0</asrwt>
<pdfrwt beam="1">  1        1 0.35694612E+00 0.30000000E+03</pdfrwt>
<pdfrwt beam="2">0</pdfrwt>
<totfact> 0.18123983E+00</totfact>
</mgrwt>
</event>
<event>
 6    1  0.1875959E-004  0.3000000E+03  0.7818608E-02  0.1093470E+00
          1   -1    0    0  502    0  0.00000000000E+00  0.00000000000E+00  0.42269917296E+02  0.42269917296E+02  0.00000000000E+00 0.  1.
         13   -1    0    0    0    0 -0.00000000000E+00 -0.00000000000E+00 -0.10000000000E+04  0.10000000000E+04  0.00000000000E+00 0.  1.
    9000005    2    1    2  501    0  0.16698032840E+02  0.24285458586E+02 -0.95928605568E+03  0.10127567194E+04  0.32338495361E+03 0.  0.
         13    1    3    3    0    0  0.59881715312E+01 -0.14789853911E+03 -0.36308562130E+03  0.39209820768E+03  0.00000000000E+00 0.  1.
          3    1    3    3  501    0  0.10709861309E+02  0.17218399770E+03 -0.59620043438E+03  0.62065851170E+03  0.00000000000E+00 0.  1.
         21    1    1    2  502  501 -0.16698032840E+02 -0.24285458586E+02  0.15559729765E+01  0.29513197918E+02  0.00000000000E+00 0.  1.
<mgrwt>
<rscale>  1 0.30000000E+03</rscale>
<asrwt>0</asrwt>
<pdfrwt beam="1">  1        1 0.15370911E+00 0.30000000E+03</pdfrwt>
<pdfrwt beam="2">0</pdfrwt>
<totfact> 0.17205167E+01</totfact>
</mgrwt>
</event>
<event>
 6    1  0.1875959E-004  0.3000000E+03  0.7818608E-02  0.1093470E+00
          1   -1    0    0  502    0  0.00000000000E+00  0.00000000000E+00  0.58258798803E+02  0.58258798803E+02  0.00000000000E+00 0.  1.
         13   -1    0    0    0    0 -0.00000000000E+00 -0.00000000000E+00 -0.10000000000E+04  0.10000000000E+04  0.00000000000E+00 0.  1.
    9000005    2    1    2  501    0 -0.13586653014E+02 -0.13845387120E+02 -0.97095656857E+03  0.10231898727E+04  0.32215612013E+03 0.  0.
         13    1    3    3    0    0  0.33232618677E+02 -0.45733565443E+02 -0.63127622708E+01  0.56884241401E+02  0.00000000000E+00 0.  1.
          1    1    3    3  501    0 -0.46819271691E+02  0.31888178323E+02 -0.96464380630E+03  0.96630563134E+03  0.00000000000E+00 0.  1.
         21    1    1    2  502  501  0.13586653014E+02  0.13845387120E+02  0.29215367374E+02  0.35068926066E+02  0.00000000000E+00 0.  1.
<mgrwt>
<rscale>  1 0.30000000E+03</rscale>
<asrwt>0</asrwt>
<pdfrwt beam="1">  1        1 0.21185062E+00 0.30000000E+03</pdfrwt>
<pdfrwt beam="2">0</pdfrwt>
<totfact> 0.90028020E+00</totfact>
</mgrwt>
</event>
<event>
 6    1  0.1875959E-004  0.3000000E+03  0.7818608E-02  0.1093470E+00
          1   -1    0    0  502    0  0.00000000000E+00  0.00000000000E+00  0.29541018608E+02  0.29541018608E+02  0.00000000000E+00 0.  1.
         13   -1    0    0    0    0 -0.00000000000E+00 -0.00000000000E+00 -0.10000000000E+04  0.10000000000E+04  0.00000000000E+00 0.  1.
    9000005    2    1    2  501    0  0.10763348956E+02 -0.50369396648E+01 -0.95754526676E+03  0.10119915324E+04  0.32725021502E+03 0.  0.
         13    1    3    3    0    0  0.10774659370E+03 -0.93765072707E+02 -0.76897761962E+03  0.78213029400E+03  0.00000000000E+00 0.  1.
          1    1    3    3  501    0 -0.96983244739E+02  0.88728133042E+02 -0.18856764714E+03  0.22986123836E+03  0.00000000000E+00 0.  1.
         21    1    1    2  502  501 -0.10763348956E+02  0.50369396648E+01 -0.12913714632E+02  0.17549486247E+02  0.00000000000E+00 0.  1.
<mgrwt>
<rscale>  1 0.30000000E+03</rscale>
<asrwt>0</asrwt>
<pdfrwt beam="1">  1        1 0.10742211E+00 0.30000000E+03</pdfrwt>
<pdfrwt beam="2">0</pdfrwt>
<totfact> 0.30787833E+01</totfact>
</mgrwt>
</event>
<event>
 6    1  0.1875959E-004  0.3000000E+03  0.7818608E-02  0.1093470E+00
          1   -1    0    0  502    0  0.00000000000E+00  0.00000000000E+00  0.37065472222E+02  0.37065472222E+02  0.00000000000E+00 0.  1.
         13   -1    0    0    0    0 -0.00000000000E+00 -0.00000000000E+00 -0.10000000000E+04  0.10000000000E+04  0.00000000000E+00 0.  1.
    9000005    2    1    2  501    0 -0.10672397406E+02 -0.74175429169E+01 -0.96630077221E+03  0.10236396906E+04  0.33753831469E+03 0.  0.
         13    1    3    3    0    0 -0.12917578977E+02 -0.14561459626E+03 -0.21667324802E+03  0.26137668392E+03  0.00000000000E+00 0.  1.
          1    1    3    3  501    0  0.22451815716E+01  0.13819705335E+03 -0.74962752419E+03  0.76226300672E+03  0.00000000000E+00 0.  1.
         21    1    1    2  502  501  0.10672397406E+02  0.74175429169E+01  0.33662444312E+01  0.13425781574E+02  0.00000000000E+00 0. -1.
<mgrwt>
<rscale>  1 0.30000000E+03</rscale>
<asrwt>0</asrwt>
<pdfrwt beam="1">  1        1 0.13478382E+00 0.30000000E+03</pdfrwt>
<pdfrwt beam="2">0</pdfrwt>
<totfact> 0.21559758E+01</totfact>
</mgrwt>
</event>
<event>
 6    1  0.1875959E-004  0.3000000E+03  0.7818608E-02  0.1093470E+00
          1   -1    0    0  502    0  0.00000000000E+00  0.00000000000E+00  0.29520297126E+02  0.29520297126E+02  0.00000000000E+00 0.  1.
         13   -1    0    0    0    0 -0.00000000000E+00 -0.00000000000E+00 -0.10000000000E+04  0.10000000000E+04  0.00000000000E+00 0.  1.
    9000005    2    1    2  501    0 -0.14205177817E+02  0.12143778009E+02 -0.93992426003E+03  0.99370279430E+03  0.32192913877E+03 0.  0.
         13    1    3    3    0    0 -0.10385169202E+03  0.58518442523E+02 -0.85062954116E+03  0.85894132416E+03  0.00000000000E+00 0.  1.
          3    1    3    3  501    0  0.89646514202E+02 -0.46374664514E+02 -0.89294718869E+02  0.13476147014E+03  0.00000000000E+00 0.  1.
         21    1    1    2  502  501  0.14205177817E+02 -0.12143778009E+02 -0.30555442843E+02  0.35817502824E+02  0.00000000000E+00 0.  1.
<mgrwt>
<rscale>  1 0.30000000E+03</rscale>
<asrwt>0</asrwt>
<pdfrwt beam="1">  1        1 0.10734676E+00 0.30000000E+03</pdfrwt>
<pdfrwt beam="2">0</pdfrwt>
<totfact> 0.30820184E+01</totfact>
</mgrwt>
</event>
<event>
 6    1  0.1875959E-004  0.3000000E+03  0.7818608E-02  0.1093470E+00
          1   -1    0    0  502    0  0.00000000000E+00  0.00000000000E+00  0.28350070587E+02  0.28350070587E+02  0.00000000000E+00 0.  1.
         13   -1    0    0    0    0 -0.00000000000E+00 -0.00000000000E+00 -0.10000000000E+04  0.10000000000E+04  0.00000000000E+00 0.  1.
    9000005    2    1    2  501    0 -0.69326599440E+01  0.74919131387E+01 -0.95493032310E+03  0.10087608957E+04  0.32496527852E+03 0.  0.
         13    1    3    3    0    0  0.79890346563E+02 -0.47453828806E+01 -0.39694068189E+02  0.89334232979E+02  0.00000000000E+00 0.  1.
          1    1    3    3  501    0 -0.86823006507E+02  0.12237296019E+02 -0.91523625491E+03  0.91942666275E+03  0.00000000000E+00 0.  1.
         21    1    1    2  502  501  0.69326599440E+01 -0.74919131387E+01 -0.16719606316E+02  0.19589174861E+02  0.00000000000E+00 0. -1.
<mgrwt>
<rscale>  1 0.30000000E+03</rscale>
<asrwt>0</asrwt>
<pdfrwt beam="1">  1        1 0.10309138E+00 0.30000000E+03</pdfrwt>
<pdfrwt beam="2">0</pdfrwt>
<totfact> 0.32729791E+01</totfact>
</mgrwt>
</event>
<event>
 6    1  0.1875959E-004  0.3000000E+03  0.7818608E-02  0.1093470E+00
          1   -1    0    0  502    0  0.00000000000E+00  0.00000000000E+00  0.36631761885E+02  0.36631761885E+02  0.00000000000E+00 0.  1.
         13   -1    0    0    0    0 -0.00000000000E+00 -0.00000000000E+00 -0.10000000000E+04  0.10000000000E+04  0.00000000000E+00 0.  1.
    9000005    2    1    2  501    0  0.54131910968E+00 -0.23028722619E+02 -0.95758898327E+03  0.10128827645E+04  0.32927832996E+03 0.  0.
         13    1    3    3    0    0  0.55376285329E+02 -0.14120738999E+03 -0.24254159395E+03  0.28606377743E+03  0.00000000000E+00 0.  1.
          1    1    3    3  501    0 -0.54834966219E+02  0.11817866737E+03 -0.71504738932E+03  0.72681898703E+03  0.00000000000E+00 0.  1.
         21    1    1    2  502  501 -0.54131910968E+00  0.23028722619E+02 -0.57792548458E+01  0.23748997419E+02  0.00000000000E+00 0.  1.
<mgrwt>
<rscale>  1 0.30000000E+03</rscale>
<asrwt>0</asrwt>
<pdfrwt beam="1">  1        1 0.13320669E+00 0.30000000E+03</pdfrwt>
<pdfrwt beam="2">0</pdfrwt>
<totfact> 0.21983593E+01</totfact>
</mgrwt>
</event>
<event>
 6    1  0.1875959E-004  0.3000000E+03  0.7818608E-02  0.1093470E+00
          1   -1    0    0  502    0  0.00000000000E+00  0.00000000000E+00  0.29543997799E+02  0.29543997799E+02  0.00000000000E+00 0.  1.
         13   -1    0    0    0    0 -0.00000000000E+00 -0.00000000000E+00 -0.10000000000E+04  0.10000000000E+04  0.00000000000E+00 0.  1.
    9000005    2    1    2  501    0  0.42726084139E+01  0.92959369124E+01 -0.96386508844E+03  0.10173739621E+04  0.32543693756E+03 0.  0.
         13    1    3    3    0    0  0.15728084704E+03  0.42361264675E+02 -0.58970240843E+03  0.61178482500E+03  0.00000000000E+00 0.  1.
          1    1    3    3  501    0 -0.15300823863E+03 -0.33065327763E+02 -0.37416268001E+03  0.40558913706E+03  0.00000000000E+00 0.  1.
         21    1    1    2  502  501 -0.42726084139E+01 -0.92959369124E+01 -0.65909137599E+01  0.12170035741E+02  0.00000000000E+00 0.  1.
<mgrwt>
<rscale>  1 0.30000000E+03</rscale>
<asrwt>0</asrwt>
<pdfrwt beam="1">  1        1 0.10743295E+00 0.30000000E+03</pdfrwt>
<pdfrwt beam="2">0</pdfrwt>
<totfact> 0.30783186E+01</totfact>
</mgrwt>
</event>
<event>
 6    1  0.1875959E-004  0.3000000E+03  0.7818608E-02  0.1093470E+00
          1   -1    0    0  502    0  0.00000000000E+00  0.00000000000E+00  0.37126610047E+02  0.37126610047E+02  0.00000000000E+00 0.  1.
         13   -1    0    0    0    0 -0.00000000000E+00 -0.00000000000E+00 -0.10000000000E+04  0.10000000000E+04  0.00000000000E+00 0.  1.
    9000005    2    1    2  501    0 -0.49297242887E+01 -0.31201539673E+02 -0.95182436673E+03  0.10036614166E+04  0.31681031512E+03 0.  0.
         13    1    3    3    0    0  0.38980506310E+02  0.12178594146E+03 -0.21766347707E+03  0.25244540926E+03  0.00000000000E+00 0.  1.
          3    1    3    3  501    0 -0.43910230599E+02 -0.15298748113E+03 -0.73416088967E+03  0.75121600732E+03  0.00000000000E+00 0.  1.
         21    1    1    2  502  501  0.49297242887E+01  0.31201539673E+02 -0.11049023220E+02  0.33465193465E+02  0.00000000000E+00 0.  1.
<mgrwt>
<rscale>  1 0.30000000E+03</rscale>
<asrwt>0</asrwt>
<pdfrwt beam="1">  1        1 0.13500614E+00 0.30000000E+03</pdfrwt>
<pdfrwt beam="2">0</pdfrwt>
<totfact> 0.21500887E+01</totfact>
</mgrwt>
</event>
<event>
 6    1  0.1875959E-004  0.3000000E+03  0.7818608E-02  0.1093470E+00
          1   -1    0    0  502    0  0.00000000000E+00  0.00000000000E+00  0.99303004629E+02  0.99303004629E+02  0.00000000000E+00 0.  1.
         13   -1    0    0    0    0 -0.00000000000E+00 -0.00000000000E+00 -0.10000000000E+04  0.10000000000E+04  0.00000000000E+00 0.  1.
    9000005    2    1    2  501    0  0.11854686093E+03  0.19983938501E+03 -0.56718246040E+03  0.69282904104E+03  0.32299690197E+03 0.  0.
         13    1    3    3    0    0 -0.10486760200E+03  0.45141285271E+02 -0.97214284779E+02  0.14995188145E+03  0.00000000000E+00 0.  1.
          3    1    3    3  501    0  0.22341446293E+03  0.15469809974E+03 -0.46996817562E+03  0.54287715959E+03  0.00000000000E+00 0.  1.
         21    1    1    2  502  501 -0.11854686093E+03 -0.19983938501E+03 -0.33351453497E+03  0.40647396359E+03  0.00000000000E+00 0.  1.
<mgrwt>
<rscale>  1 0.30000000E+03</rscale>
<asrwt>0</asrwt>
<pdfrwt beam="1">  1        1 0.36110260E+00 0.30000000E+03</pdfrwt>
<pdfrwt beam="2">0</pdfrwt>
<totfact> 0.17228375E+00</totfact>
</mgrwt>
</event>
<event>
 6    1  0.1875959E-004  0.3000000E+03  0.7818608E-02  0.1093470E+00
          1   -1    0    0  502    0  0.00000000000E+00  0.00000000000E+00  0.36032249521E+02  0.36032249521E+02  0.00000000000E+00 0.  1.
         13   -1    0    0    0    0 -0.00000000000E+00 -0.00000000000E+00 -0.10000000000E+04  0.10000000000E+04  0.00000000000E+00 0.  1.
    9000005    2    1    2  501    0  0.20904223524E+02 -0.14690080886E+02 -0.95911097076E+03  0.10100250708E+04  0.31560102077E+03 0.  0.
         13    1    3    3    0    0 -0.19775664495E+02 -0.23204994414E+02  0.15724078051E+02  0.34304450185E+02  0.00000000000E+00 0.  1.
          3    1    3    3  501    0  0.40679888019E+02  0.85149135278E+01 -0.97483504881E+03  0.97572062058E+03  0.00000000000E+00 0.  1.
         21    1    1    2  502  501 -0.20904223524E+02  0.14690080886E+02 -0.48567797236E+01  0.26007178756E+02  0.00000000000E+00 0. -1.
<mgrwt>
<rscale>  1 0.30000000E+03</rscale>
<asrwt>0</asrwt>
<pdfrwt beam="1">  1        1 0.13102664E+00 0.30000000E+03</pdfrwt>
<pdfrwt beam="2">0</pdfrwt>
<totfact> 0.22587740E+01</totfact>
</mgrwt>
</event>
<event>
 6    1  0.1875959E-004  0.3000000E+03  0.7818608E-02  0.1093470E+00
          1   -1    0    0  502    0  0.00000000000E+00  0.00000000000E+00  0.31711913522E+02  0.31711913522E+02  0.00000000000E+00 0.  1.
         13   -1    0    0    0    0 -0.00000000000E+00 -0.00000000000E+00 -0.10000000000E+04  0.10000000000E+04  0.00000000000E+00 0.  1.
    9000005    2    1    2  501    0 -0.62265240479E+01 -0.25832127516E+02 -0.93131605460E+03  0.98618170865E+03  0.32326258757E+03 0.  0.
         13    1    3    3    0    0  0.68694112490E+02 -0.45037135957E+01 -0.20203199880E+02  0.71744921858E+02  0.00000000000E+00 0.  1.
          3    1    3    3  501    0 -0.74920636538E+02 -0.21328413921E+02 -0.91111285472E+03  0.91443678680E+03  0.00000000000E+00 0.  1.
         21    1    1    2  502  501  0.62265240479E+01  0.25832127516E+02 -0.36972031882E+02  0.45530204867E+02  0.00000000000E+00 0.  1.
<mgrwt>
<rscale>  1 0.30000000E+03</rscale>
<asrwt>0</asrwt>
<pdfrwt beam="1">  1        1 0.11531629E+00 0.30000000E+03</pdfrwt>
<pdfrwt beam="2">0</pdfrwt>
<totfact> 0.27649304E+01</totfact>
</mgrwt>
</event>
<event>
 6    1  0.1875959E-004  0.3000000E+03  0.7818608E-02  0.1093470E+00
          1   -1    0    0  502    0  0.00000000000E+00  0.00000000000E+00  0.22778526971E+02  0.22778526971E+02  0.00000000000E+00 0.  1.
         13   -1    0    0    0    0 -0.00000000000E+00 -0.00000000000E+00 -0.10000000000E+04  0.10000000000E+04  0.00000000000E+00 0.  1.
    9000005    2    1    2  501    0 -0.88579068218E+00  0.16023920394E+02 -0.94566464934E+03  0.98737536650E+03  0.28349768026E+03 0.  0.
         13    1    3    3    0    0  0.13953481287E+03  0.26543152762E+01 -0.54582198101E+03  0.56338143770E+03  0.00000000000E+00 0.  1.
          3    1    3    3  501    0 -0.14042060355E+03  0.13369605118E+02 -0.39984266833E+03  0.42399392880E+03  0.00000000000E+00 0.  1.
         21    1    1    2  502  501  0.88579068218E+00 -0.16023920394E+02 -0.31556823690E+02  0.35403160471E+02  0.00000000000E+00 0.  1.
<mgrwt>
<rscale>  1 0.30000000E+03</rscale>
<asrwt>0</asrwt>
<pdfrwt beam="1">  1        1 0.82831182E-01 0.30000000E+03</pdfrwt>
<pdfrwt beam="2">0</pdfrwt>
<totfact> 0.44754163E+01</totfact>
</mgrwt>
</event>
<event>
 6    1  0.1875959E-004  0.3000000E+03  0.7818608E-02  0.1093470E+00
          1   -1    0    0  502    0  0.00000000000E+00  0.00000000000E+00  0.37718478540E+02  0.37718478540E+02  0.00000000000E+00 0.  1.
         13   -1    0    0    0    0 -0.00000000000E+00 -0.00000000000E+00 -0.10000000000E+04  0.10000000000E+04  0.00000000000E+00 0.  1.
    9000005    2    1    2  501    0  0.52760673773E+02  0.24414239015E+02 -0.81775708351E+03  0.88193960665E+03  0.32513240130E+03 0.  0.
         13    1    3    3    0    0  0.80641195011E+02  0.13239914411E+03 -0.19420108977E+03  0.24848862944E+03  0.00000000000E+00 0.  1.
          3    1    3    3  501    0 -0.27880521238E+02 -0.10798490509E+03 -0.62355599375E+03  0.63345097721E+03  0.00000000000E+00 0.  1.
         21    1    1    2  502  501 -0.52760673773E+02 -0.24414239015E+02 -0.14452443795E+03  0.15577887189E+03  0.00000000000E+00 0.  1.
<mgrwt>
<rscale>  1 0.30000000E+03</rscale>
<asrwt>0</asrwt>
<pdfrwt beam="1">  1        1 0.13715839E+00 0.30000000E+03</pdfrwt>
<pdfrwt beam="2">0</pdfrwt>
<totfact> 0.20941870E+01</totfact>
</mgrwt>
</event>
<event>
 6    1  0.1875959E-004  0.3000000E+03  0.7818608E-02  0.1093470E+00
          1   -1    0    0  502    0  0.00000000000E+00  0.00000000000E+00  0.48638643004E+02  0.48638643004E+02  0.00000000000E+00 0.  1.
         13   -1    0    0    0    0 -0.00000000000E+00 -0.00000000000E+00 -0.10000000000E+04  0.10000000000E+04  0.00000000000E+00 0.  1.
    9000005    2    1    2  501    0 -0.10755628802E+02 -0.17643329345E+02 -0.96367461395E+03  0.10245848093E+04  0.34738782241E+03 0.  0.
         13    1    3    3    0    0 -0.86465775765E+02 -0.53710201846E+02 -0.62350958170E+02  0.11936816219E+03  0.00000000000E+00 0.  1.
          1    1    3    3  501    0  0.75710146963E+02  0.36066872501E+02 -0.90132365578E+03  0.90521664706E+03  0.00000000000E+00 0.  1.
         21    1    1    2  502  501  0.10755628802E+02  0.17643329345E+02  0.12313256953E+02  0.24053833750E+02  0.00000000000E+00 0.  1.
<mgrwt>
<rscale>  1 0.30000000E+03</rscale>
<asrwt>0</asrwt>
<pdfrwt beam="1">  1        1 0.17686817E+00 0.30000000E+03</pdfrwt>
<pdfrwt beam="2">0</pdfrwt>
<totfact> 0.13228615E+01</totfact>
</mgrwt>
</event>
<event>
 6    1  0.1875959E-004  0.3000000E+03  0.7818608E-02  0.1093470E+00
          1   -1    0    0  502    0  0.00000000000E+00  0.00000000000E+00  0.29532121462E+02  0.29532121462E+02  0.00000000000E+00 0.  1.
         13   -1    0    0    0    0 -0.00000000000E+00 -0.00000000000E+00 -0.10000000000E+04  0.10000000000E+04  0.00000000000E+00 0.  1.
    9000005    2    1    2  501    0  0.42878271496E+02  0.49855523921E+01 -0.91532441125E+03  0.95950210016E+03  0.28453839896E+03 0.  0.
         13    1    3    3    0    0  0.11032482810E+03  0.79438746922E+02 -0.77552360121E+03  0.78734931145E+03  0.00000000000E+00 0.  1.
          3    1    3    3  501    0 -0.67446556600E+02 -0.74453194530E+02 -0.13980081004E+03  0.17215278871E+03  0.00000000000E+00 0.  1.
         21    1    1    2  502  501 -0.42878271496E+02 -0.49855523921E+01 -0.55143467293E+02  0.70030021306E+02  0.00000000000E+00 0.  1.
<mgrwt>
<rscale>  1 0.30000000E+03</rscale>
<asrwt>0</asrwt>
<pdfrwt beam="1">  1        1 0.10738976E+00 0.30000000E+03</pdfrwt>
<pdfrwt beam="2">0</pdfrwt>
<totfact> 0.30801718E+01</totfact>
</mgrwt>
</event>
<event>
 6    1  0.1875959E-004  0.3000000E+03  0.7818608E-02  0.1093470E+00
          1   -1    0    0  502    0  0.00000000000E+00  0.00000000000E+00  0.38281209460E+02  0.38281209460E+02  0.00000000000E+00 0.  1.
         13   -1    0    0    0    0 -0.00000000000E+00 -0.00000000000E+00 -0.10000000000E+04  0.10000000000E+04  0.00000000000E+00 0.  1.
    9000005    2    1    2  501    0 -0.23172656603E+02  0.60756355031E+02 -0.79826064430E+03  0.86236397818E+03  0.31972373688E+03 0.  0.
         13    1    3    3    0    0 -0.78123093934E+02 -0.11311002093E+03 -0.42987980277E+03  0.45132442818E+03  0.00000000000E+00 0.  1.
          3    1    3    3  501    0  0.54950437331E+02  0.17386637597E+03 -0.36838084153E+03  0.41103955000E+03  0.00000000000E+00 0.  1.
         21    1    1    2  502  501  0.23172656603E+02 -0.60756355031E+02 -0.16345814624E+03  0.17591723128E+03  0.00000000000E+00 0.  1.
<mgrwt>
<rscale>  1 0.30000000E+03</rscale>
<asrwt>0</asrwt>
<pdfrwt beam="1">  1        1 0.13920469E+00 0.30000000E+03</pdfrwt>
<pdfrwt beam="2">0</pdfrwt>
<totfact> 0.20427708E+01</totfact>
</mgrwt>
</event>
<event>
 6    1  0.1875959E-004  0.3000000E+03  0.7818608E-02  0.1093470E+00
          1   -1    0    0  502    0  0.00000000000E+00  0.00000000000E+00  0.38201779714E+02  0.38201779714E+02  0.00000000000E+00 0.  1.
         13   -1    0    0    0    0 -0.00000000000E+00 -0.00000000000E+00 -0.10000000000E+04  0.10000000000E+04  0.00000000000E+00 0.  1.
    9000005    2    1    2  501    0  0.48240307278E+01 -0.62333362431E+02 -0.78579791948E+03  0.85142698155E+03  0.32177758671E+03 0.  0.
         13    1    3    3    0    0 -0.10204841254E+03  0.30692363817E+02 -0.84615561261E+02  0.13607238113E+03  0.00000000000E+00 0.  1.
          1    1    3    3  501    0  0.10687244326E+03 -0.93025726248E+02 -0.70118235822E+03  0.71535460043E+03  0.00000000000E+00 0.  1.
         21    1    1    2  502  501 -0.48240307278E+01  0.62333362431E+02 -0.17600030081E+03  0.18677479816E+03  0.00000000000E+00 0.  1.
<mgrwt>
<rscale>  1 0.30000000E+03</rscale>
<asrwt>0</asrwt>
<pdfrwt beam="1">  1        1 0.13891586E+00 0.30000000E+03</pdfrwt>
<pdfrwt beam="2">0</pdfrwt>
<totfact> 0.20499296E+01</totfact>
</mgrwt>
</event>
<event>
 6    1  0.1875959E-004  0.3000000E+03  0.7818608E-02  0.1093470E+00
          1   -1    0    0  502    0  0.00000000000E+00  0.00000000000E+00  0.11439309606E+03  0.11439309606E+03  0.00000000000E+00 0.  1.
         13   -1    0    0    0    0 -0.00000000000E+00 -0.00000000000E+00 -0.10000000000E+04  0.10000000000E+04  0.00000000000E+00 0.  1.
    9000005    2    1    2  501    0 -0.22707960127E+03  0.10301220298E+03 -0.63334412442E+03  0.75969157476E+03  0.33738679515E+03 0.  0.
         13    1    3    3    0    0  0.24553595724E+02 -0.45610863659E+02 -0.34595956690E+03  0.34981602575E+03  0.00000000000E+00 0.  1.
          1    1    3    3  501    0 -0.25163319700E+03  0.14862306664E+03 -0.28738455753E+03  0.40987554901E+03  0.00000000000E+00 0.  1.
         21    1    1    2  502  501  0.22707960127E+03 -0.10301220298E+03 -0.25226277952E+03  0.35470152129E+03  0.00000000000E+00 0.  1.
<mgrwt>
<rscale>  1 0.30000000E+03</rscale>
<asrwt>0</asrwt>
<pdfrwt beam="1">  1        1 0.41597577E+00 0.30000000E+03</pdfrwt>
<pdfrwt beam="2">0</pdfrwt>
<totfact> 0.84862702E-01</totfact>
</mgrwt>
</event>
<event>
 6    1  0.1875959E-004  0.3000000E+03  0.7818608E-02  0.1093470E+00
          1   -1    0    0  502    0  0.00000000000E+00  0.00000000000E+00  0.45824350242E+02  0.45824350242E+02  0.00000000000E+00 0.  1.
         13   -1    0    0    0    0 -0.00000000000E+00 -0.00000000000E+00 -0.10000000000E+04  0.10000000000E+04  0.00000000000E+00 0.  1.
    9000005    2    1    2  501    0 -0.82455362239E+01  0.15496588266E+02 -0.97513903292E+03  0.10184821384E+04  0.29343074068E+03 0.  0.
         13    1    3    3    0    0  0.11952564529E+03 -0.66986016918E+02 -0.37092488210E+03  0.39542227366E+03  0.00000000000E+00 0.  1.
          1    1    3    3  501    0 -0.12777118151E+03  0.82482605184E+02 -0.60421415082E+03  0.62305986473E+03  0.00000000000E+00 0.  1.
         21    1    1    2  502  501  0.82455362239E+01 -0.15496588266E+02  0.20963383162E+02  0.27342211854E+02  0.00000000000E+00 0.  1.
<mgrwt>
<rscale>  1 0.30000000E+03</rscale>
<asrwt>0</asrwt>
<pdfrwt beam="1">  1        1 0.16663435E+00 0.30000000E+03</pdfrwt>
<pdfrwt beam="2">0</pdfrwt>
<totfact> 0.14840090E+01</totfact>
</mgrwt>
</event>
<event>
 6    1  0.1875959E-004  0.3000000E+03  0.7818608E-02  0.1093470E+00
          1   -1    0    0  502    0  0.00000000000E+00  0.00000000000E+00  0.36047518374E+02  0.36047518374E+02  0.00000000000E+00 0.  1.
         13   -1    0    0    0    0 -0.00000000000E+00 -0.00000000000E+00 -0.10000000000E+04  0.10000000000E+04  0.00000000000E+00 0.  1.
    9000005    2    1    2  501    0  0.36727144804E+02 -0.67324257701E+01 -0.91417062845E+03  0.97381857311E+03  0.33349732638E+03 0.  0.
         13    1    3    3    0    0 -0.12718125432E+03  0.63746572665E+01 -0.65222599118E+03  0.66454078225E+03  0.00000000000E+00 0.  1.
          3    1    3    3  501    0  0.16390839912E+03 -0.13107083037E+02 -0.26194463727E+03  0.30927779086E+03  0.00000000000E+00 0.  1.
         21    1    1    2  502  501 -0.36727144804E+02  0.67324257701E+01 -0.49781853178E+02  0.62228945259E+02  0.00000000000E+00 0.  1.
<mgrwt>
<rscale>  1 0.30000000E+03</rscale>
<asrwt>0</asrwt>
<pdfrwt beam="1">  1        1 0.13108216E+00 0.30000000E+03</pdfrwt>
<pdfrwt beam="2">0</pdfrwt>
<totfact> 0.22572084E+01</totfact>
</mgrwt>
</event>
<event>
 6    1  0.1875959E-004  0.3000000E+03  0.7818608E-02  0.1093470E+00
          1   -1    0    0  502    0  0.00000000000E+00  0.00000000000E+00  0.30392321534E+02  0.30392321534E+02  0.00000000000E+00 0.  1.
         13   -1    0    0    0    0 -0.00000000000E+00 -0.00000000000E+00 -0.10000000000E+04  0.10000000000E+04  0.00000000000E+00 0.  1.
    9000005    2    1    2  501    0  0.17148375697E+02 -0.13830925557E+02 -0.96149820348E+03  0.10069162726E+04  0.29818823479E+03 0.  0.
         13    1    3    3    0    0 -0.11949382919E+03  0.24134817829E+02 -0.21580366195E+03  0.24785577492E+03  0.00000000000E+00 0.  1.
          1    1    3    3  501    0  0.13664220489E+03 -0.37965743386E+02 -0.74569454152E+03  0.75906049765E+03  0.00000000000E+00 0.  1.
         21    1    1    2  502  501 -0.17148375697E+02  0.13830925557E+02 -0.81094749874E+01  0.23476048973E+02  0.00000000000E+00 0. -1.
<mgrwt>
<rscale>  1 0.30000000E+03</rscale>
<asrwt>0</asrwt>
<pdfrwt beam="1">  1        1 0.11051777E+00 0.30000000E+03</pdfrwt>
<pdfrwt beam="2">0</pdfrwt>
<totfact> 0.29499586E+01</totfact>
</mgrwt>
</event>
<event>
 6    1  0.1875959E-004  0.3000000E+03  0.7818608E-02  0.1093470E+00
          1   -1    0    0  502    0  0.00000000000E+00  0.00000000000E+00  0.36588752886E+02  0.36588752886E+02  0.00000000000E+00 0.  1.
         13   -1    0    0    0    0 -0.00000000000E+00 -0.00000000000E+00 -0.10000000000E+04  0.10000000000E+04  0.00000000000E+00 0.  1.
    9000005    2    1    2  501    0 -0.10684471595E+02  0.13718289353E+02 -0.96624551678E+03  0.10189710777E+04  0.32306239180E+03 0.  0.
         13    1    3    3    0    0 -0.10167471329E+03 -0.66605800927E+02 -0.14681636812E+03  0.19060200940E+03  0.00000000000E+00 0.  1.
          3    1    3    3  501    0  0.90990241691E+02  0.80324090280E+02 -0.81942914866E+03  0.82836906825E+03  0.00000000000E+00 0.  1.
         21    1    1    2  502  501  0.10684471595E+02 -0.13718289353E+02  0.28342696693E+01  0.17617675233E+02  0.00000000000E+00 0.  1.
<mgrwt>
<rscale>  1 0.30000000E+03</rscale>
<asrwt>0</asrwt>
<pdfrwt beam="1">  1        1 0.13305029E+00 0.30000000E+03</pdfrwt>
<pdfrwt beam="2">0</pdfrwt>
<totfact> 0.22026221E+01</totfact>
</mgrwt>
</event>
<event>
 6    1  0.1875959E-004  0.3000000E+03  0.7818608E-02  0.1093470E+00
          1   -1    0    0  502    0  0.00000000000E+00  0.00000000000E+00  0.28380249275E+02  0.28380249275E+02  0.00000000000E+00 0.  1.
         13   -1    0    0    0    0 -0.00000000000E+00 -0.00000000000E+00 -0.10000000000E+04  0.10000000000E+04  0.00000000000E+00 0.  1.
    9000005    2    1    2  501    0 -0.42069281879E+01 -0.95788957540E+01 -0.94965230247E+03  0.10040487415E+04  0.32582959687E+03 0.  0.
         13    1    3    3    0    0 -0.14137256109E+03  0.22855171087E+01 -0.21997655111E+03  0.26149781578E+03  0.00000000000E+00 0.  1.
          1    1    3    3  501    0  0.13716563290E+03 -0.11864412863E+02 -0.72967575135E+03  0.74255092570E+03  0.00000000000E+00 0.  1.
         21    1    1    2  502  501  0.42069281879E+01  0.95788957540E+01 -0.21967448258E+02  0.24331507795E+02  0.00000000000E+00 0.  1.
<mgrwt>
<rscale>  1 0.30000000E+03</rscale>
<asrwt>0</asrwt>
<pdfrwt beam="1">  1        1 0.10320112E+00 0.30000000E+03</pdfrwt>
<pdfrwt beam="2">0</pdfrwt>
<totfact> 0.32678416E+01</totfact>
</mgrwt>
</event>
<event>
 6    1  0.1875959E-004  0.3000000E+03  0.7818608E-02  0.1093470E+00
          3   -1    0    0  502    0  0.00000000000E+00  0.00000000000E+00  0.38596680071E+02  0.38596680071E+02  0.00000000000E+00 0.  1.
         13   -1    0    0    0    0 -0.00000000000E+00 -0.00000000000E+00 -0.10000000000E+04  0.10000000000E+04  0.00000000000E+00 0.  1.
    9000005    2    1    2  501    0 -0.41058536510E+01 -0.23919800051E+02 -0.97134643252E+03  0.10123692068E+04  0.28423318588E+03 0.  0.
         13    1    3    3    0    0 -0.11309474880E+03  0.73256801729E+02 -0.37730561102E+03  0.40064511143E+03  0.00000000000E+00 0.  1.
          3    1    3    3  501    0  0.10898889515E+03 -0.97176601780E+02 -0.59404082150E+03  0.61172409533E+03  0.00000000000E+00 0.  1.
         21    1    1    2  502  501  0.41058536510E+01  0.23919800051E+02  0.99431125862E+01  0.26227473317E+02  0.00000000000E+00 0.  1.
<mgrwt>
<rscale>  1 0.30000000E+03</rscale>
<asrwt>0</asrwt>
<pdfrwt beam="1">  1        3 0.14035186E+00 0.30000000E+03</pdfrwt>
<pdfrwt beam="2">0</pdfrwt>
<totfact> 0.13256723E+00</totfact>
</mgrwt>
</event>
<event>
 6    1  0.1875959E-004  0.3000000E+03  0.7818608E-02  0.1093470E+00
          1   -1    0    0  502    0  0.00000000000E+00  0.00000000000E+00  0.28766694936E+02  0.28766694936E+02  0.00000000000E+00 0.  1.
         13   -1    0    0    0    0 -0.00000000000E+00 -0.00000000000E+00 -0.10000000000E+04  0.10000000000E+04  0.00000000000E+00 0.  1.
    9000005    2    1    2  501    0 -0.73506813111E+01  0.62943572385E+01 -0.96554548884E+03  0.10175416024E+04  0.32096599535E+03 0.  0.
         13    1    3    3    0    0  0.39972580359E+02 -0.13467003176E+03 -0.25051436458E+03  0.28721293755E+03  0.00000000000E+00 0.  1.
          3    1    3    3  501    0 -0.47323261670E+02  0.14096438900E+03 -0.71503112426E+03  0.73032866486E+03  0.00000000000E+00 0.  1.
         21    1    1    2  502  501  0.73506813111E+01 -0.62943572385E+01 -0.56878162233E+01  0.11225092524E+02  0.00000000000E+00 0.  1.
<mgrwt>
<rscale>  1 0.30000000E+03</rscale>
<asrwt>0</asrwt>
<pdfrwt beam="1">  1        1 0.10460638E+00 0.30000000E+03</pdfrwt>
<pdfrwt beam="2">0</pdfrwt>
<totfact> 0.32030789E+01</totfact>
</mgrwt>
</event>
<event>
 6    1  0.1875959E-004  0.3000000E+03  0.7818608E-02  0.1093470E+00
          1   -1    0    0  502    0  0.00000000000E+00  0.00000000000E+00  0.28829398608E+02  0.28829398608E+02  0.00000000000E+00 0.  1.
         13   -1    0    0    0    0 -0.00000000000E+00 -0.00000000000E+00 -0.10000000000E+04  0.10000000000E+04  0.00000000000E+00 0.  1.
    9000005    2    1    2  501    0  0.96127259276E+01  0.18789750330E+01 -0.95880167544E+03  0.10130520295E+04  0.32692174383E+03 0.  0.
         13    1    3    3    0    0 -0.14226115542E+03  0.68465603875E+02 -0.39547156520E+03  0.42582101186E+03  0.00000000000E+00 0.  1.
          3    1    3    3  501    0  0.15187388135E+03 -0.66586628842E+02 -0.56333011024E+03  0.58723101764E+03  0.00000000000E+00 0.  1.
         21    1    1    2  502  501 -0.96127259276E+01 -0.18789750330E+01 -0.12368925950E+02  0.15777369111E+02  0.00000000000E+00 0. -1.
<mgrwt>
<rscale>  1 0.30000000E+03</rscale>
<asrwt>0</asrwt>
<pdfrwt beam="1">  1        1 0.10483440E+00 0.30000000E+03</pdfrwt>
<pdfrwt beam="2">0</pdfrwt>
<totfact> 0.31927466E+01</totfact>
</mgrwt>
</event>
<event>
 6    1  0.1875959E-004  0.3000000E+03  0.7818608E-02  0.1093470E+00
          1   -1    0    0  502    0  0.00000000000E+00  0.00000000000E+00  0.10101586379E+03  0.10101586379E+03  0.00000000000E+00 0.  1.
         13   -1    0    0    0    0 -0.00000000000E+00 -0.00000000000E+00 -0.10000000000E+04  0.10000000000E+04  0.00000000000E+00 0.  1.
    9000005    2    1    2  501    0 -0.93689327357E+01  0.22318375550E+02 -0.96918868557E+03  0.10267557430E+04  0.33810465952E+03 0.  0.
         13    1    3    3    0    0 -0.29201825355E+02  0.17469398444E+03 -0.40540948807E+03  0.44241110725E+03  0.00000000000E+00 0.  1.
          3    1    3    3  501    0  0.19832892619E+02 -0.15237560889E+03 -0.56377919749E+03  0.58434463576E+03  0.00000000000E+00 0.  1.
         21    1    1    2  502  501  0.93689327357E+01 -0.22318375550E+02  0.70204549359E+02  0.74260120782E+02  0.00000000000E+00 0.  1.
<mgrwt>
<rscale>  1 0.30000000E+03</rscale>
<asrwt>0</asrwt>
<pdfrwt beam="1">  1        1 0.36733119E+00 0.30000000E+03</pdfrwt>
<pdfrwt beam="2">0</pdfrwt>
<totfact> 0.15954701E+00</totfact>
</mgrwt>
</event>
<event>
 6    1  0.1875959E-004  0.3000000E+03  0.7818608E-02  0.1093470E+00
          1   -1    0    0  502    0  0.00000000000E+00  0.00000000000E+00  0.29821935183E+02  0.29821935183E+02  0.00000000000E+00 0.  1.
         13   -1    0    0    0    0 -0.00000000000E+00 -0.00000000000E+00 -0.10000000000E+04  0.10000000000E+04  0.00000000000E+00 0.  1.
    9000005    2    1    2  501    0 -0.47686049809E+01  0.13608476555E+02 -0.95876956927E+03  0.10114348746E+04  0.32179727826E+03 0.  0.
         13    1    3    3    0    0 -0.28662045420E+02  0.10473947141E+03 -0.10034066777E+03  0.14785168016E+03  0.00000000000E+00 0.  1.
          1    1    3    3  501    0  0.23893440440E+02 -0.91130994852E+02 -0.85842890150E+03  0.86358319440E+03  0.00000000000E+00 0.  1.
         21    1    1    2  502  501  0.47686049809E+01 -0.13608476555E+02 -0.11408495545E+02  0.18387060619E+02  0.00000000000E+00 0.  1.
<mgrwt>
<rscale>  1 0.30000000E+03</rscale>
<asrwt>0</asrwt>
<pdfrwt beam="1">  1        1 0.10844363E+00 0.30000000E+03</pdfrwt>
<pdfrwt beam="2">0</pdfrwt>
<totfact> 0.30354011E+01</totfact>
</mgrwt>
</event>
<event>
 6    1  0.1875959E-004  0.3000000E+03  0.7818608E-02  0.1093470E+00
          1   -1    0    0  502    0  0.00000000000E+00  0.00000000000E+00  0.48445128401E+02  0.48445128401E+02  0.00000000000E+00 0.  1.
         13   -1    0    0    0    0 -0.00000000000E+00 -0.00000000000E+00 -0.10000000000E+04  0.10000000000E+04  0.00000000000E+00 0.  1.
    9000005    2    1    2  501    0  0.30104606268E+02 -0.59210711951E+02 -0.90455132285E+03  0.96707234841E+03  0.33556465199E+03 0.  0.
         13    1    3    3    0    0  0.99843593637E+02 -0.55026823504E+01 -0.57276078315E+02  0.11523702465E+03  0.00000000000E+00 0.  1.
          3    1    3    3  501    0 -0.69738987369E+02 -0.53708029601E+02 -0.84727524453E+03  0.85183532376E+03  0.00000000000E+00 0.  1.
         21    1    1    2  502  501 -0.30104606268E+02  0.59210711951E+02 -0.47003548750E+02  0.81372779991E+02  0.00000000000E+00 0.  1.
<mgrwt>
<rscale>  1 0.30000000E+03</rscale>
<asrwt>0</asrwt>
<pdfrwt beam="1">  1        1 0.17616447E+00 0.30000000E+03</pdfrwt>
<pdfrwt beam="2">0</pdfrwt>
<totfact> 0.13333056E+01</totfact>
</mgrwt>
</event>
<event>
 6    1  0.1875959E-004  0.3000000E+03  0.7818608E-02  0.1093470E+00
          1   -1    0    0  502    0  0.00000000000E+00  0.00000000000E+00  0.57324698916E+02  0.57324698916E+02  0.00000000000E+00 0.  1.
         13   -1    0    0    0    0 -0.00000000000E+00 -0.00000000000E+00 -0.10000000000E+04  0.10000000000E+04  0.00000000000E+00 0.  1.
    9000005    2    1    2  501    0  0.31428051828E+02  0.90462312838E+02 -0.87627134191E+03  0.94078870328E+03  0.32872597566E+03 0.  0.
         13    1    3    3    0    0  0.48605731582E+02 -0.11701235880E+03 -0.24104794554E+03  0.27232062225E+03  0.00000000000E+00 0.  1.
          3    1    3    3  501    0 -0.17177679754E+02  0.20747467163E+03 -0.63522339638E+03  0.66846808103E+03  0.00000000000E+00 0.  1.
         21    1    1    2  502  501 -0.31428051828E+02 -0.90462312838E+02 -0.66403959171E+02  0.11653599564E+03  0.00000000000E+00 0.  1.
<mgrwt>
<rscale>  1 0.30000000E+03</rscale>
<asrwt>0</asrwt>
<pdfrwt beam="1">  1        1 0.20845389E+00 0.30000000E+03</pdfrwt>
<pdfrwt beam="2">0</pdfrwt>
<totfact> 0.93408273E+00</totfact>
</mgrwt>
</event>
<event>
 6    1  0.1875959E-004  0.3000000E+03  0.7818608E-02  0.1093470E+00
          1   -1    0    0  502    0  0.00000000000E+00  0.00000000000E+00  0.26735881071E+02  0.26735881071E+02  0.00000000000E+00 0.  1.
         13   -1    0    0    0    0 -0.00000000000E+00 -0.00000000000E+00 -0.10000000000E+04  0.10000000000E+04  0.00000000000E+00 0.  1.
    9000005    2    1    2  501    0  0.98467183244E+01  0.16577785135E+01 -0.96470699925E+03  0.10135855811E+04  0.31079966180E+03 0.  0.
         13    1    3    3    0    0 -0.13940360916E+03 -0.42558909880E+02 -0.59197813298E+03  0.60965788520E+03  0.00000000000E+00 0.  1.
          1    1    3    3  501    0  0.14925032749E+03  0.44216688394E+02 -0.37272886627E+03  0.40392769593E+03  0.00000000000E+00 0.  1.
         21    1    1    2  502  501 -0.98467183244E+01 -0.16577785135E+01 -0.85571196787E+01  0.13150299942E+02  0.00000000000E+00 0. -1.
<mgrwt>
<rscale>  1 0.30000000E+03</rscale>
<asrwt>0</asrwt>
<pdfrwt beam="1">  1        1 0.97221591E-01 0.30000000E+03</pdfrwt>
<pdfrwt beam="2">0</pdfrwt>
<totfact> 0.35660167E+01</totfact>
</mgrwt>
</event>
<event>
 6    1  0.1875959E-004  0.3000000E+03  0.7818608E-02  0.1093470E+00
          1   -1    0    0  502    0  0.00000000000E+00  0.00000000000E+00  0.59609422044E+02  0.59609422044E+02  0.00000000000E+00 0.  1.
         13   -1    0    0    0    0 -0.00000000000E+00 -0.00000000000E+00 -0.10000000000E+04  0.10000000000E+04  0.00000000000E+00 0.  1.
    9000005    2    1    2  501    0  0.38016083874E+01 -0.10865202913E+02 -0.95301344499E+03  0.10425260491E+04  0.42248483021E+03 0.  0.
         13    1    3    3    0    0  0.85715144830E+02 -0.91231614715E+02 -0.54190286848E+02  0.13640704075E+03  0.00000000000E+00 0.  1.
          3    1    3    3  501    0 -0.81913536443E+02  0.80366411802E+02 -0.89882315814E+03  0.90611900830E+03  0.00000000000E+00 0.  1.
         21    1    1    2  502  501 -0.38016083874E+01  0.10865202913E+02  0.12622867033E+02  0.17083372993E+02  0.00000000000E+00 0.  1.
<mgrwt>
<rscale>  1 0.30000000E+03</rscale>
<asrwt>0</asrwt>
<pdfrwt beam="1">  1        1 0.21676199E+00 0.30000000E+03</pdfrwt>
<pdfrwt beam="2">0</pdfrwt>
<totfact> 0.85367080E+00</totfact>
</mgrwt>
</event>
<event>
 6    1  0.1875959E-004  0.3000000E+03  0.7818608E-02  0.1093470E+00
          3   -1    0    0  502    0  0.00000000000E+00  0.00000000000E+00  0.26411528141E+02  0.26411528141E+02  0.00000000000E+00 0.  1.
         13   -1    0    0    0    0 -0.00000000000E+00 -0.00000000000E+00 -0.10000000000E+04  0.10000000000E+04  0.00000000000E+00 0.  1.
    9000005    2    1    2  501    0 -0.14645440959E+02 -0.82356575832E+00 -0.97062062339E+03  0.10114457229E+04  0.28408253846E+03 0.  0.
         13    1    3    3    0    0  0.99259874593E+02  0.90263760010E+02 -0.37666578059E+03  0.39984644471E+03  0.00000000000E+00 0.  1.
          1    1    3    3  501    0 -0.11390531555E+03 -0.91087325768E+02 -0.59395484280E+03  0.61159927821E+03  0.00000000000E+00 0.  1.
         21    1    1    2  502  501  0.14645440959E+02  0.82356575832E+00 -0.29678484704E+01  0.14965805224E+02  0.00000000000E+00 0. -1.
<mgrwt>
<rscale>  1 0.30000000E+03</rscale>
<asrwt>0</asrwt>
<pdfrwt beam="1">  1        3 0.96042123E-01 0.30000000E+03</pdfrwt>
<pdfrwt beam="2">0</pdfrwt>
<totfact> 0.43464376E+00</totfact>
</mgrwt>
</event>
<event>
 6    1  0.1875959E-004  0.3000000E+03  0.7818608E-02  0.1093470E+00
          1   -1    0    0  502    0  0.00000000000E+00  0.00000000000E+00  0.31572139429E+02  0.31572139429E+02  0.00000000000E+00 0.  1.
         13   -1    0    0    0    0 -0.00000000000E+00 -0.00000000000E+00 -0.10000000000E+04  0.10000000000E+04  0.00000000000E+00 0.  1.
    9000005    2    1    2  501    0  0.13694387020E+02  0.26578061280E+01 -0.96375911476E+03  0.10168616888E+04  0.32400843008E+03 0.  0.
         13    1    3    3    0    0 -0.13311578168E+01  0.14885261394E+03 -0.69280740488E+03  0.70861906050E+03  0.00000000000E+00 0.  1.
          3    1    3    3  501    0  0.15025544837E+02 -0.14619480781E+03 -0.27095170989E+03  0.30824262833E+03  0.00000000000E+00 0.  1.
         21    1    1    2  502  501 -0.13694387020E+02 -0.26578061280E+01 -0.46687458090E+01  0.14710450595E+02  0.00000000000E+00 0. -1.
<mgrwt>
<rscale>  1 0.30000000E+03</rscale>
<asrwt>0</asrwt>
<pdfrwt beam="1">  1        1 0.11480802E+00 0.30000000E+03</pdfrwt>
<pdfrwt beam="2">0</pdfrwt>
<totfact> 0.27837376E+01</totfact>
</mgrwt>
</event>
<event>
 6    1  0.1875959E-004  0.3000000E+03  0.7818608E-02  0.1093470E+00
          1   -1    0    0  502    0  0.00000000000E+00  0.00000000000E+00  0.85205582313E+02  0.85205582313E+02  0.00000000000E+00 0.  1.
         13   -1    0    0    0    0 -0.00000000000E+00 -0.00000000000E+00 -0.10000000000E+04  0.10000000000E+04  0.00000000000E+00 0.  1.
    9000005    2    1    2  501    0 -0.10785729191E+02 -0.15758221384E+02 -0.96844843543E+03  0.10282546638E+04  0.34503714020E+03 0.  0.
         13    1    3    3    0    0 -0.63434893403E+02  0.52185046347E+02 -0.32452090901E+02  0.88319889986E+02  0.00000000000E+00 0.  1.
          1    1    3    3  501    0  0.52649164212E+02 -0.67943267730E+02 -0.93599634453E+03  0.93993477385E+03  0.00000000000E+00 0.  1.
         21    1    1    2  502  501  0.10785729191E+02  0.15758221384E+02  0.53654017743E+02  0.56950918476E+02  0.00000000000E+00 0.  1.
<mgrwt>
<rscale>  1 0.30000000E+03</rscale>
<asrwt>0</asrwt>
<pdfrwt beam="1">  1        1 0.30983913E+00 0.30000000E+03</pdfrwt>
<pdfrwt beam="2">0</pdfrwt>
<totfact> 0.31183840E+00</totfact>
</mgrwt>
</event>
<event>
 6    1  0.1875959E-004  0.3000000E+03  0.7818608E-02  0.1093470E+00
          1   -1    0    0  502    0  0.00000000000E+00  0.00000000000E+00  0.28375681843E+02  0.28375681843E+02  0.00000000000E+00 0.  1.
         13   -1    0    0    0    0 -0.00000000000E+00 -0.00000000000E+00 -0.10000000000E+04  0.10000000000E+04  0.00000000000E+00 0.  1.
    9000005    2    1    2  501    0 -0.36327626213E+01  0.83522019397E+01 -0.92079842028E+03  0.97674015012E+03  0.32568179842E+03 0.  0.
         13    1    3    3    0    0  0.15163119975E+03 -0.12412211786E+02 -0.61014815746E+03  0.62882975263E+03  0.00000000000E+00 0.  1.
          3    1    3    3  501    0 -0.15526396238E+03  0.20764413725E+02 -0.31065026282E+03  0.34791039749E+03  0.00000000000E+00 0.  1.
         21    1    1    2  502  501  0.36327626213E+01 -0.83522019397E+01 -0.50825897874E+02  0.51635531722E+02  0.00000000000E+00 0. -1.
<mgrwt>
<rscale>  1 0.30000000E+03</rscale>
<asrwt>0</asrwt>
<pdfrwt beam="1">  1        1 0.10318452E+00 0.30000000E+03</pdfrwt>
<pdfrwt beam="2">0</pdfrwt>
<totfact> 0.32686184E+01</totfact>
</mgrwt>
</event>
<event>
 6    1  0.1875959E-004  0.3000000E+03  0.7818608E-02  0.1093470E+00
          1   -1    0    0  502    0  0.00000000000E+00  0.00000000000E+00  0.30942444591E+02  0.30942444591E+02  0.00000000000E+00 0.  1.
         13   -1    0    0    0    0 -0.00000000000E+00 -0.00000000000E+00 -0.10000000000E+04  0.10000000000E+04  0.00000000000E+00 0.  1.
    9000005    2    1    2  501    0 -0.50279627315E+01 -0.94713588260E+01 -0.96615571068E+03  0.10198335405E+04  0.32632591991E+03 0.  0.
         13    1    3    3    0    0 -0.11817937785E+03 -0.93436263949E+02 -0.26654201654E+03  0.30617208781E+03  0.00000000000E+00 0.  1.
          1    1    3    3  501    0  0.11315141512E+03  0.83964905124E+02 -0.69961369414E+03  0.71366145269E+03  0.00000000000E+00 0.  1.
         21    1    1    2  502  501  0.50279627315E+01  0.94713588260E+01 -0.29018447296E+01  0.11108904090E+02  0.00000000000E+00 0.  1.
<mgrwt>
<rscale>  1 0.30000000E+03</rscale>
<asrwt>0</asrwt>
<pdfrwt beam="1">  1        1 0.11251822E+00 0.30000000E+03</pdfrwt>
<pdfrwt beam="2">0</pdfrwt>
<totfact> 0.28707459E+01</totfact>
</mgrwt>
</event>
<event>
 6    1  0.1875959E-004  0.3000000E+03  0.7818608E-02  0.1093470E+00
          1   -1    0    0  502    0  0.00000000000E+00  0.00000000000E+00  0.30793313111E+02  0.30793313111E+02  0.00000000000E+00 0.  1.
         13   -1    0    0    0    0 -0.00000000000E+00 -0.00000000000E+00 -0.10000000000E+04  0.10000000000E+04  0.00000000000E+00 0.  1.
    9000005    2    1    2  501    0  0.15327994946E+02 -0.18805983627E+01 -0.95824762578E+03  0.10118569698E+04  0.32461905497E+03 0.  0.
         13    1    3    3    0    0 -0.63409961299E+02  0.14370904892E+03 -0.52802127386E+03  0.55088980711E+03  0.00000000000E+00 0.  1.
          1    1    3    3  501    0  0.78737956245E+02 -0.14558964728E+03 -0.43022635192E+03  0.46096716265E+03  0.00000000000E+00 0.  1.
         21    1    1    2  502  501 -0.15327994946E+02  0.18805983627E+01 -0.10959061109E+02  0.18936343355E+02  0.00000000000E+00 0. -1.
<mgrwt>
<rscale>  1 0.30000000E+03</rscale>
<asrwt>0</asrwt>
<pdfrwt beam="1">  1        1 0.11197592E+00 0.30000000E+03</pdfrwt>
<pdfrwt beam="2">0</pdfrwt>
<totfact> 0.28919193E+01</totfact>
</mgrwt>
</event>
<event>
 6    1  0.1875959E-004  0.3000000E+03  0.7818608E-02  0.1093470E+00
          1   -1    0    0  502    0  0.00000000000E+00  0.00000000000E+00  0.45279212993E+02  0.45279212993E+02  0.00000000000E+00 0.  1.
         13   -1    0    0    0    0 -0.00000000000E+00 -0.00000000000E+00 -0.10000000000E+04  0.10000000000E+04  0.00000000000E+00 0.  1.
    9000005    2    1    2  501    0  0.19112306159E+01 -0.17602239834E+02 -0.96510453539E+03  0.10247532811E+04  0.34406253971E+03 0.  0.
         13    1    3    3    0    0  0.15430242386E+03  0.69114194103E+02 -0.46098448381E+03  0.49101191854E+03  0.00000000000E+00 0.  1.
          3    1    3    3  501    0 -0.15239119325E+03 -0.86716433936E+02 -0.50412005158E+03  0.53374136256E+03  0.00000000000E+00 0.  1.
         21    1    1    2  502  501 -0.19112306159E+01  0.17602239834E+02  0.10383748387E+02  0.20525931896E+02  0.00000000000E+00 0. -1.
<mgrwt>
<rscale>  1 0.30000000E+03</rscale>
<asrwt>0</asrwt>
<pdfrwt beam="1">  1        1 0.16465203E+00 0.30000000E+03</pdfrwt>
<pdfrwt beam="2">0</pdfrwt>
<totfact> 0.15177092E+01</totfact>
</mgrwt>
</event>
<event>
 6    1  0.1875959E-004  0.3000000E+03  0.7818608E-02  0.1093470E+00
          1   -1    0    0  502    0  0.00000000000E+00  0.00000000000E+00  0.33966176169E+02  0.33966176169E+02  0.00000000000E+00 0.  1.
         13   -1    0    0    0    0 -0.00000000000E+00 -0.00000000000E+00 -0.10000000000E+04  0.10000000000E+04  0.00000000000E+00 0.  1.
    9000005    2    1    2  501    0 -0.99165041375E+01 -0.49625144169E+01 -0.96953097689E+03  0.10223388943E+04  0.32413505840E+03 0.  0.
         13    1    3    3    0    0 -0.10630873248E+03  0.43435808031E+02 -0.12040501408E+03  0.16638985377E+03  0.00000000000E+00 0.  1.
          1    1    3    3  501    0  0.96392228347E+02 -0.48398322448E+02 -0.84912596281E+03  0.85594904055E+03  0.00000000000E+00 0.  1.
         21    1    1    2  502  501  0.99165041375E+01  0.49625144169E+01  0.34971530600E+01  0.11627281848E+02  0.00000000000E+00 0. -1.
<mgrwt>
<rscale>  1 0.30000000E+03</rscale>
<asrwt>0</asrwt>
<pdfrwt beam="1">  1        1 0.12351363E+00 0.30000000E+03</pdfrwt>
<pdfrwt beam="2">0</pdfrwt>
<totfact> 0.24842012E+01</totfact>
</mgrwt>
</event>
<event>
 6    1  0.1875959E-004  0.3000000E+03  0.7818608E-02  0.1093470E+00
          1   -1    0    0  502    0  0.00000000000E+00  0.00000000000E+00  0.39926952084E+02  0.39926952084E+02  0.00000000000E+00 0.  1.
         13   -1    0    0    0    0 -0.00000000000E+00 -0.00000000000E+00 -0.10000000000E+04  0.10000000000E+04  0.00000000000E+00 0.  1.
    9000005    2    1    2  501    0 -0.98968550993E+01  0.52248879025E+01 -0.96781493151E+03  0.10263187209E+04  0.34137827700E+03 0.  0.
         13    1    3    3    0    0 -0.50841747898E+02  0.16030273832E+03 -0.35433282711E+03  0.39221627147E+03  0.00000000000E+00 0.  1.
          3    1    3    3  501    0  0.40944892798E+02 -0.15507785042E+03 -0.61348210441E+03  0.63410244942E+03  0.00000000000E+00 0.  1.
         21    1    1    2  502  501  0.98968550993E+01 -0.52248879025E+01  0.77418835978E+01  0.13608231189E+02  0.00000000000E+00 0.  1.
<mgrwt>
<rscale>  1 0.30000000E+03</rscale>
<asrwt>0</asrwt>
<pdfrwt beam="1">  1        1 0.14518922E+00 0.30000000E+03</pdfrwt>
<pdfrwt beam="2">0</pdfrwt>
<totfact> 0.19013407E+01</totfact>
</mgrwt>
</event>
<event>
 6    1  0.1875959E-004  0.3000000E+03  0.7818608E-02  0.1093470E+00
          3   -1    0    0  502    0  0.00000000000E+00  0.00000000000E+00  0.29430046099E+02  0.29430046099E+02  0.00000000000E+00 0.  1.
         13   -1    0    0    0    0 -0.00000000000E+00 -0.00000000000E+00 -0.10000000000E+04  0.10000000000E+04  0.00000000000E+00 0.  1.
    9000005    2    1    2  501    0 -0.88694000733E+01 -0.17518649263E+01 -0.95847939405E+03  0.10143331283E+04  0.33182406654E+03 0.  0.
         13    1    3    3    0    0 -0.17019719281E+03  0.56576360617E+01 -0.47628084866E+03  0.50580879796E+03  0.00000000000E+00 0.  1.
          3    1    3    3  501    0  0.16132779274E+03 -0.74095009880E+01 -0.48219854538E+03  0.50852433038E+03  0.00000000000E+00 0.  1.
         21    1    1    2  502  501  0.88694000733E+01  0.17518649263E+01 -0.12090559853E+02  0.15096917763E+02  0.00000000000E+00 0. -1.
<mgrwt>
<rscale>  1 0.30000000E+03</rscale>
<asrwt>0</asrwt>
<pdfrwt beam="1">  1        3 0.10701858E+00 0.30000000E+03</pdfrwt>
<pdfrwt beam="2">0</pdfrwt>
<totfact> 0.32587389E+00</totfact>
</mgrwt>
</event>
<event>
 6    1  0.1875959E-004  0.3000000E+03  0.7818608E-02  0.1093470E+00
          1   -1    0    0  502    0  0.00000000000E+00  0.00000000000E+00  0.41092668321E+02  0.41092668321E+02  0.00000000000E+00 0.  1.
         13   -1    0    0    0    0 -0.00000000000E+00 -0.00000000000E+00 -0.10000000000E+04  0.10000000000E+04  0.00000000000E+00 0.  1.
    9000005    2    1    2  501    0 -0.24058519464E+02 -0.20049315244E+01 -0.94589549209E+03  0.10136674960E+04  0.36362161419E+03 0.  0.
         13    1    3    3    0    0  0.48434961184E+02  0.78270255090E+02 -0.38374653985E+02  0.99723579785E+02  0.00000000000E+00 0.  1.
          3    1    3    3  501    0 -0.72493480648E+02 -0.80275186615E+02 -0.90752083811E+03  0.91394391618E+03  0.00000000000E+00 0.  1.
         21    1    1    2  502  501  0.24058519464E+02  0.20049315244E+01 -0.13011839585E+02  0.27425172353E+02  0.00000000000E+00 0.  1.
<mgrwt>
<rscale>  1 0.30000000E+03</rscale>
<asrwt>0</asrwt>
<pdfrwt beam="1">  1        1 0.14942820E+00 0.30000000E+03</pdfrwt>
<pdfrwt beam="2">0</pdfrwt>
<totfact> 0.18085726E+01</totfact>
</mgrwt>
</event>
<event>
 6    1  0.1875959E-004  0.3000000E+03  0.7818608E-02  0.1093470E+00
          1   -1    0    0  502    0  0.00000000000E+00  0.00000000000E+00  0.26601736587E+02  0.26601736587E+02  0.00000000000E+00 0.  1.
         13   -1    0    0    0    0 -0.00000000000E+00 -0.00000000000E+00 -0.10000000000E+04  0.10000000000E+04  0.00000000000E+00 0.  1.
    9000005    2    1    2  501    0 -0.59185477255E+01  0.14114133170E+02 -0.96043998646E+03  0.10065479364E+04  0.30076492917E+03 0.  0.
         13    1    3    3    0    0 -0.13834919726E+03 -0.18434476129E+02 -0.28333558242E+03  0.31584708730E+03  0.00000000000E+00 0.  1.
          3    1    3    3  501    0  0.13243064954E+03  0.32548609299E+02 -0.67710440405E+03  0.69070084905E+03  0.00000000000E+00 0.  1.
         21    1    1    2  502  501  0.59185477255E+01 -0.14114133170E+02 -0.12958276952E+02  0.20053800235E+02  0.00000000000E+00 0.  1.
<mgrwt>
<rscale>  1 0.30000000E+03</rscale>
<asrwt>0</asrwt>
<pdfrwt beam="1">  1        1 0.96733792E-01 0.30000000E+03</pdfrwt>
<pdfrwt beam="2">0</pdfrwt>
<totfact> 0.35920935E+01</totfact>
</mgrwt>
</event>
<event>
 6    1  0.1875959E-004  0.3000000E+03  0.7818608E-02  0.1093470E+00
          1   -1    0    0  502    0  0.00000000000E+00  0.00000000000E+00  0.41277308446E+02  0.41277308446E+02  0.00000000000E+00 0.  1.
         13   -1    0    0    0    0 -0.00000000000E+00 -0.00000000000E+00 -0.10000000000E+04  0.10000000000E+04  0.00000000000E+00 0.  1.
    9000005    2    1    2  501    0 -0.19056247622E+02  0.32702854378E+02 -0.94555081252E+03  0.10012009357E+04  0.32696231780E+03 0.  0.
         13    1    3    3    0    0 -0.10465376517E+03  0.14832289053E+03 -0.45129622075E+03  0.48643639798E+03  0.00000000000E+00 0.  1.
          3    1    3    3  501    0  0.85597517547E+02 -0.11562003615E+03 -0.49425459177E+03  0.51476453768E+03  0.00000000000E+00 0.  1.
         21    1    1    2  502  501  0.19056247622E+02 -0.32702854378E+02 -0.13171879034E+02  0.40076372780E+02  0.00000000000E+00 0.  1.
<mgrwt>
<rscale>  1 0.30000000E+03</rscale>
<asrwt>0</asrwt>
<pdfrwt beam="1">  1        1 0.15009962E+00 0.30000000E+03</pdfrwt>
<pdfrwt beam="2">0</pdfrwt>
<totfact> 0.17944016E+01</totfact>
</mgrwt>
</event>
<event>
 6    1  0.1875959E-004  0.3000000E+03  0.7818608E-02  0.1093470E+00
          1   -1    0    0  502    0  0.00000000000E+00  0.00000000000E+00  0.28646766803E+02  0.28646766803E+02  0.00000000000E+00 0.  1.
         13   -1    0    0    0    0 -0.00000000000E+00 -0.00000000000E+00 -0.10000000000E+04  0.10000000000E+04  0.00000000000E+00 0.  1.
    9000005    2    1    2  501    0  0.97515909557E+01 -0.13490330920E+02 -0.96332462332E+03  0.10101659354E+04  0.30358492139E+03 0.  0.
         13    1    3    3    0    0  0.13105378649E+03 -0.67644089233E+02 -0.30769915972E+03  0.34121780530E+03  0.00000000000E+00 0.  1.
          1    1    3    3  501    0 -0.12130219553E+03  0.54153758313E+02 -0.65562546360E+03  0.66894813005E+03  0.00000000000E+00 0.  1.
         21    1    1    2  502  501 -0.97515909557E+01  0.13490330920E+02 -0.80286098741E+01  0.18480831448E+02  0.00000000000E+00 0. -1.
<mgrwt>
<rscale>  1 0.30000000E+03</rscale>
<asrwt>0</asrwt>
<pdfrwt beam="1">  1        1 0.10417028E+00 0.30000000E+03</pdfrwt>
<pdfrwt beam="2">0</pdfrwt>
<totfact> 0.32229761E+01</totfact>
</mgrwt>
</event>
<event>
 6    1  0.1875959E-004  0.3000000E+03  0.7818608E-02  0.1093470E+00
          1   -1    0    0  502    0  0.00000000000E+00  0.00000000000E+00  0.33458243399E+02  0.33458243399E+02  0.00000000000E+00 0.  1.
         13   -1    0    0    0    0 -0.00000000000E+00 -0.00000000000E+00 -0.10000000000E+04  0.10000000000E+04  0.00000000000E+00 0.  1.
    9000005    2    1    2  501    0  0.43435437988E+01 -0.13416995691E+02 -0.96784125612E+03  0.10192959397E+04  0.31945051817E+03 0.  0.
         13    1    3    3    0    0 -0.19510279181E+02  0.60426432568E+02 -0.93140499514E+03  0.93356696049E+03  0.00000000000E+00 0.  1.
          1    1    3    3  501    0  0.23853822979E+02 -0.73843428259E+02 -0.36436260981E+02  0.85728979243E+02  0.00000000000E+00 0.  1.
         21    1    1    2  502  501 -0.43435437988E+01  0.13416995691E+02  0.12994995202E+01  0.14162303666E+02  0.00000000000E+00 0. -1.
<mgrwt>
<rscale>  1 0.30000000E+03</rscale>
<asrwt>0</asrwt>
<pdfrwt beam="1">  1        1 0.12166660E+00 0.30000000E+03</pdfrwt>
<pdfrwt beam="2">0</pdfrwt>
<totfact> 0.25440026E+01</totfact>
</mgrwt>
</event>
<event>
 6    1  0.1875959E-004  0.3000000E+03  0.7818608E-02  0.1093470E+00
          1   -1    0    0  502    0  0.00000000000E+00  0.00000000000E+00  0.47537337401E+02  0.47537337401E+02  0.00000000000E+00 0.  1.
         13   -1    0    0    0    0 -0.00000000000E+00 -0.00000000000E+00 -0.10000000000E+04  0.10000000000E+04  0.00000000000E+00 0.  1.
    9000005    2    1    2  501    0  0.70509422864E+02 -0.53132718352E+02 -0.82470190862E+03  0.89223931832E+03  0.32888158752E+03 0.  0.
         13    1    3    3    0    0  0.64825153408E+02 -0.47835851472E+02 -0.14328091892E+02  0.81828255619E+02  0.00000000000E+00 0.  1.
          1    1    3    3  501    0  0.56842694555E+01 -0.52968668807E+01 -0.81037381672E+03  0.81041106270E+03  0.00000000000E+00 0.  1.
         21    1    1    2  502  501 -0.70509422864E+02  0.53132718352E+02 -0.12776075398E+03  0.15529801908E+03  0.00000000000E+00 0.  1.
<mgrwt>
<rscale>  1 0.30000000E+03</rscale>
<asrwt>0</asrwt>
<pdfrwt beam="1">  1        1 0.17286341E+00 0.30000000E+03</pdfrwt>
<pdfrwt beam="2">0</pdfrwt>
<totfact> 0.13835004E+01</totfact>
</mgrwt>
</event>
<event>
 6    1  0.1875959E-004  0.3000000E+03  0.7818608E-02  0.1093470E+00
          1   -1    0    0  502    0  0.00000000000E+00  0.00000000000E+00  0.27260910369E+02  0.27260910369E+02  0.00000000000E+00 0.  1.
         13   -1    0    0    0    0 -0.00000000000E+00 -0.00000000000E+00 -0.10000000000E+04  0.10000000000E+04  0.00000000000E+00 0.  1.
    9000005    2    1    2  501    0 -0.29971478479E+01 -0.65054142701E+01 -0.95157719053E+03  0.10049197089E+04  0.32297549205E+03 0.  0.
         13    1    3    3    0    0  0.66814312787E+02  0.14278240507E+03 -0.43443965697E+03  0.46215666514E+03  0.00000000000E+00 0.  1.
          3    1    3    3  501    0 -0.69811460635E+02 -0.14928781934E+03 -0.51713753356E+03  0.54276304375E+03  0.00000000000E+00 0.  1.
         21    1    1    2  502  501  0.29971478479E+01  0.65054142701E+01 -0.21161899104E+02  0.22341201483E+02  0.00000000000E+00 0.  1.
<mgrwt>
<rscale>  1 0.30000000E+03</rscale>
<asrwt>0</asrwt>
<pdfrwt beam="1">  1        1 0.99130792E-01 0.30000000E+03</pdfrwt>
<pdfrwt beam="2">0</pdfrwt>
<totfact> 0.34666039E+01</totfact>
</mgrwt>
</event>
<event>
 6    1  0.1875959E-004  0.3000000E+03  0.7818608E-02  0.1093470E+00
          1   -1    0    0  502    0  0.00000000000E+00  0.00000000000E+00  0.65879973086E+02  0.65879973086E+02  0.00000000000E+00 0.  1.
         13   -1    0    0    0    0 -0.00000000000E+00 -0.00000000000E+00 -0.10000000000E+04  0.10000000000E+04  0.00000000000E+00 0.  1.
    9000005    2    1    2  501    0 -0.27847430485E+02  0.24375791086E+02 -0.96400083727E+03  0.10183140041E+04  0.32603088527E+03 0.  0.
         13    1    3    3    0    0 -0.12911409665E+03 -0.54080461051E+00 -0.86478690620E+03  0.87437242383E+03  0.00000000000E+00 0.  1.
          3    1    3    3  501    0  0.10126666617E+03  0.24916595696E+02 -0.99213931078E+02  0.14394158029E+03  0.00000000000E+00 0.  1.
         21    1    1    2  502  501  0.27847430485E+02 -0.24375791086E+02  0.29880810359E+02  0.47565968963E+02  0.00000000000E+00 0.  1.
<mgrwt>
<rscale>  1 0.30000000E+03</rscale>
<asrwt>0</asrwt>
<pdfrwt beam="1">  1        1 0.23956404E+00 0.30000000E+03</pdfrwt>
<pdfrwt beam="2">0</pdfrwt>
<totfact> 0.66751862E+00</totfact>
</mgrwt>
</event>
<event>
 6    1  0.1875959E-004  0.3000000E+03  0.7818608E-02  0.1093470E+00
          1   -1    0    0  502    0  0.00000000000E+00  0.00000000000E+00  0.32201641405E+02  0.32201641405E+02  0.00000000000E+00 0.  1.
         13   -1    0    0    0    0 -0.00000000000E+00 -0.00000000000E+00 -0.10000000000E+04  0.10000000000E+04  0.00000000000E+00 0.  1.
    9000005    2    1    2  501    0 -0.10074638437E+02  0.29660513807E+02 -0.93118780623E+03  0.98401889591E+03  0.31654575122E+03 0.  0.
         13    1    3    3    0    0  0.21814616195E+02  0.55412056062E+01  0.21124324385E+02  0.30867774782E+02  0.00000000000E+00 0.  1.
          3    1    3    3  501    0 -0.31889254632E+02  0.24119308201E+02 -0.95231213061E+03  0.95315112113E+03  0.00000000000E+00 0.  1.
         21    1    1    2  502  501  0.10074638437E+02 -0.29660513807E+02 -0.36610552367E+02  0.48182745496E+02  0.00000000000E+00 0. -1.
<mgrwt>
<rscale>  1 0.30000000E+03</rscale>
<asrwt>0</asrwt>
<pdfrwt beam="1">  1        1 0.11709712E+00 0.30000000E+03</pdfrwt>
<pdfrwt beam="2">0</pdfrwt>
<totfact> 0.27004150E+01</totfact>
</mgrwt>
</event>
<event>
 6    1  0.1875959E-004  0.3000000E+03  0.7818608E-02  0.1093470E+00
          1   -1    0    0  502    0  0.00000000000E+00  0.00000000000E+00  0.41535817656E+02  0.41535817656E+02  0.00000000000E+00 0.  1.
         13   -1    0    0    0    0 -0.00000000000E+00 -0.00000000000E+00 -0.10000000000E+04  0.10000000000E+04  0.00000000000E+00 0.  1.
    9000005    2    1    2  501    0  0.37677950885E+02  0.14842928825E+02 -0.94351538331E+03  0.99836861817E+03  0.32384977796E+03 0.  0.
         13    1    3    3    0    0 -0.43350403004E+02 -0.14104895103E+03 -0.50007320888E+03  0.52138975658E+03  0.00000000000E+00 0.  1.
          3    1    3    3  501    0  0.81028353889E+02  0.15589187986E+03 -0.44344217443E+03  0.47697886159E+03  0.00000000000E+00 0.  1.
         21    1    1    2  502  501 -0.37677950885E+02 -0.14842928825E+02 -0.14948799034E+02  0.43167199487E+02  0.00000000000E+00 0. -1.
<mgrwt>
<rscale>  1 0.30000000E+03</rscale>
<asrwt>0</asrwt>
<pdfrwt beam="1">  1        1 0.15103966E+00 0.30000000E+03</pdfrwt>
<pdfrwt beam="2">0</pdfrwt>
<totfact> 0.17747910E+01</totfact>
</mgrwt>
</event>
<event>
 6    1  0.1875959E-004  0.3000000E+03  0.7818608E-02  0.1093470E+00
          1   -1    0    0  502    0  0.00000000000E+00  0.00000000000E+00  0.31087523285E+02  0.31087523285E+02  0.00000000000E+00 0.  1.
         13   -1    0    0    0    0 -0.00000000000E+00 -0.00000000000E+00 -0.10000000000E+04  0.10000000000E+04  0.00000000000E+00 0.  1.
    9000005    2    1    2  501    0 -0.12622813653E+01  0.25449719351E+02 -0.92712701326E+03  0.98214565445E+03  0.32310417246E+03 0.  0.
         13    1    3    3    0    0 -0.15586336579E+03 -0.29826760617E+02 -0.49847015726E+03  0.52312094406E+03  0.00000000000E+00 0.  1.
          1    1    3    3  501    0  0.15460108442E+03  0.55276479969E+02 -0.42865685601E+03  0.45902471038E+03  0.00000000000E+00 0.  1.
         21    1    1    2  502  501  0.12622813653E+01 -0.25449719351E+02 -0.41785463453E+02  0.48941868837E+02  0.00000000000E+00 0.  1.
<mgrwt>
<rscale>  1 0.30000000E+03</rscale>
<asrwt>0</asrwt>
<pdfrwt beam="1">  1        1 0.11304578E+00 0.30000000E+03</pdfrwt>
<pdfrwt beam="2">0</pdfrwt>
<totfact> 0.28503602E+01</totfact>
</mgrwt>
</event>
<event>
 6    1  0.1875959E-004  0.3000000E+03  0.7818608E-02  0.1093470E+00
          1   -1    0    0  502    0  0.00000000000E+00  0.00000000000E+00  0.30618231692E+02  0.30618231692E+02  0.00000000000E+00 0.  1.
         13   -1    0    0    0    0 -0.00000000000E+00 -0.00000000000E+00 -0.10000000000E+04  0.10000000000E+04  0.00000000000E+00 0.  1.
    9000005    2    1    2  501    0  0.55464897381E+01 -0.10762810677E+02 -0.96576703189E+03  0.10179822528E+04  0.32161359669E+03 0.  0.
         13    1    3    3    0    0  0.11095677477E+03 -0.28399165337E+02 -0.86009052054E+03  0.86768290405E+03  0.00000000000E+00 0.  1.
          1    1    3    3  501    0 -0.10541028503E+03  0.17636354660E+02 -0.10567651135E+03  0.15029934879E+03  0.00000000000E+00 0.  1.
         21    1    1    2  502  501 -0.55464897381E+01  0.10762810677E+02 -0.36147364180E+01  0.12635978849E+02  0.00000000000E+00 0. -1.
<mgrwt>
<rscale>  1 0.30000000E+03</rscale>
<asrwt>0</asrwt>
<pdfrwt beam="1">  1        1 0.11133926E+00 0.30000000E+03</pdfrwt>
<pdfrwt beam="2">0</pdfrwt>
<totfact> 0.29170602E+01</totfact>
</mgrwt>
</event>
<event>
 6    1  0.1875959E-004  0.3000000E+03  0.7818608E-02  0.1093470E+00
          1   -1    0    0  502    0  0.00000000000E+00  0.00000000000E+00  0.45143273097E+02  0.45143273097E+02  0.00000000000E+00 0.  1.
         13   -1    0    0    0    0 -0.00000000000E+00 -0.00000000000E+00 -0.10000000000E+04  0.10000000000E+04  0.00000000000E+00 0.  1.
    9000005    2    1    2  501    0 -0.13724088897E+01 -0.10931897544E+02 -0.97048109786E+03  0.10260249348E+04  0.33282460201E+03 0.  0.
         13    1    3    3    0    0  0.11471310807E+03  0.11005138673E+03 -0.37296363618E+03  0.40542851257E+03  0.00000000000E+00 0.  1.
          3    1    3    3  501    0 -0.11608551696E+03 -0.12098328427E+03 -0.59751746168E+03  0.62059642227E+03  0.00000000000E+00 0.  1.
         21    1    1    2  502  501  0.13724088897E+01  0.10931897544E+02  0.15624370959E+02  0.19118338263E+02  0.00000000000E+00 0.  1.
<mgrwt>
<rscale>  1 0.30000000E+03</rscale>
<asrwt>0</asrwt>
<pdfrwt beam="1">  1        1 0.16415770E+00 0.30000000E+03</pdfrwt>
<pdfrwt beam="2">0</pdfrwt>
<totfact> 0.15262487E+01</totfact>
</mgrwt>
</event>
<event>
 6    1  0.1875959E-004  0.3000000E+03  0.7818608E-02  0.1093470E+00
          1   -1    0    0  502    0  0.00000000000E+00  0.00000000000E+00  0.33780615964E+02  0.33780615964E+02  0.00000000000E+00 0.  1.
         13   -1    0    0    0    0 -0.00000000000E+00 -0.00000000000E+00 -0.10000000000E+04  0.10000000000E+04  0.00000000000E+00 0.  1.
    9000005    2    1    2  501    0  0.14949768621E+02  0.36180083002E+01 -0.96553539128E+03  0.10183840770E+04  0.32343616203E+03 0.  0.
         13    1    3    3    0    0  0.76350636952E+02  0.11210155455E+03 -0.19321297885E+03  0.23606658698E+03  0.00000000000E+00 0.  1.
          3    1    3    3  501    0 -0.61400868331E+02 -0.10848354625E+03 -0.77232241244E+03  0.78231749002E+03  0.00000000000E+00 0.  1.
         21    1    1    2  502  501 -0.14949768621E+02 -0.36180083002E+01 -0.68399275213E+00  0.15396538961E+02  0.00000000000E+00 0.  1.
<mgrwt>
<rscale>  1 0.30000000E+03</rscale>
<asrwt>0</asrwt>
<pdfrwt beam="1">  1        1 0.12283886E+00 0.30000000E+03</pdfrwt>
<pdfrwt beam="2">0</pdfrwt>
<totfact> 0.25058329E+01</totfact>
</mgrwt>
</event>
<event>
 6    1  0.1875959E-004  0.3000000E+03  0.7818608E-02  0.1093470E+00
          1   -1    0    0  502    0  0.00000000000E+00  0.00000000000E+00  0.22871935792E+02  0.22871935792E+02  0.00000000000E+00 0.  1.
         13   -1    0    0    0    0 -0.00000000000E+00 -0.00000000000E+00 -0.10000000000E+04  0.10000000000E+04  0.00000000000E+00 0.  1.
    9000005    2    1    2  501    0 -0.55852384677E+01 -0.12582062732E+02 -0.97115309476E+03  0.10078651556E+04  0.26919200444E+03 0.  0.
         13    1    3    3    0    0  0.38548647462E+02  0.10446510484E+03 -0.70550534578E+03  0.71423858008E+03  0.00000000000E+00 0.  1.
          1    1    3    3  501    0 -0.44133885930E+02 -0.11704716757E+03 -0.26564774897E+03  0.29362657553E+03  0.00000000000E+00 0.  1.
         21    1    1    2  502  501  0.55852384677E+01  0.12582062732E+02 -0.59749694524E+01  0.15006780177E+02  0.00000000000E+00 0.  1.
<mgrwt>
<rscale>  1 0.30000000E+03</rscale>
<asrwt>0</asrwt>
<pdfrwt beam="1">  1        1 0.83170851E-01 0.30000000E+03</pdfrwt>
<pdfrwt beam="2">0</pdfrwt>
<totfact> 0.44499940E+01</totfact>
</mgrwt>
</event>
<event>
 6    1  0.1875959E-004  0.3000000E+03  0.7818608E-02  0.1093470E+00
          1   -1    0    0  502    0  0.00000000000E+00  0.00000000000E+00  0.26540199518E+02  0.26540199518E+02  0.00000000000E+00 0.  1.
         13   -1    0    0    0    0 -0.00000000000E+00 -0.00000000000E+00 -0.10000000000E+04  0.10000000000E+04  0.00000000000E+00 0.  1.
    9000005    2    1    2  501    0  0.67262396535E+01 -0.70058331486E+01 -0.96695937516E+03  0.10148534751E+04  0.30793314004E+03 0.  0.
         13    1    3    3    0    0 -0.82399765000E+01  0.77221995363E+02 -0.90715927183E+03  0.91047739030E+03  0.00000000000E+00 0.  1.
          3    1    3    3  501    0  0.14966216153E+02 -0.84227828512E+02 -0.59800103329E+02  0.10437608481E+03  0.00000000000E+00 0.  1.
         21    1    1    2  502  501 -0.67262396535E+01  0.70058331486E+01 -0.65004253183E+01  0.11686724404E+02  0.00000000000E+00 0.  1.
<mgrwt>
<rscale>  1 0.30000000E+03</rscale>
<asrwt>0</asrwt>
<pdfrwt beam="1">  1        1 0.96510020E-01 0.30000000E+03</pdfrwt>
<pdfrwt beam="2">0</pdfrwt>
<totfact> 0.36041507E+01</totfact>
</mgrwt>
</event>
<event>
 6    1  0.1875959E-004  0.3000000E+03  0.7818608E-02  0.1093470E+00
          1   -1    0    0  502    0  0.00000000000E+00  0.00000000000E+00  0.40980346827E+02  0.40980346827E+02  0.00000000000E+00 0.  1.
         13   -1    0    0    0    0 -0.00000000000E+00 -0.00000000000E+00 -0.10000000000E+04  0.10000000000E+04  0.00000000000E+00 0.  1.
    9000005    2    1    2  501    0  0.11191738062E+02  0.57442367553E+01 -0.97009119193E+03  0.10242223569E+04  0.32832341436E+03 0.  0.
         13    1    3    3    0    0 -0.11429520169E+02 -0.51853060503E+02 -0.94861996679E+00  0.53106249111E+02  0.00000000000E+00 0.  1.
          3    1    3    3  501    0  0.22621258232E+02  0.57597297258E+02 -0.96914257196E+03  0.97111610777E+03  0.00000000000E+00 0.  1.
         21    1    1    2  502  501 -0.11191738062E+02 -0.57442367553E+01  0.11071538755E+02  0.16757989950E+02  0.00000000000E+00 0.  1.
<mgrwt>
<rscale>  1 0.30000000E+03</rscale>
<asrwt>0</asrwt>
<pdfrwt beam="1">  1        1 0.14901976E+00 0.30000000E+03</pdfrwt>
<pdfrwt beam="2">0</pdfrwt>
<totfact> 0.18172612E+01</totfact>
</mgrwt>
</event>
<event>
 6    1  0.1875959E-004  0.3000000E+03  0.7818608E-02  0.1093470E+00
          1   -1    0    0  502    0  0.00000000000E+00  0.00000000000E+00  0.37362591538E+02  0.37362591538E+02  0.00000000000E+00 0.  1.
         13   -1    0    0    0    0 -0.00000000000E+00 -0.00000000000E+00 -0.10000000000E+04  0.10000000000E+04  0.00000000000E+00 0.  1.
    9000005    2    1    2  501    0  0.12427305363E+01  0.13370090444E+02 -0.96553958327E+03  0.10236248218E+04  0.33964803155E+03 0.  0.
         13    1    3    3    0    0  0.41727520639E+02  0.17116172324E+03 -0.46572313521E+03  0.49793128055E+03  0.00000000000E+00 0.  1.
          3    1    3    3  501    0 -0.40484790102E+02 -0.15779163279E+03 -0.49981644805E+03  0.52569354129E+03  0.00000000000E+00 0.  1.
         21    1    1    2  502  501 -0.12427305363E+01 -0.13370090444E+02  0.29021748036E+01  0.13737769698E+02  0.00000000000E+00 0. -1.
<mgrwt>
<rscale>  1 0.30000000E+03</rscale>
<asrwt>0</asrwt>
<pdfrwt beam="1">  1        1 0.13586426E+00 0.30000000E+03</pdfrwt>
<pdfrwt beam="2">0</pdfrwt>
<totfact> 0.21275655E+01</totfact>
</mgrwt>
</event>
<event>
 6    1  0.1875959E-004  0.3000000E+03  0.7818608E-02  0.1093470E+00
          1   -1    0    0  502    0  0.00000000000E+00  0.00000000000E+00  0.39825720274E+02  0.39825720274E+02  0.00000000000E+00 0.  1.
         13   -1    0    0    0    0 -0.00000000000E+00 -0.00000000000E+00 -0.10000000000E+04  0.10000000000E+04  0.00000000000E+00 0.  1.
    9000005    2    1    2  501    0 -0.65076848873E+02 -0.19861155379E+02 -0.85922298448E+03  0.91808572781E+03  0.31620848313E+03 0.  0.
         13    1    3    3    0    0 -0.15990141828E+03  0.81232287868E+02 -0.39928167689E+03  0.43771338300E+03  0.00000000000E+00 0.  1.
          3    1    3    3  501    0  0.94824569408E+02 -0.10109344325E+03 -0.45994130759E+03  0.48037234481E+03  0.00000000000E+00 0.  1.
         21    1    1    2  502  501  0.65076848873E+02  0.19861155379E+02 -0.10095129525E+03  0.12173999246E+03  0.00000000000E+00 0.  1.
<mgrwt>
<rscale>  1 0.30000000E+03</rscale>
<asrwt>0</asrwt>
<pdfrwt beam="1">  1        1 0.14482111E+00 0.30000000E+03</pdfrwt>
<pdfrwt beam="2">0</pdfrwt>
<totfact> 0.19096757E+01</totfact>
</mgrwt>
</event>
<event>
 6    1  0.1875959E-004  0.3000000E+03  0.7818608E-02  0.1093470E+00
          1   -1    0    0  502    0  0.00000000000E+00  0.00000000000E+00  0.29852004533E+02  0.29852004533E+02  0.00000000000E+00 0.  1.
         13   -1    0    0    0    0 -0.00000000000E+00 -0.00000000000E+00 -0.10000000000E+04  0.10000000000E+04  0.00000000000E+00 0.  1.
    9000005    2    1    2  501    0 -0.65512835766E+01  0.88760226320E+01 -0.96298390507E+03  0.10166980209E+04  0.32590667557E+03 0.  0.
         13    1    3    3    0    0  0.22503667404E+02 -0.38656133820E+02  0.68627203062E+01  0.45252719902E+02  0.00000000000E+00 0.  1.
          3    1    3    3  501    0 -0.29054950980E+02  0.47532156452E+02 -0.96984662538E+03  0.97144530100E+03  0.00000000000E+00 0.  1.
         21    1    1    2  502  501  0.65512835766E+01 -0.88760226320E+01 -0.71640903965E+01  0.13153983635E+02  0.00000000000E+00 0.  1.
<mgrwt>
<rscale>  1 0.30000000E+03</rscale>
<asrwt>0</asrwt>
<pdfrwt beam="1">  1        1 0.10855297E+00 0.30000000E+03</pdfrwt>
<pdfrwt beam="2">0</pdfrwt>
<totfact> 0.30308093E+01</totfact>
</mgrwt>
</event>
<event>
 6    1  0.1875959E-004  0.3000000E+03  0.7818608E-02  0.1093470E+00
          1   -1    0    0  502    0  0.00000000000E+00  0.00000000000E+00  0.20398715793E+02  0.20398715793E+02  0.00000000000E+00 0.  1.
         13   -1    0    0    0    0 -0.00000000000E+00 -0.00000000000E+00 -0.10000000000E+04  0.10000000000E+04  0.00000000000E+00 0.  1.
    9000005    2    1    2  501    0  0.15400777614E+02 -0.26193034551E+02 -0.89545045668E+03  0.93093016946E+03  0.25273741517E+03 0.  0.
         13    1    3    3    0    0  0.25733477083E+01  0.48439441619E+02 -0.82829903022E+03  0.82971819619E+03  0.00000000000E+00 0.  1.
          3    1    3    3  501    0  0.12827429906E+02 -0.74632476170E+02 -0.67151426460E+02  0.10121197327E+03  0.00000000000E+00 0.  1.
         21    1    1    2  502  501 -0.15400777614E+02  0.26193034551E+02 -0.84150827523E+02  0.89468546333E+02  0.00000000000E+00 0.  1.
<mgrwt>
<rscale>  1 0.30000000E+03</rscale>
<asrwt>0</asrwt>
<pdfrwt beam="1">  1        1 0.74177305E-01 0.30000000E+03</pdfrwt>
<pdfrwt beam="2">0</pdfrwt>
<totfact> 0.52105322E+01</totfact>
</mgrwt>
</event>
<event>
 6    1  0.1875959E-004  0.3000000E+03  0.7818608E-02  0.1093470E+00
          3   -1    0    0  502    0  0.00000000000E+00  0.00000000000E+00  0.33848691385E+02  0.33848691385E+02  0.00000000000E+00 0.  1.
         13   -1    0    0    0    0 -0.00000000000E+00 -0.00000000000E+00 -0.10000000000E+04  0.10000000000E+04  0.00000000000E+00 0.  1.
    9000005    2    1    2  501    0  0.11813658574E+02 -0.26850450593E+02 -0.93576137132E+03  0.99161058637E+03  0.32677469568E+03 0.  0.
         13    1    3    3    0    0 -0.78612185746E+01 -0.61796125497E+02 -0.77971738633E+01  0.62780218256E+02  0.00000000000E+00 0.  1.
          3    1    3    3  501    0  0.19674877149E+02  0.34945674905E+02 -0.92796419745E+03  0.92883036812E+03  0.00000000000E+00 0.  1.
         21    1    1    2  502  501 -0.11813658574E+02  0.26850450593E+02 -0.30389937299E+02  0.42238105012E+02  0.00000000000E+00 0.  1.
<mgrwt>
<rscale>  1 0.30000000E+03</rscale>
<asrwt>0</asrwt>
<pdfrwt beam="1">  1        3 0.12308641E+00 0.30000000E+03</pdfrwt>
<pdfrwt beam="2">0</pdfrwt>
<totfact> 0.21297996E+00</totfact>
</mgrwt>
</event>
<event>
 6    1  0.1875959E-004  0.3000000E+03  0.7818608E-02  0.1093470E+00
          3   -1    0    0  502    0  0.00000000000E+00  0.00000000000E+00  0.27934419827E+02  0.27934419827E+02  0.00000000000E+00 0.  1.
         13   -1    0    0    0    0 -0.00000000000E+00 -0.00000000000E+00 -0.10000000000E+04  0.10000000000E+04  0.00000000000E+00 0.  1.
    9000005    2    1    2  501    0 -0.13009456984E+02 -0.77137550293E+01 -0.88950978189E+03  0.94400464074E+03  0.31573463806E+03 0.  0.
         13    1    3    3    0    0 -0.36365598096E+02 -0.15229655558E+03 -0.32419567745E+03  0.36002713071E+03  0.00000000000E+00 0.  1.
          3    1    3    3  501    0  0.23356141112E+02  0.14458280055E+03 -0.56531410443E+03  0.58397751003E+03  0.00000000000E+00 0.  1.
         21    1    1    2  502  501  0.13009456984E+02  0.77137550293E+01 -0.82555798286E+02  0.83929779091E+02  0.00000000000E+00 0. -1.
<mgrwt>
<rscale>  1 0.30000000E+03</rscale>
<asrwt>0</asrwt>
<pdfrwt beam="1">  1        3 0.10157992E+00 0.30000000E+03</pdfrwt>
<pdfrwt beam="2">0</pdfrwt>
<totfact> 0.37580419E+00</totfact>
</mgrwt>
</event>
<event>
 6    1  0.1875959E-004  0.3000000E+03  0.7818608E-02  0.1093470E+00
          1   -1    0    0  502    0  0.00000000000E+00  0.00000000000E+00  0.37604297791E+02  0.37604297791E+02  0.00000000000E+00 0.  1.
         13   -1    0    0    0    0 -0.00000000000E+00 -0.00000000000E+00 -0.10000000000E+04  0.10000000000E+04  0.00000000000E+00 0.  1.
    9000005    2    1    2  501    0 -0.13658952765E+02  0.28346383900E+02 -0.93841583058E+03  0.99804271650E+03  0.33834140806E+03 0.  0.
         13    1    3    3    0    0  0.44102682662E+02 -0.95644065469E+02 -0.89607125701E+02  0.13828329926E+03  0.00000000000E+00 0.  1.
          1    1    3    3  501    0 -0.57761635427E+02  0.12399044937E+03 -0.84880870487E+03  0.85975941724E+03  0.00000000000E+00 0.  1.
         21    1    1    2  502  501  0.13658952765E+02 -0.28346383900E+02 -0.23979871634E+02  0.39561581293E+02  0.00000000000E+00 0.  1.
<mgrwt>
<rscale>  1 0.30000000E+03</rscale>
<asrwt>0</asrwt>
<pdfrwt beam="1">  1        1 0.13674319E+00 0.30000000E+03</pdfrwt>
<pdfrwt beam="2">0</pdfrwt>
<totfact> 0.21048211E+01</totfact>
</mgrwt>
</event>
<event>
 6    1  0.1875959E-004  0.3000000E+03  0.7818608E-02  0.1093470E+00
          1   -1    0    0  502    0  0.00000000000E+00  0.00000000000E+00  0.72287679644E+02  0.72287679644E+02  0.00000000000E+00 0.  1.
         13   -1    0    0    0    0 -0.00000000000E+00 -0.00000000000E+00 -0.10000000000E+04  0.10000000000E+04  0.00000000000E+00 0.  1.
    9000005    2    1    2  501    0 -0.19314776806E+02  0.16807959390E+02 -0.96851880466E+03  0.10241136486E+04  0.33185015032E+03 0.  0.
         13    1    3    3    0    0  0.34344250717E+02  0.16234400530E+03 -0.63443957681E+03  0.65578096971E+03  0.00000000000E+00 0.  1.
          1    1    3    3  501    0 -0.53659027523E+02 -0.14553604590E+03 -0.33407922785E+03  0.36833267894E+03  0.00000000000E+00 0.  1.
         21    1    1    2  502  501  0.19314776806E+02 -0.16807959390E+02  0.40806484299E+02  0.48174031000E+02  0.00000000000E+00 0.  1.
<mgrwt>
<rscale>  1 0.30000000E+03</rscale>
<asrwt>0</asrwt>
<pdfrwt beam="1">  1        1 0.26286484E+00 0.30000000E+03</pdfrwt>
<pdfrwt beam="2">0</pdfrwt>
<totfact> 0.51946206E+00</totfact>
</mgrwt>
</event>
<event>
 6    1  0.1875959E-004  0.3000000E+03  0.7818608E-02  0.1093470E+00
          1   -1    0    0  502    0  0.00000000000E+00  0.00000000000E+00  0.47658793105E+02  0.47658793105E+02  0.00000000000E+00 0.  1.
         13   -1    0    0    0    0 -0.00000000000E+00 -0.00000000000E+00 -0.10000000000E+04  0.10000000000E+04  0.00000000000E+00 0.  1.
    9000005    2    1    2  501    0  0.10884488841E+02 -0.14651091337E+01 -0.97288966508E+03  0.10243594846E+04  0.32043319846E+03 0.  0.
         13    1    3    3    0    0 -0.12321437316E+03  0.12128994489E+02 -0.77562145361E+03  0.78544098032E+03  0.00000000000E+00 0.  1.
          3    1    3    3  501    0  0.13409886200E+03 -0.13594103623E+02 -0.19726821146E+03  0.23891850430E+03  0.00000000000E+00 0.  1.
         21    1    1    2  502  501 -0.10884488841E+02  0.14651091337E+01  0.20548458183E+02  0.23299308483E+02  0.00000000000E+00 0.  1.
<mgrwt>
<rscale>  1 0.30000000E+03</rscale>
<asrwt>0</asrwt>
<pdfrwt beam="1">  1        1 0.17330507E+00 0.30000000E+03</pdfrwt>
<pdfrwt beam="2">0</pdfrwt>
<totfact> 0.13766686E+01</totfact>
</mgrwt>
</event>
<event>
 6    1  0.1875959E-004  0.3000000E+03  0.7818608E-02  0.1093470E+00
          3   -1    0    0  502    0  0.00000000000E+00  0.00000000000E+00  0.18858561190E+02  0.18858561190E+02  0.00000000000E+00 0.  1.
         13   -1    0    0    0    0 -0.00000000000E+00 -0.00000000000E+00 -0.10000000000E+04  0.10000000000E+04  0.00000000000E+00 0.  1.
    9000005    2    1    2  501    0  0.52480930948E+01  0.22692390266E+02 -0.96554851005E+03  0.99082953188E+03  0.22117131123E+03 0.  0.
         13    1    3    3    0    0 -0.80503535227E+02  0.78975038756E+02 -0.62782433114E+03  0.63787245332E+03  0.00000000000E+00 0.  1.
          3    1    3    3  501    0  0.85751628321E+02 -0.56282648490E+02 -0.33772417891E+03  0.35295707855E+03  0.00000000000E+00 0.  1.
         21    1    1    2  502  501 -0.52480930948E+01 -0.22692390266E+02 -0.15592928757E+02  0.28029029315E+02  0.00000000000E+00 0.  1.
<mgrwt>
<rscale>  1 0.30000000E+03</rscale>
<asrwt>0</asrwt>
<pdfrwt beam="1">  1        3 0.68576731E-01 0.30000000E+03</pdfrwt>
<pdfrwt beam="2">0</pdfrwt>
<totfact> 0.93129360E+00</totfact>
</mgrwt>
</event>
<event>
 6    1  0.1875959E-004  0.3000000E+03  0.7818608E-02  0.1093470E+00
          1   -1    0    0  502    0  0.00000000000E+00  0.00000000000E+00  0.30075907519E+02  0.30075907519E+02  0.00000000000E+00 0.  1.
         13   -1    0    0    0    0 -0.00000000000E+00 -0.00000000000E+00 -0.10000000000E+04  0.10000000000E+04  0.00000000000E+00 0.  1.
    9000005    2    1    2  501    0 -0.20957145345E+02 -0.13356991948E+02 -0.93597202456E+03  0.98800033157E+03  0.31540991306E+03 0.  0.
         13    1    3    3    0    0 -0.16436356808E+03 -0.34374566653E+02 -0.57498719199E+03  0.59900522894E+03  0.00000000000E+00 0.  1.
          3    1    3    3  501    0  0.14340642274E+03  0.21017574705E+02 -0.36098483257E+03  0.38899510263E+03  0.00000000000E+00 0.  1.
         21    1    1    2  502  501  0.20957145345E+02  0.13356991948E+02 -0.33952067926E+02  0.42075575948E+02  0.00000000000E+00 0. -1.
<mgrwt>
<rscale>  1 0.30000000E+03</rscale>
<asrwt>0</asrwt>
<pdfrwt beam="1">  1        1 0.10936717E+00 0.30000000E+03</pdfrwt>
<pdfrwt beam="2">0</pdfrwt>
<totfact> 0.29969275E+01</totfact>
</mgrwt>
</event>
<event>
 6    1  0.1875959E-004  0.3000000E+03  0.7818608E-02  0.1093470E+00
          1   -1    0    0  502    0  0.00000000000E+00  0.00000000000E+00  0.28621740648E+02  0.28621740648E+02  0.00000000000E+00 0.  1.
         13   -1    0    0    0    0 -0.00000000000E+00 -0.00000000000E+00 -0.10000000000E+04  0.10000000000E+04  0.00000000000E+00 0.  1.
    9000005    2    1    2  501    0 -0.28477170051E+01 -0.14511153535E+02 -0.95280466620E+03  0.10048801857E+04  0.31894948283E+03 0.  0.
         13    1    3    3    0    0 -0.12043126908E+03 -0.45155687763E+02 -0.17250436634E+03  0.21517547052E+03  0.00000000000E+00 0.  1.
          1    1    3    3  501    0  0.11758355207E+03  0.30644534229E+02 -0.78030029987E+03  0.78970471518E+03  0.00000000000E+00 0.  1.
         21    1    1    2  502  501  0.28477170051E+01  0.14511153535E+02 -0.18573593149E+02  0.23741554951E+02  0.00000000000E+00 0.  1.
<mgrwt>
<rscale>  1 0.30000000E+03</rscale>
<asrwt>0</asrwt>
<pdfrwt beam="1">  1        1 0.10407928E+00 0.30000000E+03</pdfrwt>
<pdfrwt beam="2">0</pdfrwt>
<totfact> 0.32271508E+01</totfact>
</mgrwt>
</event>
<event>
 6    1  0.1875959E-004  0.3000000E+03  0.7818608E-02  0.1093470E+00
          1   -1    0    0  502    0  0.00000000000E+00  0.00000000000E+00  0.36774281323E+02  0.36774281323E+02  0.00000000000E+00 0.  1.
         13   -1    0    0    0    0 -0.00000000000E+00 -0.00000000000E+00 -0.10000000000E+04  0.10000000000E+04  0.00000000000E+00 0.  1.
    9000005    2    1    2  501    0 -0.22365756205E+02  0.77740037003E+01 -0.95444618954E+03  0.10115207209E+04  0.33413467019E+03 0.  0.
         13    1    3    3    0    0  0.22508064545E+02  0.12798509113E+03 -0.15693554490E+03  0.20375367917E+03  0.00000000000E+00 0.  1.
          1    1    3    3  501    0 -0.44873820750E+02 -0.12021108743E+03 -0.79751064464E+03  0.80776704169E+03  0.00000000000E+00 0.  1.
         21    1    1    2  502  501  0.22365756205E+02 -0.77740037003E+01 -0.87795291364E+01  0.25253560462E+02  0.00000000000E+00 0. -1.
<mgrwt>
<rscale>  1 0.30000000E+03</rscale>
<asrwt>0</asrwt>
<pdfrwt beam="1">  1        1 0.13372494E+00 0.30000000E+03</pdfrwt>
<pdfrwt beam="2">0</pdfrwt>
<totfact> 0.21843110E+01</totfact>
</mgrwt>
</event>
<event>
 6    1  0.1875959E-004  0.3000000E+03  0.7818608E-02  0.1093470E+00
          1   -1    0    0  502    0  0.00000000000E+00  0.00000000000E+00  0.43797270615E+02  0.43797270615E+02  0.00000000000E+00 0.  1.
         13   -1    0    0    0    0 -0.00000000000E+00 -0.00000000000E+00 -0.10000000000E+04  0.10000000000E+04  0.00000000000E+00 0.  1.
    9000005    2    1    2  501    0  0.26476109253E+02  0.67212229818E+02 -0.71098650513E+03  0.78816185672E+03  0.33238356415E+03 0.  0.
         13    1    3    3    0    0  0.38779714979E+02  0.19064405304E+03 -0.28946563902E+03  0.34876837218E+03  0.00000000000E+00 0.  1.
          3    1    3    3  501    0 -0.12303605726E+02 -0.12343182323E+03 -0.42152086610E+03  0.43939348454E+03  0.00000000000E+00 0.  1.
         21    1    1    2  502  501 -0.26476109253E+02 -0.67212229818E+02 -0.24521622426E+03  0.25563541389E+03  0.00000000000E+00 0.  1.
<mgrwt>
<rscale>  1 0.30000000E+03</rscale>
<asrwt>0</asrwt>
<pdfrwt beam="1">  1        1 0.15926314E+00 0.30000000E+03</pdfrwt>
<pdfrwt beam="2">0</pdfrwt>
<totfact> 0.16138597E+01</totfact>
</mgrwt>
</event>
<event>
 6    1  0.1875959E-004  0.3000000E+03  0.7818608E-02  0.1093470E+00
          1   -1    0    0  502    0  0.00000000000E+00  0.00000000000E+00  0.42432259308E+02  0.42432259308E+02  0.00000000000E+00 0.  1.
         13   -1    0    0    0    0 -0.00000000000E+00 -0.00000000000E+00 -0.10000000000E+04  0.10000000000E+04  0.00000000000E+00 0.  1.
    9000005    2    1    2  501    0  0.34339563781E+02  0.17909096447E+02 -0.92141489007E+03  0.98945141386E+03  0.35848118413E+03 0.  0.
         13    1    3    3    0    0  0.37901214523E+02  0.63922270821E+02 -0.78565125754E+01  0.74728064066E+02  0.00000000000E+00 0.  1.
          1    1    3    3  501    0 -0.35616507420E+01 -0.46013174374E+02 -0.91355837749E+03  0.91472334979E+03  0.00000000000E+00 0.  1.
         21    1    1    2  502  501 -0.34339563781E+02 -0.17909096447E+02 -0.36152850625E+02  0.52980845449E+02  0.00000000000E+00 0.  1.
<mgrwt>
<rscale>  1 0.30000000E+03</rscale>
<asrwt>0</asrwt>
<pdfrwt beam="1">  1        1 0.15429945E+00 0.30000000E+03</pdfrwt>
<pdfrwt beam="2">0</pdfrwt>
<totfact> 0.17087879E+01</totfact>
</mgrwt>
</event>
<event>
 6    1  0.1875959E-004  0.3000000E+03  0.7818608E-02  0.1093470E+00
          1   -1    0    0  502    0  0.00000000000E+00  0.00000000000E+00  0.39643015219E+02  0.39643015219E+02  0.00000000000E+00 0.  1.
         13   -1    0    0    0    0 -0.00000000000E+00 -0.00000000000E+00 -0.10000000000E+04  0.10000000000E+04  0.00000000000E+00 0.  1.
    9000005    2    1    2  501    0 -0.83397193473E+01  0.11966115155E+02 -0.96779847040E+03  0.10232688118E+04  0.33201271511E+03 0.  0.
         13    1    3    3    0    0 -0.57486023382E+02 -0.14299124508E+03 -0.31704561200E+03  0.35251816853E+03  0.00000000000E+00 0.  1.
          3    1    3    3  501    0  0.49146304035E+02  0.15495736023E+03 -0.65075285840E+03  0.67075064323E+03  0.00000000000E+00 0.  1.
         21    1    1    2  502  501  0.83397193473E+01 -0.11966115155E+02  0.74414856142E+01  0.16374203456E+02  0.00000000000E+00 0.  1.
<mgrwt>
<rscale>  1 0.30000000E+03</rscale>
<asrwt>0</asrwt>
<pdfrwt beam="1">  1        1 0.14415672E+00 0.30000000E+03</pdfrwt>
<pdfrwt beam="2">0</pdfrwt>
<totfact> 0.19248357E+01</totfact>
</mgrwt>
</event>
<event>
 6    1  0.1875959E-004  0.3000000E+03  0.7818608E-02  0.1093470E+00
          1   -1    0    0  502    0  0.00000000000E+00  0.00000000000E+00  0.30538217558E+02  0.30538217558E+02  0.00000000000E+00 0.  1.
         13   -1    0    0    0    0 -0.00000000000E+00 -0.00000000000E+00 -0.10000000000E+04  0.10000000000E+04  0.00000000000E+00 0.  1.
    9000005    2    1    2  501    0  0.13857295739E+02  0.26193072831E+01 -0.96031123950E+03  0.10137269757E+04  0.32441612042E+03 0.  0.
         13    1    3    3    0    0 -0.54843434700E+02 -0.47015318306E+02 -0.91456695276E+03  0.91741536589E+03  0.00000000000E+00 0.  1.
          3    1    3    3  501    0  0.68700730439E+02  0.49634625589E+02 -0.45744286736E+02  0.96311609836E+02  0.00000000000E+00 0.  1.
         21    1    1    2  502  501 -0.13857295739E+02 -0.26193072831E+01 -0.91505429461E+01  0.16811241835E+02  0.00000000000E+00 0. -1.
<mgrwt>
<rscale>  1 0.30000000E+03</rscale>
<asrwt>0</asrwt>
<pdfrwt beam="1">  1        1 0.11104830E+00 0.30000000E+03</pdfrwt>
<pdfrwt beam="2">0</pdfrwt>
<totfact> 0.29286527E+01</totfact>
</mgrwt>
</event>
<event>
 6    1  0.1875959E-004  0.3000000E+03  0.7818608E-02  0.1093470E+00
          1   -1    0    0  502    0  0.00000000000E+00  0.00000000000E+00  0.24480460456E+02  0.24480460456E+02  0.00000000000E+00 0.  1.
         13   -1    0    0    0    0 -0.00000000000E+00 -0.00000000000E+00 -0.10000000000E+04  0.10000000000E+04  0.00000000000E+00 0.  1.
    9000005    2    1    2  501    0  0.10148019842E+02  0.58496954055E+01 -0.96501079117E+03  0.10087440366E+04  0.29356686305E+03 0.  0.
         13    1    3    3    0    0 -0.73727872745E+01  0.12881336416E+03 -0.74503836559E+03  0.75612790385E+03  0.00000000000E+00 0.  1.
          3    1    3    3  501    0  0.17520807116E+02 -0.12296366876E+03 -0.21997242557E+03  0.25261613276E+03  0.00000000000E+00 0.  1.
         21    1    1    2  502  501 -0.10148019842E+02 -0.58496954055E+01 -0.10508748376E+02  0.15736423846E+02  0.00000000000E+00 0.  1.
<mgrwt>
<rscale>  1 0.30000000E+03</rscale>
<asrwt>0</asrwt>
<pdfrwt beam="1">  1        1 0.89020044E-01 0.30000000E+03</pdfrwt>
<pdfrwt beam="2">0</pdfrwt>
<totfact> 0.40454003E+01</totfact>
</mgrwt>
</event>
<event>
 6    1  0.1875959E-004  0.3000000E+03  0.7818608E-02  0.1093470E+00
          1   -1    0    0  502    0  0.00000000000E+00  0.00000000000E+00  0.68738835967E+02  0.68738835967E+02  0.00000000000E+00 0.  1.
         13   -1    0    0    0    0 -0.00000000000E+00 -0.00000000000E+00 -0.10000000000E+04  0.10000000000E+04  0.00000000000E+00 0.  1.
    9000005    2    1    2  501    0  0.29230039861E+02  0.45865721252E+02 -0.97628785316E+03  0.99813102939E+03  0.20042335187E+03 0.  0.
         13    1    3    3    0    0 -0.36232979737E+02 -0.35404582967E+02 -0.73119720583E+02  0.88953959180E+02  0.00000000000E+00 0.  1.
          3    1    3    3  501    0  0.65463019598E+02  0.81270304219E+02 -0.90316813258E+03  0.90917707021E+03  0.00000000000E+00 0.  1.
         21    1    1    2  502  501 -0.29230039861E+02 -0.45865721252E+02  0.45026689129E+02  0.70607806581E+02  0.00000000000E+00 0.  1.
<mgrwt>
<rscale>  1 0.30000000E+03</rscale>
<asrwt>0</asrwt>
<pdfrwt beam="1">  1        1 0.24995993E+00 0.30000000E+03</pdfrwt>
<pdfrwt beam="2">0</pdfrwt>
<totfact> 0.59686382E+00</totfact>
</mgrwt>
</event>
<event>
 6    1  0.1875959E-004  0.3000000E+03  0.7818608E-02  0.1093470E+00
          1   -1    0    0  502    0  0.00000000000E+00  0.00000000000E+00  0.29312447317E+02  0.29312447317E+02  0.00000000000E+00 0.  1.
         13   -1    0    0    0    0 -0.00000000000E+00 -0.00000000000E+00 -0.10000000000E+04  0.10000000000E+04  0.00000000000E+00 0.  1.
    9000005    2    1    2  501    0 -0.53958368370E+01  0.86688025905E+01 -0.96601431468E+03  0.10180829172E+04  0.32125520525E+03 0.  0.
         13    1    3    3    0    0  0.11664074076E+03 -0.98378350969E+02 -0.57043376583E+03  0.59048966421E+03  0.00000000000E+00 0.  1.
          1    1    3    3  501    0 -0.12203657760E+03  0.10704715356E+03 -0.39558054886E+03  0.42759325298E+03  0.00000000000E+00 0.  1.
         21    1    1    2  502  501  0.53958368370E+01 -0.86688025905E+01 -0.46732379995E+01  0.11229530129E+02  0.00000000000E+00 0.  1.
<mgrwt>
<rscale>  1 0.30000000E+03</rscale>
<asrwt>0</asrwt>
<pdfrwt beam="1">  1        1 0.10659094E+00 0.30000000E+03</pdfrwt>
<pdfrwt beam="2">0</pdfrwt>
<totfact> 0.31147406E+01</totfact>
</mgrwt>
</event>
<event>
 6    1  0.1875959E-004  0.3000000E+03  0.7818608E-02  0.1093470E+00
          3   -1    0    0  502    0  0.00000000000E+00  0.00000000000E+00  0.28518493948E+02  0.28518493948E+02  0.00000000000E+00 0.  1.
         13   -1    0    0    0    0 -0.00000000000E+00 -0.00000000000E+00 -0.10000000000E+04  0.10000000000E+04  0.00000000000E+00 0.  1.
    9000005    2    1    2  501    0  0.94541606283E+01 -0.51260248131E+01 -0.95639242120E+03  0.10099891182E+04  0.32446247594E+03 0.  0.
         13    1    3    3    0    0  0.15749144035E+03  0.48848516922E+02 -0.54728914826E+03  0.57159001320E+03  0.00000000000E+00 0.  1.
          1    1    3    3  501    0 -0.14803727972E+03 -0.53974541735E+02 -0.40910327294E+03  0.43839910501E+03  0.00000000000E+00 0.  1.
         21    1    1    2  502  501 -0.94541606283E+01  0.51260248131E+01 -0.15089084853E+02  0.18529375739E+02  0.00000000000E+00 0.  1.
<mgrwt>
<rscale>  1 0.30000000E+03</rscale>
<asrwt>0</asrwt>
<pdfrwt beam="1">  1        3 0.10370383E+00 0.30000000E+03</pdfrwt>
<pdfrwt beam="2">0</pdfrwt>
<totfact> 0.35545175E+00</totfact>
</mgrwt>
</event>
<event>
 6    1  0.1875959E-004  0.3000000E+03  0.7818608E-02  0.1093470E+00
          1   -1    0    0  502    0  0.00000000000E+00  0.00000000000E+00  0.32126047664E+02  0.32126047664E+02  0.00000000000E+00 0.  1.
         13   -1    0    0    0    0 -0.00000000000E+00 -0.00000000000E+00 -0.10000000000E+04  0.10000000000E+04  0.00000000000E+00 0.  1.
    9000005    2    1    2  501    0  0.90804232000E+01  0.14150258147E+01 -0.95699589438E+03  0.10178856639E+04  0.34664914052E+03 0.  0.
         13    1    3    3    0    0 -0.92560676238E+02 -0.13585003218E+03 -0.33951185075E+03  0.37721480197E+03  0.00000000000E+00 0.  1.
          1    1    3    3  501    0  0.10164109944E+03  0.13726505800E+03 -0.61748404363E+03  0.64067086197E+03  0.00000000000E+00 0.  1.
         21    1    1    2  502  501 -0.90804232000E+01 -0.14150258147E+01 -0.10878057957E+02  0.14240383719E+02  0.00000000000E+00 0.  1.
<mgrwt>
<rscale>  1 0.30000000E+03</rscale>
<asrwt>0</asrwt>
<pdfrwt beam="1">  1        1 0.11682224E+00 0.30000000E+03</pdfrwt>
<pdfrwt beam="2">0</pdfrwt>
<totfact> 0.27102365E+01</totfact>
</mgrwt>
</event>
<event>
 6    1  0.1875959E-004  0.3000000E+03  0.7818608E-02  0.1093470E+00
          1   -1    0    0  502    0  0.00000000000E+00  0.00000000000E+00  0.39678763659E+02  0.39678763659E+02  0.00000000000E+00 0.  1.
         13   -1    0    0    0    0 -0.00000000000E+00 -0.00000000000E+00 -0.10000000000E+04  0.10000000000E+04  0.00000000000E+00 0.  1.
    9000005    2    1    2  501    0  0.94117446315E+01 -0.19407801931E+02 -0.95822191431E+03  0.10180073339E+04  0.34305167422E+03 0.  0.
         13    1    3    3    0    0  0.11198610091E+02  0.16090627181E+03 -0.50898692011E+03  0.53393250699E+03  0.00000000000E+00 0.  1.
          1    1    3    3  501    0 -0.17868654595E+01 -0.18031407374E+03 -0.44923499420E+03  0.48407482696E+03  0.00000000000E+00 0.  1.
         21    1    1    2  502  501 -0.94117446315E+01  0.19407801931E+02 -0.20993220281E+01  0.21671429713E+02  0.00000000000E+00 0. -1.
<mgrwt>
<rscale>  1 0.30000000E+03</rscale>
<asrwt>0</asrwt>
<pdfrwt beam="1">  1        1 0.14428672E+00 0.30000000E+03</pdfrwt>
<pdfrwt beam="2">0</pdfrwt>
<totfact> 0.19218575E+01</totfact>
</mgrwt>
</event>
<event>
 6    1  0.1875959E-004  0.3000000E+03  0.7818608E-02  0.1093470E+00
          1   -1    0    0  502    0  0.00000000000E+00  0.00000000000E+00  0.37513967701E+02  0.37513967701E+02  0.00000000000E+00 0.  1.
         13   -1    0    0    0    0 -0.00000000000E+00 -0.00000000000E+00 -0.10000000000E+04  0.10000000000E+04  0.00000000000E+00 0.  1.
    9000005    2    1    2  501    0 -0.14138561711E+02 -0.87986700469E+01 -0.96126764417E+03  0.10208166628E+04  0.34315282275E+03 0.  0.
         13    1    3    3    0    0 -0.92677690572E+02 -0.11574564233E+03 -0.79189917937E+03  0.80566154081E+03  0.00000000000E+00 0.  1.
          3    1    3    3  501    0  0.78539128861E+02  0.10694697229E+03 -0.16936846480E+03  0.21515512198E+03  0.00000000000E+00 0.  1.
         21    1    1    2  502  501  0.14138561711E+02  0.87986700469E+01 -0.12183881280E+01  0.16697304917E+02  0.00000000000E+00 0.  1.
<mgrwt>
<rscale>  1 0.30000000E+03</rscale>
<asrwt>0</asrwt>
<pdfrwt beam="1">  1        1 0.13641472E+00 0.30000000E+03</pdfrwt>
<pdfrwt beam="2">0</pdfrwt>
<totfact> 0.21132832E+01</totfact>
</mgrwt>
</event>
<event>
 6    1  0.1875959E-004  0.3000000E+03  0.7818608E-02  0.1093470E+00
          1   -1    0    0  502    0  0.00000000000E+00  0.00000000000E+00  0.34516568823E+02  0.34516568823E+02  0.00000000000E+00 0.  1.
         13   -1    0    0    0    0 -0.00000000000E+00 -0.00000000000E+00 -0.10000000000E+04  0.10000000000E+04  0.00000000000E+00 0.  1.
    9000005    2    1    2  501    0 -0.15079720640E+01 -0.90590764944E+01 -0.93662831930E+03  0.10042352490E+04  0.36212081691E+03 0.  0.
         13    1    3    3    0    0  0.11981004220E+03 -0.10007104605E+03 -0.20840492763E+03  0.26038677833E+03  0.00000000000E+00 0.  1.
          3    1    3    3  501    0 -0.12131801427E+03  0.91011969559E+02 -0.72822339167E+03  0.74384847071E+03  0.00000000000E+00 0.  1.
         21    1    1    2  502  501  0.15079720640E+01  0.90590764944E+01 -0.28855111873E+02  0.30281319784E+02  0.00000000000E+00 0. -1.
<mgrwt>
<rscale>  1 0.30000000E+03</rscale>
<asrwt>0</asrwt>
<pdfrwt beam="1">  1        1 0.12551506E+00 0.30000000E+03</pdfrwt>
<pdfrwt beam="2">0</pdfrwt>
<totfact> 0.24214367E+01</totfact>
</mgrwt>
</event>
<event>
 6    1  0.1875959E-004  0.3000000E+03  0.7818608E-02  0.1093470E+00
          1   -1    0    0  502    0  0.00000000000E+00  0.00000000000E+00  0.31920839063E+02  0.31920839063E+02  0.00000000000E+00 0.  1.
         13   -1    0    0    0    0 -0.00000000000E+00 -0.00000000000E+00 -0.10000000000E+04  0.10000000000E+04  0.00000000000E+00 0.  1.
    9000005    2    1    2  501    0  0.70439128181E+01 -0.15385581850E+02 -0.95479062237E+03  0.10104053076E+04  0.33016271782E+03 0.  0.
         13    1    3    3    0    0  0.76226683648E+02  0.85728664639E+02 -0.82106952394E+03  0.82904467575E+03  0.00000000000E+00 0.  1.
          3    1    3    3  501    0 -0.69182770830E+02 -0.10111424649E+03 -0.13372109842E+03  0.18136063185E+03  0.00000000000E+00 0.  1.
         21    1    1    2  502  501 -0.70439128181E+01  0.15385581850E+02 -0.13288538572E+02  0.21515531461E+02  0.00000000000E+00 0.  1.
<mgrwt>
<rscale>  1 0.30000000E+03</rscale>
<asrwt>0</asrwt>
<pdfrwt beam="1">  1        1 0.11607602E+00 0.30000000E+03</pdfrwt>
<pdfrwt beam="2">0</pdfrwt>
<totfact> 0.27371482E+01</totfact>
</mgrwt>
</event>
<event>
 6    1  0.1875959E-004  0.3000000E+03  0.7818608E-02  0.1093470E+00
          1   -1    0    0  502    0  0.00000000000E+00  0.00000000000E+00  0.33601795354E+02  0.33601795354E+02  0.00000000000E+00 0.  1.
         13   -1    0    0    0    0 -0.00000000000E+00 -0.00000000000E+00 -0.10000000000E+04  0.10000000000E+04  0.00000000000E+00 0.  1.
    9000005    2    1    2  501    0 -0.10427321840E+01 -0.13854721180E+02 -0.96215893365E+03  0.10190755430E+04  0.33551767184E+03 0.  0.
         13    1    3    3    0    0  0.27894887459E+02  0.99577151443E+02 -0.84221926562E+02  0.13336816243E+03  0.00000000000E+00 0.  1.
          3    1    3    3  501    0 -0.28937619643E+02 -0.11343187262E+03 -0.87793700708E+03  0.88570738055E+03  0.00000000000E+00 0.  1.
         21    1    1    2  502  501  0.10427321840E+01  0.13854721180E+02 -0.42392709998E+01  0.14526252372E+02  0.00000000000E+00 0. -1.
<mgrwt>
<rscale>  1 0.30000000E+03</rscale>
<asrwt>0</asrwt>
<pdfrwt beam="1">  1        1 0.12218860E+00 0.30000000E+03</pdfrwt>
<pdfrwt beam="2">0</pdfrwt>
<totfact> 0.25269121E+01</totfact>
</mgrwt>
</event>
<event>
 6    1  0.1875959E-004  0.3000000E+03  0.7818608E-02  0.1093470E+00
          1   -1    0    0  502    0  0.00000000000E+00  0.00000000000E+00  0.39391836296E+02  0.39391836296E+02  0.00000000000E+00 0.  1.
         13   -1    0    0    0    0 -0.00000000000E+00 -0.00000000000E+00 -0.10000000000E+04  0.10000000000E+04  0.00000000000E+00 0.  1.
    9000005    2    1    2  501    0  0.52514539976E+02  0.27238721146E+02 -0.88872340736E+03  0.94629434421E+03  0.31959969689E+03 0.  0.
         13    1    3    3    0    0 -0.11532027202E+03  0.31694963007E+02 -0.16767350034E+03  0.20595567129E+03  0.00000000000E+00 0.  1.
          1    1    3    3  501    0  0.16783481200E+03 -0.44562418613E+01 -0.72104990702E+03  0.74033867292E+03  0.00000000000E+00 0.  1.
         21    1    1    2  502  501 -0.52514539976E+02 -0.27238721146E+02 -0.71884756343E+02  0.93097492088E+02  0.00000000000E+00 0.  1.
<mgrwt>
<rscale>  1 0.30000000E+03</rscale>
<asrwt>0</asrwt>
<pdfrwt beam="1">  1        1 0.14324334E+00 0.30000000E+03</pdfrwt>
<pdfrwt beam="2">0</pdfrwt>
<totfact> 0.19459261E+01</totfact>
</mgrwt>
</event>
<event>
 6    1  0.1875959E-004  0.3000000E+03  0.7818608E-02  0.1093470E+00
          1   -1    0    0  502    0  0.00000000000E+00  0.00000000000E+00  0.37801784049E+02  0.37801784049E+02  0.00000000000E+00 0.  1.
         13   -1    0    0    0    0 -0.00000000000E+00 -0.00000000000E+00 -0.10000000000E+04  0.10000000000E+04  0.00000000000E+00 0.  1.
    9000005    2    1    2  501    0  0.11607502056E+02  0.94660794232E+01 -0.94964301646E+03  0.10182576341E+04  0.36715447688E+03 0.  0.
         13    1    3    3    0    0 -0.59171925522E+02  0.16840977285E+03 -0.62422626422E+03  0.64924694632E+03  0.00000000000E+00 0.  1.
          3    1    3    3  501    0  0.70779427578E+02 -0.15894369342E+03 -0.32541675223E+03  0.36901068776E+03  0.00000000000E+00 0.  1.
         21    1    1    2  502  501 -0.11607502056E+02 -0.94660794232E+01 -0.12555199494E+02  0.19544149968E+02  0.00000000000E+00 0. -1.
<mgrwt>
<rscale>  1 0.30000000E+03</rscale>
<asrwt>0</asrwt>
<pdfrwt beam="1">  1        1 0.13746132E+00 0.30000000E+03</pdfrwt>
<pdfrwt beam="2">0</pdfrwt>
<totfact> 0.20864718E+01</totfact>
</mgrwt>
</event>
<event>
 6    1  0.1875959E-004  0.3000000E+03  0.7818608E-02  0.1093470E+00
          1   -1    0    0  502    0  0.00000000000E+00  0.00000000000E+00  0.43897716815E+02  0.43897716815E+02  0.00000000000E+00 0.  1.
         13   -1    0    0    0    0 -0.00000000000E+00 -0.00000000000E+00 -0.10000000000E+04  0.10000000000E+04  0.00000000000E+00 0.  1.
    9000005    2    1    2  501    0  0.61492272293E+01 -0.17663280312E+02 -0.96862884107E+03  0.10213872944E+04  0.32348163602E+03 0.  0.
         13    1    3    3    0    0  0.21470819484E+02 -0.78540856480E+02 -0.40141087642E+02  0.90779783779E+02  0.00000000000E+00 0.  1.
          1    1    3    3  501    0 -0.15321592254E+02  0.60877576167E+02 -0.92848775343E+03  0.93060751057E+03  0.00000000000E+00 0.  1.
         21    1    1    2  502  501 -0.61492272293E+01  0.17663280312E+02  0.12526557887E+02  0.22510422461E+02  0.00000000000E+00 0.  1.
<mgrwt>
<rscale>  1 0.30000000E+03</rscale>
<asrwt>0</asrwt>
<pdfrwt beam="1">  1        1 0.15962840E+00 0.30000000E+03</pdfrwt>
<pdfrwt beam="2">0</pdfrwt>
<totfact> 0.16071238E+01</totfact>
</mgrwt>
</event>
<event>
 6    1  0.1875959E-004  0.3000000E+03  0.7818608E-02  0.1093470E+00
          1   -1    0    0  502    0  0.00000000000E+00  0.00000000000E+00  0.33748183033E+02  0.33748183033E+02  0.00000000000E+00 0.  1.
         13   -1    0    0    0    0 -0.00000000000E+00 -0.00000000000E+00 -0.10000000000E+04  0.10000000000E+04  0.00000000000E+00 0.  1.
    9000005    2    1    2  501    0  0.25046110556E+02 -0.21490936523E+02 -0.92185652383E+03  0.97842992150E+03  0.32621540851E+03 0.  0.
         13    1    3    3    0    0  0.14742010544E+03  0.79062337575E+02 -0.41665297518E+03  0.44898022500E+03  0.00000000000E+00 0.  1.
          1    1    3    3  501    0 -0.12237399489E+03 -0.10055327410E+03 -0.50520354865E+03  0.52944969650E+03  0.00000000000E+00 0.  1.
         21    1    1    2  502  501 -0.25046110556E+02  0.21490936523E+02 -0.44395293135E+02  0.55318261534E+02  0.00000000000E+00 0. -1.
<mgrwt>
<rscale>  1 0.30000000E+03</rscale>
<asrwt>0</asrwt>
<pdfrwt beam="1">  1        1 0.12272092E+00 0.30000000E+03</pdfrwt>
<pdfrwt beam="2">0</pdfrwt>
<totfact> 0.25096390E+01</totfact>
</mgrwt>
</event>
<event>
 6    1  0.1875959E-004  0.3000000E+03  0.7818608E-02  0.1093470E+00
          3   -1    0    0  502    0  0.00000000000E+00  0.00000000000E+00  0.36888965087E+02  0.36888965087E+02  0.00000000000E+00 0.  1.
         13   -1    0    0    0    0 -0.00000000000E+00 -0.00000000000E+00 -0.10000000000E+04  0.10000000000E+04  0.00000000000E+00 0.  1.
    9000005    2    1    2  501    0  0.37096907953E+01 -0.26433371112E+02 -0.95322795918E+03  0.10084256536E+04  0.32797297418E+03 0.  0.
         13    1    3    3    0    0 -0.52077741036E+02  0.22293019632E+02 -0.92866069679E+03  0.93038688705E+03  0.00000000000E+00 0.  1.
          3    1    3    3  501    0  0.55787431831E+02 -0.48726390744E+02 -0.24567262388E+02  0.78038766561E+02  0.00000000000E+00 0.  1.
         21    1    1    2  502  501 -0.37096907953E+01  0.26433371112E+02 -0.98830757349E+01  0.28463311475E+02  0.00000000000E+00 0.  1.
<mgrwt>
<rscale>  1 0.30000000E+03</rscale>
<asrwt>0</asrwt>
<pdfrwt beam="1">  1        3 0.13414197E+00 0.30000000E+03</pdfrwt>
<pdfrwt beam="2">0</pdfrwt>
<totfact> 0.15805228E+00</totfact>
</mgrwt>
</event>
<event>
 6    1  0.1875959E-004  0.3000000E+03  0.7818608E-02  0.1093470E+00
          1   -1    0    0  502    0  0.00000000000E+00  0.00000000000E+00  0.42786665226E+02  0.42786665226E+02  0.00000000000E+00 0.  1.
         13   -1    0    0    0    0 -0.00000000000E+00 -0.00000000000E+00 -0.10000000000E+04  0.10000000000E+04  0.00000000000E+00 0.  1.
    9000005    2    1    2  501    0 -0.53850834293E+02 -0.41026840068E+02 -0.87302792704E+03  0.93475751714E+03  0.32712496160E+03 0.  0.
         13    1    3    3    0    0 -0.12362037710E+03 -0.70751528071E+02 -0.84008432686E+03  0.85207361923E+03  0.00000000000E+00 0.  1.
          1    1    3    3  501    0  0.69769542810E+02  0.29724688004E+02 -0.32943600183E+02  0.82683897912E+02  0.00000000000E+00 0.  1.
         21    1    1    2  502  501  0.53850834293E+02  0.41026840068E+02 -0.84185407733E+02  0.10802914808E+03  0.00000000000E+00 0.  1.
<mgrwt>
<rscale>  1 0.30000000E+03</rscale>
<asrwt>0</asrwt>
<pdfrwt beam="1">  1        1 0.15558820E+00 0.30000000E+03</pdfrwt>
<pdfrwt beam="2">0</pdfrwt>
<totfact> 0.16835161E+01</totfact>
</mgrwt>
</event>
<event>
 6    1  0.1875959E-004  0.3000000E+03  0.7818608E-02  0.1093470E+00
          1   -1    0    0  502    0  0.00000000000E+00  0.00000000000E+00  0.34016347752E+02  0.34016347752E+02  0.00000000000E+00 0.  1.
         13   -1    0    0    0    0 -0.00000000000E+00 -0.00000000000E+00 -0.10000000000E+04  0.10000000000E+04  0.00000000000E+00 0.  1.
    9000005    2    1    2  501    0  0.60604923035E+01  0.20992012671E+02 -0.95899780459E+03  0.10110773802E+04  0.31956734105E+03 0.  0.
         13    1    3    3    0    0 -0.22387636820E+01 -0.16650104104E+01 -0.97944547956E+03  0.97944945339E+03  0.00000000000E+00 0.  1.
          1    1    3    3  501    0  0.82992559854E+01  0.22657023082E+02  0.20447674972E+02  0.31627926846E+02  0.00000000000E+00 0.  1.
         21    1    1    2  502  501 -0.60604923035E+01 -0.20992012671E+02 -0.69858476601E+01  0.22938967511E+02  0.00000000000E+00 0.  1.
<mgrwt>
<rscale>  1 0.30000000E+03</rscale>
<asrwt>0</asrwt>
<pdfrwt beam="1">  1        1 0.12369607E+00 0.30000000E+03</pdfrwt>
<pdfrwt beam="2">0</pdfrwt>
<totfact> 0.24783941E+01</totfact>
</mgrwt>
</event>
<event>
 6    1  0.1875959E-004  0.3000000E+03  0.7818608E-02  0.1093470E+00
          1   -1    0    0  502    0  0.00000000000E+00  0.00000000000E+00  0.28628476025E+02  0.28628476025E+02  0.00000000000E+00 0.  1.
         13   -1    0    0    0    0 -0.00000000000E+00 -0.00000000000E+00 -0.10000000000E+04  0.10000000000E+04  0.00000000000E+00 0.  1.
    9000005    2    1    2  501    0  0.13696642027E+02  0.36493861244E+01 -0.94364925210E+03  0.99749263848E+03  0.32298101617E+03 0.  0.
         13    1    3    3    0    0  0.66278428545E+02 -0.14665932040E+03 -0.40525805839E+03  0.43604573182E+03  0.00000000000E+00 0.  1.
          1    1    3    3  501    0 -0.52581786518E+02  0.15030870652E+03 -0.53839119371E+03  0.56144690666E+03  0.00000000000E+00 0.  1.
         21    1    1    2  502  501 -0.13696642027E+02 -0.36493861244E+01 -0.27722271874E+02  0.31135837547E+02  0.00000000000E+00 0. -1.
<mgrwt>
<rscale>  1 0.30000000E+03</rscale>
<asrwt>0</asrwt>
<pdfrwt beam="1">  1        1 0.10410377E+00 0.30000000E+03</pdfrwt>
<pdfrwt beam="2">0</pdfrwt>
<totfact> 0.32260265E+01</totfact>
</mgrwt>
</event>
<event>
 6    1  0.1875959E-004  0.3000000E+03  0.7818608E-02  0.1093470E+00
          1   -1    0    0  502    0  0.00000000000E+00  0.00000000000E+00  0.33436181549E+02  0.33436181549E+02  0.00000000000E+00 0.  1.
         13   -1    0    0    0    0 -0.00000000000E+00 -0.00000000000E+00 -0.10000000000E+04  0.10000000000E+04  0.00000000000E+00 0.  1.
    9000005    2    1    2  501    0 -0.16971415780E+01  0.18219876711E+02 -0.96716279145E+03  0.10151276326E+04  0.30780740904E+03 0.  0.
         13    1    3    3    0    0  0.21874970105E+02 -0.12037267421E+03 -0.19449399618E+03  0.22977382262E+03  0.00000000000E+00 0.  1.
          3    1    3    3  501    0 -0.23572111683E+02  0.13859255092E+03 -0.77266879527E+03  0.78535380995E+03  0.00000000000E+00 0.  1.
         21    1    1    2  502  501  0.16971415780E+01 -0.18219876711E+02  0.59897299682E+00  0.18308548975E+02  0.00000000000E+00 0.  1.
<mgrwt>
<rscale>  1 0.30000000E+03</rscale>
<asrwt>0</asrwt>
<pdfrwt beam="1">  1        1 0.12158637E+00 0.30000000E+03</pdfrwt>
<pdfrwt beam="2">0</pdfrwt>
<totfact> 0.25466427E+01</totfact>
</mgrwt>
</event>
<event>
 6    1  0.1875959E-004  0.3000000E+03  0.7818608E-02  0.1093470E+00
          1   -1    0    0  502    0  0.00000000000E+00  0.00000000000E+00  0.32731825205E+02  0.32731825205E+02  0.00000000000E+00 0.  1.
         13   -1    0    0    0    0 -0.00000000000E+00 -0.00000000000E+00 -0.10000000000E+04  0.10000000000E+04  0.00000000000E+00 0.  1.
    9000005    2    1    2  501    0  0.27011866920E+02 -0.14724592253E+02 -0.88551891592E+03  0.94538541201E+03  0.32964127808E+03 0.  0.
         13    1    3    3    0    0  0.11875389213E+03  0.11372276855E+03 -0.34306309195E+03  0.38043086106E+03  0.00000000000E+00 0.  1.
          3    1    3    3  501    0 -0.91742025207E+02 -0.12844736081E+03 -0.54245582397E+03  0.56495455096E+03  0.00000000000E+00 0.  1.
         21    1    1    2  502  501 -0.27011866920E+02  0.14724592253E+02 -0.81749258871E+02  0.87346413192E+02  0.00000000000E+00 0.  1.
<mgrwt>
<rscale>  1 0.30000000E+03</rscale>
<asrwt>0</asrwt>
<pdfrwt beam="1">  1        1 0.11902507E+00 0.30000000E+03</pdfrwt>
<pdfrwt beam="2">0</pdfrwt>
<totfact> 0.26328820E+01</totfact>
</mgrwt>
</event>
<event>
 6    1  0.1875959E-004  0.3000000E+03  0.7818608E-02  0.1093470E+00
          1   -1    0    0  502    0  0.00000000000E+00  0.00000000000E+00  0.47787084636E+02  0.47787084636E+02  0.00000000000E+00 0.  1.
         13   -1    0    0    0    0 -0.00000000000E+00 -0.00000000000E+00 -0.10000000000E+04  0.10000000000E+04  0.00000000000E+00 0.  1.
    9000005    2    1    2  501    0 -0.12161878877E+02 -0.41548521947E+01 -0.96606884348E+03  0.10288883852E+04  0.35377552892E+03 0.  0.
         13    1    3    3    0    0  0.47570115843E+02 -0.22729255098E+02 -0.96488456904E+03  0.96632384144E+03  0.00000000000E+00 0.  1.
          1    1    3    3  501    0 -0.59731994720E+02  0.18574402903E+02 -0.11842744386E+01  0.62564543811E+02  0.00000000000E+00 0.  1.
         21    1    1    2  502  501  0.12161878877E+02  0.41548521947E+01  0.13855928116E+02  0.18898699387E+02  0.00000000000E+00 0.  1.
<mgrwt>
<rscale>  1 0.30000000E+03</rscale>
<asrwt>0</asrwt>
<pdfrwt beam="1">  1        1 0.17377158E+00 0.30000000E+03</pdfrwt>
<pdfrwt beam="2">0</pdfrwt>
<totfact> 0.13694916E+01</totfact>
</mgrwt>
</event>
<event>
 6    1  0.1875959E-004  0.3000000E+03  0.7818608E-02  0.1093470E+00
          1   -1    0    0  502    0  0.00000000000E+00  0.00000000000E+00  0.30707231825E+02  0.30707231825E+02  0.00000000000E+00 0.  1.
         13   -1    0    0    0    0 -0.00000000000E+00 -0.00000000000E+00 -0.10000000000E+04  0.10000000000E+04  0.00000000000E+00 0.  1.
    9000005    2    1    2  501    0 -0.54081439373E+01 -0.86504827071E+01 -0.96168204895E+03  0.10179792344E+04  0.33368440101E+03 0.  0.
         13    1    3    3    0    0 -0.41441624885E+02  0.79305018713E+02 -0.52300601241E+02  0.10364384765E+03  0.00000000000E+00 0.  1.
          1    1    3    3  501    0  0.36033480947E+02 -0.87955501420E+02 -0.90938144771E+03  0.91433538672E+03  0.00000000000E+00 0.  1.
         21    1    1    2  502  501  0.54081439373E+01  0.86504827071E+01 -0.76107192246E+01  0.12727997448E+02  0.00000000000E+00 0.  1.
<mgrwt>
<rscale>  1 0.30000000E+03</rscale>
<asrwt>0</asrwt>
<pdfrwt beam="1">  1        1 0.11166290E+00 0.30000000E+03</pdfrwt>
<pdfrwt beam="2">0</pdfrwt>
<totfact> 0.29042418E+01</totfact>
</mgrwt>
</event>
<event>
 6    1  0.1875959E-004  0.3000000E+03  0.7818608E-02  0.1093470E+00
          1   -1    0    0  502    0  0.00000000000E+00  0.00000000000E+00  0.44624543194E+02  0.44624543194E+02  0.00000000000E+00 0.  1.
         13   -1    0    0    0    0 -0.00000000000E+00 -0.00000000000E+00 -0.10000000000E+04  0.10000000000E+04  0.00000000000E+00 0.  1.
    9000005    2    1    2  501    0  0.91619481855E+02  0.50428299194E+02 -0.86200317211E+03  0.90442637500E+03  0.25298311457E+03 0.  0.
         13    1    3    3    0    0 -0.76988254689E+02  0.46318813409E+02 -0.17133855057E+03  0.19346711025E+03  0.00000000000E+00 0.  1.
          1    1    3    3  501    0  0.16860773654E+03  0.41094857858E+01 -0.69066462154E+03  0.71095926476E+03  0.00000000000E+00 0.  1.
         21    1    1    2  502  501 -0.91619481855E+02 -0.50428299194E+02 -0.93372284698E+02  0.14019816819E+03  0.00000000000E+00 0.  1.
<mgrwt>
<rscale>  1 0.30000000E+03</rscale>
<asrwt>0</asrwt>
<pdfrwt beam="1">  1        1 0.16227141E+00 0.30000000E+03</pdfrwt>
<pdfrwt beam="2">0</pdfrwt>
<totfact> 0.15593453E+01</totfact>
</mgrwt>
</event>
<event>
 6    1  0.1875959E-004  0.3000000E+03  0.7818608E-02  0.1093470E+00
          1   -1    0    0  502    0  0.00000000000E+00  0.00000000000E+00  0.46168900884E+02  0.46168900884E+02  0.00000000000E+00 0.  1.
         13   -1    0    0    0    0 -0.00000000000E+00 -0.00000000000E+00 -0.10000000000E+04  0.10000000000E+04  0.00000000000E+00 0.  1.
    9000005    2    1    2  501    0  0.14705836804E+02 -0.17713699825E+02 -0.96421875763E+03  0.10209114219E+04  0.33468235973E+03 0.  0.
         13    1    3    3    0    0  0.13381611962E+03 -0.20342018432E+02 -0.16758864345E+03  0.21542169111E+03  0.00000000000E+00 0.  1.
          1    1    3    3  501    0 -0.11911028282E+03  0.26283186071E+01 -0.79663011417E+03  0.80548973075E+03  0.00000000000E+00 0.  1.
         21    1    1    2  502  501 -0.14705836804E+02  0.17713699825E+02  0.10387658512E+02  0.25257479030E+02  0.00000000000E+00 0.  1.
<mgrwt>
<rscale>  1 0.30000000E+03</rscale>
<asrwt>0</asrwt>
<pdfrwt beam="1">  1        1 0.16788727E+00 0.30000000E+03</pdfrwt>
<pdfrwt beam="2">0</pdfrwt>
<totfact> 0.14631485E+01</totfact>
</mgrwt>
</event>
<event>
 6    1  0.1875959E-004  0.3000000E+03  0.7818608E-02  0.1093470E+00
          1   -1    0    0  502    0  0.00000000000E+00  0.00000000000E+00  0.29424432253E+02  0.29424432253E+02  0.00000000000E+00 0.  1.
         13   -1    0    0    0    0 -0.00000000000E+00 -0.00000000000E+00 -0.10000000000E+04  0.10000000000E+04  0.00000000000E+00 0.  1.
    9000005    2    1    2  501    0  0.11347594734E+02 -0.80469693923E+01 -0.95724399978E+03  0.10101565230E+04  0.32234547339E+03 0.  0.
         13    1    3    3    0    0  0.71322574617E+02 -0.14783468457E+03 -0.39612267692E+03  0.42878337046E+03  0.00000000000E+00 0.  1.
          1    1    3    3  501    0 -0.59974979883E+02  0.13978771517E+03 -0.56112132286E+03  0.58137315254E+03  0.00000000000E+00 0.  1.
         21    1    1    2  502  501 -0.11347594734E+02  0.80469693923E+01 -0.13331567966E+02  0.19267909255E+02  0.00000000000E+00 0.  1.
<mgrwt>
<rscale>  1 0.30000000E+03</rscale>
<asrwt>0</asrwt>
<pdfrwt beam="1">  1        1 0.10699816E+00 0.30000000E+03</pdfrwt>
<pdfrwt beam="2">0</pdfrwt>
<totfact> 0.30970490E+01</totfact>
</mgrwt>
</event>
<event>
 6    1  0.1875959E-004  0.3000000E+03  0.7818608E-02  0.1093470E+00
          1   -1    0    0  502    0  0.00000000000E+00  0.00000000000E+00  0.29948914019E+02  0.29948914019E+02  0.00000000000E+00 0.  1.
         13   -1    0    0    0    0 -0.00000000000E+00 -0.00000000000E+00 -0.10000000000E+04  0.10000000000E+04  0.00000000000E+00 0.  1.
    9000005    2    1    2  501    0 -0.59617614631E+01  0.83219583365E+01 -0.96495308961E+03  0.10185126927E+04  0.32577422016E+03 0.  0.
         13    1    3    3    0    0 -0.19546206973E+02  0.16270241240E+03 -0.38978705289E+03  0.42283339013E+03  0.00000000000E+00 0.  1.
          1    1    3    3  501    0  0.13584445510E+02 -0.15438045406E+03 -0.57516603671E+03  0.59567930260E+03  0.00000000000E+00 0.  1.
         21    1    1    2  502  501  0.59617614631E+01 -0.83219583365E+01 -0.50979963730E+01  0.11436221287E+02  0.00000000000E+00 0.  1.
<mgrwt>
<rscale>  1 0.30000000E+03</rscale>
<asrwt>0</asrwt>
<pdfrwt beam="1">  1        1 0.10890537E+00 0.30000000E+03</pdfrwt>
<pdfrwt beam="2">0</pdfrwt>
<totfact> 0.30160780E+01</totfact>
</mgrwt>
</event>
<event>
 6    1  0.1875959E-004  0.3000000E+03  0.7818608E-02  0.1093470E+00
          1   -1    0    0  502    0  0.00000000000E+00  0.00000000000E+00  0.21299182573E+02  0.21299182573E+02  0.00000000000E+00 0.  1.
         13   -1    0    0    0    0 -0.00000000000E+00 -0.00000000000E+00 -0.10000000000E+04  0.10000000000E+04  0.00000000000E+00 0.  1.
    9000005    2    1    2  501    0 -0.16325653998E+02  0.10636051352E+02 -0.91214427772E+03  0.95194916062E+03  0.27169904024E+03 0.  0.
         13    1    3    3    0    0  0.12164519872E+03 -0.17556303737E+02 -0.30816056016E+03  0.33176604560E+03  0.00000000000E+00 0.  1.
          3    1    3    3  501    0 -0.13797085272E+03  0.28192355089E+02 -0.60398371756E+03  0.62018311503E+03  0.00000000000E+00 0.  1.
         21    1    1    2  502  501  0.16325653998E+02 -0.10636051352E+02 -0.66556539706E+02  0.69350021950E+02  0.00000000000E+00 0. -1.
<mgrwt>
<rscale>  1 0.30000000E+03</rscale>
<asrwt>0</asrwt>
<pdfrwt beam="1">  1        1 0.77451736E-01 0.30000000E+03</pdfrwt>
<pdfrwt beam="2">0</pdfrwt>
<totfact> 0.49109611E+01</totfact>
</mgrwt>
</event>
<event>
 6    1  0.1875959E-004  0.3000000E+03  0.7818608E-02  0.1093470E+00
          1   -1    0    0  502    0  0.00000000000E+00  0.00000000000E+00  0.42017189989E+02  0.42017189989E+02  0.00000000000E+00 0.  1.
         13   -1    0    0    0    0 -0.00000000000E+00 -0.00000000000E+00 -0.10000000000E+04  0.10000000000E+04  0.00000000000E+00 0.  1.
    9000005    2    1    2  501    0 -0.79866728483E+02 -0.73367818071E+01 -0.79660293019E+03  0.86180623500E+03  0.31890631166E+03 0.  0.
         13    1    3    3    0    0 -0.73778933829E+02  0.15086550989E+03 -0.35603554751E+03  0.39365599734E+03  0.00000000000E+00 0.  1.
          3    1    3    3  501    0 -0.60877946539E+01 -0.15820229170E+03 -0.44056738267E+03  0.46815023766E+03  0.00000000000E+00 0.  1.
         21    1    1    2  502  501  0.79866728483E+02  0.73367818071E+01 -0.16137987982E+03  0.18021095499E+03  0.00000000000E+00 0. -1.
<mgrwt>
<rscale>  1 0.30000000E+03</rscale>
<asrwt>0</asrwt>
<pdfrwt beam="1">  1        1 0.15279010E+00 0.30000000E+03</pdfrwt>
<pdfrwt beam="2">0</pdfrwt>
<totfact> 0.17389702E+01</totfact>
</mgrwt>
</event>
<event>
 6    1  0.1875959E-004  0.3000000E+03  0.7818608E-02  0.1093470E+00
          1   -1    0    0  502    0  0.00000000000E+00  0.00000000000E+00  0.64018628438E+02  0.64018628438E+02  0.00000000000E+00 0.  1.
         13   -1    0    0    0    0 -0.00000000000E+00 -0.00000000000E+00 -0.10000000000E+04  0.10000000000E+04  0.00000000000E+00 0.  1.
    9000005    2    1    2  501    0 -0.33870960935E+02 -0.35129492988E+02 -0.95739796498E+03  0.10107270367E+04  0.32027637467E+03 0.  0.
         13    1    3    3    0    0  0.17830674427E+02  0.10429183805E+03 -0.73886046016E+03  0.74639768222E+03  0.00000000000E+00 0.  1.
          3    1    3    3  501    0 -0.51701635363E+02 -0.13942133104E+03 -0.21853750481E+03  0.26432935451E+03  0.00000000000E+00 0.  1.
         21    1    1    2  502  501  0.33870960935E+02  0.35129492988E+02  0.21416593417E+02  0.53291591700E+02  0.00000000000E+00 0.  1.
<mgrwt>
<rscale>  1 0.30000000E+03</rscale>
<asrwt>0</asrwt>
<pdfrwt beam="1">  1        1 0.23279550E+00 0.30000000E+03</pdfrwt>
<pdfrwt beam="2">0</pdfrwt>
<totfact> 0.71807899E+00</totfact>
</mgrwt>
</event>
<event>
 6    1  0.1875959E-004  0.3000000E+03  0.7818608E-02  0.1093470E+00
          1   -1    0    0  502    0  0.00000000000E+00  0.00000000000E+00  0.35216426127E+02  0.35216426127E+02  0.00000000000E+00 0.  1.
         13   -1    0    0    0    0 -0.00000000000E+00 -0.00000000000E+00 -0.10000000000E+04  0.10000000000E+04  0.00000000000E+00 0.  1.
    9000005    2    1    2  501    0 -0.49664441241E+01 -0.97622357680E+01 -0.96720030719E+03  0.10240000357E+04  0.33612448893E+03 0.  0.
         13    1    3    3    0    0 -0.59771420171E+02 -0.16143099517E+03 -0.43210357637E+03  0.46513018562E+03  0.00000000000E+00 0.  1.
          1    1    3    3  501    0  0.54804976047E+02  0.15166875940E+03 -0.53509673083E+03  0.55886985007E+03  0.00000000000E+00 0.  1.
         21    1    1    2  502  501  0.49664441241E+01  0.97622357680E+01  0.24167333184E+01  0.11216390434E+02  0.00000000000E+00 0.  1.
<mgrwt>
<rscale>  1 0.30000000E+03</rscale>
<asrwt>0</asrwt>
<pdfrwt beam="1">  1        1 0.12806000E+00 0.30000000E+03</pdfrwt>
<pdfrwt beam="2">0</pdfrwt>
<totfact> 0.23445150E+01</totfact>
</mgrwt>
</event>
<event>
 6    1  0.1875959E-004  0.3000000E+03  0.7818608E-02  0.1093470E+00
          1   -1    0    0  502    0  0.00000000000E+00  0.00000000000E+00  0.32368063692E+02  0.32368063692E+02  0.00000000000E+00 0.  1.
         13   -1    0    0    0    0 -0.00000000000E+00 -0.00000000000E+00 -0.10000000000E+04  0.10000000000E+04  0.00000000000E+00 0.  1.
    9000005    2    1    2  501    0 -0.40578092968E-01 -0.18746603840E+02 -0.95404242950E+03  0.10092139820E+04  0.32857946900E+03 0.  0.
         13    1    3    3    0    0  0.96684509229E+02 -0.91242153687E+02 -0.16950021042E+03  0.21541435947E+03  0.00000000000E+00 0.  1.
          3    1    3    3  501    0 -0.96725087322E+02  0.72495549847E+02 -0.78454221908E+03  0.79379962256E+03  0.00000000000E+00 0.  1.
         21    1    1    2  502  501  0.40578092968E-01  0.18746603840E+02 -0.13589506812E+02  0.23154081660E+02  0.00000000000E+00 0. -1.
<mgrwt>
<rscale>  1 0.30000000E+03</rscale>
<asrwt>0</asrwt>
<pdfrwt beam="1">  1        1 0.11770230E+00 0.30000000E+03</pdfrwt>
<pdfrwt beam="2">0</pdfrwt>
<totfact> 0.26789644E+01</totfact>
</mgrwt>
</event>
<event>
 6    1  0.1875959E-004  0.3000000E+03  0.7818608E-02  0.1093470E+00
          3   -1    0    0  502    0  0.00000000000E+00  0.00000000000E+00  0.35739466277E+02  0.35739466277E+02  0.00000000000E+00 0.  1.
         13   -1    0    0    0    0 -0.00000000000E+00 -0.00000000000E+00 -0.10000000000E+04  0.10000000000E+04  0.00000000000E+00 0.  1.
    9000005    2    1    2  501    0  0.21189109017E+02 -0.73494319689E+00 -0.96268909704E+03  0.10144794593E+04  0.31929415488E+03 0.  0.
         13    1    3    3    0    0  0.14466836159E+03 -0.72332352223E+02 -0.66432147998E+03  0.68372796695E+03  0.00000000000E+00 0.  1.
          1    1    3    3  501    0 -0.12347925258E+03  0.71597409026E+02 -0.29836761707E+03  0.33075149238E+03  0.00000000000E+00 0.  1.
         21    1    1    2  502  501 -0.21189109017E+02  0.73494319689E+00 -0.15714366786E+01  0.21260006953E+02  0.00000000000E+00 0.  1.
<mgrwt>
<rscale>  1 0.30000000E+03</rscale>
<asrwt>0</asrwt>
<pdfrwt beam="1">  1        3 0.12996197E+00 0.30000000E+03</pdfrwt>
<pdfrwt beam="2">0</pdfrwt>
<totfact> 0.17712199E+00</totfact>
</mgrwt>
</event>
<event>
 6    1  0.1875959E-004  0.3000000E+03  0.7818608E-02  0.1093470E+00
          1   -1    0    0  502    0  0.00000000000E+00  0.00000000000E+00  0.30717231317E+02  0.30717231317E+02  0.00000000000E+00 0.  1.
         13   -1    0    0    0    0 -0.00000000000E+00 -0.00000000000E+00 -0.10000000000E+04  0.10000000000E+04  0.00000000000E+00 0.  1.
    9000005    2    1    2  501    0 -0.77357859185E+01 -0.13010518467E+02 -0.96774585042E+03  0.10155028272E+04  0.30738387253E+03 0.  0.
         13    1    3    3    0    0 -0.84332956796E+02 -0.13747498332E+03 -0.48415758637E+03  0.51031361640E+03  0.00000000000E+00 0.  1.
          1    1    3    3  501    0  0.76597170877E+02  0.12446446485E+03 -0.48358826405E+03  0.50518921081E+03  0.00000000000E+00 0.  1.
         21    1    1    2  502  501  0.77357859185E+01  0.13010518467E+02 -0.15369182625E+01  0.15214404106E+02  0.00000000000E+00 0.  1.
<mgrwt>
<rscale>  1 0.30000000E+03</rscale>
<asrwt>0</asrwt>
<pdfrwt beam="1">  1        1 0.11169926E+00 0.30000000E+03</pdfrwt>
<pdfrwt beam="2">0</pdfrwt>
<totfact> 0.29028066E+01</totfact>
</mgrwt>
</event>
<event>
 6    1  0.1875959E-004  0.3000000E+03  0.7818608E-02  0.1093470E+00
          1   -1    0    0  502    0  0.00000000000E+00  0.00000000000E+00  0.29090274754E+02  0.29090274754E+02  0.00000000000E+00 0.  1.
         13   -1    0    0    0    0 -0.00000000000E+00 -0.00000000000E+00 -0.10000000000E+04  0.10000000000E+04  0.00000000000E+00 0.  1.
    9000005    2    1    2  501    0  0.40112277181E+01 -0.72941788539E+01 -0.94425743297E+03  0.10011682462E+04  0.33263563032E+03 0.  0.
         13    1    3    3    0    0  0.11671710623E+03 -0.99698921596E+02 -0.70085161099E+03  0.71746479948E+03  0.00000000000E+00 0.  1.
          1    1    3    3  501    0 -0.11270587851E+03  0.92404742742E+02 -0.24340582197E+03  0.28370344676E+03  0.00000000000E+00 0.  1.
         21    1    1    2  502  501 -0.40112277181E+01  0.72941788539E+01 -0.26652292277E+02  0.27922028519E+02  0.00000000000E+00 0.  1.
<mgrwt>
<rscale>  1 0.30000000E+03</rscale>
<asrwt>0</asrwt>
<pdfrwt beam="1">  1        1 0.10578304E+00 0.30000000E+03</pdfrwt>
<pdfrwt beam="2">0</pdfrwt>
<totfact> 0.31502730E+01</totfact>
</mgrwt>
</event>
<event>
 6    1  0.1875959E-004  0.3000000E+03  0.7818608E-02  0.1093470E+00
          1   -1    0    0  502    0  0.00000000000E+00  0.00000000000E+00  0.50211579690E+02  0.50211579690E+02  0.00000000000E+00 0.  1.
         13   -1    0    0    0    0 -0.00000000000E+00 -0.00000000000E+00 -0.10000000000E+04  0.10000000000E+04  0.00000000000E+00 0.  1.
    9000005    2    1    2  501    0  0.46225713953E+02 -0.26720837470E+02 -0.86655917934E+03  0.95132818201E+03  0.38890831669E+03 0.  0.
         13    1    3    3    0    0 -0.22274428594E+01 -0.13640723612E+03 -0.80511296213E+03  0.81658972401E+03  0.00000000000E+00 0.  1.
          1    1    3    3  501    0  0.48453156812E+02  0.10968639865E+03 -0.61446217218E+02  0.13473845800E+03  0.00000000000E+00 0.  1.
         21    1    1    2  502  501 -0.46225713953E+02  0.26720837470E+02 -0.83229240966E+02  0.98883397683E+02  0.00000000000E+00 0.  1.
<mgrwt>
<rscale>  1 0.30000000E+03</rscale>
<asrwt>0</asrwt>
<pdfrwt beam="1">  1        1 0.18258795E+00 0.30000000E+03</pdfrwt>
<pdfrwt beam="2">0</pdfrwt>
<totfact> 0.12412006E+01</totfact>
</mgrwt>
</event>
<event>
 6    1  0.1875959E-004  0.3000000E+03  0.7818608E-02  0.1093470E+00
          1   -1    0    0  502    0  0.00000000000E+00  0.00000000000E+00  0.31139120668E+02  0.31139120668E+02  0.00000000000E+00 0.  1.
         13   -1    0    0    0    0 -0.00000000000E+00 -0.00000000000E+00 -0.10000000000E+04  0.10000000000E+04  0.00000000000E+00 0.  1.
    9000005    2    1    2  501    0 -0.12454240002E+02  0.17569489456E+02 -0.93320920968E+03  0.98948775091E+03  0.32824196123E+03 0.  0.
         13    1    3    3    0    0  0.14031114381E+02 -0.14119505206E+03 -0.24889708240E+03  0.28650073739E+03  0.00000000000E+00 0.  1.
          1    1    3    3  501    0 -0.26485354383E+02  0.15876454151E+03 -0.68431212728E+03  0.70298701352E+03  0.00000000000E+00 0.  1.
         21    1    1    2  502  501  0.12454240002E+02 -0.17569489456E+02 -0.35651669652E+02  0.41651369758E+02  0.00000000000E+00 0. -1.
<mgrwt>
<rscale>  1 0.30000000E+03</rscale>
<asrwt>0</asrwt>
<pdfrwt beam="1">  1        1 0.11323340E+00 0.30000000E+03</pdfrwt>
<pdfrwt beam="2">0</pdfrwt>
<totfact> 0.28431599E+01</totfact>
</mgrwt>
</event>
<event>
 6    1  0.1875959E-004  0.3000000E+03  0.7818608E-02  0.1093470E+00
          1   -1    0    0  502    0  0.00000000000E+00  0.00000000000E+00  0.51612295832E+02  0.51612295832E+02  0.00000000000E+00 0.  1.
         13   -1    0    0    0    0 -0.00000000000E+00 -0.00000000000E+00 -0.10000000000E+04  0.10000000000E+04  0.00000000000E+00 0.  1.
    9000005    2    1    2  501    0  0.11051147969E+02  0.30175416467E+01 -0.97203456375E+03  0.10253366912E+04  0.32608726412E+03 0.  0.
         13    1    3    3    0    0  0.90125691627E+02 -0.67475100922E+02 -0.87329146977E+03  0.88051889287E+03  0.00000000000E+00 0.  1.
          1    1    3    3  501    0 -0.79074543658E+02  0.70492642569E+02 -0.98743093985E+02  0.14481779836E+03  0.00000000000E+00 0.  1.
         21    1    1    2  502  501 -0.11051147969E+02 -0.30175416467E+01  0.23646859585E+02  0.26275604603E+02  0.00000000000E+00 0.  1.
<mgrwt>
<rscale>  1 0.30000000E+03</rscale>
<asrwt>0</asrwt>
<pdfrwt beam="1">  1        1 0.18768147E+00 0.30000000E+03</pdfrwt>
<pdfrwt beam="2">0</pdfrwt>
<totfact> 0.11730938E+01</totfact>
</mgrwt>
</event>
<event>
 6    1  0.1875959E-004  0.3000000E+03  0.7818608E-02  0.1093470E+00
          1   -1    0    0  502    0  0.00000000000E+00  0.00000000000E+00  0.32278947017E+02  0.32278947017E+02  0.00000000000E+00 0.  1.
         13   -1    0    0    0    0 -0.00000000000E+00 -0.00000000000E+00 -0.10000000000E+04  0.10000000000E+04  0.00000000000E+00 0.  1.
    9000005    2    1    2  501    0 -0.15036357420E+02 -0.18038319433E+02 -0.94848931678E+03  0.10019254845E+04  0.32198015363E+03 0.  0.
         13    1    3    3    0    0  0.11886558788E+03  0.72513828701E+02 -0.62469963554E+03  0.64002884152E+03  0.00000000000E+00 0.  1.
          3    1    3    3  501    0 -0.13390194530E+03 -0.90552148134E+02 -0.32378968125E+03  0.36189664293E+03  0.00000000000E+00 0.  1.
         21    1    1    2  502  501  0.15036357420E+02  0.18038319433E+02 -0.19231736201E+02  0.30353462566E+02  0.00000000000E+00 0. -1.
<mgrwt>
<rscale>  1 0.30000000E+03</rscale>
<asrwt>0</asrwt>
<pdfrwt beam="1">  1        1 0.11737824E+00 0.30000000E+03</pdfrwt>
<pdfrwt beam="2">0</pdfrwt>
<totfact> 0.26904217E+01</totfact>
</mgrwt>
</event>
<event>
 6    1  0.1875959E-004  0.3000000E+03  0.7818608E-02  0.1093470E+00
          1   -1    0    0  502    0  0.00000000000E+00  0.00000000000E+00  0.35915430097E+02  0.35915430097E+02  0.00000000000E+00 0.  1.
         13   -1    0    0    0    0 -0.00000000000E+00 -0.00000000000E+00 -0.10000000000E+04  0.10000000000E+04  0.00000000000E+00 0.  1.
    9000005    2    1    2  501    0  0.18850183139E+00  0.21928895356E+02 -0.95993890342E+03  0.10135973089E+04  0.32467813949E+03 0.  0.
         13    1    3    3    0    0 -0.11093219516E+03 -0.90826130450E+02 -0.64935966347E+03  0.66499872965E+03  0.00000000000E+00 0.  1.
          3    1    3    3  501    0  0.11112069700E+03  0.11275502581E+03 -0.31057923995E+03  0.34859857922E+03  0.00000000000E+00 0.  1.
         21    1    1    2  502  501 -0.18850183139E+00 -0.21928895356E+02 -0.41456664830E+01  0.22318121227E+02  0.00000000000E+00 0.  1.
<mgrwt>
<rscale>  1 0.30000000E+03</rscale>
<asrwt>0</asrwt>
<pdfrwt beam="1">  1        1 0.13060184E+00 0.30000000E+03</pdfrwt>
<pdfrwt beam="2">0</pdfrwt>
<totfact> 0.22707986E+01</totfact>
</mgrwt>
</event>
<event>
 6    1  0.1875959E-004  0.3000000E+03  0.7818608E-02  0.1093470E+00
          3   -1    0    0  502    0  0.00000000000E+00  0.00000000000E+00  0.24394111254E+02  0.24394111254E+02  0.00000000000E+00 0.  1.
         13   -1    0    0    0    0 -0.00000000000E+00 -0.00000000000E+00 -0.10000000000E+04  0.10000000000E+04  0.00000000000E+00 0.  1.
    9000005    2    1    2  501    0 -0.76964927294E+01 -0.97813919696E+01 -0.96346137285E+03  0.10070044334E+04  0.29265201229E+03 0.  0.
         13    1    3    3    0    0 -0.85528813128E+02 -0.11221854490E+03 -0.30449556202E+03  0.33559756701E+03  0.00000000000E+00 0.  1.
          1    1    3    3  501    0  0.77832320399E+02  0.10243715293E+03 -0.65896581083E+03  0.67140686640E+03  0.00000000000E+00 0.  1.
         21    1    1    2  502  501  0.76964927294E+01  0.97813919696E+01 -0.12144515893E+02  0.17389677842E+02  0.00000000000E+00 0.  1.
<mgrwt>
<rscale>  1 0.30000000E+03</rscale>
<asrwt>0</asrwt>
<pdfrwt beam="1">  1        3 0.88706046E-01 0.30000000E+03</pdfrwt>
<pdfrwt beam="2">0</pdfrwt>
<totfact> 0.52826006E+00</totfact>
</mgrwt>
</event>
<event>
 6    1  0.1875959E-004  0.3000000E+03  0.7818608E-02  0.1093470E+00
          1   -1    0    0  502    0  0.00000000000E+00  0.00000000000E+00  0.44911749027E+02  0.44911749027E+02  0.00000000000E+00 0.  1.
         13   -1    0    0    0    0 -0.00000000000E+00 -0.00000000000E+00 -0.10000000000E+04  0.10000000000E+04  0.00000000000E+00 0.  1.
    9000005    2    1    2  501    0 -0.98641238608E+01 -0.12818596521E+02 -0.96918374631E+03  0.10234571378E+04  0.32845967995E+03 0.  0.
         13    1    3    3    0    0 -0.26302095397E+01 -0.39395432609E+02 -0.98883428004E+03  0.98962222666E+03  0.00000000000E+00 0.  1.
          1    1    3    3  501    0 -0.72339143211E+01  0.26576836088E+02  0.19650533732E+02  0.33834911095E+02  0.00000000000E+00 0.  1.
         21    1    1    2  502  501  0.98641238608E+01  0.12818596521E+02  0.14095495333E+02  0.21454611276E+02  0.00000000000E+00 0.  1.
<mgrwt>
<rscale>  1 0.30000000E+03</rscale>
<asrwt>0</asrwt>
<pdfrwt beam="1">  1        1 0.16331580E+00 0.30000000E+03</pdfrwt>
<pdfrwt beam="2">0</pdfrwt>
<totfact> 0.15409198E+01</totfact>
</mgrwt>
</event>
<event>
 6    1  0.1875959E-004  0.3000000E+03  0.7818608E-02  0.1093470E+00
          1   -1    0    0  502    0  0.00000000000E+00  0.00000000000E+00  0.31409352452E+02  0.31409352452E+02  0.00000000000E+00 0.  1.
         13   -1    0    0    0    0 -0.00000000000E+00 -0.00000000000E+00 -0.10000000000E+04  0.10000000000E+04  0.00000000000E+00 0.  1.
    9000005    2    1    2  501    0  0.43644225078E+01 -0.87136949620E+01 -0.96000295913E+03  0.10184199315E+04  0.33982127468E+03 0.  0.
         13    1    3    3    0    0 -0.10578586972E+03  0.74045747055E+02 -0.15512237069E+03  0.20183253647E+03  0.00000000000E+00 0.  1.
          3    1    3    3  501    0  0.11015029222E+03 -0.82759442017E+02 -0.80488058843E+03  0.81658739505E+03  0.00000000000E+00 0.  1.
         21    1    1    2  502  501 -0.43644225078E+01  0.87136949620E+01 -0.85876884215E+01  0.12989420932E+02  0.00000000000E+00 0. -1.
<mgrwt>
<rscale>  1 0.30000000E+03</rscale>
<asrwt>0</asrwt>
<pdfrwt beam="1">  1        1 0.11421607E+00 0.30000000E+03</pdfrwt>
<pdfrwt beam="2">0</pdfrwt>
<totfact> 0.28058686E+01</totfact>
</mgrwt>
</event>
<event>
 6    1  0.1875959E-004  0.3000000E+03  0.7818608E-02  0.1093470E+00
          1   -1    0    0  502    0  0.00000000000E+00  0.00000000000E+00  0.30382791700E+02  0.30382791700E+02  0.00000000000E+00 0.  1.
         13   -1    0    0    0    0 -0.00000000000E+00 -0.00000000000E+00 -0.10000000000E+04  0.10000000000E+04  0.00000000000E+00 0.  1.
    9000005    2    1    2  501    0 -0.10365504941E+02 -0.20198043322E+02 -0.92679722576E+03  0.98191676698E+03  0.32356148561E+03 0.  0.
         13    1    3    3    0    0 -0.58494541103E+02  0.13200125347E+03 -0.27201763885E+03  0.30796028657E+03  0.00000000000E+00 0.  1.
          3    1    3    3  501    0  0.48129036162E+02 -0.15219929679E+03 -0.65477958691E+03  0.67395648042E+03  0.00000000000E+00 0.  1.
         21    1    1    2  502  501  0.10365504941E+02  0.20198043322E+02 -0.42819982545E+02  0.48466024717E+02  0.00000000000E+00 0. -1.
<mgrwt>
<rscale>  1 0.30000000E+03</rscale>
<asrwt>0</asrwt>
<pdfrwt beam="1">  1        1 0.11048311E+00 0.30000000E+03</pdfrwt>
<pdfrwt beam="2">0</pdfrwt>
<totfact> 0.29513579E+01</totfact>
</mgrwt>
</event>
<event>
 6    1  0.1875959E-004  0.3000000E+03  0.7818608E-02  0.1093470E+00
          1   -1    0    0  502    0  0.00000000000E+00  0.00000000000E+00  0.28134324088E+02  0.28134324088E+02  0.00000000000E+00 0.  1.
         13   -1    0    0    0    0 -0.00000000000E+00 -0.00000000000E+00 -0.10000000000E+04  0.10000000000E+04  0.00000000000E+00 0.  1.
    9000005    2    1    2  501    0  0.99540254961E+01 -0.50082341478E+00 -0.95947756615E+03  0.10122346791E+04  0.32237014774E+03 0.  0.
         13    1    3    3    0    0 -0.34011761508E+02 -0.14147078336E+03 -0.68777401517E+03  0.70299635732E+03  0.00000000000E+00 0.  1.
          1    1    3    3  501    0  0.43965787005E+02  0.14096995994E+03 -0.27170355098E+03  0.30923832177E+03  0.00000000000E+00 0.  1.
         21    1    1    2  502  501 -0.99540254961E+01  0.50082341478E+00 -0.12388109757E+02  0.15899644997E+02  0.00000000000E+00 0. -1.
<mgrwt>
<rscale>  1 0.30000000E+03</rscale>
<asrwt>0</asrwt>
<pdfrwt beam="1">  1        1 0.10230685E+00 0.30000000E+03</pdfrwt>
<pdfrwt beam="2">0</pdfrwt>
<totfact> 0.33100522E+01</totfact>
</mgrwt>
</event>
<event>
 6    1  0.1875959E-004  0.3000000E+03  0.7818608E-02  0.1093470E+00
          1   -1    0    0  502    0  0.00000000000E+00  0.00000000000E+00  0.50142623531E+02  0.50142623531E+02  0.00000000000E+00 0.  1.
         13   -1    0    0    0    0 -0.00000000000E+00 -0.00000000000E+00 -0.10000000000E+04  0.10000000000E+04  0.00000000000E+00 0.  1.
    9000005    2    1    2  501    0  0.77303557737E+02 -0.45675680521E+02 -0.85464841551E+03  0.91927301637E+03  0.32646111051E+03 0.  0.
         13    1    3    3    0    0  0.28310805442E+02 -0.18426991634E+03 -0.39699401893E+03  0.43858996208E+03  0.00000000000E+00 0.  1.
          1    1    3    3  501    0  0.48992752294E+02  0.13859423582E+03 -0.45765439657E+03  0.48068305429E+03  0.00000000000E+00 0.  1.
         21    1    1    2  502  501 -0.77303557737E+02  0.45675680521E+02 -0.95208960964E+02  0.13086960716E+03  0.00000000000E+00 0. -1.
<mgrwt>
<rscale>  1 0.30000000E+03</rscale>
<asrwt>0</asrwt>
<pdfrwt beam="1">  1        1 0.18233720E+00 0.30000000E+03</pdfrwt>
<pdfrwt beam="2">0</pdfrwt>
<totfact> 0.12446625E+01</totfact>
</mgrwt>
</event>
<event>
 6    1  0.1875959E-004  0.3000000E+03  0.7818608E-02  0.1093470E+00
          1   -1    0    0  502    0  0.00000000000E+00  0.00000000000E+00  0.36472138186E+02  0.36472138186E+02  0.00000000000E+00 0.  1.
         13   -1    0    0    0    0 -0.00000000000E+00 -0.00000000000E+00 -0.10000000000E+04  0.10000000000E+04  0.00000000000E+00 0.  1.
    9000005    2    1    2  501    0  0.44042693861E+01 -0.11525650787E+02 -0.96867456615E+03  0.10231032646E+04  0.32902528286E+03 0.  0.
         13    1    3    3    0    0 -0.57838683861E+02  0.84217529489E+02 -0.85804814210E+03  0.86410909022E+03  0.00000000000E+00 0.  1.
          1    1    3    3  501    0  0.62242953247E+02 -0.95743180275E+02 -0.11062642404E+03  0.15899417441E+03  0.00000000000E+00 0.  1.
         21    1    1    2  502  501 -0.44042693861E+01  0.11525650787E+02  0.51467043351E+01  0.13368873565E+02  0.00000000000E+00 0. -1.
<mgrwt>
<rscale>  1 0.30000000E+03</rscale>
<asrwt>0</asrwt>
<pdfrwt beam="1">  1        1 0.13262624E+00 0.30000000E+03</pdfrwt>
<pdfrwt beam="2">0</pdfrwt>
<totfact> 0.22142355E+01</totfact>
</mgrwt>
</event>
<event>
 6    1  0.1875959E-004  0.3000000E+03  0.7818608E-02  0.1093470E+00
          1   -1    0    0  502    0  0.00000000000E+00  0.00000000000E+00  0.54517655096E+02  0.54517655096E+02  0.00000000000E+00 0.  1.
         13   -1    0    0    0    0 -0.00000000000E+00 -0.00000000000E+00 -0.10000000000E+04  0.10000000000E+04  0.00000000000E+00 0.  1.
    9000005    2    1    2  501    0  0.21069381853E+02 -0.80511758363E+02 -0.57879940265E+03  0.67850908841E+03  0.34415079900E+03 0.  0.
         13    1    3    3    0    0 -0.55983426727E+02 -0.19643475531E+03 -0.25992571660E+03  0.33057848586E+03  0.00000000000E+00 0.  1.
          1    1    3    3  501    0  0.77052808580E+02  0.11592299695E+03 -0.31887368605E+03  0.34793060255E+03  0.00000000000E+00 0.  1.
         21    1    1    2  502  501 -0.21069381853E+02  0.80511758363E+02 -0.36668294225E+03  0.37600856669E+03  0.00000000000E+00 0.  1.
<mgrwt>
<rscale>  1 0.30000000E+03</rscale>
<asrwt>0</asrwt>
<pdfrwt beam="1">  1        1 0.19824644E+00 0.30000000E+03</pdfrwt>
<pdfrwt beam="2">0</pdfrwt>
<totfact> 0.10442029E+01</totfact>
</mgrwt>
</event>
<event>
 6    1  0.1875959E-004  0.3000000E+03  0.7818608E-02  0.1093470E+00
          1   -1    0    0  502    0  0.00000000000E+00  0.00000000000E+00  0.49925271755E+02  0.49925271755E+02  0.00000000000E+00 0.  1.
         13   -1    0    0    0    0 -0.00000000000E+00 -0.00000000000E+00 -0.10000000000E+04  0.10000000000E+04  0.00000000000E+00 0.  1.
    9000005    2    1    2  501    0 -0.71796613089E+02  0.21407210346E+02 -0.92477009594E+03  0.97084716655E+03  0.28588715984E+03 0.  0.
         13    1    3    3    0    0 -0.12972239587E+03  0.12137106537E+03 -0.49895008413E+03  0.52963196840E+03  0.00000000000E+00 0.  1.
          1    1    3    3  501    0  0.57925782783E+02 -0.99963855028E+02 -0.42582001181E+03  0.44121519816E+03  0.00000000000E+00 0.  1.
         21    1    1    2  502  501  0.71796613089E+02 -0.21407210346E+02 -0.25304632307E+02  0.79078105200E+02  0.00000000000E+00 0.  1.
<mgrwt>
<rscale>  1 0.30000000E+03</rscale>
<asrwt>0</asrwt>
<pdfrwt beam="1">  1        1 0.18154683E+00 0.30000000E+03</pdfrwt>
<pdfrwt beam="2">0</pdfrwt>
<totfact> 0.12556441E+01</totfact>
</mgrwt>
</event>
<event>
 6    1  0.1875959E-004  0.3000000E+03  0.7818608E-02  0.1093470E+00
          1   -1    0    0  502    0  0.00000000000E+00  0.00000000000E+00  0.30059880436E+02  0.30059880436E+02  0.00000000000E+00 0.  1.
         13   -1    0    0    0    0 -0.00000000000E+00 -0.00000000000E+00 -0.10000000000E+04  0.10000000000E+04  0.00000000000E+00 0.  1.
    9000005    2    1    2  501    0  0.80238262932E+01  0.13126775735E+02 -0.93762192563E+03  0.99426658933E+03  0.33044588239E+03 0.  0.
         13    1    3    3    0    0  0.69422975170E+01  0.14450554503E+03 -0.75823118112E+03  0.77190969165E+03  0.00000000000E+00 0.  1.
          3    1    3    3  501    0  0.10815287763E+01 -0.13137876930E+03 -0.17939074452E+03  0.22235689768E+03  0.00000000000E+00 0.  1.
         21    1    1    2  502  501 -0.80238262932E+01 -0.13126775735E+02 -0.32318193931E+02  0.35793291110E+02  0.00000000000E+00 0. -1.
<mgrwt>
<rscale>  1 0.30000000E+03</rscale>
<asrwt>0</asrwt>
<pdfrwt beam="1">  1        1 0.10930889E+00 0.30000000E+03</pdfrwt>
<pdfrwt beam="2">0</pdfrwt>
<totfact> 0.29993348E+01</totfact>
</mgrwt>
</event>
<event>
 6    1  0.1875959E-004  0.3000000E+03  0.7818608E-02  0.1093470E+00
          1   -1    0    0  502    0  0.00000000000E+00  0.00000000000E+00  0.30546799268E+02  0.30546799268E+02  0.00000000000E+00 0.  1.
         13   -1    0    0    0    0 -0.00000000000E+00 -0.00000000000E+00 -0.10000000000E+04  0.10000000000E+04  0.00000000000E+00 0.  1.
    9000005    2    1    2  501    0 -0.94953844046E+01 -0.63174507504E+01 -0.96429788291E+03  0.10180308171E+04  0.32616907421E+03 0.  0.
         13    1    3    3    0    0 -0.48093944867E+01  0.14790408491E+03 -0.66542267899E+03  0.68167887625E+03  0.00000000000E+00 0.  1.
          3    1    3    3  501    0 -0.46859899179E+01 -0.15422153566E+03 -0.29887520393E+03  0.33635194081E+03  0.00000000000E+00 0.  1.
         21    1    1    2  502  501  0.94953844046E+01  0.63174507504E+01 -0.51553178191E+01  0.12515982214E+02  0.00000000000E+00 0.  1.
<mgrwt>
<rscale>  1 0.30000000E+03</rscale>
<asrwt>0</asrwt>
<pdfrwt beam="1">  1        1 0.11107950E+00 0.30000000E+03</pdfrwt>
<pdfrwt beam="2">0</pdfrwt>
<totfact> 0.29274063E+01</totfact>
</mgrwt>
</event>
<event>
 6    1  0.1875959E-004  0.3000000E+03  0.7818608E-02  0.1093470E+00
          1   -1    0    0  502    0  0.00000000000E+00  0.00000000000E+00  0.42948790413E+02  0.42948790413E+02  0.00000000000E+00 0.  1.
         13   -1    0    0    0    0 -0.00000000000E+00 -0.00000000000E+00 -0.10000000000E+04  0.10000000000E+04  0.00000000000E+00 0.  1.
    9000005    2    1    2  501    0  0.12324308986E+02  0.14113546442E+02 -0.96802648009E+03  0.10212338797E+04  0.32479576674E+03 0.  0.
         13    1    3    3    0    0  0.16035331801E+03  0.56867260708E+02 -0.55006579396E+03  0.57577725695E+03  0.00000000000E+00 0.  1.
          3    1    3    3  501    0 -0.14802900902E+03 -0.42753714266E+02 -0.41796068613E+03  0.44545662274E+03  0.00000000000E+00 0.  1.
         21    1    1    2  502  501 -0.12324308986E+02 -0.14113546442E+02  0.10975270500E+02  0.21714910723E+02  0.00000000000E+00 0.  1.
<mgrwt>
<rscale>  1 0.30000000E+03</rscale>
<asrwt>0</asrwt>
<pdfrwt beam="1">  1        1 0.15617775E+00 0.30000000E+03</pdfrwt>
<pdfrwt beam="2">0</pdfrwt>
<totfact> 0.16721047E+01</totfact>
</mgrwt>
</event>
<event>
 6    1  0.1875959E-004  0.3000000E+03  0.7818608E-02  0.1093470E+00
          1   -1    0    0  502    0  0.00000000000E+00  0.00000000000E+00  0.50040866421E+02  0.50040866421E+02  0.00000000000E+00 0.  1.
         13   -1    0    0    0    0 -0.00000000000E+00 -0.00000000000E+00 -0.10000000000E+04  0.10000000000E+04  0.00000000000E+00 0.  1.
    9000005    2    1    2  501    0  0.47097687868E+02 -0.26279822255E+02 -0.93919984339E+03  0.99504465214E+03  0.32420470795E+03 0.  0.
         13    1    3    3    0    0  0.94284821802E+02 -0.34100476894E+02 -0.94182040028E+03  0.94714208888E+03  0.00000000000E+00 0.  1.
          3    1    3    3  501    0 -0.47187133934E+02  0.78206546385E+01  0.26205568885E+01  0.47902563254E+02  0.00000000000E+00 0.  1.
         21    1    1    2  502  501 -0.47097687868E+02  0.26279822255E+02 -0.10759290186E+02  0.54996214284E+02  0.00000000000E+00 0.  1.
<mgrwt>
<rscale>  1 0.30000000E+03</rscale>
<asrwt>0</asrwt>
<pdfrwt beam="1">  1        1 0.18196717E+00 0.30000000E+03</pdfrwt>
<pdfrwt beam="2">0</pdfrwt>
<totfact> 0.12497905E+01</totfact>
</mgrwt>
</event>
<event>
 6    1  0.1875959E-004  0.3000000E+03  0.7818608E-02  0.1093470E+00
          3   -1    0    0  502    0  0.00000000000E+00  0.00000000000E+00  0.35306180286E+02  0.35306180286E+02  0.00000000000E+00 0.  1.
         13   -1    0    0    0    0 -0.00000000000E+00 -0.00000000000E+00 -0.10000000000E+04  0.10000000000E+04  0.00000000000E+00 0.  1.
    9000005    2    1    2  501    0  0.44478175743E+02 -0.51886573069E+01 -0.90663762810E+03  0.96198666265E+03  0.31846714139E+03 0.  0.
         13    1    3    3    0    0 -0.87566055208E+01  0.26776251710E+02  0.19185124740E+02  0.34083937671E+02  0.00000000000E+00 0.  1.
          3    1    3    3  501    0  0.53234781263E+02 -0.31964909017E+02 -0.92582275284E+03  0.92790272498E+03  0.00000000000E+00 0.  1.
         21    1    1    2  502  501 -0.44478175743E+02  0.51886573069E+01 -0.58056191615E+02  0.73319517640E+02  0.00000000000E+00 0.  1.
<mgrwt>
<rscale>  1 0.30000000E+03</rscale>
<asrwt>0</asrwt>
<pdfrwt beam="1">  1        3 0.12838638E+00 0.30000000E+03</pdfrwt>
<pdfrwt beam="2">0</pdfrwt>
<totfact> 0.18479409E+00</totfact>
</mgrwt>
</event>
<event>
 6    1  0.1875959E-004  0.3000000E+03  0.7818608E-02  0.1093470E+00
          1   -1    0    0  502    0  0.00000000000E+00  0.00000000000E+00  0.33704597914E+02  0.33704597914E+02  0.00000000000E+00 0.  1.
         13   -1    0    0    0    0 -0.00000000000E+00 -0.00000000000E+00 -0.10000000000E+04  0.10000000000E+04  0.00000000000E+00 0.  1.
    9000005    2    1    2  501    0 -0.72885051176E+01 -0.69893196484E+01 -0.97089702713E+03  0.10226073979E+04  0.32090945761E+03 0.  0.
         13    1    3    3    0    0  0.75719705331E+02  0.35684034171E+02 -0.90377537258E+03  0.90764351381E+03  0.00000000000E+00 0.  1.
          1    1    3    3  501    0 -0.83008210449E+02 -0.42673353819E+02 -0.67121654541E+02  0.11496388405E+03  0.00000000000E+00 0.  1.
         21    1    1    2  502  501  0.72885051176E+01  0.69893196484E+01  0.46016250387E+01  0.11097200052E+02  0.00000000000E+00 0. -1.
<mgrwt>
<rscale>  1 0.30000000E+03</rscale>
<asrwt>0</asrwt>
<pdfrwt beam="1">  1        1 0.12256243E+00 0.30000000E+03</pdfrwt>
<pdfrwt beam="2">0</pdfrwt>
<totfact> 0.25147656E+01</totfact>
</mgrwt>
</event>
<event>
 6    1  0.1875959E-004  0.3000000E+03  0.7818608E-02  0.1093470E+00
          1   -1    0    0  502    0  0.00000000000E+00  0.00000000000E+00  0.52716463262E+02  0.52716463262E+02  0.00000000000E+00 0.  1.
         13   -1    0    0    0    0 -0.00000000000E+00 -0.00000000000E+00 -0.10000000000E+04  0.10000000000E+04  0.00000000000E+00 0.  1.
    9000005    2    1    2  501    0  0.16580309027E+02  0.22154212730E+01 -0.96805367921E+03  0.10260478758E+04  0.33965644828E+03 0.  0.
         13    1    3    3    0    0 -0.10259720749E+03  0.27071160283E+02 -0.84955795940E+03  0.85615872423E+03  0.00000000000E+00 0.  1.
          3    1    3    3  501    0  0.11917751652E+03 -0.24855739010E+02 -0.11849571982E+03  0.16988915157E+03  0.00000000000E+00 0.  1.
         21    1    1    2  502  501 -0.16580309027E+02 -0.22154212730E+01  0.20770142475E+02  0.26668587463E+02  0.00000000000E+00 0.  1.
<mgrwt>
<rscale>  1 0.30000000E+03</rscale>
<asrwt>0</asrwt>
<pdfrwt beam="1">  1        1 0.19169663E+00 0.30000000E+03</pdfrwt>
<pdfrwt beam="2">0</pdfrwt>
<totfact> 0.11221753E+01</totfact>
</mgrwt>
</event>
<event>
 6    1  0.1875959E-004  0.3000000E+03  0.7818608E-02  0.1093470E+00
          1   -1    0    0  502    0  0.00000000000E+00  0.00000000000E+00  0.58615200392E+02  0.58615200392E+02  0.00000000000E+00 0.  1.
         13   -1    0    0    0    0 -0.00000000000E+00 -0.00000000000E+00 -0.10000000000E+04  0.10000000000E+04  0.00000000000E+00 0.  1.
    9000005    2    1    2  501    0 -0.10911161155E+02 -0.88997738833E+01 -0.97191531757E+03  0.10249941959E+04  0.32526213702E+03 0.  0.
         13    1    3    3    0    0 -0.12009607314E+03  0.10081145957E+03 -0.63742436026E+03  0.65642656270E+03  0.00000000000E+00 0.  1.
          1    1    3    3  501    0  0.10918491199E+03 -0.10971123346E+03 -0.33449095731E+03  0.36856763324E+03  0.00000000000E+00 0.  1.
         21    1    1    2  502  501  0.10911161155E+02  0.88997738833E+01  0.30530517963E+02  0.33621004447E+02  0.00000000000E+00 0. -1.
<mgrwt>
<rscale>  1 0.30000000E+03</rscale>
<asrwt>0</asrwt>
<pdfrwt beam="1">  1        1 0.21314663E+00 0.30000000E+03</pdfrwt>
<pdfrwt beam="2">0</pdfrwt>
<totfact> 0.88772692E+00</totfact>
</mgrwt>
</event>
<event>
 6    1  0.1875959E-004  0.3000000E+03  0.7818608E-02  0.1093470E+00
          1   -1    0    0  502    0  0.00000000000E+00  0.00000000000E+00  0.30773823409E+02  0.30773823409E+02  0.00000000000E+00 0.  1.
         13   -1    0    0    0    0 -0.00000000000E+00 -0.00000000000E+00 -0.10000000000E+04  0.10000000000E+04  0.00000000000E+00 0.  1.
    9000005    2    1    2  501    0  0.13528842288E+02  0.13074297811E+02 -0.92155315961E+03  0.97952264406E+03  0.33143689806E+03 0.  0.
         13    1    3    3    0    0 -0.49424576727E+02  0.60015663727E+02 -0.28167966965E+02  0.82692823390E+02  0.00000000000E+00 0.  1.
          1    1    3    3  501    0  0.62953419015E+02 -0.46941365917E+02 -0.89338519265E+03  0.89682982067E+03  0.00000000000E+00 0.  1.
         21    1    1    2  502  501 -0.13528842288E+02 -0.13074297811E+02 -0.47673016980E+02  0.51251179351E+02  0.00000000000E+00 0.  1.
<mgrwt>
<rscale>  1 0.30000000E+03</rscale>
<asrwt>0</asrwt>
<pdfrwt beam="1">  1        1 0.11190505E+00 0.30000000E+03</pdfrwt>
<pdfrwt beam="2">0</pdfrwt>
<totfact> 0.28947028E+01</totfact>
</mgrwt>
</event>
<event>
 6    1  0.1875959E-004  0.3000000E+03  0.7818608E-02  0.1093470E+00
          1   -1    0    0  502    0  0.00000000000E+00  0.00000000000E+00  0.44131987029E+02  0.44131987029E+02  0.00000000000E+00 0.  1.
         13   -1    0    0    0    0 -0.00000000000E+00 -0.00000000000E+00 -0.10000000000E+04  0.10000000000E+04  0.00000000000E+00 0.  1.
    9000005    2    1    2  501    0  0.70554833487E+02  0.18798434023E+02 -0.89766958472E+03  0.95075949268E+03  0.30463349116E+03 0.  0.
         13    1    3    3    0    0 -0.22531868733E+02  0.51555404951E+02 -0.94225576704E+01  0.57047607148E+02  0.00000000000E+00 0.  1.
          1    1    3    3  501    0  0.93086702220E+02 -0.32756970928E+02 -0.88824702705E+03  0.89371188553E+03  0.00000000000E+00 0.  1.
         21    1    1    2  502  501 -0.70554833487E+02 -0.18798434023E+02 -0.58198428248E+02  0.93372494347E+02  0.00000000000E+00 0.  1.
<mgrwt>
<rscale>  1 0.30000000E+03</rscale>
<asrwt>0</asrwt>
<pdfrwt beam="1">  1        1 0.16048029E+00 0.30000000E+03</pdfrwt>
<pdfrwt beam="2">0</pdfrwt>
<totfact> 0.15915407E+01</totfact>
</mgrwt>
</event>
<event>
 6    1  0.1875959E-004  0.3000000E+03  0.7818608E-02  0.1093470E+00
          1   -1    0    0  502    0  0.00000000000E+00  0.00000000000E+00  0.29522044979E+02  0.29522044979E+02  0.00000000000E+00 0.  1.
         13   -1    0    0    0    0 -0.00000000000E+00 -0.00000000000E+00 -0.10000000000E+04  0.10000000000E+04  0.00000000000E+00 0.  1.
    9000005    2    1    2  501    0 -0.15796499895E+02  0.57452914196E+00 -0.92854928298E+03  0.98471274872E+03  0.32742261233E+03 0.  0.
         13    1    3    3    0    0  0.51551184962E+02  0.14927160574E+03 -0.35828855048E+03  0.39154849298E+03  0.00000000000E+00 0.  1.
          3    1    3    3  501    0 -0.67347684857E+02 -0.14869707660E+03 -0.57026073251E+03  0.59316425574E+03  0.00000000000E+00 0.  1.
         21    1    1    2  502  501  0.15796499895E+02 -0.57452914196E+00 -0.41928672038E+02  0.44809296262E+02  0.00000000000E+00 0.  1.
<mgrwt>
<rscale>  1 0.30000000E+03</rscale>
<asrwt>0</asrwt>
<pdfrwt beam="1">  1        1 0.10735312E+00 0.30000000E+03</pdfrwt>
<pdfrwt beam="2">0</pdfrwt>
<totfact> 0.30817454E+01</totfact>
</mgrwt>
</event>
<event>
 6    1  0.1875959E-004  0.3000000E+03  0.7818608E-02  0.1093470E+00
          1   -1    0    0  502    0  0.00000000000E+00  0.00000000000E+00  0.40759674536E+02  0.40759674536E+02  0.00000000000E+00 0.  1.
         13   -1    0    0    0    0 -0.00000000000E+00 -0.00000000000E+00 -0.10000000000E+04  0.10000000000E+04  0.00000000000E+00 0.  1.
    9000005    2    1    2  501    0  0.16215356319E+02 -0.37859090096E+02 -0.93158181581E+03  0.99114877211E+03  0.33590915501E+03 0.  0.
         13    1    3    3    0    0  0.43123483076E+02  0.42439550666E+02 -0.89801644190E+03  0.90005237636E+03  0.00000000000E+00 0.  1.
          3    1    3    3  501    0 -0.26908126757E+02 -0.80298640761E+02 -0.33565373908E+02  0.91096395753E+02  0.00000000000E+00 0.  1.
         21    1    1    2  502  501 -0.16215356319E+02  0.37859090096E+02 -0.27658509652E+02  0.49610902427E+02  0.00000000000E+00 0.  1.
<mgrwt>
<rscale>  1 0.30000000E+03</rscale>
<asrwt>0</asrwt>
<pdfrwt beam="1">  1        1 0.14821731E+00 0.30000000E+03</pdfrwt>
<pdfrwt beam="2">0</pdfrwt>
<totfact> 0.18344832E+01</totfact>
</mgrwt>
</event>
<event>
 6    1  0.1875959E-004  0.3000000E+03  0.7818608E-02  0.1093470E+00
          1   -1    0    0  502    0  0.00000000000E+00  0.00000000000E+00  0.49199259565E+02  0.49199259565E+02  0.00000000000E+00 0.  1.
         13   -1    0    0    0    0 -0.00000000000E+00 -0.00000000000E+00 -0.10000000000E+04  0.10000000000E+04  0.00000000000E+00 0.  1.
    9000005    2    1    2  501    0 -0.48030364714E+02  0.88438813032E+02 -0.80305558861E+03  0.87043413581E+03  0.32035756085E+03 0.  0.
         13    1    3    3    0    0  0.61184066140E+02 -0.68688773397E+02 -0.78165136888E+02  0.12071216246E+03  0.00000000000E+00 0.  1.
          1    1    3    3  501    0 -0.10921443085E+03  0.15712758643E+03 -0.72489045173E+03  0.74972197335E+03  0.00000000000E+00 0.  1.
         21    1    1    2  502  501  0.48030364714E+02 -0.88438813032E+02 -0.14774515182E+03  0.17876512376E+03  0.00000000000E+00 0.  1.
<mgrwt>
<rscale>  1 0.30000000E+03</rscale>
<asrwt>0</asrwt>
<pdfrwt beam="1">  1        1 0.17890678E+00 0.30000000E+03</pdfrwt>
<pdfrwt beam="2">0</pdfrwt>
<totfact> 0.12931025E+01</totfact>
</mgrwt>
</event>
<event>
 6    1  0.1875959E-004  0.3000000E+03  0.7818608E-02  0.1093470E+00
          1   -1    0    0  502    0  0.00000000000E+00  0.00000000000E+00  0.49354899108E+02  0.49354899108E+02  0.00000000000E+00 0.  1.
         13   -1    0    0    0    0 -0.00000000000E+00 -0.00000000000E+00 -0.10000000000E+04  0.10000000000E+04  0.00000000000E+00 0.  1.
    9000005    2    1    2  501    0  0.44079956812E+02 -0.78054287262E+02 -0.73745443510E+03  0.81808498249E+03  0.34262002331E+03 0.  0.
         13    1    3    3    0    0 -0.67566778048E+02 -0.18539485338E+03 -0.37010086495E+03  0.41941765747E+03  0.00000000000E+00 0.  1.
          1    1    3    3  501    0  0.11164673486E+03  0.10734056612E+03 -0.36735357014E+03  0.39866732502E+03  0.00000000000E+00 0.  1.
         21    1    1    2  502  501 -0.44079956812E+02  0.78054287262E+02 -0.21319066579E+03  0.23126991662E+03  0.00000000000E+00 0. -1.
<mgrwt>
<rscale>  1 0.30000000E+03</rscale>
<asrwt>0</asrwt>
<pdfrwt beam="1">  1        1 0.17947274E+00 0.30000000E+03</pdfrwt>
<pdfrwt beam="2">0</pdfrwt>
<totfact> 0.12849706E+01</totfact>
</mgrwt>
</event>
<event>
 6    1  0.1875959E-004  0.3000000E+03  0.7818608E-02  0.1093470E+00
          1   -1    0    0  502    0  0.00000000000E+00  0.00000000000E+00  0.54700470747E+02  0.54700470747E+02  0.00000000000E+00 0.  1.
         13   -1    0    0    0    0 -0.00000000000E+00 -0.00000000000E+00 -0.10000000000E+04  0.10000000000E+04  0.00000000000E+00 0.  1.
    9000005    2    1    2  501    0 -0.43952823108E+02  0.10073675287E+02 -0.95367387461E+03  0.10088369858E+04  0.32592157827E+03 0.  0.
         13    1    3    3    0    0 -0.17261253097E+03  0.66905190538E+02 -0.47059755280E+03  0.50570094628E+03  0.00000000000E+00 0.  1.
          3    1    3    3  501    0  0.12865970787E+03 -0.56831515251E+02 -0.48307632181E+03  0.50313603950E+03  0.00000000000E+00 0.  1.
         21    1    1    2  502  501  0.43952823108E+02 -0.10073675287E+02  0.83743453538E+01  0.45863484964E+02  0.00000000000E+00 0.  1.
<mgrwt>
<rscale>  1 0.30000000E+03</rscale>
<asrwt>0</asrwt>
<pdfrwt beam="1">  1        1 0.19891122E+00 0.30000000E+03</pdfrwt>
<pdfrwt beam="2">0</pdfrwt>
<totfact> 0.10366263E+01</totfact>
</mgrwt>
</event>
<event>
 6    1  0.1875959E-004  0.3000000E+03  0.7818608E-02  0.1093470E+00
          1   -1    0    0  502    0  0.00000000000E+00  0.00000000000E+00  0.34057994616E+02  0.34057994616E+02  0.00000000000E+00 0.  1.
         13   -1    0    0    0    0 -0.00000000000E+00 -0.00000000000E+00 -0.10000000000E+04  0.10000000000E+04  0.00000000000E+00 0.  1.
    9000005    2    1    2  501    0  0.26590019513E+01 -0.25902020619E+02 -0.94817476632E+03  0.10025356256E+04  0.32459868788E+03 0.  0.
         13    1    3    3    0    0  0.10934818910E+03 -0.13292573955E+03 -0.44381644301E+03  0.47602448864E+03  0.00000000000E+00 0.  1.
          3    1    3    3  501    0 -0.10668918715E+03  0.10702371894E+03 -0.50435832331E+03  0.52651113698E+03  0.00000000000E+00 0.  1.
         21    1    1    2  502  501 -0.26590019513E+01  0.25902020619E+02 -0.17767239061E+02  0.31522369000E+02  0.00000000000E+00 0. -1.
<mgrwt>
<rscale>  1 0.30000000E+03</rscale>
<asrwt>0</asrwt>
<pdfrwt beam="1">  1        1 0.12384751E+00 0.30000000E+03</pdfrwt>
<pdfrwt beam="2">0</pdfrwt>
<totfact> 0.24735871E+01</totfact>
</mgrwt>
</event>
<event>
 6    1  0.1875959E-004  0.3000000E+03  0.7818608E-02  0.1093470E+00
          1   -1    0    0  502    0  0.00000000000E+00  0.00000000000E+00  0.73118010861E+02  0.73118010861E+02  0.00000000000E+00 0.  1.
         13   -1    0    0    0    0 -0.00000000000E+00 -0.00000000000E+00 -0.10000000000E+04  0.10000000000E+04  0.00000000000E+00 0.  1.
    9000005    2    1    2  501    0  0.13938849114E+03 -0.17752159151E+02 -0.82916309841E+03  0.90196523635E+03  0.32601465182E+03 0.  0.
         13    1    3    3    0    0  0.20276902360E+03 -0.11358940390E+03 -0.63694330859E+03  0.67802257187E+03  0.00000000000E+00 0.  1.
          3    1    3    3  501    0 -0.63380532453E+02  0.95837244750E+02 -0.19221978982E+03  0.22394266448E+03  0.00000000000E+00 0.  1.
         21    1    1    2  502  501 -0.13938849114E+03  0.17752159151E+02 -0.97718890730E+02  0.17115277451E+03  0.00000000000E+00 0.  1.
<mgrwt>
<rscale>  1 0.30000000E+03</rscale>
<asrwt>0</asrwt>
<pdfrwt beam="1">  1        1 0.26588424E+00 0.30000000E+03</pdfrwt>
<pdfrwt beam="2">0</pdfrwt>
<totfact> 0.50272107E+00</totfact>
</mgrwt>
</event>
<event>
 6    1  0.1875959E-004  0.3000000E+03  0.7818608E-02  0.1093470E+00
          1   -1    0    0  502    0  0.00000000000E+00  0.00000000000E+00  0.31380644844E+02  0.31380644844E+02  0.00000000000E+00 0.  1.
         13   -1    0    0    0    0 -0.00000000000E+00 -0.00000000000E+00 -0.10000000000E+04  0.10000000000E+04  0.00000000000E+00 0.  1.
    9000005    2    1    2  501    0  0.26389094283E+01 -0.91587857987E+01 -0.95091917935E+03  0.10112773261E+04  0.34401118799E+03 0.  0.
         13    1    3    3    0    0 -0.14156734175E+03 -0.89783415895E+02 -0.60715362534E+03  0.62987133510E+03  0.00000000000E+00 0.  1.
          1    1    3    3  501    0  0.14420625118E+03  0.80624630097E+02 -0.34376555401E+03  0.38140599102E+03  0.00000000000E+00 0.  1.
         21    1    1    2  502  501 -0.26389094283E+01  0.91587857987E+01 -0.17700175806E+02  0.20103318727E+02  0.00000000000E+00 0. -1.
<mgrwt>
<rscale>  1 0.30000000E+03</rscale>
<asrwt>0</asrwt>
<pdfrwt beam="1">  1        1 0.11411168E+00 0.30000000E+03</pdfrwt>
<pdfrwt beam="2">0</pdfrwt>
<totfact> 0.28097972E+01</totfact>
</mgrwt>
</event>
<event>
 6    1  0.1875959E-004  0.3000000E+03  0.7818608E-02  0.1093470E+00
          1   -1    0    0  502    0  0.00000000000E+00  0.00000000000E+00  0.35436823898E+02  0.35436823898E+02  0.00000000000E+00 0.  1.
         13   -1    0    0    0    0 -0.00000000000E+00 -0.00000000000E+00 -0.10000000000E+04  0.10000000000E+04  0.00000000000E+00 0.  1.
    9000005    2    1    2  501    0  0.19101681766E+02  0.25918712755E+02 -0.89628981349E+03  0.95995234894E+03  0.34225199569E+03 0.  0.
         13    1    3    3    0    0  0.64711733356E+02  0.17459868400E+03 -0.53991059503E+03  0.57111799088E+03  0.00000000000E+00 0.  1.
          3    1    3    3  501    0 -0.45610051591E+02 -0.14867997124E+03 -0.35637921846E+03  0.38883435806E+03  0.00000000000E+00 0.  1.
         21    1    1    2  502  501 -0.19101681766E+02 -0.25918712755E+02 -0.68273362615E+02  0.75484474959E+02  0.00000000000E+00 0. -1.
<mgrwt>
<rscale>  1 0.30000000E+03</rscale>
<asrwt>0</asrwt>
<pdfrwt beam="1">  1        1 0.12886145E+00 0.30000000E+03</pdfrwt>
<pdfrwt beam="2">0</pdfrwt>
<totfact> 0.23209419E+01</totfact>
</mgrwt>
</event>
<event>
 6    1  0.1875959E-004  0.3000000E+03  0.7818608E-02  0.1093470E+00
          1   -1    0    0  502    0  0.00000000000E+00  0.00000000000E+00  0.30220685850E+02  0.30220685850E+02  0.00000000000E+00 0.  1.
         13   -1    0    0    0    0 -0.00000000000E+00 -0.00000000000E+00 -0.10000000000E+04  0.10000000000E+04  0.00000000000E+00 0.  1.
    9000005    2    1    2  501    0  0.16460928425E+02  0.13662653917E+02 -0.87458237697E+03  0.93264975203E+03  0.32323922347E+03 0.  0.
         13    1    3    3    0    0  0.66943471868E+02  0.18677618491E+02 -0.14404597810E+02  0.70977280142E+02  0.00000000000E+00 0.  1.
          1    1    3    3  501    0 -0.50482543443E+02 -0.50149645746E+01 -0.86017777916E+03  0.86167247189E+03  0.00000000000E+00 0.  1.
         21    1    1    2  502  501 -0.16460928425E+02 -0.13662653917E+02 -0.95196937183E+02  0.97570933816E+02  0.00000000000E+00 0.  1.
<mgrwt>
<rscale>  1 0.30000000E+03</rscale>
<asrwt>0</asrwt>
<pdfrwt beam="1">  1        1 0.10989363E+00 0.30000000E+03</pdfrwt>
<pdfrwt beam="2">0</pdfrwt>
<totfact> 0.29753056E+01</totfact>
</mgrwt>
</event>
<event>
 6    1  0.1875959E-004  0.3000000E+03  0.7818608E-02  0.1093470E+00
          1   -1    0    0  502    0  0.00000000000E+00  0.00000000000E+00  0.30341569014E+02  0.30341569014E+02  0.00000000000E+00 0.  1.
         13   -1    0    0    0    0 -0.00000000000E+00 -0.00000000000E+00 -0.10000000000E+04  0.10000000000E+04  0.00000000000E+00 0.  1.
    9000005    2    1    2  501    0 -0.66753383763E+00 -0.21708465684E+02 -0.93905864816E+03  0.99281757945E+03  0.32153366589E+03 0.  0.
         13    1    3    3    0    0 -0.38720731274E+02 -0.14069509634E+03 -0.22682215332E+03  0.26970853602E+03  0.00000000000E+00 0.  1.
          3    1    3    3  501    0  0.38053197436E+02  0.11898663066E+03 -0.71223649484E+03  0.72310904343E+03  0.00000000000E+00 0.  1.
         21    1    1    2  502  501  0.66753383763E+00  0.21708465684E+02 -0.30599782828E+02  0.37523989566E+02  0.00000000000E+00 0. -1.
<mgrwt>
<rscale>  1 0.30000000E+03</rscale>
<asrwt>0</asrwt>
<pdfrwt beam="1">  1        1 0.11033321E+00 0.30000000E+03</pdfrwt>
<pdfrwt beam="2">0</pdfrwt>
<totfact> 0.29574217E+01</totfact>
</mgrwt>
</event>
<event>
 6    1  0.1875959E-004  0.3000000E+03  0.7818608E-02  0.1093470E+00
          1   -1    0    0  502    0  0.00000000000E+00  0.00000000000E+00  0.33707443534E+02  0.33707443534E+02  0.00000000000E+00 0.  1.
         13   -1    0    0    0    0 -0.00000000000E+00 -0.00000000000E+00 -0.10000000000E+04  0.10000000000E+04  0.00000000000E+00 0.  1.
    9000005    2    1    2  501    0 -0.11241651949E+02  0.36972291347E+02 -0.85477162714E+03  0.91568099420E+03  0.32610400718E+03 0.  0.
         13    1    3    3    0    0 -0.12308680264E+03  0.88506718658E+02 -0.20855486776E+03  0.25783508896E+03  0.00000000000E+00 0.  1.
          3    1    3    3  501    0  0.11184515069E+03 -0.51534427311E+02 -0.64621675938E+03  0.65784590524E+03  0.00000000000E+00 0.  1.
         21    1    1    2  502  501  0.11241651949E+02 -0.36972291347E+02 -0.11152092932E+03  0.11802644934E+03  0.00000000000E+00 0.  1.
<mgrwt>
<rscale>  1 0.30000000E+03</rscale>
<asrwt>0</asrwt>
<pdfrwt beam="1">  1        1 0.12257278E+00 0.30000000E+03</pdfrwt>
<pdfrwt beam="2">0</pdfrwt>
<totfact> 0.25144305E+01</totfact>
</mgrwt>
</event>
<event>
 6    1  0.1875959E-004  0.3000000E+03  0.7818608E-02  0.1093470E+00
          1   -1    0    0  502    0  0.00000000000E+00  0.00000000000E+00  0.90704589277E+02  0.90704589277E+02  0.00000000000E+00 0.  1.
         13   -1    0    0    0    0 -0.00000000000E+00 -0.00000000000E+00 -0.10000000000E+04  0.10000000000E+04  0.00000000000E+00 0.  1.
    9000005    2    1    2  501    0 -0.44358925258E+02 -0.52962068555E+02 -0.95269133814E+03  0.10091208809E+04  0.32547115319E+03 0.  0.
         13    1    3    3    0    0 -0.52300826545E+02 -0.73287333918E+02 -0.44078996740E+02  0.10024653472E+03  0.00000000000E+00 0.  1.
          3    1    3    3  501    0  0.79419012874E+01  0.20325265363E+02 -0.90861234140E+03  0.90887434618E+03  0.00000000000E+00 0.  1.
         21    1    1    2  502  501  0.44358925258E+02  0.52962068555E+02  0.43395927415E+02  0.81583708373E+02  0.00000000000E+00 0.  1.
<mgrwt>
<rscale>  1 0.30000000E+03</rscale>
<asrwt>0</asrwt>
<pdfrwt beam="1">  1        1 0.32983557E+00 0.30000000E+03</pdfrwt>
<pdfrwt beam="2">0</pdfrwt>
<totfact> 0.24909748E+00</totfact>
</mgrwt>
</event>
<event>
 6    1  0.1875959E-004  0.3000000E+03  0.7818608E-02  0.1093470E+00
          1   -1    0    0  502    0  0.00000000000E+00  0.00000000000E+00  0.31955632627E+02  0.31955632627E+02  0.00000000000E+00 0.  1.
         13   -1    0    0    0    0 -0.00000000000E+00 -0.00000000000E+00 -0.10000000000E+04  0.10000000000E+04  0.00000000000E+00 0.  1.
    9000005    2    1    2  501    0 -0.22570126415E+02 -0.14380292585E+02 -0.94082721260E+03  0.99378526539E+03  0.31896254688E+03 0.  0.
         13    1    3    3    0    0 -0.95660761320E+02  0.74049212894E+02 -0.81329945057E+03  0.82224708177E+03  0.00000000000E+00 0.  1.
          1    1    3    3  501    0  0.73090634905E+02 -0.88429505479E+02 -0.12752776204E+03  0.17153818362E+03  0.00000000000E+00 0.  1.
         21    1    1    2  502  501  0.22570126415E+02  0.14380292585E+02 -0.27217154769E+02  0.38170367236E+02  0.00000000000E+00 0.  1.
<mgrwt>
<rscale>  1 0.30000000E+03</rscale>
<asrwt>0</asrwt>
<pdfrwt beam="1">  1        1 0.11620255E+00 0.30000000E+03</pdfrwt>
<pdfrwt beam="2">0</pdfrwt>
<totfact> 0.27325593E+01</totfact>
</mgrwt>
</event>
<event>
 6    1  0.1875959E-004  0.3000000E+03  0.7818608E-02  0.1093470E+00
          1   -1    0    0  502    0  0.00000000000E+00  0.00000000000E+00  0.35931809134E+02  0.35931809134E+02  0.00000000000E+00 0.  1.
         13   -1    0    0    0    0 -0.00000000000E+00 -0.00000000000E+00 -0.10000000000E+04  0.10000000000E+04  0.00000000000E+00 0.  1.
    9000005    2    1    2  501    0  0.13995919221E+02 -0.31121457983E+00 -0.96680912245E+03  0.10216666307E+04  0.32998006372E+03 0.  0.
         13    1    3    3    0    0  0.15758346039E+03 -0.37926205963E+02 -0.67608596283E+03  0.69524324752E+03  0.00000000000E+00 0.  1.
          1    1    3    3  501    0 -0.14358754117E+03  0.37614991383E+02 -0.29072315963E+03  0.32642338320E+03  0.00000000000E+00 0.  1.
         21    1    1    2  502  501 -0.13995919221E+02  0.31121457983E+00  0.27409315855E+01  0.14265178418E+02  0.00000000000E+00 0. -1.
<mgrwt>
<rscale>  1 0.30000000E+03</rscale>
<asrwt>0</asrwt>
<pdfrwt beam="1">  1        1 0.13066140E+00 0.30000000E+03</pdfrwt>
<pdfrwt beam="2">0</pdfrwt>
<totfact> 0.22691076E+01</totfact>
</mgrwt>
</event>
<event>
 6    1  0.1875959E-004  0.3000000E+03  0.7818608E-02  0.1093470E+00
          1   -1    0    0  502    0  0.00000000000E+00  0.00000000000E+00  0.28446531629E+02  0.28446531629E+02  0.00000000000E+00 0.  1.
         13   -1    0    0    0    0 -0.00000000000E+00 -0.00000000000E+00 -0.10000000000E+04  0.10000000000E+04  0.00000000000E+00 0.  1.
    9000005    2    1    2  501    0  0.24283854092E+01 -0.10460056310E+02 -0.95172464965E+03  0.10058967670E+04  0.32547378887E+03 0.  0.
         13    1    3    3    0    0  0.14950468734E+03 -0.66735824913E+02 -0.40199836994E+03  0.43405991671E+03  0.00000000000E+00 0.  1.
          3    1    3    3  501    0 -0.14707630193E+03  0.56275768603E+02 -0.54972627971E+03  0.57183685027E+03  0.00000000000E+00 0.  1.
         21    1    1    2  502  501 -0.24283854092E+01  0.10460056310E+02 -0.19828818725E+02  0.22549764649E+02  0.00000000000E+00 0. -1.
<mgrwt>
<rscale>  1 0.30000000E+03</rscale>
<asrwt>0</asrwt>
<pdfrwt beam="1">  1        1 0.10344215E+00 0.30000000E+03</pdfrwt>
<pdfrwt beam="2">0</pdfrwt>
<totfact> 0.32565992E+01</totfact>
</mgrwt>
</event>
<event>
 6    1  0.1875959E-004  0.3000000E+03  0.7818608E-02  0.1093470E+00
          1   -1    0    0  502    0  0.00000000000E+00  0.00000000000E+00  0.39123959684E+02  0.39123959684E+02  0.00000000000E+00 0.  1.
         13   -1    0    0    0    0 -0.00000000000E+00 -0.00000000000E+00 -0.10000000000E+04  0.10000000000E+04  0.00000000000E+00 0.  1.
    9000005    2    1    2  501    0 -0.68217938931E+01 -0.47517785185E+02 -0.91873025987E+03  0.97524326158E+03  0.32361961015E+03 0.  0.
         13    1    3    3    0    0 -0.99106431546E+02  0.67493808558E+02 -0.14772470042E+03  0.19026320212E+03  0.00000000000E+00 0.  1.
          1    1    3    3  501    0  0.92284637653E+02 -0.11501159374E+03 -0.77100555945E+03  0.78498005946E+03  0.00000000000E+00 0.  1.
         21    1    1    2  502  501  0.68217938931E+01  0.47517785185E+02 -0.42145780445E+02  0.63880698103E+02  0.00000000000E+00 0. -1.
<mgrwt>
<rscale>  1 0.30000000E+03</rscale>
<asrwt>0</asrwt>
<pdfrwt beam="1">  1        1 0.14226924E+00 0.30000000E+03</pdfrwt>
<pdfrwt beam="2">0</pdfrwt>
<totfact> 0.19687416E+01</totfact>
</mgrwt>
</event>
<event>
 6    1  0.1875959E-004  0.3000000E+03  0.7818608E-02  0.1093470E+00
          1   -1    0    0  502    0  0.00000000000E+00  0.00000000000E+00  0.36665628433E+02  0.36665628433E+02  0.00000000000E+00 0.  1.
         13   -1    0    0    0    0 -0.00000000000E+00 -0.00000000000E+00 -0.10000000000E+04  0.10000000000E+04  0.00000000000E+00 0.  1.
    9000005    2    1    2  501    0 -0.11619706748E+01 -0.38002286214E+02 -0.94176485782E+03  0.99295329772E+03  0.31239346999E+03 0.  0.
         13    1    3    3    0    0  0.94238604160E+02 -0.37483445881E+02 -0.86383445162E+03  0.86976771786E+03  0.00000000000E+00 0.  1.
          1    1    3    3  501    0 -0.95400574835E+02 -0.51884033231E+00 -0.77930406201E+02  0.12318557986E+03  0.00000000000E+00 0.  1.
         21    1    1    2  502  501  0.11619706748E+01  0.38002286214E+02 -0.21569513747E+02  0.43712330715E+02  0.00000000000E+00 0.  1.
<mgrwt>
<rscale>  1 0.30000000E+03</rscale>
<asrwt>0</asrwt>
<pdfrwt beam="1">  1        1 0.13332984E+00 0.30000000E+03</pdfrwt>
<pdfrwt beam="2">0</pdfrwt>
<totfact> 0.21950102E+01</totfact>
</mgrwt>
</event>
<event>
 6    1  0.1875959E-004  0.3000000E+03  0.7818608E-02  0.1093470E+00
          1   -1    0    0  502    0  0.00000000000E+00  0.00000000000E+00  0.63921355759E+02  0.63921355759E+02  0.00000000000E+00 0.  1.
         13   -1    0    0    0    0 -0.00000000000E+00 -0.00000000000E+00 -0.10000000000E+04  0.10000000000E+04  0.00000000000E+00 0.  1.
    9000005    2    1    2  501    0  0.20211666862E+02  0.13938629842E+03 -0.74871849972E+03  0.82952665569E+03  0.32817377868E+03 0.  0.
         13    1    3    3    0    0  0.40747956962E+01 -0.69355910541E+02 -0.21433990231E+02  0.72706686241E+02  0.00000000000E+00 0.  1.
          3    1    3    3  501    0  0.16136871166E+02  0.20874220896E+03 -0.72728450949E+03  0.75681996945E+03  0.00000000000E+00 0.  1.
         21    1    1    2  502  501 -0.20211666862E+02 -0.13938629842E+03 -0.18736014452E+03  0.23439470007E+03  0.00000000000E+00 0.  1.
<mgrwt>
<rscale>  1 0.30000000E+03</rscale>
<asrwt>0</asrwt>
<pdfrwt beam="1">  1        1 0.23244178E+00 0.30000000E+03</pdfrwt>
<pdfrwt beam="2">0</pdfrwt>
<totfact> 0.72082095E+00</totfact>
</mgrwt>
</event>
<event>
 6    1  0.1875959E-004  0.3000000E+03  0.7818608E-02  0.1093470E+00
          1   -1    0    0  502    0  0.00000000000E+00  0.00000000000E+00  0.41282030208E+02  0.41282030208E+02  0.00000000000E+00 0.  1.
         13   -1    0    0    0    0 -0.00000000000E+00 -0.00000000000E+00 -0.10000000000E+04  0.10000000000E+04  0.00000000000E+00 0.  1.
    9000005    2    1    2  501    0  0.16455601411E+02 -0.37965846537E+02 -0.93524130818E+03  0.99370739451E+03  0.33326549336E+03 0.  0.
         13    1    3    3    0    0 -0.89953386904E+02  0.11376998537E+03 -0.32383470751E+03  0.35482973265E+03  0.00000000000E+00 0.  1.
          3    1    3    3  501    0  0.10640898832E+03 -0.15173583191E+03 -0.61140660067E+03  0.63887766186E+03  0.00000000000E+00 0.  1.
         21    1    1    2  502  501 -0.16455601411E+02  0.37965846537E+02 -0.23476661612E+02  0.47574635695E+02  0.00000000000E+00 0.  1.
<mgrwt>
<rscale>  1 0.30000000E+03</rscale>
<asrwt>0</asrwt>
<pdfrwt beam="1">  1        1 0.15011679E+00 0.30000000E+03</pdfrwt>
<pdfrwt beam="2">0</pdfrwt>
<totfact> 0.17940410E+01</totfact>
</mgrwt>
</event>
<event>
 6    1  0.1875959E-004  0.3000000E+03  0.7818608E-02  0.1093470E+00
          1   -1    0    0  502    0  0.00000000000E+00  0.00000000000E+00  0.33179396973E+02  0.33179396973E+02  0.00000000000E+00 0.  1.
         13   -1    0    0    0    0 -0.00000000000E+00 -0.00000000000E+00 -0.10000000000E+04  0.10000000000E+04  0.00000000000E+00 0.  1.
    9000005    2    1    2  501    0  0.32540216985E+02  0.14406678516E+02 -0.85478869156E+03  0.91563124814E+03  0.32626746274E+03 0.  0.
         13    1    3    3    0    0 -0.12586309513E+03 -0.67013845112E+02 -0.28542002046E+03  0.31905636216E+03  0.00000000000E+00 0.  1.
          1    1    3    3  501    0  0.15840331211E+03  0.81420523628E+02 -0.56936867110E+03  0.59657488599E+03  0.00000000000E+00 0.  1.
         21    1    1    2  502  501 -0.32540216985E+02 -0.14406678516E+02 -0.11203191146E+03  0.11754814883E+03  0.00000000000E+00 0.  1.
<mgrwt>
<rscale>  1 0.30000000E+03</rscale>
<asrwt>0</asrwt>
<pdfrwt beam="1">  1        1 0.12065261E+00 0.30000000E+03</pdfrwt>
<pdfrwt beam="2">0</pdfrwt>
<totfact> 0.25776396E+01</totfact>
</mgrwt>
</event>
<event>
 6    1  0.1875959E-004  0.3000000E+03  0.7818608E-02  0.1093470E+00
          1   -1    0    0  502    0  0.00000000000E+00  0.00000000000E+00  0.36920268029E+02  0.36920268029E+02  0.00000000000E+00 0.  1.
         13   -1    0    0    0    0 -0.00000000000E+00 -0.00000000000E+00 -0.10000000000E+04  0.10000000000E+04  0.00000000000E+00 0.  1.
    9000005    2    1    2  501    0 -0.15141006963E+02  0.16811206401E+02 -0.95803086757E+03  0.10137392891E+04  0.33065440612E+03 0.  0.
         13    1    3    3    0    0 -0.52750039033E+01 -0.63138412287E+01  0.27082763250E+02  0.28304881601E+02  0.00000000000E+00 0.  1.
          1    1    3    3  501    0 -0.98660030598E+01  0.23125047629E+02 -0.98511363082E+03  0.98543440750E+03  0.00000000000E+00 0.  1.
         21    1    1    2  502  501  0.15141006963E+02 -0.16811206401E+02 -0.50488643985E+01  0.23180978931E+02  0.00000000000E+00 0.  1.
<mgrwt>
<rscale>  1 0.30000000E+03</rscale>
<asrwt>0</asrwt>
<pdfrwt beam="1">  1        1 0.13425580E+00 0.30000000E+03</pdfrwt>
<pdfrwt beam="2">0</pdfrwt>
<totfact> 0.21700440E+01</totfact>
</mgrwt>
</event>
<event>
 6    1  0.1875959E-004  0.3000000E+03  0.7818608E-02  0.1093470E+00
          1   -1    0    0  502    0  0.00000000000E+00  0.00000000000E+00  0.28764846190E+02  0.28764846190E+02  0.00000000000E+00 0.  1.
         13   -1    0    0    0    0 -0.00000000000E+00 -0.00000000000E+00 -0.10000000000E+04  0.10000000000E+04  0.00000000000E+00 0.  1.
    9000005    2    1    2  501    0  0.11994576215E+02  0.22100823415E+01 -0.95930208785E+03  0.10117016582E+04  0.32114014861E+03 0.  0.
         13    1    3    3    0    0 -0.15033367894E+03 -0.60819045889E+01 -0.57673655839E+03  0.59603880945E+03  0.00000000000E+00 0.  1.
          3    1    3    3  501    0  0.16232825515E+03  0.82919869304E+01 -0.38256552946E+03  0.41566284871E+03  0.00000000000E+00 0.  1.
         21    1    1    2  502  501 -0.11994576215E+02 -0.22100823415E+01 -0.11933065960E+02  0.17063188029E+02  0.00000000000E+00 0. -1.
<mgrwt>
<rscale>  1 0.30000000E+03</rscale>
<asrwt>0</asrwt>
<pdfrwt beam="1">  1        1 0.10459966E+00 0.30000000E+03</pdfrwt>
<pdfrwt beam="2">0</pdfrwt>
<totfact> 0.32033843E+01</totfact>
</mgrwt>
</event>
<event>
 6    1  0.1875959E-004  0.3000000E+03  0.7818608E-02  0.1093470E+00
          1   -1    0    0  502    0  0.00000000000E+00  0.00000000000E+00  0.34799130683E+02  0.34799130683E+02  0.00000000000E+00 0.  1.
         13   -1    0    0    0    0 -0.00000000000E+00 -0.00000000000E+00 -0.10000000000E+04  0.10000000000E+04  0.00000000000E+00 0.  1.
    9000005    2    1    2  501    0  0.12318635776E+02 -0.28094476344E+01 -0.97362328645E+03  0.10196143062E+04  0.30250849204E+03 0.  0.
         13    1    3    3    0    0  0.64722653101E+02  0.43092349006E+02 -0.48010644503E+02  0.91383775108E+02  0.00000000000E+00 0.  1.
          3    1    3    3  501    0 -0.52404017325E+02 -0.45901796640E+02 -0.92561264195E+03  0.92823053112E+03  0.00000000000E+00 0.  1.
         21    1    1    2  502  501 -0.12318635776E+02  0.28094476344E+01  0.84224171336E+01  0.15184824456E+02  0.00000000000E+00 0. -1.
<mgrwt>
<rscale>  1 0.30000000E+03</rscale>
<asrwt>0</asrwt>
<pdfrwt beam="1">  1        1 0.12654256E+00 0.30000000E+03</pdfrwt>
<pdfrwt beam="2">0</pdfrwt>
<totfact> 0.23899974E+01</totfact>
</mgrwt>
</event>
<event>
 6    1  0.1875959E-004  0.3000000E+03  0.7818608E-02  0.1093470E+00
          1   -1    0    0  502    0  0.00000000000E+00  0.00000000000E+00  0.30436419415E+02  0.30436419415E+02  0.00000000000E+00 0.  1.
         13   -1    0    0    0    0 -0.00000000000E+00 -0.00000000000E+00 -0.10000000000E+04  0.10000000000E+04  0.00000000000E+00 0.  1.
    9000005    2    1    2  501    0 -0.14321293426E+02 -0.13741954585E+02 -0.91037116418E+03  0.96800499366E+03  0.32842665913E+03 0.  0.
         13    1    3    3    0    0  0.10273777178E+03  0.11329478150E+03 -0.49672314218E+03  0.51973516068E+03  0.00000000000E+00 0.  1.
          3    1    3    3  501    0 -0.11705906521E+03 -0.12703673609E+03 -0.41364802200E+03  0.44826983299E+03  0.00000000000E+00 0.  1.
         21    1    1    2  502  501  0.14321293426E+02  0.13741954585E+02 -0.59192416406E+02  0.62431425750E+02  0.00000000000E+00 0.  1.
<mgrwt>
<rscale>  1 0.30000000E+03</rscale>
<asrwt>0</asrwt>
<pdfrwt beam="1">  1        1 0.11067812E+00 0.30000000E+03</pdfrwt>
<pdfrwt beam="2">0</pdfrwt>
<totfact> 0.29434957E+01</totfact>
</mgrwt>
</event>
<event>
 6    1  0.1875959E-004  0.3000000E+03  0.7818608E-02  0.1093470E+00
          1   -1    0    0  502    0  0.00000000000E+00  0.00000000000E+00  0.29255528363E+02  0.29255528363E+02  0.00000000000E+00 0.  1.
         13   -1    0    0    0    0 -0.00000000000E+00 -0.00000000000E+00 -0.10000000000E+04  0.10000000000E+04  0.00000000000E+00 0.  1.
    9000005    2    1    2  501    0 -0.44408075582E+01  0.16205069669E+02 -0.94159011789E+03  0.99560584193E+03  0.32304290322E+03 0.  0.
         13    1    3    3    0    0 -0.10655423728E+02 -0.11916170558E+03 -0.14694040958E+03  0.18948491786E+03  0.00000000000E+00 0.  1.
          3    1    3    3  501    0  0.62146161701E+01  0.13536677524E+03 -0.79464970832E+03  0.80612092407E+03  0.00000000000E+00 0.  1.
         21    1    1    2  502  501  0.44408075582E+01 -0.16205069669E+02 -0.29154353743E+02  0.33649686431E+02  0.00000000000E+00 0. -1.
<mgrwt>
<rscale>  1 0.30000000E+03</rscale>
<asrwt>0</asrwt>
<pdfrwt beam="1">  1        1 0.10638396E+00 0.30000000E+03</pdfrwt>
<pdfrwt beam="2">0</pdfrwt>
<totfact> 0.31237885E+01</totfact>
</mgrwt>
</event>
<event>
 6    1  0.1875959E-004  0.3000000E+03  0.7818608E-02  0.1093470E+00
          1   -1    0    0  502    0  0.00000000000E+00  0.00000000000E+00  0.48330693829E+02  0.48330693829E+02  0.00000000000E+00 0.  1.
         13   -1    0    0    0    0 -0.00000000000E+00 -0.00000000000E+00 -0.10000000000E+04  0.10000000000E+04  0.00000000000E+00 0.  1.
    9000005    2    1    2  501    0  0.38304810205E+02 -0.44941679436E+02 -0.91515414199E+03  0.97890180755E+03  0.34242463723E+03 0.  0.
         13    1    3    3    0    0  0.21557847832E+01 -0.54637002034E+02  0.77614841658E+01  0.55227620226E+02  0.00000000000E+00 0.  1.
          3    1    3    3  501    0  0.36149025422E+02  0.96953225987E+01 -0.92291562616E+03  0.92367418732E+03  0.00000000000E+00 0.  1.
         21    1    1    2  502  501 -0.38304810205E+02  0.44941679436E+02 -0.36515164180E+02  0.69428886283E+02  0.00000000000E+00 0.  1.
<mgrwt>
<rscale>  1 0.30000000E+03</rscale>
<asrwt>0</asrwt>
<pdfrwt beam="1">  1        1 0.17574835E+00 0.30000000E+03</pdfrwt>
<pdfrwt beam="2">0</pdfrwt>
<totfact> 0.13395236E+01</totfact>
</mgrwt>
</event>
<event>
 6    1  0.1875959E-004  0.3000000E+03  0.7818608E-02  0.1093470E+00
          1   -1    0    0  502    0  0.00000000000E+00  0.00000000000E+00  0.55396717953E+02  0.55396717953E+02  0.00000000000E+00 0.  1.
         13   -1    0    0    0    0 -0.00000000000E+00 -0.00000000000E+00 -0.10000000000E+04  0.10000000000E+04  0.00000000000E+00 0.  1.
    9000005    2    1    2  501    0  0.22830313746E+02 -0.39723116779E+01 -0.97230597527E+03  0.10192796625E+04  0.30498380003E+03 0.  0.
         13    1    3    3    0    0  0.72367035057E+02  0.13376635151E+03 -0.60642087357E+03  0.62520132794E+03  0.00000000000E+00 0.  1.
          3    1    3    3  501    0 -0.49536721311E+02 -0.13773866319E+03 -0.36588510170E+03  0.39407833452E+03  0.00000000000E+00 0.  1.
         21    1    1    2  502  501 -0.22830313746E+02  0.39723116779E+01  0.27702693219E+02  0.36117055492E+02  0.00000000000E+00 0. -1.
<mgrwt>
<rscale>  1 0.30000000E+03</rscale>
<asrwt>0</asrwt>
<pdfrwt beam="1">  1        1 0.20144304E+00 0.30000000E+03</pdfrwt>
<pdfrwt beam="2">0</pdfrwt>
<totfact> 0.10082958E+01</totfact>
</mgrwt>
</event>
<event>
 6    1  0.1875959E-004  0.3000000E+03  0.7818608E-02  0.1093470E+00
          1   -1    0    0  502    0  0.00000000000E+00  0.00000000000E+00  0.44823367096E+02  0.44823367096E+02  0.00000000000E+00 0.  1.
         13   -1    0    0    0    0 -0.00000000000E+00 -0.00000000000E+00 -0.10000000000E+04  0.10000000000E+04  0.00000000000E+00 0.  1.
    9000005    2    1    2  501    0  0.48367407223E+01  0.10832748782E+02 -0.96328572434E+03  0.10304532637E+04  0.36575100751E+03 0.  0.
         13    1    3    3    0    0  0.64284230044E+02 -0.95823094857E+01  0.12470050646E+00  0.64994603142E+02  0.00000000000E+00 0.  1.
          3    1    3    3  501    0 -0.59447489322E+02  0.20415058268E+02 -0.96341042485E+03  0.96545866058E+03  0.00000000000E+00 0.  1.
         21    1    1    2  502  501 -0.48367407223E+01 -0.10832748782E+02  0.81090914357E+01  0.14370103372E+02  0.00000000000E+00 0. -1.
<mgrwt>
<rscale>  1 0.30000000E+03</rscale>
<asrwt>0</asrwt>
<pdfrwt beam="1">  1        1 0.16299441E+00 0.30000000E+03</pdfrwt>
<pdfrwt beam="2">0</pdfrwt>
<totfact> 0.15465630E+01</totfact>
</mgrwt>
</event>
<event>
 6    1  0.1875959E-004  0.3000000E+03  0.7818608E-02  0.1093470E+00
          1   -1    0    0  502    0  0.00000000000E+00  0.00000000000E+00  0.83704570917E+02  0.83704570917E+02  0.00000000000E+00 0.  1.
         13   -1    0    0    0    0 -0.00000000000E+00 -0.00000000000E+00 -0.10000000000E+04  0.10000000000E+04  0.00000000000E+00 0.  1.
    9000005    2    1    2  501    0  0.94599130716E+02  0.60937644307E+02 -0.89120164544E+03  0.96841324425E+03  0.36183068801E+03 0.  0.
         13    1    3    3    0    0 -0.43124720436E+02 -0.23316638689E+02  0.12345268792E+02  0.50555047364E+02  0.00000000000E+00 0.  1.
          1    1    3    3  501    0  0.13772385115E+03  0.84254282996E+02 -0.90354691423E+03  0.91785819689E+03  0.00000000000E+00 0.  1.
         21    1    1    2  502  501 -0.94599130716E+02 -0.60937644307E+02 -0.25093783643E+02  0.11529132666E+03  0.00000000000E+00 0.  1.
<mgrwt>
<rscale>  1 0.30000000E+03</rscale>
<asrwt>0</asrwt>
<pdfrwt beam="1">  1        1 0.30438090E+00 0.30000000E+03</pdfrwt>
<pdfrwt beam="2">0</pdfrwt>
<totfact> 0.33116910E+00</totfact>
</mgrwt>
</event>
<event>
 6    1  0.1875959E-004  0.3000000E+03  0.7818608E-02  0.1093470E+00
          1   -1    0    0  502    0  0.00000000000E+00  0.00000000000E+00  0.30337705935E+02  0.30337705935E+02  0.00000000000E+00 0.  1.
         13   -1    0    0    0    0 -0.00000000000E+00 -0.00000000000E+00 -0.10000000000E+04  0.10000000000E+04  0.00000000000E+00 0.  1.
    9000005    2    1    2  501    0 -0.74858835644E+00 -0.12059062792E+02 -0.93875766486E+03  0.99715521829E+03  0.33601576548E+03 0.  0.
         13    1    3    3    0    0 -0.10491186004E+03  0.11148643932E+03 -0.28269965779E+03  0.32148844621E+03  0.00000000000E+00 0.  1.
          1    1    3    3  501    0  0.10416327169E+03 -0.12354550211E+03 -0.65605800706E+03  0.67566677208E+03  0.00000000000E+00 0.  1.
         21    1    1    2  502  501  0.74858835644E+00  0.12059062792E+02 -0.30904629209E+02  0.33182487648E+02  0.00000000000E+00 0. -1.
<mgrwt>
<rscale>  1 0.30000000E+03</rscale>
<asrwt>0</asrwt>
<pdfrwt beam="1">  1        1 0.11031916E+00 0.30000000E+03</pdfrwt>
<pdfrwt beam="2">0</pdfrwt>
<totfact> 0.29579908E+01</totfact>
</mgrwt>
</event>
<event>
 6    1  0.1875959E-004  0.3000000E+03  0.7818608E-02  0.1093470E+00
          1   -1    0    0  502    0  0.00000000000E+00  0.00000000000E+00  0.40309043385E+02  0.40309043385E+02  0.00000000000E+00 0.  1.
         13   -1    0    0    0    0 -0.00000000000E+00 -0.00000000000E+00 -0.10000000000E+04  0.10000000000E+04  0.00000000000E+00 0.  1.
    9000005    2    1    2  501    0 -0.89487175189E+01 -0.20847110916E+02 -0.95391362163E+03  0.10168983796E+04  0.35159129020E+03 0.  0.
         13    1    3    3    0    0  0.61850564333E+02  0.10863615397E+03 -0.77480256096E+03  0.78482247338E+03  0.00000000000E+00 0.  1.
          1    1    3    3  501    0 -0.70799281852E+02 -0.12948326489E+03 -0.17911106067E+03  0.23207590623E+03  0.00000000000E+00 0.  1.
         21    1    1    2  502  501  0.89487175189E+01  0.20847110916E+02 -0.57773349839E+01  0.23410663773E+02  0.00000000000E+00 0. -1.
<mgrwt>
<rscale>  1 0.30000000E+03</rscale>
<asrwt>0</asrwt>
<pdfrwt beam="1">  1        1 0.14657865E+00 0.30000000E+03</pdfrwt>
<pdfrwt beam="2">0</pdfrwt>
<totfact> 0.18702904E+01</totfact>
</mgrwt>
</event>
<event>
 6    1  0.1875959E-004  0.3000000E+03  0.7818608E-02  0.1093470E+00
          3   -1    0    0  502    0  0.00000000000E+00  0.00000000000E+00  0.20203900761E+02  0.20203900761E+02  0.00000000000E+00 0.  1.
         13   -1    0    0    0    0 -0.00000000000E+00 -0.00000000000E+00 -0.10000000000E+04  0.10000000000E+04  0.00000000000E+00 0.  1.
    9000005    2    1    2  501    0  0.26461327664E+02  0.62341940192E+01 -0.92793012608E+03  0.96164498847E+03  0.25093365244E+03 0.  0.
         13    1    3    3    0    0  0.85906040473E+02  0.71104479755E+02 -0.79140357819E+03  0.79922169541E+03  0.00000000000E+00 0.  1.
          3    1    3    3  501    0 -0.59444712809E+02 -0.64870285735E+02 -0.13652654789E+03  0.16242329307E+03  0.00000000000E+00 0.  1.
         21    1    1    2  502  501 -0.26461327664E+02 -0.62341940192E+01 -0.51865973158E+02  0.58558912289E+02  0.00000000000E+00 0.  1.
<mgrwt>
<rscale>  1 0.30000000E+03</rscale>
<asrwt>0</asrwt>
<pdfrwt beam="1">  1        3 0.73468885E-01 0.30000000E+03</pdfrwt>
<pdfrwt beam="2">0</pdfrwt>
<totfact> 0.80553748E+00</totfact>
</mgrwt>
</event>
<event>
 6    1  0.1875959E-004  0.3000000E+03  0.7818608E-02  0.1093470E+00
          1   -1    0    0  502    0  0.00000000000E+00  0.00000000000E+00  0.43273002078E+02  0.43273002078E+02  0.00000000000E+00 0.  1.
         13   -1    0    0    0    0 -0.00000000000E+00 -0.00000000000E+00 -0.10000000000E+04  0.10000000000E+04  0.00000000000E+00 0.  1.
    9000005    2    1    2  501    0 -0.15477802196E+02  0.30747109654E+02 -0.90600282915E+03  0.98197138374E+03  0.37714947296E+03 0.  0.
         13    1    3    3    0    0 -0.97071646695E+02  0.36253444014E+02 -0.38375403782E+02  0.11049836384E+03  0.00000000000E+00 0.  1.
          3    1    3    3  501    0  0.81593844499E+02 -0.55063343603E+01 -0.86762742536E+03  0.87147301990E+03  0.00000000000E+00 0.  1.
         21    1    1    2  502  501  0.15477802196E+02 -0.30747109654E+02 -0.50724168777E+02  0.61301618339E+02  0.00000000000E+00 0.  1.
<mgrwt>
<rscale>  1 0.30000000E+03</rscale>
<asrwt>0</asrwt>
<pdfrwt beam="1">  1        1 0.15735670E+00 0.30000000E+03</pdfrwt>
<pdfrwt beam="2">0</pdfrwt>
<totfact> 0.16495600E+01</totfact>
</mgrwt>
</event>
<event>
 6    1  0.1875959E-004  0.3000000E+03  0.7818608E-02  0.1093470E+00
          1   -1    0    0  502    0  0.00000000000E+00  0.00000000000E+00  0.28410198890E+02  0.28410198890E+02  0.00000000000E+00 0.  1.
         13   -1    0    0    0    0 -0.00000000000E+00 -0.00000000000E+00 -0.10000000000E+04  0.10000000000E+04  0.00000000000E+00 0.  1.
    9000005    2    1    2  501    0  0.22636847366E+01  0.11249190833E+02 -0.95562025705E+03  0.10087456394E+04  0.32284055002E+03 0.  0.
         13    1    3    3    0    0 -0.13857181282E+03  0.11553270375E+02 -0.72737252987E+03  0.74054467966E+03  0.00000000000E+00 0.  1.
          1    1    3    3  501    0  0.14083549755E+03 -0.30407954214E+00 -0.22824772719E+03  0.26820095973E+03  0.00000000000E+00 0.  1.
         21    1    1    2  502  501 -0.22636847365E+01 -0.11249190833E+02 -0.15969544056E+02  0.19664559500E+02  0.00000000000E+00 0. -1.
<mgrwt>
<rscale>  1 0.30000000E+03</rscale>
<asrwt>0</asrwt>
<pdfrwt beam="1">  1        1 0.10331003E+00 0.30000000E+03</pdfrwt>
<pdfrwt beam="2">0</pdfrwt>
<totfact> 0.32627547E+01</totfact>
</mgrwt>
</event>
<event>
 6    1  0.1875959E-004  0.3000000E+03  0.7818608E-02  0.1093470E+00
          1   -1    0    0  502    0  0.00000000000E+00  0.00000000000E+00  0.31817909703E+02  0.31817909703E+02  0.00000000000E+00 0.  1.
         13   -1    0    0    0    0 -0.00000000000E+00 -0.00000000000E+00 -0.10000000000E+04  0.10000000000E+04  0.00000000000E+00 0.  1.
    9000005    2    1    2  501    0 -0.31505063258E+02 -0.12889226099E+02 -0.90958695349E+03  0.96405293927E+03  0.31763334617E+03 0.  0.
         13    1    3    3    0    0  0.12071405104E+03  0.22109826438E+02 -0.64690778945E+03  0.65844545302E+03  0.00000000000E+00 0.  1.
          1    1    3    3  501    0 -0.15221911430E+03 -0.34999052537E+02 -0.26267916403E+03  0.30560748625E+03  0.00000000000E+00 0.  1.
         21    1    1    2  502  501  0.31505063258E+02  0.12889226099E+02 -0.58595136807E+02  0.67764970433E+02  0.00000000000E+00 0. -1.
<mgrwt>
<rscale>  1 0.30000000E+03</rscale>
<asrwt>0</asrwt>
<pdfrwt beam="1">  1        1 0.11570173E+00 0.30000000E+03</pdfrwt>
<pdfrwt beam="2">0</pdfrwt>
<totfact> 0.27507865E+01</totfact>
</mgrwt>
</event>
<event>
 6    1  0.1875959E-004  0.3000000E+03  0.7818608E-02  0.1093470E+00
          1   -1    0    0  502    0  0.00000000000E+00  0.00000000000E+00  0.40503663565E+02  0.40503663565E+02  0.00000000000E+00 0.  1.
         13   -1    0    0    0    0 -0.00000000000E+00 -0.00000000000E+00 -0.10000000000E+04  0.10000000000E+04  0.00000000000E+00 0.  1.
    9000005    2    1    2  501    0  0.14711624743E+02  0.46802310605E+01 -0.96980266194E+03  0.10219414220E+04  0.32188310065E+03 0.  0.
         13    1    3    3    0    0 -0.82473679918E+02  0.13499932065E+03 -0.52739521139E+03  0.55061096380E+03  0.00000000000E+00 0.  1.
          3    1    3    3  501    0  0.97185304661E+02 -0.13031908959E+03 -0.44240745055E+03  0.47133045823E+03  0.00000000000E+00 0.  1.
         21    1    1    2  502  501 -0.14711624743E+02 -0.46802310605E+01  0.10306325507E+02  0.18562241535E+02  0.00000000000E+00 0.  1.
<mgrwt>
<rscale>  1 0.30000000E+03</rscale>
<asrwt>0</asrwt>
<pdfrwt beam="1">  1        1 0.14728636E+00 0.30000000E+03</pdfrwt>
<pdfrwt beam="2">0</pdfrwt>
<totfact> 0.18547194E+01</totfact>
</mgrwt>
</event>
<event>
 6    1  0.1875959E-004  0.3000000E+03  0.7818608E-02  0.1093470E+00
          1   -1    0    0  502    0  0.00000000000E+00  0.00000000000E+00  0.38079536352E+02  0.38079536352E+02  0.00000000000E+00 0.  1.
         13   -1    0    0    0    0 -0.00000000000E+00 -0.00000000000E+00 -0.10000000000E+04  0.10000000000E+04  0.00000000000E+00 0.  1.
    9000005    2    1    2  501    0  0.26011856946E+02 -0.75944707416E+01 -0.96242787453E+03  0.10109769506E+04  0.30833859364E+03 0.  0.
         13    1    3    3    0    0  0.72368544204E+02  0.12626825652E+03 -0.29831023668E+03  0.33191847810E+03  0.00000000000E+00 0.  1.
          3    1    3    3  501    0 -0.46356687258E+02 -0.13386272726E+03 -0.66411763784E+03  0.67905847252E+03  0.00000000000E+00 0.  1.
         21    1    1    2  502  501 -0.26011856946E+02  0.75944707416E+01  0.50741087862E+00  0.27102585733E+02  0.00000000000E+00 0. -1.
<mgrwt>
<rscale>  1 0.30000000E+03</rscale>
<asrwt>0</asrwt>
<pdfrwt beam="1">  1        1 0.13847133E+00 0.30000000E+03</pdfrwt>
<pdfrwt beam="2">0</pdfrwt>
<totfact> 0.20610099E+01</totfact>
</mgrwt>
</event>
<event>
 6    1  0.1875959E-004  0.3000000E+03  0.7818608E-02  0.1093470E+00
          1   -1    0    0  502    0  0.00000000000E+00  0.00000000000E+00  0.29486213649E+02  0.29486213649E+02  0.00000000000E+00 0.  1.
         13   -1    0    0    0    0 -0.00000000000E+00 -0.00000000000E+00 -0.10000000000E+04  0.10000000000E+04  0.00000000000E+00 0.  1.
    9000005    2    1    2  501    0  0.63913373669E+01 -0.77767931928E+01 -0.95771652372E+03  0.10132043944E+04  0.33054633172E+03 0.  0.
         13    1    3    3    0    0  0.12664041765E+03  0.10149842180E+03 -0.38315634177E+03  0.41611117174E+03  0.00000000000E+00 0.  1.
          1    1    3    3  501    0 -0.12024908028E+03 -0.10927521499E+03 -0.57456018195E+03  0.59709322270E+03  0.00000000000E+00 0.  1.
         21    1    1    2  502  501 -0.63913373669E+01  0.77767931928E+01 -0.12797262634E+02  0.16281819205E+02  0.00000000000E+00 0.  1.
<mgrwt>
<rscale>  1 0.30000000E+03</rscale>
<asrwt>0</asrwt>
<pdfrwt beam="1">  1        1 0.10722282E+00 0.30000000E+03</pdfrwt>
<pdfrwt beam="2">0</pdfrwt>
<totfact> 0.30873503E+01</totfact>
</mgrwt>
</event>
<event>
 6    1  0.1875959E-004  0.3000000E+03  0.7818608E-02  0.1093470E+00
          1   -1    0    0  502    0  0.00000000000E+00  0.00000000000E+00  0.63851695562E+02  0.63851695562E+02  0.00000000000E+00 0.  1.
         13   -1    0    0    0    0 -0.00000000000E+00 -0.00000000000E+00 -0.10000000000E+04  0.10000000000E+04  0.00000000000E+00 0.  1.
    9000005    2    1    2  501    0  0.61537882208E+02  0.48095808873E+02 -0.93448889351E+03  0.98573081857E+03  0.30380196971E+03 0.  0.
         13    1    3    3    0    0  0.96950165848E+02 -0.14127268937E+02 -0.90166236969E+03  0.90696964850E+03  0.00000000000E+00 0.  1.
          3    1    3    3  501    0 -0.35412283640E+02  0.62223077810E+02 -0.32826523825E+02  0.78761170072E+02  0.00000000000E+00 0.  1.
         21    1    1    2  502  501 -0.61537882208E+02 -0.48095808873E+02 -0.16594109271E+01  0.78120876994E+02  0.00000000000E+00 0.  1.
<mgrwt>
<rscale>  1 0.30000000E+03</rscale>
<asrwt>0</asrwt>
<pdfrwt beam="1">  1        1 0.23218847E+00 0.30000000E+03</pdfrwt>
<pdfrwt beam="2">0</pdfrwt>
<totfact> 0.72279110E+00</totfact>
</mgrwt>
</event>
<event>
 6    1  0.1875959E-004  0.3000000E+03  0.7818608E-02  0.1093470E+00
          1   -1    0    0  502    0  0.00000000000E+00  0.00000000000E+00  0.71297537162E+02  0.71297537162E+02  0.00000000000E+00 0.  1.
         13   -1    0    0    0    0 -0.00000000000E+00 -0.00000000000E+00 -0.10000000000E+04  0.10000000000E+04  0.00000000000E+00 0.  1.
    9000005    2    1    2  501    0  0.37033298721E+02  0.32491907714E+02 -0.95840172009E+03  0.10137715851E+04  0.32675951460E+03 0.  0.
         13    1    3    3    0    0  0.17494006136E+03 -0.12573160870E+02 -0.64492458113E+03  0.66834858030E+03  0.00000000000E+00 0.  1.
          3    1    3    3  501    0 -0.13790676264E+03  0.45065068584E+02 -0.31347713895E+03  0.34542300478E+03  0.00000000000E+00 0.  1.
         21    1    1    2  502  501 -0.37033298721E+02 -0.32491907714E+02  0.29699257249E+02  0.57525952075E+02  0.00000000000E+00 0.  1.
<mgrwt>
<rscale>  1 0.30000000E+03</rscale>
<asrwt>0</asrwt>
<pdfrwt beam="1">  1        1 0.25926432E+00 0.30000000E+03</pdfrwt>
<pdfrwt beam="2">0</pdfrwt>
<totfact> 0.54010674E+00</totfact>
</mgrwt>
</event>
<event>
 6    1  0.1875959E-004  0.3000000E+03  0.7818608E-02  0.1093470E+00
          1   -1    0    0  502    0  0.00000000000E+00  0.00000000000E+00  0.37663406838E+02  0.37663406838E+02  0.00000000000E+00 0.  1.
         13   -1    0    0    0    0 -0.00000000000E+00 -0.00000000000E+00 -0.10000000000E+04  0.10000000000E+04  0.00000000000E+00 0.  1.
    9000005    2    1    2  501    0  0.21519283279E+02  0.15373740720E+02 -0.95433535284E+03  0.10100327843E+04  0.32971325143E+03 0.  0.
         13    1    3    3    0    0 -0.15361746990E+03  0.18042378600E+02 -0.40969377081E+03  0.43791875996E+03  0.00000000000E+00 0.  1.
          1    1    3    3  501    0  0.17513675318E+03 -0.26686378796E+01 -0.54464158203E+03  0.57211402431E+03  0.00000000000E+00 0.  1.
         21    1    1    2  502  501 -0.21519283279E+02 -0.15373740720E+02 -0.80012403202E+01  0.27630622563E+02  0.00000000000E+00 0. -1.
<mgrwt>
<rscale>  1 0.30000000E+03</rscale>
<asrwt>0</asrwt>
<pdfrwt beam="1">  1        1 0.13695813E+00 0.30000000E+03</pdfrwt>
<pdfrwt beam="2">0</pdfrwt>
<totfact> 0.20993074E+01</totfact>
</mgrwt>
</event>
<event>
 6    1  0.1875959E-004  0.3000000E+03  0.7818608E-02  0.1093470E+00
          1   -1    0    0  502    0  0.00000000000E+00  0.00000000000E+00  0.33157594498E+02  0.33157594498E+02  0.00000000000E+00 0.  1.
         13   -1    0    0    0    0 -0.00000000000E+00 -0.00000000000E+00 -0.10000000000E+04  0.10000000000E+04  0.00000000000E+00 0.  1.
    9000005    2    1    2  501    0 -0.76588563101E+01  0.84154017901E+01 -0.97338002341E+03  0.10200344274E+04  0.30474921823E+03 0.  0.
         13    1    3    3    0    0  0.60801473479E+02 -0.13388325457E+03 -0.46555946651E+03  0.48822859593E+03  0.00000000000E+00 0.  1.
          3    1    3    3  501    0 -0.68460329789E+02  0.14229865636E+03 -0.50782055690E+03  0.53180583145E+03  0.00000000000E+00 0.  1.
         21    1    1    2  502  501  0.76588563101E+01 -0.84154017901E+01  0.65376179031E+01  0.13123167114E+02  0.00000000000E+00 0.  1.
<mgrwt>
<rscale>  1 0.30000000E+03</rscale>
<asrwt>0</asrwt>
<pdfrwt beam="1">  1        1 0.12057333E+00 0.30000000E+03</pdfrwt>
<pdfrwt beam="2">0</pdfrwt>
<totfact> 0.25802945E+01</totfact>
</mgrwt>
</event>
<event>
 6    1  0.1875959E-004  0.3000000E+03  0.7818608E-02  0.1093470E+00
          1   -1    0    0  502    0  0.00000000000E+00  0.00000000000E+00  0.31369390479E+02  0.31369390479E+02  0.00000000000E+00 0.  1.
         13   -1    0    0    0    0 -0.00000000000E+00 -0.00000000000E+00 -0.10000000000E+04  0.10000000000E+04  0.00000000000E+00 0.  1.
    9000005    2    1    2  501    0  0.20046217146E+01 -0.18156554411E+02 -0.95404629468E+03  0.10079945918E+04  0.32483085694E+03 0.  0.
         13    1    3    3    0    0 -0.92262286530E+02 -0.99621691416E+02 -0.79217338772E+03  0.80372600252E+03  0.00000000000E+00 0.  1.
          3    1    3    3  501    0  0.94266908245E+02  0.81465137005E+02 -0.16187290697E+03  0.20426858923E+03  0.00000000000E+00 0.  1.
         21    1    1    2  502  501 -0.20046217146E+01  0.18156554411E+02 -0.14584314838E+02  0.23374798728E+02  0.00000000000E+00 0. -1.
<mgrwt>
<rscale>  1 0.30000000E+03</rscale>
<asrwt>0</asrwt>
<pdfrwt beam="1">  1        1 0.11407075E+00 0.30000000E+03</pdfrwt>
<pdfrwt beam="2">0</pdfrwt>
<totfact> 0.28113394E+01</totfact>
</mgrwt>
</event>
<event>
 6    1  0.1875959E-004  0.3000000E+03  0.7818608E-02  0.1093470E+00
          1   -1    0    0  502    0  0.00000000000E+00  0.00000000000E+00  0.46911560892E+02  0.46911560892E+02  0.00000000000E+00 0.  1.
         13   -1    0    0    0    0 -0.00000000000E+00 -0.00000000000E+00 -0.10000000000E+04  0.10000000000E+04  0.00000000000E+00 0.  1.
    9000005    2    1    2  501    0 -0.27148785402E+02  0.29935111012E+02 -0.95524697895E+03  0.10064414891E+04  0.31431594403E+03 0.  0.
         13    1    3    3    0    0  0.86802056741E+02  0.13058888229E+03 -0.59736991309E+03  0.61760737228E+03  0.00000000000E+00 0.  1.
          3    1    3    3  501    0 -0.11395084214E+03 -0.10065377127E+03 -0.35787706587E+03  0.38883411678E+03  0.00000000000E+00 0.  1.
         21    1    1    2  502  501  0.27148785402E+02 -0.29935111012E+02  0.21585398465E+01  0.40470071836E+02  0.00000000000E+00 0.  1.
<mgrwt>
<rscale>  1 0.30000000E+03</rscale>
<asrwt>0</asrwt>
<pdfrwt beam="1">  1        1 0.17058785E+00 0.30000000E+03</pdfrwt>
<pdfrwt beam="2">0</pdfrwt>
<totfact> 0.14193025E+01</totfact>
</mgrwt>
</event>
<event>
 6    1  0.1875959E-004  0.3000000E+03  0.7818608E-02  0.1093470E+00
          1   -1    0    0  502    0  0.00000000000E+00  0.00000000000E+00  0.31580492714E+02  0.31580492714E+02  0.00000000000E+00 0.  1.
         13   -1    0    0    0    0 -0.00000000000E+00 -0.00000000000E+00 -0.10000000000E+04  0.10000000000E+04  0.00000000000E+00 0.  1.
    9000005    2    1    2  501    0  0.13524536153E+02  0.99972054224E+00 -0.96539039824E+03  0.10176848811E+04  0.32174521562E+03 0.  0.
         13    1    3    3    0    0  0.14057079262E+03  0.48092794172E+02 -0.73948297036E+03  0.75425998703E+03  0.00000000000E+00 0.  1.
          1    1    3    3  501    0 -0.12704625646E+03 -0.47093073630E+02 -0.22590742788E+03  0.26342489411E+03  0.00000000000E+00 0.  1.
         21    1    1    2  502  501 -0.13524536153E+02 -0.99972054224E+00 -0.30291090479E+01  0.13895611572E+02  0.00000000000E+00 0. -1.
<mgrwt>
<rscale>  1 0.30000000E+03</rscale>
<asrwt>0</asrwt>
<pdfrwt beam="1">  1        1 0.11483840E+00 0.30000000E+03</pdfrwt>
<pdfrwt beam="2">0</pdfrwt>
<totfact> 0.27826086E+01</totfact>
</mgrwt>
</event>
<event>
 6    1  0.1875959E-004  0.3000000E+03  0.7818608E-02  0.1093470E+00
          1   -1    0    0  502    0  0.00000000000E+00  0.00000000000E+00  0.37619350868E+02  0.37619350868E+02  0.00000000000E+00 0.  1.
         13   -1    0    0    0    0 -0.00000000000E+00 -0.00000000000E+00 -0.10000000000E+04  0.10000000000E+04  0.00000000000E+00 0.  1.
    9000005    2    1    2  501    0 -0.21149388931E+02 -0.67079021319E+01 -0.96533914204E+03  0.10152353100E+04  0.31357739557E+03 0.  0.
         13    1    3    3    0    0 -0.14912662300E+03  0.49134578998E+02 -0.34009733573E+03  0.37459198378E+03  0.00000000000E+00 0.  1.
          1    1    3    3  501    0  0.12797723407E+03 -0.55842481130E+02 -0.62524180631E+03  0.64064332627E+03  0.00000000000E+00 0.  1.
         21    1    1    2  502  501  0.21149388931E+02  0.67079021319E+01  0.29584929051E+01  0.22384040820E+02  0.00000000000E+00 0. -1.
<mgrwt>
<rscale>  1 0.30000000E+03</rscale>
<asrwt>0</asrwt>
<pdfrwt beam="1">  1        1 0.13679793E+00 0.30000000E+03</pdfrwt>
<pdfrwt beam="2">0</pdfrwt>
<totfact> 0.21034152E+01</totfact>
</mgrwt>
</event>
<event>
 6    1  0.1875959E-004  0.3000000E+03  0.7818608E-02  0.1093470E+00
          1   -1    0    0  502    0  0.00000000000E+00  0.00000000000E+00  0.33050101414E+02  0.33050101414E+02  0.00000000000E+00 0.  1.
         13   -1    0    0    0    0 -0.00000000000E+00 -0.00000000000E+00 -0.10000000000E+04  0.10000000000E+04  0.00000000000E+00 0.  1.
    9000005    2    1    2  501    0 -0.37132092890E+02 -0.64125816791E+01 -0.86291032088E+03  0.92239682647E+03  0.32370012369E+03 0.  0.
         13    1    3    3    0    0  0.47739476916E+02 -0.21341819791E+02 -0.82762918598E+03  0.82927956711E+03  0.00000000000E+00 0.  1.
          3    1    3    3  501    0 -0.84871569807E+02  0.14929238111E+02 -0.35281134896E+02  0.93117259364E+02  0.00000000000E+00 0.  1.
         21    1    1    2  502  501  0.37132092890E+02  0.64125816791E+01 -0.10403957771E+03  0.11065327494E+03  0.00000000000E+00 0.  1.
<mgrwt>
<rscale>  1 0.30000000E+03</rscale>
<asrwt>0</asrwt>
<pdfrwt beam="1">  1        1 0.12018244E+00 0.30000000E+03</pdfrwt>
<pdfrwt beam="2">0</pdfrwt>
<totfact> 0.25934372E+01</totfact>
</mgrwt>
</event>
<event>
 6    1  0.1875959E-004  0.3000000E+03  0.7818608E-02  0.1093470E+00
          1   -1    0    0  502    0  0.00000000000E+00  0.00000000000E+00  0.36759150801E+02  0.36759150801E+02  0.00000000000E+00 0.  1.
         13   -1    0    0    0    0 -0.00000000000E+00 -0.00000000000E+00 -0.10000000000E+04  0.10000000000E+04  0.00000000000E+00 0.  1.
    9000005    2    1    2  501    0 -0.10896574831E+02  0.17393829724E+01 -0.96220044618E+03  0.10256756841E+04  0.35504809462E+03 0.  0.
         13    1    3    3    0    0  0.38031754897E+02 -0.54158684381E+02 -0.94767365339E+03  0.94998154235E+03  0.00000000000E+00 0.  1.
          1    1    3    3  501    0 -0.48928329728E+02  0.55898067353E+02 -0.14526792788E+02  0.75694141732E+02  0.00000000000E+00 0.  1.
         21    1    1    2  502  501  0.10896574831E+02 -0.17393829724E+01 -0.10404030235E+01  0.11083466724E+02  0.00000000000E+00 0. -1.
<mgrwt>
<rscale>  1 0.30000000E+03</rscale>
<asrwt>0</asrwt>
<pdfrwt beam="1">  1        1 0.13366992E+00 0.30000000E+03</pdfrwt>
<pdfrwt beam="2">0</pdfrwt>
<totfact> 0.21857968E+01</totfact>
</mgrwt>
</event>
<event>
 6    1  0.1875959E-004  0.3000000E+03  0.7818608E-02  0.1093470E+00
          1   -1    0    0  502    0  0.00000000000E+00  0.00000000000E+00  0.22162706166E+02  0.22162706166E+02  0.00000000000E+00 0.  1.
         13   -1    0    0    0    0 -0.00000000000E+00 -0.00000000000E+00 -0.10000000000E+04  0.10000000000E+04  0.00000000000E+00 0.  1.
    9000005    2    1    2  501    0 -0.74177563104E+01 -0.10721417585E+02 -0.96127760690E+03  0.10010867688E+04  0.27919546785E+03 0.  0.
         13    1    3    3    0    0 -0.97485235475E+02 -0.68409775944E+02 -0.79161851596E+03  0.80052679117E+03  0.00000000000E+00 0.  1.
          3    1    3    3  501    0  0.90067479165E+02  0.57688358359E+02 -0.16965909095E+03  0.20055997765E+03  0.00000000000E+00 0.  1.
         21    1    1    2  502  501  0.74177563104E+01  0.10721417585E+02 -0.16559686930E+02  0.21075937344E+02  0.00000000000E+00 0.  1.
<mgrwt>
<rscale>  1 0.30000000E+03</rscale>
<asrwt>0</asrwt>
<pdfrwt beam="1">  1        1 0.80591829E-01 0.30000000E+03</pdfrwt>
<pdfrwt beam="2">0</pdfrwt>
<totfact> 0.46489318E+01</totfact>
</mgrwt>
</event>
<event>
 6    1  0.1875959E-004  0.3000000E+03  0.7818608E-02  0.1093470E+00
          1   -1    0    0  502    0  0.00000000000E+00  0.00000000000E+00  0.30153146662E+02  0.30153146662E+02  0.00000000000E+00 0.  1.
         13   -1    0    0    0    0 -0.00000000000E+00 -0.00000000000E+00 -0.10000000000E+04  0.10000000000E+04  0.00000000000E+00 0.  1.
    9000005    2    1    2  501    0 -0.94946000638E+01  0.18210998245E+02 -0.92381691779E+03  0.97974934865E+03  0.32565211607E+03 0.  0.
         13    1    3    3    0    0 -0.16366407599E+03 -0.93754268145E+01 -0.38055479439E+03  0.41436189488E+03  0.00000000000E+00 0.  1.
          1    1    3    3  501    0  0.15416947593E+03  0.27586425059E+02 -0.54326212340E+03  0.56538745377E+03  0.00000000000E+00 0.  1.
         21    1    1    2  502  501  0.94946000638E+01 -0.18210998245E+02 -0.46029935550E+02  0.50403798013E+02  0.00000000000E+00 0.  1.
<mgrwt>
<rscale>  1 0.30000000E+03</rscale>
<asrwt>0</asrwt>
<pdfrwt beam="1">  1        1 0.10964804E+00 0.30000000E+03</pdfrwt>
<pdfrwt beam="2">0</pdfrwt>
<totfact> 0.29853646E+01</totfact>
</mgrwt>
</event>
<event>
 6    1  0.1875959E-004  0.3000000E+03  0.7818608E-02  0.1093470E+00
          1   -1    0    0  502    0  0.00000000000E+00  0.00000000000E+00  0.27729381756E+02  0.27729381756E+02  0.00000000000E+00 0.  1.
         13   -1    0    0    0    0 -0.00000000000E+00 -0.00000000000E+00 -0.10000000000E+04  0.10000000000E+04  0.00000000000E+00 0.  1.
    9000005    2    1    2  501    0 -0.84379507092E+01 -0.36362930040E+01 -0.94577028770E+03  0.99968140219E+03  0.32372372039E+03 0.  0.
         13    1    3    3    0    0 -0.15520112268E+03  0.48092448567E+02 -0.57656633678E+03  0.59902338251E+03  0.00000000000E+00 0.  1.
          3    1    3    3  501    0  0.14676317197E+03 -0.51728741571E+02 -0.36920395093E+03  0.40065801968E+03  0.00000000000E+00 0.  1.
         21    1    1    2  502  501  0.84379507092E+01  0.36362930040E+01 -0.26500330540E+02  0.28047979565E+02  0.00000000000E+00 0.  1.
<mgrwt>
<rscale>  1 0.30000000E+03</rscale>
<asrwt>0</asrwt>
<pdfrwt beam="1">  1        1 0.10083433E+00 0.30000000E+03</pdfrwt>
<pdfrwt beam="2">0</pdfrwt>
<totfact> 0.33813141E+01</totfact>
</mgrwt>
</event>
<event>
 6    1  0.1875959E-004  0.3000000E+03  0.7818608E-02  0.1093470E+00
          1   -1    0    0  502    0  0.00000000000E+00  0.00000000000E+00  0.31594479597E+02  0.31594479597E+02  0.00000000000E+00 0.  1.
         13   -1    0    0    0    0 -0.00000000000E+00 -0.00000000000E+00 -0.10000000000E+04  0.10000000000E+04  0.00000000000E+00 0.  1.
    9000005    2    1    2  501    0  0.18351406664E+02  0.94385268931E+01 -0.95006626394E+03  0.10039867226E+04  0.32394069434E+03 0.  0.
         13    1    3    3    0    0  0.79592979513E+02  0.75946901065E+02 -0.98595796114E+02  0.14772983849E+03  0.00000000000E+00 0.  1.
          1    1    3    3  501    0 -0.61241572849E+02 -0.66508374172E+02 -0.85147046782E+03  0.85625688415E+03  0.00000000000E+00 0.  1.
         21    1    1    2  502  501 -0.18351406664E+02 -0.94385268931E+01 -0.18339256466E+02  0.27607756956E+02  0.00000000000E+00 0. -1.
<mgrwt>
<rscale>  1 0.30000000E+03</rscale>
<asrwt>0</asrwt>
<pdfrwt beam="1">  1        1 0.11488926E+00 0.30000000E+03</pdfrwt>
<pdfrwt beam="2">0</pdfrwt>
<totfact> 0.27807196E+01</totfact>
</mgrwt>
</event>
<event>
 6    1  0.1875959E-004  0.3000000E+03  0.7818608E-02  0.1093470E+00
          1   -1    0    0  502    0  0.00000000000E+00  0.00000000000E+00  0.29211819590E+02  0.29211819590E+02  0.00000000000E+00 0.  1.
         13   -1    0    0    0    0 -0.00000000000E+00 -0.00000000000E+00 -0.10000000000E+04  0.10000000000E+04  0.00000000000E+00 0.  1.
    9000005    2    1    2  501    0  0.50343206739E+01  0.80058675838E+01 -0.95846894026E+03  0.10136811410E+04  0.32984436910E+03 0.  0.
         13    1    3    3    0    0  0.14770733506E+03  0.81422311815E+02 -0.45450028947E+03  0.48478610006E+03  0.00000000000E+00 0.  1.
          1    1    3    3  501    0 -0.14267301438E+03 -0.73416444232E+02 -0.50396865079E+03  0.52889504091E+03  0.00000000000E+00 0.  1.
         21    1    1    2  502  501 -0.50343206739E+01 -0.80058675838E+01 -0.12319240152E+02  0.15530678618E+02  0.00000000000E+00 0. -1.
<mgrwt>
<rscale>  1 0.30000000E+03</rscale>
<asrwt>0</asrwt>
<pdfrwt beam="1">  1        1 0.10622502E+00 0.30000000E+03</pdfrwt>
<pdfrwt beam="2">0</pdfrwt>
<totfact> 0.31307622E+01</totfact>
</mgrwt>
</event>
<event>
 6    1  0.1875959E-004  0.3000000E+03  0.7818608E-02  0.1093470E+00
          1   -1    0    0  502    0  0.00000000000E+00  0.00000000000E+00  0.76151658731E+02  0.76151658731E+02  0.00000000000E+00 0.  1.
         13   -1    0    0    0    0 -0.00000000000E+00 -0.00000000000E+00 -0.10000000000E+04  0.10000000000E+04  0.00000000000E+00 0.  1.
    9000005    2    1    2  501    0  0.92476696626E+02 -0.18343856762E+02 -0.92098979169E+03  0.98182982772E+03  0.32692381023E+03 0.  0.
         13    1    3    3    0    0 -0.24543131218E+02  0.85429884069E+02 -0.72806172931E+03  0.73346745809E+03  0.00000000000E+00 0.  1.
          3    1    3    3  501    0  0.11701982784E+03 -0.10377374083E+03 -0.19292806238E+03  0.24836236963E+03  0.00000000000E+00 0.  1.
         21    1    1    2  502  501 -0.92476696626E+02  0.18343856762E+02 -0.28585495749E+01  0.94321831012E+02  0.00000000000E+00 0.  1.
<mgrwt>
<rscale>  1 0.30000000E+03</rscale>
<asrwt>0</asrwt>
<pdfrwt beam="1">  1        1 0.27691571E+00 0.30000000E+03</pdfrwt>
<pdfrwt beam="2">0</pdfrwt>
<totfact> 0.44635537E+00</totfact>
</mgrwt>
</event>
<event>
 6    1  0.1875959E-004  0.3000000E+03  0.7818608E-02  0.1093470E+00
          1   -1    0    0  502    0  0.00000000000E+00  0.00000000000E+00  0.31457289149E+02  0.31457289149E+02  0.00000000000E+00 0.  1.
         13   -1    0    0    0    0 -0.00000000000E+00 -0.00000000000E+00 -0.10000000000E+04  0.10000000000E+04  0.00000000000E+00 0.  1.
    9000005    2    1    2  501    0 -0.33410219806E+01  0.12279911152E+02 -0.95748355754E+03  0.10145971730E+04  0.33536651858E+03 0.  0.
         13    1    3    3    0    0  0.38983249683E+02 -0.15277544721E+03 -0.56786238279E+03  0.58934515932E+03  0.00000000000E+00 0.  1.
          1    1    3    3  501    0 -0.42324271664E+02  0.16505535836E+03 -0.38962117476E+03  0.42525201365E+03  0.00000000000E+00 0.  1.
         21    1    1    2  502  501  0.33410219806E+01 -0.12279911152E+02 -0.11059153307E+02  0.16860116181E+02  0.00000000000E+00 0. -1.
<mgrwt>
<rscale>  1 0.30000000E+03</rscale>
<asrwt>0</asrwt>
<pdfrwt beam="1">  1        1 0.11439038E+00 0.30000000E+03</pdfrwt>
<pdfrwt beam="2">0</pdfrwt>
<totfact> 0.27993259E+01</totfact>
</mgrwt>
</event>
<event>
 6    1  0.1875959E-004  0.3000000E+03  0.7818608E-02  0.1093470E+00
          1   -1    0    0  502    0  0.00000000000E+00  0.00000000000E+00  0.37566169829E+02  0.37566169829E+02  0.00000000000E+00 0.  1.
         13   -1    0    0    0    0 -0.00000000000E+00 -0.00000000000E+00 -0.10000000000E+04  0.10000000000E+04  0.00000000000E+00 0.  1.
    9000005    2    1    2  501    0  0.48421580903E+02  0.12365124945E+02 -0.93656786144E+03  0.98129367077E+03  0.28858337340E+03 0.  0.
         13    1    3    3    0    0  0.86311117998E+01 -0.55681359336E+02 -0.17714496439E+02  0.59065330377E+02  0.00000000000E+00 0.  1.
          1    1    3    3  501    0  0.39790469104E+02  0.68046484281E+02 -0.91885336500E+03  0.92222834039E+03  0.00000000000E+00 0.  1.
         21    1    1    2  502  501 -0.48421580903E+02 -0.12365124945E+02 -0.25865968735E+02  0.56272499062E+02  0.00000000000E+00 0.  1.
<mgrwt>
<rscale>  1 0.30000000E+03</rscale>
<asrwt>0</asrwt>
<pdfrwt beam="1">  1        1 0.13660454E+00 0.30000000E+03</pdfrwt>
<pdfrwt beam="2">0</pdfrwt>
<totfact> 0.21083876E+01</totfact>
</mgrwt>
</event>
<event>
 6    1  0.1875959E-004  0.3000000E+03  0.7818608E-02  0.1093470E+00
          1   -1    0    0  502    0  0.00000000000E+00  0.00000000000E+00  0.42101549969E+02  0.42101549969E+02  0.00000000000E+00 0.  1.
         13   -1    0    0    0    0 -0.00000000000E+00 -0.00000000000E+00 -0.10000000000E+04  0.10000000000E+04  0.00000000000E+00 0.  1.
    9000005    2    1    2  501    0  0.19556883667E+00  0.16699943474E+02 -0.96872351086E+03  0.10221990802E+04  0.32586315040E+03 0.  0.
         13    1    3    3    0    0  0.14515556825E+03  0.75131409654E+02 -0.59664130197E+03  0.61862404652E+03  0.00000000000E+00 0.  1.
          1    1    3    3  501    0 -0.14495999942E+03 -0.58431466180E+02 -0.37208220889E+03  0.40357503372E+03  0.00000000000E+00 0.  1.
         21    1    1    2  502  501 -0.19556883667E+00 -0.16699943474E+02  0.10825060833E+02  0.19902469727E+02  0.00000000000E+00 0. -1.
<mgrwt>
<rscale>  1 0.30000000E+03</rscale>
<asrwt>0</asrwt>
<pdfrwt beam="1">  1        1 0.15309687E+00 0.30000000E+03</pdfrwt>
<pdfrwt beam="2">0</pdfrwt>
<totfact> 0.17327838E+01</totfact>
</mgrwt>
</event>
<event>
 6    1  0.1875959E-004  0.3000000E+03  0.7818608E-02  0.1093470E+00
          1   -1    0    0  502    0  0.00000000000E+00  0.00000000000E+00  0.45007319140E+02  0.45007319140E+02  0.00000000000E+00 0.  1.
         13   -1    0    0    0    0 -0.00000000000E+00 -0.00000000000E+00 -0.10000000000E+04  0.10000000000E+04  0.00000000000E+00 0.  1.
    9000005    2    1    2  501    0 -0.12590749258E+02  0.12215221612E+02 -0.98096286075E+03  0.10136674268E+04  0.25480537568E+03 0.  0.
         13    1    3    3    0    0  0.40659622496E+02  0.46428422106E+02 -0.47031096941E+02  0.77593346108E+02  0.00000000000E+00 0.  1.
          3    1    3    3  501    0 -0.53250371754E+02 -0.34213200494E+02 -0.93393176380E+03  0.93607408073E+03  0.00000000000E+00 0.  1.
         21    1    1    2  502  501  0.12590749258E+02 -0.12215221612E+02  0.25970179886E+02  0.31339892297E+02  0.00000000000E+00 0.  1.
<mgrwt>
<rscale>  1 0.30000000E+03</rscale>
<asrwt>0</asrwt>
<pdfrwt beam="1">  1        1 0.16366332E+00 0.30000000E+03</pdfrwt>
<pdfrwt beam="2">0</pdfrwt>
<totfact> 0.15348442E+01</totfact>
</mgrwt>
</event>
<event>
 6    1  0.1875959E-004  0.3000000E+03  0.7818608E-02  0.1093470E+00
          1   -1    0    0  502    0  0.00000000000E+00  0.00000000000E+00  0.53414015006E+02  0.53414015006E+02  0.00000000000E+00 0.  1.
         13   -1    0    0    0    0 -0.00000000000E+00 -0.00000000000E+00 -0.10000000000E+04  0.10000000000E+04  0.00000000000E+00 0.  1.
    9000005    2    1    2  501    0 -0.74871682677E+02 -0.84966717524E+02 -0.82591890426E+03  0.88792789376E+03  0.30569395830E+03 0.  0.
         13    1    3    3    0    0  0.68099471288E+02  0.80361101609E+02 -0.31749045120E+03  0.33450804362E+03  0.00000000000E+00 0.  1.
          1    1    3    3  501    0 -0.14297115397E+03 -0.16532781913E+03 -0.50842845306E+03  0.55341985014E+03  0.00000000000E+00 0.  1.
         21    1    1    2  502  501  0.74871682677E+02  0.84966717524E+02 -0.12066708073E+03  0.16548612125E+03  0.00000000000E+00 0.  1.
<mgrwt>
<rscale>  1 0.30000000E+03</rscale>
<asrwt>0</asrwt>
<pdfrwt beam="1">  1        1 0.19423319E+00 0.30000000E+03</pdfrwt>
<pdfrwt beam="2">0</pdfrwt>
<totfact> 0.10912373E+01</totfact>
</mgrwt>
</event>
<event>
 6    1  0.1875959E-004  0.3000000E+03  0.7818608E-02  0.1093470E+00
          1   -1    0    0  502    0  0.00000000000E+00  0.00000000000E+00  0.57387454292E+02  0.57387454292E+02  0.00000000000E+00 0.  1.
         13   -1    0    0    0    0 -0.00000000000E+00 -0.00000000000E+00 -0.10000000000E+04  0.10000000000E+04  0.00000000000E+00 0.  1.
    9000005    2    1    2  501    0 -0.75175383619E+01  0.27653025797E+02 -0.96955177093E+03  0.10180564859E+04  0.30917174638E+03 0.  0.
         13    1    3    3    0    0 -0.23699095101E+02  0.16721317622E+03 -0.48597089335E+03  0.51447993411E+03  0.00000000000E+00 0.  1.
          3    1    3    3  501    0  0.16181556739E+02 -0.13956015042E+03 -0.48358087758E+03  0.50357655180E+03  0.00000000000E+00 0.  1.
         21    1    1    2  502  501  0.75175383619E+01 -0.27653025797E+02  0.26939225222E+02  0.39330968388E+02  0.00000000000E+00 0.  1.
<mgrwt>
<rscale>  1 0.30000000E+03</rscale>
<asrwt>0</asrwt>
<pdfrwt beam="1">  1        1 0.20868209E+00 0.30000000E+03</pdfrwt>
<pdfrwt beam="2">0</pdfrwt>
<totfact> 0.93176932E+00</totfact>
</mgrwt>
</event>
<event>
 6    1  0.1875959E-004  0.3000000E+03  0.7818608E-02  0.1093470E+00
          1   -1    0    0  502    0  0.00000000000E+00  0.00000000000E+00  0.35228464120E+02  0.35228464120E+02  0.00000000000E+00 0.  1.
         13   -1    0    0    0    0 -0.00000000000E+00 -0.00000000000E+00 -0.10000000000E+04  0.10000000000E+04  0.00000000000E+00 0.  1.
    9000005    2    1    2  501    0 -0.73520089879E+01 -0.13317994994E+02 -0.96193073540E+03  0.10197529617E+04  0.33816259733E+03 0.  0.
         13    1    3    3    0    0  0.39651905065E+02  0.15690736187E+03 -0.47027939030E+03  0.49734786490E+03  0.00000000000E+00 0.  1.
          3    1    3    3  501    0 -0.47003914052E+02 -0.17022535686E+03 -0.49165134510E+03  0.52240509683E+03  0.00000000000E+00 0.  1.
         21    1    1    2  502  501  0.73520089879E+01  0.13317994994E+02 -0.28408004843E+01  0.15475502390E+02  0.00000000000E+00 0.  1.
<mgrwt>
<rscale>  1 0.30000000E+03</rscale>
<asrwt>0</asrwt>
<pdfrwt beam="1">  1        1 0.12810378E+00 0.30000000E+03</pdfrwt>
<pdfrwt beam="2">0</pdfrwt>
<totfact> 0.23432195E+01</totfact>
</mgrwt>
</event>
<event>
 6    1  0.1875959E-004  0.3000000E+03  0.7818608E-02  0.1093470E+00
          1   -1    0    0  502    0  0.00000000000E+00  0.00000000000E+00  0.37470083735E+02  0.37470083735E+02  0.00000000000E+00 0.  1.
         13   -1    0    0    0    0 -0.00000000000E+00 -0.00000000000E+00 -0.10000000000E+04  0.10000000000E+04  0.00000000000E+00 0.  1.
    9000005    2    1    2  501    0  0.16895855769E+02 -0.27190353691E+02 -0.94772951476E+03  0.10022020081E+04  0.32433446712E+03 0.  0.
         13    1    3    3    0    0 -0.46089697734E+02 -0.16657403973E+03 -0.48899038563E+03  0.51863548682E+03  0.00000000000E+00 0.  1.
          3    1    3    3  501    0  0.62985553503E+02  0.13938368604E+03 -0.45873912913E+03  0.48356652126E+03  0.00000000000E+00 0.  1.
         21    1    1    2  502  501 -0.16895855769E+02  0.27190353691E+02 -0.14800401502E+02  0.35268075658E+02  0.00000000000E+00 0.  1.
<mgrwt>
<rscale>  1 0.30000000E+03</rscale>
<asrwt>0</asrwt>
<pdfrwt beam="1">  1        1 0.13625514E+00 0.30000000E+03</pdfrwt>
<pdfrwt beam="2">0</pdfrwt>
<totfact> 0.21174104E+01</totfact>
</mgrwt>
</event>
<event>
 6    1  0.1875959E-004  0.3000000E+03  0.7818608E-02  0.1093470E+00
          1   -1    0    0  502    0  0.00000000000E+00  0.00000000000E+00  0.33738940145E+02  0.33738940145E+02  0.00000000000E+00 0.  1.
         13   -1    0    0    0    0 -0.00000000000E+00 -0.00000000000E+00 -0.10000000000E+04  0.10000000000E+04  0.00000000000E+00 0.  1.
    9000005    2    1    2  501    0  0.41957363241E+02 -0.40503446260E+01 -0.81626474696E+03  0.87793226665E+03  0.32046856645E+03 0.  0.
         13    1    3    3    0    0  0.13449968084E+03  0.20992952221E+02 -0.14134656836E+03  0.19623893746E+03  0.00000000000E+00 0.  1.
          3    1    3    3  501    0 -0.92542317599E+02 -0.25043296846E+02 -0.67491817860E+03  0.68169332919E+03  0.00000000000E+00 0.  1.
         21    1    1    2  502  501 -0.41957363241E+02  0.40503446260E+01 -0.14999631290E+03  0.15580667349E+03  0.00000000000E+00 0. -1.
<mgrwt>
<rscale>  1 0.30000000E+03</rscale>
<asrwt>0</asrwt>
<pdfrwt beam="1">  1        1 0.12268731E+00 0.30000000E+03</pdfrwt>
<pdfrwt beam="2">0</pdfrwt>
<totfact> 0.25107250E+01</totfact>
</mgrwt>
</event>
<event>
 6    1  0.1875959E-004  0.3000000E+03  0.7818608E-02  0.1093470E+00
          1   -1    0    0  502    0  0.00000000000E+00  0.00000000000E+00  0.30705962023E+02  0.30705962023E+02  0.00000000000E+00 0.  1.
         13   -1    0    0    0    0 -0.00000000000E+00 -0.00000000000E+00 -0.10000000000E+04  0.10000000000E+04  0.00000000000E+00 0.  1.
    9000005    2    1    2  501    0  0.28690239836E+02 -0.78674761797E+01 -0.94243758253E+03  0.99062733627E+03  0.30375795520E+03 0.  0.
         13    1    3    3    0    0 -0.96707019587E+01  0.13044089380E+03 -0.67047309987E+03  0.68311238234E+03  0.00000000000E+00 0.  1.
          1    1    3    3  501    0  0.38360941795E+02 -0.13830836998E+03 -0.27196448266E+03  0.30751495393E+03  0.00000000000E+00 0.  1.
         21    1    1    2  502  501 -0.28690239836E+02  0.78674761797E+01 -0.26856455446E+02  0.40078625755E+02  0.00000000000E+00 0.  1.
<mgrwt>
<rscale>  1 0.30000000E+03</rscale>
<asrwt>0</asrwt>
<pdfrwt beam="1">  1        1 0.11165828E+00 0.30000000E+03</pdfrwt>
<pdfrwt beam="2">0</pdfrwt>
<totfact> 0.29044242E+01</totfact>
</mgrwt>
</event>
<event>
 6    1  0.1875959E-004  0.3000000E+03  0.7818608E-02  0.1093470E+00
          1   -1    0    0  502    0  0.00000000000E+00  0.00000000000E+00  0.38668599957E+02  0.38668599957E+02  0.00000000000E+00 0.  1.
         13   -1    0    0    0    0 -0.00000000000E+00 -0.00000000000E+00 -0.10000000000E+04  0.10000000000E+04  0.00000000000E+00 0.  1.
    9000005    2    1    2  501    0  0.14859401169E+02 -0.52643851283E+01 -0.96803637721E+03  0.10215375675E+04  0.32587736754E+03 0.  0.
         13    1    3    3    0    0  0.13667662734E+03 -0.10185335132E+03 -0.52955424542E+03  0.55631133772E+03  0.00000000000E+00 0.  1.
          1    1    3    3  501    0 -0.12181722617E+03  0.96588966193E+02 -0.43848213179E+03  0.46522622979E+03  0.00000000000E+00 0.  1.
         21    1    1    2  502  501 -0.14859401169E+02  0.52643851283E+01  0.67049771701E+01  0.17131032448E+02  0.00000000000E+00 0.  1.
<mgrwt>
<rscale>  1 0.30000000E+03</rscale>
<asrwt>0</asrwt>
<pdfrwt beam="1">  1        1 0.14061339E+00 0.30000000E+03</pdfrwt>
<pdfrwt beam="2">0</pdfrwt>
<totfact> 0.20083096E+01</totfact>
</mgrwt>
</event>
<event>
 6    1  0.1875959E-004  0.3000000E+03  0.7818608E-02  0.1093470E+00
          1   -1    0    0  502    0  0.00000000000E+00  0.00000000000E+00  0.34089935718E+02  0.34089935718E+02  0.00000000000E+00 0.  1.
         13   -1    0    0    0    0 -0.00000000000E+00 -0.00000000000E+00 -0.10000000000E+04  0.10000000000E+04  0.00000000000E+00 0.  1.
    9000005    2    1    2  501    0  0.48219670328E+01  0.10167063608E+02 -0.97524459071E+03  0.10194696097E+04  0.29679901092E+03 0.  0.
         13    1    3    3    0    0  0.29741750455E+02  0.10033561921E+03 -0.87915986333E+03  0.88536651929E+03  0.00000000000E+00 0.  1.
          1    1    3    3  501    0 -0.24919783423E+02 -0.90168555604E+02 -0.96084727389E+02  0.13410309043E+03  0.00000000000E+00 0.  1.
         21    1    1    2  502  501 -0.48219670328E+01 -0.10167063608E+02  0.93345264327E+01  0.14620325995E+02  0.00000000000E+00 0.  1.
<mgrwt>
<rscale>  1 0.30000000E+03</rscale>
<asrwt>0</asrwt>
<pdfrwt beam="1">  1        1 0.12396366E+00 0.30000000E+03</pdfrwt>
<pdfrwt beam="2">0</pdfrwt>
<totfact> 0.24699085E+01</totfact>
</mgrwt>
</event>
<event>
 6    1  0.1875959E-004  0.3000000E+03  0.7818608E-02  0.1093470E+00
          1   -1    0    0  502    0  0.00000000000E+00  0.00000000000E+00  0.34012392252E+02  0.34012392252E+02  0.00000000000E+00 0.  1.
         13   -1    0    0    0    0 -0.00000000000E+00 -0.00000000000E+00 -0.10000000000E+04  0.10000000000E+04  0.00000000000E+00 0.  1.
    9000005    2    1    2  501    0  0.84840428721E+01  0.61178250674E+01 -0.94812300504E+03  0.10133109238E+04  0.35742466171E+03 0.  0.
         13    1    3    3    0    0 -0.73304768262E+02  0.14366962278E+03 -0.25326411016E+03  0.30026198403E+03  0.00000000000E+00 0.  1.
          3    1    3    3  501    0  0.81788811135E+02 -0.13755179771E+03 -0.69485889487E+03  0.71304893974E+03  0.00000000000E+00 0.  1.
         21    1    1    2  502  501 -0.84840428721E+01 -0.61178250674E+01 -0.17864602712E+02  0.20701468476E+02  0.00000000000E+00 0. -1.
<mgrwt>
<rscale>  1 0.30000000E+03</rscale>
<asrwt>0</asrwt>
<pdfrwt beam="1">  1        1 0.12368169E+00 0.30000000E+03</pdfrwt>
<pdfrwt beam="2">0</pdfrwt>
<totfact> 0.24788513E+01</totfact>
</mgrwt>
</event>
<event>
 6    1  0.1875959E-004  0.3000000E+03  0.7818608E-02  0.1093470E+00
          1   -1    0    0  502    0  0.00000000000E+00  0.00000000000E+00  0.28749485263E+02  0.28749485263E+02  0.00000000000E+00 0.  1.
         13   -1    0    0    0    0 -0.00000000000E+00 -0.00000000000E+00 -0.10000000000E+04  0.10000000000E+04  0.00000000000E+00 0.  1.
    9000005    2    1    2  501    0 -0.14454989689E+02  0.36576506999E+01 -0.94796912948E+03  0.10011026403E+04  0.32146337409E+03 0.  0.
         13    1    3    3    0    0  0.75958821908E+02  0.11703433183E+03 -0.70063189523E+03  0.71438913071E+03  0.00000000000E+00 0.  1.
          3    1    3    3  501    0 -0.90413811598E+02 -0.11337668113E+03 -0.24733723425E+03  0.28671350962E+03  0.00000000000E+00 0.  1.
         21    1    1    2  502  501  0.14454989689E+02 -0.36576506999E+01 -0.23281385258E+02  0.27646844939E+02  0.00000000000E+00 0.  1.
<mgrwt>
<rscale>  1 0.30000000E+03</rscale>
<asrwt>0</asrwt>
<pdfrwt beam="1">  1        1 0.10454380E+00 0.30000000E+03</pdfrwt>
<pdfrwt beam="2">0</pdfrwt>
<totfact> 0.32059232E+01</totfact>
</mgrwt>
</event>
<event>
 6    1  0.1875959E-004  0.3000000E+03  0.7818608E-02  0.1093470E+00
          1   -1    0    0  502    0  0.00000000000E+00  0.00000000000E+00  0.52538332954E+02  0.52538332954E+02  0.00000000000E+00 0.  1.
         13   -1    0    0    0    0 -0.00000000000E+00 -0.00000000000E+00 -0.10000000000E+04  0.10000000000E+04  0.00000000000E+00 0.  1.
    9000005    2    1    2  501    0 -0.24632522324E+02  0.10118658372E+03 -0.74626157634E+03  0.82598378680E+03  0.33837462946E+03 0.  0.
         13    1    3    3    0    0  0.12149266218E+03  0.14308474745E+03 -0.29355707280E+03  0.34843861282E+03  0.00000000000E+00 0.  1.
          1    1    3    3  501    0 -0.14612518450E+03 -0.41898163732E+02 -0.45270450353E+03  0.47754517398E+03  0.00000000000E+00 0.  1.
         21    1    1    2  502  501  0.24632522324E+02 -0.10118658372E+03 -0.20120009071E+03  0.22655454615E+03  0.00000000000E+00 0.  1.
<mgrwt>
<rscale>  1 0.30000000E+03</rscale>
<asrwt>0</asrwt>
<pdfrwt beam="1">  1        1 0.19104889E+00 0.30000000E+03</pdfrwt>
<pdfrwt beam="2">0</pdfrwt>
<totfact> 0.11302279E+01</totfact>
</mgrwt>
</event>
<event>
 6    1  0.1875959E-004  0.3000000E+03  0.7818608E-02  0.1093470E+00
          1   -1    0    0  502    0  0.00000000000E+00  0.00000000000E+00  0.39641758619E+02  0.39641758619E+02  0.00000000000E+00 0.  1.
         13   -1    0    0    0    0 -0.00000000000E+00 -0.00000000000E+00 -0.10000000000E+04  0.10000000000E+04  0.00000000000E+00 0.  1.
    9000005    2    1    2  501    0 -0.98211324053E+01 -0.18412530012E+02 -0.96486127198E+03  0.10182933819E+04  0.32485175325E+03 0.  0.
         13    1    3    3    0    0 -0.46098521080E+02 -0.88689081821E+02 -0.92378142025E+03  0.92917325579E+03  0.00000000000E+00 0.  1.
          3    1    3    3  501    0  0.36277388675E+02  0.70276551809E+02 -0.41079851733E+02  0.89120126131E+02  0.00000000000E+00 0.  1.
         21    1    1    2  502  501  0.98211324053E+01  0.18412530012E+02  0.45030305978E+01  0.21348376700E+02  0.00000000000E+00 0. -1.
<mgrwt>
<rscale>  1 0.30000000E+03</rscale>
<asrwt>0</asrwt>
<pdfrwt beam="1">  1        1 0.14415215E+00 0.30000000E+03</pdfrwt>
<pdfrwt beam="2">0</pdfrwt>
<totfact> 0.19249405E+01</totfact>
</mgrwt>
</event>
<event>
 6    1  0.1875959E-004  0.3000000E+03  0.7818608E-02  0.1093470E+00
          1   -1    0    0  502    0  0.00000000000E+00  0.00000000000E+00  0.35199259019E+02  0.35199259019E+02  0.00000000000E+00 0.  1.
         13   -1    0    0    0    0 -0.00000000000E+00 -0.00000000000E+00 -0.10000000000E+04  0.10000000000E+04  0.00000000000E+00 0.  1.
    9000005    2    1    2  501    0  0.58011292283E+01 -0.16808295419E+02 -0.94773315999E+03  0.10105522670E+04  0.35028783861E+03 0.  0.
         13    1    3    3    0    0  0.12812637746E+03  0.10688024953E+03 -0.58386431543E+03  0.60723742899E+03  0.00000000000E+00 0.  1.
          1    1    3    3  501    0 -0.12232524823E+03 -0.12368854495E+03 -0.36386884456E+03  0.40331483800E+03  0.00000000000E+00 0.  1.
         21    1    1    2  502  501 -0.58011292283E+01  0.16808295419E+02 -0.17067580996E+02  0.24646992033E+02  0.00000000000E+00 0. -1.
<mgrwt>
<rscale>  1 0.30000000E+03</rscale>
<asrwt>0</asrwt>
<pdfrwt beam="1">  1        1 0.12799758E+00 0.30000000E+03</pdfrwt>
<pdfrwt beam="2">0</pdfrwt>
<totfact> 0.23463641E+01</totfact>
</mgrwt>
</event>
<event>
 6    1  0.1875959E-004  0.3000000E+03  0.7818608E-02  0.1093470E+00
          1   -1    0    0  502    0  0.00000000000E+00  0.00000000000E+00  0.90527936247E+02  0.90527936247E+02  0.00000000000E+00 0.  1.
         13   -1    0    0    0    0 -0.00000000000E+00 -0.00000000000E+00 -0.10000000000E+04  0.10000000000E+04  0.00000000000E+00 0.  1.
    9000005    2    1    2  501    0 -0.61388281267E+02 -0.11131384846E+03 -0.88476740469E+03  0.96103039142E+03  0.35299682563E+03 0.  0.
         13    1    3    3    0    0 -0.90684105353E+02 -0.81365635440E+02 -0.61099836520E+02  0.13629806901E+03  0.00000000000E+00 0.  1.
          3    1    3    3  501    0  0.29295824086E+02 -0.29948213021E+02 -0.82366756817E+03  0.82473232241E+03  0.00000000000E+00 0.  1.
         21    1    1    2  502  501  0.61388281267E+02  0.11131384846E+03 -0.24704659064E+02  0.12949754482E+03  0.00000000000E+00 0.  1.
<mgrwt>
<rscale>  1 0.30000000E+03</rscale>
<asrwt>0</asrwt>
<pdfrwt beam="1">  1        1 0.32919319E+00 0.30000000E+03</pdfrwt>
<pdfrwt beam="2">0</pdfrwt>
<totfact> 0.25093326E+00</totfact>
</mgrwt>
</event>
<event>
 6    1  0.1875959E-004  0.3000000E+03  0.7818608E-02  0.1093470E+00
          1   -1    0    0  502    0  0.00000000000E+00  0.00000000000E+00  0.35618583445E+02  0.35618583445E+02  0.00000000000E+00 0.  1.
         13   -1    0    0    0    0 -0.00000000000E+00 -0.00000000000E+00 -0.10000000000E+04  0.10000000000E+04  0.00000000000E+00 0.  1.
    9000005    2    1    2  501    0 -0.51357144846E+02 -0.32956766308E+02 -0.86334912185E+03  0.91758795460E+03  0.30474947654E+03 0.  0.
         13    1    3    3    0    0 -0.17467109670E+03 -0.59590763304E+02 -0.52330697452E+03  0.55489750466E+03  0.00000000000E+00 0.  1.
          1    1    3    3  501    0  0.12331395186E+03  0.26633996996E+02 -0.34004214733E+03  0.36269044994E+03  0.00000000000E+00 0.  1.
         21    1    1    2  502  501  0.51357144846E+02  0.32956766308E+02 -0.10103229471E+03  0.11803062885E+03  0.00000000000E+00 0. -1.
<mgrwt>
<rscale>  1 0.30000000E+03</rscale>
<asrwt>0</asrwt>
<pdfrwt beam="1">  1        1 0.12952239E+00 0.30000000E+03</pdfrwt>
<pdfrwt beam="2">0</pdfrwt>
<totfact> 0.23017314E+01</totfact>
</mgrwt>
</event>
<event>
 6    1  0.1875959E-004  0.3000000E+03  0.7818608E-02  0.1093470E+00
          1   -1    0    0  502    0  0.00000000000E+00  0.00000000000E+00  0.54457061006E+02  0.54457061006E+02  0.00000000000E+00 0.  1.
         13   -1    0    0    0    0 -0.00000000000E+00 -0.00000000000E+00 -0.10000000000E+04  0.10000000000E+04  0.00000000000E+00 0.  1.
    9000005    2    1    2  501    0 -0.14117771614E+02 -0.41480453043E+01 -0.96707510618E+03  0.10283773375E+04  0.34944122468E+03 0.  0.
         13    1    3    3    0    0 -0.15106505940E+03 -0.62351164200E+02 -0.27008900802E+03  0.31568400673E+03  0.00000000000E+00 0.  1.
          1    1    3    3  501    0  0.13694728779E+03  0.58203118895E+02 -0.69698609816E+03  0.71269333076E+03  0.00000000000E+00 0.  1.
         21    1    1    2  502  501  0.14117771614E+02  0.41480453043E+01  0.21532167186E+02  0.26079723521E+02  0.00000000000E+00 0. -1.
<mgrwt>
<rscale>  1 0.30000000E+03</rscale>
<asrwt>0</asrwt>
<pdfrwt beam="1">  1        1 0.19802609E+00 0.30000000E+03</pdfrwt>
<pdfrwt beam="2">0</pdfrwt>
<totfact> 0.10467269E+01</totfact>
</mgrwt>
</event>
<event>
 6    1  0.1875959E-004  0.3000000E+03  0.7818608E-02  0.1093470E+00
          1   -1    0    0  502    0  0.00000000000E+00  0.00000000000E+00  0.43137168236E+02  0.43137168236E+02  0.00000000000E+00 0.  1.
         13   -1    0    0    0    0 -0.00000000000E+00 -0.00000000000E+00 -0.10000000000E+04  0.10000000000E+04  0.00000000000E+00 0.  1.
    9000005    2    1    2  501    0  0.13924719480E+02  0.38823495965E+02 -0.94600112769E+03  0.10004858111E+04  0.32303647307E+03 0.  0.
         13    1    3    3    0    0  0.10924396067E+03  0.13832685413E+03 -0.65830634951E+03  0.68149527608E+03  0.00000000000E+00 0.  1.
          1    1    3    3  501    0 -0.95319241186E+02 -0.99503358169E+02 -0.28769477818E+03  0.31899053500E+03  0.00000000000E+00 0.  1.
         21    1    1    2  502  501 -0.13924719480E+02 -0.38823495965E+02 -0.10861704071E+02  0.42651357152E+02  0.00000000000E+00 0.  1.
<mgrwt>
<rscale>  1 0.30000000E+03</rscale>
<asrwt>0</asrwt>
<pdfrwt beam="1">  1        1 0.15686276E+00 0.30000000E+03</pdfrwt>
<pdfrwt beam="2">0</pdfrwt>
<totfact> 0.16589613E+01</totfact>
</mgrwt>
</event>
<event>
 6    1  0.1875959E-004  0.3000000E+03  0.7818608E-02  0.1093470E+00
          3   -1    0    0  502    0  0.00000000000E+00  0.00000000000E+00  0.37152559378E+02  0.37152559378E+02  0.00000000000E+00 0.  1.
         13   -1    0    0    0    0 -0.00000000000E+00 -0.00000000000E+00 -0.10000000000E+04  0.10000000000E+04  0.00000000000E+00 0.  1.
    9000005    2    1    2  501    0  0.14112281324E+02  0.38420035370E+02 -0.90862345619E+03  0.96921511691E+03  0.33482249342E+03 0.  0.
         13    1    3    3    0    0 -0.71017081242E+02 -0.48104821260E+02 -0.80517539583E+03  0.80973138614E+03  0.00000000000E+00 0.  1.
          1    1    3    3  501    0  0.85129362566E+02  0.86524856630E+02 -0.10344806036E+03  0.15948373076E+03  0.00000000000E+00 0.  1.
         21    1    1    2  502  501 -0.14112281324E+02 -0.38420035370E+02 -0.54223984430E+02  0.67937442470E+02  0.00000000000E+00 0.  1.
<mgrwt>
<rscale>  1 0.30000000E+03</rscale>
<asrwt>0</asrwt>
<pdfrwt beam="1">  1        3 0.13510050E+00 0.30000000E+03</pdfrwt>
<pdfrwt beam="2">0</pdfrwt>
<totfact> 0.15391177E+00</totfact>
</mgrwt>
</event>
<event>
 6    1  0.1875959E-004  0.3000000E+03  0.7818608E-02  0.1093470E+00
          1   -1    0    0  502    0  0.00000000000E+00  0.00000000000E+00  0.33083866155E+02  0.33083866155E+02  0.00000000000E+00 0.  1.
         13   -1    0    0    0    0 -0.00000000000E+00 -0.00000000000E+00 -0.10000000000E+04  0.10000000000E+04  0.00000000000E+00 0.  1.
    9000005    2    1    2  501    0  0.94464341197E+01  0.22254873525E+02 -0.92221547270E+03  0.98226395254E+03  0.33730784138E+03 0.  0.
         13    1    3    3    0    0 -0.16380030238E+02 -0.42158391805E+02 -0.91081326066E+03  0.91193554113E+03  0.00000000000E+00 0.  1.
          1    1    3    3  501    0  0.25826464357E+02  0.64413265330E+02 -0.11402212046E+02  0.70328411409E+02  0.00000000000E+00 0.  1.
         21    1    1    2  502  501 -0.94464341197E+01 -0.22254873525E+02 -0.44700661143E+02  0.50819913615E+02  0.00000000000E+00 0.  1.
<mgrwt>
<rscale>  1 0.30000000E+03</rscale>
<asrwt>0</asrwt>
<pdfrwt beam="1">  1        1 0.12030522E+00 0.30000000E+03</pdfrwt>
<pdfrwt beam="2">0</pdfrwt>
<totfact> 0.25892993E+01</totfact>
</mgrwt>
</event>
<event>
 6    1  0.1875959E-004  0.3000000E+03  0.7818608E-02  0.1093470E+00
          1   -1    0    0  502    0  0.00000000000E+00  0.00000000000E+00  0.30861427053E+02  0.30861427053E+02  0.00000000000E+00 0.  1.
         13   -1    0    0    0    0 -0.00000000000E+00 -0.00000000000E+00 -0.10000000000E+04  0.10000000000E+04  0.00000000000E+00 0.  1.
    9000005    2    1    2  501    0 -0.80010758725E+01 -0.18045856482E+02 -0.95159338292E+03  0.10044511290E+04  0.32093992263E+03 0.  0.
         13    1    3    3    0    0 -0.44838562318E+02 -0.77110200915E+02 -0.92599806137E+03  0.93028430570E+03  0.00000000000E+00 0.  1.
          3    1    3    3  501    0  0.36837486446E+02  0.59064344433E+02 -0.25595321549E+02  0.74166823285E+02  0.00000000000E+00 0.  1.
         21    1    1    2  502  501  0.80010758725E+01  0.18045856482E+02 -0.17545190025E+02  0.26410298073E+02  0.00000000000E+00 0. -1.
<mgrwt>
<rscale>  1 0.30000000E+03</rscale>
<asrwt>0</asrwt>
<pdfrwt beam="1">  1        1 0.11222361E+00 0.30000000E+03</pdfrwt>
<pdfrwt beam="2">0</pdfrwt>
<totfact> 0.28822210E+01</totfact>
</mgrwt>
</event>
<event>
 6    1  0.1875959E-004  0.3000000E+03  0.7818608E-02  0.1093470E+00
          1   -1    0    0  502    0  0.00000000000E+00  0.00000000000E+00  0.35213277034E+02  0.35213277034E+02  0.00000000000E+00 0.  1.
         13   -1    0    0    0    0 -0.00000000000E+00 -0.00000000000E+00 -0.10000000000E+04  0.10000000000E+04  0.00000000000E+00 0.  1.
    9000005    2    1    2  501    0  0.18347481538E+02 -0.15919675913E+02 -0.95929486545E+03  0.10103089268E+04  0.31604971540E+03 0.  0.
         13    1    3    3    0    0  0.76793834124E+02 -0.13264853957E+03 -0.28607099567E+03  0.32454513180E+03  0.00000000000E+00 0.  1.
          1    1    3    3  501    0 -0.58446352587E+02  0.11672886366E+03 -0.67322386978E+03  0.68576379504E+03  0.00000000000E+00 0.  1.
         21    1    1    2  502  501 -0.18347481538E+02  0.15919675913E+02 -0.54918575200E+01  0.24904350202E+02  0.00000000000E+00 0.  1.
<mgrwt>
<rscale>  1 0.30000000E+03</rscale>
<asrwt>0</asrwt>
<pdfrwt beam="1">  1        1 0.12804855E+00 0.30000000E+03</pdfrwt>
<pdfrwt beam="2">0</pdfrwt>
<totfact> 0.23448541E+01</totfact>
</mgrwt>
</event>
<event>
 6    1  0.1875959E-004  0.3000000E+03  0.7818608E-02  0.1093470E+00
          1   -1    0    0  502    0  0.00000000000E+00  0.00000000000E+00  0.22627089272E+02  0.22627089272E+02  0.00000000000E+00 0.  1.
         13   -1    0    0    0    0 -0.00000000000E+00 -0.00000000000E+00 -0.10000000000E+04  0.10000000000E+04  0.00000000000E+00 0.  1.
    9000005    2    1    2  501    0  0.16824705751E+02  0.61604245644E+00 -0.96318617216E+03  0.10006108729E+04  0.27057543588E+03 0.  0.
         13    1    3    3    0    0  0.10829024668E+03 -0.57391515383E+02 -0.24125532713E+03  0.27060062164E+03  0.00000000000E+00 0.  1.
          3    1    3    3  501    0 -0.91465540930E+02  0.58007557839E+02 -0.72193084503E+03  0.73001025126E+03  0.00000000000E+00 0.  1.
         21    1    1    2  502  501 -0.16824705751E+02 -0.61604245644E+00 -0.14186738568E+02  0.22016216367E+02  0.00000000000E+00 0. -1.
<mgrwt>
<rscale>  1 0.30000000E+03</rscale>
<asrwt>0</asrwt>
<pdfrwt beam="1">  1        1 0.82280498E-01 0.30000000E+03</pdfrwt>
<pdfrwt beam="2">0</pdfrwt>
<totfact> 0.45171225E+01</totfact>
</mgrwt>
</event>
<event>
 6    1  0.1875959E-004  0.3000000E+03  0.7818608E-02  0.1093470E+00
          1   -1    0    0  502    0  0.00000000000E+00  0.00000000000E+00  0.33418529953E+02  0.33418529953E+02  0.00000000000E+00 0.  1.
         13   -1    0    0    0    0 -0.00000000000E+00 -0.00000000000E+00 -0.10000000000E+04  0.10000000000E+04  0.00000000000E+00 0.  1.
    9000005    2    1    2  501    0  0.23904646455E+01  0.52886076064E+02 -0.85063519200E+03  0.90595798408E+03  0.30720837827E+03 0.  0.
         13    1    3    3    0    0  0.69733052297E+02  0.14330314313E+02 -0.23175427142E+02  0.74867595889E+02  0.00000000000E+00 0.  1.
          1    1    3    3  501    0 -0.67342587652E+02  0.38555761751E+02 -0.82745976486E+03  0.83109038819E+03  0.00000000000E+00 0.  1.
         21    1    1    2  502  501 -0.23904646455E+01 -0.52886076064E+02 -0.11594627804E+03  0.12746054588E+03  0.00000000000E+00 0.  1.
<mgrwt>
<rscale>  1 0.30000000E+03</rscale>
<asrwt>0</asrwt>
<pdfrwt beam="1">  1        1 0.12152218E+00 0.30000000E+03</pdfrwt>
<pdfrwt beam="2">0</pdfrwt>
<totfact> 0.25487576E+01</totfact>
</mgrwt>
</event>
<event>
 6    1  0.1875959E-004  0.3000000E+03  0.7818608E-02  0.1093470E+00
          1   -1    0    0  502    0  0.00000000000E+00  0.00000000000E+00  0.39207230598E+02  0.39207230598E+02  0.00000000000E+00 0.  1.
         13   -1    0    0    0    0 -0.00000000000E+00 -0.00000000000E+00 -0.10000000000E+04  0.10000000000E+04  0.00000000000E+00 0.  1.
    9000005    2    1    2  501    0 -0.41732670591E+02  0.44000803203E+01 -0.70367624763E+03  0.77868874321E+03  0.33080949325E+03 0.  0.
         13    1    3    3    0    0 -0.15267812056E+03  0.13449817904E+01 -0.15014430953E+03  0.21413951331E+03  0.00000000000E+00 0.  1.
          1    1    3    3  501    0  0.11094544997E+03  0.30550985299E+01 -0.55353193810E+03  0.56454922991E+03  0.00000000000E+00 0.  1.
         21    1    1    2  502  501  0.41732670591E+02 -0.44000803203E+01 -0.25711652177E+03  0.26051848738E+03  0.00000000000E+00 0.  1.
<mgrwt>
<rscale>  1 0.30000000E+03</rscale>
<asrwt>0</asrwt>
<pdfrwt beam="1">  1        1 0.14257205E+00 0.30000000E+03</pdfrwt>
<pdfrwt beam="2">0</pdfrwt>
<totfact> 0.19616132E+01</totfact>
</mgrwt>
</event>
<event>
 6    1  0.1875959E-004  0.3000000E+03  0.7818608E-02  0.1093470E+00
          1   -1    0    0  502    0  0.00000000000E+00  0.00000000000E+00  0.40995683115E+02  0.40995683115E+02  0.00000000000E+00 0.  1.
         13   -1    0    0    0    0 -0.00000000000E+00 -0.00000000000E+00 -0.10000000000E+04  0.10000000000E+04  0.00000000000E+00 0.  1.
    9000005    2    1    2  501    0 -0.23955833880E+02  0.48438146155E+02 -0.89946418024E+03  0.96058944050E+03  0.33283047590E+03 0.  0.
         13    1    3    3    0    0 -0.17156158148E+03  0.73928510459E+02 -0.52715698953E+03  0.55927926164E+03  0.00000000000E+00 0.  1.
          1    1    3    3  501    0  0.14760574760E+03 -0.25490364304E+02 -0.37230719071E+03  0.40131017885E+03  0.00000000000E+00 0.  1.
         21    1    1    2  502  501  0.23955833880E+02 -0.48438146155E+02 -0.59540136649E+02  0.80406242618E+02  0.00000000000E+00 0.  1.
<mgrwt>
<rscale>  1 0.30000000E+03</rscale>
<asrwt>0</asrwt>
<pdfrwt beam="1">  1        1 0.14907553E+00 0.30000000E+03</pdfrwt>
<pdfrwt beam="2">0</pdfrwt>
<totfact> 0.18160718E+01</totfact>
</mgrwt>
</event>
<event>
 6    1  0.1875959E-004  0.3000000E+03  0.7818608E-02  0.1093470E+00
          1   -1    0    0  502    0  0.00000000000E+00  0.00000000000E+00  0.23395837322E+02  0.23395837322E+02  0.00000000000E+00 0.  1.
         13   -1    0    0    0    0 -0.00000000000E+00 -0.00000000000E+00 -0.10000000000E+04  0.10000000000E+04  0.00000000000E+00 0.  1.
    9000005    2    1    2  501    0  0.53518461302E+01 -0.11792545706E+02 -0.95134263779E+03  0.99500832192E+03  0.29124051884E+03 0.  0.
         13    1    3    3    0    0  0.41551764809E+02  0.86662647634E+02 -0.82595410688E+03  0.83152699916E+03  0.00000000000E+00 0.  1.
          3    1    3    3  501    0 -0.36199918679E+02 -0.98455193340E+02 -0.12538853091E+03  0.16348132276E+03  0.00000000000E+00 0.  1.
         21    1    1    2  502  501 -0.53518461302E+01  0.11792545706E+02 -0.25261524890E+02  0.28387515407E+02  0.00000000000E+00 0. -1.
<mgrwt>
<rscale>  1 0.30000000E+03</rscale>
<asrwt>0</asrwt>
<pdfrwt beam="1">  1        1 0.85075951E-01 0.30000000E+03</pdfrwt>
<pdfrwt beam="2">0</pdfrwt>
<totfact> 0.43115300E+01</totfact>
</mgrwt>
</event>
<event>
 6    1  0.1875959E-004  0.3000000E+03  0.7818608E-02  0.1093470E+00
          1   -1    0    0  502    0  0.00000000000E+00  0.00000000000E+00  0.44015016083E+02  0.44015016083E+02  0.00000000000E+00 0.  1.
         13   -1    0    0    0    0 -0.00000000000E+00 -0.00000000000E+00 -0.10000000000E+04  0.10000000000E+04  0.00000000000E+00 0.  1.
    9000005    2    1    2  501    0  0.14741210923E+02  0.67903468644E+01 -0.97082926606E+03  0.10220203617E+04  0.31898705890E+03 0.  0.
         13    1    3    3    0    0 -0.13054769224E+03 -0.77063055270E+02 -0.45158178518E+03  0.47634811131E+03  0.00000000000E+00 0.  1.
          3    1    3    3  501    0  0.14528890316E+03  0.83853402134E+02 -0.51924748087E+03  0.54567225037E+03  0.00000000000E+00 0.  1.
         21    1    1    2  502  501 -0.14741210923E+02 -0.67903468644E+01  0.14844282141E+02  0.21994654403E+02  0.00000000000E+00 0.  1.
<mgrwt>
<rscale>  1 0.30000000E+03</rscale>
<asrwt>0</asrwt>
<pdfrwt beam="1">  1        1 0.16005494E+00 0.30000000E+03</pdfrwt>
<pdfrwt beam="2">0</pdfrwt>
<totfact> 0.15992992E+01</totfact>
</mgrwt>
</event>
<event>
 6    1  0.1875959E-004  0.3000000E+03  0.7818608E-02  0.1093470E+00
          1   -1    0    0  502    0  0.00000000000E+00  0.00000000000E+00  0.57744521017E+02  0.57744521017E+02  0.00000000000E+00 0.  1.
         13   -1    0    0    0    0 -0.00000000000E+00 -0.00000000000E+00 -0.10000000000E+04  0.10000000000E+04  0.00000000000E+00 0.  1.
    9000005    2    1    2  501    0 -0.10645508187E+03 -0.16398422808E+02 -0.81137941703E+03  0.88824485636E+03  0.34502285973E+03 0.  0.
         13    1    3    3    0    0  0.83920982364E+02 -0.93892813380E+02 -0.49646076685E+03  0.51218344829E+03  0.00000000000E+00 0.  1.
          3    1    3    3  501    0 -0.19037606424E+03  0.77494390571E+02 -0.31491865019E+03  0.37606140807E+03  0.00000000000E+00 0.  1.
         21    1    1    2  502  501  0.10645508187E+03  0.16398422808E+02 -0.13087606195E+03  0.16949966466E+03  0.00000000000E+00 0.  1.
<mgrwt>
<rscale>  1 0.30000000E+03</rscale>
<asrwt>0</asrwt>
<pdfrwt beam="1">  1        1 0.20998052E+00 0.30000000E+03</pdfrwt>
<pdfrwt beam="2">0</pdfrwt>
<totfact> 0.91872570E+00</totfact>
</mgrwt>
</event>
<event>
 6    1  0.1875959E-004  0.3000000E+03  0.7818608E-02  0.1093470E+00
          1   -1    0    0  502    0  0.00000000000E+00  0.00000000000E+00  0.30881491508E+02  0.30881491508E+02  0.00000000000E+00 0.  1.
         13   -1    0    0    0    0 -0.00000000000E+00 -0.00000000000E+00 -0.10000000000E+04  0.10000000000E+04  0.00000000000E+00 0.  1.
    9000005    2    1    2  501    0 -0.87877520478E+01  0.11534953262E+02 -0.96611215487E+03  0.10160721061E+04  0.31435576878E+03 0.  0.
         13    1    3    3    0    0 -0.87445744749E+02  0.13356943118E+03 -0.37855249262E+03  0.41084004295E+03  0.00000000000E+00 0.  1.
          1    1    3    3  501    0  0.78657992701E+02 -0.12203447792E+03 -0.58755966225E+03  0.60523206320E+03  0.00000000000E+00 0.  1.
         21    1    1    2  502  501  0.87877520478E+01 -0.11534953262E+02 -0.30063536251E+01  0.14809385366E+02  0.00000000000E+00 0.  1.
<mgrwt>
<rscale>  1 0.30000000E+03</rscale>
<asrwt>0</asrwt>
<pdfrwt beam="1">  1        1 0.11229657E+00 0.30000000E+03</pdfrwt>
<pdfrwt beam="2">0</pdfrwt>
<totfact> 0.28793730E+01</totfact>
</mgrwt>
</event>
<event>
 6    1  0.1875959E-004  0.3000000E+03  0.7818608E-02  0.1093470E+00
          1   -1    0    0  502    0  0.00000000000E+00  0.00000000000E+00  0.47139244159E+02  0.47139244159E+02  0.00000000000E+00 0.  1.
         13   -1    0    0    0    0 -0.00000000000E+00 -0.00000000000E+00 -0.10000000000E+04  0.10000000000E+04  0.00000000000E+00 0.  1.
    9000005    2    1    2  501    0  0.24742941815E+02 -0.33244173590E+02 -0.95258999331E+03  0.10056969764E+04  0.31981451603E+03 0.  0.
         13    1    3    3    0    0 -0.43898535935E+02  0.13232505094E+03 -0.34143360156E+03  0.36880063021E+03  0.00000000000E+00 0.  1.
          1    1    3    3  501    0  0.68641477751E+02 -0.16556922453E+03 -0.61115639175E+03  0.63689634616E+03  0.00000000000E+00 0.  1.
         21    1    1    2  502  501 -0.24742941815E+02  0.33244173590E+02 -0.27076252606E+00  0.41442267792E+02  0.00000000000E+00 0.  1.
<mgrwt>
<rscale>  1 0.30000000E+03</rscale>
<asrwt>0</asrwt>
<pdfrwt beam="1">  1        1 0.17141579E+00 0.30000000E+03</pdfrwt>
<pdfrwt beam="2">0</pdfrwt>
<totfact> 0.14061577E+01</totfact>
</mgrwt>
</event>
<event>
 6    1  0.1875959E-004  0.3000000E+03  0.7818608E-02  0.1093470E+00
          3   -1    0    0  502    0  0.00000000000E+00  0.00000000000E+00  0.30347174284E+02  0.30347174284E+02  0.00000000000E+00 0.  1.
         13   -1    0    0    0    0 -0.00000000000E+00 -0.00000000000E+00 -0.10000000000E+04  0.10000000000E+04  0.00000000000E+00 0.  1.
    9000005    2    1    2  501    0 -0.10580682901E+02 -0.36664004469E+01 -0.95832725547E+03  0.10144204080E+04  0.33246389616E+03 0.  0.
         13    1    3    3    0    0  0.15929142497E+03 -0.39167417991E+01 -0.53687300323E+03  0.56001939300E+03  0.00000000000E+00 0.  1.
          3    1    3    3  501    0 -0.16987210787E+03  0.25034135227E+00 -0.42145425224E+03  0.45440101500E+03  0.00000000000E+00 0.  1.
         21    1    1    2  502  501  0.10580682901E+02  0.36664004469E+01 -0.11325570249E+02  0.15926766287E+02  0.00000000000E+00 0.  1.
<mgrwt>
<rscale>  1 0.30000000E+03</rscale>
<asrwt>0</asrwt>
<pdfrwt beam="1">  1        3 0.11035359E+00 0.30000000E+03</pdfrwt>
<pdfrwt beam="2">0</pdfrwt>
<totfact> 0.29857793E+00</totfact>
</mgrwt>
</event>
<event>
 6    1  0.1875959E-004  0.3000000E+03  0.7818608E-02  0.1093470E+00
          1   -1    0    0  502    0  0.00000000000E+00  0.00000000000E+00  0.33376651255E+02  0.33376651255E+02  0.00000000000E+00 0.  1.
         13   -1    0    0    0    0 -0.00000000000E+00 -0.00000000000E+00 -0.10000000000E+04  0.10000000000E+04  0.00000000000E+00 0.  1.
    9000005    2    1    2  501    0 -0.15332071255E+02 -0.19268999100E+02 -0.94556295708E+03  0.10009743854E+04  0.32749663768E+03 0.  0.
         13    1    3    3    0    0  0.40424373233E+02 -0.12076250933E+03 -0.82131566537E+03  0.83113003543E+03  0.00000000000E+00 0.  1.
          3    1    3    3  501    0 -0.55756444489E+02  0.10149351023E+03 -0.12424729171E+03  0.16984434997E+03  0.00000000000E+00 0.  1.
         21    1    1    2  502  501  0.15332071255E+02  0.19268999100E+02 -0.21060391664E+02  0.32402265852E+02  0.00000000000E+00 0. -1.
<mgrwt>
<rscale>  1 0.30000000E+03</rscale>
<asrwt>0</asrwt>
<pdfrwt beam="1">  1        1 0.12136990E+00 0.30000000E+03</pdfrwt>
<pdfrwt beam="2">0</pdfrwt>
<totfact> 0.25537845E+01</totfact>
</mgrwt>
</event>
<event>
 6    1  0.1875959E-004  0.3000000E+03  0.7818608E-02  0.1093470E+00
          1   -1    0    0  502    0  0.00000000000E+00  0.00000000000E+00  0.37683507488E+02  0.37683507488E+02  0.00000000000E+00 0.  1.
         13   -1    0    0    0    0 -0.00000000000E+00 -0.00000000000E+00 -0.10000000000E+04  0.10000000000E+04  0.00000000000E+00 0.  1.
    9000005    2    1    2  501    0 -0.18059913741E+02  0.15870640550E+02 -0.96314095422E+03  0.10136269605E+04  0.31499377716E+03 0.  0.
         13    1    3    3    0    0 -0.48378154686E+02 -0.12326898772E+02 -0.97032140593E+03  0.97160487292E+03  0.00000000000E+00 0.  1.
          3    1    3    3  501    0  0.30318240944E+02  0.28197539322E+02  0.71804517110E+01  0.42022087579E+02  0.00000000000E+00 0.  1.
         21    1    1    2  502  501  0.18059913741E+02 -0.15870640550E+02  0.82446170494E+00  0.24056546986E+02  0.00000000000E+00 0.  1.
<mgrwt>
<rscale>  1 0.30000000E+03</rscale>
<asrwt>0</asrwt>
<pdfrwt beam="1">  1        1 0.13703123E+00 0.30000000E+03</pdfrwt>
<pdfrwt beam="2">0</pdfrwt>
<totfact> 0.20974366E+01</totfact>
</mgrwt>
</event>
<event>
 6    1  0.1875959E-004  0.3000000E+03  0.7818608E-02  0.1093470E+00
          1   -1    0    0  502    0  0.00000000000E+00  0.00000000000E+00  0.45614400038E+02  0.45614400038E+02  0.00000000000E+00 0.  1.
         13   -1    0    0    0    0 -0.00000000000E+00 -0.00000000000E+00 -0.10000000000E+04  0.10000000000E+04  0.00000000000E+00 0.  1.
    9000005    2    1    2  501    0  0.32040288572E+02 -0.19975523834E+02 -0.96577728694E+03  0.10061761930E+04  0.27971264128E+03 0.  0.
         13    1    3    3    0    0  0.15180952956E+03  0.24508589700E+02 -0.49174892817E+03  0.51523180472E+03  0.00000000000E+00 0.  1.
          3    1    3    3  501    0 -0.11976924099E+03 -0.44484113534E+02 -0.47402835877E+03  0.49094438826E+03  0.00000000000E+00 0.  1.
         21    1    1    2  502  501 -0.32040288572E+02  0.19975523834E+02  0.11391686977E+02  0.39438207064E+02  0.00000000000E+00 0.  1.
<mgrwt>
<rscale>  1 0.30000000E+03</rscale>
<asrwt>0</asrwt>
<pdfrwt beam="1">  1        1 0.16587090E+00 0.30000000E+03</pdfrwt>
<pdfrwt beam="2">0</pdfrwt>
<totfact> 0.14968860E+01</totfact>
</mgrwt>
</event>
<event>
 6    1  0.1875959E-004  0.3000000E+03  0.7818608E-02  0.1093470E+00
          1   -1    0    0  502    0  0.00000000000E+00  0.00000000000E+00  0.38420297438E+02  0.38420297438E+02  0.00000000000E+00 0.  1.
         13   -1    0    0    0    0 -0.00000000000E+00 -0.00000000000E+00 -0.10000000000E+04  0.10000000000E+04  0.00000000000E+00 0.  1.
    9000005    2    1    2  501    0 -0.19287122870E+01  0.19945691948E+02 -0.95816918299E+03  0.10180934137E+04  0.34354688945E+03 0.  0.
         13    1    3    3    0    0  0.84620964041E+02 -0.47001804897E+02 -0.87580590513E+03  0.88113895651E+03  0.00000000000E+00 0.  1.
          1    1    3    3  501    0 -0.86549676328E+02  0.66947496845E+02 -0.82363277855E+02  0.13695445719E+03  0.00000000000E+00 0.  1.
         21    1    1    2  502  501  0.19287122870E+01 -0.19945691948E+02 -0.34105195734E+01  0.20326883729E+02  0.00000000000E+00 0. -1.
<mgrwt>
<rscale>  1 0.30000000E+03</rscale>
<asrwt>0</asrwt>
<pdfrwt beam="1">  1        1 0.13971047E+00 0.30000000E+03</pdfrwt>
<pdfrwt beam="2">0</pdfrwt>
<totfact> 0.20303118E+01</totfact>
</mgrwt>
</event>
<event>
 6    1  0.1875959E-004  0.3000000E+03  0.7818608E-02  0.1093470E+00
          1   -1    0    0  502    0  0.00000000000E+00  0.00000000000E+00  0.29578146875E+02  0.29578146875E+02  0.00000000000E+00 0.  1.
         13   -1    0    0    0    0 -0.00000000000E+00 -0.00000000000E+00 -0.10000000000E+04  0.10000000000E+04  0.00000000000E+00 0.  1.
    9000005    2    1    2  501    0  0.16466321174E+02 -0.16728499884E+02 -0.93925514208E+03  0.99056089019E+03  0.31378284342E+03 0.  0.
         13    1    3    3    0    0  0.81508006240E+02  0.12825177731E+03 -0.38269941251E+03  0.41176560542E+03  0.00000000000E+00 0.  1.
          3    1    3    3  501    0 -0.65041685066E+02 -0.14498027720E+03 -0.55655572956E+03  0.57879528478E+03  0.00000000000E+00 0.  1.
         21    1    1    2  502  501 -0.16466321174E+02  0.16728499884E+02 -0.31166711048E+02  0.39017256681E+02  0.00000000000E+00 0.  1.
<mgrwt>
<rscale>  1 0.30000000E+03</rscale>
<asrwt>0</asrwt>
<pdfrwt beam="1">  1        1 0.10755712E+00 0.30000000E+03</pdfrwt>
<pdfrwt beam="2">0</pdfrwt>
<totfact> 0.30729988E+01</totfact>
</mgrwt>
</event>
<event>
 6    1  0.1875959E-004  0.3000000E+03  0.7818608E-02  0.1093470E+00
          1   -1    0    0  502    0  0.00000000000E+00  0.00000000000E+00  0.28881450838E+02  0.28881450838E+02  0.00000000000E+00 0.  1.
         13   -1    0    0    0    0 -0.00000000000E+00 -0.00000000000E+00 -0.10000000000E+04  0.10000000000E+04  0.00000000000E+00 0.  1.
    9000005    2    1    2  501    0 -0.87851375841E+01  0.20200239257E+01 -0.95445240424E+03  0.10099336403E+04  0.33000804026E+03 0.  0.
         13    1    3    3    0    0  0.10009633259E+03 -0.49909435317E+02 -0.10988878295E+03  0.15679850812E+03  0.00000000000E+00 0.  1.
          1    1    3    3  501    0 -0.10888147017E+03  0.51929459243E+02 -0.84456362129E+03  0.85313513214E+03  0.00000000000E+00 0.  1.
         21    1    1    2  502  501  0.87851375841E+01 -0.20200239257E+01 -0.16666144919E+02  0.18947810573E+02  0.00000000000E+00 0. -1.
<mgrwt>
<rscale>  1 0.30000000E+03</rscale>
<asrwt>0</asrwt>
<pdfrwt beam="1">  1        1 0.10502368E+00 0.30000000E+03</pdfrwt>
<pdfrwt beam="2">0</pdfrwt>
<totfact> 0.31842061E+01</totfact>
</mgrwt>
</event>
<event>
 6    1  0.1875959E-004  0.3000000E+03  0.7818608E-02  0.1093470E+00
          1   -1    0    0  502    0  0.00000000000E+00  0.00000000000E+00  0.35939425801E+02  0.35939425801E+02  0.00000000000E+00 0.  1.
         13   -1    0    0    0    0 -0.00000000000E+00 -0.00000000000E+00 -0.10000000000E+04  0.10000000000E+04  0.00000000000E+00 0.  1.
    9000005    2    1    2  501    0  0.96465153772E+00 -0.11925512863E+02 -0.95873486080E+03  0.10228431808E+04  0.35621972265E+03 0.  0.
         13    1    3    3    0    0  0.40750499699E+02  0.16402750062E+03 -0.36346819700E+03  0.40084255564E+03  0.00000000000E+00 0.  1.
          3    1    3    3  501    0 -0.39785848161E+02 -0.17595301349E+03 -0.59526666381E+03  0.62200062517E+03  0.00000000000E+00 0.  1.
         21    1    1    2  502  501 -0.96465153772E+00  0.11925512863E+02 -0.53257133942E+01  0.13096244989E+02  0.00000000000E+00 0.  1.
<mgrwt>
<rscale>  1 0.30000000E+03</rscale>
<asrwt>0</asrwt>
<pdfrwt beam="1">  1        1 0.13068910E+00 0.30000000E+03</pdfrwt>
<pdfrwt beam="2">0</pdfrwt>
<totfact> 0.22683218E+01</totfact>
</mgrwt>
</event>
<event>
 6    1  0.1875959E-004  0.3000000E+03  0.7818608E-02  0.1093470E+00
          1   -1    0    0  502    0  0.00000000000E+00  0.00000000000E+00  0.30433993872E+02  0.30433993872E+02  0.00000000000E+00 0.  1.
         13   -1    0    0    0    0 -0.00000000000E+00 -0.00000000000E+00 -0.10000000000E+04  0.10000000000E+04  0.00000000000E+00 0.  1.
    9000005    2    1    2  501    0  0.21005949982E+02  0.75806863533E+00 -0.93833989854E+03  0.99279233613E+03  0.32359393207E+03 0.  0.
         13    1    3    3    0    0  0.17020515613E+03  0.19652368820E+02 -0.56122518893E+03  0.58679615154E+03  0.00000000000E+00 0.  1.
          1    1    3    3  501    0 -0.14919920615E+03 -0.18894300185E+02 -0.37711470961E+03  0.40599618459E+03  0.00000000000E+00 0.  1.
         21    1    1    2  502  501 -0.21005949982E+02 -0.75806863533E+00 -0.31226107588E+02  0.37641657746E+02  0.00000000000E+00 0. -1.
<mgrwt>
<rscale>  1 0.30000000E+03</rscale>
<asrwt>0</asrwt>
<pdfrwt beam="1">  1        1 0.11066930E+00 0.30000000E+03</pdfrwt>
<pdfrwt beam="2">0</pdfrwt>
<totfact> 0.29438507E+01</totfact>
</mgrwt>
</event>
<event>
 6    1  0.1875959E-004  0.3000000E+03  0.7818608E-02  0.1093470E+00
          1   -1    0    0  502    0  0.00000000000E+00  0.00000000000E+00  0.36465631576E+02  0.36465631576E+02  0.00000000000E+00 0.  1.
         13   -1    0    0    0    0 -0.00000000000E+00 -0.00000000000E+00 -0.10000000000E+04  0.10000000000E+04  0.00000000000E+00 0.  1.
    9000005    2    1    2  501    0 -0.18913275015E+02  0.45987191790E+02 -0.84229199495E+03  0.90542271148E+03  0.32842342781E+03 0.  0.
         13    1    3    3    0    0 -0.77012511485E+02  0.14286114064E+03 -0.72356818321E+03  0.74154645720E+03  0.00000000000E+00 0.  1.
          3    1    3    3  501    0  0.58099236470E+02 -0.96873948849E+02 -0.11872381173E+03  0.16387625428E+03  0.00000000000E+00 0.  1.
         21    1    1    2  502  501  0.18913275015E+02 -0.45987191790E+02 -0.12124237348E+03  0.13104292009E+03  0.00000000000E+00 0.  1.
<mgrwt>
<rscale>  1 0.30000000E+03</rscale>
<asrwt>0</asrwt>
<pdfrwt beam="1">  1        1 0.13260258E+00 0.30000000E+03</pdfrwt>
<pdfrwt beam="2">0</pdfrwt>
<totfact> 0.22148858E+01</totfact>
</mgrwt>
</event>
<event>
 6    1  0.1875959E-004  0.3000000E+03  0.7818608E-02  0.1093470E+00
          1   -1    0    0  502    0  0.00000000000E+00  0.00000000000E+00  0.29915469636E+02  0.29915469636E+02  0.00000000000E+00 0.  1.
         13   -1    0    0    0    0 -0.00000000000E+00 -0.00000000000E+00 -0.10000000000E+04  0.10000000000E+04  0.00000000000E+00 0.  1.
    9000005    2    1    2  501    0 -0.29553400714E+01  0.11259462805E+02 -0.96338661801E+03  0.10164852214E+04  0.32402611013E+03 0.  0.
         13    1    3    3    0    0  0.12773543086E+03  0.18874321364E+02 -0.17597577258E+03  0.21826601393E+03  0.00000000000E+00 0.  1.
          3    1    3    3  501    0 -0.13069077093E+03 -0.76148585589E+01 -0.78741084543E+03  0.79821920747E+03  0.00000000000E+00 0.  1.
         21    1    1    2  502  501  0.29553400714E+01 -0.11259462805E+02 -0.66979123556E+01  0.13430248230E+02  0.00000000000E+00 0. -1.
<mgrwt>
<rscale>  1 0.30000000E+03</rscale>
<asrwt>0</asrwt>
<pdfrwt beam="1">  1        1 0.10878376E+00 0.30000000E+03</pdfrwt>
<pdfrwt beam="2">0</pdfrwt>
<totfact> 0.30211503E+01</totfact>
</mgrwt>
</event>
<event>
 6    1  0.1875959E-004  0.3000000E+03  0.7818608E-02  0.1093470E+00
          1   -1    0    0  502    0  0.00000000000E+00  0.00000000000E+00  0.36707913184E+02  0.36707913184E+02  0.00000000000E+00 0.  1.
         13   -1    0    0    0    0 -0.00000000000E+00 -0.00000000000E+00 -0.10000000000E+04  0.10000000000E+04  0.00000000000E+00 0.  1.
    9000005    2    1    2  501    0 -0.40847721768E+01  0.15595779866E+02 -0.96036431586E+03  0.10203223843E+04  0.34423572601E+03 0.  0.
         13    1    3    3    0    0 -0.44705752255E+02 -0.15621167232E+03 -0.36950068783E+03  0.40364767949E+03  0.00000000000E+00 0.  1.
          3    1    3    3  501    0  0.40620980079E+02  0.17180745218E+03 -0.59086362803E+03  0.61667470483E+03  0.00000000000E+00 0.  1.
         21    1    1    2  502  501  0.40847721768E+01 -0.15595779866E+02 -0.29277709597E+01  0.16385528864E+02  0.00000000000E+00 0. -1.
<mgrwt>
<rscale>  1 0.30000000E+03</rscale>
<asrwt>0</asrwt>
<pdfrwt beam="1">  1        1 0.13348360E+00 0.30000000E+03</pdfrwt>
<pdfrwt beam="2">0</pdfrwt>
<totfact> 0.21908382E+01</totfact>
</mgrwt>
</event>
<event>
 6    1  0.1875959E-004  0.3000000E+03  0.7818608E-02  0.1093470E+00
          1   -1    0    0  502    0  0.00000000000E+00  0.00000000000E+00  0.48349001903E+02  0.48349001903E+02  0.00000000000E+00 0.  1.
         13   -1    0    0    0    0 -0.00000000000E+00 -0.00000000000E+00 -0.10000000000E+04  0.10000000000E+04  0.00000000000E+00 0.  1.
    9000005    2    1    2  501    0 -0.53359760843E+02 -0.12935690466E+02 -0.93213476380E+03  0.99007825825E+03  0.32918861373E+03 0.  0.
         13    1    3    3    0    0 -0.90697359113E+02  0.44987037125E+02 -0.91294622865E+03  0.91854268320E+03  0.00000000000E+00 0.  1.
          3    1    3    3  501    0  0.37337598271E+02 -0.57922727591E+02 -0.19188535151E+02  0.71535575048E+02  0.00000000000E+00 0.  1.
         21    1    1    2  502  501  0.53359760843E+02  0.12935690466E+02 -0.19516234301E+02  0.58270743657E+02  0.00000000000E+00 0.  1.
<mgrwt>
<rscale>  1 0.30000000E+03</rscale>
<asrwt>0</asrwt>
<pdfrwt beam="1">  1        1 0.17581492E+00 0.30000000E+03</pdfrwt>
<pdfrwt beam="2">0</pdfrwt>
<totfact> 0.13385267E+01</totfact>
</mgrwt>
</event>
<event>
 6    1  0.1875959E-004  0.3000000E+03  0.7818608E-02  0.1093470E+00
          1   -1    0    0  502    0  0.00000000000E+00  0.00000000000E+00  0.35144402660E+02  0.35144402660E+02  0.00000000000E+00 0.  1.
         13   -1    0    0    0    0 -0.00000000000E+00 -0.00000000000E+00 -0.10000000000E+04  0.10000000000E+04  0.00000000000E+00 0.  1.
    9000005    2    1    2  501    0 -0.52678106256E+01  0.85483250001E+01 -0.96954064183E+03  0.10240640899E+04  0.32954116642E+03 0.  0.
         13    1    3    3    0    0  0.10790776075E+03 -0.55871131728E+02 -0.80551677280E+03  0.81463055397E+03  0.00000000000E+00 0.  1.
          1    1    3    3  501    0 -0.11317557137E+03  0.64419456728E+02 -0.16402386903E+03  0.20943353593E+03  0.00000000000E+00 0.  1.
         21    1    1    2  502  501  0.52678106256E+01 -0.85483250001E+01  0.46850444897E+01  0.11080312765E+02  0.00000000000E+00 0.  1.
<mgrwt>
<rscale>  1 0.30000000E+03</rscale>
<asrwt>0</asrwt>
<pdfrwt beam="1">  1        1 0.12779810E+00 0.30000000E+03</pdfrwt>
<pdfrwt beam="2">0</pdfrwt>
<totfact> 0.23522853E+01</totfact>
</mgrwt>
</event>
<event>
 6    1  0.1875959E-004  0.3000000E+03  0.7818608E-02  0.1093470E+00
          1   -1    0    0  502    0  0.00000000000E+00  0.00000000000E+00  0.50943533995E+02  0.50943533995E+02  0.00000000000E+00 0.  1.
         13   -1    0    0    0    0 -0.00000000000E+00 -0.00000000000E+00 -0.10000000000E+04  0.10000000000E+04  0.00000000000E+00 0.  1.
    9000005    2    1    2  501    0  0.85839243198E+00 -0.17804766355E+02 -0.97121028514E+03  0.10225087271E+04  0.31930695645E+03 0.  0.
         13    1    3    3    0    0 -0.52053955653E+02  0.63703182871E+01 -0.29741415506E+01  0.52526572058E+02  0.00000000000E+00 0.  1.
          1    1    3    3  501    0  0.52912348085E+02 -0.24175084642E+02 -0.96823614359E+03  0.96998215501E+03  0.00000000000E+00 0.  1.
         21    1    1    2  502  501 -0.85839243198E+00  0.17804766355E+02  0.22153819133E+02  0.28434806923E+02  0.00000000000E+00 0.  1.
<mgrwt>
<rscale>  1 0.30000000E+03</rscale>
<asrwt>0</asrwt>
<pdfrwt beam="1">  1        1 0.18524961E+00 0.30000000E+03</pdfrwt>
<pdfrwt beam="2">0</pdfrwt>
<totfact> 0.12051020E+01</totfact>
</mgrwt>
</event>
<event>
 6    1  0.1875959E-004  0.3000000E+03  0.7818608E-02  0.1093470E+00
          1   -1    0    0  502    0  0.00000000000E+00  0.00000000000E+00  0.61874643053E+02  0.61874643053E+02  0.00000000000E+00 0.  1.
         13   -1    0    0    0    0 -0.00000000000E+00 -0.00000000000E+00 -0.10000000000E+04  0.10000000000E+04  0.00000000000E+00 0.  1.
    9000005    2    1    2  501    0 -0.54127794669E+02  0.13481317557E+03 -0.64499418456E+03  0.73471979487E+03  0.32045478370E+03 0.  0.
         13    1    3    3    0    0  0.12990630907E+03  0.17446062412E+02 -0.28548321002E+03  0.31413480774E+03  0.00000000000E+00 0.  1.
          1    1    3    3  501    0 -0.18403410373E+03  0.11736711316E+03 -0.35951097454E+03  0.42058498713E+03  0.00000000000E+00 0.  1.
         21    1    1    2  502  501  0.54127794669E+02 -0.13481317557E+03 -0.29313117239E+03  0.32715484818E+03  0.00000000000E+00 0.  1.
<mgrwt>
<rscale>  1 0.30000000E+03</rscale>
<asrwt>0</asrwt>
<pdfrwt beam="1">  1        1 0.22499918E+00 0.30000000E+03</pdfrwt>
<pdfrwt beam="2">0</pdfrwt>
<totfact> 0.78104435E+00</totfact>
</mgrwt>
</event>
<event>
 6    1  0.1875959E-004  0.3000000E+03  0.7818608E-02  0.1093470E+00
          1   -1    0    0  502    0  0.00000000000E+00  0.00000000000E+00  0.73925140269E+02  0.73925140269E+02  0.00000000000E+00 0.  1.
         13   -1    0    0    0    0 -0.00000000000E+00 -0.00000000000E+00 -0.10000000000E+04  0.10000000000E+04  0.00000000000E+00 0.  1.
    9000005    2    1    2  501    0 -0.55189300729E+01 -0.99208779752E+01 -0.97400001576E+03  0.10246737140E+04  0.31804293271E+03 0.  0.
         13    1    3    3    0    0  0.62603528326E+02  0.41426655482E+02 -0.36808303763E+02  0.83607540146E+02  0.00000000000E+00 0.  1.
          1    1    3    3  501    0 -0.68122458399E+02 -0.51347533457E+02 -0.93719171200E+03  0.94106617385E+03  0.00000000000E+00 0.  1.
         21    1    1    2  502  501  0.55189300729E+01  0.99208779752E+01  0.47925156032E+02  0.49251426270E+02  0.00000000000E+00 0.  1.
<mgrwt>
<rscale>  1 0.30000000E+03</rscale>
<asrwt>0</asrwt>
<pdfrwt beam="1">  1        1 0.26881926E+00 0.30000000E+03</pdfrwt>
<pdfrwt beam="2">0</pdfrwt>
<totfact> 0.48698647E+00</totfact>
</mgrwt>
</event>
<event>
 6    1  0.1875959E-004  0.3000000E+03  0.7818608E-02  0.1093470E+00
          1   -1    0    0  502    0  0.00000000000E+00  0.00000000000E+00  0.47067542568E+02  0.47067542568E+02  0.00000000000E+00 0.  1.
         13   -1    0    0    0    0 -0.00000000000E+00 -0.00000000000E+00 -0.10000000000E+04  0.10000000000E+04  0.00000000000E+00 0.  1.
    9000005    2    1    2  501    0 -0.21512211457E+02  0.46329780556E+02 -0.91878893096E+03  0.98562647968E+03  0.35309663549E+03 0.  0.
         13    1    3    3    0    0  0.14465691871E+03 -0.54661310252E+02 -0.51030869790E+03  0.53322457757E+03  0.00000000000E+00 0.  1.
          3    1    3    3  501    0 -0.16616913016E+03  0.10099109081E+03 -0.40848023305E+03  0.45240190212E+03  0.00000000000E+00 0.  1.
         21    1    1    2  502  501  0.21512211457E+02 -0.46329780556E+02 -0.34143526475E+02  0.61441062884E+02  0.00000000000E+00 0.  1.
<mgrwt>
<rscale>  1 0.30000000E+03</rscale>
<asrwt>0</asrwt>
<pdfrwt beam="1">  1        1 0.17115506E+00 0.30000000E+03</pdfrwt>
<pdfrwt beam="2">0</pdfrwt>
<totfact> 0.14102825E+01</totfact>
</mgrwt>
</event>
<event>
 6    1  0.1875959E-004  0.3000000E+03  0.7818608E-02  0.1093470E+00
          1   -1    0    0  502    0  0.00000000000E+00  0.00000000000E+00  0.37169308036E+02  0.37169308036E+02  0.00000000000E+00 0.  1.
         13   -1    0    0    0    0 -0.00000000000E+00 -0.00000000000E+00 -0.10000000000E+04  0.10000000000E+04  0.00000000000E+00 0.  1.
    9000005    2    1    2  501    0  0.36744533475E+02 -0.11174514316E+02 -0.78766030271E+03  0.85783806207E+03  0.33764235183E+03 0.  0.
         13    1    3    3    0    0 -0.14655910088E+03  0.20791753931E+02 -0.27258873764E+03  0.31018782531E+03  0.00000000000E+00 0.  1.
          3    1    3    3  501    0  0.18330363436E+03 -0.31966268247E+02 -0.51507156507E+03  0.54765023676E+03  0.00000000000E+00 0.  1.
         21    1    1    2  502  501 -0.36744533475E+02  0.11174514316E+02 -0.17517038925E+03  0.17933124597E+03  0.00000000000E+00 0.  1.
<mgrwt>
<rscale>  1 0.30000000E+03</rscale>
<asrwt>0</asrwt>
<pdfrwt beam="1">  1        1 0.13516141E+00 0.30000000E+03</pdfrwt>
<pdfrwt beam="2">0</pdfrwt>
<totfact> 0.21459899E+01</totfact>
</mgrwt>
</event>
<event>
 6    1  0.1875959E-004  0.3000000E+03  0.7818608E-02  0.1093470E+00
          1   -1    0    0  502    0  0.00000000000E+00  0.00000000000E+00  0.28695148604E+02  0.28695148604E+02  0.00000000000E+00 0.  1.
         13   -1    0    0    0    0 -0.00000000000E+00 -0.00000000000E+00 -0.10000000000E+04  0.10000000000E+04  0.00000000000E+00 0.  1.
    9000005    2    1    2  501    0 -0.45514485919E+01  0.10421790318E+02 -0.90762126597E+03  0.96400412566E+03  0.32465098558E+03 0.  0.
         13    1    3    3    0    0  0.70002709605E+02  0.55772326009E+02 -0.85989710059E+03  0.86454262781E+03  0.00000000000E+00 0.  1.
          3    1    3    3  501    0 -0.74554158197E+02 -0.45350535691E+02 -0.47724165381E+02  0.99461497843E+02  0.00000000000E+00 0.  1.
         21    1    1    2  502  501  0.45514485919E+01 -0.10421790318E+02 -0.63683585424E+02  0.64691022949E+02  0.00000000000E+00 0. -1.
<mgrwt>
<rscale>  1 0.30000000E+03</rscale>
<asrwt>0</asrwt>
<pdfrwt beam="1">  1        1 0.10434621E+00 0.30000000E+03</pdfrwt>
<pdfrwt beam="2">0</pdfrwt>
<totfact> 0.32149276E+01</totfact>
</mgrwt>
</event>
<event>
 6    1  0.1875959E-004  0.3000000E+03  0.7818608E-02  0.1093470E+00
          1   -1    0    0  502    0  0.00000000000E+00  0.00000000000E+00  0.54700389105E+02  0.54700389105E+02  0.00000000000E+00 0.  1.
         13   -1    0    0    0    0 -0.00000000000E+00 -0.00000000000E+00 -0.10000000000E+04  0.10000000000E+04  0.00000000000E+00 0.  1.
    9000005    2    1    2  501    0 -0.66086655083E+02 -0.68306765144E+02 -0.86300363042E+03  0.92897891701E+03  0.33044409811E+03 0.  0.
         13    1    3    3    0    0  0.13504826976E+03 -0.38878023414E+02 -0.35894322364E+03  0.38547344094E+03  0.00000000000E+00 0.  1.
          1    1    3    3  501    0 -0.20113492485E+03 -0.29428741729E+02 -0.50406040678E+03  0.54350547607E+03  0.00000000000E+00 0.  1.
         21    1    1    2  502  501  0.66086655083E+02  0.68306765144E+02 -0.82295980472E+02  0.12572147210E+03  0.00000000000E+00 0.  1.
<mgrwt>
<rscale>  1 0.30000000E+03</rscale>
<asrwt>0</asrwt>
<pdfrwt beam="1">  1        1 0.19891093E+00 0.30000000E+03</pdfrwt>
<pdfrwt beam="2">0</pdfrwt>
<totfact> 0.10366297E+01</totfact>
</mgrwt>
</event>
<event>
 6    1  0.1875959E-004  0.3000000E+03  0.7818608E-02  0.1093470E+00
          1   -1    0    0  502    0  0.00000000000E+00  0.00000000000E+00  0.37886364999E+02  0.37886364999E+02  0.00000000000E+00 0.  1.
         13   -1    0    0    0    0 -0.00000000000E+00 -0.00000000000E+00 -0.10000000000E+04  0.10000000000E+04  0.00000000000E+00 0.  1.
    9000005    2    1    2  501    0 -0.33829931275E+02  0.15637208842E+02 -0.93637655058E+03  0.99259415745E+03  0.32718974674E+03 0.  0.
         13    1    3    3    0    0 -0.10827273911E+03  0.58192644966E+02 -0.88316382387E+03  0.89167690884E+03  0.00000000000E+00 0.  1.
          1    1    3    3  501    0  0.74442807839E+02 -0.42555436125E+02 -0.53212726707E+02  0.10091724861E+03  0.00000000000E+00 0.  1.
         21    1    1    2  502  501  0.33829931275E+02 -0.15637208842E+02 -0.25737084424E+02  0.45292207553E+02  0.00000000000E+00 0.  1.
<mgrwt>
<rscale>  1 0.30000000E+03</rscale>
<asrwt>0</asrwt>
<pdfrwt beam="1">  1        1 0.13776889E+00 0.30000000E+03</pdfrwt>
<pdfrwt beam="2">0</pdfrwt>
<totfact> 0.20786757E+01</totfact>
</mgrwt>
</event>
<event>
 6    1  0.1875959E-004  0.3000000E+03  0.7818608E-02  0.1093470E+00
          1   -1    0    0  502    0  0.00000000000E+00  0.00000000000E+00  0.36322751483E+02  0.36322751483E+02  0.00000000000E+00 0.  1.
         13   -1    0    0    0    0 -0.00000000000E+00 -0.00000000000E+00 -0.10000000000E+04  0.10000000000E+04  0.00000000000E+00 0.  1.
    9000005    2    1    2  501    0  0.16478940977E+02  0.10629286507E+02 -0.96545562959E+03  0.10166326558E+04  0.31788810450E+03 0.  0.
         13    1    3    3    0    0 -0.17688068820E+02  0.10171081351E+03 -0.93553527979E+02  0.13932056547E+03  0.00000000000E+00 0.  1.
          3    1    3    3  501    0  0.34167009797E+02 -0.91081527008E+02 -0.87190210161E+03  0.87731209037E+03  0.00000000000E+00 0.  1.
         21    1    1    2  502  501 -0.16478940977E+02 -0.10629286507E+02  0.17783810692E+01  0.19690095648E+02  0.00000000000E+00 0.  1.
<mgrwt>
<rscale>  1 0.30000000E+03</rscale>
<asrwt>0</asrwt>
<pdfrwt beam="1">  1        1 0.13208301E+00 0.30000000E+03</pdfrwt>
<pdfrwt beam="2">0</pdfrwt>
<totfact> 0.22292305E+01</totfact>
</mgrwt>
</event>
<event>
 6    1  0.1875959E-004  0.3000000E+03  0.7818608E-02  0.1093470E+00
          3   -1    0    0  502    0  0.00000000000E+00  0.00000000000E+00  0.31161290422E+02  0.31161290422E+02  0.00000000000E+00 0.  1.
         13   -1    0    0    0    0 -0.00000000000E+00 -0.00000000000E+00 -0.10000000000E+04  0.10000000000E+04  0.00000000000E+00 0.  1.
    9000005    2    1    2  501    0  0.67185259690E+01 -0.17909073961E+02 -0.95507382549E+03  0.10075955196E+04  0.32049468860E+03 0.  0.
         13    1    3    3    0    0 -0.11450214631E+03 -0.10254510286E+03 -0.31280187044E+03  0.34852725831E+03  0.00000000000E+00 0.  1.
          3    1    3    3  501    0  0.12122067228E+03  0.84636028898E+02 -0.64227195505E+03  0.65906826128E+03  0.00000000000E+00 0.  1.
         21    1    1    2  502  501 -0.67185259690E+01  0.17909073961E+02 -0.13764884085E+02  0.23565770839E+02  0.00000000000E+00 0.  1.
<mgrwt>
<rscale>  1 0.30000000E+03</rscale>
<asrwt>0</asrwt>
<pdfrwt beam="1">  1        3 0.11331402E+00 0.30000000E+03</pdfrwt>
<pdfrwt beam="2">0</pdfrwt>
<totfact> 0.27622152E+00</totfact>
</mgrwt>
</event>
<event>
 6    1  0.1875959E-004  0.3000000E+03  0.7818608E-02  0.1093470E+00
          1   -1    0    0  502    0  0.00000000000E+00  0.00000000000E+00  0.30447441694E+02  0.30447441694E+02  0.00000000000E+00 0.  1.
         13   -1    0    0    0    0 -0.00000000000E+00 -0.00000000000E+00 -0.10000000000E+04  0.10000000000E+04  0.00000000000E+00 0.  1.
    9000005    2    1    2  501    0 -0.28585021030E+02 -0.23076038296E+02 -0.92455194397E+03  0.97235559836E+03  0.29888042024E+03 0.  0.
         13    1    3    3    0    0  0.94086737343E+02  0.89911659376E+02 -0.48725581667E+03  0.50433585190E+03  0.00000000000E+00 0.  1.
          1    1    3    3  501    0 -0.12267175837E+03 -0.11298769767E+03 -0.43729612730E+03  0.46801974646E+03  0.00000000000E+00 0.  1.
         21    1    1    2  502  501  0.28585021030E+02  0.23076038296E+02 -0.45000614340E+02  0.58091843332E+02  0.00000000000E+00 0. -1.
<mgrwt>
<rscale>  1 0.30000000E+03</rscale>
<asrwt>0</asrwt>
<pdfrwt beam="1">  1        1 0.11071820E+00 0.30000000E+03</pdfrwt>
<pdfrwt beam="2">0</pdfrwt>
<totfact> 0.29418834E+01</totfact>
</mgrwt>
</event>
<event>
 6    1  0.1875959E-004  0.3000000E+03  0.7818608E-02  0.1093470E+00
          1   -1    0    0  502    0  0.00000000000E+00  0.00000000000E+00  0.29301335444E+02  0.29301335444E+02  0.00000000000E+00 0.  1.
         13   -1    0    0    0    0 -0.00000000000E+00 -0.00000000000E+00 -0.10000000000E+04  0.10000000000E+04  0.00000000000E+00 0.  1.
    9000005    2    1    2  501    0 -0.59948640134E+01 -0.93746756892E+01 -0.95110301465E+03  0.10067666414E+04  0.32993681651E+03 0.  0.
         13    1    3    3    0    0 -0.18861940026E+02  0.40645343631E+02  0.86407199377E+01  0.45634184352E+02  0.00000000000E+00 0.  1.
          1    1    3    3  501    0  0.12867076013E+02 -0.50020019320E+02 -0.95974373459E+03  0.96113245709E+03  0.00000000000E+00 0.  1.
         21    1    1    2  502  501  0.59948640134E+01  0.93746756892E+01 -0.19595649904E+02  0.22534694006E+02  0.00000000000E+00 0.  1.
<mgrwt>
<rscale>  1 0.30000000E+03</rscale>
<asrwt>0</asrwt>
<pdfrwt beam="1">  1        1 0.10655054E+00 0.30000000E+03</pdfrwt>
<pdfrwt beam="2">0</pdfrwt>
<totfact> 0.31165040E+01</totfact>
</mgrwt>
</event>
<event>
 6    1  0.1875959E-004  0.3000000E+03  0.7818608E-02  0.1093470E+00
          3   -1    0    0  502    0  0.00000000000E+00  0.00000000000E+00  0.33420808008E+02  0.33420808008E+02  0.00000000000E+00 0.  1.
         13   -1    0    0    0    0 -0.00000000000E+00 -0.00000000000E+00 -0.10000000000E+04  0.10000000000E+04  0.00000000000E+00 0.  1.
    9000005    2    1    2  501    0  0.88028318808E+01  0.19773640328E+02 -0.95572075187E+03  0.10092052671E+04  0.32345730603E+03 0.  0.
         13    1    3    3    0    0  0.49416917116E+02 -0.12255762956E+03 -0.71123082593E+03  0.72340285596E+03  0.00000000000E+00 0.  1.
          1    1    3    3  501    0 -0.40614085235E+02  0.14233126989E+03 -0.24448992595E+03  0.28580241111E+03  0.00000000000E+00 0.  1.
         21    1    1    2  502  501 -0.88028318808E+01 -0.19773640328E+02 -0.10858440118E+02  0.24215540935E+02  0.00000000000E+00 0.  1.
<mgrwt>
<rscale>  1 0.30000000E+03</rscale>
<asrwt>0</asrwt>
<pdfrwt beam="1">  1        3 0.12153047E+00 0.30000000E+03</pdfrwt>
<pdfrwt beam="2">0</pdfrwt>
<totfact> 0.22203217E+00</totfact>
</mgrwt>
</event>
<event>
 6    1  0.1875959E-004  0.3000000E+03  0.7818608E-02  0.1093470E+00
          1   -1    0    0  502    0  0.00000000000E+00  0.00000000000E+00  0.86235744775E+02  0.86235744775E+02  0.00000000000E+00 0.  1.
         13   -1    0    0    0    0 -0.00000000000E+00 -0.00000000000E+00 -0.10000000000E+04  0.10000000000E+04  0.00000000000E+00 0.  1.
    9000005    2    1    2  501    0 -0.57805253382E+02 -0.21354067415E+02 -0.95829734531E+03  0.10102052270E+04  0.31366121086E+03 0.  0.
         13    1    3    3    0    0 -0.86893509305E+02  0.85568200325E+02 -0.14532013173E+03  0.18971120038E+03  0.00000000000E+00 0.  1.
          3    1    3    3  501    0  0.29088255923E+02 -0.10692226774E+03 -0.81297721359E+03  0.82049402666E+03  0.00000000000E+00 0.  1.
         21    1    1    2  502  501  0.57805253382E+02  0.21354067415E+02  0.44533090088E+02  0.76030517731E+02  0.00000000000E+00 0. -1.
<mgrwt>
<rscale>  1 0.30000000E+03</rscale>
<asrwt>0</asrwt>
<pdfrwt beam="1">  1        1 0.31358519E+00 0.30000000E+03</pdfrwt>
<pdfrwt beam="2">0</pdfrwt>
<totfact> 0.29914829E+00</totfact>
</mgrwt>
</event>
<event>
 6    1  0.1875959E-004  0.3000000E+03  0.7818608E-02  0.1093470E+00
          1   -1    0    0  502    0  0.00000000000E+00  0.00000000000E+00  0.23810386374E+02  0.23810386374E+02  0.00000000000E+00 0.  1.
         13   -1    0    0    0    0 -0.00000000000E+00 -0.00000000000E+00 -0.10000000000E+04  0.10000000000E+04  0.00000000000E+00 0.  1.
    9000005    2    1    2  501    0  0.91856983320E+01 -0.46356686292E+01 -0.96297538560E+03  0.10070627806E+04  0.29453010760E+03 0.  0.
         13    1    3    3    0    0  0.95221982155E+02 -0.87687109955E+02 -0.22597910843E+03  0.26042813324E+03  0.00000000000E+00 0.  1.
          3    1    3    3  501    0 -0.86036283823E+02  0.83051441326E+02 -0.73699627717E+03  0.74663464734E+03  0.00000000000E+00 0.  1.
         21    1    1    2  502  501 -0.91856983320E+01  0.46356686292E+01 -0.13214228022E+02  0.16747605790E+02  0.00000000000E+00 0. -1.
<mgrwt>
<rscale>  1 0.30000000E+03</rscale>
<asrwt>0</asrwt>
<pdfrwt beam="1">  1        1 0.86583406E-01 0.30000000E+03</pdfrwt>
<pdfrwt beam="2">0</pdfrwt>
<totfact> 0.42066887E+01</totfact>
</mgrwt>
</event>
<event>
 6    1  0.1875959E-004  0.3000000E+03  0.7818608E-02  0.1093470E+00
          1   -1    0    0  502    0  0.00000000000E+00  0.00000000000E+00  0.50606793598E+02  0.50606793598E+02  0.00000000000E+00 0.  1.
         13   -1    0    0    0    0 -0.00000000000E+00 -0.00000000000E+00 -0.10000000000E+04  0.10000000000E+04  0.00000000000E+00 0.  1.
    9000005    2    1    2  501    0  0.39912453653E+01 -0.33173492917E+02 -0.95437959260E+03  0.10168240359E+04  0.34924819614E+03 0.  0.
         13    1    3    3    0    0 -0.59738783253E+02 -0.14150044590E+03 -0.81416142112E+03  0.82852273237E+03  0.00000000000E+00 0.  1.
          3    1    3    3  501    0  0.63730028618E+02  0.10832695298E+03 -0.14021817147E+03  0.18830130351E+03  0.00000000000E+00 0.  1.
         21    1    1    2  502  501 -0.39912453653E+01  0.33173492917E+02  0.49863861935E+01  0.33782757719E+02  0.00000000000E+00 0.  1.
<mgrwt>
<rscale>  1 0.30000000E+03</rscale>
<asrwt>0</asrwt>
<pdfrwt beam="1">  1        1 0.18402509E+00 0.30000000E+03</pdfrwt>
<pdfrwt beam="2">0</pdfrwt>
<totfact> 0.12215632E+01</totfact>
</mgrwt>
</event>
<event>
 6    1  0.1875959E-004  0.3000000E+03  0.7818608E-02  0.1093470E+00
          1   -1    0    0  502    0  0.00000000000E+00  0.00000000000E+00  0.40987625957E+02  0.40987625957E+02  0.00000000000E+00 0.  1.
         13   -1    0    0    0    0 -0.00000000000E+00 -0.00000000000E+00 -0.10000000000E+04  0.10000000000E+04  0.00000000000E+00 0.  1.
    9000005    2    1    2  501    0  0.87253341760E+01 -0.12299878262E+02 -0.97040104811E+03  0.10220899976E+04  0.32056567269E+03 0.  0.
         13    1    3    3    0    0  0.54866353383E+02 -0.52657991790E+02 -0.33354327090E+02  0.83040303278E+02  0.00000000000E+00 0.  1.
          1    1    3    3  501    0 -0.46141019207E+02  0.40358113528E+02 -0.93704672102E+03  0.93904969429E+03  0.00000000000E+00 0.  1.
         21    1    1    2  502  501 -0.87253341760E+01  0.12299878262E+02  0.11388674064E+02  0.18897628387E+02  0.00000000000E+00 0.  1.
<mgrwt>
<rscale>  1 0.30000000E+03</rscale>
<asrwt>0</asrwt>
<pdfrwt beam="1">  1        1 0.14904623E+00 0.30000000E+03</pdfrwt>
<pdfrwt beam="2">0</pdfrwt>
<totfact> 0.18166966E+01</totfact>
</mgrwt>
</event>
<event>
 6    1  0.1875959E-004  0.3000000E+03  0.7818608E-02  0.1093470E+00
          1   -1    0    0  502    0  0.00000000000E+00  0.00000000000E+00  0.31658719272E+02  0.31658719272E+02  0.00000000000E+00 0.  1.
         13   -1    0    0    0    0 -0.00000000000E+00 -0.00000000000E+00 -0.10000000000E+04  0.10000000000E+04  0.00000000000E+00 0.  1.
    9000005    2    1    2  501    0  0.10366388350E+02  0.20511279966E+02 -0.94180101547E+03  0.99655088121E+03  0.32495589161E+03 0.  0.
         13    1    3    3    0    0  0.75101173486E+02  0.15511534103E+03 -0.42541299064E+03  0.45899582557E+03  0.00000000000E+00 0.  1.
          1    1    3    3  501    0 -0.64734785136E+02 -0.13460406107E+03 -0.51638802483E+03  0.53755505564E+03  0.00000000000E+00 0.  1.
         21    1    1    2  502  501 -0.10366388350E+02 -0.20511279966E+02 -0.26540265260E+02  0.35107838061E+02  0.00000000000E+00 0.  1.
<mgrwt>
<rscale>  1 0.30000000E+03</rscale>
<asrwt>0</asrwt>
<pdfrwt beam="1">  1        1 0.11512286E+00 0.30000000E+03</pdfrwt>
<pdfrwt beam="2">0</pdfrwt>
<totfact> 0.27720669E+01</totfact>
</mgrwt>
</event>
<event>
 6    1  0.1875959E-004  0.3000000E+03  0.7818608E-02  0.1093470E+00
          1   -1    0    0  502    0  0.00000000000E+00  0.00000000000E+00  0.35785739331E+02  0.35785739331E+02  0.00000000000E+00 0.  1.
         13   -1    0    0    0    0 -0.00000000000E+00 -0.00000000000E+00 -0.10000000000E+04  0.10000000000E+04  0.00000000000E+00 0.  1.
    9000005    2    1    2  501    0 -0.57403465618E+02  0.63528181707E+01 -0.87077830248E+03  0.92594132916E+03  0.30947855630E+03 0.  0.
         13    1    3    3    0    0 -0.12759344152E+03  0.11148090885E+03 -0.64814556937E+03  0.66992593505E+03  0.00000000000E+00 0.  1.
          3    1    3    3  501    0  0.70189975904E+02 -0.10512809068E+03 -0.22263273311E+03  0.25601539411E+03  0.00000000000E+00 0.  1.
         21    1    1    2  502  501  0.57403465618E+02 -0.63528181707E+01 -0.93435958185E+02  0.10984441017E+03  0.00000000000E+00 0.  1.
<mgrwt>
<rscale>  1 0.30000000E+03</rscale>
<asrwt>0</asrwt>
<pdfrwt beam="1">  1        1 0.13013024E+00 0.30000000E+03</pdfrwt>
<pdfrwt beam="2">0</pdfrwt>
<totfact> 0.22842461E+01</totfact>
</mgrwt>
</event>
<event>
 6    1  0.1875959E-004  0.3000000E+03  0.7818608E-02  0.1093470E+00
          1   -1    0    0  502    0  0.00000000000E+00  0.00000000000E+00  0.30090658828E+02  0.30090658828E+02  0.00000000000E+00 0.  1.
         13   -1    0    0    0    0 -0.00000000000E+00 -0.00000000000E+00 -0.10000000000E+04  0.10000000000E+04  0.00000000000E+00 0.  1.
    9000005    2    1    2  501    0  0.39415055921E+01  0.88782354103E+01 -0.95764969910E+03  0.10144491322E+04  0.33454407360E+03 0.  0.
         13    1    3    3    0    0 -0.40982775824E+02 -0.15612866711E+03 -0.52393467004E+03  0.54823652476E+03  0.00000000000E+00 0.  1.
          3    1    3    3  501    0  0.44924281416E+02  0.16500690252E+03 -0.43371502906E+03  0.46621260748E+03  0.00000000000E+00 0.  1.
         21    1    1    2  502  501 -0.39415055921E+01 -0.88782354103E+01 -0.12259642071E+02  0.15641526589E+02  0.00000000000E+00 0.  1.
<mgrwt>
<rscale>  1 0.30000000E+03</rscale>
<asrwt>0</asrwt>
<pdfrwt beam="1">  1        1 0.10942081E+00 0.30000000E+03</pdfrwt>
<pdfrwt beam="2">0</pdfrwt>
<totfact> 0.29947143E+01</totfact>
</mgrwt>
</event>
<event>
 6    1  0.1875959E-004  0.3000000E+03  0.7818608E-02  0.1093470E+00
          1   -1    0    0  502    0  0.00000000000E+00  0.00000000000E+00  0.30250232315E+02  0.30250232315E+02  0.00000000000E+00 0.  1.
         13   -1    0    0    0    0 -0.00000000000E+00 -0.00000000000E+00 -0.10000000000E+04  0.10000000000E+04  0.00000000000E+00 0.  1.
    9000005    2    1    2  501    0 -0.62028614238E+01 -0.77286590381E+01 -0.96506318298E+03  0.10192879453E+04  0.32787613611E+03 0.  0.
         13    1    3    3    0    0 -0.13505479063E+03 -0.68747693012E+01 -0.18782911465E+03  0.23144510199E+03  0.00000000000E+00 0.  1.
          1    1    3    3  501    0  0.12885192920E+03 -0.85388973693E+00 -0.77723406833E+03  0.78784284331E+03  0.00000000000E+00 0.  1.
         21    1    1    2  502  501  0.62028614238E+01  0.77286590381E+01 -0.46865847045E+01  0.10962287013E+02  0.00000000000E+00 0.  1.
<mgrwt>
<rscale>  1 0.30000000E+03</rscale>
<asrwt>0</asrwt>
<pdfrwt beam="1">  1        1 0.11000108E+00 0.30000000E+03</pdfrwt>
<pdfrwt beam="2">0</pdfrwt>
<totfact> 0.29709203E+01</totfact>
</mgrwt>
</event>
<event>
 6    1  0.1875959E-004  0.3000000E+03  0.7818608E-02  0.1093470E+00
          3   -1    0    0  502    0  0.00000000000E+00  0.00000000000E+00  0.30572037887E+02  0.30572037887E+02  0.00000000000E+00 0.  1.
         13   -1    0    0    0    0 -0.00000000000E+00 -0.00000000000E+00 -0.10000000000E+04  0.10000000000E+04  0.00000000000E+00 0.  1.
    9000005    2    1    2  501    0  0.13478674013E+02  0.19297676025E+02 -0.91960248870E+03  0.97546620558E+03  0.32451734323E+03 0.  0.
         13    1    3    3    0    0 -0.72493013671E+02  0.15032101238E+03 -0.42330991136E+03  0.45501969721E+03  0.00000000000E+00 0.  1.
          3    1    3    3  501    0  0.85971687684E+02 -0.13102333636E+03 -0.49629257734E+03  0.52044650837E+03  0.00000000000E+00 0.  1.
         21    1    1    2  502  501 -0.13478674013E+02 -0.19297676025E+02 -0.49825473416E+02  0.55105832307E+02  0.00000000000E+00 0. -1.
<mgrwt>
<rscale>  1 0.30000000E+03</rscale>
<asrwt>0</asrwt>
<pdfrwt beam="1">  1        3 0.11117128E+00 0.30000000E+03</pdfrwt>
<pdfrwt beam="2">0</pdfrwt>
<totfact> 0.29223552E+00</totfact>
</mgrwt>
</event>
<event>
 6    1  0.1875959E-004  0.3000000E+03  0.7818608E-02  0.1093470E+00
          1   -1    0    0  502    0  0.00000000000E+00  0.00000000000E+00  0.35717852501E+02  0.35717852501E+02  0.00000000000E+00 0.  1.
         13   -1    0    0    0    0 -0.00000000000E+00 -0.00000000000E+00 -0.10000000000E+04  0.10000000000E+04  0.00000000000E+00 0.  1.
    9000005    2    1    2  501    0 -0.21660737963E+02 -0.37530993469E+02 -0.88411191512E+03  0.94458591957E+03  0.32971338759E+03 0.  0.
         13    1    3    3    0    0 -0.14778525864E+03 -0.84681431502E+02 -0.67275703136E+03  0.69398375396E+03  0.00000000000E+00 0.  1.
          1    1    3    3  501    0  0.12612452067E+03  0.47150438033E+02 -0.21135488376E+03  0.25060216562E+03  0.00000000000E+00 0.  1.
         21    1    1    2  502  501  0.21660737963E+02  0.37530993469E+02 -0.80170232379E+02  0.91131932930E+02  0.00000000000E+00 0.  1.
<mgrwt>
<rscale>  1 0.30000000E+03</rscale>
<asrwt>0</asrwt>
<pdfrwt beam="1">  1        1 0.12988337E+00 0.30000000E+03</pdfrwt>
<pdfrwt beam="2">0</pdfrwt>
<totfact> 0.22913265E+01</totfact>
</mgrwt>
</event>
<event>
 6    1  0.1875959E-004  0.3000000E+03  0.7818608E-02  0.1093470E+00
          1   -1    0    0  502    0  0.00000000000E+00  0.00000000000E+00  0.53496003449E+02  0.53496003449E+02  0.00000000000E+00 0.  1.
         13   -1    0    0    0    0 -0.00000000000E+00 -0.00000000000E+00 -0.10000000000E+04  0.10000000000E+04  0.00000000000E+00 0.  1.
    9000005    2    1    2  501    0  0.74415598822E+01 -0.23988469741E+02 -0.96714355045E+03  0.10209873172E+04  0.32621715357E+03 0.  0.
         13    1    3    3    0    0 -0.55427505208E+02  0.12994459674E+03 -0.62250378721E+03  0.63833280634E+03  0.00000000000E+00 0.  1.
          3    1    3    3  501    0  0.62869065090E+02 -0.15393306649E+03 -0.34463976324E+03  0.38265451089E+03  0.00000000000E+00 0.  1.
         21    1    1    2  502  501 -0.74415598822E+01  0.23988469741E+02  0.20639553901E+02  0.32508686212E+02  0.00000000000E+00 0.  1.
<mgrwt>
<rscale>  1 0.30000000E+03</rscale>
<asrwt>0</asrwt>
<pdfrwt beam="1">  1        1 0.19453133E+00 0.30000000E+03</pdfrwt>
<pdfrwt beam="2">0</pdfrwt>
<totfact> 0.10876630E+01</totfact>
</mgrwt>
</event>
<event>
 6    1  0.1875959E-004  0.3000000E+03  0.7818608E-02  0.1093470E+00
          1   -1    0    0  502    0  0.00000000000E+00  0.00000000000E+00  0.49207701411E+02  0.49207701411E+02  0.00000000000E+00 0.  1.
         13   -1    0    0    0    0 -0.00000000000E+00 -0.00000000000E+00 -0.10000000000E+04  0.10000000000E+04  0.00000000000E+00 0.  1.
    9000005    2    1    2  501    0  0.26872374495E+02 -0.36313671958E+02 -0.94986859880E+03  0.10040229639E+04  0.32213498690E+03 0.  0.
         13    1    3    3    0    0  0.10837464899E+03 -0.14587235964E+03 -0.43679301480E+03  0.47308767436E+03  0.00000000000E+00 0.  1.
          1    1    3    3  501    0 -0.81502274494E+02  0.10955868768E+03 -0.51307558400E+03  0.53093528955E+03  0.00000000000E+00 0.  1.
         21    1    1    2  502  501 -0.26872374495E+02  0.36313671958E+02 -0.92369979005E+00  0.45184737505E+02  0.00000000000E+00 0.  1.
<mgrwt>
<rscale>  1 0.30000000E+03</rscale>
<asrwt>0</asrwt>
<pdfrwt beam="1">  1        1 0.17893747E+00 0.30000000E+03</pdfrwt>
<pdfrwt beam="2">0</pdfrwt>
<totfact> 0.12926600E+01</totfact>
</mgrwt>
</event>
<event>
 6    1  0.1875959E-004  0.3000000E+03  0.7818608E-02  0.1093470E+00
          1   -1    0    0  502    0  0.00000000000E+00  0.00000000000E+00  0.31379705701E+02  0.31379705701E+02  0.00000000000E+00 0.  1.
         13   -1    0    0    0    0 -0.00000000000E+00 -0.00000000000E+00 -0.10000000000E+04  0.10000000000E+04  0.00000000000E+00 0.  1.
    9000005    2    1    2  501    0  0.18258015360E+02 -0.58443532537E+01 -0.95113342572E+03  0.10054316391E+04  0.32537743577E+03 0.  0.
         13    1    3    3    0    0 -0.46389801004E+01 -0.12650876744E+03 -0.15616121874E+03  0.20102814384E+03  0.00000000000E+00 0.  1.
          3    1    3    3  501    0  0.22896995460E+02  0.12066441419E+03 -0.79497220698E+03  0.80440349522E+03  0.00000000000E+00 0.  1.
         21    1    1    2  502  501 -0.18258015360E+02  0.58443532537E+01 -0.17486868580E+02  0.25948066644E+02  0.00000000000E+00 0.  1.
<mgrwt>
<rscale>  1 0.30000000E+03</rscale>
<asrwt>0</asrwt>
<pdfrwt beam="1">  1        1 0.11410826E+00 0.30000000E+03</pdfrwt>
<pdfrwt beam="2">0</pdfrwt>
<totfact> 0.28099258E+01</totfact>
</mgrwt>
</event>
<event>
 6    1  0.1875959E-004  0.3000000E+03  0.7818608E-02  0.1093470E+00
          1   -1    0    0  502    0  0.00000000000E+00  0.00000000000E+00  0.36352586014E+02  0.36352586014E+02  0.00000000000E+00 0.  1.
         13   -1    0    0    0    0 -0.00000000000E+00 -0.00000000000E+00 -0.10000000000E+04  0.10000000000E+04  0.00000000000E+00 0.  1.
    9000005    2    1    2  501    0 -0.36245433499E+02  0.77572988744E+01 -0.92455255972E+03  0.98247945017E+03  0.33029460667E+03 0.  0.
         13    1    3    3    0    0 -0.46159971439E+02 -0.13108304202E+03 -0.19315492088E+03  0.23795447112E+03  0.00000000000E+00 0.  1.
          1    1    3    3  501    0  0.99145379403E+01  0.13884034090E+03 -0.73139763884E+03  0.74452497905E+03  0.00000000000E+00 0.  1.
         21    1    1    2  502  501  0.36245433499E+02 -0.77572988744E+01 -0.39094854268E+02  0.53873135844E+02  0.00000000000E+00 0.  1.
<mgrwt>
<rscale>  1 0.30000000E+03</rscale>
<asrwt>0</asrwt>
<pdfrwt beam="1">  1        1 0.13219150E+00 0.30000000E+03</pdfrwt>
<pdfrwt beam="2">0</pdfrwt>
<totfact> 0.22262251E+01</totfact>
</mgrwt>
</event>
<event>
 6    1  0.1875959E-004  0.3000000E+03  0.7818608E-02  0.1093470E+00
          1   -1    0    0  502    0  0.00000000000E+00  0.00000000000E+00  0.28249611935E+02  0.28249611935E+02  0.00000000000E+00 0.  1.
         13   -1    0    0    0    0 -0.00000000000E+00 -0.00000000000E+00 -0.10000000000E+04  0.10000000000E+04  0.00000000000E+00 0.  1.
    9000005    2    1    2  501    0 -0.28956479737E+02 -0.15977661018E+02 -0.94874505143E+03  0.98796302752E+03  0.27360556968E+03 0.  0.
         13    1    3    3    0    0  0.78980651851E+02 -0.16792455514E+02 -0.80061999539E+03  0.80468149410E+03  0.00000000000E+00 0.  1.
          3    1    3    3  501    0 -0.10793713159E+03  0.81479449674E+00 -0.14812505604E+03  0.18328153342E+03  0.00000000000E+00 0.  1.
         21    1    1    2  502  501  0.28956479737E+02  0.15977661018E+02 -0.23005336640E+02  0.40286584420E+02  0.00000000000E+00 0.  1.
<mgrwt>
<rscale>  1 0.30000000E+03</rscale>
<asrwt>0</asrwt>
<pdfrwt beam="1">  1        1 0.10272608E+00 0.30000000E+03</pdfrwt>
<pdfrwt beam="2">0</pdfrwt>
<totfact> 0.32901657E+01</totfact>
</mgrwt>
</event>
<event>
 6    1  0.1875959E-004  0.3000000E+03  0.7818608E-02  0.1093470E+00
          1   -1    0    0  502    0  0.00000000000E+00  0.00000000000E+00  0.31271742147E+02  0.31271742147E+02  0.00000000000E+00 0.  1.
         13   -1    0    0    0    0 -0.00000000000E+00 -0.00000000000E+00 -0.10000000000E+04  0.10000000000E+04  0.00000000000E+00 0.  1.
    9000005    2    1    2  501    0  0.30454483903E+01  0.20134326448E+02 -0.94603619143E+03  0.10007824697E+04  0.32583187421E+03 0.  0.
         13    1    3    3    0    0  0.14316118745E+03 -0.69817579946E+02 -0.43018959551E+03  0.45872944984E+03  0.00000000000E+00 0.  1.
          3    1    3    3  501    0 -0.14011573906E+03  0.89951906395E+02 -0.51584659591E+03  0.54205301983E+03  0.00000000000E+00 0.  1.
         21    1    1    2  502  501 -0.30454483903E+01 -0.20134326448E+02 -0.22692066423E+02  0.30489272474E+02  0.00000000000E+00 0. -1.
<mgrwt>
<rscale>  1 0.30000000E+03</rscale>
<asrwt>0</asrwt>
<pdfrwt beam="1">  1        1 0.11371567E+00 0.30000000E+03</pdfrwt>
<pdfrwt beam="2">0</pdfrwt>
<totfact> 0.28247712E+01</totfact>
</mgrwt>
</event>
<event>
 6    1  0.1875959E-004  0.3000000E+03  0.7818608E-02  0.1093470E+00
          1   -1    0    0  502    0  0.00000000000E+00  0.00000000000E+00  0.32663834854E+02  0.32663834854E+02  0.00000000000E+00 0.  1.
         13   -1    0    0    0    0 -0.00000000000E+00 -0.00000000000E+00 -0.10000000000E+04  0.10000000000E+04  0.00000000000E+00 0.  1.
    9000005    2    1    2  501    0  0.17607820610E+02  0.81324652987E+01 -0.95469773829E+03  0.10095142739E+04  0.32755934637E+03 0.  0.
         13    1    3    3    0    0  0.52042240668E+02  0.13086357437E+03 -0.20289645868E+03  0.24698308213E+03  0.00000000000E+00 0.  1.
          1    1    3    3  501    0 -0.34434420058E+02 -0.12273110908E+03 -0.75180127961E+03  0.76253119178E+03  0.00000000000E+00 0.  1.
         21    1    1    2  502  501 -0.17607820610E+02 -0.81324652987E+01 -0.12638426855E+02  0.23149560943E+02  0.00000000000E+00 0.  1.
<mgrwt>
<rscale>  1 0.30000000E+03</rscale>
<asrwt>0</asrwt>
<pdfrwt beam="1">  1        1 0.11877783E+00 0.30000000E+03</pdfrwt>
<pdfrwt beam="2">0</pdfrwt>
<totfact> 0.26414129E+01</totfact>
</mgrwt>
</event>
<event>
 6    1  0.1875959E-004  0.3000000E+03  0.7818608E-02  0.1093470E+00
          1   -1    0    0  502    0  0.00000000000E+00  0.00000000000E+00  0.29041115745E+02  0.29041115745E+02  0.00000000000E+00 0.  1.
         13   -1    0    0    0    0 -0.00000000000E+00 -0.00000000000E+00 -0.10000000000E+04  0.10000000000E+04  0.00000000000E+00 0.  1.
    9000005    2    1    2  501    0  0.26560446797E+01 -0.11775665324E+02 -0.97249227669E+03  0.10168726253E+04  0.29688884623E+03 0.  0.
         13    1    3    3    0    0 -0.67281736927E+02  0.12191184733E+03 -0.57738478347E+03  0.59393814394E+03  0.00000000000E+00 0.  1.
          1    1    3    3  501    0  0.69937781607E+02 -0.13368751265E+03 -0.39510749322E+03  0.42293448137E+03  0.00000000000E+00 0.  1.
         21    1    1    2  502  501 -0.26560446797E+01  0.11775665324E+02  0.15333924320E+01  0.12168490437E+02  0.00000000000E+00 0. -1.
<mgrwt>
<rscale>  1 0.30000000E+03</rscale>
<asrwt>0</asrwt>
<pdfrwt beam="1">  1        1 0.10560428E+00 0.30000000E+03</pdfrwt>
<pdfrwt beam="2">0</pdfrwt>
<totfact> 0.31582140E+01</totfact>
</mgrwt>
</event>
<event>
 6    1  0.1875959E-004  0.3000000E+03  0.7818608E-02  0.1093470E+00
          1   -1    0    0  502    0  0.00000000000E+00  0.00000000000E+00  0.25315686921E+02  0.25315686921E+02  0.00000000000E+00 0.  1.
         13   -1    0    0    0    0 -0.00000000000E+00 -0.00000000000E+00 -0.10000000000E+04  0.10000000000E+04  0.00000000000E+00 0.  1.
    9000005    2    1    2  501    0  0.16078236907E+02  0.51673882221E+01 -0.96086725150E+03  0.10034954488E+04  0.28888064846E+03 0.  0.
         13    1    3    3    0    0  0.35987698312E+02 -0.10785527374E+03 -0.17110229437E+03  0.20543580419E+03  0.00000000000E+00 0.  1.
          1    1    3    3  501    0 -0.19909461405E+02  0.11302266196E+03 -0.78976495713E+03  0.79805964457E+03  0.00000000000E+00 0.  1.
         21    1    1    2  502  501 -0.16078236907E+02 -0.51673882221E+01 -0.13817061576E+02  0.21820238167E+02  0.00000000000E+00 0.  1.
<mgrwt>
<rscale>  1 0.30000000E+03</rscale>
<asrwt>0</asrwt>
<pdfrwt beam="1">  1        1 0.92057237E-01 0.30000000E+03</pdfrwt>
<pdfrwt beam="2">0</pdfrwt>
<totfact> 0.38571899E+01</totfact>
</mgrwt>
</event>
<event>
 6    1  0.1875959E-004  0.3000000E+03  0.7818608E-02  0.1093470E+00
          1   -1    0    0  502    0  0.00000000000E+00  0.00000000000E+00  0.51888979189E+02  0.51888979189E+02  0.00000000000E+00 0.  1.
         13   -1    0    0    0    0 -0.00000000000E+00 -0.00000000000E+00 -0.10000000000E+04  0.10000000000E+04  0.00000000000E+00 0.  1.
    9000005    2    1    2  501    0 -0.18425451675E+02  0.17445921270E+02 -0.96489074335E+03  0.10214683196E+04  0.33427462362E+03 0.  0.
         13    1    3    3    0    0 -0.12482255034E+03  0.51446372140E+02 -0.16216783342E+03  0.21101138470E+03  0.00000000000E+00 0.  1.
          3    1    3    3  501    0  0.10639709866E+03 -0.34000450870E+02 -0.80272290993E+03  0.81045693494E+03  0.00000000000E+00 0.  1.
         21    1    1    2  502  501  0.18425451675E+02 -0.17445921270E+02  0.16779722543E+02  0.30420659543E+02  0.00000000000E+00 0.  1.
<mgrwt>
<rscale>  1 0.30000000E+03</rscale>
<asrwt>0</asrwt>
<pdfrwt beam="1">  1        1 0.18868759E+00 0.30000000E+03</pdfrwt>
<pdfrwt beam="2">0</pdfrwt>
<totfact> 0.11601095E+01</totfact>
</mgrwt>
</event>
<event>
 6    1  0.1875959E-004  0.3000000E+03  0.7818608E-02  0.1093470E+00
          1   -1    0    0  502    0  0.00000000000E+00  0.00000000000E+00  0.28734362149E+02  0.28734362149E+02  0.00000000000E+00 0.  1.
         13   -1    0    0    0    0 -0.00000000000E+00 -0.00000000000E+00 -0.10000000000E+04  0.10000000000E+04  0.00000000000E+00 0.  1.
    9000005    2    1    2  501    0  0.20261574269E+02  0.37135250178E+00 -0.91409873659E+03  0.96808187750E+03  0.31811216891E+03 0.  0.
         13    1    3    3    0    0 -0.12914653613E+03 -0.34617592364E+02 -0.22182364863E+03  0.25900373855E+03  0.00000000000E+00 0.  1.
          1    1    3    3  501    0  0.14940811040E+03  0.34988944866E+02 -0.69227508796E+03  0.70907813895E+03  0.00000000000E+00 0.  1.
         21    1    1    2  502  501 -0.20261574269E+02 -0.37135250178E+00 -0.57166901260E+02  0.60652484650E+02  0.00000000000E+00 0.  1.
<mgrwt>
<rscale>  1 0.30000000E+03</rscale>
<asrwt>0</asrwt>
<pdfrwt beam="1">  1        1 0.10448881E+00 0.30000000E+03</pdfrwt>
<pdfrwt beam="2">0</pdfrwt>
<totfact> 0.32084257E+01</totfact>
</mgrwt>
</event>
<event>
 6    1  0.1875959E-004  0.3000000E+03  0.7818608E-02  0.1093470E+00
          1   -1    0    0  502    0  0.00000000000E+00  0.00000000000E+00  0.32441510418E+02  0.32441510418E+02  0.00000000000E+00 0.  1.
         13   -1    0    0    0    0 -0.00000000000E+00 -0.00000000000E+00 -0.10000000000E+04  0.10000000000E+04  0.00000000000E+00 0.  1.
    9000005    2    1    2  501    0  0.71507621238E+01  0.21495043734E+02 -0.94891431036E+03  0.10031025308E+04  0.32444282803E+03 0.  0.
         13    1    3    3    0    0 -0.11355055957E+03 -0.49146167639E+02 -0.16193959668E+03  0.20379771428E+03  0.00000000000E+00 0.  1.
          1    1    3    3  501    0  0.12070132169E+03  0.70641211373E+02 -0.78697471368E+03  0.79930481656E+03  0.00000000000E+00 0.  1.
         21    1    1    2  502  501 -0.71507621238E+01 -0.21495043734E+02 -0.18644179226E+02  0.29338979585E+02  0.00000000000E+00 0.  1.
<mgrwt>
<rscale>  1 0.30000000E+03</rscale>
<asrwt>0</asrwt>
<pdfrwt beam="1">  1        1 0.11796938E+00 0.30000000E+03</pdfrwt>
<pdfrwt beam="2">0</pdfrwt>
<totfact> 0.26695719E+01</totfact>
</mgrwt>
</event>
<event>
 6    1  0.1875959E-004  0.3000000E+03  0.7818608E-02  0.1093470E+00
          1   -1    0    0  502    0  0.00000000000E+00  0.00000000000E+00  0.34464970321E+02  0.34464970321E+02  0.00000000000E+00 0.  1.
         13   -1    0    0    0    0 -0.00000000000E+00 -0.00000000000E+00 -0.10000000000E+04  0.10000000000E+04  0.00000000000E+00 0.  1.
    9000005    2    1    2  501    0  0.86005144503E+01  0.54470351905E+01 -0.96775015391E+03  0.10240464380E+04  0.33470450797E+03 0.  0.
         13    1    3    3    0    0 -0.10451808584E+02 -0.14102407942E+03 -0.73430691504E+03  0.74779922222E+03  0.00000000000E+00 0.  1.
          3    1    3    3  501    0  0.19052323034E+02  0.14647111461E+03 -0.23344323887E+03  0.27624721574E+03  0.00000000000E+00 0.  1.
         21    1    1    2  502  501 -0.86005144503E+01 -0.54470351905E+01  0.22151242342E+01  0.10418532361E+02  0.00000000000E+00 0. -1.
<mgrwt>
<rscale>  1 0.30000000E+03</rscale>
<asrwt>0</asrwt>
<pdfrwt beam="1">  1        1 0.12532743E+00 0.30000000E+03</pdfrwt>
<pdfrwt beam="2">0</pdfrwt>
<totfact> 0.24272345E+01</totfact>
</mgrwt>
</event>
<event>
 6    1  0.1875959E-004  0.3000000E+03  0.7818608E-02  0.1093470E+00
          3   -1    0    0  502    0  0.00000000000E+00  0.00000000000E+00  0.26437721128E+02  0.26437721128E+02  0.00000000000E+00 0.  1.
         13   -1    0    0    0    0 -0.00000000000E+00 -0.00000000000E+00 -0.10000000000E+04  0.10000000000E+04  0.00000000000E+00 0.  1.
    9000005    2    1    2  501    0  0.89309018576E+01 -0.95857333952E+01 -0.93932928627E+03  0.98978332064E+03  0.31170477455E+03 0.  0.
         13    1    3    3    0    0 -0.13867455306E+03 -0.10981736118E+02 -0.65290093482E+03  0.66755588596E+03  0.00000000000E+00 0.  1.
          3    1    3    3  501    0  0.14760545491E+03  0.13960027228E+01 -0.28642835145E+03  0.32222743468E+03  0.00000000000E+00 0.  1.
         21    1    1    2  502  501 -0.89309018576E+01  0.95857333952E+01 -0.34232992597E+02  0.36654400485E+02  0.00000000000E+00 0. -1.
<mgrwt>
<rscale>  1 0.30000000E+03</rscale>
<asrwt>0</asrwt>
<pdfrwt beam="1">  1        3 0.96137370E-01 0.30000000E+03</pdfrwt>
<pdfrwt beam="2">0</pdfrwt>
<totfact> 0.43355457E+00</totfact>
</mgrwt>
</event>
<event>
 6    1  0.1875959E-004  0.3000000E+03  0.7818608E-02  0.1093470E+00
          1   -1    0    0  502    0  0.00000000000E+00  0.00000000000E+00  0.31308791600E+02  0.31308791600E+02  0.00000000000E+00 0.  1.
         13   -1    0    0    0    0 -0.00000000000E+00 -0.00000000000E+00 -0.10000000000E+04  0.10000000000E+04  0.00000000000E+00 0.  1.
    9000005    2    1    2  501    0  0.46546780207E+01 -0.19987914103E+02 -0.94853328368E+03  0.10025420631E+04  0.32396607131E+03 0.  0.
         13    1    3    3    0    0 -0.13951204492E+03  0.68411635503E+02 -0.44049607112E+03  0.46709801029E+03  0.00000000000E+00 0.  1.
          3    1    3    3  501    0  0.14416672294E+03 -0.88399549607E+02 -0.50803721256E+03  0.53544405284E+03  0.00000000000E+00 0.  1.
         21    1    1    2  502  501 -0.46546780207E+01  0.19987914103E+02 -0.20157924716E+02  0.28766728465E+02  0.00000000000E+00 0.  1.
<mgrwt>
<rscale>  1 0.30000000E+03</rscale>
<asrwt>0</asrwt>
<pdfrwt beam="1">  1        1 0.11385039E+00 0.30000000E+03</pdfrwt>
<pdfrwt beam="2">0</pdfrwt>
<totfact> 0.28196642E+01</totfact>
</mgrwt>
</event>
<event>
 6    1  0.1875959E-004  0.3000000E+03  0.7818608E-02  0.1093470E+00
          1   -1    0    0  502    0  0.00000000000E+00  0.00000000000E+00  0.31714341680E+02  0.31714341680E+02  0.00000000000E+00 0.  1.
         13   -1    0    0    0    0 -0.00000000000E+00 -0.00000000000E+00 -0.10000000000E+04  0.10000000000E+04  0.00000000000E+00 0.  1.
    9000005    2    1    2  501    0  0.14049187948E+02 -0.98825976302E+01 -0.95059588367E+03  0.10070572221E+04  0.33201907950E+03 0.  0.
         13    1    3    3    0    0 -0.14152843997E+03 -0.69326004187E+02 -0.35091658990E+03  0.38468018826E+03  0.00000000000E+00 0.  1.
          1    1    3    3  501    0  0.15557762792E+03  0.59443406557E+02 -0.59967929377E+03  0.62237703385E+03  0.00000000000E+00 0.  1.
         21    1    1    2  502  501 -0.14049187948E+02  0.98825976302E+01 -0.17689774655E+02  0.24657119565E+02  0.00000000000E+00 0. -1.
<mgrwt>
<rscale>  1 0.30000000E+03</rscale>
<asrwt>0</asrwt>
<pdfrwt beam="1">  1        1 0.11532512E+00 0.30000000E+03</pdfrwt>
<pdfrwt beam="2">0</pdfrwt>
<totfact> 0.27646053E+01</totfact>
</mgrwt>
</event>
<event>
 6    1  0.1875959E-004  0.3000000E+03  0.7818608E-02  0.1093470E+00
          1   -1    0    0  502    0  0.00000000000E+00  0.00000000000E+00  0.75210912538E+02  0.75210912538E+02  0.00000000000E+00 0.  1.
         13   -1    0    0    0    0 -0.00000000000E+00 -0.00000000000E+00 -0.10000000000E+04  0.10000000000E+04  0.00000000000E+00 0.  1.
    9000005    2    1    2  501    0  0.22952915104E+02 -0.25672863881E+01 -0.96708900470E+03  0.10270164080E+04  0.34491757276E+03 0.  0.
         13    1    3    3    0    0  0.37932059453E+02  0.12427038011E+03 -0.14349777754E+03  0.19358094087E+03  0.00000000000E+00 0.  1.
          3    1    3    3  501    0 -0.14979144350E+02 -0.12683766650E+03 -0.82359122715E+03  0.83343546712E+03  0.00000000000E+00 0.  1.
         21    1    1    2  502  501 -0.22952915104E+02  0.25672863881E+01  0.42299917234E+02  0.48194504553E+02  0.00000000000E+00 0.  1.
<mgrwt>
<rscale>  1 0.30000000E+03</rscale>
<asrwt>0</asrwt>
<pdfrwt beam="1">  1        1 0.27349480E+00 0.30000000E+03</pdfrwt>
<pdfrwt beam="2">0</pdfrwt>
<totfact> 0.46305900E+00</totfact>
</mgrwt>
</event>
<event>
 6    1  0.1875959E-004  0.3000000E+03  0.7818608E-02  0.1093470E+00
          1   -1    0    0  502    0  0.00000000000E+00  0.00000000000E+00  0.40415507229E+02  0.40415507229E+02  0.00000000000E+00 0.  1.
         13   -1    0    0    0    0 -0.00000000000E+00 -0.00000000000E+00 -0.10000000000E+04  0.10000000000E+04  0.00000000000E+00 0.  1.
    9000005    2    1    2  501    0  0.45494566717E+02 -0.49961549646E+02 -0.85434035415E+03  0.91534656321E+03  0.32155244985E+03 0.  0.
         13    1    3    3    0    0  0.15372666350E+03 -0.12967791422E+02 -0.73113012367E+03  0.74722908697E+03  0.00000000000E+00 0.  1.
          3    1    3    3  501    0 -0.10823209678E+03 -0.36993758225E+02 -0.12321023048E+03  0.16811747624E+03  0.00000000000E+00 0.  1.
         21    1    1    2  502  501 -0.45494566717E+02  0.49961549646E+02 -0.10524413863E+03  0.12506894402E+03  0.00000000000E+00 0. -1.
<mgrwt>
<rscale>  1 0.30000000E+03</rscale>
<asrwt>0</asrwt>
<pdfrwt beam="1">  1        1 0.14696579E+00 0.30000000E+03</pdfrwt>
<pdfrwt beam="2">0</pdfrwt>
<totfact> 0.18617524E+01</totfact>
</mgrwt>
</event>
<event>
 6    1  0.1875959E-004  0.3000000E+03  0.7818608E-02  0.1093470E+00
          1   -1    0    0  502    0  0.00000000000E+00  0.00000000000E+00  0.46167372483E+02  0.46167372483E+02  0.00000000000E+00 0.  1.
         13   -1    0    0    0    0 -0.00000000000E+00 -0.00000000000E+00 -0.10000000000E+04  0.10000000000E+04  0.00000000000E+00 0.  1.
    9000005    2    1    2  501    0 -0.12795716310E+02  0.17458277481E+02 -0.96717028984E+03  0.10207426789E+04  0.32562052318E+03 0.  0.
         13    1    3    3    0    0  0.10478552786E+03 -0.87990711155E+02 -0.67386861229E+03  0.68762001042E+03  0.00000000000E+00 0.  1.
          3    1    3    3  501    0 -0.11758124417E+03  0.10544898864E+03 -0.29330167756E+03  0.33312266846E+03  0.00000000000E+00 0.  1.
         21    1    1    2  502  501  0.12795716310E+02 -0.17458277481E+02  0.13337662328E+02  0.25424693604E+02  0.00000000000E+00 0.  1.
<mgrwt>
<rscale>  1 0.30000000E+03</rscale>
<asrwt>0</asrwt>
<pdfrwt beam="1">  1        1 0.16788171E+00 0.30000000E+03</pdfrwt>
<pdfrwt beam="2">0</pdfrwt>
<totfact> 0.14632403E+01</totfact>
</mgrwt>
</event>
<event>
 6    1  0.1875959E-004  0.3000000E+03  0.7818608E-02  0.1093470E+00
          1   -1    0    0  502    0  0.00000000000E+00  0.00000000000E+00  0.11954153656E+02  0.11954153656E+02  0.00000000000E+00 0.  1.
         13   -1    0    0    0    0 -0.00000000000E+00 -0.00000000000E+00 -0.10000000000E+04  0.10000000000E+04  0.00000000000E+00 0.  1.
    9000005    2    1    2  501    0 -0.98294106258E+01  0.46899817640E+01 -0.97453270144E+03  0.99459851113E+03  0.19847820770E+03 0.  0.
         13    1    3    3    0    0 -0.81918746637E+02 -0.42242294767E+02 -0.28048560108E+03  0.29524102854E+03  0.00000000000E+00 0.  1.
          1    1    3    3  501    0  0.72089336011E+02  0.46932276531E+02 -0.69404710036E+03  0.69935748259E+03  0.00000000000E+00 0.  1.
         21    1    1    2  502  501  0.98294106258E+01 -0.46899817640E+01 -0.13513144908E+02  0.17355642527E+02  0.00000000000E+00 0.  1.
<mgrwt>
<rscale>  1 0.30000000E+03</rscale>
<asrwt>0</asrwt>
<pdfrwt beam="1">  1        1 0.43469741E-01 0.30000000E+03</pdfrwt>
<pdfrwt beam="2">0</pdfrwt>
<totfact> 0.10601410E+02</totfact>
</mgrwt>
</event>
<event>
 6    1  0.1875959E-004  0.3000000E+03  0.7818608E-02  0.1093470E+00
          1   -1    0    0  502    0  0.00000000000E+00  0.00000000000E+00  0.38474982917E+02  0.38474982917E+02  0.00000000000E+00 0.  1.
         13   -1    0    0    0    0 -0.00000000000E+00 -0.00000000000E+00 -0.10000000000E+04  0.10000000000E+04  0.00000000000E+00 0.  1.
    9000005    2    1    2  501    0  0.33027482676E+02 -0.17399550607E+02 -0.92193657671E+03  0.98406171630E+03  0.34207725886E+03 0.  0.
         13    1    3    3    0    0  0.76743163700E+02 -0.35210961252E+02 -0.93198261852E+03  0.93579961861E+03  0.00000000000E+00 0.  1.
          1    1    3    3  501    0 -0.43715681024E+02  0.17811410645E+02  0.10046041813E+02  0.48262097682E+02  0.00000000000E+00 0.  1.
         21    1    1    2  502  501 -0.33027482676E+02  0.17399550607E+02 -0.39588440372E+02  0.54413266621E+02  0.00000000000E+00 0.  1.
<mgrwt>
<rscale>  1 0.30000000E+03</rscale>
<asrwt>0</asrwt>
<pdfrwt beam="1">  1        1 0.13990932E+00 0.30000000E+03</pdfrwt>
<pdfrwt beam="2">0</pdfrwt>
<totfact> 0.20254398E+01</totfact>
</mgrwt>
</event>
<event>
 6    1  0.1875959E-004  0.3000000E+03  0.7818608E-02  0.1093470E+00
          1   -1    0    0  502    0  0.00000000000E+00  0.00000000000E+00  0.30142201269E+02  0.30142201269E+02  0.00000000000E+00 0.  1.
         13   -1    0    0    0    0 -0.00000000000E+00 -0.00000000000E+00 -0.10000000000E+04  0.10000000000E+04  0.00000000000E+00 0.  1.
    9000005    2    1    2  501    0 -0.13483604037E+02  0.14765073801E+02 -0.94862916943E+03  0.10009793879E+04  0.31884576037E+03 0.  0.
         13    1    3    3    0    0  0.73697834251E+02 -0.68794624589E+02 -0.93935236879E+02  0.13779658876E+03  0.00000000000E+00 0.  1.
          3    1    3    3  501    0 -0.87181438289E+02  0.83559698391E+02 -0.85469393255E+03  0.86318279913E+03  0.00000000000E+00 0.  1.
         21    1    1    2  502  501  0.13483604037E+02 -0.14765073801E+02 -0.21228629300E+02  0.29162813378E+02  0.00000000000E+00 0. -1.
<mgrwt>
<rscale>  1 0.30000000E+03</rscale>
<asrwt>0</asrwt>
<pdfrwt beam="1">  1        1 0.10960824E+00 0.30000000E+03</pdfrwt>
<pdfrwt beam="2">0</pdfrwt>
<totfact> 0.29869993E+01</totfact>
</mgrwt>
</event>
<event>
 6    1  0.1875959E-004  0.3000000E+03  0.7818608E-02  0.1093470E+00
          1   -1    0    0  502    0  0.00000000000E+00  0.00000000000E+00  0.45864434635E+02  0.45864434635E+02  0.00000000000E+00 0.  1.
         13   -1    0    0    0    0 -0.00000000000E+00 -0.00000000000E+00 -0.10000000000E+04  0.10000000000E+04  0.00000000000E+00 0.  1.
    9000005    2    1    2  501    0  0.18711875031E+02  0.34970168428E+02 -0.95455990060E+03  0.10062005089E+04  0.31572426778E+03 0.  0.
         13    1    3    3    0    0 -0.50230730498E+02 -0.95171969356E+02 -0.72845350031E+03  0.73635951284E+03  0.00000000000E+00 0.  1.
          1    1    3    3  501    0  0.68942605529E+02  0.13014213778E+03 -0.22610640029E+03  0.26984099602E+03  0.00000000000E+00 0.  1.
         21    1    1    2  502  501 -0.18711875031E+02 -0.34970168428E+02  0.42433523224E+00  0.39663925770E+02  0.00000000000E+00 0.  1.
<mgrwt>
<rscale>  1 0.30000000E+03</rscale>
<asrwt>0</asrwt>
<pdfrwt beam="1">  1        1 0.16678011E+00 0.30000000E+03</pdfrwt>
<pdfrwt beam="2">0</pdfrwt>
<totfact> 0.14815649E+01</totfact>
</mgrwt>
</event>
<event>
 6    1  0.1875959E-004  0.3000000E+03  0.7818608E-02  0.1093470E+00
          1   -1    0    0  502    0  0.00000000000E+00  0.00000000000E+00  0.35408187464E+02  0.35408187464E+02  0.00000000000E+00 0.  1.
         13   -1    0    0    0    0 -0.00000000000E+00 -0.00000000000E+00 -0.10000000000E+04  0.10000000000E+04  0.00000000000E+00 0.  1.
    9000005    2    1    2  501    0 -0.63696291280E+01  0.11067594788E+02 -0.94251972057E+03  0.10099083625E+04  0.36250298364E+03 0.  0.
         13    1    3    3    0    0  0.15591192304E+03  0.87939693861E+02 -0.54676600587E+03  0.57532163411E+03  0.00000000000E+00 0.  1.
          3    1    3    3  501    0 -0.16228155217E+03 -0.76872099073E+02 -0.39575371470E+03  0.43458672839E+03  0.00000000000E+00 0.  1.
         21    1    1    2  502  501  0.63696291280E+01 -0.11067594788E+02 -0.22072091961E+02  0.25499824963E+02  0.00000000000E+00 0.  1.
<mgrwt>
<rscale>  1 0.30000000E+03</rscale>
<asrwt>0</asrwt>
<pdfrwt beam="1">  1        1 0.12875732E+00 0.30000000E+03</pdfrwt>
<pdfrwt beam="2">0</pdfrwt>
<totfact> 0.23239874E+01</totfact>
</mgrwt>
</event>
<event>
 6    1  0.1875959E-004  0.3000000E+03  0.7818608E-02  0.1093470E+00
          1   -1    0    0  502    0  0.00000000000E+00  0.00000000000E+00  0.36282650216E+02  0.36282650216E+02  0.00000000000E+00 0.  1.
         13   -1    0    0    0    0 -0.00000000000E+00 -0.00000000000E+00 -0.10000000000E+04  0.10000000000E+04  0.00000000000E+00 0.  1.
    9000005    2    1    2  501    0  0.40947459768E+01  0.46413089561E+02 -0.91033358328E+03  0.96542526984E+03  0.31806882427E+03 0.  0.
         13    1    3    3    0    0 -0.11301588969E+03 -0.29119800940E+02 -0.13851539146E+03  0.18112721441E+03  0.00000000000E+00 0.  1.
          3    1    3    3  501    0  0.11711063566E+03  0.75532890501E+02 -0.77181819182E+03  0.78429805543E+03  0.00000000000E+00 0.  1.
         21    1    1    2  502  501 -0.40947459768E+01 -0.46413089561E+02 -0.53383766503E+02  0.70857380373E+02  0.00000000000E+00 0. -1.
<mgrwt>
<rscale>  1 0.30000000E+03</rscale>
<asrwt>0</asrwt>
<pdfrwt beam="1">  1        1 0.13193719E+00 0.30000000E+03</pdfrwt>
<pdfrwt beam="2">0</pdfrwt>
<totfact> 0.22332785E+01</totfact>
</mgrwt>
</event>
<event>
 6    1  0.1875959E-004  0.3000000E+03  0.7818608E-02  0.1093470E+00
          1   -1    0    0  502    0  0.00000000000E+00  0.00000000000E+00  0.93965482678E+02  0.93965482678E+02  0.00000000000E+00 0.  1.
         13   -1    0    0    0    0 -0.00000000000E+00 -0.00000000000E+00 -0.10000000000E+04  0.10000000000E+04  0.00000000000E+00 0.  1.
    9000005    2    1    2  501    0 -0.55368766950E+01 -0.86195267692E+01 -0.97074866575E+03  0.10284454533E+04  0.33947330537E+03 0.  0.
         13    1    3    3    0    0  0.88670054309E+02  0.90387149991E+02 -0.79893778157E+03  0.80890901481E+03  0.00000000000E+00 0.  1.
          1    1    3    3  501    0 -0.94206931004E+02 -0.99006676760E+02 -0.17181088418E+03  0.21953643847E+03  0.00000000000E+00 0.  1.
         21    1    1    2  502  501  0.55368766950E+01  0.86195267692E+01  0.64714148432E+02  0.65520029400E+02  0.00000000000E+00 0. -1.
<mgrwt>
<rscale>  1 0.30000000E+03</rscale>
<asrwt>0</asrwt>
<pdfrwt beam="1">  1        1 0.34169338E+00 0.30000000E+03</pdfrwt>
<pdfrwt beam="2">0</pdfrwt>
<totfact> 0.21707312E+00</totfact>
</mgrwt>
</event>
<event>
 6    1  0.1875959E-004  0.3000000E+03  0.7818608E-02  0.1093470E+00
          1   -1    0    0  502    0  0.00000000000E+00  0.00000000000E+00  0.31111822656E+02  0.31111822656E+02  0.00000000000E+00 0.  1.
         13   -1    0    0    0    0 -0.00000000000E+00 -0.00000000000E+00 -0.10000000000E+04  0.10000000000E+04  0.00000000000E+00 0.  1.
    9000005    2    1    2  501    0  0.10947982272E+02  0.14515578980E+02 -0.92753650226E+03  0.98593969208E+03  0.33380016932E+03 0.  0.
         13    1    3    3    0    0 -0.69049639290E+01  0.13794430791E+03 -0.17400563183E+03  0.22215821056E+03  0.00000000000E+00 0.  1.
          1    1    3    3  501    0  0.17852946201E+02 -0.12342872893E+03 -0.75353087043E+03  0.76378148152E+03  0.00000000000E+00 0.  1.
         21    1    1    2  502  501 -0.10947982272E+02 -0.14515578980E+02 -0.41351675083E+02  0.45172130580E+02  0.00000000000E+00 0.  1.
<mgrwt>
<rscale>  1 0.30000000E+03</rscale>
<asrwt>0</asrwt>
<pdfrwt beam="1">  1        1 0.11313414E+00 0.30000000E+03</pdfrwt>
<pdfrwt beam="2">0</pdfrwt>
<totfact> 0.28469660E+01</totfact>
</mgrwt>
</event>
<event>
 6    1  0.1875959E-004  0.3000000E+03  0.7818608E-02  0.1093470E+00
          1   -1    0    0  502    0  0.00000000000E+00  0.00000000000E+00  0.29499792651E+02  0.29499792651E+02  0.00000000000E+00 0.  1.
         13   -1    0    0    0    0 -0.00000000000E+00 -0.00000000000E+00 -0.10000000000E+04  0.10000000000E+04  0.00000000000E+00 0.  1.
    9000005    2    1    2  501    0 -0.24150509948E+00  0.13482636532E+02 -0.95910130388E+03  0.10118426464E+04  0.32213101404E+03 0.  0.
         13    1    3    3    0    0  0.58975667349E+02 -0.11502642166E+03 -0.18980162410E+03  0.22963854975E+03  0.00000000000E+00 0.  1.
          1    1    3    3  501    0 -0.59217172448E+02  0.12850905819E+03 -0.76929967978E+03  0.78220409668E+03  0.00000000000E+00 0.  1.
         21    1    1    2  502  501  0.24150509948E+00 -0.13482636532E+02 -0.11398903468E+02  0.17657146226E+02  0.00000000000E+00 0.  1.
<mgrwt>
<rscale>  1 0.30000000E+03</rscale>
<asrwt>0</asrwt>
<pdfrwt beam="1">  1        1 0.10727220E+00 0.30000000E+03</pdfrwt>
<pdfrwt beam="2">0</pdfrwt>
<totfact> 0.30852245E+01</totfact>
</mgrwt>
</event>
<event>
 6    1  0.1875959E-004  0.3000000E+03  0.7818608E-02  0.1093470E+00
          1   -1    0    0  502    0  0.00000000000E+00  0.00000000000E+00  0.32208006216E+02  0.32208006216E+02  0.00000000000E+00 0.  1.
         13   -1    0    0    0    0 -0.00000000000E+00 -0.00000000000E+00 -0.10000000000E+04  0.10000000000E+04  0.00000000000E+00 0.  1.
    9000005    2    1    2  501    0 -0.17846531198E+02  0.15058437739E+02 -0.94065202745E+03  0.99640531085E+03  0.32779879732E+03 0.  0.
         13    1    3    3    0    0 -0.16193769688E+03  0.34589230363E+02 -0.65834326711E+03  0.67884909213E+03  0.00000000000E+00 0.  1.
          1    1    3    3  501    0  0.14409116568E+03 -0.19530792624E+02 -0.28230876033E+03  0.31755621872E+03  0.00000000000E+00 0.  1.
         21    1    1    2  502  501  0.17846531198E+02 -0.15058437739E+02 -0.27139966339E+02  0.35802695371E+02  0.00000000000E+00 0. -1.
<mgrwt>
<rscale>  1 0.30000000E+03</rscale>
<asrwt>0</asrwt>
<pdfrwt beam="1">  1        1 0.11712027E+00 0.30000000E+03</pdfrwt>
<pdfrwt beam="2">0</pdfrwt>
<totfact> 0.26995903E+01</totfact>
</mgrwt>
</event>
<event>
 6    1  0.1875959E-004  0.3000000E+03  0.7818608E-02  0.1093470E+00
          1   -1    0    0  502    0  0.00000000000E+00  0.00000000000E+00  0.53099975996E+02  0.53099975996E+02  0.00000000000E+00 0.  1.
         13   -1    0    0    0    0 -0.00000000000E+00 -0.00000000000E+00 -0.10000000000E+04  0.10000000000E+04  0.00000000000E+00 0.  1.
    9000005    2    1    2  501    0 -0.16187696367E+02  0.98227616227E+01 -0.97252632196E+03  0.10212372186E+04  0.31106186150E+03 0.  0.
         13    1    3    3    0    0  0.13932095888E+03  0.37202435282E+02 -0.59076234233E+03  0.60810730623E+03  0.00000000000E+00 0.  1.
          3    1    3    3  501    0 -0.15550865525E+03 -0.27379673659E+02 -0.38176397963E+03  0.41312991241E+03  0.00000000000E+00 0.  1.
         21    1    1    2  502  501  0.16187696367E+02 -0.98227616227E+01  0.25626297953E+02  0.31862757356E+02  0.00000000000E+00 0. -1.
<mgrwt>
<rscale>  1 0.30000000E+03</rscale>
<asrwt>0</asrwt>
<pdfrwt beam="1">  1        1 0.19309123E+00 0.30000000E+03</pdfrwt>
<pdfrwt beam="2">0</pdfrwt>
<totfact> 0.11050485E+01</totfact>
</mgrwt>
</event>
<event>
 6    1  0.1875959E-004  0.3000000E+03  0.7818608E-02  0.1093470E+00
          1   -1    0    0  502    0  0.00000000000E+00  0.00000000000E+00  0.29240446468E+02  0.29240446468E+02  0.00000000000E+00 0.  1.
         13   -1    0    0    0    0 -0.00000000000E+00 -0.00000000000E+00 -0.10000000000E+04  0.10000000000E+04  0.00000000000E+00 0.  1.
    9000005    2    1    2  501    0 -0.13281263636E+02  0.29929691485E+01 -0.96762338397E+03  0.10152695701E+04  0.30706992176E+03 0.  0.
         13    1    3    3    0    0 -0.80509280097E+02  0.13063441420E+03 -0.37162548671E+03  0.40206043914E+03  0.00000000000E+00 0.  1.
          3    1    3    3  501    0  0.67228016461E+02 -0.12764144505E+03 -0.59599789727E+03  0.61320913092E+03  0.00000000000E+00 0.  1.
         21    1    1    2  502  501  0.13281263636E+02 -0.29929691485E+01 -0.31361695602E+01  0.13970876408E+02  0.00000000000E+00 0.  1.
<mgrwt>
<rscale>  1 0.30000000E+03</rscale>
<asrwt>0</asrwt>
<pdfrwt beam="1">  1        1 0.10632912E+00 0.30000000E+03</pdfrwt>
<pdfrwt beam="2">0</pdfrwt>
<totfact> 0.31261923E+01</totfact>
</mgrwt>
</event>
<event>
 6    1  0.1875959E-004  0.3000000E+03  0.7818608E-02  0.1093470E+00
          1   -1    0    0  502    0  0.00000000000E+00  0.00000000000E+00  0.44907999249E+02  0.44907999249E+02  0.00000000000E+00 0.  1.
         13   -1    0    0    0    0 -0.00000000000E+00 -0.00000000000E+00 -0.10000000000E+04  0.10000000000E+04  0.00000000000E+00 0.  1.
    9000005    2    1    2  501    0 -0.48965447288E+02 -0.40604282152E+02 -0.89598127742E+03  0.95807252050E+03  0.33327793550E+03 0.  0.
         13    1    3    3    0    0  0.10271071498E+01 -0.18493658298E+03 -0.53669222317E+03  0.56766287274E+03  0.00000000000E+00 0.  1.
          3    1    3    3  501    0 -0.49992554438E+02  0.14433230083E+03 -0.35928905425E+03  0.39040964776E+03  0.00000000000E+00 0.  1.
         21    1    1    2  502  501  0.48965447288E+02  0.40604282152E+02 -0.59110723333E+02  0.86835478752E+02  0.00000000000E+00 0. -1.
<mgrwt>
<rscale>  1 0.30000000E+03</rscale>
<asrwt>0</asrwt>
<pdfrwt beam="1">  1        1 0.16330216E+00 0.30000000E+03</pdfrwt>
<pdfrwt beam="2">0</pdfrwt>
<totfact> 0.15411587E+01</totfact>
</mgrwt>
</event>
<event>
 6    1  0.1875959E-004  0.3000000E+03  0.7818608E-02  0.1093470E+00
          1   -1    0    0  502    0  0.00000000000E+00  0.00000000000E+00  0.49418133615E+02  0.49418133615E+02  0.00000000000E+00 0.  1.
         13   -1    0    0    0    0 -0.00000000000E+00 -0.00000000000E+00 -0.10000000000E+04  0.10000000000E+04  0.00000000000E+00 0.  1.
    9000005    2    1    2  501    0  0.79565877710E+02  0.63400546094E+02 -0.68937026591E+03  0.76909357464E+03  0.32545845341E+03 0.  0.
         13    1    3    3    0    0 -0.21068565807E+02  0.75949928169E+02 -0.68888631466E+01  0.79118471228E+02  0.00000000000E+00 0.  1.
          3    1    3    3  501    0  0.10063444352E+03 -0.12549382075E+02 -0.68248140277E+03  0.68997510342E+03  0.00000000000E+00 0.  1.
         21    1    1    2  502  501 -0.79565877710E+02 -0.63400546094E+02 -0.26121160047E+03  0.28032455897E+03  0.00000000000E+00 0.  1.
<mgrwt>
<rscale>  1 0.30000000E+03</rscale>
<asrwt>0</asrwt>
<pdfrwt beam="1">  1        1 0.17970268E+00 0.30000000E+03</pdfrwt>
<pdfrwt beam="2">0</pdfrwt>
<totfact> 0.12816827E+01</totfact>
</mgrwt>
</event>
<event>
 6    1  0.1875959E-004  0.3000000E+03  0.7818608E-02  0.1093470E+00
          1   -1    0    0  502    0  0.00000000000E+00  0.00000000000E+00  0.27610342103E+02  0.27610342103E+02  0.00000000000E+00 0.  1.
         13   -1    0    0    0    0 -0.00000000000E+00 -0.00000000000E+00 -0.10000000000E+04  0.10000000000E+04  0.00000000000E+00 0.  1.
    9000005    2    1    2  501    0 -0.73382642476E+01 -0.18439858367E+02 -0.91822701092E+03  0.96992610833E+03  0.31180431930E+03 0.  0.
         13    1    3    3    0    0  0.81808433105E+02  0.11515644741E+03 -0.30680614387E+03  0.33776269335E+03  0.00000000000E+00 0.  1.
          1    1    3    3  501    0 -0.89146697352E+02 -0.13359630577E+03 -0.61142086706E+03  0.63216341498E+03  0.00000000000E+00 0.  1.
         21    1    1    2  502  501  0.73382642476E+01  0.18439858367E+02 -0.54162646975E+02  0.57684233774E+02  0.00000000000E+00 0.  1.
<mgrwt>
<rscale>  1 0.30000000E+03</rscale>
<asrwt>0</asrwt>
<pdfrwt beam="1">  1        1 0.10040146E+00 0.30000000E+03</pdfrwt>
<pdfrwt beam="2">0</pdfrwt>
<totfact> 0.34026911E+01</totfact>
</mgrwt>
</event>
<event>
 6    1  0.1875959E-004  0.3000000E+03  0.7818608E-02  0.1093470E+00
          1   -1    0    0  502    0  0.00000000000E+00  0.00000000000E+00  0.31638403332E+02  0.31638403332E+02  0.00000000000E+00 0.  1.
         13   -1    0    0    0    0 -0.00000000000E+00 -0.00000000000E+00 -0.10000000000E+04  0.10000000000E+04  0.00000000000E+00 0.  1.
    9000005    2    1    2  501    0 -0.14175916573E+02  0.13839666499E+02 -0.94832737506E+03  0.10034628285E+04  0.32744517860E+03 0.  0.
         13    1    3    3    0    0  0.12018471042E+03 -0.81940064327E+02 -0.28567315304E+03  0.32057399946E+03  0.00000000000E+00 0.  1.
          3    1    3    3  501    0 -0.13436062699E+03  0.95779730826E+02 -0.66265422202E+03  0.68288882908E+03  0.00000000000E+00 0.  1.
         21    1    1    2  502  501  0.14175916573E+02 -0.13839666499E+02 -0.20034221607E+02  0.28175574792E+02  0.00000000000E+00 0.  1.
<mgrwt>
<rscale>  1 0.30000000E+03</rscale>
<asrwt>0</asrwt>
<pdfrwt beam="1">  1        1 0.11504898E+00 0.30000000E+03</pdfrwt>
<pdfrwt beam="2">0</pdfrwt>
<totfact> 0.27747992E+01</totfact>
</mgrwt>
</event>
<event>
 6    1  0.1875959E-004  0.3000000E+03  0.7818608E-02  0.1093470E+00
          1   -1    0    0  502    0  0.00000000000E+00  0.00000000000E+00  0.33615822187E+02  0.33615822187E+02  0.00000000000E+00 0.  1.
         13   -1    0    0    0    0 -0.00000000000E+00 -0.00000000000E+00 -0.10000000000E+04  0.10000000000E+04  0.00000000000E+00 0.  1.
    9000005    2    1    2  501    0  0.13782157280E+02 -0.76304932068E+01 -0.95033310785E+03  0.10111256214E+04  0.34495482897E+03 0.  0.
         13    1    3    3    0    0 -0.11783149495E+03 -0.75340788853E+02 -0.74496407544E+03  0.75797887132E+03  0.00000000000E+00 0.  1.
          1    1    3    3  501    0  0.13161365223E+03  0.67710295646E+02 -0.20536903241E+03  0.25314675005E+03  0.00000000000E+00 0.  1.
         21    1    1    2  502  501 -0.13782157280E+02  0.76304932068E+01 -0.16051069961E+02  0.22490200816E+02  0.00000000000E+00 0.  1.
<mgrwt>
<rscale>  1 0.30000000E+03</rscale>
<asrwt>0</asrwt>
<pdfrwt beam="1">  1        1 0.12223961E+00 0.30000000E+03</pdfrwt>
<pdfrwt beam="2">0</pdfrwt>
<totfact> 0.25252503E+01</totfact>
</mgrwt>
</event>
<event>
 6    1  0.1875959E-004  0.3000000E+03  0.7818608E-02  0.1093470E+00
          3   -1    0    0  502    0  0.00000000000E+00  0.00000000000E+00  0.99503103634E+01  0.99503103634E+01  0.00000000000E+00 0.  1.
         13   -1    0    0    0    0 -0.00000000000E+00 -0.00000000000E+00 -0.10000000000E+04  0.10000000000E+04  0.00000000000E+00 0.  1.
    9000005    2    1    2  501    0  0.22481370997E+02  0.31387595741E+01 -0.93473164900E+03  0.95015608427E+03  0.16899131632E+03 0.  0.
         13    1    3    3    0    0  0.78646261052E+02 -0.49912334541E+02 -0.49447758553E+03  0.50317448078E+03  0.00000000000E+00 0.  1.
          1    1    3    3  501    0 -0.56164890055E+02  0.53051094115E+02 -0.44025406347E+03  0.44698160349E+03  0.00000000000E+00 0.  1.
         21    1    1    2  502  501 -0.22481370997E+02 -0.31387595741E+01 -0.55318040639E+02  0.59794226090E+02  0.00000000000E+00 0.  1.
<mgrwt>
<rscale>  1 0.30000000E+03</rscale>
<asrwt>0</asrwt>
<pdfrwt beam="1">  1        3 0.36183023E-01 0.30000000E+03</pdfrwt>
<pdfrwt beam="2">0</pdfrwt>
<totfact> 0.32666687E+01</totfact>
</mgrwt>
</event>
<event>
 6    1  0.1875959E-004  0.3000000E+03  0.7818608E-02  0.1093470E+00
          1   -1    0    0  502    0  0.00000000000E+00  0.00000000000E+00  0.47198828345E+02  0.47198828345E+02  0.00000000000E+00 0.  1.
         13   -1    0    0    0    0 -0.00000000000E+00 -0.00000000000E+00 -0.10000000000E+04  0.10000000000E+04  0.00000000000E+00 0.  1.
    9000005    2    1    2  501    0  0.22114191060E+02 -0.87071155806E+01 -0.96551397658E+03  0.10202457818E+04  0.32881509249E+03 0.  0.
         13    1    3    3    0    0 -0.42879216767E+02 -0.14218804261E+03 -0.70431408029E+03  0.71980163266E+03  0.00000000000E+00 0.  1.
          1    1    3    3  501    0  0.64993407826E+02  0.13348092703E+03 -0.26119989629E+03  0.30044414916E+03  0.00000000000E+00 0.  1.
         21    1    1    2  502  501 -0.22114191060E+02  0.87071155806E+01  0.12712804922E+02  0.26953046524E+02  0.00000000000E+00 0.  1.
<mgrwt>
<rscale>  1 0.30000000E+03</rscale>
<asrwt>0</asrwt>
<pdfrwt beam="1">  1        1 0.17163246E+00 0.30000000E+03</pdfrwt>
<pdfrwt beam="2">0</pdfrwt>
<totfact> 0.14027403E+01</totfact>
</mgrwt>
</event>
<event>
 6    1  0.1875959E-004  0.3000000E+03  0.7818608E-02  0.1093470E+00
          1   -1    0    0  502    0  0.00000000000E+00  0.00000000000E+00  0.30967728489E+02  0.30967728489E+02  0.00000000000E+00 0.  1.
         13   -1    0    0    0    0 -0.00000000000E+00 -0.00000000000E+00 -0.10000000000E+04  0.10000000000E+04  0.00000000000E+00 0.  1.
    9000005    2    1    2  501    0 -0.24268295702E+02 -0.85886482010E+01 -0.94165659488E+03  0.99338924096E+03  0.31534477372E+03 0.  0.
         13    1    3    3    0    0  0.42405697921E+02  0.13176816608E+03 -0.63140162024E+03  0.64639701334E+03  0.00000000000E+00 0.  1.
          1    1    3    3  501    0 -0.66673993624E+02 -0.14035681428E+03 -0.31025497464E+03  0.34699222762E+03  0.00000000000E+00 0.  1.
         21    1    1    2  502  501  0.24268295702E+02  0.85886482010E+01 -0.27375676631E+02  0.37578487533E+02  0.00000000000E+00 0. -1.
<mgrwt>
<rscale>  1 0.30000000E+03</rscale>
<asrwt>0</asrwt>
<pdfrwt beam="1">  1        1 0.11261016E+00 0.30000000E+03</pdfrwt>
<pdfrwt beam="2">0</pdfrwt>
<totfact> 0.28671781E+01</totfact>
</mgrwt>
</event>
<event>
 6    1  0.1875959E-004  0.3000000E+03  0.7818608E-02  0.1093470E+00
          1   -1    0    0  502    0  0.00000000000E+00  0.00000000000E+00  0.37207761426E+02  0.37207761426E+02  0.00000000000E+00 0.  1.
         13   -1    0    0    0    0 -0.00000000000E+00 -0.00000000000E+00 -0.10000000000E+04  0.10000000000E+04  0.00000000000E+00 0.  1.
    9000005    2    1    2  501    0  0.92062729423E+01 -0.17459946916E+02 -0.96254269776E+03  0.10174677645E+04  0.32918475297E+03 0.  0.
         13    1    3    3    0    0 -0.40381619361E+02  0.80161060757E+02 -0.59220705572E+02  0.10753400770E+03  0.00000000000E+00 0.  1.
          3    1    3    3  501    0  0.49587892303E+02 -0.97621007673E+02 -0.90332199219E+03  0.90993375680E+03  0.00000000000E+00 0.  1.
         21    1    1    2  502  501 -0.92062729423E+01  0.17459946916E+02 -0.24954081471E+00  0.19739996921E+02  0.00000000000E+00 0.  1.
<mgrwt>
<rscale>  1 0.30000000E+03</rscale>
<asrwt>0</asrwt>
<pdfrwt beam="1">  1        1 0.13530124E+00 0.30000000E+03</pdfrwt>
<pdfrwt beam="2">0</pdfrwt>
<totfact> 0.21423075E+01</totfact>
</mgrwt>
</event>
<event>
 6    1  0.1875959E-004  0.3000000E+03  0.7818608E-02  0.1093470E+00
          1   -1    0    0  502    0  0.00000000000E+00  0.00000000000E+00  0.84092559065E+02  0.84092559065E+02  0.00000000000E+00 0.  1.
         13   -1    0    0    0    0 -0.00000000000E+00 -0.00000000000E+00 -0.10000000000E+04  0.10000000000E+04  0.00000000000E+00 0.  1.
    9000005    2    1    2  501    0  0.16334316724E+03 -0.39214495244E+02 -0.77931628987E+03  0.86758410779E+03  0.34227114620E+03 0.  0.
         13    1    3    3    0    0  0.23624452566E+02  0.69604088693E+02 -0.54423702535E+01  0.73705246189E+02  0.00000000000E+00 0.  1.
          1    1    3    3  501    0  0.13971871468E+03 -0.10881858394E+03 -0.77387391961E+03  0.79387886160E+03  0.00000000000E+00 0.  1.
         21    1    1    2  502  501 -0.16334316724E+03  0.39214495244E+02 -0.13659115107E+03  0.21650845127E+03  0.00000000000E+00 0.  1.
<mgrwt>
<rscale>  1 0.30000000E+03</rscale>
<asrwt>0</asrwt>
<pdfrwt beam="1">  1        1 0.30579177E+00 0.30000000E+03</pdfrwt>
<pdfrwt beam="2">0</pdfrwt>
<totfact> 0.32607537E+00</totfact>
</mgrwt>
</event>
<event>
 6    1  0.1875959E-004  0.3000000E+03  0.7818608E-02  0.1093470E+00
          1   -1    0    0  502    0  0.00000000000E+00  0.00000000000E+00  0.47469194651E+02  0.47469194651E+02  0.00000000000E+00 0.  1.
         13   -1    0    0    0    0 -0.00000000000E+00 -0.00000000000E+00 -0.10000000000E+04  0.10000000000E+04  0.00000000000E+00 0.  1.
    9000005    2    1    2  501    0  0.10731836658E+03 -0.81615594996E+02 -0.76636677995E+03  0.81760971257E+03  0.25097661946E+03 0.  0.
         13    1    3    3    0    0 -0.18672216531E+02 -0.14309704562E+03 -0.41031043755E+03  0.43494835475E+03  0.00000000000E+00 0.  1.
          3    1    3    3  501    0  0.12599058311E+03  0.61481450623E+02 -0.35605634240E+03  0.38266135782E+03  0.00000000000E+00 0.  1.
         21    1    1    2  502  501 -0.10731836658E+03  0.81615594996E+02 -0.18616402540E+03  0.22985948209E+03  0.00000000000E+00 0.  1.
<mgrwt>
<rscale>  1 0.30000000E+03</rscale>
<asrwt>0</asrwt>
<pdfrwt beam="1">  1        1 0.17261562E+00 0.30000000E+03</pdfrwt>
<pdfrwt beam="2">0</pdfrwt>
<totfact> 0.13873497E+01</totfact>
</mgrwt>
</event>
<event>
 6    1  0.1875959E-004  0.3000000E+03  0.7818608E-02  0.1093470E+00
          1   -1    0    0  502    0  0.00000000000E+00  0.00000000000E+00  0.72174223856E+02  0.72174223856E+02  0.00000000000E+00 0.  1.
         13   -1    0    0    0    0 -0.00000000000E+00 -0.00000000000E+00 -0.10000000000E+04  0.10000000000E+04  0.00000000000E+00 0.  1.
    9000005    2    1    2  501    0  0.18461789684E+01  0.11130463125E+02 -0.97302129549E+03  0.10255917105E+04  0.32394539583E+03 0.  0.
         13    1    3    3    0    0  0.70867512144E+00 -0.18267077401E+02  0.22863014088E+02  0.29272952539E+02  0.00000000000E+00 0.  1.
          3    1    3    3  501    0  0.11375038469E+01  0.29397540526E+02 -0.99588430958E+03  0.99631875791E+03  0.00000000000E+00 0.  1.
         21    1    1    2  502  501 -0.18461789684E+01 -0.11130463125E+02  0.45195519347E+02  0.46582513405E+02  0.00000000000E+00 0.  1.
<mgrwt>
<rscale>  1 0.30000000E+03</rscale>
<asrwt>0</asrwt>
<pdfrwt beam="1">  1        1 0.26245228E+00 0.30000000E+03</pdfrwt>
<pdfrwt beam="2">0</pdfrwt>
<totfact> 0.52179116E+00</totfact>
</mgrwt>
</event>
<event>
 6    1  0.1875959E-004  0.3000000E+03  0.7818608E-02  0.1093470E+00
          1   -1    0    0  502    0  0.00000000000E+00  0.00000000000E+00  0.38990727576E+02  0.38990727576E+02  0.00000000000E+00 0.  1.
         13   -1    0    0    0    0 -0.00000000000E+00 -0.00000000000E+00 -0.10000000000E+04  0.10000000000E+04  0.00000000000E+00 0.  1.
    9000005    2    1    2  501    0 -0.42951154533E+01  0.30018111055E+02 -0.95879752756E+03  0.10085863393E+04  0.31150308195E+03 0.  0.
         13    1    3    3    0    0 -0.61418301710E+02  0.15255439105E+03 -0.66724762247E+03  0.68721498798E+03  0.00000000000E+00 0.  1.
          1    1    3    3  501    0  0.57123186257E+02 -0.12253628000E+03 -0.29154990508E+03  0.32137135136E+03  0.00000000000E+00 0.  1.
         21    1    1    2  502  501  0.42951154533E+01 -0.30018111055E+02 -0.22117448671E+01  0.30404388227E+02  0.00000000000E+00 0.  1.
<mgrwt>
<rscale>  1 0.30000000E+03</rscale>
<asrwt>0</asrwt>
<pdfrwt beam="1">  1        1 0.14178476E+00 0.30000000E+03</pdfrwt>
<pdfrwt beam="2">0</pdfrwt>
<totfact> 0.19802154E+01</totfact>
</mgrwt>
</event>
<event>
 6    1  0.1875959E-004  0.3000000E+03  0.7818608E-02  0.1093470E+00
          1   -1    0    0  502    0  0.00000000000E+00  0.00000000000E+00  0.32948650399E+02  0.32948650399E+02  0.00000000000E+00 0.  1.
         13   -1    0    0    0    0 -0.00000000000E+00 -0.00000000000E+00 -0.10000000000E+04  0.10000000000E+04  0.00000000000E+00 0.  1.
    9000005    2    1    2  501    0 -0.29909774196E+02  0.17345123812E+02 -0.87827135983E+03  0.93767360384E+03  0.32661255018E+03 0.  0.
         13    1    3    3    0    0 -0.40416907739E+02 -0.10964575845E+02 -0.89968233846E+03  0.90065645975E+03  0.00000000000E+00 0.  1.
          3    1    3    3  501    0  0.10507133543E+02  0.28309699657E+02  0.21410978637E+02  0.37017144085E+02  0.00000000000E+00 0.  1.
         21    1    1    2  502  501  0.29909774196E+02 -0.17345123812E+02 -0.88779989775E+02  0.95275046560E+02  0.00000000000E+00 0.  1.
<mgrwt>
<rscale>  1 0.30000000E+03</rscale>
<asrwt>0</asrwt>
<pdfrwt beam="1">  1        1 0.11981353E+00 0.30000000E+03</pdfrwt>
<pdfrwt beam="2">0</pdfrwt>
<totfact> 0.26059235E+01</totfact>
</mgrwt>
</event>
<event>
 6    1  0.1875959E-004  0.3000000E+03  0.7818608E-02  0.1093470E+00
          1   -1    0    0  502    0  0.00000000000E+00  0.00000000000E+00  0.54902519521E+02  0.54902519521E+02  0.00000000000E+00 0.  1.
         13   -1    0    0    0    0 -0.00000000000E+00 -0.00000000000E+00 -0.10000000000E+04  0.10000000000E+04  0.00000000000E+00 0.  1.
    9000005    2    1    2  501    0 -0.40096023700E+02 -0.37101990873E+01 -0.96139687039E+03  0.10114614467E+04  0.31168711738E+03 0.  0.
         13    1    3    3    0    0  0.12088546928E+03  0.56744501542E+02 -0.54137751339E+03  0.55760456162E+03  0.00000000000E+00 0.  1.
          3    1    3    3  501    0 -0.16098149298E+03 -0.60454700630E+02 -0.42001935699E+03  0.45385688511E+03  0.00000000000E+00 0.  1.
         21    1    1    2  502  501  0.40096023700E+02  0.37101990873E+01  0.16299389907E+02  0.43441072790E+02  0.00000000000E+00 0.  1.
<mgrwt>
<rscale>  1 0.30000000E+03</rscale>
<asrwt>0</asrwt>
<pdfrwt beam="1">  1        1 0.19964595E+00 0.30000000E+03</pdfrwt>
<pdfrwt beam="2">0</pdfrwt>
<totfact> 0.10283196E+01</totfact>
</mgrwt>
</event>
<event>
 6    1  0.1875959E-004  0.3000000E+03  0.7818608E-02  0.1093470E+00
          1   -1    0    0  502    0  0.00000000000E+00  0.00000000000E+00  0.64733150944E+02  0.64733150944E+02  0.00000000000E+00 0.  1.
         13   -1    0    0    0    0 -0.00000000000E+00 -0.00000000000E+00 -0.10000000000E+04  0.10000000000E+04  0.00000000000E+00 0.  1.
    9000005    2    1    2  501    0 -0.57196887745E+00 -0.25370947953E+02 -0.97073929653E+03  0.10211177101E+04  0.31575715976E+03 0.  0.
         13    1    3    3    0    0 -0.65012086276E+02 -0.35457975650E+02 -0.94970115748E+03  0.95258392171E+03  0.00000000000E+00 0.  1.
          1    1    3    3  501    0  0.64440117398E+02  0.10087027696E+02 -0.21038139057E+02  0.68533788404E+02  0.00000000000E+00 0.  1.
         21    1    1    2  502  501  0.57196887745E+00  0.25370947953E+02  0.35472447476E+02  0.43615440826E+02  0.00000000000E+00 0.  1.
<mgrwt>
<rscale>  1 0.30000000E+03</rscale>
<asrwt>0</asrwt>
<pdfrwt beam="1">  1        1 0.23539377E+00 0.30000000E+03</pdfrwt>
<pdfrwt beam="2">0</pdfrwt>
<totfact> 0.69825102E+00</totfact>
</mgrwt>
</event>
<event>
 6    1  0.1875959E-004  0.3000000E+03  0.7818608E-02  0.1093470E+00
          1   -1    0    0  502    0  0.00000000000E+00  0.00000000000E+00  0.34837924714E+02  0.34837924714E+02  0.00000000000E+00 0.  1.
         13   -1    0    0    0    0 -0.00000000000E+00 -0.00000000000E+00 -0.10000000000E+04  0.10000000000E+04  0.00000000000E+00 0.  1.
    9000005    2    1    2  501    0 -0.67609298413E+01  0.15595628681E+02 -0.93714146411E+03  0.10020646359E+04  0.35441568397E+03 0.  0.
         13    1    3    3    0    0  0.75874339531E+02 -0.13965101994E+03 -0.61320056550E+03  0.63346211907E+03  0.00000000000E+00 0.  1.
          1    1    3    3  501    0 -0.82635269372E+02  0.15524664862E+03 -0.32394089861E+03  0.36860251687E+03  0.00000000000E+00 0.  1.
         21    1    1    2  502  501  0.67609298413E+01 -0.15595628681E+02 -0.28020611179E+02  0.32773288774E+02  0.00000000000E+00 0. -1.
<mgrwt>
<rscale>  1 0.30000000E+03</rscale>
<asrwt>0</asrwt>
<pdfrwt beam="1">  1        1 0.12668363E+00 0.30000000E+03</pdfrwt>
<pdfrwt beam="2">0</pdfrwt>
<totfact> 0.23857218E+01</totfact>
</mgrwt>
</event>
<event>
 6    1  0.1875959E-004  0.3000000E+03  0.7818608E-02  0.1093470E+00
          1   -1    0    0  502    0  0.00000000000E+00  0.00000000000E+00  0.28656417371E+02  0.28656417371E+02  0.00000000000E+00 0.  1.
         13   -1    0    0    0    0 -0.00000000000E+00 -0.00000000000E+00 -0.10000000000E+04  0.10000000000E+04  0.00000000000E+00 0.  1.
    9000005    2    1    2  501    0 -0.90877336872E+01 -0.74070524435E+01 -0.96274500664E+03  0.10141172689E+04  0.31846261307E+03 0.  0.
         13    1    3    3    0    0  0.20370890809E+02 -0.79689836240E+01 -0.97981935593E+03  0.98006349190E+03  0.00000000000E+00 0.  1.
          3    1    3    3  501    0 -0.29458624497E+02  0.56193118059E+00  0.17074349291E+02  0.34053776995E+02  0.00000000000E+00 0.  1.
         21    1    1    2  502  501  0.90877336872E+01  0.74070524435E+01 -0.85985759898E+01  0.14539148480E+02  0.00000000000E+00 0.  1.
<mgrwt>
<rscale>  1 0.30000000E+03</rscale>
<asrwt>0</asrwt>
<pdfrwt beam="1">  1        1 0.10420537E+00 0.30000000E+03</pdfrwt>
<pdfrwt beam="2">0</pdfrwt>
<totfact> 0.32213684E+01</totfact>
</mgrwt>
</event>
<event>
 6    1  0.1875959E-004  0.3000000E+03  0.7818608E-02  0.1093470E+00
          1   -1    0    0  502    0  0.00000000000E+00  0.00000000000E+00  0.48089547025E+02  0.48089547025E+02  0.00000000000E+00 0.  1.
         13   -1    0    0    0    0 -0.00000000000E+00 -0.00000000000E+00 -0.10000000000E+04  0.10000000000E+04  0.00000000000E+00 0.  1.
    9000005    2    1    2  501    0 -0.99735466155E+01 -0.40280256521E+01 -0.97107099262E+03  0.10261163155E+04  0.33139119430E+03 0.  0.
         13    1    3    3    0    0 -0.11328571749E+03 -0.44141730612E+02 -0.13084535570E+03  0.17861313859E+03  0.00000000000E+00 0.  1.
          3    1    3    3  501    0  0.10331217088E+03  0.40113704960E+02 -0.84022563692E+03  0.84750317694E+03  0.00000000000E+00 0.  1.
         21    1    1    2  502  501  0.99735466155E+01  0.40280256521E+01  0.19160539648E+02  0.21973231496E+02  0.00000000000E+00 0.  1.
<mgrwt>
<rscale>  1 0.30000000E+03</rscale>
<asrwt>0</asrwt>
<pdfrwt beam="1">  1        1 0.17487145E+00 0.30000000E+03</pdfrwt>
<pdfrwt beam="2">0</pdfrwt>
<totfact> 0.13527295E+01</totfact>
</mgrwt>
</event>
<event>
 6    1  0.1875959E-004  0.3000000E+03  0.7818608E-02  0.1093470E+00
          1   -1    0    0  502    0  0.00000000000E+00  0.00000000000E+00  0.30845428941E+02  0.30845428941E+02  0.00000000000E+00 0.  1.
         13   -1    0    0    0    0 -0.00000000000E+00 -0.00000000000E+00 -0.10000000000E+04  0.10000000000E+04  0.00000000000E+00 0.  1.
    9000005    2    1    2  501    0 -0.31777827862E+01  0.16772749235E+02 -0.93919606870E+03  0.99636448806E+03  0.33220703513E+03 0.  0.
         13    1    3    3    0    0 -0.14286500981E+03  0.33575596440E+02 -0.72766537652E+03  0.74231706965E+03  0.00000000000E+00 0.  1.
          1    1    3    3  501    0  0.13968722703E+03 -0.16802847205E+02 -0.21153069218E+03  0.25404741841E+03  0.00000000000E+00 0.  1.
         21    1    1    2  502  501  0.31777827862E+01 -0.16772749235E+02 -0.29958502357E+02  0.34480940878E+02  0.00000000000E+00 0. -1.
<mgrwt>
<rscale>  1 0.30000000E+03</rscale>
<asrwt>0</asrwt>
<pdfrwt beam="1">  1        1 0.11216543E+00 0.30000000E+03</pdfrwt>
<pdfrwt beam="2">0</pdfrwt>
<totfact> 0.28844947E+01</totfact>
</mgrwt>
</event>
<event>
 6    1  0.1875959E-004  0.3000000E+03  0.7818608E-02  0.1093470E+00
          1   -1    0    0  502    0  0.00000000000E+00  0.00000000000E+00  0.64299000980E+02  0.64299000980E+02  0.00000000000E+00 0.  1.
         13   -1    0    0    0    0 -0.00000000000E+00 -0.00000000000E+00 -0.10000000000E+04  0.10000000000E+04  0.00000000000E+00 0.  1.
    9000005    2    1    2  501    0  0.11520135087E+03 -0.49063151327E+02 -0.80473166354E+03  0.88310432419E+03  0.34146984206E+03 0.  0.
         13    1    3    3    0    0  0.15105458763E+03 -0.17110753529E+03 -0.42173688366E+03  0.47953860754E+03  0.00000000000E+00 0.  1.
          1    1    3    3  501    0 -0.35853236760E+02  0.12204438396E+03 -0.38299477988E+03  0.40356571665E+03  0.00000000000E+00 0.  1.
         21    1    1    2  502  501 -0.11520135087E+03  0.49063151327E+02 -0.13096933548E+03  0.18119467679E+03  0.00000000000E+00 0.  1.
<mgrwt>
<rscale>  1 0.30000000E+03</rscale>
<asrwt>0</asrwt>
<pdfrwt beam="1">  1        1 0.23381504E+00 0.30000000E+03</pdfrwt>
<pdfrwt beam="2">0</pdfrwt>
<totfact> 0.71023504E+00</totfact>
</mgrwt>
</event>
<event>
 6    1  0.1875959E-004  0.3000000E+03  0.7818608E-02  0.1093470E+00
          1   -1    0    0  502    0  0.00000000000E+00  0.00000000000E+00  0.41759570714E+02  0.41759570714E+02  0.00000000000E+00 0.  1.
         13   -1    0    0    0    0 -0.00000000000E+00 -0.00000000000E+00 -0.10000000000E+04  0.10000000000E+04  0.00000000000E+00 0.  1.
    9000005    2    1    2  501    0  0.10472045078E+02 -0.33633347902E+02 -0.95147792083E+03  0.10058904009E+04  0.32444475505E+03 0.  0.
         13    1    3    3    0    0 -0.11027138492E+03 -0.12903901726E+03 -0.56345582597E+03  0.58846691847E+03  0.00000000000E+00 0.  1.
          3    1    3    3  501    0  0.12074342999E+03  0.95405669355E+02 -0.38802209485E+03  0.41742348248E+03  0.00000000000E+00 0.  1.
         21    1    1    2  502  501 -0.10472045078E+02  0.33633347902E+02 -0.67625084608E+01  0.35869169769E+02  0.00000000000E+00 0.  1.
<mgrwt>
<rscale>  1 0.30000000E+03</rscale>
<asrwt>0</asrwt>
<pdfrwt beam="1">  1        1 0.15185330E+00 0.30000000E+03</pdfrwt>
<pdfrwt beam="2">0</pdfrwt>
<totfact> 0.17580294E+01</totfact>
</mgrwt>
</event>
<event>
 6    1  0.1875959E-004  0.3000000E+03  0.7818608E-02  0.1093470E+00
          1   -1    0    0  502    0  0.00000000000E+00  0.00000000000E+00  0.50468120838E+02  0.50468120838E+02  0.00000000000E+00 0.  1.
         13   -1    0    0    0    0 -0.00000000000E+00 -0.00000000000E+00 -0.10000000000E+04  0.10000000000E+04  0.00000000000E+00 0.  1.
    9000005    2    1    2  501    0 -0.13975524508E+02  0.18002115381E+02 -0.95377861875E+03  0.10272856654E+04  0.38092360558E+03 0.  0.
         13    1    3    3    0    0 -0.13128758910E+03 -0.10569805634E+03 -0.71050745606E+03  0.73022555097E+03  0.00000000000E+00 0.  1.
          1    1    3    3  501    0  0.11731206460E+03  0.12370017172E+03 -0.24327116269E+03  0.29706011442E+03  0.00000000000E+00 0.  1.
         21    1    1    2  502  501  0.13975524508E+02 -0.18002115381E+02  0.42467395899E+01  0.23182455449E+02  0.00000000000E+00 0.  1.
<mgrwt>
<rscale>  1 0.30000000E+03</rscale>
<asrwt>0</asrwt>
<pdfrwt beam="1">  1        1 0.18352083E+00 0.30000000E+03</pdfrwt>
<pdfrwt beam="2">0</pdfrwt>
<totfact> 0.12284143E+01</totfact>
</mgrwt>
</event>
<event>
 6    1  0.1875959E-004  0.3000000E+03  0.7818608E-02  0.1093470E+00
          1   -1    0    0  502    0  0.00000000000E+00  0.00000000000E+00  0.33388508576E+02  0.33388508576E+02  0.00000000000E+00 0.  1.
         13   -1    0    0    0    0 -0.00000000000E+00 -0.00000000000E+00 -0.10000000000E+04  0.10000000000E+04  0.00000000000E+00 0.  1.
    9000005    2    1    2  501    0  0.13409237101E+02 -0.64237390096E+01 -0.96537644632E+03  0.10184688102E+04  0.32420049695E+03 0.  0.
         13    1    3    3    0    0 -0.84204191180E+02 -0.96227791205E+02 -0.78066291897E+03  0.79106556407E+03  0.00000000000E+00 0.  1.
          1    1    3    3  501    0  0.97613428281E+02  0.89804052195E+02 -0.18471352736E+03  0.22740324615E+03  0.00000000000E+00 0.  1.
         21    1    1    2  502  501 -0.13409237101E+02  0.64237390096E+01 -0.12350451001E+01  0.14919698351E+02  0.00000000000E+00 0.  1.
<mgrwt>
<rscale>  1 0.30000000E+03</rscale>
<asrwt>0</asrwt>
<pdfrwt beam="1">  1        1 0.12141301E+00 0.30000000E+03</pdfrwt>
<pdfrwt beam="2">0</pdfrwt>
<totfact> 0.25523599E+01</totfact>
</mgrwt>
</event>
<event>
 6    1  0.1875959E-004  0.3000000E+03  0.7818608E-02  0.1093470E+00
          3   -1    0    0  502    0  0.00000000000E+00  0.00000000000E+00  0.27823174078E+02  0.27823174078E+02  0.00000000000E+00 0.  1.
         13   -1    0    0    0    0 -0.00000000000E+00 -0.00000000000E+00 -0.10000000000E+04  0.10000000000E+04  0.00000000000E+00 0.  1.
    9000005    2    1    2  501    0  0.70676126736E+01  0.58544347174E+01 -0.96156363741E+03  0.10137923036E+04  0.32107005557E+03 0.  0.
         13    1    3    3    0    0 -0.12657801790E+03  0.83719265801E+02 -0.62854605843E+03  0.64660734425E+03  0.00000000000E+00 0.  1.
          3    1    3    3  501    0  0.13364563057E+03 -0.77864831084E+02 -0.33301757898E+03  0.36718495939E+03  0.00000000000E+00 0.  1.
         21    1    1    2  502  501 -0.70676126736E+01 -0.58544347174E+01 -0.10613188514E+02  0.14030870436E+02  0.00000000000E+00 0.  1.
<mgrwt>
<rscale>  1 0.30000000E+03</rscale>
<asrwt>0</asrwt>
<pdfrwt beam="1">  1        3 0.10117539E+00 0.30000000E+03</pdfrwt>
<pdfrwt beam="2">0</pdfrwt>
<totfact> 0.37981217E+00</totfact>
</mgrwt>
</event>
<event>
 6    1  0.1875959E-004  0.3000000E+03  0.7818608E-02  0.1093470E+00
          1   -1    0    0  502    0  0.00000000000E+00  0.00000000000E+00  0.31948864955E+02  0.31948864955E+02  0.00000000000E+00 0.  1.
         13   -1    0    0    0    0 -0.00000000000E+00 -0.00000000000E+00 -0.10000000000E+04  0.10000000000E+04  0.00000000000E+00 0.  1.
    9000005    2    1    2  501    0 -0.67445693191E+01  0.10423967253E+02 -0.96482957484E+03  0.10191220665E+04  0.32796269548E+03 0.  0.
         13    1    3    3    0    0 -0.78492871017E+02 -0.10323423948E+03 -0.77932324894E+03  0.79003997706E+03  0.00000000000E+00 0.  1.
          1    1    3    3  501    0  0.71748301698E+02  0.11365820674E+03 -0.18550632589E+03  0.22908208944E+03  0.00000000000E+00 0.  1.
         21    1    1    2  502  501  0.67445693191E+01 -0.10423967253E+02 -0.32215602093E+01  0.12826798462E+02  0.00000000000E+00 0. -1.
<mgrwt>
<rscale>  1 0.30000000E+03</rscale>
<asrwt>0</asrwt>
<pdfrwt beam="1">  1        1 0.11617794E+00 0.30000000E+03</pdfrwt>
<pdfrwt beam="2">0</pdfrwt>
<totfact> 0.27334511E+01</totfact>
</mgrwt>
</event>
<event>
 6    1  0.1875959E-004  0.3000000E+03  0.7818608E-02  0.1093470E+00
          1   -1    0    0  502    0  0.00000000000E+00  0.00000000000E+00  0.25814671618E+02  0.25814671618E+02  0.00000000000E+00 0.  1.
         13   -1    0    0    0    0 -0.00000000000E+00 -0.00000000000E+00 -0.10000000000E+04  0.10000000000E+04  0.00000000000E+00 0.  1.
    9000005    2    1    2  501    0 -0.17112724604E+02 -0.23039328291E+01 -0.95439615719E+03  0.99955129891E+03  0.29653435017E+03 0.  0.
         13    1    3    3    0    0  0.78579546365E+02 -0.49080208852E+02 -0.91875343349E+02  0.13047869835E+03  0.00000000000E+00 0.  1.
          1    1    3    3  501    0 -0.95692270969E+02  0.46776276022E+02 -0.86252081384E+03  0.86907260056E+03  0.00000000000E+00 0.  1.
         21    1    1    2  502  501  0.17112724604E+02  0.23039328291E+01 -0.19789171189E+02  0.26263372712E+02  0.00000000000E+00 0.  1.
<mgrwt>
<rscale>  1 0.30000000E+03</rscale>
<asrwt>0</asrwt>
<pdfrwt beam="1">  1        1 0.93871731E-01 0.30000000E+03</pdfrwt>
<pdfrwt beam="2">0</pdfrwt>
<totfact> 0.37509669E+01</totfact>
</mgrwt>
</event>
<event>
 6    1  0.1875959E-004  0.3000000E+03  0.7818608E-02  0.1093470E+00
          3   -1    0    0  502    0  0.00000000000E+00  0.00000000000E+00  0.29828094252E+02  0.29828094252E+02  0.00000000000E+00 0.  1.
         13   -1    0    0    0    0 -0.00000000000E+00 -0.00000000000E+00 -0.10000000000E+04  0.10000000000E+04  0.00000000000E+00 0.  1.
    9000005    2    1    2  501    0  0.10449994676E+02 -0.42686550335E+01 -0.96019854173E+03  0.10147651664E+04  0.32808486656E+03 0.  0.
         13    1    3    3    0    0 -0.63986452275E+01  0.10946149250E+03 -0.10480631517E+03  0.15168099651E+03  0.00000000000E+00 0.  1.
          3    1    3    3  501    0  0.16848639903E+02 -0.11373014754E+03 -0.85539222656E+03  0.86308416993E+03  0.00000000000E+00 0.  1.
         21    1    1    2  502  501 -0.10449994676E+02  0.42686550335E+01 -0.99733640143E+01  0.15062927812E+02  0.00000000000E+00 0.  1.
<mgrwt>
<rscale>  1 0.30000000E+03</rscale>
<asrwt>0</asrwt>
<pdfrwt beam="1">  1        3 0.10846603E+00 0.30000000E+03</pdfrwt>
<pdfrwt beam="2">0</pdfrwt>
<totfact> 0.31373779E+00</totfact>
</mgrwt>
</event>
<event>
 6    1  0.1875959E-004  0.3000000E+03  0.7818608E-02  0.1093470E+00
          1   -1    0    0  502    0  0.00000000000E+00  0.00000000000E+00  0.32981911487E+02  0.32981911487E+02  0.00000000000E+00 0.  1.
         13   -1    0    0    0    0 -0.00000000000E+00 -0.00000000000E+00 -0.10000000000E+04  0.10000000000E+04  0.00000000000E+00 0.  1.
    9000005    2    1    2  501    0  0.86380920714E+01  0.15775568770E+02 -0.95531709857E+03  0.10115250159E+04  0.33200694823E+03 0.  0.
         13    1    3    3    0    0 -0.98802127800E+01 -0.73168878700E+02 -0.90433946311E+03  0.90734842699E+03  0.00000000000E+00 0.  1.
          3    1    3    3  501    0  0.18518304851E+02  0.88944447470E+02 -0.50977635455E+02  0.10417658886E+03  0.00000000000E+00 0.  1.
         21    1    1    2  502  501 -0.86380920714E+01 -0.15775568770E+02 -0.11700989944E+02  0.21456895636E+02  0.00000000000E+00 0.  1.
<mgrwt>
<rscale>  1 0.30000000E+03</rscale>
<asrwt>0</asrwt>
<pdfrwt beam="1">  1        1 0.11993448E+00 0.30000000E+03</pdfrwt>
<pdfrwt beam="2">0</pdfrwt>
<totfact> 0.26018210E+01</totfact>
</mgrwt>
</event>
<event>
 6    1  0.1875959E-004  0.3000000E+03  0.7818608E-02  0.1093470E+00
          1   -1    0    0  502    0  0.00000000000E+00  0.00000000000E+00  0.38604940154E+02  0.38604940154E+02  0.00000000000E+00 0.  1.
         13   -1    0    0    0    0 -0.00000000000E+00 -0.00000000000E+00 -0.10000000000E+04  0.10000000000E+04  0.00000000000E+00 0.  1.
    9000005    2    1    2  501    0 -0.21784626843E+02  0.12957701363E+02 -0.96092941081E+03  0.10132536321E+04  0.32039837454E+03 0.  0.
         13    1    3    3    0    0 -0.52964568826E+02  0.81079754410E+02 -0.70772674768E+02  0.11994975456E+03  0.00000000000E+00 0.  1.
          1    1    3    3  501    0  0.31179941983E+02 -0.68122053047E+02 -0.89015673604E+03  0.89330387753E+03  0.00000000000E+00 0.  1.
         21    1    1    2  502  501  0.21784626843E+02 -0.12957701363E+02 -0.46564903941E+00  0.25351308060E+02  0.00000000000E+00 0.  1.
<mgrwt>
<rscale>  1 0.30000000E+03</rscale>
<asrwt>0</asrwt>
<pdfrwt beam="1">  1        1 0.14038190E+00 0.30000000E+03</pdfrwt>
<pdfrwt beam="2">0</pdfrwt>
<totfact> 0.20139214E+01</totfact>
</mgrwt>
</event>
<event>
 6    1  0.1875959E-004  0.3000000E+03  0.7818608E-02  0.1093470E+00
          1   -1    0    0  502    0  0.00000000000E+00  0.00000000000E+00  0.51619375219E+02  0.51619375219E+02  0.00000000000E+00 0.  1.
         13   -1    0    0    0    0 -0.00000000000E+00 -0.00000000000E+00 -0.10000000000E+04  0.10000000000E+04  0.00000000000E+00 0.  1.
    9000005    2    1    2  501    0  0.95715526891E+01 -0.82989065129E+01 -0.97419109095E+03  0.10228675642E+04  0.31152734362E+03 0.  0.
         13    1    3    3    0    0 -0.55969150050E+02  0.19102639126E+02 -0.14950029429E+02  0.60999671793E+02  0.00000000000E+00 0.  1.
          3    1    3    3  501    0  0.65540702739E+02 -0.27401545639E+02 -0.95924106152E+03  0.96186789245E+03  0.00000000000E+00 0.  1.
         21    1    1    2  502  501 -0.95715526891E+01  0.82989065129E+01  0.25810466172E+02  0.28751810972E+02  0.00000000000E+00 0.  1.
<mgrwt>
<rscale>  1 0.30000000E+03</rscale>
<asrwt>0</asrwt>
<pdfrwt beam="1">  1        1 0.18770721E+00 0.30000000E+03</pdfrwt>
<pdfrwt beam="2">0</pdfrwt>
<totfact> 0.11727597E+01</totfact>
</mgrwt>
</event>
<event>
 6    1  0.1875959E-004  0.3000000E+03  0.7818608E-02  0.1093470E+00
          1   -1    0    0  502    0  0.00000000000E+00  0.00000000000E+00  0.46652705708E+02  0.46652705708E+02  0.00000000000E+00 0.  1.
         13   -1    0    0    0    0 -0.00000000000E+00 -0.00000000000E+00 -0.10000000000E+04  0.10000000000E+04  0.00000000000E+00 0.  1.
    9000005    2    1    2  501    0  0.49714579167E+01 -0.12001494092E+02 -0.97058274440E+03  0.10250700276E+04  0.32949802198E+03 0.  0.
         13    1    3    3    0    0 -0.46486185165E+02 -0.90121338679E+02 -0.78872833324E+02  0.12846690209E+03  0.00000000000E+00 0.  1.
          1    1    3    3  501    0  0.51457643081E+02  0.78119844587E+02 -0.89170991107E+03  0.89660312550E+03  0.00000000000E+00 0.  1.
         21    1    1    2  502  501 -0.49714579167E+01  0.12001494092E+02  0.17235450106E+02  0.21582678115E+02  0.00000000000E+00 0.  1.
<mgrwt>
<rscale>  1 0.30000000E+03</rscale>
<asrwt>0</asrwt>
<pdfrwt beam="1">  1        1 0.16964656E+00 0.30000000E+03</pdfrwt>
<pdfrwt beam="2">0</pdfrwt>
<totfact> 0.14344148E+01</totfact>
</mgrwt>
</event>
<event>
 6    1  0.1875959E-004  0.3000000E+03  0.7818608E-02  0.1093470E+00
          1   -1    0    0  502    0  0.00000000000E+00  0.00000000000E+00  0.51728202623E+02  0.51728202623E+02  0.00000000000E+00 0.  1.
         13   -1    0    0    0    0 -0.00000000000E+00 -0.00000000000E+00 -0.10000000000E+04  0.10000000000E+04  0.00000000000E+00 0.  1.
    9000005    2    1    2  501    0  0.31951080867E+02  0.26762623818E+02 -0.95715378514E+03  0.10091136592E+04  0.31690676741E+03 0.  0.
         13    1    3    3    0    0 -0.71603044835E+02 -0.28836874423E+02 -0.44861550092E+02  0.89281129209E+02  0.00000000000E+00 0.  1.
          1    1    3    3  501    0  0.10355412570E+03  0.55599498241E+02 -0.91229223505E+03  0.91983253002E+03  0.00000000000E+00 0.  1.
         21    1    1    2  502  501 -0.31951080867E+02 -0.26762623818E+02  0.88819877617E+01  0.42614543396E+02  0.00000000000E+00 0. -1.
<mgrwt>
<rscale>  1 0.30000000E+03</rscale>
<asrwt>0</asrwt>
<pdfrwt beam="1">  1        1 0.18810295E+00 0.30000000E+03</pdfrwt>
<pdfrwt beam="2">0</pdfrwt>
<totfact> 0.11676361E+01</totfact>
</mgrwt>
</event>
<event>
 6    1  0.1875959E-004  0.3000000E+03  0.7818608E-02  0.1093470E+00
          1   -1    0    0  502    0  0.00000000000E+00  0.00000000000E+00  0.29639474101E+02  0.29639474101E+02  0.00000000000E+00 0.  1.
         13   -1    0    0    0    0 -0.00000000000E+00 -0.00000000000E+00 -0.10000000000E+04  0.10000000000E+04  0.00000000000E+00 0.  1.
    9000005    2    1    2  501    0 -0.17738240138E+02  0.55478056380E+01 -0.95869020789E+03  0.10076936400E+04  0.30986147573E+03 0.  0.
         13    1    3    3    0    0  0.10699469638E+03 -0.97664198012E+02 -0.37638810037E+03  0.40330405742E+03  0.00000000000E+00 0.  1.
          3    1    3    3  501    0 -0.12473293652E+03  0.10321200365E+03 -0.58230210752E+03  0.60438958262E+03  0.00000000000E+00 0.  1.
         21    1    1    2  502  501  0.17738240138E+02 -0.55478056380E+01 -0.11670318005E+02  0.21945834068E+02  0.00000000000E+00 0.  1.
<mgrwt>
<rscale>  1 0.30000000E+03</rscale>
<asrwt>0</asrwt>
<pdfrwt beam="1">  1        1 0.10778013E+00 0.30000000E+03</pdfrwt>
<pdfrwt beam="2">0</pdfrwt>
<totfact> 0.30634783E+01</totfact>
</mgrwt>
</event>
<event>
 6    1  0.1875959E-004  0.3000000E+03  0.7818608E-02  0.1093470E+00
          1   -1    0    0  502    0  0.00000000000E+00  0.00000000000E+00  0.34366041311E+02  0.34366041311E+02  0.00000000000E+00 0.  1.
         13   -1    0    0    0    0 -0.00000000000E+00 -0.00000000000E+00 -0.10000000000E+04  0.10000000000E+04  0.00000000000E+00 0.  1.
    9000005    2    1    2  501    0  0.35908259578E+02 -0.56065178483E-01 -0.88688774811E+03  0.94781910647E+03  0.33241807201E+03 0.  0.
         13    1    3    3    0    0 -0.12634645976E+03 -0.83033871925E+02 -0.36735993159E+03  0.39725479370E+03  0.00000000000E+00 0.  1.
          1    1    3    3  501    0  0.16225471934E+03  0.82977806746E+02 -0.51952781652E+03  0.55056431277E+03  0.00000000000E+00 0.  1.
         21    1    1    2  502  501 -0.35908259578E+02  0.56065178483E-01 -0.78746210581E+02  0.86546934839E+02  0.00000000000E+00 0. -1.
<mgrwt>
<rscale>  1 0.30000000E+03</rscale>
<asrwt>0</asrwt>
<pdfrwt beam="1">  1        1 0.12496769E+00 0.30000000E+03</pdfrwt>
<pdfrwt beam="2">0</pdfrwt>
<totfact> 0.24384000E+01</totfact>
</mgrwt>
</event>
<event>
 6    1  0.1875959E-004  0.3000000E+03  0.7818608E-02  0.1093470E+00
          1   -1    0    0  502    0  0.00000000000E+00  0.00000000000E+00  0.53525224022E+02  0.53525224022E+02  0.00000000000E+00 0.  1.
         13   -1    0    0    0    0 -0.00000000000E+00 -0.00000000000E+00 -0.10000000000E+04  0.10000000000E+04  0.00000000000E+00 0.  1.
    9000005    2    1    2  501    0  0.15307560465E+02  0.14286376710E+02 -0.96600945157E+03  0.10248891363E+04  0.34173829069E+03 0.  0.
         13    1    3    3    0    0  0.65752993139E+02  0.87357737488E+02 -0.82607140403E+02  0.13703565248E+03  0.00000000000E+00 0.  1.
          1    1    3    3  501    0 -0.50445432674E+02 -0.73071360778E+02 -0.88340231116E+03  0.88785348387E+03  0.00000000000E+00 0.  1.
         21    1    1    2  502  501 -0.15307560465E+02 -0.14286376710E+02  0.19534675589E+02  0.28636087673E+02  0.00000000000E+00 0.  1.
<mgrwt>
<rscale>  1 0.30000000E+03</rscale>
<asrwt>0</asrwt>
<pdfrwt beam="1">  1        1 0.19463759E+00 0.30000000E+03</pdfrwt>
<pdfrwt beam="2">0</pdfrwt>
<totfact> 0.10863922E+01</totfact>
</mgrwt>
</event>
<event>
 6    1  0.1875959E-004  0.3000000E+03  0.7818608E-02  0.1093470E+00
          3   -1    0    0  502    0  0.00000000000E+00  0.00000000000E+00  0.29267627804E+02  0.29267627804E+02  0.00000000000E+00 0.  1.
         13   -1    0    0    0    0 -0.00000000000E+00 -0.00000000000E+00 -0.10000000000E+04  0.10000000000E+04  0.00000000000E+00 0.  1.
    9000005    2    1    2  501    0  0.11662523251E+02  0.17374863847E+01 -0.94623654990E+03  0.10020816274E+04  0.32964366567E+03 0.  0.
         13    1    3    3    0    0 -0.79460684484E+01 -0.23732884994E+02  0.21993459767E+02  0.33318194826E+02  0.00000000000E+00 0.  1.
          3    1    3    3  501    0  0.19608591700E+02  0.25470371379E+02 -0.96823000967E+03  0.96876343258E+03  0.00000000000E+00 0.  1.
         21    1    1    2  502  501 -0.11662523251E+02 -0.17374863847E+01 -0.24495822295E+02  0.27186000394E+02  0.00000000000E+00 0.  1.
<mgrwt>
<rscale>  1 0.30000000E+03</rscale>
<asrwt>0</asrwt>
<pdfrwt beam="1">  1        3 0.10642796E+00 0.30000000E+03</pdfrwt>
<pdfrwt beam="2">0</pdfrwt>
<totfact> 0.33095831E+00</totfact>
</mgrwt>
</event>
<event>
 6    1  0.1875959E-004  0.3000000E+03  0.7818608E-02  0.1093470E+00
          1   -1    0    0  502    0  0.00000000000E+00  0.00000000000E+00  0.32313247660E+02  0.32313247660E+02  0.00000000000E+00 0.  1.
         13   -1    0    0    0    0 -0.00000000000E+00 -0.00000000000E+00 -0.10000000000E+04  0.10000000000E+04  0.00000000000E+00 0.  1.
    9000005    2    1    2  501    0  0.14501463361E+02  0.15767997083E+02 -0.95106382504E+03  0.10051978667E+04  0.32471746147E+03 0.  0.
         13    1    3    3    0    0  0.75755110266E+02 -0.54746266447E+02 -0.64112487306E+02  0.11334196685E+03  0.00000000000E+00 0.  1.
          3    1    3    3  501    0 -0.61253646905E+02  0.70514263530E+02 -0.88695133773E+03  0.89185589986E+03  0.00000000000E+00 0.  1.
         21    1    1    2  502  501 -0.14501463361E+02 -0.15767997083E+02 -0.16622927305E+02  0.27115380945E+02  0.00000000000E+00 0. -1.
<mgrwt>
<rscale>  1 0.30000000E+03</rscale>
<asrwt>0</asrwt>
<pdfrwt beam="1">  1        1 0.11750297E+00 0.30000000E+03</pdfrwt>
<pdfrwt beam="2">0</pdfrwt>
<totfact> 0.26860039E+01</totfact>
</mgrwt>
</event>
<event>
 6    1  0.1875959E-004  0.3000000E+03  0.7818608E-02  0.1093470E+00
          1   -1    0    0  502    0  0.00000000000E+00  0.00000000000E+00  0.47580682501E+02  0.47580682501E+02  0.00000000000E+00 0.  1.
         13   -1    0    0    0    0 -0.00000000000E+00 -0.00000000000E+00 -0.10000000000E+04  0.10000000000E+04  0.00000000000E+00 0.  1.
    9000005    2    1    2  501    0  0.44852192110E+01  0.11087856613E+02 -0.96945454453E+03  0.10267658629E+04  0.33802805433E+03 0.  0.
         13    1    3    3    0    0  0.66112420984E+02 -0.13660989731E+03 -0.67270017533E+03  0.68960760012E+03  0.00000000000E+00 0.  1.
          3    1    3    3  501    0 -0.61627201773E+02  0.14769775392E+03 -0.29675436920E+03  0.33715826277E+03  0.00000000000E+00 0.  1.
         21    1    1    2  502  501 -0.44852192110E+01 -0.11087856613E+02  0.17035227033E+02  0.20814819617E+02  0.00000000000E+00 0.  1.
<mgrwt>
<rscale>  1 0.30000000E+03</rscale>
<asrwt>0</asrwt>
<pdfrwt beam="1">  1        1 0.17302103E+00 0.30000000E+03</pdfrwt>
<pdfrwt beam="2">0</pdfrwt>
<totfact> 0.13810581E+01</totfact>
</mgrwt>
</event>
<event>
 6    1  0.1875959E-004  0.3000000E+03  0.7818608E-02  0.1093470E+00
          3   -1    0    0  502    0  0.00000000000E+00  0.00000000000E+00  0.25569470795E+02  0.25569470795E+02  0.00000000000E+00 0.  1.
         13   -1    0    0    0    0 -0.00000000000E+00 -0.00000000000E+00 -0.10000000000E+04  0.10000000000E+04  0.00000000000E+00 0.  1.
    9000005    2    1    2  501    0 -0.50588806942E+01 -0.12632071944E+02 -0.95563956345E+03  0.10023689986E+04  0.30217788244E+03 0.  0.
         13    1    3    3    0    0 -0.14194843668E+03  0.36593737346E+02 -0.60995768676E+03  0.62732514689E+03  0.00000000000E+00 0.  1.
          3    1    3    3  501    0  0.13688955599E+03 -0.49225809290E+02 -0.34568187669E+03  0.37504385172E+03  0.00000000000E+00 0.  1.
         21    1    1    2  502  501  0.50588806942E+01  0.12632071944E+02 -0.18790965755E+02  0.23200472182E+02  0.00000000000E+00 0.  1.
<mgrwt>
<rscale>  1 0.30000000E+03</rscale>
<asrwt>0</asrwt>
<pdfrwt beam="1">  1        3 0.92980090E-01 0.30000000E+03</pdfrwt>
<pdfrwt beam="2">0</pdfrwt>
<totfact> 0.47127756E+00</totfact>
</mgrwt>
</event>
<event>
 6    1  0.1875959E-004  0.3000000E+03  0.7818608E-02  0.1093470E+00
          1   -1    0    0  502    0  0.00000000000E+00  0.00000000000E+00  0.39531332260E+02  0.39531332260E+02  0.00000000000E+00 0.  1.
         13   -1    0    0    0    0 -0.00000000000E+00 -0.00000000000E+00 -0.10000000000E+04  0.10000000000E+04  0.00000000000E+00 0.  1.
    9000005    2    1    2  501    0 -0.26780001780E+01 -0.15055706882E+02 -0.95814167989E+03  0.10240632727E+04  0.36115960697E+03 0.  0.
         13    1    3    3    0    0  0.73467237472E+02  0.74887957527E+02 -0.65501074947E+02  0.12367712797E+03  0.00000000000E+00 0.  1.
          3    1    3    3  501    0 -0.76145237650E+02 -0.89943664409E+02 -0.89264060495E+03  0.90038614471E+03  0.00000000000E+00 0.  1.
         21    1    1    2  502  501  0.26780001780E+01  0.15055706882E+02 -0.23269878463E+01  0.15468059578E+02  0.00000000000E+00 0. -1.
<mgrwt>
<rscale>  1 0.30000000E+03</rscale>
<asrwt>0</asrwt>
<pdfrwt beam="1">  1        1 0.14375060E+00 0.30000000E+03</pdfrwt>
<pdfrwt beam="2">0</pdfrwt>
<totfact> 0.19341774E+01</totfact>
</mgrwt>
</event>
<event>
 6    1  0.1875959E-004  0.3000000E+03  0.7818608E-02  0.1093470E+00
          1   -1    0    0  502    0  0.00000000000E+00  0.00000000000E+00  0.83416022167E+02  0.83416022167E+02  0.00000000000E+00 0.  1.
         13   -1    0    0    0    0 -0.00000000000E+00 -0.00000000000E+00 -0.10000000000E+04  0.10000000000E+04  0.00000000000E+00 0.  1.
    9000005    2    1    2  501    0 -0.18908695880E+02 -0.11312341235E+02 -0.97132651547E+03  0.10244054022E+04  0.32472406827E+03 0.  0.
         13    1    3    3    0    0 -0.46942199516E+02 -0.38369425105E+02 -0.90024466036E+01  0.61292959817E+02  0.00000000000E+00 0.  1.
          3    1    3    3  501    0  0.28033503636E+02  0.27057083870E+02 -0.96232406887E+03  0.96311244236E+03  0.00000000000E+00 0.  1.
         21    1    1    2  502  501  0.18908695880E+02  0.11312341235E+02  0.54742537638E+02  0.59010619986E+02  0.00000000000E+00 0. -1.
<mgrwt>
<rscale>  1 0.30000000E+03</rscale>
<asrwt>0</asrwt>
<pdfrwt beam="1">  1        1 0.30333163E+00 0.30000000E+03</pdfrwt>
<pdfrwt beam="2">0</pdfrwt>
<totfact> 0.33500241E+00</totfact>
</mgrwt>
</event>
<event>
 6    1  0.1875959E-004  0.3000000E+03  0.7818608E-02  0.1093470E+00
          1   -1    0    0  502    0  0.00000000000E+00  0.00000000000E+00  0.22653749827E+02  0.22653749827E+02  0.00000000000E+00 0.  1.
         13   -1    0    0    0    0 -0.00000000000E+00 -0.00000000000E+00 -0.10000000000E+04  0.10000000000E+04  0.00000000000E+00 0.  1.
    9000005    2    1    2  501    0 -0.62975001982E+01  0.58465292734E+01 -0.96118866706E+03  0.10043532606E+04  0.29114940840E+03 0.  0.
         13    1    3    3    0    0  0.10008127487E+03 -0.97478830159E+02 -0.54157168325E+03  0.55930159307E+03  0.00000000000E+00 0.  1.
          3    1    3    3  501    0 -0.10637877507E+03  0.10332535943E+03 -0.41961698381E+03  0.44505166755E+03  0.00000000000E+00 0.  1.
         21    1    1    2  502  501  0.62975001982E+01 -0.58465292734E+01 -0.16157583115E+02  0.18300489212E+02  0.00000000000E+00 0. -1.
<mgrwt>
<rscale>  1 0.30000000E+03</rscale>
<asrwt>0</asrwt>
<pdfrwt beam="1">  1        1 0.82377446E-01 0.30000000E+03</pdfrwt>
<pdfrwt beam="2">0</pdfrwt>
<totfact> 0.45097356E+01</totfact>
</mgrwt>
</event>
<event>
 6    1  0.1875959E-004  0.3000000E+03  0.7818608E-02  0.1093470E+00
          1   -1    0    0  502    0  0.00000000000E+00  0.00000000000E+00  0.42951416049E+02  0.42951416049E+02  0.00000000000E+00 0.  1.
         13   -1    0    0    0    0 -0.00000000000E+00 -0.00000000000E+00 -0.10000000000E+04  0.10000000000E+04  0.00000000000E+00 0.  1.
    9000005    2    1    2  501    0 -0.10188631957E+02  0.68787257098E+01 -0.97120943908E+03  0.10241989520E+04  0.32493783050E+03 0.  0.
         13    1    3    3    0    0 -0.13708077996E+03 -0.14812391147E+01 -0.19937172327E+03  0.24195540569E+03  0.00000000000E+00 0.  1.
          3    1    3    3  501    0  0.12689214800E+03  0.83599648245E+01 -0.77183771581E+03  0.78224354634E+03  0.00000000000E+00 0.  1.
         21    1    1    2  502  501  0.10188631957E+02 -0.68787257098E+01  0.14160855133E+02  0.18752464016E+02  0.00000000000E+00 0.  1.
<mgrwt>
<rscale>  1 0.30000000E+03</rscale>
<asrwt>0</asrwt>
<pdfrwt beam="1">  1        1 0.15618730E+00 0.30000000E+03</pdfrwt>
<pdfrwt beam="2">0</pdfrwt>
<totfact> 0.16719207E+01</totfact>
</mgrwt>
</event>
<event>
 6    1  0.1875959E-004  0.3000000E+03  0.7818608E-02  0.1093470E+00
          1   -1    0    0  502    0  0.00000000000E+00  0.00000000000E+00  0.32760274348E+02  0.32760274348E+02  0.00000000000E+00 0.  1.
         13   -1    0    0    0    0 -0.00000000000E+00 -0.00000000000E+00 -0.10000000000E+04  0.10000000000E+04  0.00000000000E+00 0.  1.
    9000005    2    1    2  501    0  0.51246890869E+00 -0.49989413338E+02 -0.84893750124E+03  0.90432889045E+03  0.30759820710E+03 0.  0.
         13    1    3    3    0    0 -0.13579713504E+03  0.87050818706E+01 -0.59357249526E+03  0.60897039949E+03  0.00000000000E+00 0.  1.
          1    1    3    3  501    0  0.13630960395E+03 -0.58694495209E+02 -0.25536500599E+03  0.29535849095E+03  0.00000000000E+00 0.  1.
         21    1    1    2  502  501 -0.51246890869E+00  0.49989413338E+02 -0.11830222441E+03  0.12843138390E+03  0.00000000000E+00 0.  1.
<mgrwt>
<rscale>  1 0.30000000E+03</rscale>
<asrwt>0</asrwt>
<pdfrwt beam="1">  1        1 0.11912852E+00 0.30000000E+03</pdfrwt>
<pdfrwt beam="2">0</pdfrwt>
<totfact> 0.26293234E+01</totfact>
</mgrwt>
</event>
<event>
 6    1  0.1875959E-004  0.3000000E+03  0.7818608E-02  0.1093470E+00
          1   -1    0    0  502    0  0.00000000000E+00  0.00000000000E+00  0.32662549862E+02  0.32662549862E+02  0.00000000000E+00 0.  1.
         13   -1    0    0    0    0 -0.00000000000E+00 -0.00000000000E+00 -0.10000000000E+04  0.10000000000E+04  0.00000000000E+00 0.  1.
    9000005    2    1    2  501    0 -0.28965854818E+02 -0.22220093562E+02 -0.94078393948E+03  0.98752008392E+03  0.29797439832E+03 0.  0.
         13    1    3    3    0    0  0.10543621362E+03 -0.75745157093E+01 -0.72650433706E+03  0.73415442531E+03  0.00000000000E+00 0.  1.
          1    1    3    3  501    0 -0.13440206844E+03 -0.14645577853E+02 -0.21427960242E+03  0.25336565861E+03  0.00000000000E+00 0.  1.
         21    1    1    2  502  501  0.28965854818E+02  0.22220093562E+02 -0.26553510659E+02  0.45142465945E+02  0.00000000000E+00 0.  1.
<mgrwt>
<rscale>  1 0.30000000E+03</rscale>
<asrwt>0</asrwt>
<pdfrwt beam="1">  1        1 0.11877316E+00 0.30000000E+03</pdfrwt>
<pdfrwt beam="2">0</pdfrwt>
<totfact> 0.26415745E+01</totfact>
</mgrwt>
</event>
<event>
 6    1  0.1875959E-004  0.3000000E+03  0.7818608E-02  0.1093470E+00
          1   -1    0    0  502    0  0.00000000000E+00  0.00000000000E+00  0.46566311183E+02  0.46566311183E+02  0.00000000000E+00 0.  1.
         13   -1    0    0    0    0 -0.00000000000E+00 -0.00000000000E+00 -0.10000000000E+04  0.10000000000E+04  0.00000000000E+00 0.  1.
    9000005    2    1    2  501    0  0.15203886818E+02 -0.15287893296E+01 -0.97303458369E+03  0.10217129321E+04  0.31123547233E+03 0.  0.
         13    1    3    3    0    0 -0.23378924014E+02 -0.98483686778E+01  0.17227134878E+02  0.30664941379E+02  0.00000000000E+00 0.  1.
          1    1    3    3  501    0  0.38582810832E+02  0.83195793482E+01 -0.99026171857E+03  0.99104799074E+03  0.00000000000E+00 0.  1.
         21    1    1    2  502  501 -0.15203886818E+02  0.15287893296E+01  0.19600894870E+02  0.24853379064E+02  0.00000000000E+00 0. -1.
<mgrwt>
<rscale>  1 0.30000000E+03</rscale>
<asrwt>0</asrwt>
<pdfrwt beam="1">  1        1 0.16933240E+00 0.30000000E+03</pdfrwt>
<pdfrwt beam="2">0</pdfrwt>
<totfact> 0.14394988E+01</totfact>
</mgrwt>
</event>
<event>
 6    1  0.1875959E-004  0.3000000E+03  0.7818608E-02  0.1093470E+00
          1   -1    0    0  502    0  0.00000000000E+00  0.00000000000E+00  0.32899896238E+02  0.32899896238E+02  0.00000000000E+00 0.  1.
         13   -1    0    0    0    0 -0.00000000000E+00 -0.00000000000E+00 -0.10000000000E+04  0.10000000000E+04  0.00000000000E+00 0.  1.
    9000005    2    1    2  501    0  0.63238336502E+01 -0.30158124678E+02 -0.83743092191E+03  0.89961973988E+03  0.32722411901E+03 0.  0.
         13    1    3    3    0    0 -0.74393635019E+01  0.84501928857E+02 -0.39851786450E+02  0.93723449537E+02  0.00000000000E+00 0.  1.
          3    1    3    3  501    0  0.13763197152E+02 -0.11466005353E+03 -0.79757913546E+03  0.80589629035E+03  0.00000000000E+00 0.  1.
         21    1    1    2  502  501 -0.63238336502E+01  0.30158124678E+02 -0.12966918185E+03  0.13328015636E+03  0.00000000000E+00 0. -1.
<mgrwt>
<rscale>  1 0.30000000E+03</rscale>
<asrwt>0</asrwt>
<pdfrwt beam="1">  1        1 0.11963624E+00 0.30000000E+03</pdfrwt>
<pdfrwt beam="2">0</pdfrwt>
<totfact> 0.26119528E+01</totfact>
</mgrwt>
</event>
<event>
 6    1  0.1875959E-004  0.3000000E+03  0.7818608E-02  0.1093470E+00
          1   -1    0    0  502    0  0.00000000000E+00  0.00000000000E+00  0.29610348397E+02  0.29610348397E+02  0.00000000000E+00 0.  1.
         13   -1    0    0    0    0 -0.00000000000E+00 -0.00000000000E+00 -0.10000000000E+04  0.10000000000E+04  0.00000000000E+00 0.  1.
    9000005    2    1    2  501    0  0.21624130711E+02 -0.43337013452E+01 -0.91423158468E+03  0.96927700375E+03  0.32123532740E+03 0.  0.
         13    1    3    3    0    0  0.11915173087E+03 -0.72001017169E+02 -0.76997929314E+03  0.78246366900E+03  0.00000000000E+00 0.  1.
          3    1    3    3  501    0 -0.97527600160E+02  0.67667315823E+02 -0.14425229154E+03  0.18681333474E+03  0.00000000000E+00 0.  1.
         21    1    1    2  502  501 -0.21624130711E+02  0.43337013452E+01 -0.56158066922E+02  0.60333344651E+02  0.00000000000E+00 0. -1.
<mgrwt>
<rscale>  1 0.30000000E+03</rscale>
<asrwt>0</asrwt>
<pdfrwt beam="1">  1        1 0.10767422E+00 0.30000000E+03</pdfrwt>
<pdfrwt beam="2">0</pdfrwt>
<totfact> 0.30679945E+01</totfact>
</mgrwt>
</event>
<event>
 6    1  0.1875959E-004  0.3000000E+03  0.7818608E-02  0.1093470E+00
          1   -1    0    0  502    0  0.00000000000E+00  0.00000000000E+00  0.32140296713E+02  0.32140296713E+02  0.00000000000E+00 0.  1.
         13   -1    0    0    0    0 -0.00000000000E+00 -0.00000000000E+00 -0.10000000000E+04  0.10000000000E+04  0.00000000000E+00 0.  1.
    9000005    2    1    2  501    0  0.24263266244E+02  0.23848293436E+01 -0.94260895564E+03  0.99704052810E+03  0.32401200275E+03 0.  0.
         13    1    3    3    0    0  0.19349239661E+02 -0.87120330345E+02 -0.54816119999E+02  0.10473371972E+03  0.00000000000E+00 0.  1.
          3    1    3    3  501    0  0.49140265830E+01  0.89505159688E+02 -0.88779283564E+03  0.89230680838E+03  0.00000000000E+00 0.  1.
         21    1    1    2  502  501 -0.24263266244E+02 -0.23848293436E+01 -0.25250747648E+02  0.35099768612E+02  0.00000000000E+00 0.  1.
<mgrwt>
<rscale>  1 0.30000000E+03</rscale>
<asrwt>0</asrwt>
<pdfrwt beam="1">  1        1 0.11687405E+00 0.30000000E+03</pdfrwt>
<pdfrwt beam="2">0</pdfrwt>
<totfact> 0.27083814E+01</totfact>
</mgrwt>
</event>
<event>
 6    1  0.1875959E-004  0.3000000E+03  0.7818608E-02  0.1093470E+00
          3   -1    0    0  502    0  0.00000000000E+00  0.00000000000E+00  0.36583078002E+02  0.36583078002E+02  0.00000000000E+00 0.  1.
         13   -1    0    0    0    0 -0.00000000000E+00 -0.00000000000E+00 -0.10000000000E+04  0.10000000000E+04  0.00000000000E+00 0.  1.
    9000005    2    1    2  501    0  0.31688020453E+02 -0.40000426423E+02 -0.82332229336E+03  0.88748354840E+03  0.32735803821E+03 0.  0.
         13    1    3    3    0    0  0.14979542397E+03 -0.67940913026E+02 -0.23544581427E+03  0.28720962408E+03  0.00000000000E+00 0.  1.
          3    1    3    3  501    0 -0.11810740352E+03  0.27940486603E+02 -0.58787647909E+03  0.60027392433E+03  0.00000000000E+00 0.  1.
         21    1    1    2  502  501 -0.31688020453E+02  0.40000426423E+02 -0.14009462864E+03  0.14909952960E+03  0.00000000000E+00 0.  1.
<mgrwt>
<rscale>  1 0.30000000E+03</rscale>
<asrwt>0</asrwt>
<pdfrwt beam="1">  1        3 0.13302966E+00 0.30000000E+03</pdfrwt>
<pdfrwt beam="2">0</pdfrwt>
<totfact> 0.16295970E+00</totfact>
</mgrwt>
</event>
<event>
 6    1  0.1875959E-004  0.3000000E+03  0.7818608E-02  0.1093470E+00
          1   -1    0    0  502    0  0.00000000000E+00  0.00000000000E+00  0.42844509402E+02  0.42844509402E+02  0.00000000000E+00 0.  1.
         13   -1    0    0    0    0 -0.00000000000E+00 -0.00000000000E+00 -0.10000000000E+04  0.10000000000E+04  0.00000000000E+00 0.  1.
    9000005    2    1    2  501    0  0.44845681982E+01  0.93345541046E+01 -0.97088656896E+03  0.10256460279E+04  0.33048721543E+03 0.  0.
         13    1    3    3    0    0 -0.14485993552E+03 -0.61397109502E+02 -0.58666937346E+03  0.60740016441E+03  0.00000000000E+00 0.  1.
          1    1    3    3  501    0  0.14934450372E+03  0.70731663606E+02 -0.38421719550E+03  0.41824586351E+03  0.00000000000E+00 0.  1.
         21    1    1    2  502  501 -0.44845681982E+01 -0.93345541046E+01  0.13731078358E+02  0.17198481477E+02  0.00000000000E+00 0.  1.
<mgrwt>
<rscale>  1 0.30000000E+03</rscale>
<asrwt>0</asrwt>
<pdfrwt beam="1">  1        1 0.15579854E+00 0.30000000E+03</pdfrwt>
<pdfrwt beam="2">0</pdfrwt>
<totfact> 0.16794340E+01</totfact>
</mgrwt>
</event>
<event>
 6    1  0.1875959E-004  0.3000000E+03  0.7818608E-02  0.1093470E+00
          1   -1    0    0  502    0  0.00000000000E+00  0.00000000000E+00  0.37345632042E+02  0.37345632042E+02  0.00000000000E+00 0.  1.
         13   -1    0    0    0    0 -0.00000000000E+00 -0.00000000000E+00 -0.10000000000E+04  0.10000000000E+04  0.00000000000E+00 0.  1.
    9000005    2    1    2  501    0  0.42580210225E+01  0.12760301608E+02 -0.94100975203E+03  0.10118614126E+04  0.37173002155E+03 0.  0.
         13    1    3    3    0    0  0.10904071404E+03 -0.14417988183E+03 -0.51906136054E+03  0.54963843721E+03  0.00000000000E+00 0.  1.
          1    1    3    3  501    0 -0.10478269302E+03  0.15694018344E+03 -0.42194839148E+03  0.46222297543E+03  0.00000000000E+00 0.  1.
         21    1    1    2  502  501 -0.42580210225E+01 -0.12760301608E+02 -0.21644615929E+02  0.25484219409E+02  0.00000000000E+00 0.  1.
<mgrwt>
<rscale>  1 0.30000000E+03</rscale>
<asrwt>0</asrwt>
<pdfrwt beam="1">  1        1 0.13580258E+00 0.30000000E+03</pdfrwt>
<pdfrwt beam="2">0</pdfrwt>
<totfact> 0.21291736E+01</totfact>
</mgrwt>
</event>
<event>
 6    1  0.1875959E-004  0.3000000E+03  0.7818608E-02  0.1093470E+00
          1   -1    0    0  502    0  0.00000000000E+00  0.00000000000E+00  0.33809531055E+02  0.33809531055E+02  0.00000000000E+00 0.  1.
         13   -1    0    0    0    0 -0.00000000000E+00 -0.00000000000E+00 -0.10000000000E+04  0.10000000000E+04  0.00000000000E+00 0.  1.
    9000005    2    1    2  501    0 -0.20509118287E+02  0.23818112014E+02 -0.87248097552E+03  0.93496927837E+03  0.33459912202E+03 0.  0.
         13    1    3    3    0    0 -0.17544096338E+03  0.31056750976E+02 -0.52604053935E+03  0.55539418655E+03  0.00000000000E+00 0.  1.
          3    1    3    3  501    0  0.15493184509E+03 -0.72386389613E+01 -0.34644043617E+03  0.37957509182E+03  0.00000000000E+00 0.  1.
         21    1    1    2  502  501  0.20509118287E+02 -0.23818112014E+02 -0.93709493421E+02  0.98840252681E+02  0.00000000000E+00 0.  1.
<mgrwt>
<rscale>  1 0.30000000E+03</rscale>
<asrwt>0</asrwt>
<pdfrwt beam="1">  1        1 0.12294401E+00 0.30000000E+03</pdfrwt>
<pdfrwt beam="2">0</pdfrwt>
<totfact> 0.25024460E+01</totfact>
</mgrwt>
</event>
<event>
 6    1  0.1875959E-004  0.3000000E+03  0.7818608E-02  0.1093470E+00
          1   -1    0    0  502    0  0.00000000000E+00  0.00000000000E+00  0.29818045103E+02  0.29818045103E+02  0.00000000000E+00 0.  1.
         13   -1    0    0    0    0 -0.00000000000E+00 -0.00000000000E+00 -0.10000000000E+04  0.10000000000E+04  0.00000000000E+00 0.  1.
    9000005    2    1    2  501    0  0.16641312941E+02 -0.40563381865E+01 -0.90793410732E+03  0.96525658830E+03  0.32723470301E+03 0.  0.
         13    1    3    3    0    0 -0.37309153430E+02 -0.70976190086E+02 -0.33983534588E+02  0.87088880529E+02  0.00000000000E+00 0.  1.
          3    1    3    3  501    0  0.53950466371E+02  0.66919851900E+02 -0.87395057273E+03  0.87816770778E+03  0.00000000000E+00 0.  1.
         21    1    1    2  502  501 -0.16641312941E+02  0.40563381865E+01 -0.62247847577E+02  0.64561456798E+02  0.00000000000E+00 0.  1.
<mgrwt>
<rscale>  1 0.30000000E+03</rscale>
<asrwt>0</asrwt>
<pdfrwt beam="1">  1        1 0.10842948E+00 0.30000000E+03</pdfrwt>
<pdfrwt beam="2">0</pdfrwt>
<totfact> 0.30359958E+01</totfact>
</mgrwt>
</event>
<event>
 6    1  0.1875959E-004  0.3000000E+03  0.7818608E-02  0.1093470E+00
          1   -1    0    0  502    0  0.00000000000E+00  0.00000000000E+00  0.29575345453E+02  0.29575345453E+02  0.00000000000E+00 0.  1.
         13   -1    0    0    0    0 -0.00000000000E+00 -0.00000000000E+00 -0.10000000000E+04  0.10000000000E+04  0.00000000000E+00 0.  1.
    9000005    2    1    2  501    0 -0.13757659414E+02 -0.41121160783E+01 -0.93909183990E+03  0.99510901456E+03  0.32884994208E+03 0.  0.
         13    1    3    3    0    0  0.13471758943E+03 -0.22183375788E+02 -0.69922292154E+03  0.71242797887E+03  0.00000000000E+00 0.  1.
          1    1    3    3  501    0 -0.14847524885E+03  0.18071259710E+02 -0.23986891836E+03  0.28268103570E+03  0.00000000000E+00 0.  1.
         21    1    1    2  502  501  0.13757659414E+02  0.41121160783E+01 -0.31332814647E+02  0.34466330888E+02  0.00000000000E+00 0.  1.
<mgrwt>
<rscale>  1 0.30000000E+03</rscale>
<asrwt>0</asrwt>
<pdfrwt beam="1">  1        1 0.10754694E+00 0.30000000E+03</pdfrwt>
<pdfrwt beam="2">0</pdfrwt>
<totfact> 0.30734348E+01</totfact>
</mgrwt>
</event>
<event>
 6    1  0.1875959E-004  0.3000000E+03  0.7818608E-02  0.1093470E+00
          1   -1    0    0  502    0  0.00000000000E+00  0.00000000000E+00  0.25571010610E+02  0.25571010610E+02  0.00000000000E+00 0.  1.
         13   -1    0    0    0    0 -0.00000000000E+00 -0.00000000000E+00 -0.10000000000E+04  0.10000000000E+04  0.00000000000E+00 0.  1.
    9000005    2    1    2  501    0  0.31691135448E+02 -0.24952936605E+02 -0.91829531999E+03  0.95644817826E+03  0.26438578986E+03 0.  0.
         13    1    3    3    0    0  0.64179143504E+02  0.63543757591E+01 -0.37711785627E+02  0.74709566505E+02  0.00000000000E+00 0.  1.
          1    1    3    3  501    0 -0.32488008057E+02 -0.31307312364E+02 -0.88058353436E+03  0.88173861176E+03  0.00000000000E+00 0.  1.
         21    1    1    2  502  501 -0.31691135448E+02  0.24952936605E+02 -0.56133669401E+02  0.69122832347E+02  0.00000000000E+00 0.  1.
<mgrwt>
<rscale>  1 0.30000000E+03</rscale>
<asrwt>0</asrwt>
<pdfrwt beam="1">  1        1 0.92985689E-01 0.30000000E+03</pdfrwt>
<pdfrwt beam="2">0</pdfrwt>
<totfact> 0.38022815E+01</totfact>
</mgrwt>
</event>
<event>
 6    1  0.1875959E-004  0.3000000E+03  0.7818608E-02  0.1093470E+00
          1   -1    0    0  502    0  0.00000000000E+00  0.00000000000E+00  0.30527467965E+02  0.30527467965E+02  0.00000000000E+00 0.  1.
         13   -1    0    0    0    0 -0.00000000000E+00 -0.00000000000E+00 -0.10000000000E+04  0.10000000000E+04  0.00000000000E+00 0.  1.
    9000005    2    1    2  501    0 -0.37378367396E+01  0.78968670396E+01 -0.94951143321E+03  0.10087380807E+04  0.34044709083E+03 0.  0.
         13    1    3    3    0    0  0.98592528810E+02 -0.10988922942E+03 -0.69257977471E+03  0.70814043368E+03  0.00000000000E+00 0.  1.
          1    1    3    3  501    0 -0.10233036555E+03  0.11778609646E+03 -0.25693165851E+03  0.30059764699E+03  0.00000000000E+00 0.  1.
         21    1    1    2  502  501  0.37378367396E+01 -0.78968670396E+01 -0.19961098825E+02  0.21789387298E+02  0.00000000000E+00 0.  1.
<mgrwt>
<rscale>  1 0.30000000E+03</rscale>
<asrwt>0</asrwt>
<pdfrwt beam="1">  1        1 0.11100921E+00 0.30000000E+03</pdfrwt>
<pdfrwt beam="2">0</pdfrwt>
<totfact> 0.29302151E+01</totfact>
</mgrwt>
</event>
<event>
 6    1  0.1875959E-004  0.3000000E+03  0.7818608E-02  0.1093470E+00
          1   -1    0    0  502    0  0.00000000000E+00  0.00000000000E+00  0.33624548350E+02  0.33624548350E+02  0.00000000000E+00 0.  1.
         13   -1    0    0    0    0 -0.00000000000E+00 -0.00000000000E+00 -0.10000000000E+04  0.10000000000E+04  0.00000000000E+00 0.  1.
    9000005    2    1    2  501    0 -0.80521900028E+01 -0.11850578878E+02 -0.96764475770E+03  0.10192410466E+04  0.31986037588E+03 0.  0.
         13    1    3    3    0    0  0.61592722662E+02 -0.14610513227E+03 -0.36583767235E+03  0.39871992134E+03  0.00000000000E+00 0.  1.
          1    1    3    3  501    0 -0.69644912664E+02  0.13425455339E+03 -0.60180708535E+03  0.62052112530E+03  0.00000000000E+00 0.  1.
         21    1    1    2  502  501  0.80521900028E+01  0.11850578878E+02  0.12693060533E+01  0.14383501710E+02  0.00000000000E+00 0.  1.
<mgrwt>
<rscale>  1 0.30000000E+03</rscale>
<asrwt>0</asrwt>
<pdfrwt beam="1">  1        1 0.12227134E+00 0.30000000E+03</pdfrwt>
<pdfrwt beam="2">0</pdfrwt>
<totfact> 0.25242172E+01</totfact>
</mgrwt>
</event>
<event>
 6    1  0.1875959E-004  0.3000000E+03  0.7818608E-02  0.1093470E+00
          3   -1    0    0  502    0  0.00000000000E+00  0.00000000000E+00  0.29879071960E+02  0.29879071960E+02  0.00000000000E+00 0.  1.
         13   -1    0    0    0    0 -0.00000000000E+00 -0.00000000000E+00 -0.10000000000E+04  0.10000000000E+04  0.00000000000E+00 0.  1.
    9000005    2    1    2  501    0 -0.12754463222E+02  0.38225113565E+01 -0.95865010767E+03  0.10123044412E+04  0.32491993611E+03 0.  0.
         13    1    3    3    0    0 -0.83048979754E+02  0.89922390960E+02 -0.13925665744E+03  0.18540654270E+03  0.00000000000E+00 0.  1.
          1    1    3    3  501    0  0.70294516532E+02 -0.86099879604E+02 -0.81939345023E+03  0.82689789854E+03  0.00000000000E+00 0.  1.
         21    1    1    2  502  501  0.12754463222E+02 -0.38225113565E+01 -0.11470820366E+02  0.17574630723E+02  0.00000000000E+00 0.  1.
<mgrwt>
<rscale>  1 0.30000000E+03</rscale>
<asrwt>0</asrwt>
<pdfrwt beam="1">  1        3 0.10865140E+00 0.30000000E+03</pdfrwt>
<pdfrwt beam="2">0</pdfrwt>
<totfact> 0.31221611E+00</totfact>
</mgrwt>
</event>
<event>
 6    1  0.1875959E-004  0.3000000E+03  0.7818608E-02  0.1093470E+00
          1   -1    0    0  502    0  0.00000000000E+00  0.00000000000E+00  0.28659874962E+02  0.28659874962E+02  0.00000000000E+00 0.  1.
         13   -1    0    0    0    0 -0.00000000000E+00 -0.00000000000E+00 -0.10000000000E+04  0.10000000000E+04  0.00000000000E+00 0.  1.
    9000005    2    1    2  501    0  0.10205971493E+01  0.15280101184E+02 -0.95970471382E+03  0.10094269369E+04  0.31253012684E+03 0.  0.
         13    1    3    3    0    0 -0.91293704189E+02 -0.11283795015E+03 -0.33536284736E+03  0.36542466092E+03  0.00000000000E+00 0.  1.
          3    1    3    3  501    0  0.92314301339E+02  0.12811805133E+03 -0.62434186646E+03  0.64400227602E+03  0.00000000000E+00 0.  1.
         21    1    1    2  502  501 -0.10205971493E+01 -0.15280101184E+02 -0.11635411222E+02  0.19232938024E+02  0.00000000000E+00 0.  1.
<mgrwt>
<rscale>  1 0.30000000E+03</rscale>
<asrwt>0</asrwt>
<pdfrwt beam="1">  1        1 0.10421795E+00 0.30000000E+03</pdfrwt>
<pdfrwt beam="2">0</pdfrwt>
<totfact> 0.32207927E+01</totfact>
</mgrwt>
</event>
<event>
 6    1  0.1875959E-004  0.3000000E+03  0.7818608E-02  0.1093470E+00
          1   -1    0    0  502    0  0.00000000000E+00  0.00000000000E+00  0.31375377043E+02  0.31375377043E+02  0.00000000000E+00 0.  1.
         13   -1    0    0    0    0 -0.00000000000E+00 -0.00000000000E+00 -0.10000000000E+04  0.10000000000E+04  0.00000000000E+00 0.  1.
    9000005    2    1    2  501    0  0.15460602255E+02 -0.16796982446E+02 -0.94266594831E+03  0.99680629214E+03  0.32323756761E+03 0.  0.
         13    1    3    3    0    0 -0.15242809475E+03 -0.12404683784E+02 -0.38029743603E+03  0.40989552340E+03  0.00000000000E+00 0.  1.
          1    1    3    3  501    0  0.16788869700E+03 -0.43922986616E+01 -0.56236851227E+03  0.58691076874E+03  0.00000000000E+00 0.  1.
         21    1    1    2  502  501 -0.15460602255E+02  0.16796982446E+02 -0.25958674651E+02  0.34569084903E+02  0.00000000000E+00 0. -1.
<mgrwt>
<rscale>  1 0.30000000E+03</rscale>
<asrwt>0</asrwt>
<pdfrwt beam="1">  1        1 0.11409252E+00 0.30000000E+03</pdfrwt>
<pdfrwt beam="2">0</pdfrwt>
<totfact> 0.28105189E+01</totfact>
</mgrwt>
</event>
<event>
 6    1  0.1875959E-004  0.3000000E+03  0.7818608E-02  0.1093470E+00
          1   -1    0    0  502    0  0.00000000000E+00  0.00000000000E+00  0.38469387220E+02  0.38469387220E+02  0.00000000000E+00 0.  1.
         13   -1    0    0    0    0 -0.00000000000E+00 -0.00000000000E+00 -0.10000000000E+04  0.10000000000E+04  0.00000000000E+00 0.  1.
    9000005    2    1    2  501    0  0.20789921503E+02 -0.58718676885E+02 -0.88927841317E+03  0.94307292921E+03  0.30771797126E+03 0.  0.
         13    1    3    3    0    0  0.49170153589E+02 -0.71571187091E+02 -0.90431837358E+03  0.90847777057E+03  0.00000000000E+00 0.  1.
          3    1    3    3  501    0 -0.28380232086E+02  0.12852510205E+02  0.15039960418E+02  0.34595158638E+02  0.00000000000E+00 0.  1.
         21    1    1    2  502  501 -0.20789921503E+02  0.58718676885E+02 -0.72252199614E+02  0.95396458008E+02  0.00000000000E+00 0.  1.
<mgrwt>
<rscale>  1 0.30000000E+03</rscale>
<asrwt>0</asrwt>
<pdfrwt beam="1">  1        1 0.13988898E+00 0.30000000E+03</pdfrwt>
<pdfrwt beam="2">0</pdfrwt>
<totfact> 0.20259377E+01</totfact>
</mgrwt>
</event>
<event>
 6    1  0.1875959E-004  0.3000000E+03  0.7818608E-02  0.1093470E+00
          1   -1    0    0  502    0  0.00000000000E+00  0.00000000000E+00  0.31228830749E+02  0.31228830749E+02  0.00000000000E+00 0.  1.
         13   -1    0    0    0    0 -0.00000000000E+00 -0.00000000000E+00 -0.10000000000E+04  0.10000000000E+04  0.00000000000E+00 0.  1.
    9000005    2    1    2  501    0  0.10512269197E+02  0.17501883621E+01 -0.97069872472E+03  0.10203989446E+04  0.31439532612E+03 0.  0.
         13    1    3    3    0    0 -0.76073634515E+02 -0.64589662961E+02 -0.94505036878E+02  0.13744171283E+03  0.00000000000E+00 0.  1.
          3    1    3    3  501    0  0.86585903712E+02  0.66339851323E+02 -0.87619368785E+03  0.88295723182E+03  0.00000000000E+00 0.  1.
         21    1    1    2  502  501 -0.10512269197E+02 -0.17501883621E+01  0.19275554729E+01  0.10829886106E+02  0.00000000000E+00 0. -1.
<mgrwt>
<rscale>  1 0.30000000E+03</rscale>
<asrwt>0</asrwt>
<pdfrwt beam="1">  1        1 0.11355962E+00 0.30000000E+03</pdfrwt>
<pdfrwt beam="2">0</pdfrwt>
<totfact> 0.28307025E+01</totfact>
</mgrwt>
</event>
<event>
 6    1  0.1875959E-004  0.3000000E+03  0.7818608E-02  0.1093470E+00
          1   -1    0    0  502    0  0.00000000000E+00  0.00000000000E+00  0.30589703022E+02  0.30589703022E+02  0.00000000000E+00 0.  1.
         13   -1    0    0    0    0 -0.00000000000E+00 -0.00000000000E+00 -0.10000000000E+04  0.10000000000E+04  0.00000000000E+00 0.  1.
    9000005    2    1    2  501    0 -0.81603083135E+01 -0.88573973460E+01 -0.96986235981E+03  0.10185377953E+04  0.31087167659E+03 0.  0.
         13    1    3    3    0    0  0.12920696040E+03  0.68503896039E+02 -0.57647491567E+03  0.59473569826E+03  0.00000000000E+00 0.  1.
          3    1    3    3  501    0 -0.13736726871E+03 -0.77361293385E+02 -0.39338744414E+03  0.42380209701E+03  0.00000000000E+00 0.  1.
         21    1    1    2  502  501  0.81603083135E+01  0.88573973460E+01  0.45206283409E+00  0.12051907746E+02  0.00000000000E+00 0.  1.
<mgrwt>
<rscale>  1 0.30000000E+03</rscale>
<asrwt>0</asrwt>
<pdfrwt beam="1">  1        1 0.11123552E+00 0.30000000E+03</pdfrwt>
<pdfrwt beam="2">0</pdfrwt>
<totfact> 0.29211860E+01</totfact>
</mgrwt>
</event>
<event>
 6    1  0.1875959E-004  0.3000000E+03  0.7818608E-02  0.1093470E+00
          1   -1    0    0  502    0  0.00000000000E+00  0.00000000000E+00  0.40738598881E+02  0.40738598881E+02  0.00000000000E+00 0.  1.
         13   -1    0    0    0    0 -0.00000000000E+00 -0.00000000000E+00 -0.10000000000E+04  0.10000000000E+04  0.00000000000E+00 0.  1.
    9000005    2    1    2  501    0 -0.14750932622E+02 -0.57087860708E+02 -0.90527473854E+03  0.96079378298E+03  0.31642649592E+03 0.  0.
         13    1    3    3    0    0 -0.13134424977E+03  0.46882264613E+02 -0.24141853453E+03  0.27880489145E+03  0.00000000000E+00 0.  1.
          1    1    3    3  501    0  0.11659331715E+03 -0.10397012532E+03 -0.66385620401E+03  0.68198889153E+03  0.00000000000E+00 0.  1.
         21    1    1    2  502  501  0.14750932622E+02  0.57087860708E+02 -0.53986662582E+02  0.79944815905E+02  0.00000000000E+00 0.  1.
<mgrwt>
<rscale>  1 0.30000000E+03</rscale>
<asrwt>0</asrwt>
<pdfrwt beam="1">  1        1 0.14814067E+00 0.30000000E+03</pdfrwt>
<pdfrwt beam="2">0</pdfrwt>
<totfact> 0.18361386E+01</totfact>
</mgrwt>
</event>
<event>
 6    1  0.1875959E-004  0.3000000E+03  0.7818608E-02  0.1093470E+00
          1   -1    0    0  502    0  0.00000000000E+00  0.00000000000E+00  0.39116603453E+02  0.39116603453E+02  0.00000000000E+00 0.  1.
         13   -1    0    0    0    0 -0.00000000000E+00 -0.00000000000E+00 -0.10000000000E+04  0.10000000000E+04  0.00000000000E+00 0.  1.
    9000005    2    1    2  501    0  0.11207355052E+02  0.17332394521E+02 -0.96549345331E+03  0.10179678605E+04  0.32195487235E+03 0.  0.
         13    1    3    3    0    0  0.53601877995E+02 -0.52529671850E+02 -0.92265290146E+03  0.92570022379E+03  0.00000000000E+00 0.  1.
          1    1    3    3  501    0 -0.42394522943E+02  0.69862066371E+02 -0.42840551850E+02  0.92267636666E+02  0.00000000000E+00 0.  1.
         21    1    1    2  502  501 -0.11207355052E+02 -0.17332394521E+02  0.46100567620E+01  0.21148742999E+02  0.00000000000E+00 0.  1.
<mgrwt>
<rscale>  1 0.30000000E+03</rscale>
<asrwt>0</asrwt>
<pdfrwt beam="1">  1        1 0.14224249E+00 0.30000000E+03</pdfrwt>
<pdfrwt beam="2">0</pdfrwt>
<totfact> 0.19693729E+01</totfact>
</mgrwt>
</event>
<event>
 6    1  0.1875959E-004  0.3000000E+03  0.7818608E-02  0.1093470E+00
          1   -1    0    0  502    0  0.00000000000E+00  0.00000000000E+00  0.39219352399E+02  0.39219352399E+02  0.00000000000E+00 0.  1.
         13   -1    0    0    0    0 -0.00000000000E+00 -0.00000000000E+00 -0.10000000000E+04  0.10000000000E+04  0.00000000000E+00 0.  1.
    9000005    2    1    2  501    0 -0.23174870649E+02  0.56381560259E+02 -0.86435307999E+03  0.92513942094E+03  0.32413075497E+03 0.  0.
         13    1    3    3    0    0 -0.11132023493E+03  0.54828741773E+02 -0.11052889179E+03  0.16617768066E+03  0.00000000000E+00 0.  1.
          3    1    3    3  501    0  0.88145364282E+02  0.15528184861E+01 -0.75382418820E+03  0.75896174028E+03  0.00000000000E+00 0.  1.
         21    1    1    2  502  501  0.23174870649E+02 -0.56381560259E+02 -0.96427567612E+02  0.11407993146E+03  0.00000000000E+00 0.  1.
<mgrwt>
<rscale>  1 0.30000000E+03</rscale>
<asrwt>0</asrwt>
<pdfrwt beam="1">  1        1 0.14261613E+00 0.30000000E+03</pdfrwt>
<pdfrwt beam="2">0</pdfrwt>
<totfact> 0.19605782E+01</totfact>
</mgrwt>
</event>
<event>
 6    1  0.1875959E-004  0.3000000E+03  0.7818608E-02  0.1093470E+00
          1   -1    0    0  502    0  0.00000000000E+00  0.00000000000E+00  0.42313698652E+02  0.42313698652E+02  0.00000000000E+00 0.  1.
         13   -1    0    0    0    0 -0.00000000000E+00 -0.00000000000E+00 -0.10000000000E+04  0.10000000000E+04  0.00000000000E+00 0.  1.
    9000005    2    1    2  501    0  0.11001695504E+02 -0.13241334600E+02 -0.96901584512E+03  0.10217047489E+04  0.32340766172E+03 0.  0.
         13    1    3    3    0    0  0.14161421206E+02 -0.13334103512E+03 -0.18470819456E+03  0.22824875605E+03  0.00000000000E+00 0.  1.
          1    1    3    3  501    0 -0.31597257012E+01  0.12009970052E+03 -0.78430765056E+03  0.79345599289E+03  0.00000000000E+00 0.  1.
         21    1    1    2  502  501 -0.11001695504E+02  0.13241334600E+02  0.11329543776E+02  0.20608949710E+02  0.00000000000E+00 0.  1.
<mgrwt>
<rscale>  1 0.30000000E+03</rscale>
<asrwt>0</asrwt>
<pdfrwt beam="1">  1        1 0.15386832E+00 0.30000000E+03</pdfrwt>
<pdfrwt beam="2">0</pdfrwt>
<totfact> 0.17173440E+01</totfact>
</mgrwt>
</event>
<event>
 6    1  0.1875959E-004  0.3000000E+03  0.7818608E-02  0.1093470E+00
          1   -1    0    0  502    0  0.00000000000E+00  0.00000000000E+00  0.43320532787E+02  0.43320532787E+02  0.00000000000E+00 0.  1.
         13   -1    0    0    0    0 -0.00000000000E+00 -0.00000000000E+00 -0.10000000000E+04  0.10000000000E+04  0.00000000000E+00 0.  1.
    9000005    2    1    2  501    0 -0.25266648451E+02 -0.16541334312E+02 -0.95521465287E+03  0.10130853720E+04  0.33614716821E+03 0.  0.
         13    1    3    3    0    0 -0.95753285475E+00  0.15868601134E+03 -0.50566219142E+03  0.52997775321E+03  0.00000000000E+00 0.  1.
          1    1    3    3  501    0 -0.24309115596E+02 -0.17522734566E+03 -0.44955246145E+03  0.48310761882E+03  0.00000000000E+00 0.  1.
         21    1    1    2  502  501  0.25266648451E+02  0.16541334312E+02 -0.14648143387E+01  0.30235160754E+02  0.00000000000E+00 0. -1.
<mgrwt>
<rscale>  1 0.30000000E+03</rscale>
<asrwt>0</asrwt>
<pdfrwt beam="1">  1        1 0.15752954E+00 0.30000000E+03</pdfrwt>
<pdfrwt beam="2">0</pdfrwt>
<totfact> 0.16462853E+01</totfact>
</mgrwt>
</event>
<event>
 6    1  0.1875959E-004  0.3000000E+03  0.7818608E-02  0.1093470E+00
          1   -1    0    0  502    0  0.00000000000E+00  0.00000000000E+00  0.44750642672E+02  0.44750642672E+02  0.00000000000E+00 0.  1.
         13   -1    0    0    0    0 -0.00000000000E+00 -0.00000000000E+00 -0.10000000000E+04  0.10000000000E+04  0.00000000000E+00 0.  1.
    9000005    2    1    2  501    0 -0.36676945268E+02  0.57163766615E+02 -0.79003674667E+03  0.86612225397E+03  0.34842044030E+03 0.  0.
         13    1    3    3    0    0 -0.17858325146E+03 -0.17416817538E+02 -0.29004754617E+03  0.34106143475E+03  0.00000000000E+00 0.  1.
          3    1    3    3  501    0  0.14190630619E+03  0.74580584153E+02 -0.49998920049E+03  0.52506081922E+03  0.00000000000E+00 0.  1.
         21    1    1    2  502  501  0.36676945268E+02 -0.57163766615E+02 -0.16521261066E+03  0.17862838870E+03  0.00000000000E+00 0.  1.
<mgrwt>
<rscale>  1 0.30000000E+03</rscale>
<asrwt>0</asrwt>
<pdfrwt beam="1">  1        1 0.16272995E+00 0.30000000E+03</pdfrwt>
<pdfrwt beam="2">0</pdfrwt>
<totfact> 0.15512244E+01</totfact>
</mgrwt>
</event>
<event>
 6    1  0.1875959E-004  0.3000000E+03  0.7818608E-02  0.1093470E+00
          1   -1    0    0  502    0  0.00000000000E+00  0.00000000000E+00  0.29848176487E+02  0.29848176487E+02  0.00000000000E+00 0.  1.
         13   -1    0    0    0    0 -0.00000000000E+00 -0.00000000000E+00 -0.10000000000E+04  0.10000000000E+04  0.00000000000E+00 0.  1.
    9000005    2    1    2  501    0 -0.80594635839E+01 -0.10167435052E+02 -0.94379333852E+03  0.10004695887E+04  0.33170046790E+03 0.  0.
         13    1    3    3    0    0 -0.16786047483E+03  0.10228747511E+02 -0.54535182993E+03  0.57069289876E+03  0.00000000000E+00 0.  1.
          3    1    3    3  501    0  0.15980101124E+03 -0.20396182563E+02 -0.39844150859E+03  0.42977668995E+03  0.00000000000E+00 0.  1.
         21    1    1    2  502  501  0.80594635839E+01  0.10167435052E+02 -0.26358484997E+02  0.29378587783E+02  0.00000000000E+00 0. -1.
<mgrwt>
<rscale>  1 0.30000000E+03</rscale>
<asrwt>0</asrwt>
<pdfrwt beam="1">  1        1 0.10853905E+00 0.30000000E+03</pdfrwt>
<pdfrwt beam="2">0</pdfrwt>
<totfact> 0.30313933E+01</totfact>
</mgrwt>
</event>
<event>
 6    1  0.1875959E-004  0.3000000E+03  0.7818608E-02  0.1093470E+00
          1   -1    0    0  502    0  0.00000000000E+00  0.00000000000E+00  0.45712730970E+02  0.45712730970E+02  0.00000000000E+00 0.  1.
         13   -1    0    0    0    0 -0.00000000000E+00 -0.00000000000E+00 -0.10000000000E+04  0.10000000000E+04  0.00000000000E+00 0.  1.
    9000005    2    1    2  501    0 -0.18057722499E+02 -0.83379865879E+02 -0.73132838929E+03  0.80698915562E+03  0.33032105734E+03 0.  0.
         13    1    3    3    0    0  0.72959409455E+02 -0.15675380734E+03 -0.20664308912E+03  0.26943681601E+03  0.00000000000E+00 0.  1.
          1    1    3    3  501    0 -0.91017131954E+02  0.73373941459E+02 -0.52468530018E+03  0.53755233961E+03  0.00000000000E+00 0.  1.
         21    1    1    2  502  501  0.18057722499E+02  0.83379865879E+02 -0.22295887974E+03  0.23872357535E+03  0.00000000000E+00 0.  1.
<mgrwt>
<rscale>  1 0.30000000E+03</rscale>
<asrwt>0</asrwt>
<pdfrwt beam="1">  1        1 0.16622846E+00 0.30000000E+03</pdfrwt>
<pdfrwt beam="2">0</pdfrwt>
<totfact> 0.14908392E+01</totfact>
</mgrwt>
</event>
<event>
 6    1  0.1875959E-004  0.3000000E+03  0.7818608E-02  0.1093470E+00
          1   -1    0    0  502    0  0.00000000000E+00  0.00000000000E+00  0.45203038524E+02  0.45203038524E+02  0.00000000000E+00 0.  1.
         13   -1    0    0    0    0 -0.00000000000E+00 -0.00000000000E+00 -0.10000000000E+04  0.10000000000E+04  0.00000000000E+00 0.  1.
    9000005    2    1    2  501    0  0.66762264890E+01 -0.13895275172E+02 -0.97436083311E+03  0.10202952938E+04  0.30230084827E+03 0.  0.
         13    1    3    3    0    0  0.13805548733E+03 -0.53836970493E+02 -0.33428638864E+03  0.36565711617E+03  0.00000000000E+00 0.  1.
          3    1    3    3  501    0 -0.13137926084E+03  0.39941695321E+02 -0.64007444446E+03  0.65463817767E+03  0.00000000000E+00 0.  1.
         21    1    1    2  502  501 -0.66762264890E+01  0.13895275172E+02  0.19563871630E+02  0.24907744687E+02  0.00000000000E+00 0.  1.
<mgrwt>
<rscale>  1 0.30000000E+03</rscale>
<asrwt>0</asrwt>
<pdfrwt beam="1">  1        1 0.16437503E+00 0.30000000E+03</pdfrwt>
<pdfrwt beam="2">0</pdfrwt>
<totfact> 0.15224876E+01</totfact>
</mgrwt>
</event>
<event>
 6    1  0.1875959E-004  0.3000000E+03  0.7818608E-02  0.1093470E+00
          1   -1    0    0  502    0  0.00000000000E+00  0.00000000000E+00  0.39585167517E+02  0.39585167517E+02  0.00000000000E+00 0.  1.
         13   -1    0    0    0    0 -0.00000000000E+00 -0.00000000000E+00 -0.10000000000E+04  0.10000000000E+04  0.00000000000E+00 0.  1.
    9000005    2    1    2  501    0 -0.59936059341E+01 -0.21505105286E+02 -0.96560396562E+03  0.10166653078E+04  0.31736246920E+03 0.  0.
         13    1    3    3    0    0  0.45011661499E+02  0.69814514181E+02 -0.87306457445E+03  0.87700733590E+03  0.00000000000E+00 0.  1.
          1    1    3    3  501    0 -0.51005267433E+02 -0.91319619467E+02 -0.92539391168E+02  0.13965797193E+03  0.00000000000E+00 0.  1.
         21    1    1    2  502  501  0.59936059341E+01  0.21505105286E+02  0.51891331345E+01  0.22919859689E+02  0.00000000000E+00 0. -1.
<mgrwt>
<rscale>  1 0.30000000E+03</rscale>
<asrwt>0</asrwt>
<pdfrwt beam="1">  1        1 0.14394637E+00 0.30000000E+03</pdfrwt>
<pdfrwt beam="2">0</pdfrwt>
<totfact> 0.19296672E+01</totfact>
</mgrwt>
</event>
<event>
 6    1  0.1875959E-004  0.3000000E+03  0.7818608E-02  0.1093470E+00
          1   -1    0    0  502    0  0.00000000000E+00  0.00000000000E+00  0.14222959176E+03  0.14222959176E+03  0.00000000000E+00 0.  1.
         13   -1    0    0    0    0 -0.00000000000E+00 -0.00000000000E+00 -0.10000000000E+04  0.10000000000E+04  0.00000000000E+00 0.  1.
    9000005    2    1    2  501    0  0.26700928425E+02 -0.87813717981E+02 -0.95342323778E+03  0.10096639384E+04  0.31934496956E+03 0.  0.
         13    1    3    3    0    0  0.60060060677E+02  0.11254150935E+03 -0.41695069357E+03  0.43602830537E+03  0.00000000000E+00 0.  1.
          1    1    3    3  501    0 -0.33359132251E+02 -0.20035522733E+03 -0.53647254421E+03  0.57363563306E+03  0.00000000000E+00 0.  1.
         21    1    1    2  502  501 -0.26700928425E+02  0.87813717981E+02  0.95652829541E+02  0.13256565333E+03  0.00000000000E+00 0.  1.
<mgrwt>
<rscale>  1 0.30000000E+03</rscale>
<asrwt>0</asrwt>
<pdfrwt beam="1">  1        1 0.51719961E+00 0.30000000E+03</pdfrwt>
<pdfrwt beam="2">0</pdfrwt>
<totfact> 0.17059362E-01</totfact>
</mgrwt>
</event>
<event>
 6    1  0.1875959E-004  0.3000000E+03  0.7818608E-02  0.1093470E+00
          1   -1    0    0  502    0  0.00000000000E+00  0.00000000000E+00  0.31643058646E+02  0.31643058646E+02  0.00000000000E+00 0.  1.
         13   -1    0    0    0    0 -0.00000000000E+00 -0.00000000000E+00 -0.10000000000E+04  0.10000000000E+04  0.00000000000E+00 0.  1.
    9000005    2    1    2  501    0 -0.23952829926E+01  0.25929591577E+02 -0.93122028077E+03  0.98628655239E+03  0.32390102040E+03 0.  0.
         13    1    3    3    0    0  0.66238951916E+02  0.10608868990E+03 -0.83229911401E+03  0.84164376315E+03  0.00000000000E+00 0.  1.
          1    1    3    3  501    0 -0.68634234909E+02 -0.80159098326E+02 -0.98921166761E+02  0.14464278924E+03  0.00000000000E+00 0.  1.
         21    1    1    2  502  501  0.23952829926E+01 -0.25929591577E+02 -0.37136660585E+02  0.45356506252E+02  0.00000000000E+00 0.  1.
<mgrwt>
<rscale>  1 0.30000000E+03</rscale>
<asrwt>0</asrwt>
<pdfrwt beam="1">  1        1 0.11506591E+00 0.30000000E+03</pdfrwt>
<pdfrwt beam="2">0</pdfrwt>
<totfact> 0.27741728E+01</totfact>
</mgrwt>
</event>
<event>
 6    1  0.1875959E-004  0.3000000E+03  0.7818608E-02  0.1093470E+00
          1   -1    0    0  502    0  0.00000000000E+00  0.00000000000E+00  0.25624413833E+02  0.25624413833E+02  0.00000000000E+00 0.  1.
         13   -1    0    0    0    0 -0.00000000000E+00 -0.00000000000E+00 -0.10000000000E+04  0.10000000000E+04  0.00000000000E+00 0.  1.
    9000005    2    1    2  501    0 -0.33230993335E+01  0.16133858758E+02 -0.93316000521E+03  0.98123896012E+03  0.30293721651E+03 0.  0.
         13    1    3    3    0    0  0.71139538377E+02  0.58995651361E+02 -0.86927234628E+03  0.87417145504E+03  0.00000000000E+00 0.  1.
          3    1    3    3  501    0 -0.74462637711E+02 -0.42861792603E+02 -0.63887658924E+02  0.10706750507E+03  0.00000000000E+00 0.  1.
         21    1    1    2  502  501  0.33230993335E+01 -0.16133858758E+02 -0.41215580960E+02  0.44385453715E+02  0.00000000000E+00 0.  1.
<mgrwt>
<rscale>  1 0.30000000E+03</rscale>
<asrwt>0</asrwt>
<pdfrwt beam="1">  1        1 0.93179883E-01 0.30000000E+03</pdfrwt>
<pdfrwt beam="2">0</pdfrwt>
<totfact> 0.37909453E+01</totfact>
</mgrwt>
</event>
<event>
 6    1  0.1875959E-004  0.3000000E+03  0.7818608E-02  0.1093470E+00
          1   -1    0    0  502    0  0.00000000000E+00  0.00000000000E+00  0.30786717809E+02  0.30786717809E+02  0.00000000000E+00 0.  1.
         13   -1    0    0    0    0 -0.00000000000E+00 -0.00000000000E+00 -0.10000000000E+04  0.10000000000E+04  0.00000000000E+00 0.  1.
    9000005    2    1    2  501    0 -0.42340685316E+02  0.13590844173E+01 -0.87295698222E+03  0.92562086771E+03  0.30483686979E+03 0.  0.
         13    1    3    3    0    0 -0.58659812145E+02  0.12126375408E+03 -0.19534115983E+03  0.23728472420E+03  0.00000000000E+00 0.  1.
          1    1    3    3  501    0  0.16319126829E+02 -0.11990466966E+03 -0.67761582239E+03  0.68833614351E+03  0.00000000000E+00 0.  1.
         21    1    1    2  502  501  0.42340685316E+02 -0.13590844173E+01 -0.96256299970E+02  0.10516585010E+03  0.00000000000E+00 0. -1.
<mgrwt>
<rscale>  1 0.30000000E+03</rscale>
<asrwt>0</asrwt>
<pdfrwt beam="1">  1        1 0.11195194E+00 0.30000000E+03</pdfrwt>
<pdfrwt beam="2">0</pdfrwt>
<totfact> 0.28928608E+01</totfact>
</mgrwt>
</event>
<event>
 6    1  0.1875959E-004  0.3000000E+03  0.7818608E-02  0.1093470E+00
          1   -1    0    0  502    0  0.00000000000E+00  0.00000000000E+00  0.65542875883E+02  0.65542875883E+02  0.00000000000E+00 0.  1.
         13   -1    0    0    0    0 -0.00000000000E+00 -0.00000000000E+00 -0.10000000000E+04  0.10000000000E+04  0.00000000000E+00 0.  1.
    9000005    2    1    2  501    0  0.12131731552E+03  0.89921213222E+01 -0.84675110775E+03  0.91557256350E+03  0.32632335383E+03 0.  0.
         13    1    3    3    0    0  0.18810241423E+03 -0.52539817953E+02 -0.77671478339E+03  0.80089250555E+03  0.00000000000E+00 0.  1.
          3    1    3    3  501    0 -0.66785098706E+02  0.61531939275E+02 -0.70036324362E+02  0.11468005795E+03  0.00000000000E+00 0.  1.
         21    1    1    2  502  501 -0.12131731552E+03 -0.89921213222E+01 -0.87706016364E+02  0.14997031239E+03  0.00000000000E+00 0.  1.
<mgrwt>
<rscale>  1 0.30000000E+03</rscale>
<asrwt>0</asrwt>
<pdfrwt beam="1">  1        1 0.23833823E+00 0.30000000E+03</pdfrwt>
<pdfrwt beam="2">0</pdfrwt>
<totfact> 0.67641165E+00</totfact>
</mgrwt>
</event>
<event>
 6    1  0.1875959E-004  0.3000000E+03  0.7818608E-02  0.1093470E+00
          3   -1    0    0  502    0  0.00000000000E+00  0.00000000000E+00  0.37114864144E+02  0.37114864144E+02  0.00000000000E+00 0.  1.
         13   -1    0    0    0    0 -0.00000000000E+00 -0.00000000000E+00 -0.10000000000E+04  0.10000000000E+04  0.00000000000E+00 0.  1.
    9000005    2    1    2  501    0 -0.17191353969E+02 -0.74106271318E+01 -0.96755577326E+03  0.10178204375E+04  0.31534712393E+03 0.  0.
         13    1    3    3    0    0  0.62679080657E+02 -0.23698740491E+02 -0.92201581902E+03  0.92444765561E+03  0.00000000000E+00 0.  1.
          3    1    3    3  501    0 -0.79870434626E+02  0.16288113359E+02 -0.45539954245E+02  0.93372781884E+02  0.00000000000E+00 0.  1.
         21    1    1    2  502  501  0.17191353969E+02  0.74106271318E+01  0.46706374067E+01  0.19294426645E+02  0.00000000000E+00 0.  1.
<mgrwt>
<rscale>  1 0.30000000E+03</rscale>
<asrwt>0</asrwt>
<pdfrwt beam="1">  1        3 0.13496343E+00 0.30000000E+03</pdfrwt>
<pdfrwt beam="2">0</pdfrwt>
<totfact> 0.15449904E+00</totfact>
</mgrwt>
</event>
<event>
 6    1  0.1875959E-004  0.3000000E+03  0.7818608E-02  0.1093470E+00
          1   -1    0    0  502    0  0.00000000000E+00  0.00000000000E+00  0.40498091108E+02  0.40498091108E+02  0.00000000000E+00 0.  1.
         13   -1    0    0    0    0 -0.00000000000E+00 -0.00000000000E+00 -0.10000000000E+04  0.10000000000E+04  0.00000000000E+00 0.  1.
    9000005    2    1    2  501    0  0.50013025387E+02  0.47568063591E+00 -0.92034597935E+03  0.97697867834E+03  0.32395846530E+03 0.  0.
         13    1    3    3    0    0 -0.73352055960E+02 -0.11258297038E+03 -0.60759167337E+03  0.62227252139E+03  0.00000000000E+00 0.  1.
          1    1    3    3  501    0  0.12336508135E+03  0.11305865102E+03 -0.31275430598E+03  0.35470615695E+03  0.00000000000E+00 0.  1.
         21    1    1    2  502  501 -0.50013025387E+02 -0.47568063591E+00 -0.39155929541E+02  0.63519412770E+02  0.00000000000E+00 0. -1.
<mgrwt>
<rscale>  1 0.30000000E+03</rscale>
<asrwt>0</asrwt>
<pdfrwt beam="1">  1        1 0.14726610E+00 0.30000000E+03</pdfrwt>
<pdfrwt beam="2">0</pdfrwt>
<totfact> 0.18551630E+01</totfact>
</mgrwt>
</event>
<event>
 6    1  0.1875959E-004  0.3000000E+03  0.7818608E-02  0.1093470E+00
          1   -1    0    0  502    0  0.00000000000E+00  0.00000000000E+00  0.55903880315E+02  0.55903880315E+02  0.00000000000E+00 0.  1.
         13   -1    0    0    0    0 -0.00000000000E+00 -0.00000000000E+00 -0.10000000000E+04  0.10000000000E+04  0.00000000000E+00 0.  1.
    9000005    2    1    2  501    0 -0.11143050440E+03  0.26854736919E+02 -0.78616052179E+03  0.86075883864E+03  0.33123930636E+03 0.  0.
         13    1    3    3    0    0  0.11343890061E+03  0.23728987640E+02 -0.17855211545E+03  0.21286687614E+03  0.00000000000E+00 0.  1.
          3    1    3    3  501    0 -0.22486940501E+03  0.31257492788E+01 -0.60760840634E+03  0.64789196250E+03  0.00000000000E+00 0.  1.
         21    1    1    2  502  501  0.11143050440E+03 -0.26854736919E+02 -0.15793559790E+03  0.19514504167E+03  0.00000000000E+00 0.  1.
<mgrwt>
<rscale>  1 0.30000000E+03</rscale>
<asrwt>0</asrwt>
<pdfrwt beam="1">  1        1 0.20328727E+00 0.30000000E+03</pdfrwt>
<pdfrwt beam="2">0</pdfrwt>
<totfact> 0.98817641E+00</totfact>
</mgrwt>
</event>
<event>
 6    1  0.1875959E-004  0.3000000E+03  0.7818608E-02  0.1093470E+00
          1   -1    0    0  502    0  0.00000000000E+00  0.00000000000E+00  0.50946942503E+02  0.50946942503E+02  0.00000000000E+00 0.  1.
         13   -1    0    0    0    0 -0.00000000000E+00 -0.00000000000E+00 -0.10000000000E+04  0.10000000000E+04  0.00000000000E+00 0.  1.
    9000005    2    1    2  501    0 -0.31197823568E+02 -0.12594996554E+02 -0.96222378542E+03  0.10148165369E+04  0.32069619931E+03 0.  0.
         13    1    3    3    0    0 -0.15077632238E+03  0.67732348250E+02 -0.36860282413E+03  0.40396684560E+03  0.00000000000E+00 0.  1.
          1    1    3    3  501    0  0.11957849881E+03 -0.80327344804E+02 -0.59362096129E+03  0.61084969132E+03  0.00000000000E+00 0.  1.
         21    1    1    2  502  501  0.31197823568E+02  0.12594996554E+02  0.13170727921E+02  0.36130405583E+02  0.00000000000E+00 0.  1.
<mgrwt>
<rscale>  1 0.30000000E+03</rscale>
<asrwt>0</asrwt>
<pdfrwt beam="1">  1        1 0.18526200E+00 0.30000000E+03</pdfrwt>
<pdfrwt beam="2">0</pdfrwt>
<totfact> 0.12049367E+01</totfact>
</mgrwt>
</event>
<event>
 6    1  0.1875959E-004  0.3000000E+03  0.7818608E-02  0.1093470E+00
          1   -1    0    0  502    0  0.00000000000E+00  0.00000000000E+00  0.39539653007E+02  0.39539653007E+02  0.00000000000E+00 0.  1.
         13   -1    0    0    0    0 -0.00000000000E+00 -0.00000000000E+00 -0.10000000000E+04  0.10000000000E+04  0.00000000000E+00 0.  1.
    9000005    2    1    2  501    0 -0.35096191782E+02 -0.23264299951E+02 -0.90953032546E+03  0.97345760232E+03  0.34438542398E+03 0.  0.
         13    1    3    3    0    0  0.69307512683E+02  0.13318990810E+03 -0.51403783048E+03  0.53551654885E+03  0.00000000000E+00 0.  1.
          3    1    3    3  501    0 -0.10440370446E+03 -0.15645420805E+03 -0.39549249499E+03  0.43794105347E+03  0.00000000000E+00 0.  1.
         21    1    1    2  502  501  0.35096191782E+02  0.23264299951E+02 -0.50930021529E+02  0.66082050685E+02  0.00000000000E+00 0.  1.
<mgrwt>
<rscale>  1 0.30000000E+03</rscale>
<asrwt>0</asrwt>
<pdfrwt beam="1">  1        1 0.14378086E+00 0.30000000E+03</pdfrwt>
<pdfrwt beam="2">0</pdfrwt>
<totfact> 0.19334794E+01</totfact>
</mgrwt>
</event>
<event>
 6    1  0.1875959E-004  0.3000000E+03  0.7818608E-02  0.1093470E+00
          1   -1    0    0  502    0  0.00000000000E+00  0.00000000000E+00  0.34788203426E+02  0.34788203426E+02  0.00000000000E+00 0.  1.
         13   -1    0    0    0    0 -0.00000000000E+00 -0.00000000000E+00 -0.10000000000E+04  0.10000000000E+04  0.00000000000E+00 0.  1.
    9000005    2    1    2  501    0  0.27112963050E+02 -0.19072044255E+02 -0.93456824968E+03  0.98964529032E+03  0.32385356522E+03 0.  0.
         13    1    3    3    0    0 -0.92570550994E+02  0.10968776489E+03 -0.32604405834E+03  0.35623789896E+03  0.00000000000E+00 0.  1.
          1    1    3    3  501    0  0.11968351404E+03 -0.12875980914E+03 -0.60852419134E+03  0.63340739136E+03  0.00000000000E+00 0.  1.
         21    1    1    2  502  501 -0.27112963050E+02  0.19072044255E+02 -0.30643546893E+02  0.45142913105E+02  0.00000000000E+00 0. -1.
<mgrwt>
<rscale>  1 0.30000000E+03</rscale>
<asrwt>0</asrwt>
<pdfrwt beam="1">  1        1 0.12650282E+00 0.30000000E+03</pdfrwt>
<pdfrwt beam="2">0</pdfrwt>
<totfact> 0.23912036E+01</totfact>
</mgrwt>
</event>
<event>
 6    1  0.1875959E-004  0.3000000E+03  0.7818608E-02  0.1093470E+00
          1   -1    0    0  502    0  0.00000000000E+00  0.00000000000E+00  0.92789466894E+02  0.92789466894E+02  0.00000000000E+00 0.  1.
         13   -1    0    0    0    0 -0.00000000000E+00 -0.00000000000E+00 -0.10000000000E+04  0.10000000000E+04  0.00000000000E+00 0.  1.
    9000005    2    1    2  501    0 -0.58677779337E+02 -0.21145405797E+03 -0.54819524013E+03  0.67201888688E+03  0.32083556941E+03 0.  0.
         13    1    3    3    0    0 -0.16037584959E+03 -0.11654742544E+03 -0.47526433154E+03  0.51495621207E+03  0.00000000000E+00 0.  1.
          3    1    3    3  501    0  0.10169807025E+03 -0.94906632528E+02 -0.72930908587E+02  0.15706267481E+03  0.00000000000E+00 0.  1.
         21    1    1    2  502  501  0.58677779337E+02  0.21145405797E+03 -0.35901529298E+03  0.42077058002E+03  0.00000000000E+00 0.  1.
<mgrwt>
<rscale>  1 0.30000000E+03</rscale>
<asrwt>0</asrwt>
<pdfrwt beam="1">  1        1 0.33741695E+00 0.30000000E+03</pdfrwt>
<pdfrwt beam="2">0</pdfrwt>
<totfact> 0.22820310E+00</totfact>
</mgrwt>
</event>
<event>
 6    1  0.1875959E-004  0.3000000E+03  0.7818608E-02  0.1093470E+00
          1   -1    0    0  502    0  0.00000000000E+00  0.00000000000E+00  0.28863769310E+02  0.28863769310E+02  0.00000000000E+00 0.  1.
         13   -1    0    0    0    0 -0.00000000000E+00 -0.00000000000E+00 -0.10000000000E+04  0.10000000000E+04  0.00000000000E+00 0.  1.
    9000005    2    1    2  501    0  0.10005459890E+02  0.77126527624E+00 -0.95210246001E+03  0.10073466017E+04  0.32885768567E+03 0.  0.
         13    1    3    3    0    0  0.44116184542E+01  0.13696852213E+03 -0.75723336134E+03  0.76953375622E+03  0.00000000000E+00 0.  1.
          3    1    3    3  501    0  0.55938414363E+01 -0.13619725685E+03 -0.19486909867E+03  0.23781284544E+03  0.00000000000E+00 0.  1.
         21    1    1    2  502  501 -0.10005459890E+02 -0.77126527624E+00 -0.19033770676E+02  0.21517167655E+02  0.00000000000E+00 0.  1.
<mgrwt>
<rscale>  1 0.30000000E+03</rscale>
<asrwt>0</asrwt>
<pdfrwt beam="1">  1        1 0.10495938E+00 0.30000000E+03</pdfrwt>
<pdfrwt beam="2">0</pdfrwt>
<totfact> 0.31871035E+01</totfact>
</mgrwt>
</event>
<event>
 6    1  0.1875959E-004  0.3000000E+03  0.7818608E-02  0.1093470E+00
          1   -1    0    0  502    0  0.00000000000E+00  0.00000000000E+00  0.35840569257E+02  0.35840569257E+02  0.00000000000E+00 0.  1.
         13   -1    0    0    0    0 -0.00000000000E+00 -0.00000000000E+00 -0.10000000000E+04  0.10000000000E+04  0.00000000000E+00 0.  1.
    9000005    2    1    2  501    0 -0.85707839043E+01  0.77038923660E+01 -0.96971870417E+03  0.10230454993E+04  0.32578354795E+03 0.  0.
         13    1    3    3    0    0 -0.16340095757E+02 -0.68608247869E+02 -0.93700302177E+03  0.93965352829E+03  0.00000000000E+00 0.  1.
          3    1    3    3  501    0  0.77693118523E+01  0.76312140235E+02 -0.32715682396E+02  0.83391971008E+02  0.00000000000E+00 0.  1.
         21    1    1    2  502  501  0.85707839043E+01 -0.77038923660E+01  0.55592734271E+01  0.12795069963E+02  0.00000000000E+00 0.  1.
<mgrwt>
<rscale>  1 0.30000000E+03</rscale>
<asrwt>0</asrwt>
<pdfrwt beam="1">  1        1 0.13032962E+00 0.30000000E+03</pdfrwt>
<pdfrwt beam="2">0</pdfrwt>
<totfact> 0.22785482E+01</totfact>
</mgrwt>
</event>
<event>
 6    1  0.1875959E-004  0.3000000E+03  0.7818608E-02  0.1093470E+00
          3   -1    0    0  502    0  0.00000000000E+00  0.00000000000E+00  0.13310529572E+02  0.13310529572E+02  0.00000000000E+00 0.  1.
         13   -1    0    0    0    0 -0.00000000000E+00 -0.00000000000E+00 -0.10000000000E+04  0.10000000000E+04  0.00000000000E+00 0.  1.
    9000005    2    1    2  501    0  0.27070049310E+01 -0.10718079619E+02 -0.98794791852E+03  0.10021844881E+04  0.16795967804E+03 0.  0.
         13    1    3    3    0    0 -0.16444514814E+02  0.74446310448E+02 -0.58091443293E+03  0.58589611161E+03  0.00000000000E+00 0.  1.
          3    1    3    3  501    0  0.19151519745E+02 -0.85164390067E+02 -0.40703348559E+03  0.41628837653E+03  0.00000000000E+00 0.  1.
         21    1    1    2  502  501 -0.27070049310E+01  0.10718079619E+02  0.12584480930E+01  0.11126041435E+02  0.00000000000E+00 0.  1.
<mgrwt>
<rscale>  1 0.30000000E+03</rscale>
<asrwt>0</asrwt>
<pdfrwt beam="1">  1        3 0.48402028E-01 0.30000000E+03</pdfrwt>
<pdfrwt beam="2">0</pdfrwt>
<totfact> 0.18600225E+01</totfact>
</mgrwt>
</event>
<event>
 6    1  0.1875959E-004  0.3000000E+03  0.7818608E-02  0.1093470E+00
          1   -1    0    0  502    0  0.00000000000E+00  0.00000000000E+00  0.34805853612E+02  0.34805853612E+02  0.00000000000E+00 0.  1.
         13   -1    0    0    0    0 -0.00000000000E+00 -0.00000000000E+00 -0.10000000000E+04  0.10000000000E+04  0.00000000000E+00 0.  1.
    9000005    2    1    2  501    0 -0.41752547935E+02 -0.18382067517E+02 -0.88720924350E+03  0.94445752355E+03  0.32059101108E+03 0.  0.
         13    1    3    3    0    0  0.10105065172E+03 -0.10753029951E+03 -0.31227062886E+03  0.34537942205E+03  0.00000000000E+00 0.  1.
          1    1    3    3  501    0 -0.14280319966E+03  0.89148231995E+02 -0.57493861463E+03  0.59907810150E+03  0.00000000000E+00 0.  1.
         21    1    1    2  502  501  0.41752547935E+02  0.18382067517E+02 -0.77984902892E+02  0.90348330058E+02  0.00000000000E+00 0.  1.
<mgrwt>
<rscale>  1 0.30000000E+03</rscale>
<asrwt>0</asrwt>
<pdfrwt beam="1">  1        1 0.12656701E+00 0.30000000E+03</pdfrwt>
<pdfrwt beam="2">0</pdfrwt>
<totfact> 0.23892558E+01</totfact>
</mgrwt>
</event>
<event>
 6    1  0.1875959E-004  0.3000000E+03  0.7818608E-02  0.1093470E+00
          1   -1    0    0  502    0  0.00000000000E+00  0.00000000000E+00  0.95212304172E+02  0.95212304172E+02  0.00000000000E+00 0.  1.
         13   -1    0    0    0    0 -0.00000000000E+00 -0.00000000000E+00 -0.10000000000E+04  0.10000000000E+04  0.00000000000E+00 0.  1.
    9000005    2    1    2  501    0 -0.41231861679E+02 -0.16080769360E+03 -0.83825240654E+03  0.91636565070E+03  0.33090743113E+03 0.  0.
         13    1    3    3    0    0 -0.10393656900E+03 -0.24225191369E+03 -0.65845525318E+03  0.70926167280E+03  0.00000000000E+00 0.  1.
          3    1    3    3  501    0  0.62704707321E+02  0.81444220093E+02 -0.17979715335E+03  0.20710397790E+03  0.00000000000E+00 0.  1.
         21    1    1    2  502  501  0.41231861679E+02  0.16080769360E+03 -0.66535289292E+02  0.17884665347E+03  0.00000000000E+00 0.  1.
<mgrwt>
<rscale>  1 0.30000000E+03</rscale>
<asrwt>0</asrwt>
<pdfrwt beam="1">  1        1 0.34622729E+00 0.30000000E+03</pdfrwt>
<pdfrwt beam="2">0</pdfrwt>
<totfact> 0.20583910E+00</totfact>
</mgrwt>
</event>
<event>
 6    1  0.1875959E-004  0.3000000E+03  0.7818608E-02  0.1093470E+00
          1   -1    0    0  502    0  0.00000000000E+00  0.00000000000E+00  0.41546120504E+02  0.41546120504E+02  0.00000000000E+00 0.  1.
         13   -1    0    0    0    0 -0.00000000000E+00 -0.00000000000E+00 -0.10000000000E+04  0.10000000000E+04  0.00000000000E+00 0.  1.
    9000005    2    1    2  501    0  0.17538824540E+02 -0.30738562994E+02 -0.95331434624E+03  0.10057846269E+04  0.31865656024E+03 0.  0.
         13    1    3    3    0    0  0.25886419421E+02 -0.14127122057E+03 -0.81964751833E+03  0.83213563725E+03  0.00000000000E+00 0.  1.
          3    1    3    3  501    0 -0.83475948811E+01  0.11053265758E+03 -0.13366682791E+03  0.17364898967E+03  0.00000000000E+00 0.  1.
         21    1    1    2  502  501 -0.17538824540E+02  0.30738562994E+02 -0.51395332559E+01  0.35761493583E+02  0.00000000000E+00 0. -1.
<mgrwt>
<rscale>  1 0.30000000E+03</rscale>
<asrwt>0</asrwt>
<pdfrwt beam="1">  1        1 0.15107712E+00 0.30000000E+03</pdfrwt>
<pdfrwt beam="2">0</pdfrwt>
<totfact> 0.17740149E+01</totfact>
</mgrwt>
</event>
<event>
 6    1  0.1875959E-004  0.3000000E+03  0.7818608E-02  0.1093470E+00
          1   -1    0    0  502    0  0.00000000000E+00  0.00000000000E+00  0.35878626965E+02  0.35878626965E+02  0.00000000000E+00 0.  1.
         13   -1    0    0    0    0 -0.00000000000E+00 -0.00000000000E+00 -0.10000000000E+04  0.10000000000E+04  0.00000000000E+00 0.  1.
    9000005    2    1    2  501    0 -0.13914154615E+02  0.46307995845E+01 -0.96777484822E+03  0.10207658547E+04  0.32428340283E+03 0.  0.
         13    1    3    3    0    0 -0.12198642494E+03  0.95442889089E+02 -0.29337920030E+03  0.33175501219E+03  0.00000000000E+00 0.  1.
          3    1    3    3  501    0  0.10807227032E+03 -0.90812089504E+02 -0.67439564792E+03  0.68901084254E+03  0.00000000000E+00 0.  1.
         21    1    1    2  502  501  0.13914154615E+02 -0.46307995845E+01  0.36534751844E+01  0.15112772226E+02  0.00000000000E+00 0.  1.
<mgrwt>
<rscale>  1 0.30000000E+03</rscale>
<asrwt>0</asrwt>
<pdfrwt beam="1">  1        1 0.13046801E+00 0.30000000E+03</pdfrwt>
<pdfrwt beam="2">0</pdfrwt>
<totfact> 0.22746042E+01</totfact>
</mgrwt>
</event>
<event>
 6    1  0.1875959E-004  0.3000000E+03  0.7818608E-02  0.1093470E+00
          1   -1    0    0  502    0  0.00000000000E+00  0.00000000000E+00  0.30415431240E+02  0.30415431240E+02  0.00000000000E+00 0.  1.
         13   -1    0    0    0    0 -0.00000000000E+00 -0.00000000000E+00 -0.10000000000E+04  0.10000000000E+04  0.00000000000E+00 0.  1.
    9000005    2    1    2  501    0  0.75558567512E+01  0.18906652627E+02 -0.95534090038E+03  0.10055672004E+04  0.31316865454E+03 0.  0.
         13    1    3    3    0    0 -0.14367895253E+02 -0.14379841313E+03 -0.53868068458E+03  0.55772869747E+03  0.00000000000E+00 0.  1.
          3    1    3    3  501    0  0.21923752005E+02  0.16270506575E+03 -0.41666021579E+03  0.44783850298E+03  0.00000000000E+00 0.  1.
         21    1    1    2  502  501 -0.75558567512E+01 -0.18906652627E+02 -0.14243668382E+02  0.24848230798E+02  0.00000000000E+00 0.  1.
<mgrwt>
<rscale>  1 0.30000000E+03</rscale>
<asrwt>0</asrwt>
<pdfrwt beam="1">  1        1 0.11060180E+00 0.30000000E+03</pdfrwt>
<pdfrwt beam="2">0</pdfrwt>
<totfact> 0.29465692E+01</totfact>
</mgrwt>
</event>
<event>
 6    1  0.1875959E-004  0.3000000E+03  0.7818608E-02  0.1093470E+00
          3   -1    0    0  502    0  0.00000000000E+00  0.00000000000E+00  0.30396924800E+02  0.30396924800E+02  0.00000000000E+00 0.  1.
         13   -1    0    0    0    0 -0.00000000000E+00 -0.00000000000E+00 -0.10000000000E+04  0.10000000000E+04  0.00000000000E+00 0.  1.
    9000005    2    1    2  501    0  0.17216223056E+02  0.74469594580E+01 -0.95651287723E+03  0.10075231664E+04  0.31596549011E+03 0.  0.
         13    1    3    3    0    0 -0.67710009007E+02 -0.34980661948E+02 -0.88598686629E+03  0.88925869086E+03  0.00000000000E+00 0.  1.
          3    1    3    3  501    0  0.84926232063E+02  0.42427621406E+02 -0.70526010943E+02  0.11826447552E+03  0.00000000000E+00 0.  1.
         21    1    1    2  502  501 -0.17216223056E+02 -0.74469594580E+01 -0.13090197968E+02  0.22873758422E+02  0.00000000000E+00 0.  1.
<mgrwt>
<rscale>  1 0.30000000E+03</rscale>
<asrwt>0</asrwt>
<pdfrwt beam="1">  1        3 0.11053451E+00 0.30000000E+03</pdfrwt>
<pdfrwt beam="2">0</pdfrwt>
<totfact> 0.29716322E+00</totfact>
</mgrwt>
</event>
<event>
 6    1  0.1875959E-004  0.3000000E+03  0.7818608E-02  0.1093470E+00
          1   -1    0    0  502    0  0.00000000000E+00  0.00000000000E+00  0.33920408825E+02  0.33920408825E+02  0.00000000000E+00 0.  1.
         13   -1    0    0    0    0 -0.00000000000E+00 -0.00000000000E+00 -0.10000000000E+04  0.10000000000E+04  0.00000000000E+00 0.  1.
    9000005    2    1    2  501    0 -0.10234881024E+02 -0.21055109335E+01 -0.96893579247E+03  0.10230878721E+04  0.32827281058E+03 0.  0.
         13    1    3    3    0    0 -0.12205702472E+03  0.36733405746E+02 -0.83359091207E+03  0.84327994703E+03  0.00000000000E+00 0.  1.
          3    1    3    3  501    0  0.11182214370E+03 -0.38838916680E+02 -0.13534488040E+03  0.17980792508E+03  0.00000000000E+00 0.  1.
         21    1    1    2  502  501  0.10234881024E+02  0.21055109335E+01  0.28562012938E+01  0.10832536715E+02  0.00000000000E+00 0.  1.
<mgrwt>
<rscale>  1 0.30000000E+03</rscale>
<asrwt>0</asrwt>
<pdfrwt beam="1">  1        1 0.12334720E+00 0.30000000E+03</pdfrwt>
<pdfrwt beam="2">0</pdfrwt>
<totfact> 0.24895139E+01</totfact>
</mgrwt>
</event>
<event>
 6    1  0.1875959E-004  0.3000000E+03  0.7818608E-02  0.1093470E+00
          1   -1    0    0  502    0  0.00000000000E+00  0.00000000000E+00  0.35632013384E+02  0.35632013384E+02  0.00000000000E+00 0.  1.
         13   -1    0    0    0    0 -0.00000000000E+00 -0.00000000000E+00 -0.10000000000E+04  0.10000000000E+04  0.00000000000E+00 0.  1.
    9000005    2    1    2  501    0 -0.28803357726E+02  0.19723281424E+02 -0.90844729965E+03  0.96970960083E+03  0.33740416780E+03 0.  0.
         13    1    3    3    0    0  0.85964472633E+02 -0.26607264524E+02 -0.51119422996E+02  0.10349411813E+03  0.00000000000E+00 0.  1.
          1    1    3    3  501    0 -0.11476783036E+03  0.46330545948E+02 -0.85732787666E+03  0.86621548270E+03  0.00000000000E+00 0.  1.
         21    1    1    2  502  501  0.28803357726E+02 -0.19723281424E+02 -0.55920686963E+02  0.65922412553E+02  0.00000000000E+00 0. -1.
<mgrwt>
<rscale>  1 0.30000000E+03</rscale>
<asrwt>0</asrwt>
<pdfrwt beam="1">  1        1 0.12957123E+00 0.30000000E+03</pdfrwt>
<pdfrwt beam="2">0</pdfrwt>
<totfact> 0.23003202E+01</totfact>
</mgrwt>
</event>
<event>
 6    1  0.1875959E-004  0.3000000E+03  0.7818608E-02  0.1093470E+00
          1   -1    0    0  502    0  0.00000000000E+00  0.00000000000E+00  0.33794633030E+02  0.33794633030E+02  0.00000000000E+00 0.  1.
         13   -1    0    0    0    0 -0.00000000000E+00 -0.00000000000E+00 -0.10000000000E+04  0.10000000000E+04  0.00000000000E+00 0.  1.
    9000005    2    1    2  501    0 -0.35945848905E+02  0.83264804668E+01 -0.90794494626E+03  0.96483297012E+03  0.32431034589E+03 0.  0.
         13    1    3    3    0    0  0.60919577378E+02 -0.51925212730E+02 -0.40111453447E+02  0.89534079113E+02  0.00000000000E+00 0.  1.
          3    1    3    3  501    0 -0.96865426283E+02  0.60251693197E+02 -0.86783349282E+03  0.87529889101E+03  0.00000000000E+00 0.  1.
         21    1    1    2  502  501  0.35945848905E+02 -0.83264804668E+01 -0.58260420706E+02  0.68961662910E+02  0.00000000000E+00 0.  1.
<mgrwt>
<rscale>  1 0.30000000E+03</rscale>
<asrwt>0</asrwt>
<pdfrwt beam="1">  1        1 0.12288983E+00 0.30000000E+03</pdfrwt>
<pdfrwt beam="2">0</pdfrwt>
<totfact> 0.25041903E+01</totfact>
</mgrwt>
</event>
<event>
 6    1  0.1875959E-004  0.3000000E+03  0.7818608E-02  0.1093470E+00
          1   -1    0    0  502    0  0.00000000000E+00  0.00000000000E+00  0.52604900706E+02  0.52604900706E+02  0.00000000000E+00 0.  1.
         13   -1    0    0    0    0 -0.00000000000E+00 -0.00000000000E+00 -0.10000000000E+04  0.10000000000E+04  0.00000000000E+00 0.  1.
    9000005    2    1    2  501    0  0.45063757186E+02  0.63285700379E+02 -0.88795484479E+03  0.95478380922E+03  0.34221702745E+03 0.  0.
         13    1    3    3    0    0 -0.12743444068E+03 -0.27633752792E+02 -0.19247607024E+03  0.23248698583E+03  0.00000000000E+00 0.  1.
          3    1    3    3  501    0  0.17249819786E+03  0.90919453171E+02 -0.69547877455E+03  0.72229682339E+03  0.00000000000E+00 0.  1.
         21    1    1    2  502  501 -0.45063757186E+02 -0.63285700379E+02 -0.59440254501E+02  0.97821091485E+02  0.00000000000E+00 0.  1.
<mgrwt>
<rscale>  1 0.30000000E+03</rscale>
<asrwt>0</asrwt>
<pdfrwt beam="1">  1        1 0.19129095E+00 0.30000000E+03</pdfrwt>
<pdfrwt beam="2">0</pdfrwt>
<totfact> 0.11272113E+01</totfact>
</mgrwt>
</event>
<event>
 6    1  0.1875959E-004  0.3000000E+03  0.7818608E-02  0.1093470E+00
          1   -1    0    0  502    0  0.00000000000E+00  0.00000000000E+00  0.44258404679E+02  0.44258404679E+02  0.00000000000E+00 0.  1.
         13   -1    0    0    0    0 -0.00000000000E+00 -0.00000000000E+00 -0.10000000000E+04  0.10000000000E+04  0.00000000000E+00 0.  1.
    9000005    2    1    2  501    0 -0.33813274701E+02  0.62831200280E+02 -0.88685862182E+03  0.94508198957E+03  0.31870151341E+03 0.  0.
         13    1    3    3    0    0  0.84234542203E+02 -0.56973950345E+02 -0.62934338857E+03  0.63750654103E+03  0.00000000000E+00 0.  1.
          3    1    3    3  501    0 -0.11804781690E+03  0.11980515062E+03 -0.25751523325E+03  0.30757544854E+03  0.00000000000E+00 0.  1.
         21    1    1    2  502  501  0.33813274701E+02 -0.62831200280E+02 -0.68882973504E+02  0.99176415106E+02  0.00000000000E+00 0. -1.
<mgrwt>
<rscale>  1 0.30000000E+03</rscale>
<asrwt>0</asrwt>
<pdfrwt beam="1">  1        1 0.16093999E+00 0.30000000E+03</pdfrwt>
<pdfrwt beam="2">0</pdfrwt>
<totfact> 0.15832047E+01</totfact>
</mgrwt>
</event>
<event>
 6    1  0.1875959E-004  0.3000000E+03  0.7818608E-02  0.1093470E+00
          1   -1    0    0  502    0  0.00000000000E+00  0.00000000000E+00  0.31182109876E+02  0.31182109876E+02  0.00000000000E+00 0.  1.
         13   -1    0    0    0    0 -0.00000000000E+00 -0.00000000000E+00 -0.10000000000E+04  0.10000000000E+04  0.00000000000E+00 0.  1.
    9000005    2    1    2  501    0 -0.22085740696E+01 -0.19605683257E+02 -0.95174519260E+03  0.10050911609E+04  0.32249041778E+03 0.  0.
         13    1    3    3    0    0  0.11692128996E+03  0.88045957172E+02 -0.61282013681E+03  0.63005650437E+03  0.00000000000E+00 0.  1.
          1    1    3    3  501    0 -0.11912986403E+03 -0.10765164043E+03 -0.33892505579E+03  0.37503465658E+03  0.00000000000E+00 0.  1.
         21    1    1    2  502  501  0.22085740696E+01  0.19605683257E+02 -0.17072697528E+02  0.26090948934E+02  0.00000000000E+00 0.  1.
<mgrwt>
<rscale>  1 0.30000000E+03</rscale>
<asrwt>0</asrwt>
<pdfrwt beam="1">  1        1 0.11338973E+00 0.30000000E+03</pdfrwt>
<pdfrwt beam="2">0</pdfrwt>
<totfact> 0.28371806E+01</totfact>
</mgrwt>
</event>
<event>
 6    1  0.1875959E-004  0.3000000E+03  0.7818608E-02  0.1093470E+00
          1   -1    0    0  502    0  0.00000000000E+00  0.00000000000E+00  0.42620445254E+02  0.42620445254E+02  0.00000000000E+00 0.  1.
         13   -1    0    0    0    0 -0.00000000000E+00 -0.00000000000E+00 -0.10000000000E+04  0.10000000000E+04  0.00000000000E+00 0.  1.
    9000005    2    1    2  501    0 -0.22670878949E+00  0.37060148799E+02 -0.93693034352E+03  0.10002922482E+04  0.34838571609E+03 0.  0.
         13    1    3    3    0    0  0.15420259873E+03 -0.25693491187E+02 -0.26211145237E+03  0.30519012174E+03  0.00000000000E+00 0.  1.
          1    1    3    3  501    0 -0.15442930752E+03  0.62753639987E+02 -0.67481889115E+03  0.69510212646E+03  0.00000000000E+00 0.  1.
         21    1    1    2  502  501  0.22670878949E+00 -0.37060148799E+02 -0.20449211222E+02  0.42328197050E+02  0.00000000000E+00 0. -1.
<mgrwt>
<rscale>  1 0.30000000E+03</rscale>
<asrwt>0</asrwt>
<pdfrwt beam="1">  1        1 0.15498376E+00 0.30000000E+03</pdfrwt>
<pdfrwt beam="2">0</pdfrwt>
<totfact> 0.16953125E+01</totfact>
</mgrwt>
</event>
<event>
 6    1  0.1875959E-004  0.3000000E+03  0.7818608E-02  0.1093470E+00
          1   -1    0    0  502    0  0.00000000000E+00  0.00000000000E+00  0.27098575968E+02  0.27098575968E+02  0.00000000000E+00 0.  1.
         13   -1    0    0    0    0 -0.00000000000E+00 -0.00000000000E+00 -0.10000000000E+04  0.10000000000E+04  0.00000000000E+00 0.  1.
    9000005    2    1    2  501    0  0.82380310692E+01 -0.95991265654E+01 -0.95693375792E+03  0.10067276470E+04  0.31243932173E+03 0.  0.
         13    1    3    3    0    0  0.42628060575E+02  0.68919453612E+02 -0.48881629658E+02  0.94638556374E+02  0.00000000000E+00 0.  1.
          3    1    3    3  501    0 -0.34390029506E+02 -0.78518580178E+02 -0.90805212826E+03  0.91208909061E+03  0.00000000000E+00 0.  1.
         21    1    1    2  502  501 -0.82380310692E+01  0.95991265654E+01 -0.15967666112E+02  0.20370928987E+02  0.00000000000E+00 0. -1.
<mgrwt>
<rscale>  1 0.30000000E+03</rscale>
<asrwt>0</asrwt>
<pdfrwt beam="1">  1        1 0.98540484E-01 0.30000000E+03</pdfrwt>
<pdfrwt beam="2">0</pdfrwt>
<totfact> 0.34968993E+01</totfact>
</mgrwt>
</event>
<event>
 6    1  0.1875959E-004  0.3000000E+03  0.7818608E-02  0.1093470E+00
          1   -1    0    0  502    0  0.00000000000E+00  0.00000000000E+00  0.14528394189E+03  0.14528394189E+03  0.00000000000E+00 0.  1.
         13   -1    0    0    0    0 -0.00000000000E+00 -0.00000000000E+00 -0.10000000000E+04  0.10000000000E+04  0.00000000000E+00 0.  1.
    9000005    2    1    2  501    0 -0.58515491896E+02  0.25135300742E+02 -0.96144950355E+03  0.10209944632E+04  0.33762212591E+03 0.  0.
         13    1    3    3    0    0 -0.10482543443E+03 -0.13199728686E+03 -0.61643567016E+03  0.63906540423E+03  0.00000000000E+00 0.  1.
          3    1    3    3  501    0  0.46309942539E+02  0.15713258760E+03 -0.34501383339E+03  0.38192905898E+03  0.00000000000E+00 0.  1.
         21    1    1    2  502  501  0.58515491896E+02 -0.25135300742E+02  0.10673344543E+03  0.12428947867E+03  0.00000000000E+00 0.  1.
<mgrwt>
<rscale>  1 0.30000000E+03</rscale>
<asrwt>0</asrwt>
<pdfrwt beam="1">  1        1 0.52830636E+00 0.30000000E+03</pdfrwt>
<pdfrwt beam="2">0</pdfrwt>
<totfact> 0.14068663E-01</totfact>
</mgrwt>
</event>
<event>
 6    1  0.1875959E-004  0.3000000E+03  0.7818608E-02  0.1093470E+00
          1   -1    0    0  502    0  0.00000000000E+00  0.00000000000E+00  0.40128649357E+02  0.40128649357E+02  0.00000000000E+00 0.  1.
         13   -1    0    0    0    0 -0.00000000000E+00 -0.00000000000E+00 -0.10000000000E+04  0.10000000000E+04  0.00000000000E+00 0.  1.
    9000005    2    1    2  501    0  0.24759361483E+02 -0.37985979044E+01 -0.96328754639E+03  0.10148477134E+04  0.31837953629E+03 0.  0.
         13    1    3    3    0    0 -0.17014641864E+02 -0.15569249329E+03 -0.38900286962E+03  0.41934816451E+03  0.00000000000E+00 0.  1.
          1    1    3    3  501    0  0.41774003348E+02  0.15189389539E+03 -0.57428467677E+03  0.59549954893E+03  0.00000000000E+00 0.  1.
         21    1    1    2  502  501 -0.24759361483E+02  0.37985979044E+01  0.34161957475E+01  0.25280935910E+02  0.00000000000E+00 0. -1.
<mgrwt>
<rscale>  1 0.30000000E+03</rscale>
<asrwt>0</asrwt>
<pdfrwt beam="1">  1        1 0.14592267E+00 0.30000000E+03</pdfrwt>
<pdfrwt beam="2">0</pdfrwt>
<totfact> 0.18848699E+01</totfact>
</mgrwt>
</event>
<event>
 6    1  0.1875959E-004  0.3000000E+03  0.7818608E-02  0.1093470E+00
          1   -1    0    0  502    0  0.00000000000E+00  0.00000000000E+00  0.68485191353E+02  0.68485191353E+02  0.00000000000E+00 0.  1.
         13   -1    0    0    0    0 -0.00000000000E+00 -0.00000000000E+00 -0.10000000000E+04  0.10000000000E+04  0.00000000000E+00 0.  1.
    9000005    2    1    2  501    0  0.10238252525E+02  0.35730800825E+01 -0.96244694953E+03  0.10357073626E+04  0.38245002502E+03 0.  0.
         13    1    3    3    0    0  0.13748856233E+03 -0.65224969428E+02 -0.81523593731E+03  0.82931721006E+03  0.00000000000E+00 0.  1.
          3    1    3    3  501    0 -0.12725030981E+03  0.68798049510E+02 -0.14721101222E+03  0.20639015258E+03  0.00000000000E+00 0.  1.
         21    1    1    2  502  501 -0.10238252525E+02 -0.35730800825E+01  0.30932140882E+02  0.32777828719E+02  0.00000000000E+00 0.  1.
<mgrwt>
<rscale>  1 0.30000000E+03</rscale>
<asrwt>0</asrwt>
<pdfrwt beam="1">  1        1 0.24903758E+00 0.30000000E+03</pdfrwt>
<pdfrwt beam="2">0</pdfrwt>
<totfact> 0.60279642E+00</totfact>
</mgrwt>
</event>
<event>
 6    1  0.1875959E-004  0.3000000E+03  0.7818608E-02  0.1093470E+00
          1   -1    0    0  502    0  0.00000000000E+00  0.00000000000E+00  0.97979284051E+02  0.97979284051E+02  0.00000000000E+00 0.  1.
         13   -1    0    0    0    0 -0.00000000000E+00 -0.00000000000E+00 -0.10000000000E+04  0.10000000000E+04  0.00000000000E+00 0.  1.
    9000005    2    1    2  501    0 -0.17185112305E+02  0.38500256631E+02 -0.97070291592E+03  0.10173886988E+04  0.30172506615E+03 0.  0.
         13    1    3    3    0    0 -0.20636074827E+02 -0.11029002709E+03 -0.17496394175E+03  0.20785119334E+03  0.00000000000E+00 0.  1.
          3    1    3    3  501    0  0.34509625220E+01  0.14879028372E+03 -0.79573897417E+03  0.80953750542E+03  0.00000000000E+00 0.  1.
         21    1    1    2  502  501  0.17185112305E+02 -0.38500256631E+02  0.68682199967E+02  0.80590585293E+02  0.00000000000E+00 0.  1.
<mgrwt>
<rscale>  1 0.30000000E+03</rscale>
<asrwt>0</asrwt>
<pdfrwt beam="1">  1        1 0.35628906E+00 0.30000000E+03</pdfrwt>
<pdfrwt beam="2">0</pdfrwt>
<totfact> 0.18268441E+00</totfact>
</mgrwt>
</event>
<event>
 6    1  0.1875959E-004  0.3000000E+03  0.7818608E-02  0.1093470E+00
          1   -1    0    0  502    0  0.00000000000E+00  0.00000000000E+00  0.37308251021E+02  0.37308251021E+02  0.00000000000E+00 0.  1.
         13   -1    0    0    0    0 -0.00000000000E+00 -0.00000000000E+00 -0.10000000000E+04  0.10000000000E+04  0.00000000000E+00 0.  1.
    9000005    2    1    2  501    0 -0.52665040585E+01 -0.10069643507E+02 -0.96852709120E+03  0.10245338624E+04  0.33390983075E+03 0.  0.
         13    1    3    3    0    0  0.76889750083E+02  0.95554748909E+02 -0.14370724030E+03  0.18892991986E+03  0.00000000000E+00 0.  1.
          3    1    3    3  501    0 -0.82156254142E+02 -0.10562439242E+03 -0.82481985090E+03  0.83560394255E+03  0.00000000000E+00 0.  1.
         21    1    1    2  502  501  0.52665040585E+01  0.10069643507E+02  0.58353422189E+01  0.12774388603E+02  0.00000000000E+00 0.  1.
<mgrwt>
<rscale>  1 0.30000000E+03</rscale>
<asrwt>0</asrwt>
<pdfrwt beam="1">  1        1 0.13566665E+00 0.30000000E+03</pdfrwt>
<pdfrwt beam="2">0</pdfrwt>
<totfact> 0.21327240E+01</totfact>
</mgrwt>
</event>
<event>
 6    1  0.1875959E-004  0.3000000E+03  0.7818608E-02  0.1093470E+00
          1   -1    0    0  502    0  0.00000000000E+00  0.00000000000E+00  0.35238393427E+02  0.35238393427E+02  0.00000000000E+00 0.  1.
         13   -1    0    0    0    0 -0.00000000000E+00 -0.00000000000E+00 -0.10000000000E+04  0.10000000000E+04  0.00000000000E+00 0.  1.
    9000005    2    1    2  501    0 -0.46314228644E+02 -0.17877235857E+02 -0.87972080394E+03  0.93676737510E+03  0.31805631395E+03 0.  0.
         13    1    3    3    0    0 -0.93650506811E+02 -0.85454531982E+02 -0.83169175328E+03  0.84129903538E+03  0.00000000000E+00 0.  1.
          1    1    3    3  501    0  0.47336278167E+02  0.67577296125E+02 -0.48029050661E+02  0.95468339724E+02  0.00000000000E+00 0.  1.
         21    1    1    2  502  501  0.46314228644E+02  0.17877235857E+02 -0.85040802636E+02  0.98471018324E+02  0.00000000000E+00 0.  1.
<mgrwt>
<rscale>  1 0.30000000E+03</rscale>
<asrwt>0</asrwt>
<pdfrwt beam="1">  1        1 0.12813988E+00 0.30000000E+03</pdfrwt>
<pdfrwt beam="2">0</pdfrwt>
<totfact> 0.23421516E+01</totfact>
</mgrwt>
</event>
<event>
 6    1  0.1875959E-004  0.3000000E+03  0.7818608E-02  0.1093470E+00
          1   -1    0    0  502    0  0.00000000000E+00  0.00000000000E+00  0.45998179751E+02  0.45998179751E+02  0.00000000000E+00 0.  1.
         13   -1    0    0    0    0 -0.00000000000E+00 -0.00000000000E+00 -0.10000000000E+04  0.10000000000E+04  0.00000000000E+00 0.  1.
    9000005    2    1    2  501    0 -0.10416168728E+02  0.23727749682E+01 -0.97019648487E+03  0.10265973088E+04  0.33542016714E+03 0.  0.
         13    1    3    3    0    0 -0.17269839770E+02 -0.30183734425E+02  0.17091977090E+02  0.38748430554E+02  0.00000000000E+00 0.  1.
          1    1    3    3  501    0  0.68536710420E+01  0.32556509394E+02 -0.98728846196E+03  0.98784887823E+03  0.00000000000E+00 0.  1.
         21    1    1    2  502  501  0.10416168728E+02 -0.23727749682E+01  0.16194664619E+02  0.19400870964E+02  0.00000000000E+00 0.  1.
<mgrwt>
<rscale>  1 0.30000000E+03</rscale>
<asrwt>0</asrwt>
<pdfrwt beam="1">  1        1 0.16726646E+00 0.30000000E+03</pdfrwt>
<pdfrwt beam="2">0</pdfrwt>
<totfact> 0.14734428E+01</totfact>
</mgrwt>
</event>
<event>
 6    1  0.1875959E-004  0.3000000E+03  0.7818608E-02  0.1093470E+00
          1   -1    0    0  502    0  0.00000000000E+00  0.00000000000E+00  0.37629590214E+02  0.37629590214E+02  0.00000000000E+00 0.  1.
         13   -1    0    0    0    0 -0.00000000000E+00 -0.00000000000E+00 -0.10000000000E+04  0.10000000000E+04  0.00000000000E+00 0.  1.
    9000005    2    1    2  501    0  0.30902885188E+02 -0.48764303249E+02 -0.79526305618E+03  0.86083079719E+03  0.32442778439E+03 0.  0.
         13    1    3    3    0    0  0.29605766306E+02 -0.11600443784E+03 -0.78345445284E+03  0.79254931119E+03  0.00000000000E+00 0.  1.
          1    1    3    3  501    0  0.12971188821E+01  0.67240134594E+02 -0.11808603340E+02  0.68281486001E+02  0.00000000000E+00 0.  1.
         21    1    1    2  502  501 -0.30902885188E+02  0.48764303249E+02 -0.16710735361E+03  0.17679879302E+03  0.00000000000E+00 0. -1.
<mgrwt>
<rscale>  1 0.30000000E+03</rscale>
<asrwt>0</asrwt>
<pdfrwt beam="1">  1        1 0.13683516E+00 0.30000000E+03</pdfrwt>
<pdfrwt beam="2">0</pdfrwt>
<totfact> 0.21024596E+01</totfact>
</mgrwt>
</event>
<event>
 6    1  0.1875959E-004  0.3000000E+03  0.7818608E-02  0.1093470E+00
          1   -1    0    0  502    0  0.00000000000E+00  0.00000000000E+00  0.26993863628E+02  0.26993863628E+02  0.00000000000E+00 0.  1.
         13   -1    0    0    0    0 -0.00000000000E+00 -0.00000000000E+00 -0.10000000000E+04  0.10000000000E+04  0.00000000000E+00 0.  1.
    9000005    2    1    2  501    0  0.57403186944E+01  0.57509105930E+01 -0.93935383583E+03  0.99237448231E+03  0.31993039870E+03 0.  0.
         13    1    3    3    0    0 -0.11007200310E+03  0.93135886042E+02 -0.68076134463E+03  0.69586359833E+03  0.00000000000E+00 0.  1.
          3    1    3    3  501    0  0.11581232179E+03 -0.87384975449E+02 -0.25859249121E+03  0.29651088398E+03  0.00000000000E+00 0.  1.
         21    1    1    2  502  501 -0.57403186944E+01 -0.57509105930E+01 -0.33652300538E+02  0.34619381318E+02  0.00000000000E+00 0. -1.
<mgrwt>
<rscale>  1 0.30000000E+03</rscale>
<asrwt>0</asrwt>
<pdfrwt beam="1">  1        1 0.98159711E-01 0.30000000E+03</pdfrwt>
<pdfrwt beam="2">0</pdfrwt>
<totfact> 0.35166489E+01</totfact>
</mgrwt>
</event>
<event>
 6    1  0.1875959E-004  0.3000000E+03  0.7818608E-02  0.1093470E+00
          1   -1    0    0  502    0  0.00000000000E+00  0.00000000000E+00  0.30975439229E+02  0.30975439229E+02  0.00000000000E+00 0.  1.
         13   -1    0    0    0    0 -0.00000000000E+00 -0.00000000000E+00 -0.10000000000E+04  0.10000000000E+04  0.00000000000E+00 0.  1.
    9000005    2    1    2  501    0  0.65684318636E+01 -0.74198867568E+01 -0.95976051891E+03  0.10174099872E+04  0.33746796798E+03 0.  0.
         13    1    3    3    0    0 -0.11387769803E+03 -0.12321679990E+03 -0.54567352044E+03  0.57088536572E+03  0.00000000000E+00 0.  1.
          3    1    3    3  501    0  0.12044612989E+03  0.11579691315E+03 -0.41408699848E+03  0.44652462150E+03  0.00000000000E+00 0.  1.
         21    1    1    2  502  501 -0.65684318636E+01  0.74198867568E+01 -0.92640418567E+01  0.13565452007E+02  0.00000000000E+00 0.  1.
<mgrwt>
<rscale>  1 0.30000000E+03</rscale>
<asrwt>0</asrwt>
<pdfrwt beam="1">  1        1 0.11263820E+00 0.30000000E+03</pdfrwt>
<pdfrwt beam="2">0</pdfrwt>
<totfact> 0.28660913E+01</totfact>
</mgrwt>
</event>
<event>
 6    1  0.1875959E-004  0.3000000E+03  0.7818608E-02  0.1093470E+00
          1   -1    0    0  502    0  0.00000000000E+00  0.00000000000E+00  0.97815968039E+02  0.97815968039E+02  0.00000000000E+00 0.  1.
         13   -1    0    0    0    0 -0.00000000000E+00 -0.00000000000E+00 -0.10000000000E+04  0.10000000000E+04  0.00000000000E+00 0.  1.
    9000005    2    1    2  501    0 -0.96103207292E+02  0.32803541112E+02 -0.93380675589E+03  0.99145857323E+03  0.31730607673E+03 0.  0.
         13    1    3    3    0    0  0.11794298459E+02  0.15994293724E+03 -0.55200173946E+03  0.57482759938E+03  0.00000000000E+00 0.  1.
          3    1    3    3  501    0 -0.10789750575E+03 -0.12713939613E+03 -0.38180501643E+03  0.41663097385E+03  0.00000000000E+00 0.  1.
         21    1    1    2  502  501  0.96103207292E+02 -0.32803541112E+02  0.31622723928E+02  0.10635739481E+03  0.00000000000E+00 0.  1.
<mgrwt>
<rscale>  1 0.30000000E+03</rscale>
<asrwt>0</asrwt>
<pdfrwt beam="1">  1        1 0.35569518E+00 0.30000000E+03</pdfrwt>
<pdfrwt beam="2">0</pdfrwt>
<totfact> 0.18399624E+00</totfact>
</mgrwt>
</event>
<event>
 6    1  0.1875959E-004  0.3000000E+03  0.7818608E-02  0.1093470E+00
          1   -1    0    0  502    0  0.00000000000E+00  0.00000000000E+00  0.24338502773E+02  0.24338502773E+02  0.00000000000E+00 0.  1.
         13   -1    0    0    0    0 -0.00000000000E+00 -0.00000000000E+00 -0.10000000000E+04  0.10000000000E+04  0.00000000000E+00 0.  1.
    9000005    2    1    2  501    0 -0.94986627798E+01  0.90211376615E+01 -0.95666808190E+03  0.10012656758E+04  0.29520760333E+03 0.  0.
         13    1    3    3    0    0 -0.92570855972E+02  0.10449981953E+03 -0.71460841370E+03  0.72811727118E+03  0.00000000000E+00 0.  1.
          1    1    3    3  501    0  0.83072193192E+02 -0.95478681863E+02 -0.24205966820E+03  0.27314840461E+03  0.00000000000E+00 0.  1.
         21    1    1    2  502  501  0.94986627798E+01 -0.90211376615E+01 -0.18993415326E+02  0.23072826984E+02  0.00000000000E+00 0.  1.
<mgrwt>
<rscale>  1 0.30000000E+03</rscale>
<asrwt>0</asrwt>
<pdfrwt beam="1">  1        1 0.88503833E-01 0.30000000E+03</pdfrwt>
<pdfrwt beam="2">0</pdfrwt>
<totfact> 0.40787662E+01</totfact>
</mgrwt>
</event>
<event>
 6    1  0.1875959E-004  0.3000000E+03  0.7818608E-02  0.1093470E+00
          1   -1    0    0  502    0  0.00000000000E+00  0.00000000000E+00  0.31675242101E+02  0.31675242101E+02  0.00000000000E+00 0.  1.
         13   -1    0    0    0    0 -0.00000000000E+00 -0.00000000000E+00 -0.10000000000E+04  0.10000000000E+04  0.00000000000E+00 0.  1.
    9000005    2    1    2  501    0  0.17915915809E+02 -0.68573369572E+01 -0.95101194196E+03  0.10058346402E+04  0.32697340354E+03 0.  0.
         13    1    3    3    0    0 -0.12421093731E+03  0.79621223382E+02 -0.30598819022E+03  0.33970085181E+03  0.00000000000E+00 0.  1.
          3    1    3    3  501    0  0.14212685312E+03 -0.86478560339E+02 -0.64502375174E+03  0.66613378842E+03  0.00000000000E+00 0.  1.
         21    1    1    2  502  501 -0.17915915809E+02  0.68573369572E+01 -0.17312815937E+02  0.25840601872E+02  0.00000000000E+00 0.  1.
<mgrwt>
<rscale>  1 0.30000000E+03</rscale>
<asrwt>0</asrwt>
<pdfrwt beam="1">  1        1 0.11518294E+00 0.30000000E+03</pdfrwt>
<pdfrwt beam="2">0</pdfrwt>
<totfact> 0.27698474E+01</totfact>
</mgrwt>
</event>
<event>
 6    1  0.1875959E-004  0.3000000E+03  0.7818608E-02  0.1093470E+00
          1   -1    0    0  502    0  0.00000000000E+00  0.00000000000E+00  0.50995902019E+02  0.50995902019E+02  0.00000000000E+00 0.  1.
         13   -1    0    0    0    0 -0.00000000000E+00 -0.00000000000E+00 -0.10000000000E+04  0.10000000000E+04  0.00000000000E+00 0.  1.
    9000005    2    1    2  501    0 -0.65543695043E+02  0.59535826047E+02 -0.84946145336E+03  0.91776967097E+03  0.33597011423E+03 0.  0.
         13    1    3    3    0    0 -0.27735992533E+02 -0.13802655537E+03 -0.43226987267E+03  0.45461836533E+03  0.00000000000E+00 0.  1.
          3    1    3    3  501    0 -0.37807702510E+02  0.19756238142E+03 -0.41719158069E+03  0.46315130564E+03  0.00000000000E+00 0.  1.
         21    1    1    2  502  501  0.65543695043E+02 -0.59535826047E+02 -0.99542644619E+02  0.13322623105E+03  0.00000000000E+00 0.  1.
<mgrwt>
<rscale>  1 0.30000000E+03</rscale>
<asrwt>0</asrwt>
<pdfrwt beam="1">  1        1 0.18544003E+00 0.30000000E+03</pdfrwt>
<pdfrwt beam="2">0</pdfrwt>
<totfact> 0.12025637E+01</totfact>
</mgrwt>
</event>
<event>
 6    1  0.1875959E-004  0.3000000E+03  0.7818608E-02  0.1093470E+00
          1   -1    0    0  502    0  0.00000000000E+00  0.00000000000E+00  0.30453637196E+02  0.30453637196E+02  0.00000000000E+00 0.  1.
         13   -1    0    0    0    0 -0.00000000000E+00 -0.00000000000E+00 -0.10000000000E+04  0.10000000000E+04  0.00000000000E+00 0.  1.
    9000005    2    1    2  501    0  0.22218424628E+01 -0.19614291621E+02 -0.95168211629E+03  0.10038305584E+04  0.31872759928E+03 0.  0.
         13    1    3    3    0    0  0.48908587273E+02  0.11033322634E+03 -0.16116340593E+03  0.20134327442E+03  0.00000000000E+00 0.  1.
          3    1    3    3  501    0 -0.46686744810E+02 -0.12994751796E+03 -0.79051871036E+03  0.80248728401E+03  0.00000000000E+00 0.  1.
         21    1    1    2  502  501 -0.22218424628E+01  0.19614291621E+02 -0.17864246515E+02  0.26623078771E+02  0.00000000000E+00 0.  1.
<mgrwt>
<rscale>  1 0.30000000E+03</rscale>
<asrwt>0</asrwt>
<pdfrwt beam="1">  1        1 0.11074073E+00 0.30000000E+03</pdfrwt>
<pdfrwt beam="2">0</pdfrwt>
<totfact> 0.29409777E+01</totfact>
</mgrwt>
</event>
<event>
 6    1  0.1875959E-004  0.3000000E+03  0.7818608E-02  0.1093470E+00
          1   -1    0    0  502    0  0.00000000000E+00  0.00000000000E+00  0.48851407906E+02  0.48851407906E+02  0.00000000000E+00 0.  1.
         13   -1    0    0    0    0 -0.00000000000E+00 -0.00000000000E+00 -0.10000000000E+04  0.10000000000E+04  0.00000000000E+00 0.  1.
    9000005    2    1    2  501    0 -0.29135915207E+01 -0.11605762101E+02 -0.95540405339E+03  0.10361513418E+04  0.40083602015E+03 0.  0.
         13    1    3    3    0    0  0.64673691697E+02 -0.16830717147E+03 -0.23719345650E+03  0.29794416620E+03  0.00000000000E+00 0.  1.
          1    1    3    3  501    0 -0.67587283217E+02  0.15670140937E+03 -0.71821059689E+03  0.73820717555E+03  0.00000000000E+00 0.  1.
         21    1    1    2  502  501  0.29135915207E+01  0.11605762101E+02  0.42554612956E+01  0.12700066155E+02  0.00000000000E+00 0.  1.
<mgrwt>
<rscale>  1 0.30000000E+03</rscale>
<asrwt>0</asrwt>
<pdfrwt beam="1">  1        1 0.17764186E+00 0.30000000E+03</pdfrwt>
<pdfrwt beam="2">0</pdfrwt>
<totfact> 0.13114807E+01</totfact>
</mgrwt>
</event>
<event>
 6    1  0.1875959E-004  0.3000000E+03  0.7818608E-02  0.1093470E+00
          3   -1    0    0  502    0  0.00000000000E+00  0.00000000000E+00  0.30218209886E+02  0.30218209886E+02  0.00000000000E+00 0.  1.
         13   -1    0    0    0    0 -0.00000000000E+00 -0.00000000000E+00 -0.10000000000E+04  0.10000000000E+04  0.00000000000E+00 0.  1.
    9000005    2    1    2  501    0 -0.76697501069E+01 -0.10076057511E+02 -0.95313919586E+03  0.10093058225E+04  0.33175829257E+03 0.  0.
         13    1    3    3    0    0  0.12600230209E+03 -0.50857011716E+02 -0.19065864850E+03  0.23412333506E+03  0.00000000000E+00 0.  1.
          3    1    3    3  501    0 -0.13367205220E+03  0.40780954204E+02 -0.76248054736E+03  0.77518248746E+03  0.00000000000E+00 0.  1.
         21    1    1    2  502  501  0.76697501069E+01  0.10076057511E+02 -0.16642594250E+02  0.20912387359E+02  0.00000000000E+00 0. -1.
<mgrwt>
<rscale>  1 0.30000000E+03</rscale>
<asrwt>0</asrwt>
<pdfrwt beam="1">  1        3 0.10988463E+00 0.30000000E+03</pdfrwt>
<pdfrwt beam="2">0</pdfrwt>
<totfact> 0.30227591E+00</totfact>
</mgrwt>
</event>
<event>
 6    1  0.1875959E-004  0.3000000E+03  0.7818608E-02  0.1093470E+00
          1   -1    0    0  502    0  0.00000000000E+00  0.00000000000E+00  0.29032435266E+02  0.29032435266E+02  0.00000000000E+00 0.  1.
         13   -1    0    0    0    0 -0.00000000000E+00 -0.00000000000E+00 -0.10000000000E+04  0.10000000000E+04  0.00000000000E+00 0.  1.
    9000005    2    1    2  501    0 -0.11205431149E+02 -0.61965607762E+01 -0.93350152933E+03  0.98943871277E+03  0.32771924265E+03 0.  0.
         13    1    3    3    0    0 -0.50782210522E+02 -0.16057551732E+03 -0.49617269216E+03  0.52397582971E+03  0.00000000000E+00 0.  1.
          1    1    3    3  501    0  0.39576779372E+02  0.15437895654E+03 -0.43732883717E+03  0.46546288306E+03  0.00000000000E+00 0.  1.
         21    1    1    2  502  501  0.11205431149E+02  0.61965607762E+01 -0.37466035400E+02  0.39593722498E+02  0.00000000000E+00 0. -1.
<mgrwt>
<rscale>  1 0.30000000E+03</rscale>
<asrwt>0</asrwt>
<pdfrwt beam="1">  1        1 0.10557271E+00 0.30000000E+03</pdfrwt>
<pdfrwt beam="2">0</pdfrwt>
<totfact> 0.31596192E+01</totfact>
</mgrwt>
</event>
<event>
 6    1  0.1875959E-004  0.3000000E+03  0.7818608E-02  0.1093470E+00
          1   -1    0    0  502    0  0.00000000000E+00  0.00000000000E+00  0.44254015296E+02  0.44254015296E+02  0.00000000000E+00 0.  1.
         13   -1    0    0    0    0 -0.00000000000E+00 -0.00000000000E+00 -0.10000000000E+04  0.10000000000E+04  0.00000000000E+00 0.  1.
    9000005    2    1    2  501    0  0.15361553370E+02 -0.25165794814E+02 -0.96039206377E+03  0.10144063923E+04  0.32526622624E+03 0.  0.
         13    1    3    3    0    0  0.68246992034E+02 -0.12583179718E+03 -0.20224355328E+03  0.24777761793E+03  0.00000000000E+00 0.  1.
          1    1    3    3  501    0 -0.52885438664E+02  0.10066600237E+03 -0.75814851050E+03  0.76662877433E+03  0.00000000000E+00 0.  1.
         21    1    1    2  502  501 -0.15361553370E+02  0.25165794814E+02  0.46460790699E+01  0.29847623043E+02  0.00000000000E+00 0.  1.
<mgrwt>
<rscale>  1 0.30000000E+03</rscale>
<asrwt>0</asrwt>
<pdfrwt beam="1">  1        1 0.16092403E+00 0.30000000E+03</pdfrwt>
<pdfrwt beam="2">0</pdfrwt>
<totfact> 0.15834933E+01</totfact>
</mgrwt>
</event>
<event>
 6    1  0.1875959E-004  0.3000000E+03  0.7818608E-02  0.1093470E+00
          1   -1    0    0  502    0  0.00000000000E+00  0.00000000000E+00  0.34683943757E+02  0.34683943757E+02  0.00000000000E+00 0.  1.
         13   -1    0    0    0    0 -0.00000000000E+00 -0.00000000000E+00 -0.10000000000E+04  0.10000000000E+04  0.00000000000E+00 0.  1.
    9000005    2    1    2  501    0 -0.29027634423E+01  0.23098568724E+02 -0.93177429851E+03  0.99385479456E+03  0.34496672214E+03 0.  0.
         13    1    3    3    0    0 -0.81635196139E+02 -0.13615314869E+03 -0.32650445750E+03  0.36305253878E+03  0.00000000000E+00 0.  1.
          1    1    3    3  501    0  0.78732432696E+02  0.15925171741E+03 -0.60526984101E+03  0.63080225577E+03  0.00000000000E+00 0.  1.
         21    1    1    2  502  501  0.29027634423E+01 -0.23098568724E+02 -0.33541757731E+02  0.40829149200E+02  0.00000000000E+00 0.  1.
<mgrwt>
<rscale>  1 0.30000000E+03</rscale>
<asrwt>0</asrwt>
<pdfrwt beam="1">  1        1 0.12612370E+00 0.30000000E+03</pdfrwt>
<pdfrwt beam="2">0</pdfrwt>
<totfact> 0.24027506E+01</totfact>
</mgrwt>
</event>
<event>
 6    1  0.1875959E-004  0.3000000E+03  0.7818608E-02  0.1093470E+00
          1   -1    0    0  502    0  0.00000000000E+00  0.00000000000E+00  0.34893096253E+02  0.34893096253E+02  0.00000000000E+00 0.  1.
         13   -1    0    0    0    0 -0.00000000000E+00 -0.00000000000E+00 -0.10000000000E+04  0.10000000000E+04  0.00000000000E+00 0.  1.
    9000005    2    1    2  501    0 -0.68478181814E+01 -0.11458224985E+02 -0.96601468944E+03  0.10215137238E+04  0.33185497446E+03 0.  0.
         13    1    3    3    0    0  0.14797633797E+03 -0.64679133881E+02 -0.58350751421E+03  0.60544314852E+03  0.00000000000E+00 0.  1.
          3    1    3    3  501    0 -0.15482415615E+03  0.53220908895E+02 -0.38250717523E+03  0.41607057523E+03  0.00000000000E+00 0.  1.
         21    1    1    2  502  501  0.68478181814E+01  0.11458224985E+02  0.90778568783E+00  0.13379372501E+02  0.00000000000E+00 0. -1.
<mgrwt>
<rscale>  1 0.30000000E+03</rscale>
<asrwt>0</asrwt>
<pdfrwt beam="1">  1        1 0.12688425E+00 0.30000000E+03</pdfrwt>
<pdfrwt beam="2">0</pdfrwt>
<totfact> 0.23796579E+01</totfact>
</mgrwt>
</event>
<event>
 6    1  0.1875959E-004  0.3000000E+03  0.7818608E-02  0.1093470E+00
          1   -1    0    0  502    0  0.00000000000E+00  0.00000000000E+00  0.34506437430E+02  0.34506437430E+02  0.00000000000E+00 0.  1.
         13   -1    0    0    0    0 -0.00000000000E+00 -0.00000000000E+00 -0.10000000000E+04  0.10000000000E+04  0.00000000000E+00 0.  1.
    9000005    2    1    2  501    0 -0.41539074496E+01 -0.40232723131E+02 -0.96029717403E+03  0.99372740591E+03  0.25236395910E+03 0.  0.
         13    1    3    3    0    0 -0.43596632932E+02  0.60823931510E+02 -0.77802586952E+03  0.78161657524E+03  0.00000000000E+00 0.  1.
          1    1    3    3  501    0  0.39442725483E+02 -0.10105665464E+03 -0.18227130451E+03  0.21211083067E+03  0.00000000000E+00 0.  1.
         21    1    1    2  502  501  0.41539074496E+01  0.40232723131E+02 -0.51963885399E+01  0.40779031518E+02  0.00000000000E+00 0.  1.
<mgrwt>
<rscale>  1 0.30000000E+03</rscale>
<asrwt>0</asrwt>
<pdfrwt beam="1">  1        1 0.12547822E+00 0.30000000E+03</pdfrwt>
<pdfrwt beam="2">0</pdfrwt>
<totfact> 0.24225737E+01</totfact>
</mgrwt>
</event>
<event>
 6    1  0.1875959E-004  0.3000000E+03  0.7818608E-02  0.1093470E+00
          1   -1    0    0  502    0  0.00000000000E+00  0.00000000000E+00  0.40363018281E+02  0.40363018281E+02  0.00000000000E+00 0.  1.
         13   -1    0    0    0    0 -0.00000000000E+00 -0.00000000000E+00 -0.10000000000E+04  0.10000000000E+04  0.00000000000E+00 0.  1.
    9000005    2    1    2  501    0 -0.20500136276E+02 -0.14091880682E+01 -0.95918757484E+03  0.10198095912E+04  0.34575794593E+03 0.  0.
         13    1    3    3    0    0  0.14615418025E+03 -0.45381965976E+01 -0.67226851387E+03  0.68798735045E+03  0.00000000000E+00 0.  1.
          1    1    3    3  501    0 -0.16665431652E+03  0.31290085294E+01 -0.28691906097E+03  0.33182224075E+03  0.00000000000E+00 0.  1.
         21    1    1    2  502  501  0.20500136276E+02  0.14091880682E+01 -0.44940688148E+00  0.20553427084E+02  0.00000000000E+00 0. -1.
<mgrwt>
<rscale>  1 0.30000000E+03</rscale>
<asrwt>0</asrwt>
<pdfrwt beam="1">  1        1 0.14677492E+00 0.30000000E+03</pdfrwt>
<pdfrwt beam="2">0</pdfrwt>
<totfact> 0.18659557E+01</totfact>
</mgrwt>
</event>
<event>
 6    1  0.1875959E-004  0.3000000E+03  0.7818608E-02  0.1093470E+00
          1   -1    0    0  502    0  0.00000000000E+00  0.00000000000E+00  0.32208960248E+02  0.32208960248E+02  0.00000000000E+00 0.  1.
         13   -1    0    0    0    0 -0.00000000000E+00 -0.00000000000E+00 -0.10000000000E+04  0.10000000000E+04  0.00000000000E+00 0.  1.
    9000005    2    1    2  501    0  0.83480483820E+01  0.18871566385E+02 -0.94408666087E+03  0.10007808915E+04  0.33141657102E+03 0.  0.
         13    1    3    3    0    0 -0.15911965916E+03  0.20025378487E+02 -0.54151073368E+03  0.56476008748E+03  0.00000000000E+00 0.  1.
          1    1    3    3  501    0  0.16746770755E+03 -0.11538121019E+01 -0.40257592719E+03  0.43602080398E+03  0.00000000000E+00 0.  1.
         21    1    1    2  502  501 -0.83480483820E+01 -0.18871566385E+02 -0.23704378885E+02  0.31428068791E+02  0.00000000000E+00 0.  1.
<mgrwt>
<rscale>  1 0.30000000E+03</rscale>
<asrwt>0</asrwt>
<pdfrwt beam="1">  1        1 0.11712374E+00 0.30000000E+03</pdfrwt>
<pdfrwt beam="2">0</pdfrwt>
<totfact> 0.26994667E+01</totfact>
</mgrwt>
</event>
<event>
 6    1  0.1875959E-004  0.3000000E+03  0.7818608E-02  0.1093470E+00
          1   -1    0    0  502    0  0.00000000000E+00  0.00000000000E+00  0.70654870474E+02  0.70654870474E+02  0.00000000000E+00 0.  1.
         13   -1    0    0    0    0 -0.00000000000E+00 -0.00000000000E+00 -0.10000000000E+04  0.10000000000E+04  0.00000000000E+00 0.  1.
    9000005    2    1    2  501    0  0.13987404822E+02 -0.50654571655E+01 -0.97205414751E+03  0.10254291414E+04  0.32618147106E+03 0.  0.
         13    1    3    3    0    0  0.58400505679E+02 -0.10315442422E+03 -0.86675797154E+03  0.87482617447E+03  0.00000000000E+00 0.  1.
          1    1    3    3  501    0 -0.44413100857E+02  0.98088967059E+02 -0.10529617597E+03  0.15060296697E+03  0.00000000000E+00 0.  1.
         21    1    1    2  502  501 -0.13987404822E+02  0.50654571655E+01  0.42709017983E+02  0.45225729038E+02  0.00000000000E+00 0.  1.
<mgrwt>
<rscale>  1 0.30000000E+03</rscale>
<asrwt>0</asrwt>
<pdfrwt beam="1">  1        1 0.25692734E+00 0.30000000E+03</pdfrwt>
<pdfrwt beam="2">0</pdfrwt>
<totfact> 0.55387490E+00</totfact>
</mgrwt>
</event>
<event>
 6    1  0.1875959E-004  0.3000000E+03  0.7818608E-02  0.1093470E+00
          1   -1    0    0  502    0  0.00000000000E+00  0.00000000000E+00  0.42000518259E+02  0.42000518259E+02  0.00000000000E+00 0.  1.
         13   -1    0    0    0    0 -0.00000000000E+00 -0.00000000000E+00 -0.10000000000E+04  0.10000000000E+04  0.00000000000E+00 0.  1.
    9000005    2    1    2  501    0 -0.15161025041E+02 -0.67047514004E+02 -0.85430687453E+03  0.91759238908E+03  0.32773515347E+03 0.  0.
         13    1    3    3    0    0 -0.34585188839E+02 -0.23461605626E+02  0.16899873018E+02  0.45079795181E+02  0.00000000000E+00 0.  1.
          1    1    3    3  501    0  0.19424163798E+02 -0.43585908379E+02 -0.87120674755E+03  0.87251259390E+03  0.00000000000E+00 0.  1.
         21    1    1    2  502  501  0.15161025041E+02  0.67047514004E+02 -0.10369260721E+03  0.12440812918E+03  0.00000000000E+00 0.  1.
<mgrwt>
<rscale>  1 0.30000000E+03</rscale>
<asrwt>0</asrwt>
<pdfrwt beam="1">  1        1 0.15272948E+00 0.30000000E+03</pdfrwt>
<pdfrwt beam="2">0</pdfrwt>
<totfact> 0.17401959E+01</totfact>
</mgrwt>
</event>
<event>
 6    1  0.1875959E-004  0.3000000E+03  0.7818608E-02  0.1093470E+00
          1   -1    0    0  502    0  0.00000000000E+00  0.00000000000E+00  0.49952680881E+02  0.49952680881E+02  0.00000000000E+00 0.  1.
         13   -1    0    0    0    0 -0.00000000000E+00 -0.00000000000E+00 -0.10000000000E+04  0.10000000000E+04  0.00000000000E+00 0.  1.
    9000005    2    1    2  501    0 -0.13889405617E+02  0.14708251395E+02 -0.95783444864E+03  0.10282757892E+04  0.37349032033E+03 0.  0.
         13    1    3    3    0    0 -0.60670780631E+02  0.63281495656E+02 -0.95682263840E+03  0.96083039745E+03  0.00000000000E+00 0.  1.
          3    1    3    3  501    0  0.46781375014E+02 -0.48573244262E+02 -0.10118102411E+01  0.67445391735E+02  0.00000000000E+00 0.  1.
         21    1    1    2  502  501  0.13889405617E+02 -0.14708251395E+02  0.77871295185E+01  0.21676891696E+02  0.00000000000E+00 0.  1.
<mgrwt>
<rscale>  1 0.30000000E+03</rscale>
<asrwt>0</asrwt>
<pdfrwt beam="1">  1        1 0.18164650E+00 0.30000000E+03</pdfrwt>
<pdfrwt beam="2">0</pdfrwt>
<totfact> 0.12542534E+01</totfact>
</mgrwt>
</event>
<event>
 6    1  0.1875959E-004  0.3000000E+03  0.7818608E-02  0.1093470E+00
          1   -1    0    0  502    0  0.00000000000E+00  0.00000000000E+00  0.29474915590E+02  0.29474915590E+02  0.00000000000E+00 0.  1.
         13   -1    0    0    0    0 -0.00000000000E+00 -0.00000000000E+00 -0.10000000000E+04  0.10000000000E+04  0.00000000000E+00 0.  1.
    9000005    2    1    2  501    0 -0.10734301193E+02  0.92834781835E+01 -0.95212082196E+03  0.10062343247E+04  0.32522614959E+03 0.  0.
         13    1    3    3    0    0  0.29727724641E+02  0.16299517698E+03 -0.52333860908E+03  0.54893940020E+03  0.00000000000E+00 0.  1.
          1    1    3    3  501    0 -0.40462025834E+02 -0.15371169880E+03 -0.42878221288E+03  0.45729492449E+03  0.00000000000E+00 0.  1.
         21    1    1    2  502  501  0.10734301193E+02 -0.92834781835E+01 -0.18404262452E+02  0.23240590906E+02  0.00000000000E+00 0.  1.
<mgrwt>
<rscale>  1 0.30000000E+03</rscale>
<asrwt>0</asrwt>
<pdfrwt beam="1">  1        1 0.10718174E+00 0.30000000E+03</pdfrwt>
<pdfrwt beam="2">0</pdfrwt>
<totfact> 0.30891207E+01</totfact>
</mgrwt>
</event>
<event>
 6    1  0.1875959E-004  0.3000000E+03  0.7818608E-02  0.1093470E+00
          1   -1    0    0  502    0  0.00000000000E+00  0.00000000000E+00  0.32959024263E+02  0.32959024263E+02  0.00000000000E+00 0.  1.
         13   -1    0    0    0    0 -0.00000000000E+00 -0.00000000000E+00 -0.10000000000E+04  0.10000000000E+04  0.00000000000E+00 0.  1.
    9000005    2    1    2  501    0  0.13618127903E+02 -0.20571415882E+02 -0.89218749591E+03  0.95414481234E+03  0.33732055748E+03 0.  0.
         13    1    3    3    0    0  0.10373809122E+03 -0.13651912823E+03 -0.63747436187E+03  0.66013076431E+03  0.00000000000E+00 0.  1.
          1    1    3    3  501    0 -0.90119963318E+02  0.11594771235E+03 -0.25471313404E+03  0.29401404803E+03  0.00000000000E+00 0.  1.
         21    1    1    2  502  501 -0.13618127903E+02  0.20571415882E+02 -0.74853479824E+02  0.78814211921E+02  0.00000000000E+00 0.  1.
<mgrwt>
<rscale>  1 0.30000000E+03</rscale>
<asrwt>0</asrwt>
<pdfrwt beam="1">  1        1 0.11985125E+00 0.30000000E+03</pdfrwt>
<pdfrwt beam="2">0</pdfrwt>
<totfact> 0.26046431E+01</totfact>
</mgrwt>
</event>
<event>
 6    1  0.1875959E-004  0.3000000E+03  0.7818608E-02  0.1093470E+00
          1   -1    0    0  502    0  0.00000000000E+00  0.00000000000E+00  0.34336280349E+02  0.34336280349E+02  0.00000000000E+00 0.  1.
         13   -1    0    0    0    0 -0.00000000000E+00 -0.00000000000E+00 -0.10000000000E+04  0.10000000000E+04  0.00000000000E+00 0.  1.
    9000005    2    1    2  501    0 -0.12284681074E+02 -0.19299808131E+01 -0.96836578926E+03  0.10216107393E+04  0.32527152137E+03 0.  0.
         13    1    3    3    0    0  0.26159313912E+02 -0.14423754818E+03 -0.26383481852E+03  0.30182377553E+03  0.00000000000E+00 0.  1.
          3    1    3    3  501    0 -0.38443994985E+02  0.14230756737E+03 -0.70453097074E+03  0.71978696377E+03  0.00000000000E+00 0.  1.
         21    1    1    2  502  501  0.12284681074E+02  0.19299808131E+01  0.27020696075E+01  0.12725541057E+02  0.00000000000E+00 0. -1.
<mgrwt>
<rscale>  1 0.30000000E+03</rscale>
<asrwt>0</asrwt>
<pdfrwt beam="1">  1        1 0.12485946E+00 0.30000000E+03</pdfrwt>
<pdfrwt beam="2">0</pdfrwt>
<totfact> 0.24417716E+01</totfact>
</mgrwt>
</event>
<event>
 6    1  0.1875959E-004  0.3000000E+03  0.7818608E-02  0.1093470E+00
          1   -1    0    0  502    0  0.00000000000E+00  0.00000000000E+00  0.24945237813E+02  0.24945237813E+02  0.00000000000E+00 0.  1.
         13   -1    0    0    0    0 -0.00000000000E+00 -0.00000000000E+00 -0.10000000000E+04  0.10000000000E+04  0.00000000000E+00 0.  1.
    9000005    2    1    2  501    0  0.44856250438E+02  0.36164578283E+01 -0.90510019690E+03  0.94176589437E+03  0.25630347521E+03 0.  0.
         13    1    3    3    0    0 -0.64891348486E+02  0.60267301523E+02 -0.67344898917E+03  0.67924706533E+03  0.00000000000E+00 0.  1.
          1    1    3    3  501    0  0.10974759892E+03 -0.56650843695E+02 -0.23165120772E+03  0.26251882904E+03  0.00000000000E+00 0.  1.
         21    1    1    2  502  501 -0.44856250438E+02 -0.36164578283E+01 -0.69954565288E+02  0.83179343441E+02  0.00000000000E+00 0. -1.
<mgrwt>
<rscale>  1 0.30000000E+03</rscale>
<asrwt>0</asrwt>
<pdfrwt beam="1">  1        1 0.90710147E-01 0.30000000E+03</pdfrwt>
<pdfrwt beam="2">0</pdfrwt>
<totfact> 0.39390008E+01</totfact>
</mgrwt>
</event>
<event>
 6    1  0.1875959E-004  0.3000000E+03  0.7818608E-02  0.1093470E+00
          3   -1    0    0  502    0  0.00000000000E+00  0.00000000000E+00  0.25532855660E+02  0.25532855660E+02  0.00000000000E+00 0.  1.
         13   -1    0    0    0    0 -0.00000000000E+00 -0.00000000000E+00 -0.10000000000E+04  0.10000000000E+04  0.00000000000E+00 0.  1.
    9000005    2    1    2  501    0 -0.59594479625E+01 -0.98690927294E+01 -0.93069378703E+03  0.98026674448E+03  0.30756958742E+03 0.  0.
         13    1    3    3    0    0  0.82611470369E+02 -0.17756935068E+01 -0.53196088390E+02  0.98273251417E+02  0.00000000000E+00 0.  1.
          1    1    3    3  501    0 -0.88570918332E+02 -0.80933992226E+01 -0.87749769864E+03  0.88199349306E+03  0.00000000000E+00 0.  1.
         21    1    1    2  502  501  0.59594479625E+01  0.98690927294E+01 -0.43773357310E+02  0.45266111181E+02  0.00000000000E+00 0. -1.
<mgrwt>
<rscale>  1 0.30000000E+03</rscale>
<asrwt>0</asrwt>
<pdfrwt beam="1">  1        3 0.92846944E-01 0.30000000E+03</pdfrwt>
<pdfrwt beam="2">0</pdfrwt>
<totfact> 0.47294511E+00</totfact>
</mgrwt>
</event>
<event>
 6    1  0.1875959E-004  0.3000000E+03  0.7818608E-02  0.1093470E+00
          1   -1    0    0  502    0  0.00000000000E+00  0.00000000000E+00  0.74385704709E+02  0.74385704709E+02  0.00000000000E+00 0.  1.
         13   -1    0    0    0    0 -0.00000000000E+00 -0.00000000000E+00 -0.10000000000E+04  0.10000000000E+04  0.00000000000E+00 0.  1.
    9000005    2    1    2  501    0  0.16309918487E+02  0.28354499483E+00 -0.96933799602E+03  0.10277182016E+04  0.34106078283E+03 0.  0.
         13    1    3    3    0    0  0.99626528393E+02  0.96247792350E+02 -0.82002862018E+03  0.83164657193E+03  0.00000000000E+00 0.  1.
          3    1    3    3  501    0 -0.83316609906E+02 -0.95964247355E+02 -0.14930937584E+03  0.19607162969E+03  0.00000000000E+00 0.  1.
         21    1    1    2  502  501 -0.16309918487E+02 -0.28354499483E+00  0.43723700728E+02  0.46667503085E+02  0.00000000000E+00 0.  1.
<mgrwt>
<rscale>  1 0.30000000E+03</rscale>
<asrwt>0</asrwt>
<pdfrwt beam="1">  1        1 0.27049404E+00 0.30000000E+03</pdfrwt>
<pdfrwt beam="2">0</pdfrwt>
<totfact> 0.47825770E+00</totfact>
</mgrwt>
</event>
<event>
 6    1  0.1875959E-004  0.3000000E+03  0.7818608E-02  0.1093470E+00
          1   -1    0    0  502    0  0.00000000000E+00  0.00000000000E+00  0.28715363393E+02  0.28715363393E+02  0.00000000000E+00 0.  1.
         13   -1    0    0    0    0 -0.00000000000E+00 -0.00000000000E+00 -0.10000000000E+04  0.10000000000E+04  0.00000000000E+00 0.  1.
    9000005    2    1    2  501    0 -0.48231778769E+01 -0.85226782422E+01 -0.93185042272E+03  0.98808340166E+03  0.32843218360E+03 0.  0.
         13    1    3    3    0    0  0.12514797146E+03  0.91419343724E+02 -0.33481711851E+03  0.36894716968E+03  0.00000000000E+00 0.  1.
          3    1    3    3  501    0 -0.12997114934E+03 -0.99942021966E+02 -0.59703330421E+03  0.61913623198E+03  0.00000000000E+00 0.  1.
         21    1    1    2  502  501  0.48231778769E+01  0.85226782422E+01 -0.39434213889E+02  0.40631961733E+02  0.00000000000E+00 0.  1.
<mgrwt>
<rscale>  1 0.30000000E+03</rscale>
<asrwt>0</asrwt>
<pdfrwt beam="1">  1        1 0.10441972E+00 0.30000000E+03</pdfrwt>
<pdfrwt beam="2">0</pdfrwt>
<totfact> 0.32115735E+01</totfact>
</mgrwt>
</event>
<event>
 6    1  0.1875959E-004  0.3000000E+03  0.7818608E-02  0.1093470E+00
          1   -1    0    0  502    0  0.00000000000E+00  0.00000000000E+00  0.42925214021E+02  0.42925214021E+02  0.00000000000E+00 0.  1.
         13   -1    0    0    0    0 -0.00000000000E+00 -0.00000000000E+00 -0.10000000000E+04  0.10000000000E+04  0.00000000000E+00 0.  1.
    9000005    2    1    2  501    0  0.47596048864E+02  0.26055621612E+02 -0.90775452928E+03  0.96959877264E+03  0.33639146123E+03 0.  0.
         13    1    3    3    0    0  0.82115658480E+02  0.16347237105E+03 -0.65247439263E+03  0.67763487994E+03  0.00000000000E+00 0.  1.
          3    1    3    3  501    0 -0.34519609616E+02 -0.13741674944E+03 -0.25528013665E+03  0.29196389270E+03  0.00000000000E+00 0.  1.
         21    1    1    2  502  501 -0.47596048864E+02 -0.26055621612E+02 -0.49320256696E+02  0.73326441381E+02  0.00000000000E+00 0.  1.
<mgrwt>
<rscale>  1 0.30000000E+03</rscale>
<asrwt>0</asrwt>
<pdfrwt beam="1">  1        1 0.15609202E+00 0.30000000E+03</pdfrwt>
<pdfrwt beam="2">0</pdfrwt>
<totfact> 0.16737584E+01</totfact>
</mgrwt>
</event>
<event>
 6    1  0.1875959E-004  0.3000000E+03  0.7818608E-02  0.1093470E+00
          1   -1    0    0  502    0  0.00000000000E+00  0.00000000000E+00  0.32499714320E+02  0.32499714320E+02  0.00000000000E+00 0.  1.
         13   -1    0    0    0    0 -0.00000000000E+00 -0.00000000000E+00 -0.10000000000E+04  0.10000000000E+04  0.00000000000E+00 0.  1.
    9000005    2    1    2  501    0  0.43005776805E+01 -0.13719141709E+02 -0.96332301179E+03  0.10175277594E+04  0.32736036144E+03 0.  0.
         13    1    3    3    0    0  0.18536717639E+02  0.14543954705E+03 -0.64369803891E+03  0.66018439624E+03  0.00000000000E+00 0.  1.
          3    1    3    3  501    0 -0.14236139959E+02 -0.15915868875E+03 -0.31962497288E+03  0.35734336314E+03  0.00000000000E+00 0.  1.
         21    1    1    2  502  501 -0.43005776805E+01  0.13719141709E+02 -0.41772738877E+01  0.14971954941E+02  0.00000000000E+00 0.  1.
<mgrwt>
<rscale>  1 0.30000000E+03</rscale>
<asrwt>0</asrwt>
<pdfrwt beam="1">  1        1 0.11818103E+00 0.30000000E+03</pdfrwt>
<pdfrwt beam="2">0</pdfrwt>
<totfact> 0.26621606E+01</totfact>
</mgrwt>
</event>
<event>
 6    1  0.1875959E-004  0.3000000E+03  0.7818608E-02  0.1093470E+00
          1   -1    0    0  502    0  0.00000000000E+00  0.00000000000E+00  0.35242482373E+02  0.35242482373E+02  0.00000000000E+00 0.  1.
         13   -1    0    0    0    0 -0.00000000000E+00 -0.00000000000E+00 -0.10000000000E+04  0.10000000000E+04  0.00000000000E+00 0.  1.
    9000005    2    1    2  501    0  0.14481859279E+02 -0.11372063594E+02 -0.93063194394E+03  0.99646616411E+03  0.35571049050E+03 0.  0.
         13    1    3    3    0    0  0.22459597026E+02  0.15274887324E+03 -0.23132998343E+03  0.27811906265E+03  0.00000000000E+00 0.  1.
          3    1    3    3  501    0 -0.79777377468E+01 -0.16412093683E+03 -0.69930196052E+03  0.71834710147E+03  0.00000000000E+00 0.  1.
         21    1    1    2  502  501 -0.14481859279E+02  0.11372063594E+02 -0.34125573684E+02  0.38776318260E+02  0.00000000000E+00 0.  1.
<mgrwt>
<rscale>  1 0.30000000E+03</rscale>
<asrwt>0</asrwt>
<pdfrwt beam="1">  1        1 0.12815475E+00 0.30000000E+03</pdfrwt>
<pdfrwt beam="2">0</pdfrwt>
<totfact> 0.23417121E+01</totfact>
</mgrwt>
</event>
<event>
 6    1  0.1875959E-004  0.3000000E+03  0.7818608E-02  0.1093470E+00
          1   -1    0    0  502    0  0.00000000000E+00  0.00000000000E+00  0.38681736042E+02  0.38681736042E+02  0.00000000000E+00 0.  1.
         13   -1    0    0    0    0 -0.00000000000E+00 -0.00000000000E+00 -0.10000000000E+04  0.10000000000E+04  0.00000000000E+00 0.  1.
    9000005    2    1    2  501    0 -0.32015744672E+02 -0.13057827599E+02 -0.94571968035E+03  0.10007498157E+04  0.32545193977E+03 0.  0.
         13    1    3    3    0    0  0.19233772757E+02 -0.16262616761E+03 -0.39023092058E+03  0.42319898367E+03  0.00000000000E+00 0.  1.
          3    1    3    3  501    0 -0.51249517430E+02  0.14956834001E+03 -0.55548875977E+03  0.57755083205E+03  0.00000000000E+00 0.  1.
         21    1    1    2  502  501  0.32015744672E+02  0.13057827599E+02 -0.15598583610E+02  0.37931920320E+02  0.00000000000E+00 0.  1.
<mgrwt>
<rscale>  1 0.30000000E+03</rscale>
<asrwt>0</asrwt>
<pdfrwt beam="1">  1        1 0.14066115E+00 0.30000000E+03</pdfrwt>
<pdfrwt beam="2">0</pdfrwt>
<totfact> 0.20071540E+01</totfact>
</mgrwt>
</event>
<event>
 6    1  0.1875959E-004  0.3000000E+03  0.7818608E-02  0.1093470E+00
          1   -1    0    0  502    0  0.00000000000E+00  0.00000000000E+00  0.10612059755E+02  0.10612059755E+02  0.00000000000E+00 0.  1.
         13   -1    0    0    0    0 -0.00000000000E+00 -0.00000000000E+00 -0.10000000000E+04  0.10000000000E+04  0.00000000000E+00 0.  1.
    9000005    2    1    2  501    0  0.72480172308E+01  0.72522690239E+01 -0.95934306795E+03  0.97886582358E+03  0.19425254026E+03 0.  0.
         13    1    3    3    0    0 -0.40774707935E+02  0.72523614708E+02 -0.22191826554E+03  0.23700204235E+03  0.00000000000E+00 0.  1.
          3    1    3    3  501    0  0.48022725166E+02 -0.65271345684E+02 -0.73742480240E+03  0.74186378123E+03  0.00000000000E+00 0.  1.
         21    1    1    2  502  501 -0.72480172308E+01 -0.72522690239E+01 -0.30044872297E+02  0.31746236173E+02  0.00000000000E+00 0.  1.
<mgrwt>
<rscale>  1 0.30000000E+03</rscale>
<asrwt>0</asrwt>
<pdfrwt beam="1">  1        1 0.38589390E-01 0.30000000E+03</pdfrwt>
<pdfrwt beam="2">0</pdfrwt>
<totfact> 0.12388029E+02</totfact>
</mgrwt>
</event>
<event>
 6    1  0.1875959E-004  0.3000000E+03  0.7818608E-02  0.1093470E+00
          1   -1    0    0  502    0  0.00000000000E+00  0.00000000000E+00  0.41077005619E+02  0.41077005619E+02  0.00000000000E+00 0.  1.
         13   -1    0    0    0    0 -0.00000000000E+00 -0.00000000000E+00 -0.10000000000E+04  0.10000000000E+04  0.00000000000E+00 0.  1.
    9000005    2    1    2  501    0  0.19332887280E+02 -0.44598778928E+01 -0.96602370595E+03  0.10200040100E+04  0.32682216699E+03 0.  0.
         13    1    3    3    0    0 -0.11576537259E+03  0.70643592694E+02 -0.22241801202E+03  0.26050318761E+03  0.00000000000E+00 0.  1.
          1    1    3    3  501    0  0.13509825987E+03 -0.75103470587E+02 -0.74360569392E+03  0.75950082235E+03  0.00000000000E+00 0.  1.
         21    1    1    2  502  501 -0.19332887280E+02  0.44598778928E+01  0.71007115678E+01  0.21072995662E+02  0.00000000000E+00 0.  1.
<mgrwt>
<rscale>  1 0.30000000E+03</rscale>
<asrwt>0</asrwt>
<pdfrwt beam="1">  1        1 0.14937124E+00 0.30000000E+03</pdfrwt>
<pdfrwt beam="2">0</pdfrwt>
<totfact> 0.18097811E+01</totfact>
</mgrwt>
</event>
<event>
 6    1  0.1875959E-004  0.3000000E+03  0.7818608E-02  0.1093470E+00
          3   -1    0    0  502    0  0.00000000000E+00  0.00000000000E+00  0.30311839384E+02  0.30311839384E+02  0.00000000000E+00 0.  1.
         13   -1    0    0    0    0 -0.00000000000E+00 -0.00000000000E+00 -0.10000000000E+04  0.10000000000E+04  0.00000000000E+00 0.  1.
    9000005    2    1    2  501    0 -0.14197655309E+02  0.26710617604E+01 -0.95086335308E+03  0.10065825038E+04  0.32993713461E+03 0.  0.
         13    1    3    3    0    0  0.66084020698E+02  0.13400272251E+03 -0.66845679706E+03  0.68495132453E+03  0.00000000000E+00 0.  1.
          1    1    3    3  501    0 -0.80281676007E+02 -0.13133166075E+03 -0.28240655602E+03  0.32163117930E+03  0.00000000000E+00 0.  1.
         21    1    1    2  502  501  0.14197655309E+02 -0.26710617604E+01 -0.18824807536E+02  0.23729335556E+02  0.00000000000E+00 0.  1.
<mgrwt>
<rscale>  1 0.30000000E+03</rscale>
<asrwt>0</asrwt>
<pdfrwt beam="1">  1        3 0.11022510E+00 0.30000000E+03</pdfrwt>
<pdfrwt beam="2">0</pdfrwt>
<totfact> 0.29958672E+00</totfact>
</mgrwt>
</event>
<event>
 6    1  0.1875959E-004  0.3000000E+03  0.7818608E-02  0.1093470E+00
          1   -1    0    0  502    0  0.00000000000E+00  0.00000000000E+00  0.32148028584E+02  0.32148028584E+02  0.00000000000E+00 0.  1.
         13   -1    0    0    0    0 -0.00000000000E+00 -0.00000000000E+00 -0.10000000000E+04  0.10000000000E+04  0.00000000000E+00 0.  1.
    9000005    2    1    2  501    0  0.11552865156E+02 -0.12846278765E+01 -0.96762753498E+03  0.10205217939E+04  0.32407802507E+03 0.  0.
         13    1    3    3    0    0  0.16297484896E+03  0.21755935309E+01 -0.62512856149E+03  0.64602728502E+03  0.00000000000E+00 0.  1.
          3    1    3    3  501    0 -0.15142198380E+03 -0.34602214075E+01 -0.34249897349E+03  0.37449450884E+03  0.00000000000E+00 0.  1.
         21    1    1    2  502  501 -0.11552865156E+02  0.12846278765E+01 -0.22443643552E+00  0.11626234722E+02  0.00000000000E+00 0.  1.
<mgrwt>
<rscale>  1 0.30000000E+03</rscale>
<asrwt>0</asrwt>
<pdfrwt beam="1">  1        1 0.11690217E+00 0.30000000E+03</pdfrwt>
<pdfrwt beam="2">0</pdfrwt>
<totfact> 0.27073755E+01</totfact>
</mgrwt>
</event>
<event>
 6    1  0.1875959E-004  0.3000000E+03  0.7818608E-02  0.1093470E+00
          1   -1    0    0  502    0  0.00000000000E+00  0.00000000000E+00  0.30021743614E+02  0.30021743614E+02  0.00000000000E+00 0.  1.
         13   -1    0    0    0    0 -0.00000000000E+00 -0.00000000000E+00 -0.10000000000E+04  0.10000000000E+04  0.00000000000E+00 0.  1.
    9000005    2    1    2  501    0  0.16458647441E+01 -0.13228173528E+02 -0.95779683327E+03  0.10119640440E+04  0.32637211755E+03 0.  0.
         13    1    3    3    0    0 -0.15411039547E+03 -0.44670084272E+02 -0.37481143059E+03  0.40771195582E+03  0.00000000000E+00 0.  1.
          1    1    3    3  501    0  0.15575626021E+03  0.31441910744E+02 -0.58298540268E+03  0.60425208819E+03  0.00000000000E+00 0.  1.
         21    1    1    2  502  501 -0.16458647441E+01  0.13228173528E+02 -0.12181423117E+02  0.18057699599E+02  0.00000000000E+00 0. -1.
<mgrwt>
<rscale>  1 0.30000000E+03</rscale>
<asrwt>0</asrwt>
<pdfrwt beam="1">  1        1 0.10917021E+00 0.30000000E+03</pdfrwt>
<pdfrwt beam="2">0</pdfrwt>
<totfact> 0.30050741E+01</totfact>
</mgrwt>
</event>
<event>
 6    1  0.1875959E-004  0.3000000E+03  0.7818608E-02  0.1093470E+00
          1   -1    0    0  502    0  0.00000000000E+00  0.00000000000E+00  0.30413801635E+02  0.30413801635E+02  0.00000000000E+00 0.  1.
         13   -1    0    0    0    0 -0.00000000000E+00 -0.00000000000E+00 -0.10000000000E+04  0.10000000000E+04  0.00000000000E+00 0.  1.
    9000005    2    1    2  501    0  0.15123046609E+02  0.52598465961E+01 -0.96010396241E+03  0.10118050584E+04  0.31889415972E+03 0.  0.
         13    1    3    3    0    0  0.12503080866E+03  0.10086886667E+03 -0.35904819277E+03  0.39334823771E+03  0.00000000000E+00 0.  1.
          3    1    3    3  501    0 -0.10990776206E+03 -0.95609020070E+02 -0.60105576964E+03  0.61845682072E+03  0.00000000000E+00 0.  1.
         21    1    1    2  502  501 -0.15123046609E+02 -0.52598465961E+01 -0.94822359547E+01  0.18608743204E+02  0.00000000000E+00 0. -1.
<mgrwt>
<rscale>  1 0.30000000E+03</rscale>
<asrwt>0</asrwt>
<pdfrwt beam="1">  1        1 0.11059588E+00 0.30000000E+03</pdfrwt>
<pdfrwt beam="2">0</pdfrwt>
<totfact> 0.29468080E+01</totfact>
</mgrwt>
</event>
<event>
 6    1  0.1875959E-004  0.3000000E+03  0.7818608E-02  0.1093470E+00
          1   -1    0    0  502    0  0.00000000000E+00  0.00000000000E+00  0.43105931132E+02  0.43105931132E+02  0.00000000000E+00 0.  1.
         13   -1    0    0    0    0 -0.00000000000E+00 -0.00000000000E+00 -0.10000000000E+04  0.10000000000E+04  0.00000000000E+00 0.  1.
    9000005    2    1    2  501    0  0.98463562805E+01  0.50628147554E+01 -0.97488606840E+03  0.10219802389E+04  0.30646073078E+03 0.  0.
         13    1    3    3    0    0 -0.23952491743E+02 -0.30857745983E+02  0.62891917843E+01  0.39566100151E+02  0.00000000000E+00 0.  1.
          3    1    3    3  501    0  0.33798848023E+02  0.35920560739E+02 -0.98117526018E+03  0.98241413875E+03  0.00000000000E+00 0.  1.
         21    1    1    2  502  501 -0.98463562805E+01 -0.50628147554E+01  0.17991999532E+02  0.21125692235E+02  0.00000000000E+00 0.  1.
<mgrwt>
<rscale>  1 0.30000000E+03</rscale>
<asrwt>0</asrwt>
<pdfrwt beam="1">  1        1 0.15674917E+00 0.30000000E+03</pdfrwt>
<pdfrwt beam="2">0</pdfrwt>
<totfact> 0.16611322E+01</totfact>
</mgrwt>
</event>
<event>
 6    1  0.1875959E-004  0.3000000E+03  0.7818608E-02  0.1093470E+00
          1   -1    0    0  502    0  0.00000000000E+00  0.00000000000E+00  0.30691498334E+02  0.30691498334E+02  0.00000000000E+00 0.  1.
         13   -1    0    0    0    0 -0.00000000000E+00 -0.00000000000E+00 -0.10000000000E+04  0.10000000000E+04  0.00000000000E+00 0.  1.
    9000005    2    1    2  501    0 -0.17254827129E+02  0.38450185096E+01 -0.95413687941E+03  0.10073957616E+04  0.32273289681E+03 0.  0.
         13    1    3    3    0    0  0.43774388185E+02  0.55996762541E+02 -0.25829864787E+02  0.75624178613E+02  0.00000000000E+00 0.  1.
          3    1    3    3  501    0 -0.61029215313E+02 -0.52151744031E+02 -0.92830701462E+03  0.93177158302E+03  0.00000000000E+00 0.  1.
         21    1    1    2  502  501  0.17254827129E+02 -0.38450185096E+01 -0.15171622258E+02  0.23295736702E+02  0.00000000000E+00 0. -1.
<mgrwt>
<rscale>  1 0.30000000E+03</rscale>
<asrwt>0</asrwt>
<pdfrwt beam="1">  1        1 0.11160568E+00 0.30000000E+03</pdfrwt>
<pdfrwt beam="2">0</pdfrwt>
<totfact> 0.29065021E+01</totfact>
</mgrwt>
</event>
<event>
 6    1  0.1875959E-004  0.3000000E+03  0.7818608E-02  0.1093470E+00
          1   -1    0    0  502    0  0.00000000000E+00  0.00000000000E+00  0.31492715165E+02  0.31492715165E+02  0.00000000000E+00 0.  1.
         13   -1    0    0    0    0 -0.00000000000E+00 -0.00000000000E+00 -0.10000000000E+04  0.10000000000E+04  0.00000000000E+00 0.  1.
    9000005    2    1    2  501    0  0.15252723458E+02 -0.23761141061E+02 -0.91169506797E+03  0.96805088841E+03  0.32424896019E+03 0.  0.
         13    1    3    3    0    0 -0.59884839245E+02  0.13534218568E+03 -0.46348895594E+03  0.48654466751E+03  0.00000000000E+00 0.  1.
          1    1    3    3  501    0  0.75137562703E+02 -0.15910332674E+03 -0.44820611203E+03  0.48150622090E+03  0.00000000000E+00 0.  1.
         21    1    1    2  502  501 -0.15252723458E+02  0.23761141061E+02 -0.56812216860E+02  0.63441826755E+02  0.00000000000E+00 0.  1.
<mgrwt>
<rscale>  1 0.30000000E+03</rscale>
<asrwt>0</asrwt>
<pdfrwt beam="1">  1        1 0.11451921E+00 0.30000000E+03</pdfrwt>
<pdfrwt beam="2">0</pdfrwt>
<totfact> 0.27945045E+01</totfact>
</mgrwt>
</event>
<event>
 6    1  0.1875959E-004  0.3000000E+03  0.7818608E-02  0.1093470E+00
          3   -1    0    0  502    0  0.00000000000E+00  0.00000000000E+00  0.31271763645E+02  0.31271763645E+02  0.00000000000E+00 0.  1.
         13   -1    0    0    0    0 -0.00000000000E+00 -0.00000000000E+00 -0.10000000000E+04  0.10000000000E+04  0.00000000000E+00 0.  1.
    9000005    2    1    2  501    0 -0.15611208990E+02 -0.28984680625E+01 -0.95291123756E+03  0.10088599718E+04  0.33091767111E+03 0.  0.
         13    1    3    3    0    0  0.15327734479E+03 -0.21759214615E+02 -0.55480793579E+03  0.57600282418E+03  0.00000000000E+00 0.  1.
          1    1    3    3  501    0 -0.16888855378E+03  0.18860746553E+02 -0.39810330177E+03  0.43285714761E+03  0.00000000000E+00 0.  1.
         21    1    1    2  502  501  0.15611208990E+02  0.28984680625E+01 -0.15816998800E+02  0.22411791858E+02  0.00000000000E+00 0.  1.
<mgrwt>
<rscale>  1 0.30000000E+03</rscale>
<asrwt>0</asrwt>
<pdfrwt beam="1">  1        3 0.11371574E+00 0.30000000E+03</pdfrwt>
<pdfrwt beam="2">0</pdfrwt>
<totfact> 0.27331013E+00</totfact>
</mgrwt>
</event>
<event>
 6    1  0.1875959E-004  0.3000000E+03  0.7818608E-02  0.1093470E+00
          1   -1    0    0  502    0  0.00000000000E+00  0.00000000000E+00  0.34323032236E+02  0.34323032236E+02  0.00000000000E+00 0.  1.
         13   -1    0    0    0    0 -0.00000000000E+00 -0.00000000000E+00 -0.10000000000E+04  0.10000000000E+04  0.00000000000E+00 0.  1.
    9000005    2    1    2  501    0  0.17227431323E+01 -0.27304220462E+02 -0.91826730059E+03  0.97958579774E+03  0.34003677962E+03 0.  0.
         13    1    3    3    0    0  0.32260125728E+02  0.13790750895E+03 -0.63184328795E+03  0.64752230638E+03  0.00000000000E+00 0.  1.
          1    1    3    3  501    0 -0.30537382596E+02 -0.16521172942E+03 -0.28642401264E+03  0.33206349135E+03  0.00000000000E+00 0.  1.
         21    1    1    2  502  501 -0.17227431323E+01  0.27304220462E+02 -0.47409667174E+02  0.54737234498E+02  0.00000000000E+00 0.  1.
<mgrwt>
<rscale>  1 0.30000000E+03</rscale>
<asrwt>0</asrwt>
<pdfrwt beam="1">  1        1 0.12481129E+00 0.30000000E+03</pdfrwt>
<pdfrwt beam="2">0</pdfrwt>
<totfact> 0.24432744E+01</totfact>
</mgrwt>
</event>
<event>
 6    1  0.1875959E-004  0.3000000E+03  0.7818608E-02  0.1093470E+00
          1   -1    0    0  502    0  0.00000000000E+00  0.00000000000E+00  0.82486086115E+02  0.82486086115E+02  0.00000000000E+00 0.  1.
         13   -1    0    0    0    0 -0.00000000000E+00 -0.00000000000E+00 -0.10000000000E+04  0.10000000000E+04  0.00000000000E+00 0.  1.
    9000005    2    1    2  501    0 -0.26652586935E+02 -0.35114384751E+02 -0.97998922016E+03  0.10060233874E+04  0.22307129774E+03 0.  0.
         13    1    3    3    0    0  0.14017909754E+02  0.92441622460E+02 -0.40599500376E+03  0.41662200907E+03  0.00000000000E+00 0.  1.
          3    1    3    3  501    0 -0.40670496690E+02 -0.12755600721E+03 -0.57399421640E+03  0.58940137829E+03  0.00000000000E+00 0.  1.
         21    1    1    2  502  501  0.26652586935E+02  0.35114384751E+02  0.62475306276E+02  0.76462698756E+02  0.00000000000E+00 0.  1.
<mgrwt>
<rscale>  1 0.30000000E+03</rscale>
<asrwt>0</asrwt>
<pdfrwt beam="1">  1        1 0.29995004E+00 0.30000000E+03</pdfrwt>
<pdfrwt beam="2">0</pdfrwt>
<totfact> 0.34762924E+00</totfact>
</mgrwt>
</event>
<event>
 6    1  0.1875959E-004  0.3000000E+03  0.7818608E-02  0.1093470E+00
          1   -1    0    0  502    0  0.00000000000E+00  0.00000000000E+00  0.52749384112E+02  0.52749384112E+02  0.00000000000E+00 0.  1.
         13   -1    0    0    0    0 -0.00000000000E+00 -0.00000000000E+00 -0.10000000000E+04  0.10000000000E+04  0.00000000000E+00 0.  1.
    9000005    2    1    2  501    0 -0.22152957109E+02  0.51436659746E+01 -0.96974091936E+03  0.10207646290E+04  0.31787696734E+03 0.  0.
         13    1    3    3    0    0  0.21235983340E+02 -0.15244668237E+03 -0.42410028627E+03  0.45116738664E+03  0.00000000000E+00 0.  1.
          1    1    3    3  501    0 -0.43388940449E+02  0.15759034834E+03 -0.54564063309E+03  0.56959724238E+03  0.00000000000E+00 0.  1.
         21    1    1    2  502  501  0.22152957109E+02 -0.51436659746E+01  0.22490303471E+02  0.31984755096E+02  0.00000000000E+00 0.  1.
<mgrwt>
<rscale>  1 0.30000000E+03</rscale>
<asrwt>0</asrwt>
<pdfrwt beam="1">  1        1 0.19181635E+00 0.30000000E+03</pdfrwt>
<pdfrwt beam="2">0</pdfrwt>
<totfact> 0.11206939E+01</totfact>
</mgrwt>
</event>
<event>
 6    1  0.1875959E-004  0.3000000E+03  0.7818608E-02  0.1093470E+00
          1   -1    0    0  502    0  0.00000000000E+00  0.00000000000E+00  0.48944276015E+02  0.48944276015E+02  0.00000000000E+00 0.  1.
         13   -1    0    0    0    0 -0.00000000000E+00 -0.00000000000E+00 -0.10000000000E+04  0.10000000000E+04  0.00000000000E+00 0.  1.
    9000005    2    1    2  501    0  0.10543025497E+02 -0.16000164719E+02 -0.95501945009E+03  0.10293771663E+04  0.38365093485E+03 0.  0.
         13    1    3    3    0    0 -0.13862932753E+03 -0.66101198841E+02 -0.17152049484E+03  0.23023192457E+03  0.00000000000E+00 0.  1.
          1    1    3    3  501    0  0.14917235302E+03  0.50101034122E+02 -0.78349895525E+03  0.79914524174E+03  0.00000000000E+00 0.  1.
         21    1    1    2  502  501 -0.10543025497E+02  0.16000164719E+02  0.39637261031E+01  0.19567109707E+02  0.00000000000E+00 0.  1.
<mgrwt>
<rscale>  1 0.30000000E+03</rscale>
<asrwt>0</asrwt>
<pdfrwt beam="1">  1        1 0.17797956E+00 0.30000000E+03</pdfrwt>
<pdfrwt beam="2">0</pdfrwt>
<totfact> 0.13065465E+01</totfact>
</mgrwt>
</event>
<event>
 6    1  0.1875959E-004  0.3000000E+03  0.7818608E-02  0.1093470E+00
          1   -1    0    0  502    0  0.00000000000E+00  0.00000000000E+00  0.55536878126E+02  0.55536878126E+02  0.00000000000E+00 0.  1.
         13   -1    0    0    0    0 -0.00000000000E+00 -0.00000000000E+00 -0.10000000000E+04  0.10000000000E+04  0.00000000000E+00 0.  1.
    9000005    2    1    2  501    0  0.14545869754E+01 -0.15546299349E+02 -0.96494253509E+03  0.10297840217E+04  0.35930103276E+03 0.  0.
         13    1    3    3    0    0 -0.16637527424E+03 -0.73298260031E+02 -0.51083128289E+03  0.54221948174E+03  0.00000000000E+00 0.  1.
          3    1    3    3  501    0  0.16782986122E+03  0.57751960682E+02 -0.45411125220E+03  0.48756453999E+03  0.00000000000E+00 0.  1.
         21    1    1    2  502  501 -0.14545869754E+01  0.15546299349E+02  0.20479413217E+02  0.25752856394E+02  0.00000000000E+00 0. -1.
<mgrwt>
<rscale>  1 0.30000000E+03</rscale>
<asrwt>0</asrwt>
<pdfrwt beam="1">  1        1 0.20195271E+00 0.30000000E+03</pdfrwt>
<pdfrwt beam="2">0</pdfrwt>
<totfact> 0.10026923E+01</totfact>
</mgrwt>
</event>
<event>
 6    1  0.1875959E-004  0.3000000E+03  0.7818608E-02  0.1093470E+00
          1   -1    0    0  502    0  0.00000000000E+00  0.00000000000E+00  0.43846007869E+02  0.43846007869E+02  0.00000000000E+00 0.  1.
         13   -1    0    0    0    0 -0.00000000000E+00 -0.00000000000E+00 -0.10000000000E+04  0.10000000000E+04  0.00000000000E+00 0.  1.
    9000005    2    1    2  501    0  0.57003412862E+01  0.92119258418E+01 -0.97193324968E+03  0.10247060382E+04  0.32442390401E+03 0.  0.
         13    1    3    3    0    0 -0.92455719504E+02 -0.85070979694E+02 -0.17045952160E+03  0.21175830600E+03  0.00000000000E+00 0.  1.
          1    1    3    3  501    0  0.98156060790E+02  0.94282905536E+02 -0.80147372808E+03  0.81294773224E+03  0.00000000000E+00 0.  1.
         21    1    1    2  502  501 -0.57003412862E+01 -0.92119258418E+01  0.15779257554E+02  0.19139969630E+02  0.00000000000E+00 0.  1.
<mgrwt>
<rscale>  1 0.30000000E+03</rscale>
<asrwt>0</asrwt>
<pdfrwt beam="1">  1        1 0.15944036E+00 0.30000000E+03</pdfrwt>
<pdfrwt beam="2">0</pdfrwt>
<totfact> 0.16105873E+01</totfact>
</mgrwt>
</event>
<event>
 6    1  0.1875959E-004  0.3000000E+03  0.7818608E-02  0.1093470E+00
          3   -1    0    0  502    0  0.00000000000E+00  0.00000000000E+00  0.28820649642E+02  0.28820649642E+02  0.00000000000E+00 0.  1.
         13   -1    0    0    0    0 -0.00000000000E+00 -0.00000000000E+00 -0.10000000000E+04  0.10000000000E+04  0.00000000000E+00 0.  1.
    9000005    2    1    2  501    0  0.91828098529E+01 -0.44476314631E+01 -0.95985709583E+03  0.10135792957E+04  0.32544314224E+03 0.  0.
         13    1    3    3    0    0  0.30874452668E+02 -0.15932480108E+03 -0.59239149616E+03  0.61421926768E+03  0.00000000000E+00 0.  1.
          3    1    3    3  501    0 -0.21691642815E+02  0.15487716962E+03 -0.36746559967E+03  0.39936002802E+03  0.00000000000E+00 0.  1.
         21    1    1    2  502  501 -0.91828098529E+01  0.44476314631E+01 -0.11322254526E+02  0.15241353942E+02  0.00000000000E+00 0.  1.
<mgrwt>
<rscale>  1 0.30000000E+03</rscale>
<asrwt>0</asrwt>
<pdfrwt beam="1">  1        3 0.10480258E+00 0.30000000E+03</pdfrwt>
<pdfrwt beam="2">0</pdfrwt>
<totfact> 0.34536183E+00</totfact>
</mgrwt>
</event>
<event>
 6    1  0.1875959E-004  0.3000000E+03  0.7818608E-02  0.1093470E+00
          1   -1    0    0  502    0  0.00000000000E+00  0.00000000000E+00  0.25365018635E+02  0.25365018635E+02  0.00000000000E+00 0.  1.
         13   -1    0    0    0    0 -0.00000000000E+00 -0.00000000000E+00 -0.10000000000E+04  0.10000000000E+04  0.00000000000E+00 0.  1.
    9000005    2    1    2  501    0 -0.32330647913E+02 -0.62490189151E+01 -0.72058948729E+03  0.76919430585E+03  0.26706993451E+03 0.  0.
         13    1    3    3    0    0  0.63928372688E+02  0.45053987779E+02 -0.57193138433E+02  0.96890421266E+02  0.00000000000E+00 0.  1.
          1    1    3    3  501    0 -0.96259020601E+02 -0.51303006694E+02 -0.66339634886E+03  0.67230388458E+03  0.00000000000E+00 0.  1.
         21    1    1    2  502  501  0.32330647913E+02  0.62490189151E+01 -0.25404549407E+03  0.25617071279E+03  0.00000000000E+00 0. -1.
<mgrwt>
<rscale>  1 0.30000000E+03</rscale>
<asrwt>0</asrwt>
<pdfrwt beam="1">  1        1 0.92236626E-01 0.30000000E+03</pdfrwt>
<pdfrwt beam="2">0</pdfrwt>
<totfact> 0.38464885E+01</totfact>
</mgrwt>
</event>
<event>
 6    1  0.1875959E-004  0.3000000E+03  0.7818608E-02  0.1093470E+00
          1   -1    0    0  502    0  0.00000000000E+00  0.00000000000E+00  0.30783413435E+02  0.30783413435E+02  0.00000000000E+00 0.  1.
         13   -1    0    0    0    0 -0.00000000000E+00 -0.00000000000E+00 -0.10000000000E+04  0.10000000000E+04  0.00000000000E+00 0.  1.
    9000005    2    1    2  501    0  0.23754066701E+01  0.26787768392E+02 -0.92711430767E+03  0.98082514104E+03  0.31898870000E+03 0.  0.
         13    1    3    3    0    0 -0.33994422187E+02  0.59081973480E+02 -0.18120794733E+02  0.70531294698E+02  0.00000000000E+00 0.  1.
          3    1    3    3  501    0  0.36369828857E+02 -0.32294205087E+02 -0.90899351293E+03  0.91029384634E+03  0.00000000000E+00 0.  1.
         21    1    1    2  502  501 -0.23754066701E+01 -0.26787768392E+02 -0.42102278897E+02  0.49958272394E+02  0.00000000000E+00 0.  1.
<mgrwt>
<rscale>  1 0.30000000E+03</rscale>
<asrwt>0</asrwt>
<pdfrwt beam="1">  1        1 0.11193992E+00 0.30000000E+03</pdfrwt>
<pdfrwt beam="2">0</pdfrwt>
<totfact> 0.28933327E+01</totfact>
</mgrwt>
</event>
<event>
 6    1  0.1875959E-004  0.3000000E+03  0.7818608E-02  0.1093470E+00
          1   -1    0    0  502    0  0.00000000000E+00  0.00000000000E+00  0.32189419320E+02  0.32189419320E+02  0.00000000000E+00 0.  1.
         13   -1    0    0    0    0 -0.00000000000E+00 -0.00000000000E+00 -0.10000000000E+04  0.10000000000E+04  0.00000000000E+00 0.  1.
    9000005    2    1    2  501    0 -0.14140980516E+02 -0.18516657178E+02 -0.94719791932E+03  0.10010812897E+04  0.32316716449E+03 0.  0.
         13    1    3    3    0    0 -0.74410752702E+01  0.11502393450E+03 -0.13308348610E+03  0.17605990282E+03  0.00000000000E+00 0.  1.
          1    1    3    3  501    0 -0.66999052463E+01 -0.13354059167E+03 -0.81411443322E+03  0.82502138684E+03  0.00000000000E+00 0.  1.
         21    1    1    2  502  501  0.14140980516E+02  0.18516657178E+02 -0.20612661361E+02  0.31108129667E+02  0.00000000000E+00 0. -1.
<mgrwt>
<rscale>  1 0.30000000E+03</rscale>
<asrwt>0</asrwt>
<pdfrwt beam="1">  1        1 0.11705268E+00 0.30000000E+03</pdfrwt>
<pdfrwt beam="2">0</pdfrwt>
<totfact> 0.27019996E+01</totfact>
</mgrwt>
</event>
<event>
 6    1  0.1875959E-004  0.3000000E+03  0.7818608E-02  0.1093470E+00
          1   -1    0    0  502    0  0.00000000000E+00  0.00000000000E+00  0.34473799639E+02  0.34473799639E+02  0.00000000000E+00 0.  1.
         13   -1    0    0    0    0 -0.00000000000E+00 -0.00000000000E+00 -0.10000000000E+04  0.10000000000E+04  0.00000000000E+00 0.  1.
    9000005    2    1    2  501    0 -0.25435847350E+02  0.49699732148E+01 -0.92595983391E+03  0.98717495908E+03  0.34123467417E+03 0.  0.
         13    1    3    3    0    0 -0.10574231646E+03 -0.56323685411E+02 -0.85587551311E+03  0.86422027804E+03  0.00000000000E+00 0.  1.
          1    1    3    3  501    0  0.80306469107E+02  0.61293658626E+02 -0.70084320799E+02  0.12295468104E+03  0.00000000000E+00 0.  1.
         21    1    1    2  502  501  0.25435847350E+02 -0.49699732148E+01 -0.39566366447E+02  0.47298840556E+02  0.00000000000E+00 0.  1.
<mgrwt>
<rscale>  1 0.30000000E+03</rscale>
<asrwt>0</asrwt>
<pdfrwt beam="1">  1        1 0.12535954E+00 0.30000000E+03</pdfrwt>
<pdfrwt beam="2">0</pdfrwt>
<totfact> 0.24262412E+01</totfact>
</mgrwt>
</event>
<event>
 6    1  0.1875959E-004  0.3000000E+03  0.7818608E-02  0.1093470E+00
          1   -1    0    0  502    0  0.00000000000E+00  0.00000000000E+00  0.53610747214E+02  0.53610747214E+02  0.00000000000E+00 0.  1.
         13   -1    0    0    0    0 -0.00000000000E+00 -0.00000000000E+00 -0.10000000000E+04  0.10000000000E+04  0.00000000000E+00 0.  1.
    9000005    2    1    2  501    0  0.89650168811E+01 -0.29288111743E+02 -0.96609478875E+03  0.10171899679E+04  0.31685663158E+03 0.  0.
         13    1    3    3    0    0 -0.27339264597E+02  0.13561791619E+03 -0.57108288203E+03  0.58760132125E+03  0.00000000000E+00 0.  1.
          3    1    3    3  501    0  0.36304281478E+02 -0.16490602793E+03 -0.39501190671E+03  0.42958864667E+03  0.00000000000E+00 0.  1.
         21    1    1    2  502  501 -0.89650168811E+01  0.29288111743E+02  0.19705535960E+02  0.36420779297E+02  0.00000000000E+00 0.  1.
<mgrwt>
<rscale>  1 0.30000000E+03</rscale>
<asrwt>0</asrwt>
<pdfrwt beam="1">  1        1 0.19494858E+00 0.30000000E+03</pdfrwt>
<pdfrwt beam="2">0</pdfrwt>
<totfact> 0.10826825E+01</totfact>
</mgrwt>
</event>
<event>
 6    1  0.1875959E-004  0.3000000E+03  0.7818608E-02  0.1093470E+00
          1   -1    0    0  502    0  0.00000000000E+00  0.00000000000E+00  0.30860693463E+02  0.30860693463E+02  0.00000000000E+00 0.  1.
         13   -1    0    0    0    0 -0.00000000000E+00 -0.00000000000E+00 -0.10000000000E+04  0.10000000000E+04  0.00000000000E+00 0.  1.
    9000005    2    1    2  501    0  0.15062932108E+02 -0.19479035218E+01 -0.92856340729E+03  0.98753529847E+03  0.33580541703E+03 0.  0.
         13    1    3    3    0    0  0.11580109500E+03 -0.76991994184E+02 -0.17475340546E+03  0.22333027894E+03  0.00000000000E+00 0.  1.
          3    1    3    3  501    0 -0.10073816290E+03  0.75044090662E+02 -0.75381000183E+03  0.76420501953E+03  0.00000000000E+00 0.  1.
         21    1    1    2  502  501 -0.15062932108E+02  0.19479035218E+01 -0.40575899244E+02  0.43325394993E+02  0.00000000000E+00 0.  1.
<mgrwt>
<rscale>  1 0.30000000E+03</rscale>
<asrwt>0</asrwt>
<pdfrwt beam="1">  1        1 0.11222094E+00 0.30000000E+03</pdfrwt>
<pdfrwt beam="2">0</pdfrwt>
<totfact> 0.28823252E+01</totfact>
</mgrwt>
</event>
<event>
 6    1  0.1875959E-004  0.3000000E+03  0.7818608E-02  0.1093470E+00
          1   -1    0    0  502    0  0.00000000000E+00  0.00000000000E+00  0.26106075155E+02  0.26106075155E+02  0.00000000000E+00 0.  1.
         13   -1    0    0    0    0 -0.00000000000E+00 -0.00000000000E+00 -0.10000000000E+04  0.10000000000E+04  0.00000000000E+00 0.  1.
    9000005    2    1    2  501    0  0.20019617002E+02  0.39572608125E+01 -0.94193572535E+03  0.98818811776E+03  0.29808790719E+03 0.  0.
         13    1    3    3    0    0 -0.13714335227E+03  0.18558748018E+02 -0.37626786916E+03  0.40091175533E+03  0.00000000000E+00 0.  1.
          1    1    3    3  501    0  0.15716296928E+03 -0.14601487206E+02 -0.56566785619E+03  0.58727636243E+03  0.00000000000E+00 0.  1.
         21    1    1    2  502  501 -0.20019617002E+02 -0.39572608125E+01 -0.31958199490E+02  0.37917957391E+02  0.00000000000E+00 0. -1.
<mgrwt>
<rscale>  1 0.30000000E+03</rscale>
<asrwt>0</asrwt>
<pdfrwt beam="1">  1        1 0.94931383E-01 0.30000000E+03</pdfrwt>
<pdfrwt beam="2">0</pdfrwt>
<totfact> 0.36909463E+01</totfact>
</mgrwt>
</event>
<event>
 6    1  0.1875959E-004  0.3000000E+03  0.7818608E-02  0.1093470E+00
          1   -1    0    0  502    0  0.00000000000E+00  0.00000000000E+00  0.33870199345E+02  0.33870199345E+02  0.00000000000E+00 0.  1.
         13   -1    0    0    0    0 -0.00000000000E+00 -0.00000000000E+00 -0.10000000000E+04  0.10000000000E+04  0.00000000000E+00 0.  1.
    9000005    2    1    2  501    0 -0.77552765880E+01 -0.67205390398E+01 -0.97167374401E+03  0.10222063549E+04  0.31725487732E+03 0.  0.
         13    1    3    3    0    0 -0.79326580314E+02 -0.10405089908E+03 -0.80935417336E+03  0.81986186269E+03  0.00000000000E+00 0.  1.
          3    1    3    3  501    0  0.71571303726E+02  0.97330360043E+02 -0.16231957065E+03  0.20234449219E+03  0.00000000000E+00 0.  1.
         21    1    1    2  502  501  0.77552765880E+01  0.67205390398E+01  0.55439433560E+01  0.11663844472E+02  0.00000000000E+00 0.  1.
<mgrwt>
<rscale>  1 0.30000000E+03</rscale>
<asrwt>0</asrwt>
<pdfrwt beam="1">  1        1 0.12316462E+00 0.30000000E+03</pdfrwt>
<pdfrwt beam="2">0</pdfrwt>
<totfact> 0.24953592E+01</totfact>
</mgrwt>
</event>
<event>
 6    1  0.1875959E-004  0.3000000E+03  0.7818608E-02  0.1093470E+00
          1   -1    0    0  502    0  0.00000000000E+00  0.00000000000E+00  0.10495926525E+03  0.10495926525E+03  0.00000000000E+00 0.  1.
         13   -1    0    0    0    0 -0.00000000000E+00 -0.00000000000E+00 -0.10000000000E+04  0.10000000000E+04  0.00000000000E+00 0.  1.
    9000005    2    1    2  501    0 -0.11225462307E+02  0.18807096528E+00 -0.97677278362E+03  0.10224597247E+04  0.30201452199E+03 0.  0.
         13    1    3    3    0    0 -0.12937793881E+03 -0.82854261524E+02 -0.58769616791E+03  0.60744568933E+03  0.00000000000E+00 0.  1.
          3    1    3    3  501    0  0.11815247650E+03  0.83042332489E+02 -0.38907661571E+03  0.41501403540E+03  0.00000000000E+00 0.  1.
         21    1    1    2  502  501  0.11225462307E+02 -0.18807096528E+00  0.81732048864E+02  0.82499540521E+02  0.00000000000E+00 0.  1.
<mgrwt>
<rscale>  1 0.30000000E+03</rscale>
<asrwt>0</asrwt>
<pdfrwt beam="1">  1        1 0.38167086E+00 0.30000000E+03</pdfrwt>
<pdfrwt beam="2">0</pdfrwt>
<totfact> 0.13338927E+00</totfact>
</mgrwt>
</event>
<event>
 6    1  0.1875959E-004  0.3000000E+03  0.7818608E-02  0.1093470E+00
          1   -1    0    0  502    0  0.00000000000E+00  0.00000000000E+00  0.31658149709E+02  0.31658149709E+02  0.00000000000E+00 0.  1.
         13   -1    0    0    0    0 -0.00000000000E+00 -0.00000000000E+00 -0.10000000000E+04  0.10000000000E+04  0.00000000000E+00 0.  1.
    9000005    2    1    2  501    0 -0.12220892345E+02 -0.27564939436E+01 -0.96386969559E+03  0.10183559455E+04  0.32840081187E+03 0.  0.
         13    1    3    3    0    0 -0.74811217845E+02 -0.11727843611E+03 -0.20123899586E+03  0.24463867917E+03  0.00000000000E+00 0.  1.
          1    1    3    3  501    0  0.62590325499E+02  0.11452194216E+03 -0.76263069973E+03  0.77371726635E+03  0.00000000000E+00 0.  1.
         21    1    1    2  502  501  0.12220892345E+02  0.27564939436E+01 -0.44721547021E+01  0.13302204188E+02  0.00000000000E+00 0.  1.
<mgrwt>
<rscale>  1 0.30000000E+03</rscale>
<asrwt>0</asrwt>
<pdfrwt beam="1">  1        1 0.11512079E+00 0.30000000E+03</pdfrwt>
<pdfrwt beam="2">0</pdfrwt>
<totfact> 0.27721434E+01</totfact>
</mgrwt>
</event>
<event>
 6    1  0.1875959E-004  0.3000000E+03  0.7818608E-02  0.1093470E+00
          1   -1    0    0  502    0  0.00000000000E+00  0.00000000000E+00  0.28868846251E+02  0.28868846251E+02  0.00000000000E+00 0.  1.
         13   -1    0    0    0    0 -0.00000000000E+00 -0.00000000000E+00 -0.10000000000E+04  0.10000000000E+04  0.00000000000E+00 0.  1.
    9000005    2    1    2  501    0 -0.42542234222E+01  0.10511958521E+02 -0.96149399400E+03  0.10139868257E+04  0.32182290538E+03 0.  0.
         13    1    3    3    0    0  0.91480081222E+02 -0.32890955163E+02 -0.79029112901E+02  0.12528376143E+03  0.00000000000E+00 0.  1.
          3    1    3    3  501    0 -0.95734304644E+02  0.43402913684E+02 -0.88246488109E+03  0.88870306423E+03  0.00000000000E+00 0.  1.
         21    1    1    2  502  501  0.42542234222E+01 -0.10511958521E+02 -0.96371597528E+01  0.14882020594E+02  0.00000000000E+00 0. -1.
<mgrwt>
<rscale>  1 0.30000000E+03</rscale>
<asrwt>0</asrwt>
<pdfrwt beam="1">  1        1 0.10497784E+00 0.30000000E+03</pdfrwt>
<pdfrwt beam="2">0</pdfrwt>
<totfact> 0.31862712E+01</totfact>
</mgrwt>
</event>
<event>
 6    1  0.1875959E-004  0.3000000E+03  0.7818608E-02  0.1093470E+00
          1   -1    0    0  502    0  0.00000000000E+00  0.00000000000E+00  0.43414253195E+02  0.43414253195E+02  0.00000000000E+00 0.  1.
         13   -1    0    0    0    0 -0.00000000000E+00 -0.00000000000E+00 -0.10000000000E+04  0.10000000000E+04  0.00000000000E+00 0.  1.
    9000005    2    1    2  501    0 -0.62895523930E+01  0.66992183443E+02 -0.87256098258E+03  0.93576820303E+03  0.33131850293E+03 0.  0.
         13    1    3    3    0    0 -0.12322372804E+03  0.52870708668E+02 -0.76370036221E+03  0.77538225555E+03  0.00000000000E+00 0.  1.
          1    1    3    3  501    0  0.11693417564E+03  0.14121474775E+02 -0.10886062037E+03  0.16038594748E+03  0.00000000000E+00 0.  1.
         21    1    1    2  502  501  0.62895523930E+01 -0.66992183443E+02 -0.84024764229E+02  0.10764605016E+03  0.00000000000E+00 0. -1.
<mgrwt>
<rscale>  1 0.30000000E+03</rscale>
<asrwt>0</asrwt>
<pdfrwt beam="1">  1        1 0.15787034E+00 0.30000000E+03</pdfrwt>
<pdfrwt beam="2">0</pdfrwt>
<totfact> 0.16398506E+01</totfact>
</mgrwt>
</event>
<event>
 6    1  0.1875959E-004  0.3000000E+03  0.7818608E-02  0.1093470E+00
          1   -1    0    0  502    0  0.00000000000E+00  0.00000000000E+00  0.31359722270E+02  0.31359722270E+02  0.00000000000E+00 0.  1.
         13   -1    0    0    0    0 -0.00000000000E+00 -0.00000000000E+00 -0.10000000000E+04  0.10000000000E+04  0.00000000000E+00 0.  1.
    9000005    2    1    2  501    0  0.77746280093E+01 -0.22172107304E+02 -0.96378298978E+03  0.10073672145E+04  0.29216263667E+03 0.  0.
         13    1    3    3    0    0  0.37249486807E+02 -0.12016129760E+03 -0.19669825843E+03  0.23348761547E+03  0.00000000000E+00 0.  1.
          3    1    3    3  501    0 -0.29474858797E+02  0.97989190295E+02 -0.76708473136E+03  0.77387959903E+03  0.00000000000E+00 0.  1.
         21    1    1    2  502  501 -0.77746280093E+01  0.22172107304E+02 -0.48572879456E+01  0.23992507771E+02  0.00000000000E+00 0.  1.
<mgrwt>
<rscale>  1 0.30000000E+03</rscale>
<asrwt>0</asrwt>
<pdfrwt beam="1">  1        1 0.11403559E+00 0.30000000E+03</pdfrwt>
<pdfrwt beam="2">0</pdfrwt>
<totfact> 0.28126653E+01</totfact>
</mgrwt>
</event>
<event>
 6    1  0.1875959E-004  0.3000000E+03  0.7818608E-02  0.1093470E+00
          1   -1    0    0  502    0  0.00000000000E+00  0.00000000000E+00  0.39278019443E+02  0.39278019443E+02  0.00000000000E+00 0.  1.
         13   -1    0    0    0    0 -0.00000000000E+00 -0.00000000000E+00 -0.10000000000E+04  0.10000000000E+04  0.00000000000E+00 0.  1.
    9000005    2    1    2  501    0 -0.79229518320E+01  0.15369838763E+02 -0.96126860893E+03  0.10219776174E+04  0.34655722008E+03 0.  0.
         13    1    3    3    0    0  0.14118096684E+03  0.79860177118E+02 -0.29995164393E+03  0.34099956303E+03  0.00000000000E+00 0.  1.
          3    1    3    3  501    0 -0.14910391867E+03 -0.64490338355E+02 -0.66131696499E+03  0.68097805434E+03  0.00000000000E+00 0.  1.
         21    1    1    2  502  501  0.79229518320E+01 -0.15369838763E+02  0.54662836882E+00  0.17300402073E+02  0.00000000000E+00 0. -1.
<mgrwt>
<rscale>  1 0.30000000E+03</rscale>
<asrwt>0</asrwt>
<pdfrwt beam="1">  1        1 0.14282946E+00 0.30000000E+03</pdfrwt>
<pdfrwt beam="2">0</pdfrwt>
<totfact> 0.19555790E+01</totfact>
</mgrwt>
</event>
<event>
 6    1  0.1875959E-004  0.3000000E+03  0.7818608E-02  0.1093470E+00
          1   -1    0    0  502    0  0.00000000000E+00  0.00000000000E+00  0.52370052681E+02  0.52370052681E+02  0.00000000000E+00 0.  1.
         13   -1    0    0    0    0 -0.00000000000E+00 -0.00000000000E+00 -0.10000000000E+04  0.10000000000E+04  0.00000000000E+00 0.  1.
    9000005    2    1    2  501    0  0.17283342488E+02  0.25623003663E+02 -0.95840104417E+03  0.10196398102E+04  0.34666630768E+03 0.  0.
         13    1    3    3    0    0  0.25986493970E+02 -0.25763402799E+02  0.18738156041E+02  0.41111668470E+02  0.00000000000E+00 0.  1.
          3    1    3    3  501    0 -0.87031514817E+01  0.51386406461E+02 -0.97713920021E+03  0.97852814175E+03  0.00000000000E+00 0.  1.
         21    1    1    2  502  501 -0.17283342488E+02 -0.25623003663E+02  0.10771096847E+02  0.32730242461E+02  0.00000000000E+00 0.  1.
<mgrwt>
<rscale>  1 0.30000000E+03</rscale>
<asrwt>0</asrwt>
<pdfrwt beam="1">  1        1 0.19043696E+00 0.30000000E+03</pdfrwt>
<pdfrwt beam="2">0</pdfrwt>
<totfact> 0.11378922E+01</totfact>
</mgrwt>
</event>
<event>
 6    1  0.1875959E-004  0.3000000E+03  0.7818608E-02  0.1093470E+00
          1   -1    0    0  502    0  0.00000000000E+00  0.00000000000E+00  0.36930228803E+02  0.36930228803E+02  0.00000000000E+00 0.  1.
         13   -1    0    0    0    0 -0.00000000000E+00 -0.00000000000E+00 -0.10000000000E+04  0.10000000000E+04  0.00000000000E+00 0.  1.
    9000005    2    1    2  501    0  0.31199864172E+02  0.19481410504E+02 -0.93146688979E+03  0.98843590962E+03  0.32866704091E+03 0.  0.
         13    1    3    3    0    0 -0.11798807860E+03  0.88776403513E+02 -0.60640257511E+03  0.62412059701E+03  0.00000000000E+00 0.  1.
          3    1    3    3  501    0  0.14918794277E+03 -0.69294993009E+02 -0.32506431467E+03  0.36431531261E+03  0.00000000000E+00 0.  1.
         21    1    1    2  502  501 -0.31199864172E+02 -0.19481410504E+02 -0.31602881409E+02  0.48494319182E+02  0.00000000000E+00 0. -1.
<mgrwt>
<rscale>  1 0.30000000E+03</rscale>
<asrwt>0</asrwt>
<pdfrwt beam="1">  1        1 0.13429202E+00 0.30000000E+03</pdfrwt>
<pdfrwt beam="2">0</pdfrwt>
<totfact> 0.21690750E+01</totfact>
</mgrwt>
</event>
<event>
 6    1  0.1875959E-004  0.3000000E+03  0.7818608E-02  0.1093470E+00
          1   -1    0    0  502    0  0.00000000000E+00  0.00000000000E+00  0.44783202721E+02  0.44783202721E+02  0.00000000000E+00 0.  1.
         13   -1    0    0    0    0 -0.00000000000E+00 -0.00000000000E+00 -0.10000000000E+04  0.10000000000E+04  0.00000000000E+00 0.  1.
    9000005    2    1    2  501    0 -0.17411686829E+02  0.15950685082E+02 -0.96725029903E+03  0.10182804414E+04  0.31743396982E+03 0.  0.
         13    1    3    3    0    0  0.14936254254E+03  0.13457885913E+02 -0.50830904452E+03  0.52997015817E+03  0.00000000000E+00 0.  1.
          1    1    3    3  501    0 -0.16677422937E+03  0.24927991694E+01 -0.45894125451E+03  0.48831028324E+03  0.00000000000E+00 0.  1.
         21    1    1    2  502  501  0.17411686829E+02 -0.15950685082E+02  0.12033501749E+02  0.26502761312E+02  0.00000000000E+00 0.  1.
<mgrwt>
<rscale>  1 0.30000000E+03</rscale>
<asrwt>0</asrwt>
<pdfrwt beam="1">  1        1 0.16284835E+00 0.30000000E+03</pdfrwt>
<pdfrwt beam="2">0</pdfrwt>
<totfact> 0.15491354E+01</totfact>
</mgrwt>
</event>
<event>
 6    1  0.1875959E-004  0.3000000E+03  0.7818608E-02  0.1093470E+00
          1   -1    0    0  502    0  0.00000000000E+00  0.00000000000E+00  0.33684068365E+02  0.33684068365E+02  0.00000000000E+00 0.  1.
         13   -1    0    0    0    0 -0.00000000000E+00 -0.00000000000E+00 -0.10000000000E+04  0.10000000000E+04  0.00000000000E+00 0.  1.
    9000005    2    1    2  501    0 -0.19668233797E+02 -0.44955171722E+00 -0.96061690036E+03  0.10132018694E+04  0.32156827790E+03 0.  0.
         13    1    3    3    0    0  0.10531827383E+03 -0.11197239130E+03 -0.49848182135E+03  0.52164535983E+03  0.00000000000E+00 0.  1.
          3    1    3    3  501    0 -0.12498650762E+03  0.11152283958E+03 -0.46213507902E+03  0.49155650956E+03  0.00000000000E+00 0.  1.
         21    1    1    2  502  501  0.19668233797E+02  0.44955171722E+00 -0.56990312710E+01  0.20482198976E+02  0.00000000000E+00 0. -1.
<mgrwt>
<rscale>  1 0.30000000E+03</rscale>
<asrwt>0</asrwt>
<pdfrwt beam="1">  1        1 0.12248778E+00 0.30000000E+03</pdfrwt>
<pdfrwt beam="2">0</pdfrwt>
<totfact> 0.25171851E+01</totfact>
</mgrwt>
</event>
<event>
 6    1  0.1875959E-004  0.3000000E+03  0.7818608E-02  0.1093470E+00
          1   -1    0    0  502    0  0.00000000000E+00  0.00000000000E+00  0.30243962211E+02  0.30243962211E+02  0.00000000000E+00 0.  1.
         13   -1    0    0    0    0 -0.00000000000E+00 -0.00000000000E+00 -0.10000000000E+04  0.10000000000E+04  0.00000000000E+00 0.  1.
    9000005    2    1    2  501    0 -0.21518246606E+02  0.80346187915E+01 -0.90999233056E+03  0.96621825849E+03  0.32398162187E+03 0.  0.
         13    1    3    3    0    0 -0.77854329610E+02  0.13194258201E+03 -0.25705763325E+03  0.29924700232E+03  0.00000000000E+00 0.  1.
          3    1    3    3  501    0  0.56336083004E+02 -0.12390796321E+03 -0.65293469732E+03  0.66697125617E+03  0.00000000000E+00 0.  1.
         21    1    1    2  502  501  0.21518246606E+02 -0.80346187915E+01 -0.59763707226E+02  0.64025703725E+02  0.00000000000E+00 0.  1.
<mgrwt>
<rscale>  1 0.30000000E+03</rscale>
<asrwt>0</asrwt>
<pdfrwt beam="1">  1        1 0.10997828E+00 0.30000000E+03</pdfrwt>
<pdfrwt beam="2">0</pdfrwt>
<totfact> 0.29718501E+01</totfact>
</mgrwt>
</event>
<event>
 6    1  0.1875959E-004  0.3000000E+03  0.7818608E-02  0.1093470E+00
          1   -1    0    0  502    0  0.00000000000E+00  0.00000000000E+00  0.50886760929E+02  0.50886760929E+02  0.00000000000E+00 0.  1.
         13   -1    0    0    0    0 -0.00000000000E+00 -0.00000000000E+00 -0.10000000000E+04  0.10000000000E+04  0.00000000000E+00 0.  1.
    9000005    2    1    2  501    0 -0.40706541630E+01 -0.17226970681E+02 -0.97109827866E+03  0.10226612280E+04  0.32014181491E+03 0.  0.
         13    1    3    3    0    0 -0.53499569970E+02  0.10761783783E+03 -0.15780798200E+03  0.19836119124E+03  0.00000000000E+00 0.  1.
          3    1    3    3  501    0  0.49428915807E+02 -0.12484480851E+03 -0.81329029667E+03  0.82430003675E+03  0.00000000000E+00 0.  1.
         21    1    1    2  502  501  0.40706541630E+01  0.17226970681E+02  0.21985039591E+02  0.28225532944E+02  0.00000000000E+00 0.  1.
<mgrwt>
<rscale>  1 0.30000000E+03</rscale>
<asrwt>0</asrwt>
<pdfrwt beam="1">  1        1 0.18504316E+00 0.30000000E+03</pdfrwt>
<pdfrwt beam="2">0</pdfrwt>
<totfact> 0.12078601E+01</totfact>
</mgrwt>
</event>
<event>
 6    1  0.1875959E-004  0.3000000E+03  0.7818608E-02  0.1093470E+00
          1   -1    0    0  502    0  0.00000000000E+00  0.00000000000E+00  0.35491731696E+02  0.35491731696E+02  0.00000000000E+00 0.  1.
         13   -1    0    0    0    0 -0.00000000000E+00 -0.00000000000E+00 -0.10000000000E+04  0.10000000000E+04  0.00000000000E+00 0.  1.
    9000005    2    1    2  501    0  0.95670327942E+01  0.39552532881E+01 -0.96901964487E+03  0.10241990498E+04  0.33147767556E+03 0.  0.
         13    1    3    3    0    0  0.13388657033E+03 -0.39170902749E+02 -0.19904603948E+03  0.24306233598E+03  0.00000000000E+00 0.  1.
          1    1    3    3  501    0 -0.12431953754E+03  0.43126156037E+02 -0.76997360539E+03  0.78113671386E+03  0.00000000000E+00 0.  1.
         21    1    1    2  502  501 -0.95670327942E+01 -0.39552532881E+01  0.45113765659E+01  0.11292681859E+02  0.00000000000E+00 0. -1.
<mgrwt>
<rscale>  1 0.30000000E+03</rscale>
<asrwt>0</asrwt>
<pdfrwt beam="1">  1        1 0.12906111E+00 0.30000000E+03</pdfrwt>
<pdfrwt beam="2">0</pdfrwt>
<totfact> 0.23151168E+01</totfact>
</mgrwt>
</event>
<event>
 6    1  0.1875959E-004  0.3000000E+03  0.7818608E-02  0.1093470E+00
          1   -1    0    0  502    0  0.00000000000E+00  0.00000000000E+00  0.38774636725E+02  0.38774636725E+02  0.00000000000E+00 0.  1.
         13   -1    0    0    0    0 -0.00000000000E+00 -0.00000000000E+00 -0.10000000000E+04  0.10000000000E+04  0.00000000000E+00 0.  1.
    9000005    2    1    2  501    0 -0.10770306225E+01  0.13963715961E+02 -0.97070339654E+03  0.10218637387E+04  0.31897377793E+03 0.  0.
         13    1    3    3    0    0  0.10033366230E+03  0.12732025594E+03 -0.59105563677E+03  0.61288176439E+03  0.00000000000E+00 0.  1.
          3    1    3    3  501    0 -0.10141069292E+03 -0.11335653997E+03 -0.37964775977E+03  0.40898197429E+03  0.00000000000E+00 0.  1.
         21    1    1    2  502  501  0.10770306225E+01 -0.13963715961E+02  0.94780332622E+01  0.16910898052E+02  0.00000000000E+00 0.  1.
<mgrwt>
<rscale>  1 0.30000000E+03</rscale>
<asrwt>0</asrwt>
<pdfrwt beam="1">  1        1 0.14099898E+00 0.30000000E+03</pdfrwt>
<pdfrwt beam="2">0</pdfrwt>
<totfact> 0.19990060E+01</totfact>
</mgrwt>
</event>
<event>
 6    1  0.1875959E-004  0.3000000E+03  0.7818608E-02  0.1093470E+00
          1   -1    0    0  502    0  0.00000000000E+00  0.00000000000E+00  0.42650267994E+02  0.42650267994E+02  0.00000000000E+00 0.  1.
         13   -1    0    0    0    0 -0.00000000000E+00 -0.00000000000E+00 -0.10000000000E+04  0.10000000000E+04  0.00000000000E+00 0.  1.
    9000005    2    1    2  501    0 -0.25958084411E+01  0.19764373611E+02 -0.97010042855E+03  0.10189870276E+04  0.31119503881E+03 0.  0.
         13    1    3    3    0    0 -0.13923215269E+02 -0.11490307490E+03 -0.76276360111E+03  0.77149522599E+03  0.00000000000E+00 0.  1.
          1    1    3    3  501    0  0.11327406828E+02  0.13466744851E+03 -0.20733682744E+03  0.24749180157E+03  0.00000000000E+00 0.  1.
         21    1    1    2  502  501  0.25958084411E+01 -0.19764373611E+02  0.12750696540E+02  0.23663240436E+02  0.00000000000E+00 0.  1.
<mgrwt>
<rscale>  1 0.30000000E+03</rscale>
<asrwt>0</asrwt>
<pdfrwt beam="1">  1        1 0.15509221E+00 0.30000000E+03</pdfrwt>
<pdfrwt beam="2">0</pdfrwt>
<totfact> 0.16931887E+01</totfact>
</mgrwt>
</event>
<event>
 6    1  0.1875959E-004  0.3000000E+03  0.7818608E-02  0.1093470E+00
          1   -1    0    0  502    0  0.00000000000E+00  0.00000000000E+00  0.32217394824E+02  0.32217394824E+02  0.00000000000E+00 0.  1.
         13   -1    0    0    0    0 -0.00000000000E+00 -0.00000000000E+00 -0.10000000000E+04  0.10000000000E+04  0.00000000000E+00 0.  1.
    9000005    2    1    2  501    0  0.23630707760E+02  0.52874047320E+02 -0.80619589057E+03  0.86056559156E+03  0.29541030477E+03 0.  0.
         13    1    3    3    0    0  0.14480485937E+02 -0.68091984313E+02 -0.31466646443E+02  0.76396025021E+02  0.00000000000E+00 0.  1.
          3    1    3    3  501    0  0.91502218226E+01  0.12096603163E+03 -0.77472924413E+03  0.78416956654E+03  0.00000000000E+00 0.  1.
         21    1    1    2  502  501 -0.23630707760E+02 -0.52874047320E+02 -0.16158671460E+03  0.17165180327E+03  0.00000000000E+00 0.  1.
<mgrwt>
<rscale>  1 0.30000000E+03</rscale>
<asrwt>0</asrwt>
<pdfrwt beam="1">  1        1 0.11715441E+00 0.30000000E+03</pdfrwt>
<pdfrwt beam="2">0</pdfrwt>
<totfact> 0.26983744E+01</totfact>
</mgrwt>
</event>
<event>
 6    1  0.1875959E-004  0.3000000E+03  0.7818608E-02  0.1093470E+00
          1   -1    0    0  502    0  0.00000000000E+00  0.00000000000E+00  0.42221845928E+02  0.42221845928E+02  0.00000000000E+00 0.  1.
         13   -1    0    0    0    0 -0.00000000000E+00 -0.00000000000E+00 -0.10000000000E+04  0.10000000000E+04  0.00000000000E+00 0.  1.
    9000005    2    1    2  501    0  0.96472858034E+01 -0.36258123257E+02 -0.94836788022E+03  0.10035401335E+04  0.32601141331E+03 0.  0.
         13    1    3    3    0    0 -0.11473852383E+03 -0.60415159825E+02 -0.79072068033E+03  0.80128279321E+03  0.00000000000E+00 0.  1.
          1    1    3    3  501    0  0.12438580963E+03  0.24157036568E+02 -0.15764719989E+03  0.20225734025E+03  0.00000000000E+00 0.  1.
         21    1    1    2  502  501 -0.96472858034E+01  0.36258123257E+02 -0.94102738521E+01  0.38681712468E+02  0.00000000000E+00 0. -1.
<mgrwt>
<rscale>  1 0.30000000E+03</rscale>
<asrwt>0</asrwt>
<pdfrwt beam="1">  1        1 0.15353431E+00 0.30000000E+03</pdfrwt>
<pdfrwt beam="2">0</pdfrwt>
<totfact> 0.17240084E+01</totfact>
</mgrwt>
</event>
<event>
 6    1  0.1875959E-004  0.3000000E+03  0.7818608E-02  0.1093470E+00
          1   -1    0    0  502    0  0.00000000000E+00  0.00000000000E+00  0.29993030272E+02  0.29993030272E+02  0.00000000000E+00 0.  1.
         13   -1    0    0    0    0 -0.00000000000E+00 -0.00000000000E+00 -0.10000000000E+04  0.10000000000E+04  0.00000000000E+00 0.  1.
    9000005    2    1    2  501    0 -0.11069061832E+02 -0.14112831155E+02 -0.95428463553E+03  0.10061416587E+04  0.31833971734E+03 0.  0.
         13    1    3    3    0    0 -0.31514376211E+02 -0.10559261255E+03 -0.10669467535E+03  0.15338418914E+03  0.00000000000E+00 0.  1.
          1    1    3    3  501    0  0.20445314380E+02  0.91479781390E+02 -0.84758996019E+03  0.85275746956E+03  0.00000000000E+00 0.  1.
         21    1    1    2  502  501  0.11069061832E+02  0.14112831155E+02 -0.15722334196E+02  0.23851371567E+02  0.00000000000E+00 0.  1.
<mgrwt>
<rscale>  1 0.30000000E+03</rscale>
<asrwt>0</asrwt>
<pdfrwt beam="1">  1        1 0.10906579E+00 0.30000000E+03</pdfrwt>
<pdfrwt beam="2">0</pdfrwt>
<totfact> 0.30094056E+01</totfact>
</mgrwt>
</event>
<event>
 6    1  0.1875959E-004  0.3000000E+03  0.7818608E-02  0.1093470E+00
          1   -1    0    0  502    0  0.00000000000E+00  0.00000000000E+00  0.64253772538E+02  0.64253772538E+02  0.00000000000E+00 0.  1.
         13   -1    0    0    0    0 -0.00000000000E+00 -0.00000000000E+00 -0.10000000000E+04  0.10000000000E+04  0.00000000000E+00 0.  1.
    9000005    2    1    2  501    0 -0.83809281385E+02 -0.46463101300E+02 -0.89654960336E+03  0.96072024768E+03  0.33166155578E+03 0.  0.
         13    1    3    3    0    0  0.90488462242E+01  0.99003518520E+01 -0.83648862318E+03  0.83659614827E+03  0.00000000000E+00 0.  1.
          3    1    3    3  501    0 -0.92858127610E+02 -0.56363453152E+02 -0.60060980182E+02  0.12412409941E+03  0.00000000000E+00 0.  1.
         21    1    1    2  502  501  0.83809281385E+02  0.46463101300E+02 -0.39196624097E+02  0.10353352486E+03  0.00000000000E+00 0.  1.
<mgrwt>
<rscale>  1 0.30000000E+03</rscale>
<asrwt>0</asrwt>
<pdfrwt beam="1">  1        1 0.23365057E+00 0.30000000E+03</pdfrwt>
<pdfrwt beam="2">0</pdfrwt>
<totfact> 0.71149446E+00</totfact>
</mgrwt>
</event>
<event>
 6    1  0.1875959E-004  0.3000000E+03  0.7818608E-02  0.1093470E+00
          1   -1    0    0  502    0  0.00000000000E+00  0.00000000000E+00  0.30431571773E+02  0.30431571773E+02  0.00000000000E+00 0.  1.
         13   -1    0    0    0    0 -0.00000000000E+00 -0.00000000000E+00 -0.10000000000E+04  0.10000000000E+04  0.00000000000E+00 0.  1.
    9000005    2    1    2  501    0 -0.12122144697E+02  0.58121404184E+01 -0.93952978002E+03  0.99752188088E+03  0.33489247219E+03 0.  0.
         13    1    3    3    0    0  0.15223542820E+03  0.16703212178E+02 -0.29633192193E+03  0.33356743074E+03  0.00000000000E+00 0.  1.
          1    1    3    3  501    0 -0.16435757290E+03 -0.10891071759E+02 -0.64319785809E+03  0.66395445014E+03  0.00000000000E+00 0.  1.
         21    1    1    2  502  501  0.12122144697E+02 -0.58121404184E+01 -0.30038648206E+02  0.32909690888E+02  0.00000000000E+00 0.  1.
<mgrwt>
<rscale>  1 0.30000000E+03</rscale>
<asrwt>0</asrwt>
<pdfrwt beam="1">  1        1 0.11066049E+00 0.30000000E+03</pdfrwt>
<pdfrwt beam="2">0</pdfrwt>
<totfact> 0.29442052E+01</totfact>
</mgrwt>
</event>
<event>
 6    1  0.1875959E-004  0.3000000E+03  0.7818608E-02  0.1093470E+00
          1   -1    0    0  502    0  0.00000000000E+00  0.00000000000E+00  0.46269441345E+02  0.46269441345E+02  0.00000000000E+00 0.  1.
         13   -1    0    0    0    0 -0.00000000000E+00 -0.00000000000E+00 -0.10000000000E+04  0.10000000000E+04  0.00000000000E+00 0.  1.
    9000005    2    1    2  501    0 -0.15144017641E+02 -0.31119782696E+02 -0.95748737799E+03  0.10114571470E+04  0.32413839496E+03 0.  0.
         13    1    3    3    0    0  0.15174553844E+03  0.13944967769E+02 -0.41499466927E+03  0.44208793932E+03  0.00000000000E+00 0.  1.
          1    1    3    3  501    0 -0.16688955608E+03 -0.45064750466E+02 -0.54249270871E+03  0.56936920769E+03  0.00000000000E+00 0.  1.
         21    1    1    2  502  501  0.15144017641E+02  0.31119782696E+02  0.37568193309E+01  0.34812294335E+02  0.00000000000E+00 0.  1.
<mgrwt>
<rscale>  1 0.30000000E+03</rscale>
<asrwt>0</asrwt>
<pdfrwt beam="1">  1        1 0.16825287E+00 0.30000000E+03</pdfrwt>
<pdfrwt beam="2">0</pdfrwt>
<totfact> 0.14571242E+01</totfact>
</mgrwt>
</event>
<event>
 6    1  0.1875959E-004  0.3000000E+03  0.7818608E-02  0.1093470E+00
          3   -1    0    0  502    0  0.00000000000E+00  0.00000000000E+00  0.35347047828E+02  0.35347047828E+02  0.00000000000E+00 0.  1.
         13   -1    0    0    0    0 -0.00000000000E+00 -0.00000000000E+00 -0.10000000000E+04  0.10000000000E+04  0.00000000000E+00 0.  1.
    9000005    2    1    2  501    0  0.27834128949E+02 -0.24576016246E+02 -0.86518730266E+03  0.92917673775E+03  0.33681095883E+03 0.  0.
         13    1    3    3    0    0  0.28683360608E+02  0.10372160361E+03 -0.81334606734E+02  0.13489338191E+03  0.00000000000E+00 0.  1.
          3    1    3    3  501    0 -0.84923165948E+00 -0.12829761985E+03 -0.78385269592E+03  0.79428335584E+03  0.00000000000E+00 0.  1.
         21    1    1    2  502  501 -0.27834128949E+02  0.24576016246E+02 -0.99465649516E+02  0.10617031008E+03  0.00000000000E+00 0. -1.
<mgrwt>
<rscale>  1 0.30000000E+03</rscale>
<asrwt>0</asrwt>
<pdfrwt beam="1">  1        3 0.12853499E+00 0.30000000E+03</pdfrwt>
<pdfrwt beam="2">0</pdfrwt>
<totfact> 0.18405794E+00</totfact>
</mgrwt>
</event>
<event>
 6    1  0.1875959E-004  0.3000000E+03  0.7818608E-02  0.1093470E+00
          1   -1    0    0  502    0  0.00000000000E+00  0.00000000000E+00  0.42280895257E+02  0.42280895257E+02  0.00000000000E+00 0.  1.
         13   -1    0    0    0    0 -0.00000000000E+00 -0.00000000000E+00 -0.10000000000E+04  0.10000000000E+04  0.00000000000E+00 0.  1.
    9000005    2    1    2  501    0 -0.12064306993E+02  0.51579893590E+02 -0.91198589326E+03  0.97229832915E+03  0.33292602548E+03 0.  0.
         13    1    3    3    0    0  0.96208966355E+02  0.64604399499E+02 -0.10013729365E+03  0.15315799431E+03  0.00000000000E+00 0.  1.
          3    1    3    3  501    0 -0.10827327335E+03 -0.13024505909E+02 -0.81184859961E+03  0.81914033484E+03  0.00000000000E+00 0.  1.
         21    1    1    2  502  501  0.12064306993E+02 -0.51579893590E+02 -0.45733211483E+02  0.69982566103E+02  0.00000000000E+00 0. -1.
<mgrwt>
<rscale>  1 0.30000000E+03</rscale>
<asrwt>0</asrwt>
<pdfrwt beam="1">  1        1 0.15374903E+00 0.30000000E+03</pdfrwt>
<pdfrwt beam="2">0</pdfrwt>
<totfact> 0.17197205E+01</totfact>
</mgrwt>
</event>
<event>
 6    1  0.1875959E-004  0.3000000E+03  0.7818608E-02  0.1093470E+00
          1   -1    0    0  502    0  0.00000000000E+00  0.00000000000E+00  0.48527753669E+02  0.48527753669E+02  0.00000000000E+00 0.  1.
         13   -1    0    0    0    0 -0.00000000000E+00 -0.00000000000E+00 -0.10000000000E+04  0.10000000000E+04  0.00000000000E+00 0.  1.
    9000005    2    1    2  501    0  0.15346327609E+02 -0.81904765487E+01 -0.97023911925E+03  0.10229389046E+04  0.32363167393E+03 0.  0.
         13    1    3    3    0    0 -0.33144614825E+01 -0.13399186808E+02  0.24441432197E+02  0.28069689522E+02  0.00000000000E+00 0.  1.
          3    1    3    3  501    0  0.18660789092E+02  0.52087102588E+01 -0.99468055144E+03  0.99486921509E+03  0.00000000000E+00 0.  1.
         21    1    1    2  502  501 -0.15346327609E+02  0.81904765487E+01  0.18766872914E+02  0.25588849059E+02  0.00000000000E+00 0.  1.
<mgrwt>
<rscale>  1 0.30000000E+03</rscale>
<asrwt>0</asrwt>
<pdfrwt beam="1">  1        1 0.17646493E+00 0.30000000E+03</pdfrwt>
<pdfrwt beam="2">0</pdfrwt>
<totfact> 0.13288354E+01</totfact>
</mgrwt>
</event>
<event>
 6    1  0.1875959E-004  0.3000000E+03  0.7818608E-02  0.1093470E+00
          1   -1    0    0  502    0  0.00000000000E+00  0.00000000000E+00  0.31220023608E+02  0.31220023608E+02  0.00000000000E+00 0.  1.
         13   -1    0    0    0    0 -0.00000000000E+00 -0.00000000000E+00 -0.10000000000E+04  0.10000000000E+04  0.00000000000E+00 0.  1.
    9000005    2    1    2  501    0 -0.89097577962E+01  0.62397873304E+00 -0.94870641073E+03  0.10092491071E+04  0.34418037902E+03 0.  0.
         13    1    3    3    0    0 -0.84779023953E+02 -0.35276815863E+02 -0.46099037275E+02  0.10274754439E+03  0.00000000000E+00 0.  1.
          3    1    3    3  501    0  0.75869266157E+02  0.35900794596E+02 -0.90260737346E+03  0.90650156272E+03  0.00000000000E+00 0.  1.
         21    1    1    2  502  501  0.89097577962E+01 -0.62397873304E+00 -0.20073565658E+02  0.21970916496E+02  0.00000000000E+00 0. -1.
<mgrwt>
<rscale>  1 0.30000000E+03</rscale>
<asrwt>0</asrwt>
<pdfrwt beam="1">  1        1 0.11352760E+00 0.30000000E+03</pdfrwt>
<pdfrwt beam="2">0</pdfrwt>
<totfact> 0.28319221E+01</totfact>
</mgrwt>
</event>
<event>
 6    1  0.1875959E-004  0.3000000E+03  0.7818608E-02  0.1093470E+00
          1   -1    0    0  502    0  0.00000000000E+00  0.00000000000E+00  0.41275136885E+02  0.41275136885E+02  0.00000000000E+00 0.  1.
         13   -1    0    0    0    0 -0.00000000000E+00 -0.00000000000E+00 -0.10000000000E+04  0.10000000000E+04  0.00000000000E+00 0.  1.
    9000005    2    1    2  501    0 -0.38704269926E+02  0.27394582210E+02 -0.93328572994E+03  0.98746404935E+03  0.31908386266E+03 0.  0.
         13    1    3    3    0    0 -0.10121011996E+03 -0.12278469278E+03 -0.49625128547E+03  0.52113808870E+03  0.00000000000E+00 0.  1.
          3    1    3    3  501    0  0.62505850036E+02  0.15017927499E+03 -0.43703444447E+03  0.46632596065E+03  0.00000000000E+00 0.  1.
         21    1    1    2  502  501  0.38704269926E+02 -0.27394582210E+02 -0.25439133178E+02  0.53811087536E+02  0.00000000000E+00 0.  1.
<mgrwt>
<rscale>  1 0.30000000E+03</rscale>
<asrwt>0</asrwt>
<pdfrwt beam="1">  1        1 0.15009172E+00 0.30000000E+03</pdfrwt>
<pdfrwt beam="2">0</pdfrwt>
<totfact> 0.17945675E+01</totfact>
</mgrwt>
</event>
<event>
 6    1  0.1875959E-004  0.3000000E+03  0.7818608E-02  0.1093470E+00
          1   -1    0    0  502    0  0.00000000000E+00  0.00000000000E+00  0.38469248592E+02  0.38469248592E+02  0.00000000000E+00 0.  1.
         13   -1    0    0    0    0 -0.00000000000E+00 -0.00000000000E+00 -0.10000000000E+04  0.10000000000E+04  0.00000000000E+00 0.  1.
    9000005    2    1    2  501    0 -0.17069987983E+02  0.54671766140E+02 -0.81305609852E+03  0.87933060133E+03  0.32997227246E+03 0.  0.
         13    1    3    3    0    0  0.94428869274E+02  0.13336512044E+02 -0.72529595095E+03  0.73153871419E+03  0.00000000000E+00 0.  1.
          1    1    3    3  501    0 -0.11149885726E+03  0.41335254097E+02 -0.87760147575E+02  0.14779188714E+03  0.00000000000E+00 0.  1.
         21    1    1    2  502  501  0.17069987983E+02 -0.54671766140E+02 -0.14847465289E+03  0.15913864726E+03  0.00000000000E+00 0.  1.
<mgrwt>
<rscale>  1 0.30000000E+03</rscale>
<asrwt>0</asrwt>
<pdfrwt beam="1">  1        1 0.13988847E+00 0.30000000E+03</pdfrwt>
<pdfrwt beam="2">0</pdfrwt>
<totfact> 0.20259500E+01</totfact>
</mgrwt>
</event>
<event>
 6    1  0.1875959E-004  0.3000000E+03  0.7818608E-02  0.1093470E+00
          1   -1    0    0  502    0  0.00000000000E+00  0.00000000000E+00  0.66178946432E+02  0.66178946432E+02  0.00000000000E+00 0.  1.
         13   -1    0    0    0    0 -0.00000000000E+00 -0.00000000000E+00 -0.10000000000E+04  0.10000000000E+04  0.00000000000E+00 0.  1.
    9000005    2    1    2  501    0  0.10265838836E+02 -0.35907094985E+01 -0.96724280277E+03  0.10310321975E+04  0.35686197905E+03 0.  0.
         13    1    3    3    0    0 -0.90081986500E+02 -0.13094959317E+03 -0.70513985626E+03  0.72283108478E+03  0.00000000000E+00 0.  1.
          1    1    3    3  501    0  0.10034782534E+03  0.12735888367E+03 -0.26210294651E+03  0.30820111270E+03  0.00000000000E+00 0.  1.
         21    1    1    2  502  501 -0.10265838836E+02  0.35907094985E+01  0.33421749204E+02  0.35146748947E+02  0.00000000000E+00 0.  1.
<mgrwt>
<rscale>  1 0.30000000E+03</rscale>
<asrwt>0</asrwt>
<pdfrwt beam="1">  1        1 0.24065122E+00 0.30000000E+03</pdfrwt>
<pdfrwt beam="2">0</pdfrwt>
<totfact> 0.65973015E+00</totfact>
</mgrwt>
</event>
<event>
 6    1  0.1875959E-004  0.3000000E+03  0.7818608E-02  0.1093470E+00
          1   -1    0    0  502    0  0.00000000000E+00  0.00000000000E+00  0.52775006173E+02  0.52775006173E+02  0.00000000000E+00 0.  1.
         13   -1    0    0    0    0 -0.00000000000E+00 -0.00000000000E+00 -0.10000000000E+04  0.10000000000E+04  0.00000000000E+00 0.  1.
    9000005    2    1    2  501    0 -0.75327131678E+02 -0.45297389649E+02 -0.87070571350E+03  0.93623646947E+03  0.33269243599E+03 0.  0.
         13    1    3    3    0    0 -0.44837180830E+02 -0.70273487903E+02 -0.88891828648E+03  0.89281826590E+03  0.00000000000E+00 0.  1.
          3    1    3    3  501    0 -0.30489950848E+02  0.24976098254E+02  0.18212572977E+02  0.43418203569E+02  0.00000000000E+00 0.  1.
         21    1    1    2  502  501  0.75327131678E+02  0.45297389649E+02 -0.76519280323E+02  0.11653853670E+03  0.00000000000E+00 0.  1.
<mgrwt>
<rscale>  1 0.30000000E+03</rscale>
<asrwt>0</asrwt>
<pdfrwt beam="1">  1        1 0.19190952E+00 0.30000000E+03</pdfrwt>
<pdfrwt beam="2">0</pdfrwt>
<totfact> 0.11195423E+01</totfact>
</mgrwt>
</event>
<event>
 6    1  0.1875959E-004  0.3000000E+03  0.7818608E-02  0.1093470E+00
          1   -1    0    0  502    0  0.00000000000E+00  0.00000000000E+00  0.33693441777E+02  0.33693441777E+02  0.00000000000E+00 0.  1.
         13   -1    0    0    0    0 -0.00000000000E+00 -0.00000000000E+00 -0.10000000000E+04  0.10000000000E+04  0.00000000000E+00 0.  1.
    9000005    2    1    2  501    0 -0.52716676484E+01  0.34451044725E+02 -0.92690887393E+03  0.98109265766E+03  0.31963741548E+03 0.  0.
         13    1    3    3    0    0 -0.15384130847E+03  0.61955381367E+02 -0.40191673770E+03  0.43479038802E+03  0.00000000000E+00 0.  1.
          1    1    3    3  501    0  0.14856964082E+03 -0.27504336641E+02 -0.52499213622E+03  0.54630226963E+03  0.00000000000E+00 0.  1.
         21    1    1    2  502  501  0.52716676484E+01 -0.34451044725E+02 -0.39397684294E+02  0.52600784122E+02  0.00000000000E+00 0.  1.
<mgrwt>
<rscale>  1 0.30000000E+03</rscale>
<asrwt>0</asrwt>
<pdfrwt beam="1">  1        1 0.12252186E+00 0.30000000E+03</pdfrwt>
<pdfrwt beam="2">0</pdfrwt>
<totfact> 0.25160801E+01</totfact>
</mgrwt>
</event>
<event>
 6    1  0.1875959E-004  0.3000000E+03  0.7818608E-02  0.1093470E+00
          1   -1    0    0  502    0  0.00000000000E+00  0.00000000000E+00  0.30202037729E+02  0.30202037729E+02  0.00000000000E+00 0.  1.
         13   -1    0    0    0    0 -0.00000000000E+00 -0.00000000000E+00 -0.10000000000E+04  0.10000000000E+04  0.00000000000E+00 0.  1.
    9000005    2    1    2  501    0  0.13535828752E+01 -0.96038745187E+01 -0.96281383488E+03  0.10182502752E+04  0.33125379348E+03 0.  0.
         13    1    3    3    0    0 -0.13214554418E+01  0.14156065822E+03 -0.23057451881E+03  0.27056565733E+03  0.00000000000E+00 0.  1.
          3    1    3    3  501    0  0.26750383170E+01 -0.15116453274E+03 -0.73223931607E+03  0.74768461786E+03  0.00000000000E+00 0.  1.
         21    1    1    2  502  501 -0.13535828752E+01  0.96038745187E+01 -0.69841273908E+01  0.11951762539E+02  0.00000000000E+00 0.  1.
<mgrwt>
<rscale>  1 0.30000000E+03</rscale>
<asrwt>0</asrwt>
<pdfrwt beam="1">  1        1 0.10982582E+00 0.30000000E+03</pdfrwt>
<pdfrwt beam="2">0</pdfrwt>
<totfact> 0.29780782E+01</totfact>
</mgrwt>
</event>
<event>
 6    1  0.1875959E-004  0.3000000E+03  0.7818608E-02  0.1093470E+00
          1   -1    0    0  502    0  0.00000000000E+00  0.00000000000E+00  0.38310626511E+02  0.38310626511E+02  0.00000000000E+00 0.  1.
         13   -1    0    0    0    0 -0.00000000000E+00 -0.00000000000E+00 -0.10000000000E+04  0.10000000000E+04  0.00000000000E+00 0.  1.
    9000005    2    1    2  501    0 -0.28257606409E+02 -0.39372853314E+02 -0.86481858837E+03  0.92999320913E+03  0.33856677974E+03 0.  0.
         13    1    3    3    0    0  0.82591619257E+02  0.51005870172E+02 -0.63467618625E+02  0.11597893333E+03  0.00000000000E+00 0.  1.
          1    1    3    3  501    0 -0.11084922567E+03 -0.90378723486E+02 -0.80135096974E+03  0.81401427579E+03  0.00000000000E+00 0.  1.
         21    1    1    2  502  501  0.28257606409E+02  0.39372853314E+02 -0.96870785124E+02  0.10831741738E+03  0.00000000000E+00 0.  1.
<mgrwt>
<rscale>  1 0.30000000E+03</rscale>
<asrwt>0</asrwt>
<pdfrwt beam="1">  1        1 0.13931166E+00 0.30000000E+03</pdfrwt>
<pdfrwt beam="2">0</pdfrwt>
<totfact> 0.20401276E+01</totfact>
</mgrwt>
</event>
<event>
 6    1  0.1875959E-004  0.3000000E+03  0.7818608E-02  0.1093470E+00
          1   -1    0    0  502    0  0.00000000000E+00  0.00000000000E+00  0.30474385289E+02  0.30474385289E+02  0.00000000000E+00 0.  1.
         13   -1    0    0    0    0 -0.00000000000E+00 -0.00000000000E+00 -0.10000000000E+04  0.10000000000E+04  0.00000000000E+00 0.  1.
    9000005    2    1    2  501    0  0.21496324122E+01 -0.11600940473E+02 -0.95727314076E+03  0.10134648040E+04  0.33256554255E+03 0.  0.
         13    1    3    3    0    0 -0.11124487239E+03 -0.25533814875E+02 -0.84708194239E+03  0.85473692705E+03  0.00000000000E+00 0.  1.
          1    1    3    3  501    0  0.11339450480E+03  0.13932874402E+02 -0.11019119837E+03  0.15872787690E+03  0.00000000000E+00 0.  1.
         21    1    1    2  502  501 -0.21496324122E+01  0.11600940473E+02 -0.12252473949E+02  0.17009581336E+02  0.00000000000E+00 0.  1.
<mgrwt>
<rscale>  1 0.30000000E+03</rscale>
<asrwt>0</asrwt>
<pdfrwt beam="1">  1        1 0.11081618E+00 0.30000000E+03</pdfrwt>
<pdfrwt beam="2">0</pdfrwt>
<totfact> 0.29379476E+01</totfact>
</mgrwt>
</event>
<event>
 6    1  0.1875959E-004  0.3000000E+03  0.7818608E-02  0.1093470E+00
          1   -1    0    0  502    0  0.00000000000E+00  0.00000000000E+00  0.28695789780E+02  0.28695789780E+02  0.00000000000E+00 0.  1.
         13   -1    0    0    0    0 -0.00000000000E+00 -0.00000000000E+00 -0.10000000000E+04  0.10000000000E+04  0.00000000000E+00 0.  1.
    9000005    2    1    2  501    0 -0.60952254980E+01 -0.73015938784E+01 -0.95216903441E+03  0.10073271211E+04  0.32862074464E+03 0.  0.
         13    1    3    3    0    0 -0.12583632852E+02  0.16023999792E+03 -0.48954242955E+03  0.51525430137E+03  0.00000000000E+00 0.  1.
          3    1    3    3  501    0  0.64884073536E+01 -0.16754159180E+03 -0.46262660486E+03  0.49207281975E+03  0.00000000000E+00 0.  1.
         21    1    1    2  502  501  0.60952254980E+01  0.73015938784E+01 -0.19135175814E+02  0.21368668664E+02  0.00000000000E+00 0.  1.
<mgrwt>
<rscale>  1 0.30000000E+03</rscale>
<asrwt>0</asrwt>
<pdfrwt beam="1">  1        1 0.10434855E+00 0.30000000E+03</pdfrwt>
<pdfrwt beam="2">0</pdfrwt>
<totfact> 0.32148212E+01</totfact>
</mgrwt>
</event>
<event>
 6    1  0.1875959E-004  0.3000000E+03  0.7818608E-02  0.1093470E+00
          1   -1    0    0  502    0  0.00000000000E+00  0.00000000000E+00  0.44334856351E+02  0.44334856351E+02  0.00000000000E+00 0.  1.
         13   -1    0    0    0    0 -0.00000000000E+00 -0.00000000000E+00 -0.10000000000E+04  0.10000000000E+04  0.00000000000E+00 0.  1.
    9000005    2    1    2  501    0  0.63743576132E+01  0.92267992718E+01 -0.95919836314E+03  0.10325768846E+04  0.38213578280E+03 0.  0.
         13    1    3    3    0    0  0.17432450642E+03 -0.54699330059E+02 -0.64752585747E+03  0.67280813486E+03  0.00000000000E+00 0.  1.
          3    1    3    3  501    0 -0.16795014880E+03  0.63926129331E+02 -0.31167250567E+03  0.35976874973E+03  0.00000000000E+00 0.  1.
         21    1    1    2  502  501 -0.63743576132E+01 -0.92267992718E+01  0.35332194909E+01  0.11757971753E+02  0.00000000000E+00 0.  1.
<mgrwt>
<rscale>  1 0.30000000E+03</rscale>
<asrwt>0</asrwt>
<pdfrwt beam="1">  1        1 0.16121800E+00 0.30000000E+03</pdfrwt>
<pdfrwt beam="2">0</pdfrwt>
<totfact> 0.15781880E+01</totfact>
</mgrwt>
</event>
<event>
 6    1  0.1875959E-004  0.3000000E+03  0.7818608E-02  0.1093470E+00
          1   -1    0    0  502    0  0.00000000000E+00  0.00000000000E+00  0.33638561775E+02  0.33638561775E+02  0.00000000000E+00 0.  1.
         13   -1    0    0    0    0 -0.00000000000E+00 -0.00000000000E+00 -0.10000000000E+04  0.10000000000E+04  0.00000000000E+00 0.  1.
    9000005    2    1    2  501    0 -0.35041419602E+01  0.12883751012E+02 -0.96387893149E+03  0.10200579546E+04  0.33358262270E+03 0.  0.
         13    1    3    3    0    0 -0.15185840691E+03  0.10158788652E+02 -0.70884963179E+03  0.72500481186E+03  0.00000000000E+00 0.  1.
          1    1    3    3  501    0  0.14835426495E+03  0.27249623594E+01 -0.25502929970E+03  0.29505314276E+03  0.00000000000E+00 0.  1.
         21    1    1    2  502  501  0.35041419602E+01 -0.12883751012E+02 -0.24825067396E+01  0.13580607156E+02  0.00000000000E+00 0. -1.
<mgrwt>
<rscale>  1 0.30000000E+03</rscale>
<asrwt>0</asrwt>
<pdfrwt beam="1">  1        1 0.12232230E+00 0.30000000E+03</pdfrwt>
<pdfrwt beam="2">0</pdfrwt>
<totfact> 0.25225592E+01</totfact>
</mgrwt>
</event>
<event>
 6    1  0.1875959E-004  0.3000000E+03  0.7818608E-02  0.1093470E+00
          1   -1    0    0  502    0  0.00000000000E+00  0.00000000000E+00  0.34940530241E+02  0.34940530241E+02  0.00000000000E+00 0.  1.
         13   -1    0    0    0    0 -0.00000000000E+00 -0.00000000000E+00 -0.10000000000E+04  0.10000000000E+04  0.00000000000E+00 0.  1.
    9000005    2    1    2  501    0  0.34376206197E+02 -0.13001068392E+02 -0.92150965519E+03  0.97795511385E+03  0.32536964944E+03 0.  0.
         13    1    3    3    0    0  0.14963713362E+03 -0.92213719892E+02 -0.38008925232E+03  0.41876303756E+03  0.00000000000E+00 0.  1.
          1    1    3    3  501    0 -0.11526092743E+03  0.79212651501E+02 -0.54142040287E+03  0.55919207629E+03  0.00000000000E+00 0.  1.
         21    1    1    2  502  501 -0.34376206197E+02  0.13001068392E+02 -0.43549814572E+02  0.56985416389E+02  0.00000000000E+00 0.  1.
<mgrwt>
<rscale>  1 0.30000000E+03</rscale>
<asrwt>0</asrwt>
<pdfrwt beam="1">  1        1 0.12705674E+00 0.30000000E+03</pdfrwt>
<pdfrwt beam="2">0</pdfrwt>
<totfact> 0.23744601E+01</totfact>
</mgrwt>
</event>
<event>
 6    1  0.1875959E-004  0.3000000E+03  0.7818608E-02  0.1093470E+00
          1   -1    0    0  502    0  0.00000000000E+00  0.00000000000E+00  0.61270611062E+02  0.61270611062E+02  0.00000000000E+00 0.  1.
         13   -1    0    0    0    0 -0.00000000000E+00 -0.00000000000E+00 -0.10000000000E+04  0.10000000000E+04  0.00000000000E+00 0.  1.
    9000005    2    1    2  501    0 -0.14102001287E+02 -0.21719667578E+02 -0.96790613469E+03  0.10222591654E+04  0.32787330672E+03 0.  0.
         13    1    3    3    0    0 -0.98430080731E+02 -0.14182214550E+03 -0.64258688635E+03  0.66537200742E+03  0.00000000000E+00 0.  1.
          3    1    3    3  501    0  0.84328079445E+02  0.12010247792E+03 -0.32531924834E+03  0.35688715798E+03  0.00000000000E+00 0.  1.
         21    1    1    2  502  501  0.14102001287E+02  0.21719667578E+02  0.29176745756E+02  0.39011445666E+02  0.00000000000E+00 0.  1.
<mgrwt>
<rscale>  1 0.30000000E+03</rscale>
<asrwt>0</asrwt>
<pdfrwt beam="1">  1        1 0.22280269E+00 0.30000000E+03</pdfrwt>
<pdfrwt beam="2">0</pdfrwt>
<totfact> 0.79977127E+00</totfact>
</mgrwt>
</event>
<event>
 6    1  0.1875959E-004  0.3000000E+03  0.7818608E-02  0.1093470E+00
          1   -1    0    0  502    0  0.00000000000E+00  0.00000000000E+00  0.37555067362E+02  0.37555067362E+02  0.00000000000E+00 0.  1.
         13   -1    0    0    0    0 -0.00000000000E+00 -0.00000000000E+00 -0.10000000000E+04  0.10000000000E+04  0.00000000000E+00 0.  1.
    9000005    2    1    2  501    0  0.16921204441E+02 -0.13109699720E+02 -0.96251533260E+03  0.10161495460E+04  0.32506298322E+03 0.  0.
         13    1    3    3    0    0  0.80631737431E+02  0.13410818185E+03 -0.35784390500E+03  0.39056208452E+03  0.00000000000E+00 0.  1.
          3    1    3    3  501    0 -0.63710532990E+02 -0.14721788157E+03 -0.60467142760E+03  0.62558746153E+03  0.00000000000E+00 0.  1.
         21    1    1    2  502  501 -0.16921204441E+02  0.13109699720E+02  0.70399962804E-01  0.21405521312E+02  0.00000000000E+00 0.  1.
<mgrwt>
<rscale>  1 0.30000000E+03</rscale>
<asrwt>0</asrwt>
<pdfrwt beam="1">  1        1 0.13656417E+00 0.30000000E+03</pdfrwt>
<pdfrwt beam="2">0</pdfrwt>
<totfact> 0.21094276E+01</totfact>
</mgrwt>
</event>
<event>
 6    1  0.1875959E-004  0.3000000E+03  0.7818608E-02  0.1093470E+00
          1   -1    0    0  502    0  0.00000000000E+00  0.00000000000E+00  0.31334556676E+02  0.31334556676E+02  0.00000000000E+00 0.  1.
         13   -1    0    0    0    0 -0.00000000000E+00 -0.00000000000E+00 -0.10000000000E+04  0.10000000000E+04  0.00000000000E+00 0.  1.
    9000005    2    1    2  501    0  0.17800364268E+02 -0.10597300579E+02 -0.94649062594E+03  0.10009885804E+04  0.32512224998E+03 0.  0.
         13    1    3    3    0    0  0.14180418899E+03 -0.39030976314E+02 -0.22800696962E+03  0.27132825751E+03  0.00000000000E+00 0.  1.
          1    1    3    3  501    0 -0.12400382473E+03  0.28433675735E+02 -0.71848365631E+03  0.72966032293E+03  0.00000000000E+00 0.  1.
         21    1    1    2  502  501 -0.17800364268E+02  0.10597300579E+02 -0.22174817388E+02  0.30345976238E+02  0.00000000000E+00 0.  1.
<mgrwt>
<rscale>  1 0.30000000E+03</rscale>
<asrwt>0</asrwt>
<pdfrwt beam="1">  1        1 0.11394408E+00 0.30000000E+03</pdfrwt>
<pdfrwt beam="2">0</pdfrwt>
<totfact> 0.28161205E+01</totfact>
</mgrwt>
</event>
<event>
 6    1  0.1875959E-004  0.3000000E+03  0.7818608E-02  0.1093470E+00
          1   -1    0    0  502    0  0.00000000000E+00  0.00000000000E+00  0.82732236164E+02  0.82732236164E+02  0.00000000000E+00 0.  1.
         13   -1    0    0    0    0 -0.00000000000E+00 -0.00000000000E+00 -0.10000000000E+04  0.10000000000E+04  0.00000000000E+00 0.  1.
    9000005    2    1    2  501    0  0.10393565138E+03 -0.49611420578E+02 -0.89812605849E+03  0.96598328515E+03  0.33649573188E+03 0.  0.
         13    1    3    3    0    0  0.16897193814E+03 -0.11040113862E+03 -0.82915444916E+03  0.85336804946E+03  0.00000000000E+00 0.  1.
          3    1    3    3  501    0 -0.65036286756E+02  0.60789718046E+02 -0.68971609332E+02  0.11261523569E+03  0.00000000000E+00 0.  1.
         21    1    1    2  502  501 -0.10393565138E+03  0.49611420578E+02 -0.19141705347E+02  0.11674895101E+03  0.00000000000E+00 0.  1.
<mgrwt>
<rscale>  1 0.30000000E+03</rscale>
<asrwt>0</asrwt>
<pdfrwt beam="1">  1        1 0.30084513E+00 0.30000000E+03</pdfrwt>
<pdfrwt beam="2">0</pdfrwt>
<totfact> 0.34424542E+00</totfact>
</mgrwt>
</event>
<event>
 6    1  0.1875959E-004  0.3000000E+03  0.7818608E-02  0.1093470E+00
          1   -1    0    0  502    0  0.00000000000E+00  0.00000000000E+00  0.27835899438E+02  0.27835899438E+02  0.00000000000E+00 0.  1.
         13   -1    0    0    0    0 -0.00000000000E+00 -0.00000000000E+00 -0.10000000000E+04  0.10000000000E+04  0.00000000000E+00 0.  1.
    9000005    2    1    2  501    0 -0.12930160230E+02 -0.27788506717E+02 -0.93347553895E+03  0.97847807383E+03  0.29172481725E+03 0.  0.
         13    1    3    3    0    0  0.13006955356E+03 -0.44291701823E+02 -0.59509160057E+03  0.61074860350E+03  0.00000000000E+00 0.  1.
          1    1    3    3  501    0 -0.14299971379E+03  0.16503195106E+02 -0.33838393838E+03  0.36772947033E+03  0.00000000000E+00 0.  1.
         21    1    1    2  502  501  0.12930160230E+02  0.27788506717E+02 -0.38688561613E+02  0.49357825608E+02  0.00000000000E+00 0.  1.
<mgrwt>
<rscale>  1 0.30000000E+03</rscale>
<asrwt>0</asrwt>
<pdfrwt beam="1">  1        1 0.10122167E+00 0.30000000E+03</pdfrwt>
<pdfrwt beam="2">0</pdfrwt>
<totfact> 0.33623526E+01</totfact>
</mgrwt>
</event>
<event>
 6    1  0.1875959E-004  0.3000000E+03  0.7818608E-02  0.1093470E+00
          1   -1    0    0  502    0  0.00000000000E+00  0.00000000000E+00  0.29147259138E+02  0.29147259138E+02  0.00000000000E+00 0.  1.
         13   -1    0    0    0    0 -0.00000000000E+00 -0.00000000000E+00 -0.10000000000E+04  0.10000000000E+04  0.00000000000E+00 0.  1.
    9000005    2    1    2  501    0 -0.17240466073E+02  0.10505837067E+02 -0.96262645292E+03  0.10073463854E+04  0.29612403823E+03 0.  0.
         13    1    3    3    0    0  0.10380893282E+03  0.97239276745E+02 -0.37284067580E+03  0.39905130122E+03  0.00000000000E+00 0.  1.
          1    1    3    3  501    0 -0.12104939889E+03 -0.86733439678E+02 -0.58978577712E+03  0.60829508417E+03  0.00000000000E+00 0.  1.
         21    1    1    2  502  501  0.17240466073E+02 -0.10505837067E+02 -0.82262879442E+01  0.21800873750E+02  0.00000000000E+00 0.  1.
<mgrwt>
<rscale>  1 0.30000000E+03</rscale>
<asrwt>0</asrwt>
<pdfrwt beam="1">  1        1 0.10599026E+00 0.30000000E+03</pdfrwt>
<pdfrwt beam="2">0</pdfrwt>
<totfact> 0.31411039E+01</totfact>
</mgrwt>
</event>
<event>
 6    1  0.1875959E-004  0.3000000E+03  0.7818608E-02  0.1093470E+00
          3   -1    0    0  502    0  0.00000000000E+00  0.00000000000E+00  0.68698288685E+01  0.68698288685E+01  0.00000000000E+00 0.  1.
         13   -1    0    0    0    0 -0.00000000000E+00 -0.00000000000E+00 -0.10000000000E+04  0.10000000000E+04  0.00000000000E+00 0.  1.
    9000005    2    1    2  501    0  0.54151073291E+01  0.18377476910E+02 -0.90305370925E+03  0.91477843932E+03  0.14472918226E+03 0.  0.
         13    1    3    3    0    0  0.45071689811E+02 -0.89571454040E+01 -0.97504466393E+02  0.10779057771E+03  0.00000000000E+00 0.  1.
          1    1    3    3  501    0 -0.39656582482E+02  0.27334622314E+02 -0.80554924286E+03  0.80698786161E+03  0.00000000000E+00 0.  1.
         21    1    1    2  502  501 -0.54151073291E+01 -0.18377476910E+02 -0.90076461879E+02  0.92091389552E+02  0.00000000000E+00 0.  1.
<mgrwt>
<rscale>  1 0.30000000E+03</rscale>
<asrwt>0</asrwt>
<pdfrwt beam="1">  1        3 0.24981249E-01 0.30000000E+03</pdfrwt>
<pdfrwt beam="2">0</pdfrwt>
<totfact> 0.66100857E+01</totfact>
</mgrwt>
</event>
<event>
 6    1  0.1875959E-004  0.3000000E+03  0.7818608E-02  0.1093470E+00
          1   -1    0    0  502    0  0.00000000000E+00  0.00000000000E+00  0.28517249518E+02  0.28517249518E+02  0.00000000000E+00 0.  1.
         13   -1    0    0    0    0 -0.00000000000E+00 -0.00000000000E+00 -0.10000000000E+04  0.10000000000E+04  0.00000000000E+00 0.  1.
    9000005    2    1    2  501    0 -0.47283454826E+01 -0.16580324142E+02 -0.92850983012E+03  0.98221458994E+03  0.31987142989E+03 0.  0.
         13    1    3    3    0    0 -0.12900868280E+03 -0.97907110281E+02 -0.36233335810E+03  0.39688097066E+03  0.00000000000E+00 0.  1.
          3    1    3    3  501    0  0.12428033732E+03  0.81326786139E+02 -0.56617647202E+03  0.58533361928E+03  0.00000000000E+00 0.  1.
         21    1    1    2  502  501  0.47283454826E+01  0.16580324142E+02 -0.42972920362E+02  0.46302659579E+02  0.00000000000E+00 0. -1.
<mgrwt>
<rscale>  1 0.30000000E+03</rscale>
<asrwt>0</asrwt>
<pdfrwt beam="1">  1        1 0.10369931E+00 0.30000000E+03</pdfrwt>
<pdfrwt beam="2">0</pdfrwt>
<totfact> 0.32446664E+01</totfact>
</mgrwt>
</event>
<event>
 6    1  0.1875959E-004  0.3000000E+03  0.7818608E-02  0.1093470E+00
          1   -1    0    0  502    0  0.00000000000E+00  0.00000000000E+00  0.36329603039E+02  0.36329603039E+02  0.00000000000E+00 0.  1.
         13   -1    0    0    0    0 -0.00000000000E+00 -0.00000000000E+00 -0.10000000000E+04  0.10000000000E+04  0.00000000000E+00 0.  1.
    9000005    2    1    2  501    0 -0.16134791130E+02  0.77503212366E+01 -0.94483136778E+03  0.10103429144E+04  0.35744383090E+03 0.  0.
         13    1    3    3    0    0  0.77314495072E+02  0.38550641707E+02 -0.31852885732E+02  0.92077627324E+02  0.00000000000E+00 0.  1.
          1    1    3    3  501    0 -0.93449286201E+02 -0.30800320470E+02 -0.91297848205E+03  0.91826528711E+03  0.00000000000E+00 0.  1.
         21    1    1    2  502  501  0.16134791130E+02 -0.77503212366E+01 -0.18839029181E+02  0.25986688603E+02  0.00000000000E+00 0.  1.
<mgrwt>
<rscale>  1 0.30000000E+03</rscale>
<asrwt>0</asrwt>
<pdfrwt beam="1">  1        1 0.13210793E+00 0.30000000E+03</pdfrwt>
<pdfrwt beam="2">0</pdfrwt>
<totfact> 0.22285398E+01</totfact>
</mgrwt>
</event>
<event>
 6    1  0.1875959E-004  0.3000000E+03  0.7818608E-02  0.1093470E+00
          1   -1    0    0  502    0  0.00000000000E+00  0.00000000000E+00  0.56333757301E+02  0.56333757301E+02  0.00000000000E+00 0.  1.
         13   -1    0    0    0    0 -0.00000000000E+00 -0.00000000000E+00 -0.10000000000E+04  0.10000000000E+04  0.00000000000E+00 0.  1.
    9000005    2    1    2  501    0  0.14852896479E+02 -0.52717561507E+02 -0.94418025565E+03  0.10015613734E+04  0.32961959859E+03 0.  0.
         13    1    3    3    0    0  0.34130463064E+02 -0.22200796789E+02  0.13732246741E+02  0.42969041037E+02  0.00000000000E+00 0.  1.
          1    1    3    3  501    0 -0.19277566585E+02 -0.30516764718E+02 -0.95791250239E+03  0.95859233240E+03  0.00000000000E+00 0.  1.
         21    1    1    2  502  501 -0.14852896479E+02  0.52717561507E+02  0.51401294874E+00  0.54772383866E+02  0.00000000000E+00 0.  1.
<mgrwt>
<rscale>  1 0.30000000E+03</rscale>
<asrwt>0</asrwt>
<pdfrwt beam="1">  1        1 0.20485046E+00 0.30000000E+03</pdfrwt>
<pdfrwt beam="2">0</pdfrwt>
<totfact> 0.97145981E+00</totfact>
</mgrwt>
</event>
<event>
 6    1  0.1875959E-004  0.3000000E+03  0.7818608E-02  0.1093470E+00
          1   -1    0    0  502    0  0.00000000000E+00  0.00000000000E+00  0.29300331623E+02  0.29300331623E+02  0.00000000000E+00 0.  1.
         13   -1    0    0    0    0 -0.00000000000E+00 -0.00000000000E+00 -0.10000000000E+04  0.10000000000E+04  0.00000000000E+00 0.  1.
    9000005    2    1    2  501    0 -0.78233631491E+01  0.88178871609E+01 -0.96469832663E+03  0.10160724729E+04  0.31878119225E+03 0.  0.
         13    1    3    3    0    0  0.90475993068E+02  0.58541108258E+02 -0.85087272636E+03  0.85766972847E+03  0.00000000000E+00 0.  1.
          1    1    3    3  501    0 -0.98299356218E+02 -0.49723221097E+02 -0.11382560028E+03  0.15840274438E+03  0.00000000000E+00 0.  1.
         21    1    1    2  502  501  0.78233631491E+01 -0.88178871609E+01 -0.60013417420E+01  0.13227858770E+02  0.00000000000E+00 0.  1.
<mgrwt>
<rscale>  1 0.30000000E+03</rscale>
<asrwt>0</asrwt>
<pdfrwt beam="1">  1        1 0.10654689E+00 0.30000000E+03</pdfrwt>
<pdfrwt beam="2">0</pdfrwt>
<totfact> 0.31166633E+01</totfact>
</mgrwt>
</event>
<event>
 6    1  0.1875959E-004  0.3000000E+03  0.7818608E-02  0.1093470E+00
          1   -1    0    0  502    0  0.00000000000E+00  0.00000000000E+00  0.30112340023E+02  0.30112340023E+02  0.00000000000E+00 0.  1.
         13   -1    0    0    0    0 -0.00000000000E+00 -0.00000000000E+00 -0.10000000000E+04  0.10000000000E+04  0.00000000000E+00 0.  1.
    9000005    2    1    2  501    0  0.11507950380E+02 -0.11660013268E+00 -0.96506279306E+03  0.10176333233E+04  0.32264367284E+03 0.  0.
         13    1    3    3    0    0 -0.12998929865E+03  0.86272750458E+02 -0.50897096714E+03  0.53234542416E+03  0.00000000000E+00 0.  1.
          3    1    3    3  501    0  0.14149724903E+03 -0.86389350590E+02 -0.45609182592E+03  0.48528789914E+03  0.00000000000E+00 0.  1.
         21    1    1    2  502  501 -0.11507950380E+02  0.11660013268E+00 -0.48248669141E+01  0.12479016720E+02  0.00000000000E+00 0. -1.
<mgrwt>
<rscale>  1 0.30000000E+03</rscale>
<asrwt>0</asrwt>
<pdfrwt beam="1">  1        1 0.10949965E+00 0.30000000E+03</pdfrwt>
<pdfrwt beam="2">0</pdfrwt>
<totfact> 0.29914655E+01</totfact>
</mgrwt>
</event>
<event>
 6    1  0.1875959E-004  0.3000000E+03  0.7818608E-02  0.1093470E+00
          1   -1    0    0  502    0  0.00000000000E+00  0.00000000000E+00  0.56281136885E+02  0.56281136885E+02  0.00000000000E+00 0.  1.
         13   -1    0    0    0    0 -0.00000000000E+00 -0.00000000000E+00 -0.10000000000E+04  0.10000000000E+04  0.00000000000E+00 0.  1.
    9000005    2    1    2  501    0 -0.21310411798E+02  0.27661442794E+01 -0.96554325983E+03  0.10256528902E+04  0.34529448201E+03 0.  0.
         13    1    3    3    0    0 -0.39876690535E+02  0.16970702865E+03 -0.56596986570E+03  0.59220985715E+03  0.00000000000E+00 0.  1.
          3    1    3    3  501    0  0.18566278736E+02 -0.16694088437E+03 -0.39957339413E+03  0.43344303302E+03  0.00000000000E+00 0.  1.
         21    1    1    2  502  501  0.21310411798E+02 -0.27661442794E+01  0.21824396712E+02  0.30628246719E+02  0.00000000000E+00 0.  1.
<mgrwt>
<rscale>  1 0.30000000E+03</rscale>
<asrwt>0</asrwt>
<pdfrwt beam="1">  1        1 0.20465911E+00 0.30000000E+03</pdfrwt>
<pdfrwt beam="2">0</pdfrwt>
<totfact> 0.97348959E+00</totfact>
</mgrwt>
</event>
<event>
 6    1  0.1875959E-004  0.3000000E+03  0.7818608E-02  0.1093470E+00
          1   -1    0    0  502    0  0.00000000000E+00  0.00000000000E+00  0.29990719647E+02  0.29990719647E+02  0.00000000000E+00 0.  1.
         13   -1    0    0    0    0 -0.00000000000E+00 -0.00000000000E+00 -0.10000000000E+04  0.10000000000E+04  0.00000000000E+00 0.  1.
    9000005    2    1    2  501    0 -0.36560734262E+01 -0.12134145590E+02 -0.95983666573E+03  0.10137399827E+04  0.32591674296E+03 0.  0.
         13    1    3    3    0    0  0.24183327309E+02 -0.67843049740E+02 -0.94752316174E+03  0.95025662573E+03  0.00000000000E+00 0.  1.
          1    1    3    3  501    0 -0.27839400735E+02  0.55708904150E+02 -0.12313503990E+02  0.63483356995E+02  0.00000000000E+00 0.  1.
         21    1    1    2  502  501  0.36560734262E+01  0.12134145590E+02 -0.10172614623E+02  0.16250736918E+02  0.00000000000E+00 0.  1.
<mgrwt>
<rscale>  1 0.30000000E+03</rscale>
<asrwt>0</asrwt>
<pdfrwt beam="1">  1        1 0.10905739E+00 0.30000000E+03</pdfrwt>
<pdfrwt beam="2">0</pdfrwt>
<totfact> 0.30097545E+01</totfact>
</mgrwt>
</event>
<event>
 6    1  0.1875959E-004  0.3000000E+03  0.7818608E-02  0.1093470E+00
          1   -1    0    0  502    0  0.00000000000E+00  0.00000000000E+00  0.37432436938E+02  0.37432436938E+02  0.00000000000E+00 0.  1.
         13   -1    0    0    0    0 -0.00000000000E+00 -0.00000000000E+00 -0.10000000000E+04  0.10000000000E+04  0.00000000000E+00 0.  1.
    9000005    2    1    2  501    0 -0.43194835178E+01 -0.32815747041E+02 -0.94248893637E+03  0.99871961682E+03  0.32872472777E+03 0.  0.
         13    1    3    3    0    0 -0.10318899570E+03 -0.25557510506E+02 -0.86619931792E+02  0.13712828943E+03  0.00000000000E+00 0.  1.
          1    1    3    3  501    0  0.98869512185E+02 -0.72582365358E+01 -0.85586900458E+03  0.86159132739E+03  0.00000000000E+00 0.  1.
         21    1    1    2  502  501  0.43194835178E+01  0.32815747041E+02 -0.20078626689E+02  0.38712820118E+02  0.00000000000E+00 0. -1.
<mgrwt>
<rscale>  1 0.30000000E+03</rscale>
<asrwt>0</asrwt>
<pdfrwt beam="1">  1        1 0.13611824E+00 0.30000000E+03</pdfrwt>
<pdfrwt beam="2">0</pdfrwt>
<totfact> 0.21209596E+01</totfact>
</mgrwt>
</event>
<event>
 6    1  0.1875959E-004  0.3000000E+03  0.7818608E-02  0.1093470E+00
          1   -1    0    0  502    0  0.00000000000E+00  0.00000000000E+00  0.53608058576E+02  0.53608058576E+02  0.00000000000E+00 0.  1.
         13   -1    0    0    0    0 -0.00000000000E+00 -0.00000000000E+00 -0.10000000000E+04  0.10000000000E+04  0.00000000000E+00 0.  1.
    9000005    2    1    2  501    0  0.29539757361E+02 -0.27542335019E+02 -0.95698360422E+03  0.10118544862E+04  0.32619120935E+03 0.  0.
         13    1    3    3    0    0  0.16851870218E+02  0.13126204268E+03 -0.67616434224E+03  0.68899341586E+03  0.00000000000E+00 0.  1.
          3    1    3    3  501    0  0.12687887143E+02 -0.15880437770E+03 -0.28081926199E+03  0.32286107037E+03  0.00000000000E+00 0.  1.
         21    1    1    2  502  501 -0.29539757361E+02  0.27542335019E+02  0.10591662800E+02  0.41753572351E+02  0.00000000000E+00 0.  1.
<mgrwt>
<rscale>  1 0.30000000E+03</rscale>
<asrwt>0</asrwt>
<pdfrwt beam="1">  1        1 0.19493881E+00 0.30000000E+03</pdfrwt>
<pdfrwt beam="2">0</pdfrwt>
<totfact> 0.10827989E+01</totfact>
</mgrwt>
</event>
<event>
 6    1  0.1875959E-004  0.3000000E+03  0.7818608E-02  0.1093470E+00
          1   -1    0    0  502    0  0.00000000000E+00  0.00000000000E+00  0.70244339491E+02  0.70244339491E+02  0.00000000000E+00 0.  1.
         13   -1    0    0    0    0 -0.00000000000E+00 -0.00000000000E+00 -0.10000000000E+04  0.10000000000E+04  0.00000000000E+00 0.  1.
    9000005    2    1    2  501    0  0.33721607321E+02  0.23628474860E+02 -0.96458999235E+03  0.10163102844E+04  0.31742288699E+03 0.  0.
         13    1    3    3    0    0 -0.67071670887E+02 -0.11683484279E+03 -0.56653281180E+03  0.58233016097E+03  0.00000000000E+00 0.  1.
          1    1    3    3  501    0  0.10079327821E+03  0.14046331765E+03 -0.39805718055E+03  0.43398012343E+03  0.00000000000E+00 0.  1.
         21    1    1    2  502  501 -0.33721607321E+02 -0.23628474860E+02  0.34834331844E+02  0.53934055100E+02  0.00000000000E+00 0. -1.
<mgrwt>
<rscale>  1 0.30000000E+03</rscale>
<asrwt>0</asrwt>
<pdfrwt beam="1">  1        1 0.25543450E+00 0.30000000E+03</pdfrwt>
<pdfrwt beam="2">0</pdfrwt>
<totfact> 0.56283077E+00</totfact>
</mgrwt>
</event>
<event>
 6    1  0.1875959E-004  0.3000000E+03  0.7818608E-02  0.1093470E+00
          1   -1    0    0  502    0  0.00000000000E+00  0.00000000000E+00  0.31885257679E+02  0.31885257679E+02  0.00000000000E+00 0.  1.
         13   -1    0    0    0    0 -0.00000000000E+00 -0.00000000000E+00 -0.10000000000E+04  0.10000000000E+04  0.00000000000E+00 0.  1.
    9000005    2    1    2  501    0 -0.20775116590E+01  0.20254920590E+02 -0.96077148063E+03  0.10102403656E+04  0.31159136757E+03 0.  0.
         13    1    3    3    0    0 -0.15487847721E+03  0.67984543111E+01 -0.56180155241E+03  0.58279888982E+03  0.00000000000E+00 0.  1.
          1    1    3    3  501    0  0.15280096555E+03  0.13456466279E+02 -0.39896992822E+03  0.42744147573E+03  0.00000000000E+00 0.  1.
         21    1    1    2  502  501  0.20775116590E+01 -0.20254920590E+02 -0.73432616925E+01  0.21644892125E+02  0.00000000000E+00 0.  1.
<mgrwt>
<rscale>  1 0.30000000E+03</rscale>
<asrwt>0</asrwt>
<pdfrwt beam="1">  1        1 0.11594664E+00 0.30000000E+03</pdfrwt>
<pdfrwt beam="2">0</pdfrwt>
<totfact> 0.27418522E+01</totfact>
</mgrwt>
</event>
<event>
 6    1  0.1875959E-004  0.3000000E+03  0.7818608E-02  0.1093470E+00
          1   -1    0    0  502    0  0.00000000000E+00  0.00000000000E+00  0.31193023887E+02  0.31193023887E+02  0.00000000000E+00 0.  1.
         13   -1    0    0    0    0 -0.00000000000E+00 -0.00000000000E+00 -0.10000000000E+04  0.10000000000E+04  0.00000000000E+00 0.  1.
    9000005    2    1    2  501    0  0.30954882289E+02  0.26670505480E+02 -0.84067281518E+03  0.89670182047E+03  0.30931190091E+03 0.  0.
         13    1    3    3    0    0  0.72478368601E+02  0.67654238864E+02 -0.83180019304E+03  0.83768834962E+03  0.00000000000E+00 0.  1.
          1    1    3    3  501    0 -0.41523486312E+02 -0.40983733384E+02 -0.88726221438E+01  0.59013470846E+02  0.00000000000E+00 0.  1.
         21    1    1    2  502  501 -0.30954882289E+02 -0.26670505480E+02 -0.12813416093E+03  0.13449120342E+03  0.00000000000E+00 0. -1.
<mgrwt>
<rscale>  1 0.30000000E+03</rscale>
<asrwt>0</asrwt>
<pdfrwt beam="1">  1        1 0.11342942E+00 0.30000000E+03</pdfrwt>
<pdfrwt beam="2">0</pdfrwt>
<totfact> 0.28356654E+01</totfact>
</mgrwt>
</event>
<event>
 6    1  0.1875959E-004  0.3000000E+03  0.7818608E-02  0.1093470E+00
          1   -1    0    0  502    0  0.00000000000E+00  0.00000000000E+00  0.32473416503E+02  0.32473416503E+02  0.00000000000E+00 0.  1.
         13   -1    0    0    0    0 -0.00000000000E+00 -0.00000000000E+00 -0.10000000000E+04  0.10000000000E+04  0.00000000000E+00 0.  1.
    9000005    2    1    2  501    0 -0.27658927065E+02  0.12942543560E+02 -0.92646490121E+03  0.98130128119E+03  0.32199761740E+03 0.  0.
         13    1    3    3    0    0 -0.39283120279E+02 -0.14979375434E+03 -0.36203820481E+03  0.39376769055E+03  0.00000000000E+00 0.  1.
          1    1    3    3  501    0  0.11624193214E+02  0.16273629790E+03 -0.56442669641E+03  0.58753359065E+03  0.00000000000E+00 0.  1.
         21    1    1    2  502  501  0.27658927065E+02 -0.12942543560E+02 -0.41061682285E+02  0.51172135311E+02  0.00000000000E+00 0. -1.
<mgrwt>
<rscale>  1 0.30000000E+03</rscale>
<asrwt>0</asrwt>
<pdfrwt beam="1">  1        1 0.11808540E+00 0.30000000E+03</pdfrwt>
<pdfrwt beam="2">0</pdfrwt>
<totfact> 0.26655057E+01</totfact>
</mgrwt>
</event>
<event>
 6    1  0.1875959E-004  0.3000000E+03  0.7818608E-02  0.1093470E+00
          1   -1    0    0  502    0  0.00000000000E+00  0.00000000000E+00  0.35231899138E+02  0.35231899138E+02  0.00000000000E+00 0.  1.
         13   -1    0    0    0    0 -0.00000000000E+00 -0.00000000000E+00 -0.10000000000E+04  0.10000000000E+04  0.00000000000E+00 0.  1.
    9000005    2    1    2  501    0 -0.15125162481E+02  0.11922521543E+02 -0.96095738538E+03  0.10155993086E+04  0.32807307415E+03 0.  0.
         13    1    3    3    0    0  0.87476767165E+01  0.13622082629E+03 -0.79631022921E+03  0.80792488296E+03  0.00000000000E+00 0.  1.
          1    1    3    3  501    0 -0.23872839198E+02 -0.12429830475E+03 -0.16464715617E+03  0.20767442560E+03  0.00000000000E+00 0.  1.
         21    1    1    2  502  501  0.15125162481E+02 -0.11922521543E+02 -0.38107154798E+01  0.19632590570E+02  0.00000000000E+00 0.  1.
<mgrwt>
<rscale>  1 0.30000000E+03</rscale>
<asrwt>0</asrwt>
<pdfrwt beam="1">  1        1 0.12811627E+00 0.30000000E+03</pdfrwt>
<pdfrwt beam="2">0</pdfrwt>
<totfact> 0.23428500E+01</totfact>
</mgrwt>
</event>
<event>
 6    1  0.1875959E-004  0.3000000E+03  0.7818608E-02  0.1093470E+00
          1   -1    0    0  502    0  0.00000000000E+00  0.00000000000E+00  0.61732604741E+02  0.61732604741E+02  0.00000000000E+00 0.  1.
         13   -1    0    0    0    0 -0.00000000000E+00 -0.00000000000E+00 -0.10000000000E+04  0.10000000000E+04  0.00000000000E+00 0.  1.
    9000005    2    1    2  501    0 -0.49466081326E+01  0.11064058565E+03 -0.85995002768E+03  0.92608814968E+03  0.32536041976E+03 0.  0.
         13    1    3    3    0    0  0.39431203677E+02  0.19709155440E+03 -0.76218958793E+03  0.78824670541E+03  0.00000000000E+00 0.  1.
          3    1    3    3  501    0 -0.44377811810E+02 -0.86450968749E+02 -0.97760439750E+02  0.13784144427E+03  0.00000000000E+00 0.  1.
         21    1    1    2  502  501  0.49466081326E+01 -0.11064058565E+03 -0.78317367579E+02  0.13564445506E+03  0.00000000000E+00 0.  1.
<mgrwt>
<rscale>  1 0.30000000E+03</rscale>
<asrwt>0</asrwt>
<pdfrwt beam="1">  1        1 0.22448267E+00 0.30000000E+03</pdfrwt>
<pdfrwt beam="2">0</pdfrwt>
<totfact> 0.78540790E+00</totfact>
</mgrwt>
</event>
<event>
 6    1  0.1875959E-004  0.3000000E+03  0.7818608E-02  0.1093470E+00
          1   -1    0    0  502    0  0.00000000000E+00  0.00000000000E+00  0.72508503896E+02  0.72508503896E+02  0.00000000000E+00 0.  1.
         13   -1    0    0    0    0 -0.00000000000E+00 -0.00000000000E+00 -0.10000000000E+04  0.10000000000E+04  0.00000000000E+00 0.  1.
    9000005    2    1    2  501    0  0.10114343623E+02 -0.87571845235E+01 -0.97210741408E+03  0.10259298783E+04  0.32765882010E+03 0.  0.
         13    1    3    3    0    0  0.13123615084E+02  0.14718499593E+03 -0.66810015258E+03  0.68424664134E+03  0.00000000000E+00 0.  1.
          3    1    3    3  501    0 -0.30092714617E+01 -0.15594218045E+03 -0.30400726150E+03  0.34168323694E+03  0.00000000000E+00 0.  1.
         21    1    1    2  502  501 -0.10114343623E+02  0.87571845235E+01  0.44615917979E+02  0.46578625622E+02  0.00000000000E+00 0.  1.
<mgrwt>
<rscale>  1 0.30000000E+03</rscale>
<asrwt>0</asrwt>
<pdfrwt beam="1">  1        1 0.26366784E+00 0.30000000E+03</pdfrwt>
<pdfrwt beam="2">0</pdfrwt>
<totfact> 0.51495701E+00</totfact>
</mgrwt>
</event>
<event>
 6    1  0.1875959E-004  0.3000000E+03  0.7818608E-02  0.1093470E+00
          1   -1    0    0  502    0  0.00000000000E+00  0.00000000000E+00  0.37100501874E+02  0.37100501874E+02  0.00000000000E+00 0.  1.
         13   -1    0    0    0    0 -0.00000000000E+00 -0.00000000000E+00 -0.10000000000E+04  0.10000000000E+04  0.00000000000E+00 0.  1.
    9000005    2    1    2  501    0  0.58547334232E+01  0.95219769574E+01 -0.97060088221E+03  0.10235263623E+04  0.32467706387E+03 0.  0.
         13    1    3    3    0    0 -0.79076303558E+02  0.14174050749E+03 -0.39983174996E+03  0.43151924815E+03  0.00000000000E+00 0.  1.
          3    1    3    3  501    0  0.84931036981E+02 -0.13221853053E+03 -0.57076913225E+03  0.59200711414E+03  0.00000000000E+00 0.  1.
         21    1    1    2  502  501 -0.58547334232E+01 -0.95219769574E+01  0.77013840858E+01  0.13574139585E+02  0.00000000000E+00 0.  1.
<mgrwt>
<rscale>  1 0.30000000E+03</rscale>
<asrwt>0</asrwt>
<pdfrwt beam="1">  1        1 0.13491120E+00 0.30000000E+03</pdfrwt>
<pdfrwt beam="2">0</pdfrwt>
<totfact> 0.21526001E+01</totfact>
</mgrwt>
</event>
<event>
 6    1  0.1875959E-004  0.3000000E+03  0.7818608E-02  0.1093470E+00
          3   -1    0    0  502    0  0.00000000000E+00  0.00000000000E+00  0.32384906383E+02  0.32384906383E+02  0.00000000000E+00 0.  1.
         13   -1    0    0    0    0 -0.00000000000E+00 -0.00000000000E+00 -0.10000000000E+04  0.10000000000E+04  0.00000000000E+00 0.  1.
    9000005    2    1    2  501    0 -0.37148870181E+02  0.16628020372E+02 -0.84858641227E+03  0.90659000743E+03  0.31646486832E+03 0.  0.
         13    1    3    3    0    0  0.21108385381E+02 -0.13839350088E+03 -0.26177183455E+03  0.29685487765E+03  0.00000000000E+00 0.  1.
          1    1    3    3  501    0 -0.58257255562E+02  0.15502152125E+03 -0.58681457772E+03  0.60973512979E+03  0.00000000000E+00 0.  1.
         21    1    1    2  502  501  0.37148870181E+02 -0.16628020372E+02 -0.11902868135E+03  0.12579489895E+03  0.00000000000E+00 0.  1.
<mgrwt>
<rscale>  1 0.30000000E+03</rscale>
<asrwt>0</asrwt>
<pdfrwt beam="1">  1        3 0.11776354E+00 0.30000000E+03</pdfrwt>
<pdfrwt beam="2">0</pdfrwt>
<totfact> 0.24550519E+00</totfact>
</mgrwt>
</event>
<event>
 6    1  0.1875959E-004  0.3000000E+03  0.7818608E-02  0.1093470E+00
          3   -1    0    0  502    0  0.00000000000E+00  0.00000000000E+00  0.26743779635E+02  0.26743779635E+02  0.00000000000E+00 0.  1.
         13   -1    0    0    0    0 -0.00000000000E+00 -0.00000000000E+00 -0.10000000000E+04  0.10000000000E+04  0.00000000000E+00 0.  1.
    9000005    2    1    2  501    0  0.23610228781E+01  0.94028723728E+01 -0.95395398363E+03  0.10051436690E+04  0.31653057347E+03 0.  0.
         13    1    3    3    0    0 -0.56340736252E+02 -0.13820767254E+03 -0.34680058292E+03  0.37755302094E+03  0.00000000000E+00 0.  1.
          1    1    3    3  501    0  0.58701759130E+02  0.14761054491E+03 -0.60715340072E+03  0.62759064803E+03  0.00000000000E+00 0.  1.
         21    1    1    2  502  501 -0.23610228781E+01 -0.94028723728E+01 -0.19302236731E+02  0.21600110664E+02  0.00000000000E+00 0. -1.
<mgrwt>
<rscale>  1 0.30000000E+03</rscale>
<asrwt>0</asrwt>
<pdfrwt beam="1">  1        3 0.97250313E-01 0.30000000E+03</pdfrwt>
<pdfrwt beam="2">0</pdfrwt>
<totfact> 0.42103956E+00</totfact>
</mgrwt>
</event>
<event>
 6    1  0.1875959E-004  0.3000000E+03  0.7818608E-02  0.1093470E+00
          1   -1    0    0  502    0  0.00000000000E+00  0.00000000000E+00  0.55778194190E+02  0.55778194190E+02  0.00000000000E+00 0.  1.
         13   -1    0    0    0    0 -0.00000000000E+00 -0.00000000000E+00 -0.10000000000E+04  0.10000000000E+04  0.00000000000E+00 0.  1.
    9000005    2    1    2  501    0  0.14995347521E+02 -0.57604144271E+01 -0.97363086317E+03  0.10222679648E+04  0.31115380642E+03 0.  0.
         13    1    3    3    0    0 -0.66461524102E+02 -0.48759540602E+02 -0.55143811827E+02  0.99173922825E+02  0.00000000000E+00 0.  1.
          1    1    3    3  501    0  0.81456871623E+02  0.42999126175E+02 -0.91848705134E+03  0.92309404194E+03  0.00000000000E+00 0.  1.
         21    1    1    2  502  501 -0.14995347521E+02  0.57604144271E+01  0.29409057356E+02  0.33510229426E+02  0.00000000000E+00 0. -1.
<mgrwt>
<rscale>  1 0.30000000E+03</rscale>
<asrwt>0</asrwt>
<pdfrwt beam="1">  1        1 0.20283022E+00 0.30000000E+03</pdfrwt>
<pdfrwt beam="2">0</pdfrwt>
<totfact> 0.99312216E+00</totfact>
</mgrwt>
</event>
<event>
 6    1  0.1875959E-004  0.3000000E+03  0.7818608E-02  0.1093470E+00
          1   -1    0    0  502    0  0.00000000000E+00  0.00000000000E+00  0.28123959927E+02  0.28123959927E+02  0.00000000000E+00 0.  1.
         13   -1    0    0    0    0 -0.00000000000E+00 -0.00000000000E+00 -0.10000000000E+04  0.10000000000E+04  0.00000000000E+00 0.  1.
    9000005    2    1    2  501    0  0.55375971772E+01  0.10868817346E+02 -0.94207340517E+03  0.99592158082E+03  0.32281372065E+03 0.  0.
         13    1    3    3    0    0 -0.14887922465E+03  0.50702094760E+02 -0.37006371141E+03  0.40209809307E+03  0.00000000000E+00 0.  1.
          3    1    3    3  501    0  0.15441682183E+03 -0.39833277414E+02 -0.57200969376E+03  0.59382348776E+03  0.00000000000E+00 0.  1.
         21    1    1    2  502  501 -0.55375971772E+01 -0.10868817346E+02 -0.29802634901E+02  0.32202379105E+02  0.00000000000E+00 0. -1.
<mgrwt>
<rscale>  1 0.30000000E+03</rscale>
<asrwt>0</asrwt>
<pdfrwt beam="1">  1        1 0.10226916E+00 0.30000000E+03</pdfrwt>
<pdfrwt beam="2">0</pdfrwt>
<totfact> 0.33118485E+01</totfact>
</mgrwt>
</event>
<event>
 6    1  0.1875959E-004  0.3000000E+03  0.7818608E-02  0.1093470E+00
          1   -1    0    0  502    0  0.00000000000E+00  0.00000000000E+00  0.60764115630E+02  0.60764115630E+02  0.00000000000E+00 0.  1.
         13   -1    0    0    0    0 -0.00000000000E+00 -0.00000000000E+00 -0.10000000000E+04  0.10000000000E+04  0.00000000000E+00 0.  1.
    9000005    2    1    2  501    0  0.13030363034E+02  0.42822623940E+00 -0.96704199650E+03  0.10300533095E+04  0.35449911675E+03 0.  0.
         13    1    3    3    0    0 -0.49622419178E+02 -0.14834918881E+03 -0.24877460430E+03  0.29386845705E+03  0.00000000000E+00 0.  1.
          3    1    3    3  501    0  0.62652782212E+02  0.14877741505E+03 -0.71826739220E+03  0.73618485250E+03  0.00000000000E+00 0.  1.
         21    1    1    2  502  501 -0.13030363034E+02 -0.42822623940E+00  0.27806112129E+02  0.30710806083E+02  0.00000000000E+00 0. -1.
<mgrwt>
<rscale>  1 0.30000000E+03</rscale>
<asrwt>0</asrwt>
<pdfrwt beam="1">  1        1 0.22096089E+00 0.30000000E+03</pdfrwt>
<pdfrwt beam="2">0</pdfrwt>
<totfact> 0.81582239E+00</totfact>
</mgrwt>
</event>
<event>
 6    1  0.1875959E-004  0.3000000E+03  0.7818608E-02  0.1093470E+00
          1   -1    0    0  502    0  0.00000000000E+00  0.00000000000E+00  0.37031490042E+02  0.37031490042E+02  0.00000000000E+00 0.  1.
         13   -1    0    0    0    0 -0.00000000000E+00 -0.00000000000E+00 -0.10000000000E+04  0.10000000000E+04  0.00000000000E+00 0.  1.
    9000005    2    1    2  501    0  0.14847897459E+02 -0.13390465555E+02 -0.96224133796E+03  0.10170241562E+04  0.32867914029E+03 0.  0.
         13    1    3    3    0    0  0.67527161192E+02  0.23365412498E+02 -0.22248130447E+02  0.74838755390E+02  0.00000000000E+00 0.  1.
          1    1    3    3  501    0 -0.52679263733E+02 -0.36755878053E+02 -0.93999320752E+03  0.94218540085E+03  0.00000000000E+00 0.  1.
         21    1    1    2  502  501 -0.14847897459E+02  0.13390465555E+02 -0.72717199497E+00  0.20007333802E+02  0.00000000000E+00 0.  1.
<mgrwt>
<rscale>  1 0.30000000E+03</rscale>
<asrwt>0</asrwt>
<pdfrwt beam="1">  1        1 0.13466025E+00 0.30000000E+03</pdfrwt>
<pdfrwt beam="2">0</pdfrwt>
<totfact> 0.21592573E+01</totfact>
</mgrwt>
</event>
<event>
 6    1  0.1875959E-004  0.3000000E+03  0.7818608E-02  0.1093470E+00
          1   -1    0    0  502    0  0.00000000000E+00  0.00000000000E+00  0.46764126949E+02  0.46764126949E+02  0.00000000000E+00 0.  1.
         13   -1    0    0    0    0 -0.00000000000E+00 -0.00000000000E+00 -0.10000000000E+04  0.10000000000E+04  0.00000000000E+00 0.  1.
    9000005    2    1    2  501    0 -0.85930210823E+02 -0.12022485093E+01 -0.83700114097E+03  0.90220977912E+03  0.32561653678E+03 0.  0.
         13    1    3    3    0    0  0.51018184897E+02 -0.13031674747E+03 -0.46031168442E+03  0.48111553360E+03  0.00000000000E+00 0.  1.
          1    1    3    3  501    0 -0.13694839572E+03  0.12911449896E+03 -0.37668945655E+03  0.42109424552E+03  0.00000000000E+00 0.  1.
         21    1    1    2  502  501  0.85930210823E+02  0.12022485093E+01 -0.11623473208E+03  0.14455434783E+03  0.00000000000E+00 0.  1.
<mgrwt>
<rscale>  1 0.30000000E+03</rscale>
<asrwt>0</asrwt>
<pdfrwt beam="1">  1        1 0.17005173E+00 0.30000000E+03</pdfrwt>
<pdfrwt beam="2">0</pdfrwt>
<totfact> 0.14278878E+01</totfact>
</mgrwt>
</event>
<event>
 6    1  0.1875959E-004  0.3000000E+03  0.7818608E-02  0.1093470E+00
          1   -1    0    0  502    0  0.00000000000E+00  0.00000000000E+00  0.46117765431E+02  0.46117765431E+02  0.00000000000E+00 0.  1.
         13   -1    0    0    0    0 -0.00000000000E+00 -0.00000000000E+00 -0.10000000000E+04  0.10000000000E+04  0.00000000000E+00 0.  1.
    9000005    2    1    2  501    0  0.94822619211E+01 -0.18059351748E+02 -0.96851840876E+03  0.10210125653E+04  0.32252549821E+03 0.  0.
         13    1    3    3    0    0 -0.30104460591E+01 -0.14903535845E+03 -0.75980797953E+03  0.77429242964E+03  0.00000000000E+00 0.  1.
          1    1    3    3  501    0  0.12492707980E+02  0.13097600671E+03 -0.20871042924E+03  0.24672013569E+03  0.00000000000E+00 0.  1.
         21    1    1    2  502  501 -0.94822619211E+01  0.18059351748E+02  0.14636174192E+02  0.25105200092E+02  0.00000000000E+00 0. -1.
<mgrwt>
<rscale>  1 0.30000000E+03</rscale>
<asrwt>0</asrwt>
<pdfrwt beam="1">  1        1 0.16770132E+00 0.30000000E+03</pdfrwt>
<pdfrwt beam="2">0</pdfrwt>
<totfact> 0.14662233E+01</totfact>
</mgrwt>
</event>
<event>
 6    1  0.1875959E-004  0.3000000E+03  0.7818608E-02  0.1093470E+00
          1   -1    0    0  502    0  0.00000000000E+00  0.00000000000E+00  0.29714931838E+02  0.29714931838E+02  0.00000000000E+00 0.  1.
         13   -1    0    0    0    0 -0.00000000000E+00 -0.00000000000E+00 -0.10000000000E+04  0.10000000000E+04  0.00000000000E+00 0.  1.
    9000005    2    1    2  501    0  0.75359160271E+01 -0.14009763271E+02 -0.94871988581E+03  0.10029171598E+04  0.32483895111E+03 0.  0.
         13    1    3    3    0    0 -0.15664983781E+03 -0.23857980639E+02 -0.52504248823E+03  0.54843230154E+03  0.00000000000E+00 0.  1.
          1    1    3    3  501    0  0.16418575384E+03  0.98482173685E+01 -0.42367739757E+03  0.45448485823E+03  0.00000000000E+00 0.  1.
         21    1    1    2  502  501 -0.75359160271E+01  0.14009763271E+02 -0.21565182357E+02  0.26797772060E+02  0.00000000000E+00 0.  1.
<mgrwt>
<rscale>  1 0.30000000E+03</rscale>
<asrwt>0</asrwt>
<pdfrwt beam="1">  1        1 0.10805453E+00 0.30000000E+03</pdfrwt>
<pdfrwt beam="2">0</pdfrwt>
<totfact> 0.30518220E+01</totfact>
</mgrwt>
</event>
<event>
 6    1  0.1875959E-004  0.3000000E+03  0.7818608E-02  0.1093470E+00
          1   -1    0    0  502    0  0.00000000000E+00  0.00000000000E+00  0.31771317408E+02  0.31771317408E+02  0.00000000000E+00 0.  1.
         13   -1    0    0    0    0 -0.00000000000E+00 -0.00000000000E+00 -0.10000000000E+04  0.10000000000E+04  0.00000000000E+00 0.  1.
    9000005    2    1    2  501    0  0.49574754283E+01 -0.11177285084E+02 -0.96122001164E+03  0.10176777113E+04  0.33402770102E+03 0.  0.
         13    1    3    3    0    0 -0.10333752116E+02 -0.10831512021E+03 -0.90788179541E+02  0.14170901610E+03  0.00000000000E+00 0.  1.
          3    1    3    3  501    0  0.15291227544E+02  0.97137835127E+02 -0.87043183210E+03  0.87596869521E+03  0.00000000000E+00 0.  1.
         21    1    1    2  502  501 -0.49574754283E+01  0.11177285084E+02 -0.70086709539E+01  0.14093606104E+02  0.00000000000E+00 0.  1.
<mgrwt>
<rscale>  1 0.30000000E+03</rscale>
<asrwt>0</asrwt>
<pdfrwt beam="1">  1        1 0.11553231E+00 0.30000000E+03</pdfrwt>
<pdfrwt beam="2">0</pdfrwt>
<totfact> 0.27569912E+01</totfact>
</mgrwt>
</event>
<event>
 6    1  0.1875959E-004  0.3000000E+03  0.7818608E-02  0.1093470E+00
          1   -1    0    0  502    0  0.00000000000E+00  0.00000000000E+00  0.65522555239E+02  0.65522555239E+02  0.00000000000E+00 0.  1.
         13   -1    0    0    0    0 -0.00000000000E+00 -0.00000000000E+00 -0.10000000000E+04  0.10000000000E+04  0.00000000000E+00 0.  1.
    9000005    2    1    2  501    0 -0.78251852507E+02  0.14526485697E+02 -0.92735475484E+03  0.98561570998E+03  0.32421769727E+03 0.  0.
         13    1    3    3    0    0  0.15717406355E+02  0.12954883814E+03 -0.71292313469E+03  0.72476846945E+03  0.00000000000E+00 0.  1.
          3    1    3    3  501    0 -0.93969258862E+02 -0.11502235245E+03 -0.21443162015E+03  0.26084724054E+03  0.00000000000E+00 0.  1.
         21    1    1    2  502  501  0.78251852507E+02 -0.14526485697E+02 -0.71226899201E+01  0.79906845258E+02  0.00000000000E+00 0.  1.
<mgrwt>
<rscale>  1 0.30000000E+03</rscale>
<asrwt>0</asrwt>
<pdfrwt beam="1">  1        1 0.23826434E+00 0.30000000E+03</pdfrwt>
<pdfrwt beam="2">0</pdfrwt>
<totfact> 0.67695149E+00</totfact>
</mgrwt>
</event>
<event>
 6    1  0.1875959E-004  0.3000000E+03  0.7818608E-02  0.1093470E+00
          1   -1    0    0  502    0  0.00000000000E+00  0.00000000000E+00  0.31560817641E+02  0.31560817641E+02  0.00000000000E+00 0.  1.
         13   -1    0    0    0    0 -0.00000000000E+00 -0.00000000000E+00 -0.10000000000E+04  0.10000000000E+04  0.00000000000E+00 0.  1.
    9000005    2    1    2  501    0  0.13252988791E+02  0.25648725295E+00 -0.95831084166E+03  0.10148787679E+04  0.33383159952E+03 0.  0.
         13    1    3    3    0    0  0.49493507761E+02 -0.89745195456E+02 -0.89080424312E+03  0.89668054902E+03  0.00000000000E+00 0.  1.
          3    1    3    3  501    0 -0.36240518970E+02  0.90001682709E+02 -0.67506598531E+02  0.11819821890E+03  0.00000000000E+00 0.  1.
         21    1    1    2  502  501 -0.13252988791E+02 -0.25648725295E+00 -0.10128340704E+02  0.16682049725E+02  0.00000000000E+00 0.  1.
<mgrwt>
<rscale>  1 0.30000000E+03</rscale>
<asrwt>0</asrwt>
<pdfrwt beam="1">  1        1 0.11476685E+00 0.30000000E+03</pdfrwt>
<pdfrwt beam="2">0</pdfrwt>
<totfact> 0.27852688E+01</totfact>
</mgrwt>
</event>
<event>
 6    1  0.1875959E-004  0.3000000E+03  0.7818608E-02  0.1093470E+00
          1   -1    0    0  502    0  0.00000000000E+00  0.00000000000E+00  0.28778735642E+02  0.28778735642E+02  0.00000000000E+00 0.  1.
         13   -1    0    0    0    0 -0.00000000000E+00 -0.00000000000E+00 -0.10000000000E+04  0.10000000000E+04  0.00000000000E+00 0.  1.
    9000005    2    1    2  501    0  0.20686501537E+02  0.54421421628E+00 -0.96426429113E+03  0.10069469471E+04  0.28932387318E+03 0.  0.
         13    1    3    3    0    0 -0.10560440395E+03  0.66618387872E+02 -0.64982257366E+03  0.66170966214E+03  0.00000000000E+00 0.  1.
          1    1    3    3  501    0  0.12629090548E+03 -0.66074173656E+02 -0.31444171747E+03  0.34523728495E+03  0.00000000000E+00 0.  1.
         21    1    1    2  502  501 -0.20686501537E+02 -0.54421421628E+00 -0.69569732307E+01  0.21831788554E+02  0.00000000000E+00 0. -1.
<mgrwt>
<rscale>  1 0.30000000E+03</rscale>
<asrwt>0</asrwt>
<pdfrwt beam="1">  1        1 0.10465017E+00 0.30000000E+03</pdfrwt>
<pdfrwt beam="2">0</pdfrwt>
<totfact> 0.32010911E+01</totfact>
</mgrwt>
</event>
<event>
 6    1  0.1875959E-004  0.3000000E+03  0.7818608E-02  0.1093470E+00
          1   -1    0    0  502    0  0.00000000000E+00  0.00000000000E+00  0.48765945875E+02  0.48765945875E+02  0.00000000000E+00 0.  1.
         13   -1    0    0    0    0 -0.00000000000E+00 -0.00000000000E+00 -0.10000000000E+04  0.10000000000E+04  0.00000000000E+00 0.  1.
    9000005    2    1    2  501    0  0.69619370789E+01  0.12134766460E+02 -0.97174560400E+03  0.10239376394E+04  0.32243301524E+03 0.  0.
         13    1    3    3    0    0  0.57905457619E+02 -0.88191353233E+02 -0.85613354783E+03  0.86260965014E+03  0.00000000000E+00 0.  1.
          3    1    3    3  501    0 -0.50943520541E+02  0.10032611969E+03 -0.11561205618E+03  0.16132798924E+03  0.00000000000E+00 0.  1.
         21    1    1    2  502  501 -0.69619370789E+01 -0.12134766460E+02  0.20511549878E+02  0.24828306494E+02  0.00000000000E+00 0.  1.
<mgrwt>
<rscale>  1 0.30000000E+03</rscale>
<asrwt>0</asrwt>
<pdfrwt beam="1">  1        1 0.17733109E+00 0.30000000E+03</pdfrwt>
<pdfrwt beam="2">0</pdfrwt>
<totfact> 0.13160392E+01</totfact>
</mgrwt>
</event>
<event>
 6    1  0.1875959E-004  0.3000000E+03  0.7818608E-02  0.1093470E+00
          1   -1    0    0  502    0  0.00000000000E+00  0.00000000000E+00  0.46510521539E+02  0.46510521539E+02  0.00000000000E+00 0.  1.
         13   -1    0    0    0    0 -0.00000000000E+00 -0.00000000000E+00 -0.10000000000E+04  0.10000000000E+04  0.00000000000E+00 0.  1.
    9000005    2    1    2  501    0  0.32548928569E+02  0.99486446665E+01 -0.95466363207E+03  0.10124548771E+04  0.33544570272E+03 0.  0.
         13    1    3    3    0    0  0.17442423424E+03 -0.43896451791E+02 -0.42527849185E+03  0.46174939913E+03  0.00000000000E+00 0.  1.
          1    1    3    3  501    0 -0.14187530567E+03  0.53845096458E+02 -0.52938514022E+03  0.55070547796E+03  0.00000000000E+00 0.  1.
         21    1    1    2  502  501 -0.32548928569E+02 -0.99486446665E+01  0.11741536100E+01  0.34055644443E+02  0.00000000000E+00 0. -1.
<mgrwt>
<rscale>  1 0.30000000E+03</rscale>
<asrwt>0</asrwt>
<pdfrwt beam="1">  1        1 0.16912953E+00 0.30000000E+03</pdfrwt>
<pdfrwt beam="2">0</pdfrwt>
<totfact> 0.14427927E+01</totfact>
</mgrwt>
</event>
<event>
 6    1  0.1875959E-004  0.3000000E+03  0.7818608E-02  0.1093470E+00
          1   -1    0    0  502    0  0.00000000000E+00  0.00000000000E+00  0.42039305457E+02  0.42039305457E+02  0.00000000000E+00 0.  1.
         13   -1    0    0    0    0 -0.00000000000E+00 -0.00000000000E+00 -0.10000000000E+04  0.10000000000E+04  0.00000000000E+00 0.  1.
    9000005    2    1    2  501    0 -0.41992417865E+01  0.13113207459E+02 -0.95935416950E+03  0.10281998107E+04  0.36965502625E+03 0.  0.
         13    1    3    3    0    0 -0.16126362010E+03 -0.86733180497E+02 -0.44442518950E+03  0.48066864765E+03  0.00000000000E+00 0.  1.
          1    1    3    3  501    0  0.15706437831E+03  0.99846387955E+02 -0.51492898000E+03  0.54753116310E+03  0.00000000000E+00 0.  1.
         21    1    1    2  502  501  0.41992417865E+01 -0.13113207459E+02  0.13934749577E+01  0.13839494712E+02  0.00000000000E+00 0.  1.
<mgrwt>
<rscale>  1 0.30000000E+03</rscale>
<asrwt>0</asrwt>
<pdfrwt beam="1">  1        1 0.15287052E+00 0.30000000E+03</pdfrwt>
<pdfrwt beam="2">0</pdfrwt>
<totfact> 0.17373458E+01</totfact>
</mgrwt>
</event>
<event>
 6    1  0.1875959E-004  0.3000000E+03  0.7818608E-02  0.1093470E+00
          1   -1    0    0  502    0  0.00000000000E+00  0.00000000000E+00  0.71583048208E+02  0.71583048208E+02  0.00000000000E+00 0.  1.
         13   -1    0    0    0    0 -0.00000000000E+00 -0.00000000000E+00 -0.10000000000E+04  0.10000000000E+04  0.00000000000E+00 0.  1.
    9000005    2    1    2  501    0  0.16371804571E+03 -0.10085738822E+02 -0.70986684313E+03  0.79832589713E+03  0.32635560732E+03 0.  0.
         13    1    3    3    0    0  0.18949983938E+03  0.16676335997E+02 -0.73115665434E+03  0.75549873758E+03  0.00000000000E+00 0.  1.
          1    1    3    3  501    0 -0.25781793667E+02 -0.26762074819E+02  0.21289811208E+02  0.42827159544E+02  0.00000000000E+00 0.  1.
         21    1    1    2  502  501 -0.16371804571E+03  0.10085738822E+02 -0.21855010866E+03  0.27325715108E+03  0.00000000000E+00 0.  1.
<mgrwt>
<rscale>  1 0.30000000E+03</rscale>
<asrwt>0</asrwt>
<pdfrwt beam="1">  1        1 0.26030254E+00 0.30000000E+03</pdfrwt>
<pdfrwt beam="2">0</pdfrwt>
<totfact> 0.53408153E+00</totfact>
</mgrwt>
</event>
<event>
 6    1  0.1875959E-004  0.3000000E+03  0.7818608E-02  0.1093470E+00
          1   -1    0    0  502    0  0.00000000000E+00  0.00000000000E+00  0.37095596663E+02  0.37095596663E+02  0.00000000000E+00 0.  1.
         13   -1    0    0    0    0 -0.00000000000E+00 -0.00000000000E+00 -0.10000000000E+04  0.10000000000E+04  0.00000000000E+00 0.  1.
    9000005    2    1    2  501    0  0.14142659341E+02  0.50322650569E+02 -0.87783287798E+03  0.93724797075E+03  0.32420797806E+03 0.  0.
         13    1    3    3    0    0  0.77018075443E+02  0.10401279038E+03 -0.12514451942E+03  0.18003220614E+03  0.00000000000E+00 0.  1.
          3    1    3    3  501    0 -0.62875416102E+02 -0.53690139806E+02 -0.75268835856E+03  0.75721576461E+03  0.00000000000E+00 0.  1.
         21    1    1    2  502  501 -0.14142659341E+02 -0.50322650569E+02 -0.85071525355E+02  0.99847625909E+02  0.00000000000E+00 0.  1.
<mgrwt>
<rscale>  1 0.30000000E+03</rscale>
<asrwt>0</asrwt>
<pdfrwt beam="1">  1        1 0.13489336E+00 0.30000000E+03</pdfrwt>
<pdfrwt beam="2">0</pdfrwt>
<totfact> 0.21530724E+01</totfact>
</mgrwt>
</event>
<event>
 6    1  0.1875959E-004  0.3000000E+03  0.7818608E-02  0.1093470E+00
          1   -1    0    0  502    0  0.00000000000E+00  0.00000000000E+00  0.37210194385E+02  0.37210194385E+02  0.00000000000E+00 0.  1.
         13   -1    0    0    0    0 -0.00000000000E+00 -0.00000000000E+00 -0.10000000000E+04  0.10000000000E+04  0.00000000000E+00 0.  1.
    9000005    2    1    2  501    0 -0.38509863729E+02 -0.63162499241E+01 -0.92844333073E+03  0.98522380237E+03  0.32731638786E+03 0.  0.
         13    1    3    3    0    0  0.13503852936E+03 -0.14873151968E+02 -0.58202239569E+03  0.59766770378E+03  0.00000000000E+00 0.  1.
          3    1    3    3  501    0 -0.17354839309E+03  0.85569020439E+01 -0.34642093505E+03  0.38755609859E+03  0.00000000000E+00 0.  1.
         21    1    1    2  502  501  0.38509863729E+02  0.63162499241E+01 -0.34346474880E+02  0.51986392010E+02  0.00000000000E+00 0. -1.
<mgrwt>
<rscale>  1 0.30000000E+03</rscale>
<asrwt>0</asrwt>
<pdfrwt beam="1">  1        1 0.13531008E+00 0.30000000E+03</pdfrwt>
<pdfrwt beam="2">0</pdfrwt>
<totfact> 0.21420748E+01</totfact>
</mgrwt>
</event>
<event>
 6    1  0.1875959E-004  0.3000000E+03  0.7818608E-02  0.1093470E+00
          1   -1    0    0  502    0  0.00000000000E+00  0.00000000000E+00  0.28509469336E+02  0.28509469336E+02  0.00000000000E+00 0.  1.
         13   -1    0    0    0    0 -0.00000000000E+00 -0.00000000000E+00 -0.10000000000E+04  0.10000000000E+04  0.00000000000E+00 0.  1.
    9000005    2    1    2  501    0  0.25134976782E+01 -0.18907376407E+02 -0.94285092890E+03  0.99409968377E+03  0.31448767957E+03 0.  0.
         13    1    3    3    0    0 -0.10842504104E+03 -0.53677991956E+02 -0.80378074408E+03  0.81283503917E+03  0.00000000000E+00 0.  1.
          3    1    3    3  501    0  0.11093853872E+03  0.34770615549E+02 -0.13907018481E+03  0.18126464460E+03  0.00000000000E+00 0.  1.
         21    1    1    2  502  501 -0.25134976782E+01  0.18907376407E+02 -0.28639601768E+02  0.34409785565E+02  0.00000000000E+00 0.  1.
<mgrwt>
<rscale>  1 0.30000000E+03</rscale>
<asrwt>0</asrwt>
<pdfrwt beam="1">  1        1 0.10367102E+00 0.30000000E+03</pdfrwt>
<pdfrwt beam="2">0</pdfrwt>
<totfact> 0.32459761E+01</totfact>
</mgrwt>
</event>
<event>
 6    1  0.1875959E-004  0.3000000E+03  0.7818608E-02  0.1093470E+00
          1   -1    0    0  502    0  0.00000000000E+00  0.00000000000E+00  0.33659654539E+02  0.33659654539E+02  0.00000000000E+00 0.  1.
         13   -1    0    0    0    0 -0.00000000000E+00 -0.00000000000E+00 -0.10000000000E+04  0.10000000000E+04  0.00000000000E+00 0.  1.
    9000005    2    1    2  501    0 -0.91252912676E+01  0.69486336491E+01 -0.97216439387E+03  0.10207959851E+04  0.31110975578E+03 0.  0.
         13    1    3    3    0    0 -0.15531021910E+02  0.15177221537E+03 -0.64760722136E+03  0.66533535241E+03  0.00000000000E+00 0.  1.
          1    1    3    3  501    0  0.64057306425E+01 -0.14482358172E+03 -0.32455717250E+03  0.35546063274E+03  0.00000000000E+00 0.  1.
         21    1    1    2  502  501  0.91252912676E+01 -0.69486336491E+01  0.58240484072E+01  0.12863669389E+02  0.00000000000E+00 0.  1.
<mgrwt>
<rscale>  1 0.30000000E+03</rscale>
<asrwt>0</asrwt>
<pdfrwt beam="1">  1        1 0.12239900E+00 0.30000000E+03</pdfrwt>
<pdfrwt beam="2">0</pdfrwt>
<totfact> 0.25200664E+01</totfact>
</mgrwt>
</event>
<event>
 6    1  0.1875959E-004  0.3000000E+03  0.7818608E-02  0.1093470E+00
          1   -1    0    0  502    0  0.00000000000E+00  0.00000000000E+00  0.53191742334E+02  0.53191742334E+02  0.00000000000E+00 0.  1.
         13   -1    0    0    0    0 -0.00000000000E+00 -0.00000000000E+00 -0.10000000000E+04  0.10000000000E+04  0.00000000000E+00 0.  1.
    9000005    2    1    2  501    0 -0.83726446102E+00 -0.10043548282E+02 -0.97034027871E+03  0.10275923305E+04  0.33805941380E+03 0.  0.
         13    1    3    3    0    0  0.12289275327E+03 -0.38906541053E+02 -0.82301856313E+03  0.83305216103E+03  0.00000000000E+00 0.  1.
          3    1    3    3  501    0 -0.12373001773E+03  0.28862992772E+02 -0.14732171558E+03  0.19454016942E+03  0.00000000000E+00 0.  1.
         21    1    1    2  502  501  0.83726446102E+00  0.10043548282E+02  0.23532021045E+02  0.25599411875E+02  0.00000000000E+00 0.  1.
<mgrwt>
<rscale>  1 0.30000000E+03</rscale>
<asrwt>0</asrwt>
<pdfrwt beam="1">  1        1 0.19342493E+00 0.30000000E+03</pdfrwt>
<pdfrwt beam="2">0</pdfrwt>
<totfact> 0.11009929E+01</totfact>
</mgrwt>
</event>
<event>
 6    1  0.1875959E-004  0.3000000E+03  0.7818608E-02  0.1093470E+00
          1   -1    0    0  502    0  0.00000000000E+00  0.00000000000E+00  0.52963908193E+02  0.52963908193E+02  0.00000000000E+00 0.  1.
         13   -1    0    0    0    0 -0.00000000000E+00 -0.00000000000E+00 -0.10000000000E+04  0.10000000000E+04  0.00000000000E+00 0.  1.
    9000005    2    1    2  501    0  0.26005782836E+02  0.36763208475E+02 -0.94809264086E+03  0.10079200348E+04  0.33910957901E+03 0.  0.
         13    1    3    3    0    0 -0.73559195464E+02 -0.11170047713E+03 -0.21384402916E+03  0.25222454408E+03  0.00000000000E+00 0.  1.
          1    1    3    3  501    0  0.99564978299E+02  0.14846368561E+03 -0.73424861170E+03  0.75569549068E+03  0.00000000000E+00 0.  1.
         21    1    1    2  502  501 -0.26005782836E+02 -0.36763208475E+02  0.10565490517E+01  0.45043873436E+02  0.00000000000E+00 0. -1.
<mgrwt>
<rscale>  1 0.30000000E+03</rscale>
<asrwt>0</asrwt>
<pdfrwt beam="1">  1        1 0.19259644E+00 0.30000000E+03</pdfrwt>
<pdfrwt beam="2">0</pdfrwt>
<totfact> 0.11110921E+01</totfact>
</mgrwt>
</event>
<event>
 6    1  0.1875959E-004  0.3000000E+03  0.7818608E-02  0.1093470E+00
          1   -1    0    0  502    0  0.00000000000E+00  0.00000000000E+00  0.30271541023E+02  0.30271541023E+02  0.00000000000E+00 0.  1.
         13   -1    0    0    0    0 -0.00000000000E+00 -0.00000000000E+00 -0.10000000000E+04  0.10000000000E+04  0.00000000000E+00 0.  1.
    9000005    2    1    2  501    0 -0.30437177774E+02  0.50299084896E+01 -0.92308657359E+03  0.97435028172E+03  0.31035129670E+03 0.  0.
         13    1    3    3    0    0  0.93429807396E+02 -0.10539656846E+03 -0.33761935685E+03  0.36582016849E+03  0.00000000000E+00 0.  1.
          3    1    3    3  501    0 -0.12386698517E+03  0.11042647695E+03 -0.58546721674E+03  0.60853011323E+03  0.00000000000E+00 0.  1.
         21    1    1    2  502  501  0.30437177774E+02 -0.50299084896E+01 -0.46641885384E+02  0.55921259306E+02  0.00000000000E+00 0.  1.
<mgrwt>
<rscale>  1 0.30000000E+03</rscale>
<asrwt>0</asrwt>
<pdfrwt beam="1">  1        1 0.11007856E+00 0.30000000E+03</pdfrwt>
<pdfrwt beam="2">0</pdfrwt>
<totfact> 0.29677633E+01</totfact>
</mgrwt>
</event>
<event>
 6    1  0.1875959E-004  0.3000000E+03  0.7818608E-02  0.1093470E+00
          1   -1    0    0  502    0  0.00000000000E+00  0.00000000000E+00  0.37165598220E+02  0.37165598220E+02  0.00000000000E+00 0.  1.
         13   -1    0    0    0    0 -0.00000000000E+00 -0.00000000000E+00 -0.10000000000E+04  0.10000000000E+04  0.00000000000E+00 0.  1.
    9000005    2    1    2  501    0 -0.25746597122E+02  0.30383903760E+02 -0.93671965582E+03  0.98954156198E+03  0.31648494501E+03 0.  0.
         13    1    3    3    0    0  0.10395601333E+03  0.15384402571E+02 -0.10833569662E+03  0.15093096340E+03  0.00000000000E+00 0.  1.
          1    1    3    3  501    0 -0.12970261045E+03  0.14999501190E+02 -0.82838395920E+03  0.83861059858E+03  0.00000000000E+00 0.  1.
         21    1    1    2  502  501  0.25746597122E+02 -0.30383903760E+02 -0.26114745959E+02  0.47624036238E+02  0.00000000000E+00 0.  1.
<mgrwt>
<rscale>  1 0.30000000E+03</rscale>
<asrwt>0</asrwt>
<pdfrwt beam="1">  1        1 0.13514791E+00 0.30000000E+03</pdfrwt>
<pdfrwt beam="2">0</pdfrwt>
<totfact> 0.21463456E+01</totfact>
</mgrwt>
</event>
<event>
 6    1  0.1875959E-004  0.3000000E+03  0.7818608E-02  0.1093470E+00
          1   -1    0    0  502    0  0.00000000000E+00  0.00000000000E+00  0.33570703476E+02  0.33570703476E+02  0.00000000000E+00 0.  1.
         13   -1    0    0    0    0 -0.00000000000E+00 -0.00000000000E+00 -0.10000000000E+04  0.10000000000E+04  0.00000000000E+00 0.  1.
    9000005    2    1    2  501    0  0.13642751198E+00  0.13791772605E+02 -0.96912746178E+03  0.10195168179E+04  0.31625349515E+03 0.  0.
         13    1    3    3    0    0 -0.11725671883E+03  0.97440776938E+02 -0.67452023086E+03  0.69153552690E+03  0.00000000000E+00 0.  1.
          1    1    3    3  501    0  0.11739314635E+03 -0.83649004332E+02 -0.29460723092E+03  0.32798129100E+03  0.00000000000E+00 0.  1.
         21    1    1    2  502  501 -0.13642751198E+00 -0.13791772605E+02  0.26981652583E+01  0.14053885577E+02  0.00000000000E+00 0.  1.
<mgrwt>
<rscale>  1 0.30000000E+03</rscale>
<asrwt>0</asrwt>
<pdfrwt beam="1">  1        1 0.12207554E+00 0.30000000E+03</pdfrwt>
<pdfrwt beam="2">0</pdfrwt>
<totfact> 0.25306009E+01</totfact>
</mgrwt>
</event>
<event>
 6    1  0.1875959E-004  0.3000000E+03  0.7818608E-02  0.1093470E+00
          1   -1    0    0  502    0  0.00000000000E+00  0.00000000000E+00  0.42005232661E+02  0.42005232661E+02  0.00000000000E+00 0.  1.
         13   -1    0    0    0    0 -0.00000000000E+00 -0.00000000000E+00 -0.10000000000E+04  0.10000000000E+04  0.00000000000E+00 0.  1.
    9000005    2    1    2  501    0 -0.50206511028E+02  0.10349183870E+01 -0.92247800694E+03  0.98049746831E+03  0.32846285525E+03 0.  0.
         13    1    3    3    0    0 -0.50462735616E+02 -0.11693056612E+03 -0.80139059276E+03  0.81144693427E+03  0.00000000000E+00 0.  1.
          3    1    3    3  501    0  0.25622458838E+00  0.11796548451E+03 -0.12108741419E+03  0.16905053404E+03  0.00000000000E+00 0.  1.
         21    1    1    2  502  501  0.50206511028E+02 -0.10349183870E+01 -0.35516760398E+02  0.61507764346E+02  0.00000000000E+00 0.  1.
<mgrwt>
<rscale>  1 0.30000000E+03</rscale>
<asrwt>0</asrwt>
<pdfrwt beam="1">  1        1 0.15274662E+00 0.30000000E+03</pdfrwt>
<pdfrwt beam="2">0</pdfrwt>
<totfact> 0.17398492E+01</totfact>
</mgrwt>
</event>
<event>
 6    1  0.1875959E-004  0.3000000E+03  0.7818608E-02  0.1093470E+00
          1   -1    0    0  502    0  0.00000000000E+00  0.00000000000E+00  0.34818246042E+02  0.34818246042E+02  0.00000000000E+00 0.  1.
         13   -1    0    0    0    0 -0.00000000000E+00 -0.00000000000E+00 -0.10000000000E+04  0.10000000000E+04  0.00000000000E+00 0.  1.
    9000005    2    1    2  501    0 -0.29866822678E+02  0.80818985070E+01 -0.94189959802E+03  0.99609612103E+03  0.32260701387E+03 0.  0.
         13    1    3    3    0    0  0.10839514722E+03  0.43051143133E+02 -0.73865852522E+03  0.74780968551E+03  0.00000000000E+00 0.  1.
          3    1    3    3  501    0 -0.13826196990E+03 -0.34969244626E+02 -0.20324107280E+03  0.24828643552E+03  0.00000000000E+00 0.  1.
         21    1    1    2  502  501  0.29866822678E+02 -0.80818985070E+01 -0.23282155935E+02  0.38722125011E+02  0.00000000000E+00 0. -1.
<mgrwt>
<rscale>  1 0.30000000E+03</rscale>
<asrwt>0</asrwt>
<pdfrwt beam="1">  1        1 0.12661207E+00 0.30000000E+03</pdfrwt>
<pdfrwt beam="2">0</pdfrwt>
<totfact> 0.23878894E+01</totfact>
</mgrwt>
</event>
<event>
 6    1  0.1875959E-004  0.3000000E+03  0.7818608E-02  0.1093470E+00
          1   -1    0    0  502    0  0.00000000000E+00  0.00000000000E+00  0.34673456379E+02  0.34673456379E+02  0.00000000000E+00 0.  1.
         13   -1    0    0    0    0 -0.00000000000E+00 -0.00000000000E+00 -0.10000000000E+04  0.10000000000E+04  0.00000000000E+00 0.  1.
    9000005    2    1    2  501    0 -0.20620952138E+02 -0.28404698177E+02 -0.94487297202E+03  0.99404835162E+03  0.30678191204E+03 0.  0.
         13    1    3    3    0    0  0.22355672262E+02  0.79552607178E+02 -0.61353100271E+02  0.10292033960E+03  0.00000000000E+00 0.  1.
          1    1    3    3  501    0 -0.42976624400E+02 -0.10795730535E+03 -0.88351987175E+03  0.89112801201E+03  0.00000000000E+00 0.  1.
         21    1    1    2  502  501  0.20620952138E+02  0.28404698177E+02 -0.20453571603E+02  0.40625104762E+02  0.00000000000E+00 0. -1.
<mgrwt>
<rscale>  1 0.30000000E+03</rscale>
<asrwt>0</asrwt>
<pdfrwt beam="1">  1        1 0.12608556E+00 0.30000000E+03</pdfrwt>
<pdfrwt beam="2">0</pdfrwt>
<totfact> 0.24039160E+01</totfact>
</mgrwt>
</event>
<event>
 6    1  0.1875959E-004  0.3000000E+03  0.7818608E-02  0.1093470E+00
          1   -1    0    0  502    0  0.00000000000E+00  0.00000000000E+00  0.27970089110E+02  0.27970089110E+02  0.00000000000E+00 0.  1.
         13   -1    0    0    0    0 -0.00000000000E+00 -0.00000000000E+00 -0.10000000000E+04  0.10000000000E+04  0.00000000000E+00 0.  1.
    9000005    2    1    2  501    0  0.18873257425E+02 -0.36350865792E+01 -0.92055911724E+03  0.97302778938E+03  0.31461814455E+03 0.  0.
         13    1    3    3    0    0 -0.62559033351E+02  0.96961541130E+02 -0.75050511910E+03  0.75932411190E+03  0.00000000000E+00 0.  1.
          1    1    3    3  501    0  0.81432290777E+02 -0.10059662771E+03 -0.17005399813E+03  0.21370367748E+03  0.00000000000E+00 0.  1.
         21    1    1    2  502  501 -0.18873257425E+02  0.36350865792E+01 -0.51470793654E+02  0.54942299731E+02  0.00000000000E+00 0.  1.
<mgrwt>
<rscale>  1 0.30000000E+03</rscale>
<asrwt>0</asrwt>
<pdfrwt beam="1">  1        1 0.10170963E+00 0.30000000E+03</pdfrwt>
<pdfrwt beam="2">0</pdfrwt>
<totfact> 0.33386865E+01</totfact>
</mgrwt>
</event>
<event>
 6    1  0.1875959E-004  0.3000000E+03  0.7818608E-02  0.1093470E+00
          1   -1    0    0  502    0  0.00000000000E+00  0.00000000000E+00  0.52505367993E+02  0.52505367993E+02  0.00000000000E+00 0.  1.
         13   -1    0    0    0    0 -0.00000000000E+00 -0.00000000000E+00 -0.10000000000E+04  0.10000000000E+04  0.00000000000E+00 0.  1.
    9000005    2    1    2  501    0 -0.34000749275E+02  0.11935293314E+02 -0.96653114272E+03  0.10117513385E+04  0.29691719211E+03 0.  0.
         13    1    3    3    0    0 -0.60390502127E+02 -0.73522600067E+02 -0.88693108498E+03  0.89201980638E+03  0.00000000000E+00 0.  1.
          1    1    3    3  501    0  0.26389752852E+02  0.85457893381E+02 -0.79600057745E+02  0.11973153215E+03  0.00000000000E+00 0.  1.
         21    1    1    2  502  501  0.34000749275E+02 -0.11935293314E+02  0.19036510717E+02  0.40754029470E+02  0.00000000000E+00 0.  1.
<mgrwt>
<rscale>  1 0.30000000E+03</rscale>
<asrwt>0</asrwt>
<pdfrwt beam="1">  1        1 0.19092901E+00 0.30000000E+03</pdfrwt>
<pdfrwt beam="2">0</pdfrwt>
<totfact> 0.11317249E+01</totfact>
</mgrwt>
</event>
<event>
 6    1  0.1875959E-004  0.3000000E+03  0.7818608E-02  0.1093470E+00
          3   -1    0    0  502    0  0.00000000000E+00  0.00000000000E+00  0.32169105968E+02  0.32169105968E+02  0.00000000000E+00 0.  1.
         13   -1    0    0    0    0 -0.00000000000E+00 -0.00000000000E+00 -0.10000000000E+04  0.10000000000E+04  0.00000000000E+00 0.  1.
    9000005    2    1    2  501    0 -0.25344955571E+02  0.39126186412E+01 -0.95949716377E+03  0.10052038243E+04  0.29856698689E+03 0.  0.
         13    1    3    3    0    0 -0.35687444171E+02 -0.32515832535E+02 -0.34448649376E+01  0.48401860825E+02  0.00000000000E+00 0.  1.
          1    1    3    3  501    0  0.10342488599E+02  0.36428451176E+02 -0.95605229884E+03  0.95680196344E+03  0.00000000000E+00 0.  1.
         21    1    1    2  502  501  0.25344955571E+02 -0.39126186412E+01 -0.83337302578E+01  0.26965281707E+02  0.00000000000E+00 0.  1.
<mgrwt>
<rscale>  1 0.30000000E+03</rscale>
<asrwt>0</asrwt>
<pdfrwt beam="1">  1        3 0.11697881E+00 0.30000000E+03</pdfrwt>
<pdfrwt beam="2">0</pdfrwt>
<totfact> 0.25068181E+00</totfact>
</mgrwt>
</event>
<event>
 6    1  0.1875959E-004  0.3000000E+03  0.7818608E-02  0.1093470E+00
          1   -1    0    0  502    0  0.00000000000E+00  0.00000000000E+00  0.32540240637E+02  0.32540240637E+02  0.00000000000E+00 0.  1.
         13   -1    0    0    0    0 -0.00000000000E+00 -0.00000000000E+00 -0.10000000000E+04  0.10000000000E+04  0.00000000000E+00 0.  1.
    9000005    2    1    2  501    0  0.12351209267E+02 -0.15436490882E+02 -0.93245059808E+03  0.99233478087E+03  0.33892972996E+03 0.  0.
         13    1    3    3    0    0 -0.38025305310E+02 -0.63323594663E+02 -0.91847279321E+03  0.92143804640E+03  0.00000000000E+00 0.  1.
          1    1    3    3  501    0  0.50376514577E+02  0.47887103782E+02 -0.13977804866E+02  0.70896734469E+02  0.00000000000E+00 0.  1.
         21    1    1    2  502  501 -0.12351209267E+02  0.15436490882E+02 -0.35009161284E+02  0.40205459765E+02  0.00000000000E+00 0.  1.
<mgrwt>
<rscale>  1 0.30000000E+03</rscale>
<asrwt>0</asrwt>
<pdfrwt beam="1">  1        1 0.11832840E+00 0.30000000E+03</pdfrwt>
<pdfrwt beam="2">0</pdfrwt>
<totfact> 0.26570168E+01</totfact>
</mgrwt>
</event>
<event>
 6    1  0.1875959E-004  0.3000000E+03  0.7818608E-02  0.1093470E+00
          1   -1    0    0  502    0  0.00000000000E+00  0.00000000000E+00  0.30600746952E+02  0.30600746952E+02  0.00000000000E+00 0.  1.
         13   -1    0    0    0    0 -0.00000000000E+00 -0.00000000000E+00 -0.10000000000E+04  0.10000000000E+04  0.00000000000E+00 0.  1.
    9000005    2    1    2  501    0 -0.28837299129E+00 -0.11810345283E+02 -0.92080361450E+03  0.98058971316E+03  0.33695299623E+03 0.  0.
         13    1    3    3    0    0  0.14679640622E+03 -0.82155957295E+02 -0.55863598389E+03  0.58341490270E+03  0.00000000000E+00 0.  1.
          1    1    3    3  501    0 -0.14708477921E+03  0.70345612012E+02 -0.36216763061E+03  0.39717481046E+03  0.00000000000E+00 0.  1.
         21    1    1    2  502  501  0.28837299129E+00  0.11810345283E+02 -0.48595638548E+02  0.50011033789E+02  0.00000000000E+00 0.  1.
<mgrwt>
<rscale>  1 0.30000000E+03</rscale>
<asrwt>0</asrwt>
<pdfrwt beam="1">  1        1 0.11127568E+00 0.30000000E+03</pdfrwt>
<pdfrwt beam="2">0</pdfrwt>
<totfact> 0.29195879E+01</totfact>
</mgrwt>
</event>
<event>
 6    1  0.1875959E-004  0.3000000E+03  0.7818608E-02  0.1093470E+00
          1   -1    0    0  502    0  0.00000000000E+00  0.00000000000E+00  0.31665193948E+02  0.31665193948E+02  0.00000000000E+00 0.  1.
         13   -1    0    0    0    0 -0.00000000000E+00 -0.00000000000E+00 -0.10000000000E+04  0.10000000000E+04  0.00000000000E+00 0.  1.
    9000005    2    1    2  501    0  0.23336711238E+02  0.93459439548E+01 -0.93434376465E+03  0.98938825395E+03  0.32443627688E+03 0.  0.
         13    1    3    3    0    0 -0.83795153985E+02 -0.11268099102E+03 -0.25709332211E+03  0.29294301467E+03  0.00000000000E+00 0.  1.
          3    1    3    3  501    0  0.10713186522E+03  0.12202693497E+03 -0.67725044254E+03  0.69644523929E+03  0.00000000000E+00 0.  1.
         21    1    1    2  502  501 -0.23336711238E+02 -0.93459439548E+01 -0.33991041399E+02  0.42276939993E+02  0.00000000000E+00 0. -1.
<mgrwt>
<rscale>  1 0.30000000E+03</rscale>
<asrwt>0</asrwt>
<pdfrwt beam="1">  1        1 0.11514640E+00 0.30000000E+03</pdfrwt>
<pdfrwt beam="2">0</pdfrwt>
<totfact> 0.27711968E+01</totfact>
</mgrwt>
</event>
<event>
 6    1  0.1875959E-004  0.3000000E+03  0.7818608E-02  0.1093470E+00
          1   -1    0    0  502    0  0.00000000000E+00  0.00000000000E+00  0.30421577049E+02  0.30421577049E+02  0.00000000000E+00 0.  1.
         13   -1    0    0    0    0 -0.00000000000E+00 -0.00000000000E+00 -0.10000000000E+04  0.10000000000E+04  0.00000000000E+00 0.  1.
    9000005    2    1    2  501    0  0.76925354553E+00 -0.10427074975E+02 -0.94422311963E+03  0.10029951837E+04  0.33813122204E+03 0.  0.
         13    1    3    3    0    0  0.13479465964E+03  0.37530232126E+02 -0.74569109442E+03  0.75870503286E+03  0.00000000000E+00 0.  1.
          3    1    3    3  501    0 -0.13402540609E+03 -0.47957307101E+02 -0.19853202522E+03  0.24429015089E+03  0.00000000000E+00 0.  1.
         21    1    1    2  502  501 -0.76925354553E+00  0.10427074975E+02 -0.25355303317E+02  0.27426393308E+02  0.00000000000E+00 0.  1.
<mgrwt>
<rscale>  1 0.30000000E+03</rscale>
<asrwt>0</asrwt>
<pdfrwt beam="1">  1        1 0.11062415E+00 0.30000000E+03</pdfrwt>
<pdfrwt beam="2">0</pdfrwt>
<totfact> 0.29456687E+01</totfact>
</mgrwt>
</event>
<event>
 6    1  0.1875959E-004  0.3000000E+03  0.7818608E-02  0.1093470E+00
          1   -1    0    0  502    0  0.00000000000E+00  0.00000000000E+00  0.64187224702E+02  0.64187224702E+02  0.00000000000E+00 0.  1.
         13   -1    0    0    0    0 -0.00000000000E+00 -0.00000000000E+00 -0.10000000000E+04  0.10000000000E+04  0.00000000000E+00 0.  1.
    9000005    2    1    2  501    0 -0.35834720212E+02  0.19448780194E+02 -0.96124685566E+03  0.10161323117E+04  0.32690514687E+03 0.  0.
         13    1    3    3    0    0  0.33319215956E+02 -0.23309545305E+01 -0.93998250445E+03  0.94057573441E+03  0.00000000000E+00 0.  1.
          3    1    3    3  501    0 -0.69153936168E+02  0.21779734725E+02 -0.21264351213E+02  0.75556577243E+02  0.00000000000E+00 0.  1.
         21    1    1    2  502  501  0.35834720212E+02 -0.19448780194E+02  0.25434080363E+02  0.48054913044E+02  0.00000000000E+00 0.  1.
<mgrwt>
<rscale>  1 0.30000000E+03</rscale>
<asrwt>0</asrwt>
<pdfrwt beam="1">  1        1 0.23340858E+00 0.30000000E+03</pdfrwt>
<pdfrwt beam="2">0</pdfrwt>
<totfact> 0.71335167E+00</totfact>
</mgrwt>
</event>
<event>
 6    1  0.1875959E-004  0.3000000E+03  0.7818608E-02  0.1093470E+00
          3   -1    0    0  502    0  0.00000000000E+00  0.00000000000E+00  0.36448949654E+02  0.36448949654E+02  0.00000000000E+00 0.  1.
         13   -1    0    0    0    0 -0.00000000000E+00 -0.00000000000E+00 -0.10000000000E+04  0.10000000000E+04  0.00000000000E+00 0.  1.
    9000005    2    1    2  501    0 -0.75533470652E+01  0.15098952188E+02 -0.96355376151E+03  0.10195660762E+04  0.33285747850E+03 0.  0.
         13    1    3    3    0    0  0.91180459164E+02  0.10592832207E+03 -0.77879409834E+03  0.79123633205E+03  0.00000000000E+00 0.  1.
          1    1    3    3  501    0 -0.98733806230E+02 -0.90829369879E+02 -0.18475966317E+03  0.22832974414E+03  0.00000000000E+00 0.  1.
         21    1    1    2  502  501  0.75533470652E+01 -0.15098952188E+02  0.27111606396E-02  0.16882873464E+02  0.00000000000E+00 0.  1.
<mgrwt>
<rscale>  1 0.30000000E+03</rscale>
<asrwt>0</asrwt>
<pdfrwt beam="1">  1        3 0.13254191E+00 0.30000000E+03</pdfrwt>
<pdfrwt beam="2">0</pdfrwt>
<totfact> 0.16514797E+00</totfact>
</mgrwt>
</event>
<event>
 6    1  0.1875959E-004  0.3000000E+03  0.7818608E-02  0.1093470E+00
          1   -1    0    0  502    0  0.00000000000E+00  0.00000000000E+00  0.29093842814E+02  0.29093842814E+02  0.00000000000E+00 0.  1.
         13   -1    0    0    0    0 -0.00000000000E+00 -0.00000000000E+00 -0.10000000000E+04  0.10000000000E+04  0.00000000000E+00 0.  1.
    9000005    2    1    2  501    0  0.13474020281E+02 -0.10524190659E+02 -0.91731347743E+03  0.97284010396E+03  0.32351436473E+03 0.  0.
         13    1    3    3    0    0 -0.15437129044E+02 -0.86279558531E+02 -0.87864691452E+03  0.88300785249E+03  0.00000000000E+00 0.  1.
          1    1    3    3  501    0  0.28911149325E+02  0.75755367872E+02 -0.38666562918E+02  0.89832251473E+02  0.00000000000E+00 0.  1.
         21    1    1    2  502  501 -0.13474020281E+02  0.10524190659E+02 -0.53592679752E+02  0.56253738850E+02  0.00000000000E+00 0.  1.
<mgrwt>
<rscale>  1 0.30000000E+03</rscale>
<asrwt>0</asrwt>
<pdfrwt beam="1">  1        1 0.10579602E+00 0.30000000E+03</pdfrwt>
<pdfrwt beam="2">0</pdfrwt>
<totfact> 0.31496977E+01</totfact>
</mgrwt>
</event>
<event>
 6    1  0.1875959E-004  0.3000000E+03  0.7818608E-02  0.1093470E+00
          1   -1    0    0  502    0  0.00000000000E+00  0.00000000000E+00  0.39263152858E+02  0.39263152858E+02  0.00000000000E+00 0.  1.
         13   -1    0    0    0    0 -0.00000000000E+00 -0.00000000000E+00 -0.10000000000E+04  0.10000000000E+04  0.00000000000E+00 0.  1.
    9000005    2    1    2  501    0 -0.18581879527E+02  0.29416133616E+02 -0.95088214057E+03  0.10031008741E+04  0.31752783058E+03 0.  0.
         13    1    3    3    0    0  0.48797061756E+02  0.27962577813E+01 -0.92481718826E+03  0.92610787924E+03  0.00000000000E+00 0.  1.
          1    1    3    3  501    0 -0.67378941283E+02  0.26619875835E+02 -0.26064952313E+02  0.76992994857E+02  0.00000000000E+00 0.  1.
         21    1    1    2  502  501  0.18581879527E+02 -0.29416133616E+02 -0.98547065724E+01  0.36162278763E+02  0.00000000000E+00 0.  1.
<mgrwt>
<rscale>  1 0.30000000E+03</rscale>
<asrwt>0</asrwt>
<pdfrwt beam="1">  1        1 0.14277540E+00 0.30000000E+03</pdfrwt>
<pdfrwt beam="2">0</pdfrwt>
<totfact> 0.19568443E+01</totfact>
</mgrwt>
</event>
<event>
 6    1  0.1875959E-004  0.3000000E+03  0.7818608E-02  0.1093470E+00
          1   -1    0    0  502    0  0.00000000000E+00  0.00000000000E+00  0.36201825248E+02  0.36201825248E+02  0.00000000000E+00 0.  1.
         13   -1    0    0    0    0 -0.00000000000E+00 -0.00000000000E+00 -0.10000000000E+04  0.10000000000E+04  0.00000000000E+00 0.  1.
    9000005    2    1    2  501    0  0.18291952676E+02 -0.24580236373E+02 -0.94001632008E+03  0.99741574315E+03  0.33206731112E+03 0.  0.
         13    1    3    3    0    0  0.36619025849E+02 -0.16818804355E+03 -0.35189075709E+03  0.39173367990E+03  0.00000000000E+00 0.  1.
          1    1    3    3  501    0 -0.18327073173E+02  0.14360780718E+03 -0.58812556299E+03  0.60568206325E+03  0.00000000000E+00 0.  1.
         21    1    1    2  502  501 -0.18291952676E+02  0.24580236373E+02 -0.23781854672E+02  0.38786082098E+02  0.00000000000E+00 0. -1.
<mgrwt>
<rscale>  1 0.30000000E+03</rscale>
<asrwt>0</asrwt>
<pdfrwt beam="1">  1        1 0.13164328E+00 0.30000000E+03</pdfrwt>
<pdfrwt beam="2">0</pdfrwt>
<totfact> 0.22414666E+01</totfact>
</mgrwt>
</event>
<event>
 6    1  0.1875959E-004  0.3000000E+03  0.7818608E-02  0.1093470E+00
          1   -1    0    0  502    0  0.00000000000E+00  0.00000000000E+00  0.64233665261E+02  0.64233665261E+02  0.00000000000E+00 0.  1.
         13   -1    0    0    0    0 -0.00000000000E+00 -0.00000000000E+00 -0.10000000000E+04  0.10000000000E+04  0.00000000000E+00 0.  1.
    9000005    2    1    2  501    0  0.24103583001E+01  0.38930465198E+02 -0.96190302060E+03  0.10172813778E+04  0.32875916669E+03 0.  0.
         13    1    3    3    0    0  0.65148654616E+02 -0.83064224886E+02 -0.10298898780E+03  0.14748133530E+03  0.00000000000E+00 0.  1.
          3    1    3    3  501    0 -0.62738296316E+02  0.12199469008E+03 -0.85891403280E+03  0.86980004253E+03  0.00000000000E+00 0.  1.
         21    1    1    2  502  501 -0.24103583001E+01 -0.38930465198E+02  0.26136685862E+02  0.46952287436E+02  0.00000000000E+00 0.  1.
<mgrwt>
<rscale>  1 0.30000000E+03</rscale>
<asrwt>0</asrwt>
<pdfrwt beam="1">  1        1 0.23357746E+00 0.30000000E+03</pdfrwt>
<pdfrwt beam="2">0</pdfrwt>
<totfact> 0.71205509E+00</totfact>
</mgrwt>
</event>
<event>
 6    1  0.1875959E-004  0.3000000E+03  0.7818608E-02  0.1093470E+00
          1   -1    0    0  502    0  0.00000000000E+00  0.00000000000E+00  0.39944965903E+02  0.39944965903E+02  0.00000000000E+00 0.  1.
         13   -1    0    0    0    0 -0.00000000000E+00 -0.00000000000E+00 -0.10000000000E+04  0.10000000000E+04  0.00000000000E+00 0.  1.
    9000005    2    1    2  501    0  0.20582719331E+01  0.16922139776E+02 -0.97219621307E+03  0.10190164322E+04  0.30485802763E+03 0.  0.
         13    1    3    3    0    0  0.12672379729E+03 -0.85908641167E+01 -0.76788333431E+03  0.77831711973E+03  0.00000000000E+00 0.  1.
          3    1    3    3  501    0 -0.12466552536E+03  0.25513003893E+02 -0.20431287876E+03  0.24069931243E+03  0.00000000000E+00 0.  1.
         21    1    1    2  502  501 -0.20582719331E+01 -0.16922139776E+02  0.12141178969E+02  0.20928533745E+02  0.00000000000E+00 0.  1.
<mgrwt>
<rscale>  1 0.30000000E+03</rscale>
<asrwt>0</asrwt>
<pdfrwt beam="1">  1        1 0.14525473E+00 0.30000000E+03</pdfrwt>
<pdfrwt beam="2">0</pdfrwt>
<totfact> 0.18998624E+01</totfact>
</mgrwt>
</event>
<event>
 6    1  0.1875959E-004  0.3000000E+03  0.7818608E-02  0.1093470E+00
          1   -1    0    0  502    0  0.00000000000E+00  0.00000000000E+00  0.58691674911E+02  0.58691674911E+02  0.00000000000E+00 0.  1.
         13   -1    0    0    0    0 -0.00000000000E+00 -0.00000000000E+00 -0.10000000000E+04  0.10000000000E+04  0.00000000000E+00 0.  1.
    9000005    2    1    2  501    0  0.10317792407E+02  0.52134012333E+00 -0.97010550025E+03  0.10280974609E+04  0.34025428551E+03 0.  0.
         13    1    3    3    0    0  0.18851964028E+02  0.35165197551E+02  0.14792377525E+02  0.42553520411E+02  0.00000000000E+00 0.  1.
          3    1    3    3  501    0 -0.85341716207E+01 -0.34643857428E+02 -0.98489787777E+03  0.98554394046E+03  0.00000000000E+00 0.  1.
         21    1    1    2  502  501 -0.10317792407E+02 -0.52134012333E+00  0.28797175156E+02  0.30594214039E+02  0.00000000000E+00 0.  1.
<mgrwt>
<rscale>  1 0.30000000E+03</rscale>
<asrwt>0</asrwt>
<pdfrwt beam="1">  1        1 0.21342472E+00 0.30000000E+03</pdfrwt>
<pdfrwt beam="2">0</pdfrwt>
<totfact> 0.88505742E+00</totfact>
</mgrwt>
</event>
<event>
 6    1  0.1875959E-004  0.3000000E+03  0.7818608E-02  0.1093470E+00
          1   -1    0    0  502    0  0.00000000000E+00  0.00000000000E+00  0.59400894409E+02  0.59400894409E+02  0.00000000000E+00 0.  1.
         13   -1    0    0    0    0 -0.00000000000E+00 -0.00000000000E+00 -0.10000000000E+04  0.10000000000E+04  0.00000000000E+00 0.  1.
    9000005    2    1    2  501    0  0.16868340516E+02 -0.48647446211E+01 -0.96993651185E+03  0.10252118602E+04  0.33162375473E+03 0.  0.
         13    1    3    3    0    0  0.69810742454E+02 -0.14217756885E+03 -0.70070584296E+03  0.71838477100E+03  0.00000000000E+00 0.  1.
          1    1    3    3  501    0 -0.52942401938E+02  0.13731282423E+03 -0.26923066888E+03  0.30682708923E+03  0.00000000000E+00 0.  1.
         21    1    1    2  502  501 -0.16868340516E+02  0.48647446211E+01  0.29337406254E+02  0.34189034174E+02  0.00000000000E+00 0.  1.
<mgrwt>
<rscale>  1 0.30000000E+03</rscale>
<asrwt>0</asrwt>
<pdfrwt beam="1">  1        1 0.21600371E+00 0.30000000E+03</pdfrwt>
<pdfrwt beam="2">0</pdfrwt>
<totfact> 0.86069855E+00</totfact>
</mgrwt>
</event>
<event>
 6    1  0.1875959E-004  0.3000000E+03  0.7818608E-02  0.1093470E+00
          1   -1    0    0  502    0  0.00000000000E+00  0.00000000000E+00  0.56673844834E+02  0.56673844834E+02  0.00000000000E+00 0.  1.
         13   -1    0    0    0    0 -0.00000000000E+00 -0.00000000000E+00 -0.10000000000E+04  0.10000000000E+04  0.00000000000E+00 0.  1.
    9000005    2    1    2  501    0 -0.48774635165E+01  0.94786860143E+01 -0.97096519193E+03  0.10270503492E+04  0.33458239756E+03 0.  0.
         13    1    3    3    0    0 -0.92983768688E+02  0.12813024961E+03 -0.29167689194E+03  0.33187158872E+03  0.00000000000E+00 0.  1.
          1    1    3    3  501    0  0.88106305171E+02 -0.11865156360E+03 -0.67928829999E+03  0.69517876051E+03  0.00000000000E+00 0.  1.
         21    1    1    2  502  501  0.48774635165E+01 -0.94786860143E+01  0.27639036766E+02  0.29623495612E+02  0.00000000000E+00 0.  1.
<mgrwt>
<rscale>  1 0.30000000E+03</rscale>
<asrwt>0</asrwt>
<pdfrwt beam="1">  1        1 0.20608714E+00 0.30000000E+03</pdfrwt>
<pdfrwt beam="2">0</pdfrwt>
<totfact> 0.95845140E+00</totfact>
</mgrwt>
</event>
<event>
 6    1  0.1875959E-004  0.3000000E+03  0.7818608E-02  0.1093470E+00
          3   -1    0    0  502    0  0.00000000000E+00  0.00000000000E+00  0.32336077891E+02  0.32336077891E+02  0.00000000000E+00 0.  1.
         13   -1    0    0    0    0 -0.00000000000E+00 -0.00000000000E+00 -0.10000000000E+04  0.10000000000E+04  0.00000000000E+00 0.  1.
    9000005    2    1    2  501    0  0.67809572188E+01  0.88252333565E+01 -0.97099315754E+03  0.10207192826E+04  0.31450957973E+03 0.  0.
         13    1    3    3    0    0  0.75957466054E+02 -0.60985251990E+02 -0.84969436743E+02  0.12926152865E+03  0.00000000000E+00 0.  1.
          1    1    3    3  501    0 -0.69176508835E+02  0.69810485347E+02 -0.88602372079E+03  0.89145775393E+03  0.00000000000E+00 0.  1.
         21    1    1    2  502  501 -0.67809572188E+01 -0.88252333565E+01  0.33292354271E+01  0.11616795304E+02  0.00000000000E+00 0.  1.
<mgrwt>
<rscale>  1 0.30000000E+03</rscale>
<asrwt>0</asrwt>
<pdfrwt beam="1">  1        3 0.11758599E+00 0.30000000E+03</pdfrwt>
<pdfrwt beam="2">0</pdfrwt>
<totfact> 0.24666766E+00</totfact>
</mgrwt>
</event>
<event>
 6    1  0.1875959E-004  0.3000000E+03  0.7818608E-02  0.1093470E+00
          1   -1    0    0  502    0  0.00000000000E+00  0.00000000000E+00  0.51563189130E+02  0.51563189130E+02  0.00000000000E+00 0.  1.
         13   -1    0    0    0    0 -0.00000000000E+00 -0.00000000000E+00 -0.10000000000E+04  0.10000000000E+04  0.00000000000E+00 0.  1.
    9000005    2    1    2  501    0  0.38741711345E+02 -0.30917203996E+01 -0.95389855558E+03  0.10123164111E+04  0.33667726807E+03 0.  0.
         13    1    3    3    0    0 -0.70203430638E+02  0.13710696547E+03 -0.34015088454E+03  0.37340255209E+03  0.00000000000E+00 0.  1.
          1    1    3    3  501    0  0.10894514198E+03 -0.14019868587E+03 -0.61374767104E+03  0.63891385898E+03  0.00000000000E+00 0.  1.
         21    1    1    2  502  501 -0.38741711345E+02  0.30917203996E+01  0.54617447139E+01  0.39246778063E+02  0.00000000000E+00 0.  1.
<mgrwt>
<rscale>  1 0.30000000E+03</rscale>
<asrwt>0</asrwt>
<pdfrwt beam="1">  1        1 0.18750290E+00 0.30000000E+03</pdfrwt>
<pdfrwt beam="2">0</pdfrwt>
<totfact> 0.11754141E+01</totfact>
</mgrwt>
</event>
<event>
 6    1  0.1875959E-004  0.3000000E+03  0.7818608E-02  0.1093470E+00
          1   -1    0    0  502    0  0.00000000000E+00  0.00000000000E+00  0.27260351116E+02  0.27260351116E+02  0.00000000000E+00 0.  1.
         13   -1    0    0    0    0 -0.00000000000E+00 -0.00000000000E+00 -0.10000000000E+04  0.10000000000E+04  0.00000000000E+00 0.  1.
    9000005    2    1    2  501    0 -0.12653814596E+02  0.52992832682E+01 -0.95358033715E+03  0.10036959574E+04  0.31289281550E+03 0.  0.
         13    1    3    3    0    0 -0.75157837129E+02  0.11201525861E+03 -0.20788777847E+03  0.24781736639E+03  0.00000000000E+00 0.  1.
          3    1    3    3  501    0  0.62504022533E+02 -0.10671597534E+03 -0.74569255868E+03  0.75587859098E+03  0.00000000000E+00 0.  1.
         21    1    1    2  502  501  0.12653814596E+02 -0.52992832682E+01 -0.19159311729E+02  0.23564393753E+02  0.00000000000E+00 0. -1.
<mgrwt>
<rscale>  1 0.30000000E+03</rscale>
<asrwt>0</asrwt>
<pdfrwt beam="1">  1        1 0.99128759E-01 0.30000000E+03</pdfrwt>
<pdfrwt beam="2">0</pdfrwt>
<totfact> 0.34667076E+01</totfact>
</mgrwt>
</event>
<event>
 6    1  0.1875959E-004  0.3000000E+03  0.7818608E-02  0.1093470E+00
          1   -1    0    0  502    0  0.00000000000E+00  0.00000000000E+00  0.28229659554E+02  0.28229659554E+02  0.00000000000E+00 0.  1.
         13   -1    0    0    0    0 -0.00000000000E+00 -0.00000000000E+00 -0.10000000000E+04  0.10000000000E+04  0.00000000000E+00 0.  1.
    9000005    2    1    2  501    0 -0.52668684074E+01  0.18346978877E+02 -0.92439905587E+03  0.97715725860E+03  0.31616189208E+03 0.  0.
         13    1    3    3    0    0 -0.22021082348E+02 -0.13765856863E+03 -0.26596743615E+03  0.30028900526E+03  0.00000000000E+00 0.  1.
          3    1    3    3  501    0  0.16754213941E+02  0.15600554751E+03 -0.65843161971E+03  0.67686825334E+03  0.00000000000E+00 0.  1.
         21    1    1    2  502  501  0.52668684074E+01 -0.18346978877E+02 -0.47371284579E+02  0.51072400956E+02  0.00000000000E+00 0.  1.
<mgrwt>
<rscale>  1 0.30000000E+03</rscale>
<asrwt>0</asrwt>
<pdfrwt beam="1">  1        1 0.10265352E+00 0.30000000E+03</pdfrwt>
<pdfrwt beam="2">0</pdfrwt>
<totfact> 0.32935949E+01</totfact>
</mgrwt>
</event>
<event>
 6    1  0.1875959E-004  0.3000000E+03  0.7818608E-02  0.1093470E+00
          1   -1    0    0  502    0  0.00000000000E+00  0.00000000000E+00  0.47298899350E+02  0.47298899350E+02  0.00000000000E+00 0.  1.
         13   -1    0    0    0    0 -0.00000000000E+00 -0.00000000000E+00 -0.10000000000E+04  0.10000000000E+04  0.00000000000E+00 0.  1.
    9000005    2    1    2  501    0  0.14617127794E+02  0.66208197019E+01 -0.92110937931E+03  0.10118654048E+04  0.41853507990E+03 0.  0.
         13    1    3    3    0    0 -0.93324227976E+02 -0.17335070147E+03 -0.56739942071E+03  0.60058469831E+03  0.00000000000E+00 0.  1.
          3    1    3    3  501    0  0.10794135577E+03  0.17997152117E+03 -0.35370995860E+03  0.41128070649E+03  0.00000000000E+00 0.  1.
         21    1    1    2  502  501 -0.14617127794E+02 -0.66208197019E+01 -0.31591721338E+02  0.35433494544E+02  0.00000000000E+00 0.  1.
<mgrwt>
<rscale>  1 0.30000000E+03</rscale>
<asrwt>0</asrwt>
<pdfrwt beam="1">  1        1 0.17199636E+00 0.30000000E+03</pdfrwt>
<pdfrwt beam="2">0</pdfrwt>
<totfact> 0.13970216E+01</totfact>
</mgrwt>
</event>
<event>
 6    1  0.1875959E-004  0.3000000E+03  0.7818608E-02  0.1093470E+00
          1   -1    0    0  502    0  0.00000000000E+00  0.00000000000E+00  0.30858244244E+02  0.30858244244E+02  0.00000000000E+00 0.  1.
         13   -1    0    0    0    0 -0.00000000000E+00 -0.00000000000E+00 -0.10000000000E+04  0.10000000000E+04  0.00000000000E+00 0.  1.
    9000005    2    1    2  501    0  0.17818930398E+02 -0.49393389888E+01 -0.94728298585E+03  0.10022275409E+04  0.32676149892E+03 0.  0.
         13    1    3    3    0    0 -0.66430058021E+02 -0.52671667249E+02 -0.88056563838E+03  0.88463727065E+03  0.00000000000E+00 0.  1.
          1    1    3    3  501    0  0.84248988418E+02  0.47732328261E+02 -0.66717347468E+02  0.11759027028E+03  0.00000000000E+00 0.  1.
         21    1    1    2  502  501 -0.17818930398E+02  0.49393389888E+01 -0.21858769910E+02  0.28630703312E+02  0.00000000000E+00 0.  1.
<mgrwt>
<rscale>  1 0.30000000E+03</rscale>
<asrwt>0</asrwt>
<pdfrwt beam="1">  1        1 0.11221203E+00 0.30000000E+03</pdfrwt>
<pdfrwt beam="2">0</pdfrwt>
<totfact> 0.28826732E+01</totfact>
</mgrwt>
</event>
<event>
 6    1  0.1875959E-004  0.3000000E+03  0.7818608E-02  0.1093470E+00
          3   -1    0    0  502    0  0.00000000000E+00  0.00000000000E+00  0.33033168102E+02  0.33033168102E+02  0.00000000000E+00 0.  1.
         13   -1    0    0    0    0 -0.00000000000E+00 -0.00000000000E+00 -0.10000000000E+04  0.10000000000E+04  0.00000000000E+00 0.  1.
    9000005    2    1    2  501    0 -0.24736826878E+02 -0.11001159354E+02 -0.92956431140E+03  0.98686083168E+03  0.33025983098E+03 0.  0.
         13    1    3    3    0    0 -0.59182245229E+02 -0.25199753359E+02 -0.83157578618E+01  0.64859213289E+02  0.00000000000E+00 0.  1.
          3    1    3    3  501    0  0.34445418350E+02  0.14198594005E+02 -0.92124855354E+03  0.92200161839E+03  0.00000000000E+00 0.  1.
         21    1    1    2  502  501  0.24736826878E+02  0.11001159354E+02 -0.37402520498E+02  0.46172336423E+02  0.00000000000E+00 0.  1.
<mgrwt>
<rscale>  1 0.30000000E+03</rscale>
<asrwt>0</asrwt>
<pdfrwt beam="1">  1        3 0.12012086E+00 0.30000000E+03</pdfrwt>
<pdfrwt beam="2">0</pdfrwt>
<totfact> 0.23055358E+00</totfact>
</mgrwt>
</event>
<event>
 6    1  0.1875959E-004  0.3000000E+03  0.7818608E-02  0.1093470E+00
          1   -1    0    0  502    0  0.00000000000E+00  0.00000000000E+00  0.69594709654E+02  0.69594709654E+02  0.00000000000E+00 0.  1.
         13   -1    0    0    0    0 -0.00000000000E+00 -0.00000000000E+00 -0.10000000000E+04  0.10000000000E+04  0.00000000000E+00 0.  1.
    9000005    2    1    2  501    0 -0.16457498378E+01 -0.99008908727E+01 -0.97056550187E+03  0.10281993147E+04  0.33925757355E+03 0.  0.
         13    1    3    3    0    0 -0.16517067174E+03 -0.34155318136E+02 -0.58156018408E+03  0.60552471813E+03  0.00000000000E+00 0.  1.
          3    1    3    3  501    0  0.16352492190E+03  0.24254427264E+02 -0.38900531780E+03  0.42267459658E+03  0.00000000000E+00 0.  1.
         21    1    1    2  502  501  0.16457498378E+01  0.99008908727E+01  0.40160211527E+02  0.41395394943E+02  0.00000000000E+00 0.  1.
<mgrwt>
<rscale>  1 0.30000000E+03</rscale>
<asrwt>0</asrwt>
<pdfrwt beam="1">  1        1 0.25307221E+00 0.30000000E+03</pdfrwt>
<pdfrwt beam="2">0</pdfrwt>
<totfact> 0.57727809E+00</totfact>
</mgrwt>
</event>
<event>
 6    1  0.1875959E-004  0.3000000E+03  0.7818608E-02  0.1093470E+00
          1   -1    0    0  502    0  0.00000000000E+00  0.00000000000E+00  0.29288389634E+02  0.29288389634E+02  0.00000000000E+00 0.  1.
         13   -1    0    0    0    0 -0.00000000000E+00 -0.00000000000E+00 -0.10000000000E+04  0.10000000000E+04  0.00000000000E+00 0.  1.
    9000005    2    1    2  501    0  0.50724520872E+01  0.78059915273E+01 -0.96183875333E+03  0.10164279516E+04  0.32848946735E+03 0.  0.
         13    1    3    3    0    0  0.23827865091E+02 -0.13432977211E+02  0.20185444279E+02  0.33995061293E+02  0.00000000000E+00 0.  1.
          3    1    3    3  501    0 -0.18755413004E+02  0.21238968738E+02 -0.98202419760E+03  0.98243289032E+03  0.00000000000E+00 0.  1.
         21    1    1    2  502  501 -0.50724520872E+01 -0.78059915273E+01 -0.88728570412E+01  0.12860438016E+02  0.00000000000E+00 0.  1.
<mgrwt>
<rscale>  1 0.30000000E+03</rscale>
<asrwt>0</asrwt>
<pdfrwt beam="1">  1        1 0.10650346E+00 0.30000000E+03</pdfrwt>
<pdfrwt beam="2">0</pdfrwt>
<totfact> 0.31185602E+01</totfact>
</mgrwt>
</event>
<event>
 6    1  0.1875959E-004  0.3000000E+03  0.7818608E-02  0.1093470E+00
          1   -1    0    0  502    0  0.00000000000E+00  0.00000000000E+00  0.35162977198E+02  0.35162977198E+02  0.00000000000E+00 0.  1.
         13   -1    0    0    0    0 -0.00000000000E+00 -0.00000000000E+00 -0.10000000000E+04  0.10000000000E+04  0.00000000000E+00 0.  1.
    9000005    2    1    2  501    0 -0.17366942364E+02 -0.16761317388E+02 -0.95452760398E+03  0.10089172811E+04  0.32589658004E+03 0.  0.
         13    1    3    3    0    0 -0.70375992789E+02  0.11717710856E+03 -0.20988053636E+03  0.25046575549E+03  0.00000000000E+00 0.  1.
          1    1    3    3  501    0  0.53009050425E+02 -0.13393842595E+03 -0.74464706762E+03  0.75845152560E+03  0.00000000000E+00 0.  1.
         21    1    1    2  502  501  0.17366942364E+02  0.16761317388E+02 -0.10309418824E+02  0.26245696108E+02  0.00000000000E+00 0.  1.
<mgrwt>
<rscale>  1 0.30000000E+03</rscale>
<asrwt>0</asrwt>
<pdfrwt beam="1">  1        1 0.12786564E+00 0.30000000E+03</pdfrwt>
<pdfrwt beam="2">0</pdfrwt>
<totfact> 0.23502782E+01</totfact>
</mgrwt>
</event>
<event>
 6    1  0.1875959E-004  0.3000000E+03  0.7818608E-02  0.1093470E+00
          1   -1    0    0  502    0  0.00000000000E+00  0.00000000000E+00  0.68590890882E+02  0.68590890882E+02  0.00000000000E+00 0.  1.
         13   -1    0    0    0    0 -0.00000000000E+00 -0.00000000000E+00 -0.10000000000E+04  0.10000000000E+04  0.00000000000E+00 0.  1.
    9000005    2    1    2  501    0  0.33404100539E+02 -0.37168697300E+01 -0.97067336554E+03  0.10169059716E+04  0.30126620019E+03 0.  0.
         13    1    3    3    0    0 -0.73705229765E+02  0.11316503400E+03 -0.57514449544E+03  0.59078758996E+03  0.00000000000E+00 0.  1.
          3    1    3    3  501    0  0.10710933030E+03 -0.11688190373E+03 -0.39552887010E+03  0.42611838160E+03  0.00000000000E+00 0.  1.
         21    1    1    2  502  501 -0.33404100539E+02  0.37168697300E+01  0.39264256418E+02  0.51684919323E+02  0.00000000000E+00 0.  1.
<mgrwt>
<rscale>  1 0.30000000E+03</rscale>
<asrwt>0</asrwt>
<pdfrwt beam="1">  1        1 0.24942195E+00 0.30000000E+03</pdfrwt>
<pdfrwt beam="2">0</pdfrwt>
<totfact> 0.60031679E+00</totfact>
</mgrwt>
</event>
<event>
 6    1  0.1875959E-004  0.3000000E+03  0.7818608E-02  0.1093470E+00
          1   -1    0    0  502    0  0.00000000000E+00  0.00000000000E+00  0.53696656535E+02  0.53696656535E+02  0.00000000000E+00 0.  1.
         13   -1    0    0    0    0 -0.00000000000E+00 -0.00000000000E+00 -0.10000000000E+04  0.10000000000E+04  0.00000000000E+00 0.  1.
    9000005    2    1    2  501    0  0.15043082834E+02 -0.54846199880E+02 -0.93352404689E+03  0.99540677402E+03  0.34078306834E+03 0.  0.
         13    1    3    3    0    0  0.63354795292E+02  0.68701366125E+02 -0.80598321442E+03  0.81138317072E+03  0.00000000000E+00 0.  1.
          1    1    3    3  501    0 -0.48311712458E+02 -0.12354756601E+03 -0.12754083247E+03  0.18402360330E+03  0.00000000000E+00 0.  1.
         21    1    1    2  502  501 -0.15043082834E+02  0.54846199880E+02 -0.12779296574E+02  0.58289882513E+02  0.00000000000E+00 0.  1.
<mgrwt>
<rscale>  1 0.30000000E+03</rscale>
<asrwt>0</asrwt>
<pdfrwt beam="1">  1        1 0.19526098E+00 0.30000000E+03</pdfrwt>
<pdfrwt beam="2">0</pdfrwt>
<totfact> 0.10789703E+01</totfact>
</mgrwt>
</event>
<event>
 6    1  0.1875959E-004  0.3000000E+03  0.7818608E-02  0.1093470E+00
          1   -1    0    0  502    0  0.00000000000E+00  0.00000000000E+00  0.37219481140E+02  0.37219481140E+02  0.00000000000E+00 0.  1.
         13   -1    0    0    0    0 -0.00000000000E+00 -0.00000000000E+00 -0.10000000000E+04  0.10000000000E+04  0.00000000000E+00 0.  1.
    9000005    2    1    2  501    0 -0.20465743426E+02  0.19146475093E+02 -0.94746089314E+03  0.10052800839E+04  0.33484394714E+03 0.  0.
         13    1    3    3    0    0 -0.15601746252E+03 -0.21299095930E+01 -0.74191057461E+03  0.75814067682E+03  0.00000000000E+00 0.  1.
          1    1    3    3  501    0  0.13555171910E+03  0.21276384686E+02 -0.20555031852E+03  0.24713940710E+03  0.00000000000E+00 0.  1.
         21    1    1    2  502  501  0.20465743426E+02 -0.19146475093E+02 -0.15319625723E+02  0.31939397220E+02  0.00000000000E+00 0. -1.
<mgrwt>
<rscale>  1 0.30000000E+03</rscale>
<asrwt>0</asrwt>
<pdfrwt beam="1">  1        1 0.13534385E+00 0.30000000E+03</pdfrwt>
<pdfrwt beam="2">0</pdfrwt>
<totfact> 0.21411868E+01</totfact>
</mgrwt>
</event>
<event>
 6    1  0.1875959E-004  0.3000000E+03  0.7818608E-02  0.1093470E+00
          1   -1    0    0  502    0  0.00000000000E+00  0.00000000000E+00  0.32299196905E+02  0.32299196905E+02  0.00000000000E+00 0.  1.
         13   -1    0    0    0    0 -0.00000000000E+00 -0.00000000000E+00 -0.10000000000E+04  0.10000000000E+04  0.00000000000E+00 0.  1.
    9000005    2    1    2  501    0 -0.30754231346E+02 -0.72700359143E+01 -0.90824164667E+03  0.96496371257E+03  0.32442780655E+03 0.  0.
         13    1    3    3    0    0  0.41636439515E+02 -0.29879977969E+02 -0.88379769612E+03  0.88528231308E+03  0.00000000000E+00 0.  1.
          1    1    3    3  501    0 -0.72390670861E+02  0.22609942054E+02 -0.24443950556E+02  0.79681399499E+02  0.00000000000E+00 0.  1.
         21    1    1    2  502  501  0.30754231346E+02  0.72700359143E+01 -0.59459156420E+02  0.67335484330E+02  0.00000000000E+00 0.  1.
<mgrwt>
<rscale>  1 0.30000000E+03</rscale>
<asrwt>0</asrwt>
<pdfrwt beam="1">  1        1 0.11745187E+00 0.30000000E+03</pdfrwt>
<pdfrwt beam="2">0</pdfrwt>
<totfact> 0.26878123E+01</totfact>
</mgrwt>
</event>
<event>
 6    1  0.1875959E-004  0.3000000E+03  0.7818608E-02  0.1093470E+00
          1   -1    0    0  502    0  0.00000000000E+00  0.00000000000E+00  0.30384303467E+02  0.30384303467E+02  0.00000000000E+00 0.  1.
         13   -1    0    0    0    0 -0.00000000000E+00 -0.00000000000E+00 -0.10000000000E+04  0.10000000000E+04  0.00000000000E+00 0.  1.
    9000005    2    1    2  501    0 -0.70762627157E+01  0.79051817614E+01 -0.96803966417E+03  0.10196582012E+04  0.32013979821E+03 0.  0.
         13    1    3    3    0    0  0.24782691933E+02  0.10215598251E+02  0.18520265950E+02  0.32581290918E+02  0.00000000000E+00 0.  1.
          1    1    3    3  501    0 -0.31858954648E+02 -0.23104164894E+01 -0.98655993012E+03  0.98707691024E+03  0.00000000000E+00 0.  1.
         21    1    1    2  502  501  0.70762627157E+01 -0.79051817614E+01 -0.15760323637E+01  0.10726102308E+02  0.00000000000E+00 0.  1.
<mgrwt>
<rscale>  1 0.30000000E+03</rscale>
<asrwt>0</asrwt>
<pdfrwt beam="1">  1        1 0.11048861E+00 0.30000000E+03</pdfrwt>
<pdfrwt beam="2">0</pdfrwt>
<totfact> 0.29511359E+01</totfact>
</mgrwt>
</event>
<event>
 6    1  0.1875959E-004  0.3000000E+03  0.7818608E-02  0.1093470E+00
          1   -1    0    0  502    0  0.00000000000E+00  0.00000000000E+00  0.31117148652E+02  0.31117148652E+02  0.00000000000E+00 0.  1.
         13   -1    0    0    0    0 -0.00000000000E+00 -0.00000000000E+00 -0.10000000000E+04  0.10000000000E+04  0.00000000000E+00 0.  1.
    9000005    2    1    2  501    0  0.64649530818E+01  0.27659018366E+02 -0.93208341492E+03  0.98463042542E+03  0.31608664220E+03 0.  0.
         13    1    3    3    0    0  0.24377018996E+02  0.11157545638E+03 -0.11162781182E+03  0.15969999966E+03  0.00000000000E+00 0.  1.
          3    1    3    3  501    0 -0.17912065914E+02 -0.83916438015E+02 -0.82045560310E+03  0.82493042575E+03  0.00000000000E+00 0.  1.
         21    1    1    2  502  501 -0.64649530818E+01 -0.27659018366E+02 -0.36799436433E+02  0.46486723235E+02  0.00000000000E+00 0. -1.
<mgrwt>
<rscale>  1 0.30000000E+03</rscale>
<asrwt>0</asrwt>
<pdfrwt beam="1">  1        1 0.11315351E+00 0.30000000E+03</pdfrwt>
<pdfrwt beam="2">0</pdfrwt>
<totfact> 0.28462229E+01</totfact>
</mgrwt>
</event>
<event>
 6    1  0.1875959E-004  0.3000000E+03  0.7818608E-02  0.1093470E+00
          1   -1    0    0  502    0  0.00000000000E+00  0.00000000000E+00  0.23885255573E+02  0.23885255573E+02  0.00000000000E+00 0.  1.
         13   -1    0    0    0    0 -0.00000000000E+00 -0.00000000000E+00 -0.10000000000E+04  0.10000000000E+04  0.00000000000E+00 0.  1.
    9000005    2    1    2  501    0  0.19108982081E+01 -0.89360973008E+01 -0.95807123890E+03  0.10036596911E+04  0.29891264836E+03 0.  0.
         13    1    3    3    0    0 -0.10355084053E+03  0.98927532612E+02 -0.37575693855E+03  0.40212275508E+03  0.00000000000E+00 0.  1.
          1    1    3    3  501    0  0.10546173874E+03 -0.10786362991E+03 -0.58231430035E+03  0.60153693601E+03  0.00000000000E+00 0.  1.
         21    1    1    2  502  501 -0.19108982081E+01  0.89360973008E+01 -0.18043505530E+02  0.20225564485E+02  0.00000000000E+00 0.  1.
<mgrwt>
<rscale>  1 0.30000000E+03</rscale>
<asrwt>0</asrwt>
<pdfrwt beam="1">  1        1 0.86855658E-01 0.30000000E+03</pdfrwt>
<pdfrwt beam="2">0</pdfrwt>
<totfact> 0.41881779E+01</totfact>
</mgrwt>
</event>
<event>
 6    1  0.1875959E-004  0.3000000E+03  0.7818608E-02  0.1093470E+00
          1   -1    0    0  502    0  0.00000000000E+00  0.00000000000E+00  0.30696342810E+02  0.30696342810E+02  0.00000000000E+00 0.  1.
         13   -1    0    0    0    0 -0.00000000000E+00 -0.00000000000E+00 -0.10000000000E+04  0.10000000000E+04  0.00000000000E+00 0.  1.
    9000005    2    1    2  501    0 -0.41104019563E+02  0.29945606172E+02 -0.79278785930E+03  0.84700065245E+03  0.29378773909E+03 0.  0.
         13    1    3    3    0    0 -0.15654800451E+03 -0.94214626599E+01 -0.29066497225E+03  0.33027589644E+03  0.00000000000E+00 0.  1.
          1    1    3    3  501    0  0.11544398495E+03  0.39367068832E+02 -0.50212288705E+03  0.51672475601E+03  0.00000000000E+00 0.  1.
         21    1    1    2  502  501  0.41104019563E+02 -0.29945606172E+02 -0.17651579789E+03  0.18369569036E+03  0.00000000000E+00 0.  1.
<mgrwt>
<rscale>  1 0.30000000E+03</rscale>
<asrwt>0</asrwt>
<pdfrwt beam="1">  1        1 0.11162330E+00 0.30000000E+03</pdfrwt>
<pdfrwt beam="2">0</pdfrwt>
<totfact> 0.29058059E+01</totfact>
</mgrwt>
</event>
<event>
 6    1  0.1875959E-004  0.3000000E+03  0.7818608E-02  0.1093470E+00
          1   -1    0    0  502    0  0.00000000000E+00  0.00000000000E+00  0.48979991950E+02  0.48979991950E+02  0.00000000000E+00 0.  1.
         13   -1    0    0    0    0 -0.00000000000E+00 -0.00000000000E+00 -0.10000000000E+04  0.10000000000E+04  0.00000000000E+00 0.  1.
    9000005    2    1    2  501    0  0.36144937065E+02  0.12310705569E+02 -0.95590528129E+03  0.10104848515E+04  0.32537166177E+03 0.  0.
         13    1    3    3    0    0 -0.59497096564E+01 -0.13295869538E+03 -0.70552907724E+03  0.71797262660E+03  0.00000000000E+00 0.  1.
          3    1    3    3  501    0  0.42094646721E+02  0.14526940095E+03 -0.25037620405E+03  0.29251222485E+03  0.00000000000E+00 0.  1.
         21    1    1    2  502  501 -0.36144937065E+02 -0.12310705569E+02  0.48852732370E+01  0.38495140494E+02  0.00000000000E+00 0.  1.
<mgrwt>
<rscale>  1 0.30000000E+03</rscale>
<asrwt>0</asrwt>
<pdfrwt beam="1">  1        1 0.17810944E+00 0.30000000E+03</pdfrwt>
<pdfrwt beam="2">0</pdfrwt>
<totfact> 0.13046543E+01</totfact>
</mgrwt>
</event>
<event>
 6    1  0.1875959E-004  0.3000000E+03  0.7818608E-02  0.1093470E+00
          1   -1    0    0  502    0  0.00000000000E+00  0.00000000000E+00  0.53399272431E+02  0.53399272431E+02  0.00000000000E+00 0.  1.
         13   -1    0    0    0    0 -0.00000000000E+00 -0.00000000000E+00 -0.10000000000E+04  0.10000000000E+04  0.00000000000E+00 0.  1.
    9000005    2    1    2  501    0  0.44039811812E+02 -0.29210359517E+02 -0.94513541958E+03  0.10005324846E+04  0.32402398255E+03 0.  0.
         13    1    3    3    0    0  0.71051619357E+02  0.13667530974E+03 -0.35612316942E+03  0.38801054716E+03  0.00000000000E+00 0.  1.
          1    1    3    3  501    0 -0.27011807544E+02 -0.16588566926E+03 -0.58901225016E+03  0.61252193745E+03  0.00000000000E+00 0.  1.
         21    1    1    2  502  501 -0.44039811812E+02  0.29210359517E+02 -0.14653079856E+01  0.52866787827E+02  0.00000000000E+00 0.  1.
<mgrwt>
<rscale>  1 0.30000000E+03</rscale>
<asrwt>0</asrwt>
<pdfrwt beam="1">  1        1 0.19417958E+00 0.30000000E+03</pdfrwt>
<pdfrwt beam="2">0</pdfrwt>
<totfact> 0.10918814E+01</totfact>
</mgrwt>
</event>
<event>
 6    1  0.1875959E-004  0.3000000E+03  0.7818608E-02  0.1093470E+00
          1   -1    0    0  502    0  0.00000000000E+00  0.00000000000E+00  0.36639986709E+02  0.36639986709E+02  0.00000000000E+00 0.  1.
         13   -1    0    0    0    0 -0.00000000000E+00 -0.00000000000E+00 -0.10000000000E+04  0.10000000000E+04  0.00000000000E+00 0.  1.
    9000005    2    1    2  501    0  0.17672298598E+02  0.17288443849E+02 -0.95153268379E+03  0.10092340357E+04  0.33545147195E+03 0.  0.
         13    1    3    3    0    0  0.55304458723E+02  0.18570842234E+02 -0.96683202777E+03  0.96859053746E+03  0.00000000000E+00 0.  1.
          3    1    3    3  501    0 -0.37632160124E+02 -0.12823983848E+01  0.15299343983E+02  0.40643498220E+02  0.00000000000E+00 0.  1.
         21    1    1    2  502  501 -0.17672298598E+02 -0.17288443849E+02 -0.11827329499E+02  0.27405951024E+02  0.00000000000E+00 0.  1.
<mgrwt>
<rscale>  1 0.30000000E+03</rscale>
<asrwt>0</asrwt>
<pdfrwt beam="1">  1        1 0.13323660E+00 0.30000000E+03</pdfrwt>
<pdfrwt beam="2">0</pdfrwt>
<totfact> 0.21975453E+01</totfact>
</mgrwt>
</event>
<event>
 6    1  0.1875959E-004  0.3000000E+03  0.7818608E-02  0.1093470E+00
          3   -1    0    0  502    0  0.00000000000E+00  0.00000000000E+00  0.34115478519E+02  0.34115478519E+02  0.00000000000E+00 0.  1.
         13   -1    0    0    0    0 -0.00000000000E+00 -0.00000000000E+00 -0.10000000000E+04  0.10000000000E+04  0.00000000000E+00 0.  1.
    9000005    2    1    2  501    0  0.22608553748E+02 -0.14699243015E+02 -0.93679637968E+03  0.99445019847E+03  0.33259062797E+03 0.  0.
         13    1    3    3    0    0 -0.75136159276E+02  0.12355955018E+03 -0.26770394446E+03  0.30426601314E+03  0.00000000000E+00 0.  1.
          1    1    3    3  501    0  0.97744713024E+02 -0.13825879319E+03 -0.66909243522E+03  0.69018418534E+03  0.00000000000E+00 0.  1.
         21    1    1    2  502  501 -0.22608553748E+02  0.14699243015E+02 -0.29088141800E+02  0.39665280046E+02  0.00000000000E+00 0. -1.
<mgrwt>
<rscale>  1 0.30000000E+03</rscale>
<asrwt>0</asrwt>
<pdfrwt beam="1">  1        3 0.12405655E+00 0.30000000E+03</pdfrwt>
<pdfrwt beam="2">0</pdfrwt>
<totfact> 0.20751973E+00</totfact>
</mgrwt>
</event>
<event>
 6    1  0.1875959E-004  0.3000000E+03  0.7818608E-02  0.1093470E+00
          1   -1    0    0  502    0  0.00000000000E+00  0.00000000000E+00  0.26127164907E+02  0.26127164907E+02  0.00000000000E+00 0.  1.
         13   -1    0    0    0    0 -0.00000000000E+00 -0.00000000000E+00 -0.10000000000E+04  0.10000000000E+04  0.00000000000E+00 0.  1.
    9000005    2    1    2  501    0  0.17078787743E+02  0.15275507182E+02 -0.81688467302E+03  0.86747563122E+03  0.29101267264E+03 0.  0.
         13    1    3    3    0    0  0.68512424518E+02 -0.29546113822E+02 -0.79099365242E+03  0.79450480384E+03  0.00000000000E+00 0.  1.
          3    1    3    3  501    0 -0.51433636775E+02  0.44821621004E+02 -0.25891020604E+02  0.72970827385E+02  0.00000000000E+00 0.  1.
         21    1    1    2  502  501 -0.17078787743E+02 -0.15275507182E+02 -0.15698816207E+03  0.15865153369E+03  0.00000000000E+00 0. -1.
<mgrwt>
<rscale>  1 0.30000000E+03</rscale>
<asrwt>0</asrwt>
<pdfrwt beam="1">  1        1 0.95008073E-01 0.30000000E+03</pdfrwt>
<pdfrwt beam="2">0</pdfrwt>
<totfact> 0.36866582E+01</totfact>
</mgrwt>
</event>
<event>
 6    1  0.1875959E-004  0.3000000E+03  0.7818608E-02  0.1093470E+00
          1   -1    0    0  502    0  0.00000000000E+00  0.00000000000E+00  0.52210220813E+02  0.52210220813E+02  0.00000000000E+00 0.  1.
         13   -1    0    0    0    0 -0.00000000000E+00 -0.00000000000E+00 -0.10000000000E+04  0.10000000000E+04  0.00000000000E+00 0.  1.
    9000005    2    1    2  501    0  0.88013276196E+02  0.27204572906E+02 -0.86809210303E+03  0.93039829546E+03  0.32182396318E+03 0.  0.
         13    1    3    3    0    0  0.10045403495E+03 -0.13043580811E+03 -0.56551509510E+03  0.58899222063E+03  0.00000000000E+00 0.  1.
          1    1    3    3  501    0 -0.12440758751E+02  0.15764038101E+03 -0.30257700792E+03  0.34140607483E+03  0.00000000000E+00 0.  1.
         21    1    1    2  502  501 -0.88013276196E+02 -0.27204572906E+02 -0.79697676161E+02  0.12181192536E+03  0.00000000000E+00 0.  1.
<mgrwt>
<rscale>  1 0.30000000E+03</rscale>
<asrwt>0</asrwt>
<pdfrwt beam="1">  1        1 0.18985575E+00 0.30000000E+03</pdfrwt>
<pdfrwt beam="2">0</pdfrwt>
<totfact> 0.11452232E+01</totfact>
</mgrwt>
</event>
<event>
 6    1  0.1875959E-004  0.3000000E+03  0.7818608E-02  0.1093470E+00
          1   -1    0    0  502    0  0.00000000000E+00  0.00000000000E+00  0.80819831604E+02  0.80819831604E+02  0.00000000000E+00 0.  1.
         13   -1    0    0    0    0 -0.00000000000E+00 -0.00000000000E+00 -0.10000000000E+04  0.10000000000E+04  0.00000000000E+00 0.  1.
    9000005    2    1    2  501    0 -0.21636796983E+01 -0.22519514228E+02 -0.96910635540E+03  0.10260071125E+04  0.33617206417E+03 0.  0.
         13    1    3    3    0    0  0.46913700614E+02  0.23320501422E+02 -0.95618546499E+03  0.95761964503E+03  0.00000000000E+00 0.  1.
          3    1    3    3  501    0 -0.49077380312E+02 -0.45840015650E+02 -0.12920890406E+02  0.68387467434E+02  0.00000000000E+00 0.  1.
         21    1    1    2  502  501  0.21636796983E+01  0.22519514228E+02  0.49926187001E+02  0.54812719138E+02  0.00000000000E+00 0.  1.
<mgrwt>
<rscale>  1 0.30000000E+03</rscale>
<asrwt>0</asrwt>
<pdfrwt beam="1">  1        1 0.29389092E+00 0.30000000E+03</pdfrwt>
<pdfrwt beam="2">0</pdfrwt>
<totfact> 0.37137725E+00</totfact>
</mgrwt>
</event>
<event>
 6    1  0.1875959E-004  0.3000000E+03  0.7818608E-02  0.1093470E+00
          1   -1    0    0  502    0  0.00000000000E+00  0.00000000000E+00  0.99366905872E+02  0.99366905872E+02  0.00000000000E+00 0.  1.
         13   -1    0    0    0    0 -0.00000000000E+00 -0.00000000000E+00 -0.10000000000E+04  0.10000000000E+04  0.00000000000E+00 0.  1.
    9000005    2    1    2  501    0  0.28417716540E+02  0.22083268991E+03 -0.50889354778E+03  0.64877339092E+03  0.33520087446E+03 0.  0.
         13    1    3    3    0    0 -0.84714312306E+01  0.16662108395E+03 -0.35131559669E+02  0.17049509450E+03  0.00000000000E+00 0.  1.
          1    1    3    3  501    0  0.36889147771E+02  0.54211605961E+02 -0.47376198811E+03  0.47827829641E+03  0.00000000000E+00 0.  1.
         21    1    1    2  502  501 -0.28417716540E+02 -0.22083268991E+03 -0.39173954635E+03  0.45059351496E+03  0.00000000000E+00 0.  1.
<mgrwt>
<rscale>  1 0.30000000E+03</rscale>
<asrwt>0</asrwt>
<pdfrwt beam="1">  1        1 0.36133497E+00 0.30000000E+03</pdfrwt>
<pdfrwt beam="2">0</pdfrwt>
<totfact> 0.17179306E+00</totfact>
</mgrwt>
</event>
<event>
 6    1  0.1875959E-004  0.3000000E+03  0.7818608E-02  0.1093470E+00
          3   -1    0    0  502    0  0.00000000000E+00  0.00000000000E+00  0.75136591403E+01  0.75136591403E+01  0.00000000000E+00 0.  1.
         13   -1    0    0    0    0 -0.00000000000E+00 -0.00000000000E+00 -0.10000000000E+04  0.10000000000E+04  0.00000000000E+00 0.  1.
    9000005    2    1    2  501    0 -0.14298885129E+02 -0.82813168577E+01 -0.95323978131E+03  0.96493043755E+03  0.14883423768E+03 0.  0.
         13    1    3    3    0    0  0.16178682319E+02  0.57110148446E+02 -0.67083441835E+03  0.67345537020E+03  0.00000000000E+00 0.  1.
          1    1    3    3  501    0 -0.30477567448E+02 -0.65391465304E+02 -0.28240536297E+03  0.29147506735E+03  0.00000000000E+00 0.  1.
         21    1    1    2  502  501  0.14298885129E+02  0.82813168577E+01 -0.39246559545E+02  0.42583221590E+02  0.00000000000E+00 0. -1.
<mgrwt>
<rscale>  1 0.30000000E+03</rscale>
<asrwt>0</asrwt>
<pdfrwt beam="1">  1        3 0.27322454E-01 0.30000000E+03</pdfrwt>
<pdfrwt beam="2">0</pdfrwt>
<totfact> 0.55828078E+01</totfact>
</mgrwt>
</event>
<event>
 6    1  0.1875959E-004  0.3000000E+03  0.7818608E-02  0.1093470E+00
          3   -1    0    0  502    0  0.00000000000E+00  0.00000000000E+00  0.31768935469E+02  0.31768935469E+02  0.00000000000E+00 0.  1.
         13   -1    0    0    0    0 -0.00000000000E+00 -0.00000000000E+00 -0.10000000000E+04  0.10000000000E+04  0.00000000000E+00 0.  1.
    9000005    2    1    2  501    0  0.81757876053E+01 -0.11960237403E+02 -0.81738167193E+03  0.88022544326E+03  0.32630375814E+03 0.  0.
         13    1    3    3    0    0 -0.26082278557E+02 -0.17314851185E+02  0.23176904714E+02  0.38951999158E+02  0.00000000000E+00 0.  1.
          3    1    3    3  501    0  0.34258066162E+02  0.53546137813E+01 -0.84055857664E+03  0.84127344410E+03  0.00000000000E+00 0.  1.
         21    1    1    2  502  501 -0.81757876053E+01  0.11960237403E+02 -0.15084939260E+03  0.15154349221E+03  0.00000000000E+00 0.  1.
<mgrwt>
<rscale>  1 0.30000000E+03</rscale>
<asrwt>0</asrwt>
<pdfrwt beam="1">  1        3 0.11552365E+00 0.30000000E+03</pdfrwt>
<pdfrwt beam="2">0</pdfrwt>
<totfact> 0.26055085E+00</totfact>
</mgrwt>
</event>
<event>
 6    1  0.1875959E-004  0.3000000E+03  0.7818608E-02  0.1093470E+00
          1   -1    0    0  502    0  0.00000000000E+00  0.00000000000E+00  0.27692965142E+02  0.27692965142E+02  0.00000000000E+00 0.  1.
         13   -1    0    0    0    0 -0.00000000000E+00 -0.00000000000E+00 -0.10000000000E+04  0.10000000000E+04  0.00000000000E+00 0.  1.
    9000005    2    1    2  501    0 -0.56700502820E+00 -0.18559779059E+02 -0.93230460098E+03  0.98359101950E+03  0.31291314727E+03 0.  0.
         13    1    3    3    0    0  0.10415096383E+03 -0.27178841466E+02 -0.82996607003E+03  0.83691683583E+03  0.00000000000E+00 0.  1.
          1    1    3    3  501    0 -0.10471796886E+03  0.86190624065E+01 -0.10233853095E+03  0.14667418367E+03  0.00000000000E+00 0.  1.
         21    1    1    2  502  501  0.56700502820E+00  0.18559779059E+02 -0.40002433877E+02  0.44101945643E+02  0.00000000000E+00 0. -1.
<mgrwt>
<rscale>  1 0.30000000E+03</rscale>
<asrwt>0</asrwt>
<pdfrwt beam="1">  1        1 0.10070190E+00 0.30000000E+03</pdfrwt>
<pdfrwt beam="2">0</pdfrwt>
<totfact> 0.33878327E+01</totfact>
</mgrwt>
</event>
<event>
 6    1  0.1875959E-004  0.3000000E+03  0.7818608E-02  0.1093470E+00
          1   -1    0    0  502    0  0.00000000000E+00  0.00000000000E+00  0.37272959405E+02  0.37272959405E+02  0.00000000000E+00 0.  1.
         13   -1    0    0    0    0 -0.00000000000E+00 -0.00000000000E+00 -0.10000000000E+04  0.10000000000E+04  0.00000000000E+00 0.  1.
    9000005    2    1    2  501    0 -0.10592043233E+02 -0.37687107697E+01 -0.96742883939E+03  0.10250868414E+04  0.33875961761E+03 0.  0.
         13    1    3    3    0    0  0.15177481289E+03 -0.65360485584E+02 -0.46388148207E+03  0.49243640839E+03  0.00000000000E+00 0.  1.
          3    1    3    3  501    0 -0.16236685613E+03  0.61591774815E+02 -0.50354735732E+03  0.53265043298E+03  0.00000000000E+00 0.  1.
         21    1    1    2  502  501  0.10592043233E+02  0.37687107697E+01  0.47017987945E+01  0.12186118029E+02  0.00000000000E+00 0.  1.
<mgrwt>
<rscale>  1 0.30000000E+03</rscale>
<asrwt>0</asrwt>
<pdfrwt beam="1">  1        1 0.13553832E+00 0.30000000E+03</pdfrwt>
<pdfrwt beam="2">0</pdfrwt>
<totfact> 0.21360831E+01</totfact>
</mgrwt>
</event>
<event>
 6    1  0.1875959E-004  0.3000000E+03  0.7818608E-02  0.1093470E+00
          1   -1    0    0  502    0  0.00000000000E+00  0.00000000000E+00  0.34089454265E+02  0.34089454265E+02  0.00000000000E+00 0.  1.
         13   -1    0    0    0    0 -0.00000000000E+00 -0.00000000000E+00 -0.10000000000E+04  0.10000000000E+04  0.00000000000E+00 0.  1.
    9000005    2    1    2  501    0 -0.43047545020E+00  0.15782635046E+02 -0.95991926969E+03  0.10172024099E+04  0.33616433711E+03 0.  0.
         13    1    3    3    0    0 -0.35544043121E+02 -0.65648583174E+02 -0.25953479974E+02  0.79036058840E+02  0.00000000000E+00 0.  1.
          1    1    3    3  501    0  0.35113567671E+02  0.81431218220E+02 -0.93396578972E+03  0.93816635108E+03  0.00000000000E+00 0.  1.
         21    1    1    2  502  501  0.43047545020E+00 -0.15782635046E+02 -0.59912760438E+01  0.16887044346E+02  0.00000000000E+00 0. -1.
<mgrwt>
<rscale>  1 0.30000000E+03</rscale>
<asrwt>0</asrwt>
<pdfrwt beam="1">  1        1 0.12396191E+00 0.30000000E+03</pdfrwt>
<pdfrwt beam="2">0</pdfrwt>
<totfact> 0.24699639E+01</totfact>
</mgrwt>
</event>
<event>
 6    1  0.1875959E-004  0.3000000E+03  0.7818608E-02  0.1093470E+00
          1   -1    0    0  502    0  0.00000000000E+00  0.00000000000E+00  0.49360623530E+02  0.49360623530E+02  0.00000000000E+00 0.  1.
         13   -1    0    0    0    0 -0.00000000000E+00 -0.00000000000E+00 -0.10000000000E+04  0.10000000000E+04  0.00000000000E+00 0.  1.
    9000005    2    1    2  501    0  0.40826267684E+02 -0.26005121858E+02 -0.92907668753E+03  0.99637005786E+03  0.35668859022E+03 0.  0.
         13    1    3    3    0    0  0.18248010778E+03 -0.91200249808E+02 -0.53180927101E+03  0.56959422050E+03  0.00000000000E+00 0.  1.
          3    1    3    3  501    0 -0.14165384010E+03  0.65195127949E+02 -0.39726741652E+03  0.42677583735E+03  0.00000000000E+00 0.  1.
         21    1    1    2  502  501 -0.40826267684E+02  0.26005121858E+02 -0.21562688943E+02  0.52990565673E+02  0.00000000000E+00 0.  1.
<mgrwt>
<rscale>  1 0.30000000E+03</rscale>
<asrwt>0</asrwt>
<pdfrwt beam="1">  1        1 0.17949355E+00 0.30000000E+03</pdfrwt>
<pdfrwt beam="2">0</pdfrwt>
<totfact> 0.12846726E+01</totfact>
</mgrwt>
</event>
<event>
 6    1  0.1875959E-004  0.3000000E+03  0.7818608E-02  0.1093470E+00
          1   -1    0    0  502    0  0.00000000000E+00  0.00000000000E+00  0.46170875523E+02  0.46170875523E+02  0.00000000000E+00 0.  1.
         13   -1    0    0    0    0 -0.00000000000E+00 -0.00000000000E+00 -0.10000000000E+04  0.10000000000E+04  0.00000000000E+00 0.  1.
    9000005    2    1    2  501    0  0.29728878842E+02  0.62996422077E+02 -0.60434587791E+03  0.68981305667E+03  0.32520110327E+03 0.  0.
         13    1    3    3    0    0  0.13163373285E+02  0.19629577324E+03 -0.39093705404E+03  0.43764950041E+03  0.00000000000E+00 0.  1.
          1    1    3    3  501    0  0.16565505557E+02 -0.13329935117E+03 -0.21340882387E+03  0.25216355625E+03  0.00000000000E+00 0.  1.
         21    1    1    2  502  501 -0.29728878842E+02 -0.62996422077E+02 -0.34948324656E+03  0.35635781886E+03  0.00000000000E+00 0.  1.
<mgrwt>
<rscale>  1 0.30000000E+03</rscale>
<asrwt>0</asrwt>
<pdfrwt beam="1">  1        1 0.16789445E+00 0.30000000E+03</pdfrwt>
<pdfrwt beam="2">0</pdfrwt>
<totfact> 0.14630299E+01</totfact>
</mgrwt>
</event>
<event>
 6    1  0.1875959E-004  0.3000000E+03  0.7818608E-02  0.1093470E+00
          1   -1    0    0  502    0  0.00000000000E+00  0.00000000000E+00  0.54117782988E+02  0.54117782988E+02  0.00000000000E+00 0.  1.
         13   -1    0    0    0    0 -0.00000000000E+00 -0.00000000000E+00 -0.10000000000E+04  0.10000000000E+04  0.00000000000E+00 0.  1.
    9000005    2    1    2  501    0  0.47521433950E+02 -0.83752638424E+02 -0.86501156035E+03  0.92836861108E+03  0.32303326046E+03 0.  0.
         13    1    3    3    0    0 -0.76422581173E+02  0.14107330837E+02 -0.68296151896E+03  0.68736879771E+03  0.00000000000E+00 0.  1.
          3    1    3    3  501    0  0.12394401512E+03 -0.97859969261E+02 -0.18205004139E+03  0.24099981336E+03  0.00000000000E+00 0.  1.
         21    1    1    2  502  501 -0.47521433950E+02  0.83752638424E+02 -0.80870656662E+02  0.12574917191E+03  0.00000000000E+00 0.  1.
<mgrwt>
<rscale>  1 0.30000000E+03</rscale>
<asrwt>0</asrwt>
<pdfrwt beam="1">  1        1 0.19679235E+00 0.30000000E+03</pdfrwt>
<pdfrwt beam="2">0</pdfrwt>
<totfact> 0.10609783E+01</totfact>
</mgrwt>
</event>
<event>
 6    1  0.1875959E-004  0.3000000E+03  0.7818608E-02  0.1093470E+00
          3   -1    0    0  502    0  0.00000000000E+00  0.00000000000E+00  0.34648947453E+02  0.34648947453E+02  0.00000000000E+00 0.  1.
         13   -1    0    0    0    0 -0.00000000000E+00 -0.00000000000E+00 -0.10000000000E+04  0.10000000000E+04  0.00000000000E+00 0.  1.
    9000005    2    1    2  501    0 -0.41051576484E+02  0.26134340879E+01 -0.89357759090E+03  0.95192354769E+03  0.32555409337E+03 0.  0.
         13    1    3    3    0    0 -0.20046064808E+02  0.72536758941E+02 -0.23573729951E+02  0.78861567673E+02  0.00000000000E+00 0.  1.
          3    1    3    3  501    0 -0.21005511676E+02 -0.69923324853E+02 -0.87000386095E+03  0.87306198002E+03  0.00000000000E+00 0.  1.
         21    1    1    2  502  501  0.41051576484E+02 -0.26134340879E+01 -0.71773461645E+02  0.82725399764E+02  0.00000000000E+00 0. -1.
<mgrwt>
<rscale>  1 0.30000000E+03</rscale>
<asrwt>0</asrwt>
<pdfrwt beam="1">  1        3 0.12599644E+00 0.30000000E+03</pdfrwt>
<pdfrwt beam="2">0</pdfrwt>
<totfact> 0.19701823E+00</totfact>
</mgrwt>
</event>
<event>
 6    1  0.1875959E-004  0.3000000E+03  0.7818608E-02  0.1093470E+00
          1   -1    0    0  502    0  0.00000000000E+00  0.00000000000E+00  0.32873295914E+02  0.32873295914E+02  0.00000000000E+00 0.  1.
         13   -1    0    0    0    0 -0.00000000000E+00 -0.00000000000E+00 -0.10000000000E+04  0.10000000000E+04  0.00000000000E+00 0.  1.
    9000005    2    1    2  501    0 -0.37337242526E+01 -0.11426348949E+02 -0.96552259434E+03  0.10207458347E+04  0.33097383092E+03 0.  0.
         13    1    3    3    0    0 -0.86632479174E+02  0.70176699197E+02 -0.10750271431E+03  0.15487669012E+03  0.00000000000E+00 0.  1.
          1    1    3    3  501    0  0.82898754921E+02 -0.81603048145E+02 -0.85801988003E+03  0.86586914460E+03  0.00000000000E+00 0.  1.
         21    1    1    2  502  501  0.37337242526E+01  0.11426348949E+02 -0.16041097448E+01  0.12127461200E+02  0.00000000000E+00 0. -1.
<mgrwt>
<rscale>  1 0.30000000E+03</rscale>
<asrwt>0</asrwt>
<pdfrwt beam="1">  1        1 0.11953951E+00 0.30000000E+03</pdfrwt>
<pdfrwt beam="2">0</pdfrwt>
<totfact> 0.26152502E+01</totfact>
</mgrwt>
</event>
<event>
 6    1  0.1875959E-004  0.3000000E+03  0.7818608E-02  0.1093470E+00
          1   -1    0    0  502    0  0.00000000000E+00  0.00000000000E+00  0.49353999052E+02  0.49353999052E+02  0.00000000000E+00 0.  1.
         13   -1    0    0    0    0 -0.00000000000E+00 -0.00000000000E+00 -0.10000000000E+04  0.10000000000E+04  0.00000000000E+00 0.  1.
    9000005    2    1    2  501    0  0.22610575165E+02  0.31495968867E+01 -0.95859657317E+03  0.10251802598E+04  0.36272030129E+03 0.  0.
         13    1    3    3    0    0 -0.25146075296E+01  0.32206149888E+00 -0.98708605561E+03  0.98708931114E+03  0.00000000000E+00 0.  1.
          3    1    3    3  501    0  0.25125182694E+02  0.28275353878E+01  0.28489482443E+02  0.38090948684E+02  0.00000000000E+00 0.  1.
         21    1    1    2  502  501 -0.22610575165E+02 -0.31495968867E+01  0.79505722211E+01  0.24173739232E+02  0.00000000000E+00 0.  1.
<mgrwt>
<rscale>  1 0.30000000E+03</rscale>
<asrwt>0</asrwt>
<pdfrwt beam="1">  1        1 0.17946947E+00 0.30000000E+03</pdfrwt>
<pdfrwt beam="2">0</pdfrwt>
<totfact> 0.12850175E+01</totfact>
</mgrwt>
</event>
<event>
 6    1  0.1875959E-004  0.3000000E+03  0.7818608E-02  0.1093470E+00
          1   -1    0    0  502    0  0.00000000000E+00  0.00000000000E+00  0.39264102889E+02  0.39264102889E+02  0.00000000000E+00 0.  1.
         13   -1    0    0    0    0 -0.00000000000E+00 -0.00000000000E+00 -0.10000000000E+04  0.10000000000E+04  0.00000000000E+00 0.  1.
    9000005    2    1    2  501    0  0.20364166206E+02 -0.32606719079E+02 -0.94682913223E+03  0.99838262170E+03  0.31433192058E+03 0.  0.
         13    1    3    3    0    0 -0.12289830465E+03 -0.95030853413E+02 -0.38328657467E+03  0.41357400149E+03  0.00000000000E+00 0.  1.
          3    1    3    3  501    0  0.14326247085E+03  0.62424134334E+02 -0.56354255755E+03  0.58480862021E+03  0.00000000000E+00 0.  1.
         21    1    1    2  502  501 -0.20364166206E+02  0.32606719079E+02 -0.13906764886E+02  0.40881481186E+02  0.00000000000E+00 0. -1.
<mgrwt>
<rscale>  1 0.30000000E+03</rscale>
<asrwt>0</asrwt>
<pdfrwt beam="1">  1        1 0.14277886E+00 0.30000000E+03</pdfrwt>
<pdfrwt beam="2">0</pdfrwt>
<totfact> 0.19567634E+01</totfact>
</mgrwt>
</event>
<event>
 6    1  0.1875959E-004  0.3000000E+03  0.7818608E-02  0.1093470E+00
          1   -1    0    0  502    0  0.00000000000E+00  0.00000000000E+00  0.26193622213E+02  0.26193622213E+02  0.00000000000E+00 0.  1.
         13   -1    0    0    0    0 -0.00000000000E+00 -0.00000000000E+00 -0.10000000000E+04  0.10000000000E+04  0.00000000000E+00 0.  1.
    9000005    2    1    2  501    0 -0.86792013642E+01 -0.24141881519E+01 -0.95660453102E+03  0.10067755797E+04  0.31372548889E+03 0.  0.
         13    1    3    3    0    0  0.12783083347E+03  0.58560896082E+02 -0.65773533721E+03  0.67259636807E+03  0.00000000000E+00 0.  1.
          1    1    3    3  501    0 -0.13651003484E+03 -0.60975084234E+02 -0.29886919381E+03  0.33417921168E+03  0.00000000000E+00 0.  1.
         21    1    1    2  502  501  0.86792013642E+01  0.24141881519E+01 -0.17201846772E+02  0.19418042463E+02  0.00000000000E+00 0.  1.
<mgrwt>
<rscale>  1 0.30000000E+03</rscale>
<asrwt>0</asrwt>
<pdfrwt beam="1">  1        1 0.95249736E-01 0.30000000E+03</pdfrwt>
<pdfrwt beam="2">0</pdfrwt>
<totfact> 0.36731940E+01</totfact>
</mgrwt>
</event>
<event>
 6    1  0.1875959E-004  0.3000000E+03  0.7818608E-02  0.1093470E+00
          1   -1    0    0  502    0  0.00000000000E+00  0.00000000000E+00  0.29055763974E+02  0.29055763974E+02  0.00000000000E+00 0.  1.
         13   -1    0    0    0    0 -0.00000000000E+00 -0.00000000000E+00 -0.10000000000E+04  0.10000000000E+04  0.00000000000E+00 0.  1.
    9000005    2    1    2  501    0 -0.11276224586E+02  0.77292995512E+00 -0.95844644849E+03  0.10122050858E+04  0.32528724297E+03 0.  0.
         13    1    3    3    0    0 -0.46684575576E+02 -0.27577226554E+02 -0.15596105224E+01  0.54243759144E+02  0.00000000000E+00 0.  1.
          3    1    3    3  501    0  0.35408350990E+02  0.28350156509E+02 -0.95688683797E+03  0.95796132666E+03  0.00000000000E+00 0.  1.
         21    1    1    2  502  501  0.11276224586E+02 -0.77292995512E+00 -0.12497787536E+02  0.16850678174E+02  0.00000000000E+00 0. -1.
<mgrwt>
<rscale>  1 0.30000000E+03</rscale>
<asrwt>0</asrwt>
<pdfrwt beam="1">  1        1 0.10565755E+00 0.30000000E+03</pdfrwt>
<pdfrwt beam="2">0</pdfrwt>
<totfact> 0.31558447E+01</totfact>
</mgrwt>
</event>
<event>
 6    1  0.1875959E-004  0.3000000E+03  0.7818608E-02  0.1093470E+00
          1   -1    0    0  502    0  0.00000000000E+00  0.00000000000E+00  0.12411550047E+03  0.12411550047E+03  0.00000000000E+00 0.  1.
         13   -1    0    0    0    0 -0.00000000000E+00 -0.00000000000E+00 -0.10000000000E+04  0.10000000000E+04  0.00000000000E+00 0.  1.
    9000005    2    1    2  501    0 -0.15845730603E+03 -0.12158207724E+02 -0.89494419232E+03  0.96405360076E+03  0.32127511251E+03 0.  0.
         13    1    3    3    0    0 -0.12037347631E+02  0.70617537672E+02 -0.21833579717E+02  0.74889515742E+02  0.00000000000E+00 0.  1.
          3    1    3    3  501    0 -0.14641995840E+03 -0.82775745396E+02 -0.87311061261E+03  0.88916408502E+03  0.00000000000E+00 0.  1.
         21    1    1    2  502  501  0.15845730603E+03  0.12158207724E+02  0.19059692799E+02  0.16006189971E+03  0.00000000000E+00 0. -1.
<mgrwt>
<rscale>  1 0.30000000E+03</rscale>
<asrwt>0</asrwt>
<pdfrwt beam="1">  1        1 0.45133004E+00 0.30000000E+03</pdfrwt>
<pdfrwt beam="2">0</pdfrwt>
<totfact> 0.50407313E-01</totfact>
</mgrwt>
</event>
<event>
 6    1  0.1875959E-004  0.3000000E+03  0.7818608E-02  0.1093470E+00
          1   -1    0    0  502    0  0.00000000000E+00  0.00000000000E+00  0.36565146411E+02  0.36565146411E+02  0.00000000000E+00 0.  1.
         13   -1    0    0    0    0 -0.00000000000E+00 -0.00000000000E+00 -0.10000000000E+04  0.10000000000E+04  0.00000000000E+00 0.  1.
    9000005    2    1    2  501    0 -0.13526194676E+02  0.26664007815E+02 -0.92547442489E+03  0.98824412198E+03  0.34529640346E+03 0.  0.
         13    1    3    3    0    0  0.11117473378E+03 -0.73886148228E+02 -0.69415604256E+03  0.70687452617E+03  0.00000000000E+00 0.  1.
          3    1    3    3  501    0 -0.12470092846E+03  0.10055015604E+03 -0.23131838234E+03  0.28136959581E+03  0.00000000000E+00 0.  1.
         21    1    1    2  502  501  0.13526194676E+02 -0.26664007815E+02 -0.37960428696E+02  0.48321024430E+02  0.00000000000E+00 0. -1.
<mgrwt>
<rscale>  1 0.30000000E+03</rscale>
<asrwt>0</asrwt>
<pdfrwt beam="1">  1        1 0.13296445E+00 0.30000000E+03</pdfrwt>
<pdfrwt beam="2">0</pdfrwt>
<totfact> 0.22049665E+01</totfact>
</mgrwt>
</event>
<event>
 6    1  0.1875959E-004  0.3000000E+03  0.7818608E-02  0.1093470E+00
          1   -1    0    0  502    0  0.00000000000E+00  0.00000000000E+00  0.51854598377E+02  0.51854598377E+02  0.00000000000E+00 0.  1.
         13   -1    0    0    0    0 -0.00000000000E+00 -0.00000000000E+00 -0.10000000000E+04  0.10000000000E+04  0.00000000000E+00 0.  1.
    9000005    2    1    2  501    0 -0.42645498577E+02 -0.68728519592E+02 -0.89096371040E+03  0.95279908987E+03  0.32782239773E+03 0.  0.
         13    1    3    3    0    0  0.13087192134E+03  0.28910855119E+02 -0.43703989901E+03  0.45712927128E+03  0.00000000000E+00 0.  1.
          3    1    3    3  501    0 -0.17351741992E+03 -0.97639374711E+02 -0.45392381139E+03  0.49566981859E+03  0.00000000000E+00 0.  1.
         21    1    1    2  502  501  0.42645498577E+02  0.68728519592E+02 -0.57181691222E+02  0.99055508505E+02  0.00000000000E+00 0.  1.
<mgrwt>
<rscale>  1 0.30000000E+03</rscale>
<asrwt>0</asrwt>
<pdfrwt beam="1">  1        1 0.18856257E+00 0.30000000E+03</pdfrwt>
<pdfrwt beam="2">0</pdfrwt>
<totfact> 0.11617147E+01</totfact>
</mgrwt>
</event>
<event>
 6    1  0.1875959E-004  0.3000000E+03  0.7818608E-02  0.1093470E+00
          1   -1    0    0  502    0  0.00000000000E+00  0.00000000000E+00  0.31461379329E+02  0.31461379329E+02  0.00000000000E+00 0.  1.
         13   -1    0    0    0    0 -0.00000000000E+00 -0.00000000000E+00 -0.10000000000E+04  0.10000000000E+04  0.00000000000E+00 0.  1.
    9000005    2    1    2  501    0  0.32026261317E+02  0.16044620117E+01 -0.92084808165E+03  0.97399275115E+03  0.31570941403E+03 0.  0.
         13    1    3    3    0    0 -0.11373017206E+01  0.15423586503E+03 -0.55866018309E+03  0.57956120961E+03  0.00000000000E+00 0.  1.
          1    1    3    3  501    0  0.33163563038E+02 -0.15263140302E+03 -0.36218789857E+03  0.39443154155E+03  0.00000000000E+00 0.  1.
         21    1    1    2  502  501 -0.32026261317E+02 -0.16044620117E+01 -0.47690539020E+02  0.57468628175E+02  0.00000000000E+00 0.  1.
<mgrwt>
<rscale>  1 0.30000000E+03</rscale>
<asrwt>0</asrwt>
<pdfrwt beam="1">  1        1 0.11440526E+00 0.30000000E+03</pdfrwt>
<pdfrwt beam="2">0</pdfrwt>
<totfact> 0.27987686E+01</totfact>
</mgrwt>
</event>
<event>
 6    1  0.1875959E-004  0.3000000E+03  0.7818608E-02  0.1093470E+00
          1   -1    0    0  502    0  0.00000000000E+00  0.00000000000E+00  0.38216623337E+02  0.38216623337E+02  0.00000000000E+00 0.  1.
         13   -1    0    0    0    0 -0.00000000000E+00 -0.00000000000E+00 -0.10000000000E+04  0.10000000000E+04  0.00000000000E+00 0.  1.
    9000005    2    1    2  501    0 -0.29712958666E+02  0.41048331613E+01 -0.94859632755E+03  0.10054506680E+04  0.33195834599E+03 0.  0.
         13    1    3    3    0    0  0.15051263126E+03 -0.13799183420E+02 -0.47157702033E+03  0.49520637691E+03  0.00000000000E+00 0.  1.
          3    1    3    3  501    0 -0.18022558993E+03  0.17904016581E+02 -0.47701930723E+03  0.51024429104E+03  0.00000000000E+00 0.  1.
         21    1    1    2  502  501  0.29712958666E+02 -0.41048331613E+01 -0.13187049108E+02  0.32765955383E+02  0.00000000000E+00 0.  1.
<mgrwt>
<rscale>  1 0.30000000E+03</rscale>
<asrwt>0</asrwt>
<pdfrwt beam="1">  1        1 0.13896983E+00 0.30000000E+03</pdfrwt>
<pdfrwt beam="2">0</pdfrwt>
<totfact> 0.20485894E+01</totfact>
</mgrwt>
</event>
<event>
 6    1  0.1875959E-004  0.3000000E+03  0.7818608E-02  0.1093470E+00
          1   -1    0    0  502    0  0.00000000000E+00  0.00000000000E+00  0.30591747078E+02  0.30591747078E+02  0.00000000000E+00 0.  1.
         13   -1    0    0    0    0 -0.00000000000E+00 -0.00000000000E+00 -0.10000000000E+04  0.10000000000E+04  0.00000000000E+00 0.  1.
    9000005    2    1    2  501    0  0.99156904956E+01 -0.22886402426E+02 -0.87193014437E+03  0.92997321012E+03  0.32243741491E+03 0.  0.
         13    1    3    3    0    0 -0.47282747943E+02 -0.16239218234E+03 -0.39244360755E+03  0.42733928470E+03  0.00000000000E+00 0.  1.
          3    1    3    3  501    0  0.57198438438E+02  0.13950577991E+03 -0.47948653682E+03  0.50263392542E+03  0.00000000000E+00 0.  1.
         21    1    1    2  502  501 -0.99156904956E+01  0.22886402426E+02 -0.97478108548E+02  0.10061853696E+03  0.00000000000E+00 0.  1.
<mgrwt>
<rscale>  1 0.30000000E+03</rscale>
<asrwt>0</asrwt>
<pdfrwt beam="1">  1        1 0.11124295E+00 0.30000000E+03</pdfrwt>
<pdfrwt beam="2">0</pdfrwt>
<totfact> 0.29208902E+01</totfact>
</mgrwt>
</event>
<event>
 6    1  0.1875959E-004  0.3000000E+03  0.7818608E-02  0.1093470E+00
          1   -1    0    0  502    0  0.00000000000E+00  0.00000000000E+00  0.42298234632E+02  0.42298234632E+02  0.00000000000E+00 0.  1.
         13   -1    0    0    0    0 -0.00000000000E+00 -0.00000000000E+00 -0.10000000000E+04  0.10000000000E+04  0.00000000000E+00 0.  1.
    9000005    2    1    2  501    0 -0.18411223252E+02  0.14353629063E+02 -0.96442625157E+03  0.10180038212E+04  0.32506735529E+03 0.  0.
         13    1    3    3    0    0 -0.16774789016E+02  0.16147501655E+03 -0.34418727154E+03  0.38055282473E+03  0.00000000000E+00 0.  1.
          1    1    3    3  501    0 -0.16364342367E+01 -0.14712138749E+03 -0.62023898003E+03  0.63745099648E+03  0.00000000000E+00 0.  1.
         21    1    1    2  502  501  0.18411223252E+02 -0.14353629063E+02  0.67244861997E+01  0.24294413424E+02  0.00000000000E+00 0.  1.
<mgrwt>
<rscale>  1 0.30000000E+03</rscale>
<asrwt>0</asrwt>
<pdfrwt beam="1">  1        1 0.15381209E+00 0.30000000E+03</pdfrwt>
<pdfrwt beam="2">0</pdfrwt>
<totfact> 0.17184638E+01</totfact>
</mgrwt>
</event>
<event>
 6    1  0.1875959E-004  0.3000000E+03  0.7818608E-02  0.1093470E+00
          1   -1    0    0  502    0  0.00000000000E+00  0.00000000000E+00  0.55218547023E+02  0.55218547023E+02  0.00000000000E+00 0.  1.
         13   -1    0    0    0    0 -0.00000000000E+00 -0.00000000000E+00 -0.10000000000E+04  0.10000000000E+04  0.00000000000E+00 0.  1.
    9000005    2    1    2  501    0 -0.63944818046E+02 -0.44799184857E+02 -0.90572663903E+03  0.96791914719E+03  0.33231133614E+03 0.  0.
         13    1    3    3    0    0 -0.16765311646E+03  0.60680217111E+02 -0.34940327519E+03  0.39226560507E+03  0.00000000000E+00 0.  1.
          3    1    3    3  501    0  0.10370829841E+03 -0.10547940197E+03 -0.55632336384E+03  0.57565354212E+03  0.00000000000E+00 0.  1.
         21    1    1    2  502  501  0.63944818046E+02  0.44799184857E+02 -0.39054813944E+02  0.87299399832E+02  0.00000000000E+00 0.  1.
<mgrwt>
<rscale>  1 0.30000000E+03</rscale>
<asrwt>0</asrwt>
<pdfrwt beam="1">  1        1 0.20079514E+00 0.30000000E+03</pdfrwt>
<pdfrwt beam="2">0</pdfrwt>
<totfact> 0.10154670E+01</totfact>
</mgrwt>
</event>
<event>
 6    1  0.1875959E-004  0.3000000E+03  0.7818608E-02  0.1093470E+00
          1   -1    0    0  502    0  0.00000000000E+00  0.00000000000E+00  0.27862364632E+02  0.27862364632E+02  0.00000000000E+00 0.  1.
         13   -1    0    0    0    0 -0.00000000000E+00 -0.00000000000E+00 -0.10000000000E+04  0.10000000000E+04  0.00000000000E+00 0.  1.
    9000005    2    1    2  501    0  0.25599319514E+02 -0.89283603620E+01 -0.94049112355E+03  0.98619052176E+03  0.29548798782E+03 0.  0.
         13    1    3    3    0    0 -0.14601784896E+02  0.13945140100E+03 -0.51637091818E+03  0.53506899602E+03  0.00000000000E+00 0.  1.
          1    1    3    3  501    0  0.40201104410E+02 -0.14837976136E+03 -0.42412020537E+03  0.45112152574E+03  0.00000000000E+00 0.  1.
         21    1    1    2  502  501 -0.25599319514E+02  0.89283603620E+01 -0.31646511813E+02  0.41671842871E+02  0.00000000000E+00 0. -1.
<mgrwt>
<rscale>  1 0.30000000E+03</rscale>
<asrwt>0</asrwt>
<pdfrwt beam="1">  1        1 0.10131790E+00 0.30000000E+03</pdfrwt>
<pdfrwt beam="2">0</pdfrwt>
<totfact> 0.33576657E+01</totfact>
</mgrwt>
</event>
<event>
 6    1  0.1875959E-004  0.3000000E+03  0.7818608E-02  0.1093470E+00
          3   -1    0    0  502    0  0.00000000000E+00  0.00000000000E+00  0.30344272384E+02  0.30344272384E+02  0.00000000000E+00 0.  1.
         13   -1    0    0    0    0 -0.00000000000E+00 -0.00000000000E+00 -0.10000000000E+04  0.10000000000E+04  0.00000000000E+00 0.  1.
    9000005    2    1    2  501    0 -0.89860913356E+01  0.67493759629E+01 -0.95856445427E+03  0.10145543940E+04  0.33218744947E+03 0.  0.
         13    1    3    3    0    0 -0.16831486124E+03  0.24838512580E+02 -0.43935199953E+03  0.47114437672E+03  0.00000000000E+00 0.  1.
          3    1    3    3  501    0  0.15932876990E+03 -0.18089136617E+02 -0.51921245474E+03  0.54341001733E+03  0.00000000000E+00 0.  1.
         21    1    1    2  502  501  0.89860913356E+01 -0.67493759629E+01 -0.11091273349E+02  0.15789878337E+02  0.00000000000E+00 0. -1.
<mgrwt>
<rscale>  1 0.30000000E+03</rscale>
<asrwt>0</asrwt>
<pdfrwt beam="1">  1        3 0.11034304E+00 0.30000000E+03</pdfrwt>
<pdfrwt beam="2">0</pdfrwt>
<totfact> 0.29866065E+00</totfact>
</mgrwt>
</event>
<event>
 6    1  0.1875959E-004  0.3000000E+03  0.7818608E-02  0.1093470E+00
          1   -1    0    0  502    0  0.00000000000E+00  0.00000000000E+00  0.27747250688E+02  0.27747250688E+02  0.00000000000E+00 0.  1.
         13   -1    0    0    0    0 -0.00000000000E+00 -0.00000000000E+00 -0.10000000000E+04  0.10000000000E+04  0.00000000000E+00 0.  1.
    9000005    2    1    2  501    0 -0.55186734724E+01  0.90997913833E+01 -0.93768145474E+03  0.99157493575E+03  0.32227485268E+03 0.  0.
         13    1    3    3    0    0  0.10092961613E+03 -0.16623003851E+02 -0.83568334301E+03  0.84192028213E+03  0.00000000000E+00 0.  1.
          1    1    3    3  501    0 -0.10644828960E+03  0.25722795234E+02 -0.10199811173E+03  0.14965465362E+03  0.00000000000E+00 0.  1.
         21    1    1    2  502  501  0.55186734724E+01 -0.90997913833E+01 -0.34571294570E+02  0.36172314943E+02  0.00000000000E+00 0.  1.
<mgrwt>
<rscale>  1 0.30000000E+03</rscale>
<asrwt>0</asrwt>
<pdfrwt beam="1">  1        1 0.10089931E+00 0.30000000E+03</pdfrwt>
<pdfrwt beam="2">0</pdfrwt>
<totfact> 0.33781222E+01</totfact>
</mgrwt>
</event>
<event>
 6    1  0.1875959E-004  0.3000000E+03  0.7818608E-02  0.1093470E+00
          1   -1    0    0  502    0  0.00000000000E+00  0.00000000000E+00  0.29226058334E+02  0.29226058334E+02  0.00000000000E+00 0.  1.
         13   -1    0    0    0    0 -0.00000000000E+00 -0.00000000000E+00 -0.10000000000E+04  0.10000000000E+04  0.00000000000E+00 0.  1.
    9000005    2    1    2  501    0 -0.72541188966E+01 -0.12444823420E+02 -0.93190868929E+03  0.98777724999E+03  0.32717364587E+03 0.  0.
         13    1    3    3    0    0  0.10917035957E+03  0.20913714461E+02 -0.10788872569E+03  0.15490489983E+03  0.00000000000E+00 0.  1.
          1    1    3    3  501    0 -0.11642447847E+03 -0.33358537881E+02 -0.82401996360E+03  0.83287235015E+03  0.00000000000E+00 0.  1.
         21    1    1    2  502  501  0.72541188966E+01  0.12444823420E+02 -0.38865252379E+02  0.41448808347E+02  0.00000000000E+00 0. -1.
<mgrwt>
<rscale>  1 0.30000000E+03</rscale>
<asrwt>0</asrwt>
<pdfrwt beam="1">  1        1 0.10627680E+00 0.30000000E+03</pdfrwt>
<pdfrwt beam="2">0</pdfrwt>
<totfact> 0.31284880E+01</totfact>
</mgrwt>
</event>
<event>
 6    1  0.1875959E-004  0.3000000E+03  0.7818608E-02  0.1093470E+00
          1   -1    0    0  502    0  0.00000000000E+00  0.00000000000E+00  0.29690468388E+02  0.29690468388E+02  0.00000000000E+00 0.  1.
         13   -1    0    0    0    0 -0.00000000000E+00 -0.00000000000E+00 -0.10000000000E+04  0.10000000000E+04  0.00000000000E+00 0.  1.
    9000005    2    1    2  501    0 -0.60693062914E+01  0.16900079616E+02 -0.93910226784E+03  0.99368571200E+03  0.32430814917E+03 0.  0.
         13    1    3    3    0    0 -0.26628729159E+02 -0.10511542371E+03 -0.10667172307E+03  0.15210916481E+03  0.00000000000E+00 0.  1.
          1    1    3    3  501    0  0.20559422868E+02  0.12201550332E+03 -0.83243054477E+03  0.84157654719E+03  0.00000000000E+00 0.  1.
         21    1    1    2  502  501  0.60693062914E+01 -0.16900079616E+02 -0.31207263776E+02  0.36004756384E+02  0.00000000000E+00 0.  1.
<mgrwt>
<rscale>  1 0.30000000E+03</rscale>
<asrwt>0</asrwt>
<pdfrwt beam="1">  1        1 0.10796557E+00 0.30000000E+03</pdfrwt>
<pdfrwt beam="2">0</pdfrwt>
<totfact> 0.30555940E+01</totfact>
</mgrwt>
</event>
<event>
 6    1  0.1875959E-004  0.3000000E+03  0.7818608E-02  0.1093470E+00
          1   -1    0    0  502    0  0.00000000000E+00  0.00000000000E+00  0.59273825760E+02  0.59273825760E+02  0.00000000000E+00 0.  1.
         13   -1    0    0    0    0 -0.00000000000E+00 -0.00000000000E+00 -0.10000000000E+04  0.10000000000E+04  0.00000000000E+00 0.  1.
    9000005    2    1    2  501    0 -0.19686747384E+02  0.10523014755E+02 -0.97015408472E+03  0.10223373428E+04  0.32167746646E+03 0.  0.
         13    1    3    3    0    0 -0.74719765839E+01  0.91733642751E+02 -0.63141044155E+02  0.11161399152E+03  0.00000000000E+00 0.  1.
          3    1    3    3  501    0 -0.12214770800E+02 -0.81210627995E+02 -0.90701304056E+03  0.91072335123E+03  0.00000000000E+00 0.  1.
         21    1    1    2  502  501  0.19686747384E+02 -0.10523014755E+02  0.29427910477E+02  0.36936483010E+02  0.00000000000E+00 0. -1.
<mgrwt>
<rscale>  1 0.30000000E+03</rscale>
<asrwt>0</asrwt>
<pdfrwt beam="1">  1        1 0.21554164E+00 0.30000000E+03</pdfrwt>
<pdfrwt beam="2">0</pdfrwt>
<totfact> 0.86501063E+00</totfact>
</mgrwt>
</event>
<event>
 6    1  0.1875959E-004  0.3000000E+03  0.7818608E-02  0.1093470E+00
          1   -1    0    0  502    0  0.00000000000E+00  0.00000000000E+00  0.24780396042E+02  0.24780396042E+02  0.00000000000E+00 0.  1.
         13   -1    0    0    0    0 -0.00000000000E+00 -0.00000000000E+00 -0.10000000000E+04  0.10000000000E+04  0.00000000000E+00 0.  1.
    9000005    2    1    2  501    0 -0.39218047381E+00 -0.13248169246E+02 -0.95929984153E+03  0.10040655070E+04  0.29616834489E+03 0.  0.
         13    1    3    3    0    0  0.83631225976E+02  0.10575831815E+03 -0.30067064465E+03  0.32951758735E+03  0.00000000000E+00 0.  1.
          3    1    3    3  501    0 -0.84023406450E+02 -0.11900648740E+03 -0.65862919688E+03  0.67454791961E+03  0.00000000000E+00 0.  1.
         21    1    1    2  502  501  0.39218047381E+00  0.13248169246E+02 -0.15919762425E+02  0.20714889079E+02  0.00000000000E+00 0.  1.
<mgrwt>
<rscale>  1 0.30000000E+03</rscale>
<asrwt>0</asrwt>
<pdfrwt beam="1">  1        1 0.90110721E-01 0.30000000E+03</pdfrwt>
<pdfrwt beam="2">0</pdfrwt>
<totfact> 0.39762482E+01</totfact>
</mgrwt>
</event>
<event>
 6    1  0.1875959E-004  0.3000000E+03  0.7818608E-02  0.1093470E+00
          1   -1    0    0  502    0  0.00000000000E+00  0.00000000000E+00  0.35505468478E+02  0.35505468478E+02  0.00000000000E+00 0.  1.
         13   -1    0    0    0    0 -0.00000000000E+00 -0.00000000000E+00 -0.10000000000E+04  0.10000000000E+04  0.00000000000E+00 0.  1.
    9000005    2    1    2  501    0 -0.28184377015E+02 -0.50560319439E+01 -0.93309878528E+03  0.99301293444E+03  0.33849877742E+03 0.  0.
         13    1    3    3    0    0 -0.81273599428E+02 -0.97527974177E+02 -0.12587809161E+03  0.17878030556E+03  0.00000000000E+00 0.  1.
          3    1    3    3  501    0  0.53089222413E+02  0.92471942233E+02 -0.80722069367E+03  0.81423262887E+03  0.00000000000E+00 0.  1.
         21    1    1    2  502  501  0.28184377015E+02  0.50560319439E+01 -0.31395746247E+02  0.42492534040E+02  0.00000000000E+00 0.  1.
<mgrwt>
<rscale>  1 0.30000000E+03</rscale>
<asrwt>0</asrwt>
<pdfrwt beam="1">  1        1 0.12911107E+00 0.30000000E+03</pdfrwt>
<pdfrwt beam="2">0</pdfrwt>
<totfact> 0.23136625E+01</totfact>
</mgrwt>
</event>
<event>
 6    1  0.1875959E-004  0.3000000E+03  0.7818608E-02  0.1093470E+00
          1   -1    0    0  502    0  0.00000000000E+00  0.00000000000E+00  0.37083139552E+02  0.37083139552E+02  0.00000000000E+00 0.  1.
         13   -1    0    0    0    0 -0.00000000000E+00 -0.00000000000E+00 -0.10000000000E+04  0.10000000000E+04  0.00000000000E+00 0.  1.
    9000005    2    1    2  501    0 -0.34037410185E+02 -0.15009156484E+02 -0.92821483018E+03  0.98621024918E+03  0.33112545136E+03 0.  0.
         13    1    3    3    0    0 -0.11951949415E+03 -0.57774093174E+02 -0.85647085992E+03  0.86669780732E+03  0.00000000000E+00 0.  1.
          1    1    3    3  501    0  0.85482083965E+02  0.42764936690E+02 -0.71743970262E+02  0.11951244185E+03  0.00000000000E+00 0.  1.
         21    1    1    2  502  501  0.34037410185E+02  0.15009156484E+02 -0.34702030264E+02  0.50872890373E+02  0.00000000000E+00 0.  1.
<mgrwt>
<rscale>  1 0.30000000E+03</rscale>
<asrwt>0</asrwt>
<pdfrwt beam="1">  1        1 0.13484806E+00 0.30000000E+03</pdfrwt>
<pdfrwt beam="2">0</pdfrwt>
<totfact> 0.21542724E+01</totfact>
</mgrwt>
</event>
<event>
 6    1  0.1875959E-004  0.3000000E+03  0.7818608E-02  0.1093470E+00
          1   -1    0    0  502    0  0.00000000000E+00  0.00000000000E+00  0.32453486084E+02  0.32453486084E+02  0.00000000000E+00 0.  1.
         13   -1    0    0    0    0 -0.00000000000E+00 -0.00000000000E+00 -0.10000000000E+04  0.10000000000E+04  0.00000000000E+00 0.  1.
    9000005    2    1    2  501    0 -0.77275217847E+02 -0.16298667825E+02 -0.66747193279E+03  0.72216030198E+03  0.26412045513E+03 0.  0.
         13    1    3    3    0    0 -0.74862816666E+02  0.80320108981E+02 -0.58467498096E+03  0.59489544845E+03  0.00000000000E+00 0.  1.
          3    1    3    3  501    0 -0.24124011812E+01 -0.96618776805E+02 -0.82796951833E+02  0.12726485353E+03  0.00000000000E+00 0.  1.
         21    1    1    2  502  501  0.77275217847E+02  0.16298667825E+02 -0.30007458113E+03  0.31029318411E+03  0.00000000000E+00 0.  1.
<mgrwt>
<rscale>  1 0.30000000E+03</rscale>
<asrwt>0</asrwt>
<pdfrwt beam="1">  1        1 0.11801293E+00 0.30000000E+03</pdfrwt>
<pdfrwt beam="2">0</pdfrwt>
<totfact> 0.26680447E+01</totfact>
</mgrwt>
</event>
<event>
 6    1  0.1875959E-004  0.3000000E+03  0.7818608E-02  0.1093470E+00
          1   -1    0    0  502    0  0.00000000000E+00  0.00000000000E+00  0.32879607766E+02  0.32879607766E+02  0.00000000000E+00 0.  1.
         13   -1    0    0    0    0 -0.00000000000E+00 -0.00000000000E+00 -0.10000000000E+04  0.10000000000E+04  0.00000000000E+00 0.  1.
    9000005    2    1    2  501    0  0.14110279339E+02 -0.61211041545E+02 -0.80492540466E+03  0.85894540876E+03  0.29314913708E+03 0.  0.
         13    1    3    3    0    0 -0.11269029899E+02  0.11322288965E+03 -0.21505038319E+03  0.24329628251E+03  0.00000000000E+00 0.  1.
          3    1    3    3  501    0  0.25379309238E+02 -0.17443393119E+03 -0.58987502148E+03  0.61564912625E+03  0.00000000000E+00 0.  1.
         21    1    1    2  502  501 -0.14110279339E+02  0.61211041545E+02 -0.16219498757E+03  0.17393419900E+03  0.00000000000E+00 0.  1.
<mgrwt>
<rscale>  1 0.30000000E+03</rscale>
<asrwt>0</asrwt>
<pdfrwt beam="1">  1        1 0.11956246E+00 0.30000000E+03</pdfrwt>
<pdfrwt beam="2">0</pdfrwt>
<totfact> 0.26144673E+01</totfact>
</mgrwt>
</event>
<event>
 6    1  0.1875959E-004  0.3000000E+03  0.7818608E-02  0.1093470E+00
          1   -1    0    0  502    0  0.00000000000E+00  0.00000000000E+00  0.40514128283E+02  0.40514128283E+02  0.00000000000E+00 0.  1.
         13   -1    0    0    0    0 -0.00000000000E+00 -0.00000000000E+00 -0.10000000000E+04  0.10000000000E+04  0.00000000000E+00 0.  1.
    9000005    2    1    2  501    0  0.67040687502E+01  0.17079470868E+02 -0.96223311948E+03  0.10219614942E+04  0.34376745983E+03 0.  0.
         13    1    3    3    0    0 -0.93577148193E+02  0.12804191811E+03 -0.26469287111E+03  0.30856722359E+03  0.00000000000E+00 0.  1.
          1    1    3    3  501    0  0.10028121694E+03 -0.11096244725E+03 -0.69754024838E+03  0.71339427056E+03  0.00000000000E+00 0.  1.
         21    1    1    2  502  501 -0.67040687502E+01 -0.17079470868E+02  0.27472477645E+01  0.18552634131E+02  0.00000000000E+00 0.  1.
<mgrwt>
<rscale>  1 0.30000000E+03</rscale>
<asrwt>0</asrwt>
<pdfrwt beam="1">  1        1 0.14732441E+00 0.30000000E+03</pdfrwt>
<pdfrwt beam="2">0</pdfrwt>
<totfact> 0.18538868E+01</totfact>
</mgrwt>
</event>
<event>
 6    1  0.1875959E-004  0.3000000E+03  0.7818608E-02  0.1093470E+00
          1   -1    0    0  502    0  0.00000000000E+00  0.00000000000E+00  0.32275939681E+02  0.32275939681E+02  0.00000000000E+00 0.  1.
         13   -1    0    0    0    0 -0.00000000000E+00 -0.00000000000E+00 -0.10000000000E+04  0.10000000000E+04  0.00000000000E+00 0.  1.
    9000005    2    1    2  501    0  0.40153058906E+01 -0.15163046619E+02 -0.95676510065E+03  0.10131411687E+04  0.33288065308E+03 0.  0.
         13    1    3    3    0    0  0.46010747078E+02 -0.63226652962E+02 -0.29334830559E+02  0.83517248371E+02  0.00000000000E+00 0.  1.
          1    1    3    3  501    0 -0.41995441187E+02  0.48063606344E+02 -0.92743027009E+03  0.92962392031E+03  0.00000000000E+00 0.  1.
         21    1    1    2  502  501 -0.40153058906E+01  0.15163046619E+02 -0.10958959672E+02  0.19134771001E+02  0.00000000000E+00 0.  1.
<mgrwt>
<rscale>  1 0.30000000E+03</rscale>
<asrwt>0</asrwt>
<pdfrwt beam="1">  1        1 0.11736730E+00 0.30000000E+03</pdfrwt>
<pdfrwt beam="2">0</pdfrwt>
<totfact> 0.26908095E+01</totfact>
</mgrwt>
</event>
<event>
 6    1  0.1875959E-004  0.3000000E+03  0.7818608E-02  0.1093470E+00
          1   -1    0    0  502    0  0.00000000000E+00  0.00000000000E+00  0.62473477511E+02  0.62473477511E+02  0.00000000000E+00 0.  1.
         13   -1    0    0    0    0 -0.00000000000E+00 -0.00000000000E+00 -0.10000000000E+04  0.10000000000E+04  0.00000000000E+00 0.  1.
    9000005    2    1    2  501    0  0.47627534469E+01 -0.57688338981E+02 -0.94728406142E+03  0.10037722182E+04  0.32689592350E+03 0.  0.
         13    1    3    3    0    0  0.13223131392E+03  0.68145802522E+02 -0.50924092286E+03  0.53052359825E+03  0.00000000000E+00 0.  1.
          1    1    3    3  501    0 -0.12746856047E+03 -0.12583414150E+03 -0.43804313856E+03  0.47324861998E+03  0.00000000000E+00 0.  1.
         21    1    1    2  502  501 -0.47627534469E+01  0.57688338981E+02  0.97575389323E+01  0.58701259278E+02  0.00000000000E+00 0. -1.
<mgrwt>
<rscale>  1 0.30000000E+03</rscale>
<asrwt>0</asrwt>
<pdfrwt beam="1">  1        1 0.22717676E+00 0.30000000E+03</pdfrwt>
<pdfrwt beam="2">0</pdfrwt>
<totfact> 0.76291486E+00</totfact>
</mgrwt>
</event>
<event>
 6    1  0.1875959E-004  0.3000000E+03  0.7818608E-02  0.1093470E+00
          1   -1    0    0  502    0  0.00000000000E+00  0.00000000000E+00  0.39613166580E+02  0.39613166580E+02  0.00000000000E+00 0.  1.
         13   -1    0    0    0    0 -0.00000000000E+00 -0.00000000000E+00 -0.10000000000E+04  0.10000000000E+04  0.00000000000E+00 0.  1.
    9000005    2    1    2  501    0 -0.35763843323E+02  0.52128481547E+01 -0.88251778881E+03  0.95376554353E+03  0.35989559344E+03 0.  0.
         13    1    3    3    0    0 -0.79278438044E+02 -0.13452180856E+03 -0.18989001155E+03  0.24584426819E+03  0.00000000000E+00 0.  1.
          3    1    3    3  501    0  0.43514594721E+02  0.13973465671E+03 -0.69262777726E+03  0.70792127533E+03  0.00000000000E+00 0.  1.
         21    1    1    2  502  501  0.35763843323E+02 -0.52128481547E+01 -0.77869044613E+02  0.85847623055E+02  0.00000000000E+00 0. -1.
<mgrwt>
<rscale>  1 0.30000000E+03</rscale>
<asrwt>0</asrwt>
<pdfrwt beam="1">  1        1 0.14404818E+00 0.30000000E+03</pdfrwt>
<pdfrwt beam="2">0</pdfrwt>
<totfact> 0.19273268E+01</totfact>
</mgrwt>
</event>
<event>
 6    1  0.1875959E-004  0.3000000E+03  0.7818608E-02  0.1093470E+00
          1   -1    0    0  502    0  0.00000000000E+00  0.00000000000E+00  0.31151314772E+02  0.31151314772E+02  0.00000000000E+00 0.  1.
         13   -1    0    0    0    0 -0.00000000000E+00 -0.00000000000E+00 -0.10000000000E+04  0.10000000000E+04  0.00000000000E+00 0.  1.
    9000005    2    1    2  501    0 -0.31104401503E+02  0.35672797279E+00 -0.90837096547E+03  0.96314274447E+03  0.31865110115E+03 0.  0.
         13    1    3    3    0    0  0.54177337025E+02  0.14358093994E+03 -0.43953873661E+03  0.46555877302E+03  0.00000000000E+00 0.  1.
          3    1    3    3  501    0 -0.85281738528E+02 -0.14322421196E+03 -0.46883222886E+03  0.49758397144E+03  0.00000000000E+00 0.  1.
         21    1    1    2  502  501  0.31104401503E+02 -0.35672797279E+00 -0.60477719760E+02  0.68008570306E+02  0.00000000000E+00 0. -1.
<mgrwt>
<rscale>  1 0.30000000E+03</rscale>
<asrwt>0</asrwt>
<pdfrwt beam="1">  1        1 0.11327775E+00 0.30000000E+03</pdfrwt>
<pdfrwt beam="2">0</pdfrwt>
<totfact> 0.28414620E+01</totfact>
</mgrwt>
</event>
<event>
 6    1  0.1875959E-004  0.3000000E+03  0.7818608E-02  0.1093470E+00
          3   -1    0    0  502    0  0.00000000000E+00  0.00000000000E+00  0.41146554758E+02  0.41146554758E+02  0.00000000000E+00 0.  1.
         13   -1    0    0    0    0 -0.00000000000E+00 -0.00000000000E+00 -0.10000000000E+04  0.10000000000E+04  0.00000000000E+00 0.  1.
    9000005    2    1    2  501    0 -0.52793601335E+01 -0.27772775352E+02 -0.96252577398E+03  0.10126389296E+04  0.31334092848E+03 0.  0.
         13    1    3    3    0    0 -0.77540362716E+02  0.22680613852E+02 -0.48199591512E+02  0.94075069582E+02  0.00000000000E+00 0.  1.
          3    1    3    3  501    0  0.72261002583E+02 -0.50453389205E+02 -0.91432618247E+03  0.91856386001E+03  0.00000000000E+00 0.  1.
         21    1    1    2  502  501  0.52793601335E+01  0.27772775352E+02  0.36723287354E+01  0.28507625165E+02  0.00000000000E+00 0.  1.
<mgrwt>
<rscale>  1 0.30000000E+03</rscale>
<asrwt>0</asrwt>
<pdfrwt beam="1">  1        3 0.14962415E+00 0.30000000E+03</pdfrwt>
<pdfrwt beam="2">0</pdfrwt>
<totfact> 0.10018173E+00</totfact>
</mgrwt>
</event>
<event>
 6    1  0.1875959E-004  0.3000000E+03  0.7818608E-02  0.1093470E+00
          1   -1    0    0  502    0  0.00000000000E+00  0.00000000000E+00  0.35570767075E+02  0.35570767075E+02  0.00000000000E+00 0.  1.
         13   -1    0    0    0    0 -0.00000000000E+00 -0.00000000000E+00 -0.10000000000E+04  0.10000000000E+04  0.00000000000E+00 0.  1.
    9000005    2    1    2  501    0  0.88458932997E+01 -0.12988676385E+02 -0.80176785570E+03  0.87215204360E+03  0.34288560363E+03 0.  0.
         13    1    3    3    0    0  0.19029153615E+02  0.87089865113E+02 -0.30300014942E+02  0.94153301579E+02  0.00000000000E+00 0.  1.
          3    1    3    3  501    0 -0.10183260315E+02 -0.10007854150E+03 -0.77146784076E+03  0.77799874202E+03  0.00000000000E+00 0.  1.
         21    1    1    2  502  501 -0.88458932997E+01  0.12988676385E+02 -0.16266137722E+03  0.16341872347E+03  0.00000000000E+00 0.  1.
<mgrwt>
<rscale>  1 0.30000000E+03</rscale>
<asrwt>0</asrwt>
<pdfrwt beam="1">  1        1 0.12934852E+00 0.30000000E+03</pdfrwt>
<pdfrwt beam="2">0</pdfrwt>
<totfact> 0.23067652E+01</totfact>
</mgrwt>
</event>
<event>
 6    1  0.1875959E-004  0.3000000E+03  0.7818608E-02  0.1093470E+00
          1   -1    0    0  502    0  0.00000000000E+00  0.00000000000E+00  0.26128530741E+02  0.26128530741E+02  0.00000000000E+00 0.  1.
         13   -1    0    0    0    0 -0.00000000000E+00 -0.00000000000E+00 -0.10000000000E+04  0.10000000000E+04  0.00000000000E+00 0.  1.
    9000005    2    1    2  501    0  0.67427702848E+01  0.95855280981E+01 -0.95184506322E+03  0.10011783832E+04  0.31018024322E+03 0.  0.
         13    1    3    3    0    0 -0.96530365373E+02 -0.66412204009E+02 -0.76888178513E+03  0.77775824765E+03  0.00000000000E+00 0.  1.
          3    1    3    3  501    0  0.10327313566E+03  0.75997732107E+02 -0.18296327808E+03  0.22342013553E+03  0.00000000000E+00 0.  1.
         21    1    1    2  502  501 -0.67427702848E+01 -0.95855280981E+01 -0.22026406041E+02  0.24950147557E+02  0.00000000000E+00 0. -1.
<mgrwt>
<rscale>  1 0.30000000E+03</rscale>
<asrwt>0</asrwt>
<pdfrwt beam="1">  1        1 0.95013039E-01 0.30000000E+03</pdfrwt>
<pdfrwt beam="2">0</pdfrwt>
<totfact> 0.36863807E+01</totfact>
</mgrwt>
</event>
<event>
 6    1  0.1875959E-004  0.3000000E+03  0.7818608E-02  0.1093470E+00
          1   -1    0    0  502    0  0.00000000000E+00  0.00000000000E+00  0.33978052701E+02  0.33978052701E+02  0.00000000000E+00 0.  1.
         13   -1    0    0    0    0 -0.00000000000E+00 -0.00000000000E+00 -0.10000000000E+04  0.10000000000E+04  0.00000000000E+00 0.  1.
    9000005    2    1    2  501    0  0.10756875286E+02  0.44391700916E+01 -0.96589960661E+03  0.10223405459E+04  0.33478758216E+03 0.  0.
         13    1    3    3    0    0 -0.51666163335E+02  0.15731543009E+03 -0.40216497144E+03  0.43491861449E+03  0.00000000000E+00 0.  1.
          1    1    3    3  501    0  0.62423038621E+02 -0.15287626000E+03 -0.56373463518E+03  0.58742193142E+03  0.00000000000E+00 0.  1.
         21    1    1    2  502  501 -0.10756875286E+02 -0.44391700916E+01 -0.12234068709E+00  0.11637506789E+02  0.00000000000E+00 0.  1.
<mgrwt>
<rscale>  1 0.30000000E+03</rscale>
<asrwt>0</asrwt>
<pdfrwt beam="1">  1        1 0.12355682E+00 0.30000000E+03</pdfrwt>
<pdfrwt beam="2">0</pdfrwt>
<totfact> 0.24828249E+01</totfact>
</mgrwt>
</event>
<event>
 6    1  0.1875959E-004  0.3000000E+03  0.7818608E-02  0.1093470E+00
          1   -1    0    0  502    0  0.00000000000E+00  0.00000000000E+00  0.26428035555E+02  0.26428035555E+02  0.00000000000E+00 0.  1.
         13   -1    0    0    0    0 -0.00000000000E+00 -0.00000000000E+00 -0.10000000000E+04  0.10000000000E+04  0.00000000000E+00 0.  1.
    9000005    2    1    2  501    0 -0.58808838070E+01 -0.88002680391E+01 -0.92189612561E+03  0.97367936893E+03  0.31312460387E+03 0.  0.
         13    1    3    3    0    0  0.15064112128E+03  0.21822051302E+02 -0.49943200468E+03  0.52211232187E+03  0.00000000000E+00 0.  1.
          3    1    3    3  501    0 -0.15652200509E+03 -0.30622319341E+02 -0.42246412093E+03  0.45156704706E+03  0.00000000000E+00 0.  1.
         21    1    1    2  502  501  0.58808838070E+01  0.88002680391E+01 -0.51675838832E+02  0.52748666627E+02  0.00000000000E+00 0.  1.
<mgrwt>
<rscale>  1 0.30000000E+03</rscale>
<asrwt>0</asrwt>
<pdfrwt beam="1">  1        1 0.96102150E-01 0.30000000E+03</pdfrwt>
<pdfrwt beam="2">0</pdfrwt>
<totfact> 0.36262826E+01</totfact>
</mgrwt>
</event>
<event>
 6    1  0.1875959E-004  0.3000000E+03  0.7818608E-02  0.1093470E+00
          1   -1    0    0  502    0  0.00000000000E+00  0.00000000000E+00  0.28737474352E+02  0.28737474352E+02  0.00000000000E+00 0.  1.
         13   -1    0    0    0    0 -0.00000000000E+00 -0.00000000000E+00 -0.10000000000E+04  0.10000000000E+04  0.00000000000E+00 0.  1.
    9000005    2    1    2  501    0  0.94512728953E-01 -0.95203863006E+01 -0.96390508197E+03  0.10167050737E+04  0.32324225150E+03 0.  0.
         13    1    3    3    0    0 -0.97059047625E+02  0.78586254556E+02 -0.78501688024E+03  0.79488852073E+03  0.00000000000E+00 0.  1.
          1    1    3    3  501    0  0.97153560354E+02 -0.88106640856E+02 -0.17888820174E+03  0.22181655297E+03  0.00000000000E+00 0.  1.
         21    1    1    2  502  501 -0.94512728953E-01  0.95203863006E+01 -0.73574436763E+01  0.12032400651E+02  0.00000000000E+00 0.  1.
<mgrwt>
<rscale>  1 0.30000000E+03</rscale>
<asrwt>0</asrwt>
<pdfrwt beam="1">  1        1 0.10450013E+00 0.30000000E+03</pdfrwt>
<pdfrwt beam="2">0</pdfrwt>
<totfact> 0.32079105E+01</totfact>
</mgrwt>
</event>
<event>
 6    1  0.1875959E-004  0.3000000E+03  0.7818608E-02  0.1093470E+00
          1   -1    0    0  502    0  0.00000000000E+00  0.00000000000E+00  0.28972184615E+02  0.28972184615E+02  0.00000000000E+00 0.  1.
         13   -1    0    0    0    0 -0.00000000000E+00 -0.00000000000E+00 -0.10000000000E+04  0.10000000000E+04  0.00000000000E+00 0.  1.
    9000005    2    1    2  501    0 -0.15458050970E+02 -0.87234773975E+01 -0.96687269622E+03  0.10107426642E+04  0.29401168723E+03 0.  0.
         13    1    3    3    0    0 -0.82997986961E+02  0.63629255394E+02 -0.85499211096E+03  0.86136453246E+03  0.00000000000E+00 0.  1.
          3    1    3    3  501    0  0.67539935991E+02 -0.72352732791E+02 -0.11188058526E+03  0.14937813178E+03  0.00000000000E+00 0.  1.
         21    1    1    2  502  501  0.15458050970E+02  0.87234773975E+01 -0.41551191642E+01  0.18229520371E+02  0.00000000000E+00 0.  1.
<mgrwt>
<rscale>  1 0.30000000E+03</rscale>
<asrwt>0</asrwt>
<pdfrwt beam="1">  1        1 0.10535362E+00 0.30000000E+03</pdfrwt>
<pdfrwt beam="2">0</pdfrwt>
<totfact> 0.31693976E+01</totfact>
</mgrwt>
</event>
<event>
 6    1  0.1875959E-004  0.3000000E+03  0.7818608E-02  0.1093470E+00
          1   -1    0    0  502    0  0.00000000000E+00  0.00000000000E+00  0.28793345662E+02  0.28793345662E+02  0.00000000000E+00 0.  1.
         13   -1    0    0    0    0 -0.00000000000E+00 -0.00000000000E+00 -0.10000000000E+04  0.10000000000E+04  0.00000000000E+00 0.  1.
    9000005    2    1    2  501    0  0.97464127858E+01  0.62556744586E+01 -0.96378607915E+03  0.10150386751E+04  0.31825426883E+03 0.  0.
         13    1    3    3    0    0 -0.13676850997E+03 -0.65742328797E+02 -0.39004595672E+03  0.41852542033E+03  0.00000000000E+00 0.  1.
          1    1    3    3  501    0  0.14651492276E+03  0.71998003255E+02 -0.57374012244E+03  0.59651325480E+03  0.00000000000E+00 0.  1.
         21    1    1    2  502  501 -0.97464127858E+01 -0.62556744586E+01 -0.74205751850E+01  0.13754670523E+02  0.00000000000E+00 0.  1.
<mgrwt>
<rscale>  1 0.30000000E+03</rscale>
<asrwt>0</asrwt>
<pdfrwt beam="1">  1        1 0.10470330E+00 0.30000000E+03</pdfrwt>
<pdfrwt beam="2">0</pdfrwt>
<totfact> 0.31986815E+01</totfact>
</mgrwt>
</event>
<event>
 6    1  0.1875959E-004  0.3000000E+03  0.7818608E-02  0.1093470E+00
          1   -1    0    0  502    0  0.00000000000E+00  0.00000000000E+00  0.30384792755E+02  0.30384792755E+02  0.00000000000E+00 0.  1.
         13   -1    0    0    0    0 -0.00000000000E+00 -0.00000000000E+00 -0.10000000000E+04  0.10000000000E+04  0.00000000000E+00 0.  1.
    9000005    2    1    2  501    0  0.64552245214E+01 -0.90149186829E+01 -0.94752252636E+03  0.10056658682E+04  0.33681146331E+03 0.  0.
         13    1    3    3    0    0  0.16572764661E+03  0.10390187406E+02 -0.60586241391E+03  0.62820607561E+03  0.00000000000E+00 0.  1.
          1    1    3    3  501    0 -0.15927242209E+03 -0.19405106088E+02 -0.34166011245E+03  0.37745979259E+03  0.00000000000E+00 0.  1.
         21    1    1    2  502  501 -0.64552245214E+01  0.90149186829E+01 -0.22092680884E+02  0.24718924554E+02  0.00000000000E+00 0.  1.
<mgrwt>
<rscale>  1 0.30000000E+03</rscale>
<asrwt>0</asrwt>
<pdfrwt beam="1">  1        1 0.11049039E+00 0.30000000E+03</pdfrwt>
<pdfrwt beam="2">0</pdfrwt>
<totfact> 0.29510640E+01</totfact>
</mgrwt>
</event>
<event>
 6    1  0.1875959E-004  0.3000000E+03  0.7818608E-02  0.1093470E+00
          1   -1    0    0  502    0  0.00000000000E+00  0.00000000000E+00  0.32772183355E+02  0.32772183355E+02  0.00000000000E+00 0.  1.
         13   -1    0    0    0    0 -0.00000000000E+00 -0.00000000000E+00 -0.10000000000E+04  0.10000000000E+04  0.00000000000E+00 0.  1.
    9000005    2    1    2  501    0  0.65495542516E+01 -0.34450930046E+02 -0.89948700112E+03  0.95649255744E+03  0.32337498977E+03 0.  0.
         13    1    3    3    0    0  0.54258950156E+02 -0.68856340224E+02 -0.89302499159E+03  0.89731759420E+03  0.00000000000E+00 0.  1.
          1    1    3    3  501    0 -0.47709395905E+02  0.34405410178E+02 -0.64620095314E+01  0.59174963239E+02  0.00000000000E+00 0.  1.
         21    1    1    2  502  501 -0.65495542516E+01  0.34450930046E+02 -0.67740815528E+02  0.76279625919E+02  0.00000000000E+00 0.  1.
<mgrwt>
<rscale>  1 0.30000000E+03</rscale>
<asrwt>0</asrwt>
<pdfrwt beam="1">  1        1 0.11917183E+00 0.30000000E+03</pdfrwt>
<pdfrwt beam="2">0</pdfrwt>
<totfact> 0.26278357E+01</totfact>
</mgrwt>
</event>
<event>
 6    1  0.1875959E-004  0.3000000E+03  0.7818608E-02  0.1093470E+00
          1   -1    0    0  502    0  0.00000000000E+00  0.00000000000E+00  0.10357107911E+03  0.10357107911E+03  0.00000000000E+00 0.  1.
         13   -1    0    0    0    0 -0.00000000000E+00 -0.00000000000E+00 -0.10000000000E+04  0.10000000000E+04  0.00000000000E+00 0.  1.
    9000005    2    1    2  501    0 -0.27596850967E+02 -0.38370986027E+02 -0.96494754019E+03  0.10203321463E+04  0.32820727383E+03 0.  0.
         13    1    3    3    0    0  0.12983938227E+03  0.53975577020E+02 -0.30946407754E+03  0.33991122869E+03  0.00000000000E+00 0.  1.
          3    1    3    3  501    0 -0.15743623323E+03 -0.92346563046E+02 -0.65548346265E+03  0.68042091756E+03  0.00000000000E+00 0.  1.
         21    1    1    2  502  501  0.27596850967E+02  0.38370986027E+02  0.68518619306E+02  0.83238932859E+02  0.00000000000E+00 0.  1.
<mgrwt>
<rscale>  1 0.30000000E+03</rscale>
<asrwt>0</asrwt>
<pdfrwt beam="1">  1        1 0.37662290E+00 0.30000000E+03</pdfrwt>
<pdfrwt beam="2">0</pdfrwt>
<totfact> 0.14214673E+00</totfact>
</mgrwt>
</event>
<event>
 6    1  0.1875959E-004  0.3000000E+03  0.7818608E-02  0.1093470E+00
          1   -1    0    0  502    0  0.00000000000E+00  0.00000000000E+00  0.47633759454E+02  0.47633759454E+02  0.00000000000E+00 0.  1.
         13   -1    0    0    0    0 -0.00000000000E+00 -0.00000000000E+00 -0.10000000000E+04  0.10000000000E+04  0.00000000000E+00 0.  1.
    9000005    2    1    2  501    0  0.94129155808E+01 -0.13030625557E+02 -0.96944151538E+03  0.10241824228E+04  0.32996118434E+03 0.  0.
         13    1    3    3    0    0  0.16230012410E+03 -0.35965744708E+01 -0.34588583955E+03  0.38208805220E+03  0.00000000000E+00 0.  1.
          1    1    3    3  501    0 -0.15288720852E+03 -0.94340510863E+01 -0.62355567583E+03  0.64209437056E+03  0.00000000000E+00 0.  1.
         21    1    1    2  502  501 -0.94129155808E+01  0.13030625557E+02  0.17075274831E+02  0.23451336693E+02  0.00000000000E+00 0.  1.
<mgrwt>
<rscale>  1 0.30000000E+03</rscale>
<asrwt>0</asrwt>
<pdfrwt beam="1">  1        1 0.17321404E+00 0.30000000E+03</pdfrwt>
<pdfrwt beam="2">0</pdfrwt>
<totfact> 0.13780738E+01</totfact>
</mgrwt>
</event>
<event>
 6    1  0.1875959E-004  0.3000000E+03  0.7818608E-02  0.1093470E+00
          1   -1    0    0  502    0  0.00000000000E+00  0.00000000000E+00  0.30510454023E+02  0.30510454023E+02  0.00000000000E+00 0.  1.
         13   -1    0    0    0    0 -0.00000000000E+00 -0.00000000000E+00 -0.10000000000E+04  0.10000000000E+04  0.00000000000E+00 0.  1.
    9000005    2    1    2  501    0 -0.21186241440E+01  0.14498936598E+02 -0.94467050237E+03  0.10016887147E+04  0.33281108068E+03 0.  0.
         13    1    3    3    0    0  0.55832132305E+02 -0.12623394341E+03 -0.20918218607E+03  0.25061808082E+03  0.00000000000E+00 0.  1.
          3    1    3    3  501    0 -0.57950756449E+02  0.14073288001E+03 -0.73548831630E+03  0.75107063390E+03  0.00000000000E+00 0.  1.
         21    1    1    2  502  501  0.21186241440E+01 -0.14498936598E+02 -0.24819043608E+02  0.28821739301E+02  0.00000000000E+00 0. -1.
<mgrwt>
<rscale>  1 0.30000000E+03</rscale>
<asrwt>0</asrwt>
<pdfrwt beam="1">  1        1 0.11094734E+00 0.30000000E+03</pdfrwt>
<pdfrwt beam="2">0</pdfrwt>
<totfact> 0.29326904E+01</totfact>
</mgrwt>
</event>
<event>
 6    1  0.1875959E-004  0.3000000E+03  0.7818608E-02  0.1093470E+00
          1   -1    0    0  502    0  0.00000000000E+00  0.00000000000E+00  0.29534819791E+02  0.29534819791E+02  0.00000000000E+00 0.  1.
         13   -1    0    0    0    0 -0.00000000000E+00 -0.00000000000E+00 -0.10000000000E+04  0.10000000000E+04  0.00000000000E+00 0.  1.
    9000005    2    1    2  501    0 -0.12438167348E+02  0.11169892707E+02 -0.94641620236E+03  0.10002461215E+04  0.32327882863E+03 0.  0.
         13    1    3    3    0    0 -0.31742252779E+02 -0.75656746135E+02 -0.43319560554E+02  0.92779837108E+02  0.00000000000E+00 0.  1.
          3    1    3    3  501    0  0.19304085431E+02  0.86826638842E+02 -0.90309664181E+03  0.90746628443E+03  0.00000000000E+00 0.  1.
         21    1    1    2  502  501  0.12438167348E+02 -0.11169892707E+02 -0.24048977849E+02  0.29288698258E+02  0.00000000000E+00 0.  1.
<mgrwt>
<rscale>  1 0.30000000E+03</rscale>
<asrwt>0</asrwt>
<pdfrwt beam="1">  1        1 0.10739957E+00 0.30000000E+03</pdfrwt>
<pdfrwt beam="2">0</pdfrwt>
<totfact> 0.30797506E+01</totfact>
</mgrwt>
</event>
<event>
 6    1  0.1875959E-004  0.3000000E+03  0.7818608E-02  0.1093470E+00
          1   -1    0    0  502    0  0.00000000000E+00  0.00000000000E+00  0.49924000833E+02  0.49924000833E+02  0.00000000000E+00 0.  1.
         13   -1    0    0    0    0 -0.00000000000E+00 -0.00000000000E+00 -0.10000000000E+04  0.10000000000E+04  0.00000000000E+00 0.  1.
    9000005    2    1    2  501    0  0.63859589616E+02 -0.43383706104E+02 -0.89601389155E+03  0.95567483839E+03  0.32328518329E+03 0.  0.
         13    1    3    3    0    0  0.64187900611E+01  0.56755001508E+02 -0.80924613837E+03  0.81125929488E+03  0.00000000000E+00 0.  1.
          1    1    3    3  501    0  0.57440799555E+02 -0.10013870761E+03 -0.86767753187E+02  0.14441554352E+03  0.00000000000E+00 0.  1.
         21    1    1    2  502  501 -0.63859589616E+02  0.43383706104E+02 -0.54062107612E+02  0.94249162440E+02  0.00000000000E+00 0.  1.
<mgrwt>
<rscale>  1 0.30000000E+03</rscale>
<asrwt>0</asrwt>
<pdfrwt beam="1">  1        1 0.18154220E+00 0.30000000E+03</pdfrwt>
<pdfrwt beam="2">0</pdfrwt>
<totfact> 0.12557086E+01</totfact>
</mgrwt>
</event>
<event>
 6    1  0.1875959E-004  0.3000000E+03  0.7818608E-02  0.1093470E+00
          3   -1    0    0  502    0  0.00000000000E+00  0.00000000000E+00  0.33986568668E+02  0.33986568668E+02  0.00000000000E+00 0.  1.
         13   -1    0    0    0    0 -0.00000000000E+00 -0.00000000000E+00 -0.10000000000E+04  0.10000000000E+04  0.00000000000E+00 0.  1.
    9000005    2    1    2  501    0 -0.11922559488E+01 -0.14412307595E+02 -0.96667175624E+03  0.10195100540E+04  0.32363147229E+03 0.  0.
         13    1    3    3    0    0  0.10706437725E+03  0.96837401153E+02 -0.27450241605E+03  0.31014809294E+03  0.00000000000E+00 0.  1.
          1    1    3    3  501    0 -0.10825663320E+03 -0.11124970875E+03 -0.69216934020E+03  0.70936196109E+03  0.00000000000E+00 0.  1.
         21    1    1    2  502  501  0.11922559488E+01  0.14412307595E+02  0.65832491086E+00  0.14476514641E+02  0.00000000000E+00 0. -1.
<mgrwt>
<rscale>  1 0.30000000E+03</rscale>
<asrwt>0</asrwt>
<pdfrwt beam="1">  1        3 0.12358778E+00 0.30000000E+03</pdfrwt>
<pdfrwt beam="2">0</pdfrwt>
<totfact> 0.21014066E+00</totfact>
</mgrwt>
</event>
<event>
 6    1  0.1875959E-004  0.3000000E+03  0.7818608E-02  0.1093470E+00
          1   -1    0    0  502    0  0.00000000000E+00  0.00000000000E+00  0.33860824587E+02  0.33860824587E+02  0.00000000000E+00 0.  1.
         13   -1    0    0    0    0 -0.00000000000E+00 -0.00000000000E+00 -0.10000000000E+04  0.10000000000E+04  0.00000000000E+00 0.  1.
    9000005    2    1    2  501    0  0.28704191526E+00  0.26991082564E+02 -0.94085451081E+03  0.99687548702E+03  0.32836705860E+03 0.  0.
         13    1    3    3    0    0  0.13468478315E+03  0.55205978860E+02 -0.22507840506E+03  0.26804473384E+03  0.00000000000E+00 0.  1.
          1    1    3    3  501    0 -0.13439774123E+03 -0.28214896296E+02 -0.71577610575E+03  0.72883075318E+03  0.00000000000E+00 0.  1.
         21    1    1    2  502  501 -0.28704191526E+00 -0.26991082564E+02 -0.25284664606E+02  0.36985337571E+02  0.00000000000E+00 0. -1.
<mgrwt>
<rscale>  1 0.30000000E+03</rscale>
<asrwt>0</asrwt>
<pdfrwt beam="1">  1        1 0.12313053E+00 0.30000000E+03</pdfrwt>
<pdfrwt beam="2">0</pdfrwt>
<totfact> 0.24964526E+01</totfact>
</mgrwt>
</event>
<event>
 6    1  0.1875959E-004  0.3000000E+03  0.7818608E-02  0.1093470E+00
          1   -1    0    0  502    0  0.00000000000E+00  0.00000000000E+00  0.36248258692E+02  0.36248258692E+02  0.00000000000E+00 0.  1.
         13   -1    0    0    0    0 -0.00000000000E+00 -0.00000000000E+00 -0.10000000000E+04  0.10000000000E+04  0.00000000000E+00 0.  1.
    9000005    2    1    2  501    0 -0.11025928262E+02  0.81092367431E+01 -0.97266849845E+03  0.10199130399E+04  0.30651471464E+03 0.  0.
         13    1    3    3    0    0  0.21398244014E+02  0.56646487747E+02 -0.17595537604E+02  0.63058007934E+02  0.00000000000E+00 0.  1.
          3    1    3    3  501    0 -0.32424172276E+02 -0.48537251004E+02 -0.95507296085E+03  0.95685503198E+03  0.00000000000E+00 0.  1.
         21    1    1    2  502  501  0.11025928262E+02 -0.81092367431E+01  0.89167571438E+01  0.16335218779E+02  0.00000000000E+00 0.  1.
<mgrwt>
<rscale>  1 0.30000000E+03</rscale>
<asrwt>0</asrwt>
<pdfrwt beam="1">  1        1 0.13181213E+00 0.30000000E+03</pdfrwt>
<pdfrwt beam="2">0</pdfrwt>
<totfact> 0.22367578E+01</totfact>
</mgrwt>
</event>
<event>
 6    1  0.1875959E-004  0.3000000E+03  0.7818608E-02  0.1093470E+00
          1   -1    0    0  502    0  0.00000000000E+00  0.00000000000E+00  0.49702228190E+02  0.49702228190E+02  0.00000000000E+00 0.  1.
         13   -1    0    0    0    0 -0.00000000000E+00 -0.00000000000E+00 -0.10000000000E+04  0.10000000000E+04  0.00000000000E+00 0.  1.
    9000005    2    1    2  501    0  0.69150711399E+01  0.33542893354E+02 -0.95599317955E+03  0.10149836226E+04  0.33925779420E+03 0.  0.
         13    1    3    3    0    0  0.89908946949E+02  0.71516668853E+02 -0.90127818343E+03  0.90857064480E+03  0.00000000000E+00 0.  1.
          1    1    3    3  501    0 -0.82993875809E+02 -0.37973775499E+02 -0.54714996125E+02  0.10641297782E+03  0.00000000000E+00 0.  1.
         21    1    1    2  502  501 -0.69150711399E+01 -0.33542893354E+02  0.56954077431E+01  0.34718605571E+02  0.00000000000E+00 0.  1.
<mgrwt>
<rscale>  1 0.30000000E+03</rscale>
<asrwt>0</asrwt>
<pdfrwt beam="1">  1        1 0.18073576E+00 0.30000000E+03</pdfrwt>
<pdfrwt beam="2">0</pdfrwt>
<totfact> 0.12670239E+01</totfact>
</mgrwt>
</event>
<event>
 6    1  0.1875959E-004  0.3000000E+03  0.7818608E-02  0.1093470E+00
          1   -1    0    0  502    0  0.00000000000E+00  0.00000000000E+00  0.36309786827E+02  0.36309786827E+02  0.00000000000E+00 0.  1.
         13   -1    0    0    0    0 -0.00000000000E+00 -0.00000000000E+00 -0.10000000000E+04  0.10000000000E+04  0.00000000000E+00 0.  1.
    9000005    2    1    2  501    0  0.38838153389E+01 -0.10995288883E+02 -0.97070745208E+03  0.10227001564E+04  0.32172452803E+03 0.  0.
         13    1    3    3    0    0  0.62894683907E+02 -0.12809667902E+02 -0.15974972429E+02  0.66143998969E+02  0.00000000000E+00 0.  1.
          3    1    3    3  501    0 -0.59010868568E+02  0.18143790198E+01 -0.95473247965E+03  0.95655615741E+03  0.00000000000E+00 0.  1.
         21    1    1    2  502  501 -0.38838153389E+01  0.10995288883E+02  0.70172389020E+01  0.13609630451E+02  0.00000000000E+00 0.  1.
<mgrwt>
<rscale>  1 0.30000000E+03</rscale>
<asrwt>0</asrwt>
<pdfrwt beam="1">  1        1 0.13203587E+00 0.30000000E+03</pdfrwt>
<pdfrwt beam="2">0</pdfrwt>
<totfact> 0.22305381E+01</totfact>
</mgrwt>
</event>
<event>
 6    1  0.1875959E-004  0.3000000E+03  0.7818608E-02  0.1093470E+00
          1   -1    0    0  502    0  0.00000000000E+00  0.00000000000E+00  0.56672617285E+02  0.56672617285E+02  0.00000000000E+00 0.  1.
         13   -1    0    0    0    0 -0.00000000000E+00 -0.00000000000E+00 -0.10000000000E+04  0.10000000000E+04  0.00000000000E+00 0.  1.
    9000005    2    1    2  501    0  0.38374154053E+02  0.76302367539E+02 -0.87946308886E+03  0.95002705938E+03  0.34900066174E+03 0.  0.
         13    1    3    3    0    0  0.51211698306E+01  0.12318171129E+03 -0.88382850629E+03  0.89238600891E+03  0.00000000000E+00 0.  1.
          1    1    3    3  501    0  0.33252984222E+02 -0.46879343750E+02  0.43654174226E+01  0.57641050471E+02  0.00000000000E+00 0.  1.
         21    1    1    2  502  501 -0.38374154053E+02 -0.76302367539E+02 -0.63864293850E+02  0.10664555790E+03  0.00000000000E+00 0. -1.
<mgrwt>
<rscale>  1 0.30000000E+03</rscale>
<asrwt>0</asrwt>
<pdfrwt beam="1">  1        1 0.20608268E+00 0.30000000E+03</pdfrwt>
<pdfrwt beam="2">0</pdfrwt>
<totfact> 0.95849801E+00</totfact>
</mgrwt>
</event>
<event>
 6    1  0.1875959E-004  0.3000000E+03  0.7818608E-02  0.1093470E+00
          1   -1    0    0  502    0  0.00000000000E+00  0.00000000000E+00  0.32761156831E+02  0.32761156831E+02  0.00000000000E+00 0.  1.
         13   -1    0    0    0    0 -0.00000000000E+00 -0.00000000000E+00 -0.10000000000E+04  0.10000000000E+04  0.00000000000E+00 0.  1.
    9000005    2    1    2  501    0  0.11176644372E+02  0.49052446064E+01 -0.96706146298E+03  0.10205541806E+04  0.32584349560E+03 0.  0.
         13    1    3    3    0    0  0.44228066880E+02  0.15242159479E+03 -0.33540177472E+03  0.37105635010E+03  0.00000000000E+00 0.  1.
          1    1    3    3  501    0 -0.33051422508E+02 -0.14751635019E+03 -0.63165968826E+03  0.64949783054E+03  0.00000000000E+00 0.  1.
         21    1    1    2  502  501 -0.11176644372E+02 -0.49052446064E+01 -0.17738018513E+00  0.12206976193E+02  0.00000000000E+00 0.  1.
<mgrwt>
<rscale>  1 0.30000000E+03</rscale>
<asrwt>0</asrwt>
<pdfrwt beam="1">  1        1 0.11913173E+00 0.30000000E+03</pdfrwt>
<pdfrwt beam="2">0</pdfrwt>
<totfact> 0.26292131E+01</totfact>
</mgrwt>
</event>
<event>
 6    1  0.1875959E-004  0.3000000E+03  0.7818608E-02  0.1093470E+00
          1   -1    0    0  502    0  0.00000000000E+00  0.00000000000E+00  0.52969069785E+02  0.52969069785E+02  0.00000000000E+00 0.  1.
         13   -1    0    0    0    0 -0.00000000000E+00 -0.00000000000E+00 -0.10000000000E+04  0.10000000000E+04  0.00000000000E+00 0.  1.
    9000005    2    1    2  501    0 -0.10305572897E+02 -0.11121158649E+02 -0.97083494685E+03  0.10247464510E+04  0.32765059108E+03 0.  0.
         13    1    3    3    0    0 -0.57937433007E+02  0.12597160951E+03 -0.73398987337E+03  0.74697170412E+03  0.00000000000E+00 0.  1.
          1    1    3    3  501    0  0.47631860110E+02 -0.13709276816E+03 -0.23684507348E+03  0.27777474689E+03  0.00000000000E+00 0.  1.
         21    1    1    2  502  501  0.10305572897E+02  0.11121158649E+02  0.23804016634E+02  0.28222618772E+02  0.00000000000E+00 0.  1.
<mgrwt>
<rscale>  1 0.30000000E+03</rscale>
<asrwt>0</asrwt>
<pdfrwt beam="1">  1        1 0.19261521E+00 0.30000000E+03</pdfrwt>
<pdfrwt beam="2">0</pdfrwt>
<totfact> 0.11108622E+01</totfact>
</mgrwt>
</event>
<event>
 6    1  0.1875959E-004  0.3000000E+03  0.7818608E-02  0.1093470E+00
          1   -1    0    0  502    0  0.00000000000E+00  0.00000000000E+00  0.33381416596E+02  0.33381416596E+02  0.00000000000E+00 0.  1.
         13   -1    0    0    0    0 -0.00000000000E+00 -0.00000000000E+00 -0.10000000000E+04  0.10000000000E+04  0.00000000000E+00 0.  1.
    9000005    2    1    2  501    0 -0.40290530805E+02  0.49776087998E+01 -0.87390008330E+03  0.93216469998E+03  0.32184090608E+03 0.  0.
         13    1    3    3    0    0  0.43817146409E+01  0.96122969507E+02 -0.80205698374E+03  0.80780828781E+03  0.00000000000E+00 0.  1.
          1    1    3    3  501    0 -0.44672245446E+02 -0.91145360707E+02 -0.71843099558E+02  0.12435641216E+03  0.00000000000E+00 0.  1.
         21    1    1    2  502  501  0.40290530805E+02 -0.49776087998E+01 -0.92718500102E+02  0.10121671662E+03  0.00000000000E+00 0. -1.
<mgrwt>
<rscale>  1 0.30000000E+03</rscale>
<asrwt>0</asrwt>
<pdfrwt beam="1">  1        1 0.12138723E+00 0.30000000E+03</pdfrwt>
<pdfrwt beam="2">0</pdfrwt>
<totfact> 0.25532119E+01</totfact>
</mgrwt>
</event>
<event>
 6    1  0.1875959E-004  0.3000000E+03  0.7818608E-02  0.1093470E+00
          1   -1    0    0  502    0  0.00000000000E+00  0.00000000000E+00  0.46428965726E+02  0.46428965726E+02  0.00000000000E+00 0.  1.
         13   -1    0    0    0    0 -0.00000000000E+00 -0.00000000000E+00 -0.10000000000E+04  0.10000000000E+04  0.00000000000E+00 0.  1.
    9000005    2    1    2  501    0  0.75780349397E+00 -0.52281312953E+02 -0.92762639776E+03  0.98805916091E+03  0.33620865796E+03 0.  0.
         13    1    3    3    0    0  0.85058393335E+02 -0.17103815661E+03 -0.59599745483E+03  0.62586096496E+03  0.00000000000E+00 0.  1.
          3    1    3    3  501    0 -0.84300589841E+02  0.11875684366E+03 -0.33162894293E+03  0.36219819596E+03  0.00000000000E+00 0.  1.
         21    1    1    2  502  501 -0.75780349397E+00  0.52281312953E+02 -0.25944636511E+02  0.58369804813E+02  0.00000000000E+00 0. -1.
<mgrwt>
<rscale>  1 0.30000000E+03</rscale>
<asrwt>0</asrwt>
<pdfrwt beam="1">  1        1 0.16883296E+00 0.30000000E+03</pdfrwt>
<pdfrwt beam="2">0</pdfrwt>
<totfact> 0.14476230E+01</totfact>
</mgrwt>
</event>
<event>
 6    1  0.1875959E-004  0.3000000E+03  0.7818608E-02  0.1093470E+00
          1   -1    0    0  502    0  0.00000000000E+00  0.00000000000E+00  0.30778107377E+02  0.30778107377E+02  0.00000000000E+00 0.  1.
         13   -1    0    0    0    0 -0.00000000000E+00 -0.00000000000E+00 -0.10000000000E+04  0.10000000000E+04  0.00000000000E+00 0.  1.
    9000005    2    1    2  501    0  0.65880198697E+01  0.47785092857E+01 -0.95274705711E+03  0.10124026792E+04  0.34229518517E+03 0.  0.
         13    1    3    3    0    0  0.14976451114E+03  0.90004573589E+02 -0.44819364059E+03  0.48104861660E+03  0.00000000000E+00 0.  1.
          1    1    3    3  501    0 -0.14317649127E+03 -0.85226064303E+02 -0.50455341652E+03  0.53135406257E+03  0.00000000000E+00 0.  1.
         21    1    1    2  502  501 -0.65880198697E+01 -0.47785092857E+01 -0.16474835508E+02  0.18375428208E+02  0.00000000000E+00 0.  1.
<mgrwt>
<rscale>  1 0.30000000E+03</rscale>
<asrwt>0</asrwt>
<pdfrwt beam="1">  1        1 0.11192063E+00 0.30000000E+03</pdfrwt>
<pdfrwt beam="2">0</pdfrwt>
<totfact> 0.28940907E+01</totfact>
</mgrwt>
</event>
<event>
 6    1  0.1875959E-004  0.3000000E+03  0.7818608E-02  0.1093470E+00
          1   -1    0    0  502    0  0.00000000000E+00  0.00000000000E+00  0.27787923254E+02  0.27787923254E+02  0.00000000000E+00 0.  1.
         13   -1    0    0    0    0 -0.00000000000E+00 -0.00000000000E+00 -0.10000000000E+04  0.10000000000E+04  0.00000000000E+00 0.  1.
    9000005    2    1    2  501    0 -0.68788903908E+00  0.11017668419E+02 -0.95560520970E+03  0.10078467537E+04  0.32008108347E+03 0.  0.
         13    1    3    3    0    0 -0.40805605631E+02 -0.54891297416E+02 -0.23155763303E+02  0.72210396461E+02  0.00000000000E+00 0.  1.
          1    1    3    3  501    0  0.40117716592E+02  0.65908965836E+02 -0.93244944640E+03  0.93563635728E+03  0.00000000000E+00 0.  1.
         21    1    1    2  502  501  0.68788903908E+00 -0.11017668419E+02 -0.16606867043E+02  0.19941169517E+02  0.00000000000E+00 0. -1.
<mgrwt>
<rscale>  1 0.30000000E+03</rscale>
<asrwt>0</asrwt>
<pdfrwt beam="1">  1        1 0.10104721E+00 0.30000000E+03</pdfrwt>
<pdfrwt beam="2">0</pdfrwt>
<totfact> 0.33708736E+01</totfact>
</mgrwt>
</event>
<event>
 6    1  0.1875959E-004  0.3000000E+03  0.7818608E-02  0.1093470E+00
          1   -1    0    0  502    0  0.00000000000E+00  0.00000000000E+00  0.27886265090E+02  0.27886265090E+02  0.00000000000E+00 0.  1.
         13   -1    0    0    0    0 -0.00000000000E+00 -0.00000000000E+00 -0.10000000000E+04  0.10000000000E+04  0.00000000000E+00 0.  1.
    9000005    2    1    2  501    0  0.55914671918E+01 -0.22163600308E+02 -0.94749781746E+03  0.99429410714E+03  0.30057639247E+03 0.  0.
         13    1    3    3    0    0  0.15650563529E+02  0.13537814486E+03 -0.54913203236E+03  0.56578986489E+03  0.00000000000E+00 0.  1.
          3    1    3    3  501    0 -0.10059096337E+02 -0.15754174517E+03 -0.39836578510E+03  0.42850424226E+03  0.00000000000E+00 0.  1.
         21    1    1    2  502  501 -0.55914671918E+01  0.22163600308E+02 -0.24615917446E+02  0.33592157949E+02  0.00000000000E+00 0.  1.
<mgrwt>
<rscale>  1 0.30000000E+03</rscale>
<asrwt>0</asrwt>
<pdfrwt beam="1">  1        1 0.10140481E+00 0.30000000E+03</pdfrwt>
<pdfrwt beam="2">0</pdfrwt>
<totfact> 0.33534412E+01</totfact>
</mgrwt>
</event>
<event>
 6    1  0.1875959E-004  0.3000000E+03  0.7818608E-02  0.1093470E+00
          1   -1    0    0  502    0  0.00000000000E+00  0.00000000000E+00  0.38832592232E+02  0.38832592232E+02  0.00000000000E+00 0.  1.
         13   -1    0    0    0    0 -0.00000000000E+00 -0.00000000000E+00 -0.10000000000E+04  0.10000000000E+04  0.00000000000E+00 0.  1.
    9000005    2    1    2  501    0 -0.50202148483E+02 -0.12607150888E+01 -0.90568833363E+03  0.96400096267E+03  0.32635050674E+03 0.  0.
         13    1    3    3    0    0 -0.73963109022E+02  0.13755423347E+03 -0.26142036788E+03  0.30451981444E+03  0.00000000000E+00 0.  1.
          1    1    3    3  501    0  0.23760960539E+02 -0.13881494856E+03 -0.64426796575E+03  0.65948114824E+03  0.00000000000E+00 0.  1.
         21    1    1    2  502  501  0.50202148483E+02  0.12607150888E+01 -0.55479074139E+02  0.74831629557E+02  0.00000000000E+00 0.  1.
<mgrwt>
<rscale>  1 0.30000000E+03</rscale>
<asrwt>0</asrwt>
<pdfrwt beam="1">  1        1 0.14120972E+00 0.30000000E+03</pdfrwt>
<pdfrwt beam="2">0</pdfrwt>
<totfact> 0.19939443E+01</totfact>
</mgrwt>
</event>
<event>
 6    1  0.1875959E-004  0.3000000E+03  0.7818608E-02  0.1093470E+00
          1   -1    0    0  502    0  0.00000000000E+00  0.00000000000E+00  0.43605583369E+02  0.43605583369E+02  0.00000000000E+00 0.  1.
         13   -1    0    0    0    0 -0.00000000000E+00 -0.00000000000E+00 -0.10000000000E+04  0.10000000000E+04  0.00000000000E+00 0.  1.
    9000005    2    1    2  501    0  0.17122227270E+02  0.27004506777E+02 -0.95626136002E+03  0.10116300966E+04  0.32853804883E+03 0.  0.
         13    1    3    3    0    0  0.85808367222E+01  0.44943834313E+02  0.86062014187E+01  0.46557982178E+02  0.00000000000E+00 0.  1.
          3    1    3    3  501    0  0.85413905481E+01 -0.17939327536E+02 -0.96486756144E+03  0.96507211438E+03  0.00000000000E+00 0.  1.
         21    1    1    2  502  501 -0.17122227270E+02 -0.27004506777E+02 -0.13305660718E+00  0.31975486815E+02  0.00000000000E+00 0.  1.
<mgrwt>
<rscale>  1 0.30000000E+03</rscale>
<asrwt>0</asrwt>
<pdfrwt beam="1">  1        1 0.15856609E+00 0.30000000E+03</pdfrwt>
<pdfrwt beam="2">0</pdfrwt>
<totfact> 0.16268063E+01</totfact>
</mgrwt>
</event>
<event>
 6    1  0.1875959E-004  0.3000000E+03  0.7818608E-02  0.1093470E+00
          1   -1    0    0  502    0  0.00000000000E+00  0.00000000000E+00  0.28413157545E+02  0.28413157545E+02  0.00000000000E+00 0.  1.
         13   -1    0    0    0    0 -0.00000000000E+00 -0.00000000000E+00 -0.10000000000E+04  0.10000000000E+04  0.00000000000E+00 0.  1.
    9000005    2    1    2  501    0 -0.10778057027E+02 -0.44439690711E+00 -0.95823206852E+03  0.10112459216E+04  0.32294465916E+03 0.  0.
         13    1    3    3    0    0  0.90527805913E+02 -0.74819066057E+02 -0.13698581494E+03  0.18043915812E+03  0.00000000000E+00 0.  1.
          1    1    3    3  501    0 -0.10130586294E+03  0.74374669150E+02 -0.82124625359E+03  0.83080676352E+03  0.00000000000E+00 0.  1.
         21    1    1    2  502  501  0.10778057027E+02  0.44439690711E+00 -0.13354773931E+02  0.17167235906E+02  0.00000000000E+00 0.  1.
<mgrwt>
<rscale>  1 0.30000000E+03</rscale>
<asrwt>0</asrwt>
<pdfrwt beam="1">  1        1 0.10332079E+00 0.30000000E+03</pdfrwt>
<pdfrwt beam="2">0</pdfrwt>
<totfact> 0.32622528E+01</totfact>
</mgrwt>
</event>
<event>
 6    1  0.1875959E-004  0.3000000E+03  0.7818608E-02  0.1093470E+00
          1   -1    0    0  502    0  0.00000000000E+00  0.00000000000E+00  0.37711186005E+02  0.37711186005E+02  0.00000000000E+00 0.  1.
         13   -1    0    0    0    0 -0.00000000000E+00 -0.00000000000E+00 -0.10000000000E+04  0.10000000000E+04  0.00000000000E+00 0.  1.
    9000005    2    1    2  501    0  0.53673107881E+02  0.20263068991E+02 -0.79097877836E+03  0.85704983767E+03  0.32495476909E+03 0.  0.
         13    1    3    3    0    0 -0.16265556662E+01  0.11603077590E+03 -0.88548978143E+02  0.14596817519E+03  0.00000000000E+00 0.  1.
          1    1    3    3  501    0  0.55299663548E+02 -0.95767706905E+02 -0.70242980022E+03  0.71108166248E+03  0.00000000000E+00 0.  1.
         21    1    1    2  502  501 -0.53673107881E+02 -0.20263068991E+02 -0.17131003563E+03  0.18066134834E+03  0.00000000000E+00 0.  1.
<mgrwt>
<rscale>  1 0.30000000E+03</rscale>
<asrwt>0</asrwt>
<pdfrwt beam="1">  1        1 0.13713187E+00 0.30000000E+03</pdfrwt>
<pdfrwt beam="2">0</pdfrwt>
<totfact> 0.20948641E+01</totfact>
</mgrwt>
</event>
<event>
 6    1  0.1875959E-004  0.3000000E+03  0.7818608E-02  0.1093470E+00
          1   -1    0    0  502    0  0.00000000000E+00  0.00000000000E+00  0.42466957231E+02  0.42466957231E+02  0.00000000000E+00 0.  1.
         13   -1    0    0    0    0 -0.00000000000E+00 -0.00000000000E+00 -0.10000000000E+04  0.10000000000E+04  0.00000000000E+00 0.  1.
    9000005    2    1    2  501    0 -0.80475491136E+01 -0.85683688859E+01 -0.97087031621E+03  0.10246888006E+04  0.32750540010E+03 0.  0.
         13    1    3    3    0    0  0.15065704405E+02 -0.14549528418E+03 -0.74746574807E+03  0.76164355030E+03  0.00000000000E+00 0.  1.
          1    1    3    3  501    0 -0.23113253518E+02  0.13692691529E+03 -0.22340456813E+03  0.26304525026E+03  0.00000000000E+00 0.  1.
         21    1    1    2  502  501  0.80475491136E+01  0.85683688859E+01  0.13337273437E+02  0.17778156677E+02  0.00000000000E+00 0.  1.
<mgrwt>
<rscale>  1 0.30000000E+03</rscale>
<asrwt>0</asrwt>
<pdfrwt beam="1">  1        1 0.15442562E+00 0.30000000E+03</pdfrwt>
<pdfrwt beam="2">0</pdfrwt>
<totfact> 0.17062936E+01</totfact>
</mgrwt>
</event>
<event>
 6    1  0.1875959E-004  0.3000000E+03  0.7818608E-02  0.1093470E+00
          1   -1    0    0  502    0  0.00000000000E+00  0.00000000000E+00  0.31705091346E+02  0.31705091346E+02  0.00000000000E+00 0.  1.
         13   -1    0    0    0    0 -0.00000000000E+00 -0.00000000000E+00 -0.10000000000E+04  0.10000000000E+04  0.00000000000E+00 0.  1.
    9000005    2    1    2  501    0  0.10118740684E+02  0.48555130564E+01 -0.96000405127E+03  0.10177514812E+04  0.33776372526E+03 0.  0.
         13    1    3    3    0    0 -0.15415501753E+03 -0.25820145203E+02 -0.61286304960E+03  0.63248048737E+03  0.00000000000E+00 0.  1.
          3    1    3    3  501    0  0.16427375822E+03  0.30675658259E+02 -0.34714100167E+03  0.38527099383E+03  0.00000000000E+00 0.  1.
         21    1    1    2  502  501 -0.10118740684E+02 -0.48555130564E+01 -0.82908573851E+01  0.13953610151E+02  0.00000000000E+00 0. -1.
<mgrwt>
<rscale>  1 0.30000000E+03</rscale>
<asrwt>0</asrwt>
<pdfrwt beam="1">  1        1 0.11529148E+00 0.30000000E+03</pdfrwt>
<pdfrwt beam="2">0</pdfrwt>
<totfact> 0.27658442E+01</totfact>
</mgrwt>
</event>
<event>
 6    1  0.1875959E-004  0.3000000E+03  0.7818608E-02  0.1093470E+00
          3   -1    0    0  502    0  0.00000000000E+00  0.00000000000E+00  0.49433882093E+02  0.49433882093E+02  0.00000000000E+00 0.  1.
         13   -1    0    0    0    0 -0.00000000000E+00 -0.00000000000E+00 -0.10000000000E+04  0.10000000000E+04  0.00000000000E+00 0.  1.
    9000005    2    1    2  501    0 -0.14132211913E+02 -0.12875981075E+02 -0.96871282841E+03  0.10230745687E+04  0.32849888709E+03 0.  0.
         13    1    3    3    0    0  0.15525271934E+03  0.16255194196E+02 -0.50261473073E+03  0.52629763989E+03  0.00000000000E+00 0.  1.
          1    1    3    3  501    0 -0.16938493125E+03 -0.29131175272E+02 -0.46609809768E+03  0.49677692878E+03  0.00000000000E+00 0.  1.
         21    1    1    2  502  501  0.14132211913E+02  0.12875981075E+02  0.18146710506E+02  0.26359313428E+02  0.00000000000E+00 0.  1.
<mgrwt>
<rscale>  1 0.30000000E+03</rscale>
<asrwt>0</asrwt>
<pdfrwt beam="1">  1        3 0.17975995E+00 0.30000000E+03</pdfrwt>
<pdfrwt beam="2">0</pdfrwt>
<totfact> 0.33106737E-01</totfact>
</mgrwt>
</event>
<event>
 6    1  0.1875959E-004  0.3000000E+03  0.7818608E-02  0.1093470E+00
          1   -1    0    0  502    0  0.00000000000E+00  0.00000000000E+00  0.37072333275E+02  0.37072333275E+02  0.00000000000E+00 0.  1.
         13   -1    0    0    0    0 -0.00000000000E+00 -0.00000000000E+00 -0.10000000000E+04  0.10000000000E+04  0.00000000000E+00 0.  1.
    9000005    2    1    2  501    0 -0.38280454464E+01  0.14324671595E+02 -0.96661255417E+03  0.10217939648E+04  0.33091271727E+03 0.  0.
         13    1    3    3    0    0 -0.10738797851E+03  0.11000399857E+03 -0.26681286516E+03  0.30793207473E+03  0.00000000000E+00 0.  1.
          1    1    3    3  501    0  0.10355993306E+03 -0.95679326974E+02 -0.69979968900E+03  0.71386189006E+03  0.00000000000E+00 0.  1.
         21    1    1    2  502  501  0.38280454464E+01 -0.14324671595E+02  0.36848874419E+01  0.15278368489E+02  0.00000000000E+00 0.  1.
<mgrwt>
<rscale>  1 0.30000000E+03</rscale>
<asrwt>0</asrwt>
<pdfrwt beam="1">  1        1 0.13480877E+00 0.30000000E+03</pdfrwt>
<pdfrwt beam="2">0</pdfrwt>
<totfact> 0.21553141E+01</totfact>
</mgrwt>
</event>
<event>
 6    1  0.1875959E-004  0.3000000E+03  0.7818608E-02  0.1093470E+00
          1   -1    0    0  502    0  0.00000000000E+00  0.00000000000E+00  0.26995155831E+02  0.26995155831E+02  0.00000000000E+00 0.  1.
         13   -1    0    0    0    0 -0.00000000000E+00 -0.00000000000E+00 -0.10000000000E+04  0.10000000000E+04  0.00000000000E+00 0.  1.
    9000005    2    1    2  501    0 -0.11460458171E+02 -0.23696708983E+01 -0.95821908585E+03  0.10081384305E+04  0.31308516588E+03 0.  0.
         13    1    3    3    0    0 -0.24549629844E+02  0.14188828632E+03 -0.67314839309E+03  0.68837760658E+03  0.00000000000E+00 0.  1.
          3    1    3    3  501    0  0.13089171673E+02 -0.14425795722E+03 -0.28507069276E+03  0.31976082391E+03  0.00000000000E+00 0.  1.
         21    1    1    2  502  501  0.11460458171E+02  0.23696708983E+01 -0.14785758318E+02  0.18856725344E+02  0.00000000000E+00 0. -1.
<mgrwt>
<rscale>  1 0.30000000E+03</rscale>
<asrwt>0</asrwt>
<pdfrwt beam="1">  1        1 0.98164410E-01 0.30000000E+03</pdfrwt>
<pdfrwt beam="2">0</pdfrwt>
<totfact> 0.35164042E+01</totfact>
</mgrwt>
</event>
<event>
 6    1  0.1875959E-004  0.3000000E+03  0.7818608E-02  0.1093470E+00
          1   -1    0    0  502    0  0.00000000000E+00  0.00000000000E+00  0.29195394565E+02  0.29195394565E+02  0.00000000000E+00 0.  1.
         13   -1    0    0    0    0 -0.00000000000E+00 -0.00000000000E+00 -0.10000000000E+04  0.10000000000E+04  0.00000000000E+00 0.  1.
    9000005    2    1    2  501    0  0.53487889270E+01  0.17012302192E+02 -0.95572695637E+03  0.10058423761E+04  0.31302850112E+03 0.  0.
         13    1    3    3    0    0 -0.13015040157E+03  0.81845268107E+02 -0.35972845476E+03  0.39120625775E+03  0.00000000000E+00 0.  1.
          3    1    3    3  501    0  0.13549919049E+03 -0.64832965915E+02 -0.59599850160E+03  0.61463611837E+03  0.00000000000E+00 0.  1.
         21    1    1    2  502  501 -0.53487889270E+01 -0.17012302192E+02 -0.15077649068E+02  0.23353018440E+02  0.00000000000E+00 0. -1.
<mgrwt>
<rscale>  1 0.30000000E+03</rscale>
<asrwt>0</asrwt>
<pdfrwt beam="1">  1        1 0.10616530E+00 0.30000000E+03</pdfrwt>
<pdfrwt beam="2">0</pdfrwt>
<totfact> 0.31333886E+01</totfact>
</mgrwt>
</event>
<event>
 6    1  0.1875959E-004  0.3000000E+03  0.7818608E-02  0.1093470E+00
          1   -1    0    0  502    0  0.00000000000E+00  0.00000000000E+00  0.25762773597E+02  0.25762773597E+02  0.00000000000E+00 0.  1.
         13   -1    0    0    0    0 -0.00000000000E+00 -0.00000000000E+00 -0.10000000000E+04  0.10000000000E+04  0.00000000000E+00 0.  1.
    9000005    2    1    2  501    0 -0.34411571984E+01 -0.97977964048E+01 -0.97526195253E+03  0.10153278112E+04  0.28221773458E+03 0.  0.
         13    1    3    3    0    0 -0.10874334066E+03  0.41332140868E+01 -0.16198953174E+03  0.19514816420E+03  0.00000000000E+00 0.  1.
          3    1    3    3  501    0  0.10530218346E+03 -0.13931010492E+02 -0.81327242078E+03  0.82017964697E+03  0.00000000000E+00 0.  1.
         21    1    1    2  502  501  0.34411571984E+01  0.97977964048E+01  0.10247261236E+01  0.10434962428E+02  0.00000000000E+00 0.  1.
<mgrwt>
<rscale>  1 0.30000000E+03</rscale>
<asrwt>0</asrwt>
<pdfrwt beam="1">  1        1 0.93683011E-01 0.30000000E+03</pdfrwt>
<pdfrwt beam="2">0</pdfrwt>
<totfact> 0.37618093E+01</totfact>
</mgrwt>
</event>
<event>
 6    1  0.1875959E-004  0.3000000E+03  0.7818608E-02  0.1093470E+00
          3   -1    0    0  502    0  0.00000000000E+00  0.00000000000E+00  0.30801611074E+02  0.30801611074E+02  0.00000000000E+00 0.  1.
         13   -1    0    0    0    0 -0.00000000000E+00 -0.00000000000E+00 -0.10000000000E+04  0.10000000000E+04  0.00000000000E+00 0.  1.
    9000005    2    1    2  501    0  0.49737831634E+01  0.10615843443E+02 -0.96720657562E+03  0.10189103550E+04  0.32023790677E+03 0.  0.
         13    1    3    3    0    0  0.67718652328E+02  0.94968671859E+02 -0.12811266792E+03  0.17325622698E+03  0.00000000000E+00 0.  1.
          3    1    3    3  501    0 -0.62744869165E+02 -0.84352828416E+02 -0.83909390771E+03  0.84565412801E+03  0.00000000000E+00 0.  1.
         21    1    1    2  502  501 -0.49737831634E+01 -0.10615843443E+02 -0.19918133022E+01  0.11891256082E+02  0.00000000000E+00 0. -1.
<mgrwt>
<rscale>  1 0.30000000E+03</rscale>
<asrwt>0</asrwt>
<pdfrwt beam="1">  1        3 0.11200609E+00 0.30000000E+03</pdfrwt>
<pdfrwt beam="2">0</pdfrwt>
<totfact> 0.28589569E+00</totfact>
</mgrwt>
</event>
<event>
 6    1  0.1875959E-004  0.3000000E+03  0.7818608E-02  0.1093470E+00
          3   -1    0    0  502    0  0.00000000000E+00  0.00000000000E+00  0.30405175426E+02  0.30405175426E+02  0.00000000000E+00 0.  1.
         13   -1    0    0    0    0 -0.00000000000E+00 -0.00000000000E+00 -0.10000000000E+04  0.10000000000E+04  0.00000000000E+00 0.  1.
    9000005    2    1    2  501    0  0.59251752344E+01 -0.92189042010E+01 -0.96171771756E+03  0.10169090756E+04  0.33027716213E+03 0.  0.
         13    1    3    3    0    0 -0.49432091230E+02 -0.12054518135E+03 -0.81159708779E+03  0.82198814182E+03  0.00000000000E+00 0.  1.
          3    1    3    3  501    0  0.55357266464E+02  0.11132627714E+03 -0.15012062977E+03  0.19492093375E+03  0.00000000000E+00 0.  1.
         21    1    1    2  502  501 -0.59251752344E+01  0.92189042010E+01 -0.78771070190E+01  0.13496099852E+02  0.00000000000E+00 0. -1.
<mgrwt>
<rscale>  1 0.30000000E+03</rscale>
<asrwt>0</asrwt>
<pdfrwt beam="1">  1        3 0.11056451E+00 0.30000000E+03</pdfrwt>
<pdfrwt beam="2">0</pdfrwt>
<totfact> 0.29692924E+00</totfact>
</mgrwt>
</event>
<event>
 6    1  0.1875959E-004  0.3000000E+03  0.7818608E-02  0.1093470E+00
          1   -1    0    0  502    0  0.00000000000E+00  0.00000000000E+00  0.33509007637E+02  0.33509007637E+02  0.00000000000E+00 0.  1.
         13   -1    0    0    0    0 -0.00000000000E+00 -0.00000000000E+00 -0.10000000000E+04  0.10000000000E+04  0.00000000000E+00 0.  1.
    9000005    2    1    2  501    0 -0.42475231919E+01 -0.32483409433E+02 -0.91895344906E+03  0.97577659590E+03  0.32648324647E+03 0.  0.
         13    1    3    3    0    0  0.74459171452E+02 -0.81793724373E+02 -0.92695787297E+02  0.14431524709E+03  0.00000000000E+00 0.  1.
          1    1    3    3  501    0 -0.78706694643E+02  0.49310314939E+02 -0.82625766177E+03  0.83146134881E+03  0.00000000000E+00 0.  1.
         21    1    1    2  502  501  0.42475231919E+01  0.32483409433E+02 -0.47537543299E+02  0.57732411733E+02  0.00000000000E+00 0. -1.
<mgrwt>
<rscale>  1 0.30000000E+03</rscale>
<asrwt>0</asrwt>
<pdfrwt beam="1">  1        1 0.12185119E+00 0.30000000E+03</pdfrwt>
<pdfrwt beam="2">0</pdfrwt>
<totfact> 0.25379416E+01</totfact>
</mgrwt>
</event>
<event>
 6    1  0.1875959E-004  0.3000000E+03  0.7818608E-02  0.1093470E+00
          1   -1    0    0  502    0  0.00000000000E+00  0.00000000000E+00  0.23571507815E+02  0.23571507815E+02  0.00000000000E+00 0.  1.
         13   -1    0    0    0    0 -0.00000000000E+00 -0.00000000000E+00 -0.10000000000E+04  0.10000000000E+04  0.00000000000E+00 0.  1.
    9000005    2    1    2  501    0  0.16910902005E+01 -0.10960802103E+02 -0.97701458939E+03  0.10124655419E+04  0.26534122690E+03 0.  0.
         13    1    3    3    0    0  0.40670674639E+02 -0.81803390858E+02 -0.11596240529E+03  0.14762512649E+03  0.00000000000E+00 0.  1.
          3    1    3    3  501    0 -0.38979584439E+02  0.70842588755E+02 -0.86105218410E+03  0.86484041541E+03  0.00000000000E+00 0.  1.
         21    1    1    2  502  501 -0.16910902005E+01  0.10960802103E+02  0.58609720735E+00  0.11105965908E+02  0.00000000000E+00 0. -1.
<mgrwt>
<rscale>  1 0.30000000E+03</rscale>
<asrwt>0</asrwt>
<pdfrwt beam="1">  1        1 0.85714755E-01 0.30000000E+03</pdfrwt>
<pdfrwt beam="2">0</pdfrwt>
<totfact> 0.42666096E+01</totfact>
</mgrwt>
</event>
<event>
 6    1  0.1875959E-004  0.3000000E+03  0.7818608E-02  0.1093470E+00
          1   -1    0    0  502    0  0.00000000000E+00  0.00000000000E+00  0.30593748137E+02  0.30593748137E+02  0.00000000000E+00 0.  1.
         13   -1    0    0    0    0 -0.00000000000E+00 -0.00000000000E+00 -0.10000000000E+04  0.10000000000E+04  0.00000000000E+00 0.  1.
    9000005    2    1    2  501    0 -0.15910377975E+02 -0.38853843179E-01 -0.92975076185E+03  0.98786554287E+03  0.33344971135E+03 0.  0.
         13    1    3    3    0    0 -0.31465756578E+02  0.20086813263E+02  0.16825784011E+02  0.40947294314E+02  0.00000000000E+00 0.  1.
          3    1    3    3  501    0  0.15555378603E+02 -0.20125667106E+02 -0.94657654586E+03  0.94691824856E+03  0.00000000000E+00 0.  1.
         21    1    1    2  502  501  0.15910377975E+02  0.38853843179E-01 -0.39655490011E+02  0.42728205263E+02  0.00000000000E+00 0. -1.
<mgrwt>
<rscale>  1 0.30000000E+03</rscale>
<asrwt>0</asrwt>
<pdfrwt beam="1">  1        1 0.11125023E+00 0.30000000E+03</pdfrwt>
<pdfrwt beam="2">0</pdfrwt>
<totfact> 0.29206005E+01</totfact>
</mgrwt>
</event>
<event>
 6    1  0.1875959E-004  0.3000000E+03  0.7818608E-02  0.1093470E+00
          1   -1    0    0  502    0  0.00000000000E+00  0.00000000000E+00  0.45921013672E+02  0.45921013672E+02  0.00000000000E+00 0.  1.
         13   -1    0    0    0    0 -0.00000000000E+00 -0.00000000000E+00 -0.10000000000E+04  0.10000000000E+04  0.00000000000E+00 0.  1.
    9000005    2    1    2  501    0  0.75202351243E+01  0.91564554528E+01 -0.97186639494E+03  0.10245484491E+04  0.32409079012E+03 0.  0.
         13    1    3    3    0    0 -0.96832331731E+02  0.11335439608E+03 -0.69550493220E+03  0.71130361330E+03  0.00000000000E+00 0.  1.
          3    1    3    3  501    0  0.10435256686E+03 -0.10419794063E+03 -0.27636146274E+03  0.31324483576E+03  0.00000000000E+00 0.  1.
         21    1    1    2  502  501 -0.75202351243E+01 -0.91564554528E+01  0.17787408615E+02  0.21372564611E+02  0.00000000000E+00 0. -1.
<mgrwt>
<rscale>  1 0.30000000E+03</rscale>
<asrwt>0</asrwt>
<pdfrwt beam="1">  1        1 0.16698586E+00 0.30000000E+03</pdfrwt>
<pdfrwt beam="2">0</pdfrwt>
<totfact> 0.14781228E+01</totfact>
</mgrwt>
</event>
<event>
 6    1  0.1875959E-004  0.3000000E+03  0.7818608E-02  0.1093470E+00
          1   -1    0    0  502    0  0.00000000000E+00  0.00000000000E+00  0.31575126357E+02  0.31575126357E+02  0.00000000000E+00 0.  1.
         13   -1    0    0    0    0 -0.00000000000E+00 -0.00000000000E+00 -0.10000000000E+04  0.10000000000E+04  0.00000000000E+00 0.  1.
    9000005    2    1    2  501    0 -0.22987287509E+01 -0.11933428186E+02 -0.96746300763E+03  0.10193843082E+04  0.32095483441E+03 0.  0.
         13    1    3    3    0    0 -0.37852132913E+02  0.14124141189E+03 -0.30122466713E+03  0.33484058966E+03  0.00000000000E+00 0.  1.
          1    1    3    3  501    0  0.35553404163E+02 -0.15317484008E+03 -0.66623834050E+03  0.68454371849E+03  0.00000000000E+00 0.  1.
         21    1    1    2  502  501  0.22987287509E+01  0.11933428186E+02 -0.96186601662E+00  0.12190818200E+02  0.00000000000E+00 0. -1.
<mgrwt>
<rscale>  1 0.30000000E+03</rscale>
<asrwt>0</asrwt>
<pdfrwt beam="1">  1        1 0.11481888E+00 0.30000000E+03</pdfrwt>
<pdfrwt beam="2">0</pdfrwt>
<totfact> 0.27833338E+01</totfact>
</mgrwt>
</event>
<event>
 6    1  0.1875959E-004  0.3000000E+03  0.7818608E-02  0.1093470E+00
          1   -1    0    0  502    0  0.00000000000E+00  0.00000000000E+00  0.58490470803E+02  0.58490470803E+02  0.00000000000E+00 0.  1.
         13   -1    0    0    0    0 -0.00000000000E+00 -0.00000000000E+00 -0.10000000000E+04  0.10000000000E+04  0.00000000000E+00 0.  1.
    9000005    2    1    2  501    0  0.42515649786E+01  0.10286550952E+02 -0.97301200286E+03  0.10250794729E+04  0.32235334504E+03 0.  0.
         13    1    3    3    0    0  0.12767300068E+03  0.80361121146E+02 -0.28378362940E+03  0.32138987727E+03  0.00000000000E+00 0.  1.
          1    1    3    3  501    0 -0.12342143570E+03 -0.70074570195E+02 -0.68922837346E+03  0.70368959561E+03  0.00000000000E+00 0.  1.
         21    1    1    2  502  501 -0.42515649786E+01 -0.10286550952E+02  0.31502473667E+02  0.33410997926E+02  0.00000000000E+00 0.  1.
<mgrwt>
<rscale>  1 0.30000000E+03</rscale>
<asrwt>0</asrwt>
<pdfrwt beam="1">  1        1 0.21269307E+00 0.30000000E+03</pdfrwt>
<pdfrwt beam="2">0</pdfrwt>
<totfact> 0.89209907E+00</totfact>
</mgrwt>
</event>
<event>
 6    1  0.1875959E-004  0.3000000E+03  0.7818608E-02  0.1093470E+00
          1   -1    0    0  502    0  0.00000000000E+00  0.00000000000E+00  0.29622963747E+02  0.29622963747E+02  0.00000000000E+00 0.  1.
         13   -1    0    0    0    0 -0.00000000000E+00 -0.00000000000E+00 -0.10000000000E+04  0.10000000000E+04  0.00000000000E+00 0.  1.
    9000005    2    1    2  501    0 -0.33393909217E+01  0.87585210942E+01 -0.94935375465E+03  0.10066046755E+04  0.33450345004E+03 0.  0.
         13    1    3    3    0    0 -0.54873990192E+02  0.39198806730E+02 -0.13419916810E+02  0.68758966076E+02  0.00000000000E+00 0.  1.
          1    1    3    3  501    0  0.51534599270E+02 -0.30440285636E+02 -0.93593383784E+03  0.93784570944E+03  0.00000000000E+00 0.  1.
         21    1    1    2  502  501  0.33393909217E+01 -0.87585210942E+01 -0.21023281604E+02  0.23018288227E+02  0.00000000000E+00 0.  1.
<mgrwt>
<rscale>  1 0.30000000E+03</rscale>
<asrwt>0</asrwt>
<pdfrwt beam="1">  1        1 0.10772010E+00 0.30000000E+03</pdfrwt>
<pdfrwt beam="2">0</pdfrwt>
<totfact> 0.30660372E+01</totfact>
</mgrwt>
</event>
<event>
 6    1  0.1875959E-004  0.3000000E+03  0.7818608E-02  0.1093470E+00
          1   -1    0    0  502    0  0.00000000000E+00  0.00000000000E+00  0.48150210831E+02  0.48150210831E+02  0.00000000000E+00 0.  1.
         13   -1    0    0    0    0 -0.00000000000E+00 -0.00000000000E+00 -0.10000000000E+04  0.10000000000E+04  0.00000000000E+00 0.  1.
    9000005    2    1    2  501    0  0.23968361996E+01 -0.19876604418E+02 -0.96506500439E+03  0.10241613355E+04  0.34227935110E+03 0.  0.
         13    1    3    3    0    0  0.59933932646E+02 -0.14407300044E+03 -0.77130496595E+03  0.78693103652E+03  0.00000000000E+00 0.  1.
          3    1    3    3  501    0 -0.57537096447E+02  0.12419639603E+03 -0.19376003844E+03  0.23723029897E+03  0.00000000000E+00 0.  1.
         21    1    1    2  502  501 -0.23968361996E+01  0.19876604418E+02  0.13215215217E+02  0.23988875342E+02  0.00000000000E+00 0. -1.
<mgrwt>
<rscale>  1 0.30000000E+03</rscale>
<asrwt>0</asrwt>
<pdfrwt beam="1">  1        1 0.17509204E+00 0.30000000E+03</pdfrwt>
<pdfrwt beam="2">0</pdfrwt>
<totfact> 0.13493942E+01</totfact>
</mgrwt>
</event>
<event>
 6    1  0.1875959E-004  0.3000000E+03  0.7818608E-02  0.1093470E+00
          1   -1    0    0  502    0  0.00000000000E+00  0.00000000000E+00  0.51682592328E+02  0.51682592328E+02  0.00000000000E+00 0.  1.
         13   -1    0    0    0    0 -0.00000000000E+00 -0.00000000000E+00 -0.10000000000E+04  0.10000000000E+04  0.00000000000E+00 0.  1.
    9000005    2    1    2  501    0  0.15310454861E+02 -0.50229312652E+02 -0.94131151217E+03  0.99870640476E+03  0.32952955266E+03 0.  0.
         13    1    3    3    0    0 -0.80805491549E+02  0.52794194777E+02 -0.77389201726E+03  0.77988820278E+03  0.00000000000E+00 0.  1.
          1    1    3    3  501    0  0.96115946410E+02 -0.10302350743E+03 -0.16741949492E+03  0.21881820198E+03  0.00000000000E+00 0.  1.
         21    1    1    2  502  501 -0.15310454861E+02  0.50229312652E+02 -0.70058954967E+01  0.52976187569E+02  0.00000000000E+00 0.  1.
<mgrwt>
<rscale>  1 0.30000000E+03</rscale>
<asrwt>0</asrwt>
<pdfrwt beam="1">  1        1 0.18793710E+00 0.30000000E+03</pdfrwt>
<pdfrwt beam="2">0</pdfrwt>
<totfact> 0.11697806E+01</totfact>
</mgrwt>
</event>
<event>
 6    1  0.1875959E-004  0.3000000E+03  0.7818608E-02  0.1093470E+00
          1   -1    0    0  502    0  0.00000000000E+00  0.00000000000E+00  0.32518485370E+02  0.32518485370E+02  0.00000000000E+00 0.  1.
         13   -1    0    0    0    0 -0.00000000000E+00 -0.00000000000E+00 -0.10000000000E+04  0.10000000000E+04  0.00000000000E+00 0.  1.
    9000005    2    1    2  501    0  0.52513587706E+01 -0.95987417774E+01 -0.96804513924E+03  0.10215626520E+04  0.32612750221E+03 0.  0.
         13    1    3    3    0    0 -0.46667190496E+02  0.14591029134E+03 -0.58870764178E+03  0.60831268873E+03  0.00000000000E+00 0.  1.
          1    1    3    3  501    0  0.51918549267E+02 -0.15550903312E+03 -0.37933749746E+03  0.41324996324E+03  0.00000000000E+00 0.  1.
         21    1    1    2  502  501 -0.52513587706E+01  0.95987417774E+01  0.56362460804E+00  0.10955833393E+02  0.00000000000E+00 0.  1.
<mgrwt>
<rscale>  1 0.30000000E+03</rscale>
<asrwt>0</asrwt>
<pdfrwt beam="1">  1        1 0.11824929E+00 0.30000000E+03</pdfrwt>
<pdfrwt beam="2">0</pdfrwt>
<totfact> 0.26597764E+01</totfact>
</mgrwt>
</event>
<event>
 6    1  0.1875959E-004  0.3000000E+03  0.7818608E-02  0.1093470E+00
          1   -1    0    0  502    0  0.00000000000E+00  0.00000000000E+00  0.25424858246E+02  0.25424858246E+02  0.00000000000E+00 0.  1.
         13   -1    0    0    0    0 -0.00000000000E+00 -0.00000000000E+00 -0.10000000000E+04  0.10000000000E+04  0.00000000000E+00 0.  1.
    9000005    2    1    2  501    0  0.81029016110E+01 -0.29304116885E+02 -0.95577128654E+03  0.98967610650E+03  0.25502089190E+03 0.  0.
         13    1    3    3    0    0 -0.12124404540E+03 -0.19801759772E+02 -0.55530153390E+03  0.56872842534E+03  0.00000000000E+00 0.  1.
          3    1    3    3  501    0  0.12934694701E+03 -0.95023571128E+01 -0.40046975264E+03  0.42094768115E+03  0.00000000000E+00 0.  1.
         21    1    1    2  502  501 -0.81029016110E+01  0.29304116885E+02 -0.18803855211E+02  0.35748751751E+02  0.00000000000E+00 0.  1.
<mgrwt>
<rscale>  1 0.30000000E+03</rscale>
<asrwt>0</asrwt>
<pdfrwt beam="1">  1        1 0.92454225E-01 0.30000000E+03</pdfrwt>
<pdfrwt beam="2">0</pdfrwt>
<totfact> 0.38335674E+01</totfact>
</mgrwt>
</event>
<event>
 6    1  0.1875959E-004  0.3000000E+03  0.7818608E-02  0.1093470E+00
          1   -1    0    0  502    0  0.00000000000E+00  0.00000000000E+00  0.37304953871E+02  0.37304953871E+02  0.00000000000E+00 0.  1.
         13   -1    0    0    0    0 -0.00000000000E+00 -0.00000000000E+00 -0.10000000000E+04  0.10000000000E+04  0.00000000000E+00 0.  1.
    9000005    2    1    2  501    0  0.68269407742E+00  0.47638606567E+02 -0.92403525588E+03  0.97594957685E+03  0.31042957260E+03 0.  0.
         13    1    3    3    0    0  0.50148070388E+02  0.17036105678E+03 -0.44940778172E+03  0.48322362618E+03  0.00000000000E+00 0.  1.
          1    1    3    3  501    0 -0.49465376311E+02 -0.12272245021E+03 -0.47462747416E+03  0.49272595067E+03  0.00000000000E+00 0.  1.
         21    1    1    2  502  501 -0.68269407742E+00 -0.47638606567E+02 -0.38659790252E+02  0.61355377019E+02  0.00000000000E+00 0. -1.
<mgrwt>
<rscale>  1 0.30000000E+03</rscale>
<asrwt>0</asrwt>
<pdfrwt beam="1">  1        1 0.13565466E+00 0.30000000E+03</pdfrwt>
<pdfrwt beam="2">0</pdfrwt>
<totfact> 0.21330375E+01</totfact>
</mgrwt>
</event>
<event>
 6    1  0.1875959E-004  0.3000000E+03  0.7818608E-02  0.1093470E+00
          1   -1    0    0  502    0  0.00000000000E+00  0.00000000000E+00  0.48347785964E+02  0.48347785964E+02  0.00000000000E+00 0.  1.
         13   -1    0    0    0    0 -0.00000000000E+00 -0.00000000000E+00 -0.10000000000E+04  0.10000000000E+04  0.00000000000E+00 0.  1.
    9000005    2    1    2  501    0 -0.85534504251E+01 -0.19327707438E+02 -0.96355416764E+03  0.10240912757E+04  0.34623631417E+03 0.  0.
         13    1    3    3    0    0 -0.78911185725E+02 -0.58239014822E+02 -0.93290590112E+03  0.93804700224E+03  0.00000000000E+00 0.  1.
          3    1    3    3  501    0  0.70357735300E+02  0.38911307384E+02 -0.30648266529E+02  0.86044273488E+02  0.00000000000E+00 0.  1.
         21    1    1    2  502  501  0.85534504251E+01  0.19327707438E+02  0.11901953609E+02  0.24256510233E+02  0.00000000000E+00 0.  1.
<mgrwt>
<rscale>  1 0.30000000E+03</rscale>
<asrwt>0</asrwt>
<pdfrwt beam="1">  1        1 0.17581050E+00 0.30000000E+03</pdfrwt>
<pdfrwt beam="2">0</pdfrwt>
<totfact> 0.13385929E+01</totfact>
</mgrwt>
</event>
<event>
 6    1  0.1875959E-004  0.3000000E+03  0.7818608E-02  0.1093470E+00
          1   -1    0    0  502    0  0.00000000000E+00  0.00000000000E+00  0.51778678951E+02  0.51778678951E+02  0.00000000000E+00 0.  1.
         13   -1    0    0    0    0 -0.00000000000E+00 -0.00000000000E+00 -0.10000000000E+04  0.10000000000E+04  0.00000000000E+00 0.  1.
    9000005    2    1    2  501    0 -0.12529150173E+02 -0.23195388591E+02 -0.95463105044E+03  0.10246476951E+04  0.37133199551E+03 0.  0.
         13    1    3    3    0    0  0.52152934982E+02 -0.15426852205E+03 -0.78048024378E+03  0.79728797586E+03  0.00000000000E+00 0.  1.
          1    1    3    3  501    0 -0.64682085155E+02  0.13107313346E+03 -0.17415080666E+03  0.22735971920E+03  0.00000000000E+00 0.  1.
         21    1    1    2  502  501  0.12529150173E+02  0.23195388591E+02  0.64097293873E+01  0.27130983888E+02  0.00000000000E+00 0. -1.
<mgrwt>
<rscale>  1 0.30000000E+03</rscale>
<asrwt>0</asrwt>
<pdfrwt beam="1">  1        1 0.18828650E+00 0.30000000E+03</pdfrwt>
<pdfrwt beam="2">0</pdfrwt>
<totfact> 0.11652676E+01</totfact>
</mgrwt>
</event>
<event>
 6    1  0.1875959E-004  0.3000000E+03  0.7818608E-02  0.1093470E+00
          1   -1    0    0  502    0  0.00000000000E+00  0.00000000000E+00  0.27766128577E+02  0.27766128577E+02  0.00000000000E+00 0.  1.
         13   -1    0    0    0    0 -0.00000000000E+00 -0.00000000000E+00 -0.10000000000E+04  0.10000000000E+04  0.00000000000E+00 0.  1.
    9000005    2    1    2  501    0  0.15644067594E+02  0.73399129353E+01 -0.95522571690E+03  0.10035197166E+04  0.30707823145E+03 0.  0.
         13    1    3    3    0    0 -0.79789255090E+02  0.30976392560E+01 -0.87538854980E+03  0.87902277201E+03  0.00000000000E+00 0.  1.
          1    1    3    3  501    0  0.95433322684E+02  0.42422736794E+01 -0.79837167101E+02  0.12449694460E+03  0.00000000000E+00 0.  1.
         21    1    1    2  502  501 -0.15644067594E+02 -0.73399129353E+01 -0.17008154523E+02  0.24246411962E+02  0.00000000000E+00 0. -1.
<mgrwt>
<rscale>  1 0.30000000E+03</rscale>
<asrwt>0</asrwt>
<pdfrwt beam="1">  1        1 0.10096795E+00 0.30000000E+03</pdfrwt>
<pdfrwt beam="2">0</pdfrwt>
<totfact> 0.33747550E+01</totfact>
</mgrwt>
</event>
<event>
 6    1  0.1875959E-004  0.3000000E+03  0.7818608E-02  0.1093470E+00
          1   -1    0    0  502    0  0.00000000000E+00  0.00000000000E+00  0.32996947911E+02  0.32996947911E+02  0.00000000000E+00 0.  1.
         13   -1    0    0    0    0 -0.00000000000E+00 -0.00000000000E+00 -0.10000000000E+04  0.10000000000E+04  0.00000000000E+00 0.  1.
    9000005    2    1    2  501    0 -0.96214857622E+00 -0.10765809451E+02 -0.96057132368E+03  0.10204193681E+04  0.34415344046E+03 0.  0.
         13    1    3    3    0    0  0.14461583237E+03 -0.58324198961E+02 -0.25893145911E+03  0.30225974206E+03  0.00000000000E+00 0.  1.
          3    1    3    3  501    0 -0.14557798094E+03  0.47558389510E+02 -0.70163986457E+03  0.71815962606E+03  0.00000000000E+00 0.  1.
         21    1    1    2  502  501  0.96214857622E+00  0.10765809451E+02 -0.64317284098E+01  0.12577579789E+02  0.00000000000E+00 0. -1.
<mgrwt>
<rscale>  1 0.30000000E+03</rscale>
<asrwt>0</asrwt>
<pdfrwt beam="1">  1        1 0.11998915E+00 0.30000000E+03</pdfrwt>
<pdfrwt beam="2">0</pdfrwt>
<totfact> 0.25999692E+01</totfact>
</mgrwt>
</event>
<event>
 6    1  0.1875959E-004  0.3000000E+03  0.7818608E-02  0.1093470E+00
          3   -1    0    0  502    0  0.00000000000E+00  0.00000000000E+00  0.26720383682E+02  0.26720383682E+02  0.00000000000E+00 0.  1.
         13   -1    0    0    0    0 -0.00000000000E+00 -0.00000000000E+00 -0.10000000000E+04  0.10000000000E+04  0.00000000000E+00 0.  1.
    9000005    2    1    2  501    0 -0.90646996982E+01  0.29590052019E+01 -0.96118182504E+03  0.10113164541E+04  0.31432394926E+03 0.  0.
         13    1    3    3    0    0  0.25801513101E+02 -0.24375503752E+01  0.17965043735E+02  0.31534148578E+02  0.00000000000E+00 0.  1.
          1    1    3    3  501    0 -0.34866212800E+02  0.53965555771E+01 -0.97914686877E+03  0.97978230553E+03  0.00000000000E+00 0.  1.
         21    1    1    2  502  501  0.90646996982E+01 -0.29590052019E+01 -0.12097791281E+02  0.15403929573E+02  0.00000000000E+00 0.  1.
<mgrwt>
<rscale>  1 0.30000000E+03</rscale>
<asrwt>0</asrwt>
<pdfrwt beam="1">  1        3 0.97165236E-01 0.30000000E+03</pdfrwt>
<pdfrwt beam="2">0</pdfrwt>
<totfact> 0.42198267E+00</totfact>
</mgrwt>
</event>
<event>
 6    1  0.1875959E-004  0.3000000E+03  0.7818608E-02  0.1093470E+00
          1   -1    0    0  502    0  0.00000000000E+00  0.00000000000E+00  0.29351274524E+02  0.29351274524E+02  0.00000000000E+00 0.  1.
         13   -1    0    0    0    0 -0.00000000000E+00 -0.00000000000E+00 -0.10000000000E+04  0.10000000000E+04  0.00000000000E+00 0.  1.
    9000005    2    1    2  501    0  0.74945596163E+01 -0.23371213446E+02 -0.90963910573E+03  0.96358992004E+03  0.31695401763E+03 0.  0.
         13    1    3    3    0    0  0.14935177795E+03 -0.30780634964E+02 -0.28747509377E+03  0.32541562748E+03  0.00000000000E+00 0.  1.
          3    1    3    3  501    0 -0.14185721833E+03  0.74094215183E+01 -0.62216401195E+03  0.63817429256E+03  0.00000000000E+00 0.  1.
         21    1    1    2  502  501 -0.74945596163E+01  0.23371213446E+02 -0.61009619750E+02  0.65761354486E+02  0.00000000000E+00 0. -1.
<mgrwt>
<rscale>  1 0.30000000E+03</rscale>
<asrwt>0</asrwt>
<pdfrwt beam="1">  1        1 0.10673213E+00 0.30000000E+03</pdfrwt>
<pdfrwt beam="2">0</pdfrwt>
<totfact> 0.31085902E+01</totfact>
</mgrwt>
</event>
<event>
 6    1  0.1875959E-004  0.3000000E+03  0.7818608E-02  0.1093470E+00
          1   -1    0    0  502    0  0.00000000000E+00  0.00000000000E+00  0.52399474816E+02  0.52399474816E+02  0.00000000000E+00 0.  1.
         13   -1    0    0    0    0 -0.00000000000E+00 -0.00000000000E+00 -0.10000000000E+04  0.10000000000E+04  0.00000000000E+00 0.  1.
    9000005    2    1    2  501    0  0.40052463822E+01  0.31060982017E+02 -0.87461493839E+03  0.97297830332E+03  0.42515251578E+03 0.  0.
         13    1    3    3    0    0  0.31108331015E+02 -0.95057048223E+02 -0.83071671177E+03  0.83671609635E+03  0.00000000000E+00 0.  1.
          3    1    3    3  501    0 -0.27103084633E+02  0.12611803024E+03 -0.43898226622E+02  0.13626220697E+03  0.00000000000E+00 0.  1.
         21    1    1    2  502  501 -0.40052463822E+01 -0.31060982017E+02 -0.72985586791E+02  0.79421171495E+02  0.00000000000E+00 0.  1.
<mgrwt>
<rscale>  1 0.30000000E+03</rscale>
<asrwt>0</asrwt>
<pdfrwt beam="1">  1        1 0.19054395E+00 0.30000000E+03</pdfrwt>
<pdfrwt beam="2">0</pdfrwt>
<totfact> 0.11365482E+01</totfact>
</mgrwt>
</event>
<event>
 6    1  0.1875959E-004  0.3000000E+03  0.7818608E-02  0.1093470E+00
          1   -1    0    0  502    0  0.00000000000E+00  0.00000000000E+00  0.30436745195E+02  0.30436745195E+02  0.00000000000E+00 0.  1.
         13   -1    0    0    0    0 -0.00000000000E+00 -0.00000000000E+00 -0.10000000000E+04  0.10000000000E+04  0.00000000000E+00 0.  1.
    9000005    2    1    2  501    0  0.12109168717E+02  0.10131751957E+02 -0.95100550206E+03  0.10060713075E+04  0.32790048271E+03 0.  0.
         13    1    3    3    0    0 -0.13695475358E+03 -0.50932187276E+02 -0.27806483360E+03  0.31411899642E+03  0.00000000000E+00 0.  1.
          3    1    3    3  501    0  0.14906392230E+03  0.61063939234E+02 -0.67294066846E+03  0.69195231113E+03  0.00000000000E+00 0.  1.
         21    1    1    2  502  501 -0.12109168717E+02 -0.10131751957E+02 -0.18557752745E+02  0.24365437646E+02  0.00000000000E+00 0. -1.
<mgrwt>
<rscale>  1 0.30000000E+03</rscale>
<asrwt>0</asrwt>
<pdfrwt beam="1">  1        1 0.11067931E+00 0.30000000E+03</pdfrwt>
<pdfrwt beam="2">0</pdfrwt>
<totfact> 0.29434480E+01</totfact>
</mgrwt>
</event>
<event>
 6    1  0.1875959E-004  0.3000000E+03  0.7818608E-02  0.1093470E+00
          1   -1    0    0  502    0  0.00000000000E+00  0.00000000000E+00  0.34258492031E+02  0.34258492031E+02  0.00000000000E+00 0.  1.
         13   -1    0    0    0    0 -0.00000000000E+00 -0.00000000000E+00 -0.10000000000E+04  0.10000000000E+04  0.00000000000E+00 0.  1.
    9000005    2    1    2  501    0  0.12883929712E+02 -0.20740552191E+02 -0.92729254576E+03  0.98871193514E+03  0.34217489550E+03 0.  0.
         13    1    3    3    0    0 -0.14690608199E+03 -0.85476880087E+02 -0.49136432626E+03  0.51992941355E+03  0.00000000000E+00 0.  1.
          1    1    3    3  501    0  0.15979001170E+03  0.64736327896E+02 -0.43592821950E+03  0.46878252158E+03  0.00000000000E+00 0.  1.
         21    1    1    2  502  501 -0.12883929712E+02  0.20740552191E+02 -0.38448962207E+02  0.45546556893E+02  0.00000000000E+00 0.  1.
<mgrwt>
<rscale>  1 0.30000000E+03</rscale>
<asrwt>0</asrwt>
<pdfrwt beam="1">  1        1 0.12457660E+00 0.30000000E+03</pdfrwt>
<pdfrwt beam="2">0</pdfrwt>
<totfact> 0.24506122E+01</totfact>
</mgrwt>
</event>
<event>
 6    1  0.1875959E-004  0.3000000E+03  0.7818608E-02  0.1093470E+00
          1   -1    0    0  502    0  0.00000000000E+00  0.00000000000E+00  0.41049199347E+02  0.41049199347E+02  0.00000000000E+00 0.  1.
         13   -1    0    0    0    0 -0.00000000000E+00 -0.00000000000E+00 -0.10000000000E+04  0.10000000000E+04  0.00000000000E+00 0.  1.
    9000005    2    1    2  501    0  0.48886036043E+01  0.31334660427E+02 -0.95544327678E+03  0.10091421137E+04  0.32324942562E+03 0.  0.
         13    1    3    3    0    0 -0.50995751824E+02 -0.10618950456E+03 -0.72848818231E+03  0.73795108872E+03  0.00000000000E+00 0.  1.
          1    1    3    3  501    0  0.55884355429E+02  0.13752416498E+03 -0.22695509447E+03  0.27119102500E+03  0.00000000000E+00 0.  1.
         21    1    1    2  502  501 -0.48886036043E+01 -0.31334660427E+02 -0.35075238767E+01  0.31907085624E+02  0.00000000000E+00 0.  1.
<mgrwt>
<rscale>  1 0.30000000E+03</rscale>
<asrwt>0</asrwt>
<pdfrwt beam="1">  1        1 0.14927013E+00 0.30000000E+03</pdfrwt>
<pdfrwt beam="2">0</pdfrwt>
<totfact> 0.18119290E+01</totfact>
</mgrwt>
</event>
<event>
 6    1  0.1875959E-004  0.3000000E+03  0.7818608E-02  0.1093470E+00
          1   -1    0    0  502    0  0.00000000000E+00  0.00000000000E+00  0.65764298033E+02  0.65764298033E+02  0.00000000000E+00 0.  1.
         13   -1    0    0    0    0 -0.00000000000E+00 -0.00000000000E+00 -0.10000000000E+04  0.10000000000E+04  0.00000000000E+00 0.  1.
    9000005    2    1    2  501    0 -0.61074574035E+02 -0.39697356856E+01 -0.94791717806E+03  0.10030503029E+04  0.32220656623E+03 0.  0.
         13    1    3    3    0    0 -0.89364984236E+01  0.15042520887E+03 -0.60346038267E+03  0.62199038411E+03  0.00000000000E+00 0.  1.
          3    1    3    3  501    0 -0.52138075612E+02 -0.15439494456E+03 -0.34445679539E+03  0.38105991881E+03  0.00000000000E+00 0.  1.
         21    1    1    2  502  501  0.61074574035E+02  0.39697356856E+01  0.13681476096E+02  0.62713995114E+02  0.00000000000E+00 0.  1.
<mgrwt>
<rscale>  1 0.30000000E+03</rscale>
<asrwt>0</asrwt>
<pdfrwt beam="1">  1        1 0.23914341E+00 0.30000000E+03</pdfrwt>
<pdfrwt beam="2">0</pdfrwt>
<totfact> 0.67055700E+00</totfact>
</mgrwt>
</event>
<event>
 6    1  0.1875959E-004  0.3000000E+03  0.7818608E-02  0.1093470E+00
          1   -1    0    0  502    0  0.00000000000E+00  0.00000000000E+00  0.29878248831E+02  0.29878248831E+02  0.00000000000E+00 0.  1.
         13   -1    0    0    0    0 -0.00000000000E+00 -0.00000000000E+00 -0.10000000000E+04  0.10000000000E+04  0.00000000000E+00 0.  1.
    9000005    2    1    2  501    0 -0.56133319267E+01  0.10407274324E+02 -0.96269186526E+03  0.10159131474E+04  0.32429010887E+03 0.  0.
         13    1    3    3    0    0  0.15232299066E+03  0.39758204524E+02 -0.57735470860E+03  0.59843250902E+03  0.00000000000E+00 0.  1.
          1    1    3    3  501    0 -0.15793632259E+03 -0.29350930201E+02 -0.38533715666E+03  0.41748063835E+03  0.00000000000E+00 0.  1.
         21    1    1    2  502  501  0.56133319267E+01 -0.10407274324E+02 -0.74298859120E+01  0.13965101462E+02  0.00000000000E+00 0. -1.
<mgrwt>
<rscale>  1 0.30000000E+03</rscale>
<asrwt>0</asrwt>
<pdfrwt beam="1">  1        1 0.10864841E+00 0.30000000E+03</pdfrwt>
<pdfrwt beam="2">0</pdfrwt>
<totfact> 0.30268098E+01</totfact>
</mgrwt>
</event>
<event>
 6    1  0.1875959E-004  0.3000000E+03  0.7818608E-02  0.1093470E+00
          1   -1    0    0  502    0  0.00000000000E+00  0.00000000000E+00  0.30561959951E+02  0.30561959951E+02  0.00000000000E+00 0.  1.
         13   -1    0    0    0    0 -0.00000000000E+00 -0.00000000000E+00 -0.10000000000E+04  0.10000000000E+04  0.00000000000E+00 0.  1.
    9000005    2    1    2  501    0  0.20588698894E+02  0.88134620903E+01 -0.93462773215E+03  0.98916957935E+03  0.32314994563E+03 0.  0.
         13    1    3    3    0    0 -0.29361415731E+02 -0.10874189117E+02  0.17270998743E+02  0.35757909898E+02  0.00000000000E+00 0.  1.
          3    1    3    3  501    0  0.49950114625E+02  0.19687651207E+02 -0.95189873090E+03  0.95341166945E+03  0.00000000000E+00 0.  1.
         21    1    1    2  502  501 -0.20588698894E+02 -0.88134620903E+01 -0.34810307894E+02  0.41392380602E+02  0.00000000000E+00 0.  1.
<mgrwt>
<rscale>  1 0.30000000E+03</rscale>
<asrwt>0</asrwt>
<pdfrwt beam="1">  1        1 0.11113463E+00 0.30000000E+03</pdfrwt>
<pdfrwt beam="2">0</pdfrwt>
<totfact> 0.29252061E+01</totfact>
</mgrwt>
</event>
<event>
 6    1  0.1875959E-004  0.3000000E+03  0.7818608E-02  0.1093470E+00
          3   -1    0    0  502    0  0.00000000000E+00  0.00000000000E+00  0.29256069564E+02  0.29256069564E+02  0.00000000000E+00 0.  1.
         13   -1    0    0    0    0 -0.00000000000E+00 -0.00000000000E+00 -0.10000000000E+04  0.10000000000E+04  0.00000000000E+00 0.  1.
    9000005    2    1    2  501    0 -0.93876222420E+01  0.14741723403E+02 -0.90486324926E+03  0.96109662405E+03  0.32345598625E+03 0.  0.
         13    1    3    3    0    0  0.79152225409E+02 -0.13045370761E+03 -0.38554829324E+03  0.41464530751E+03  0.00000000000E+00 0.  1.
          3    1    3    3  501    0 -0.88539847651E+02  0.14519543101E+03 -0.51931495601E+03  0.54645131654E+03  0.00000000000E+00 0.  1.
         21    1    1    2  502  501  0.93876222420E+01 -0.14741723403E+02 -0.65880681179E+02  0.68159445514E+02  0.00000000000E+00 0. -1.
<mgrwt>
<rscale>  1 0.30000000E+03</rscale>
<asrwt>0</asrwt>
<pdfrwt beam="1">  1        3 0.10638593E+00 0.30000000E+03</pdfrwt>
<pdfrwt beam="2">0</pdfrwt>
<totfact> 0.33132313E+00</totfact>
</mgrwt>
</event>
<event>
 6    1  0.1875959E-004  0.3000000E+03  0.7818608E-02  0.1093470E+00
          1   -1    0    0  502    0  0.00000000000E+00  0.00000000000E+00  0.45005527785E+02  0.45005527785E+02  0.00000000000E+00 0.  1.
         13   -1    0    0    0    0 -0.00000000000E+00 -0.00000000000E+00 -0.10000000000E+04  0.10000000000E+04  0.00000000000E+00 0.  1.
    9000005    2    1    2  501    0 -0.72008152609E+02 -0.99152218300E+01 -0.89530857759E+03  0.95095292716E+03  0.31217068234E+03 0.  0.
         13    1    3    3    0    0  0.90816702138E+02 -0.25478043943E+02 -0.94160408474E+02  0.13327785500E+03  0.00000000000E+00 0.  1.
          1    1    3    3  501    0 -0.16282485475E+03  0.15562822113E+02 -0.80114816911E+03  0.81767507216E+03  0.00000000000E+00 0.  1.
         21    1    1    2  502  501  0.72008152609E+02  0.99152218300E+01 -0.59685894627E+02  0.94052600621E+02  0.00000000000E+00 0.  1.
<mgrwt>
<rscale>  1 0.30000000E+03</rscale>
<asrwt>0</asrwt>
<pdfrwt beam="1">  1        1 0.16365681E+00 0.30000000E+03</pdfrwt>
<pdfrwt beam="2">0</pdfrwt>
<totfact> 0.15349579E+01</totfact>
</mgrwt>
</event>
<event>
 6    1  0.1875959E-004  0.3000000E+03  0.7818608E-02  0.1093470E+00
          1   -1    0    0  502    0  0.00000000000E+00  0.00000000000E+00  0.45565182904E+02  0.45565182904E+02  0.00000000000E+00 0.  1.
         13   -1    0    0    0    0 -0.00000000000E+00 -0.00000000000E+00 -0.10000000000E+04  0.10000000000E+04  0.00000000000E+00 0.  1.
    9000005    2    1    2  501    0  0.60237188676E+02  0.44810781370E+02 -0.86835998000E+03  0.93134871032E+03  0.32821462542E+03 0.  0.
         13    1    3    3    0    0  0.37831323518E+01  0.11708712404E+03 -0.90323888664E+02  0.14792603412E+03  0.00000000000E+00 0.  1.
          3    1    3    3  501    0  0.56454056324E+02 -0.72276342666E+02 -0.77803609133E+03  0.78342267621E+03  0.00000000000E+00 0.  1.
         21    1    1    2  502  501 -0.60237188676E+02 -0.44810781370E+02 -0.86074837100E+02  0.11421647258E+03  0.00000000000E+00 0. -1.
<mgrwt>
<rscale>  1 0.30000000E+03</rscale>
<asrwt>0</asrwt>
<pdfrwt beam="1">  1        1 0.16569192E+00 0.30000000E+03</pdfrwt>
<pdfrwt beam="2">0</pdfrwt>
<totfact> 0.14999230E+01</totfact>
</mgrwt>
</event>
<event>
 6    1  0.1875959E-004  0.3000000E+03  0.7818608E-02  0.1093470E+00
          1   -1    0    0  502    0  0.00000000000E+00  0.00000000000E+00  0.64049220266E+02  0.64049220266E+02  0.00000000000E+00 0.  1.
         13   -1    0    0    0    0 -0.00000000000E+00 -0.00000000000E+00 -0.10000000000E+04  0.10000000000E+04  0.00000000000E+00 0.  1.
    9000005    2    1    2  501    0  0.12420140073E+03 -0.86541726586E+01 -0.82756370076E+03  0.89897759479E+03  0.32832629269E+03 0.  0.
         13    1    3    3    0    0  0.17616577303E+03  0.51946396093E+02 -0.22178120996E+03  0.28795783154E+03  0.00000000000E+00 0.  1.
          3    1    3    3  501    0 -0.51964372298E+02 -0.60600568751E+02 -0.60578249079E+03  0.61101976324E+03  0.00000000000E+00 0.  1.
         21    1    1    2  502  501 -0.12420140073E+03  0.86541726586E+01 -0.10838707898E+03  0.16507162548E+03  0.00000000000E+00 0. -1.
<mgrwt>
<rscale>  1 0.30000000E+03</rscale>
<asrwt>0</asrwt>
<pdfrwt beam="1">  1        1 0.23290675E+00 0.30000000E+03</pdfrwt>
<pdfrwt beam="2">0</pdfrwt>
<totfact> 0.71721885E+00</totfact>
</mgrwt>
</event>
<event>
 6    1  0.1875959E-004  0.3000000E+03  0.7818608E-02  0.1093470E+00
          1   -1    0    0  502    0  0.00000000000E+00  0.00000000000E+00  0.31381465809E+02  0.31381465809E+02  0.00000000000E+00 0.  1.
         13   -1    0    0    0    0 -0.00000000000E+00 -0.00000000000E+00 -0.10000000000E+04  0.10000000000E+04  0.00000000000E+00 0.  1.
    9000005    2    1    2  501    0  0.70471964742E+01  0.80765637198E+01 -0.96670111120E+03  0.10204924635E+04  0.32677046358E+03 0.  0.
         13    1    3    3    0    0 -0.45566402110E+02  0.10319378124E+03 -0.86273360517E+03  0.87007731092E+03  0.00000000000E+00 0.  1.
          3    1    3    3  501    0  0.52613598584E+02 -0.95117217521E+02 -0.10396750603E+03  0.15041515261E+03  0.00000000000E+00 0.  1.
         21    1    1    2  502  501 -0.70471964742E+01 -0.80765637198E+01 -0.19174229898E+01  0.10889002277E+02  0.00000000000E+00 0.  1.
<mgrwt>
<rscale>  1 0.30000000E+03</rscale>
<asrwt>0</asrwt>
<pdfrwt beam="1">  1        1 0.11411466E+00 0.30000000E+03</pdfrwt>
<pdfrwt beam="2">0</pdfrwt>
<totfact> 0.28096847E+01</totfact>
</mgrwt>
</event>
<event>
 6    1  0.1875959E-004  0.3000000E+03  0.7818608E-02  0.1093470E+00
          1   -1    0    0  502    0  0.00000000000E+00  0.00000000000E+00  0.33567862738E+02  0.33567862738E+02  0.00000000000E+00 0.  1.
         13   -1    0    0    0    0 -0.00000000000E+00 -0.00000000000E+00 -0.10000000000E+04  0.10000000000E+04  0.00000000000E+00 0.  1.
    9000005    2    1    2  501    0 -0.33507358154E+02 -0.86016134719E+01 -0.90337038955E+03  0.96164071328E+03  0.32783848145E+03 0.  0.
         13    1    3    3    0    0 -0.41729428915E+02  0.15771144172E+03 -0.44477469504E+03  0.47374969491E+03  0.00000000000E+00 0.  1.
          3    1    3    3  501    0  0.82220707615E+01 -0.16631305519E+03 -0.45859569451E+03  0.48789101836E+03  0.00000000000E+00 0.  1.
         21    1    1    2  502  501  0.33507358154E+02  0.86016134719E+01 -0.63061747713E+02  0.71927149460E+02  0.00000000000E+00 0.  1.
<mgrwt>
<rscale>  1 0.30000000E+03</rscale>
<asrwt>0</asrwt>
<pdfrwt beam="1">  1        1 0.12206521E+00 0.30000000E+03</pdfrwt>
<pdfrwt beam="2">0</pdfrwt>
<totfact> 0.25309383E+01</totfact>
</mgrwt>
</event>
<event>
 6    1  0.1875959E-004  0.3000000E+03  0.7818608E-02  0.1093470E+00
          1   -1    0    0  502    0  0.00000000000E+00  0.00000000000E+00  0.41241840742E+02  0.41241840742E+02  0.00000000000E+00 0.  1.
         13   -1    0    0    0    0 -0.00000000000E+00 -0.00000000000E+00 -0.10000000000E+04  0.10000000000E+04  0.00000000000E+00 0.  1.
    9000005    2    1    2  501    0  0.38780602653E+01  0.95973343663E+01 -0.97355195753E+03  0.10231862420E+04  0.31464189750E+03 0.  0.
         13    1    3    3    0    0  0.14940474745E+03  0.35605516063E+02 -0.34770143171E+03  0.38011290026E+03  0.00000000000E+00 0.  1.
          3    1    3    3  501    0 -0.14552668719E+03 -0.26008181697E+02 -0.62585052582E+03  0.64307334175E+03  0.00000000000E+00 0.  1.
         21    1    1    2  502  501 -0.38780602653E+01 -0.95973343663E+01  0.14793798268E+02  0.18055598732E+02  0.00000000000E+00 0.  1.
<mgrwt>
<rscale>  1 0.30000000E+03</rscale>
<asrwt>0</asrwt>
<pdfrwt beam="1">  1        1 0.14997065E+00 0.30000000E+03</pdfrwt>
<pdfrwt beam="2">0</pdfrwt>
<totfact> 0.17971130E+01</totfact>
</mgrwt>
</event>
<event>
 6    1  0.1875959E-004  0.3000000E+03  0.7818608E-02  0.1093470E+00
          1   -1    0    0  502    0  0.00000000000E+00  0.00000000000E+00  0.32008644744E+02  0.32008644744E+02  0.00000000000E+00 0.  1.
         13   -1    0    0    0    0 -0.00000000000E+00 -0.00000000000E+00 -0.10000000000E+04  0.10000000000E+04  0.00000000000E+00 0.  1.
    9000005    2    1    2  501    0  0.30670983356E+02 -0.12613398482E+02 -0.86215236541E+03  0.92109562110E+03  0.32250679837E+03 0.  0.
         13    1    3    3    0    0 -0.92958727364E+02 -0.69268296006E+02 -0.69968397276E+03  0.70922287298E+03  0.00000000000E+00 0.  1.
          1    1    3    3  501    0  0.12362971072E+03  0.56654897524E+02 -0.16246839265E+03  0.21187274812E+03  0.00000000000E+00 0.  1.
         21    1    1    2  502  501 -0.30670983356E+02  0.12613398482E+02 -0.10583898985E+03  0.11091302364E+03  0.00000000000E+00 0. -1.
<mgrwt>
<rscale>  1 0.30000000E+03</rscale>
<asrwt>0</asrwt>
<pdfrwt beam="1">  1        1 0.11639532E+00 0.30000000E+03</pdfrwt>
<pdfrwt beam="2">0</pdfrwt>
<totfact> 0.27255880E+01</totfact>
</mgrwt>
</event>
<event>
 6    1  0.1875959E-004  0.3000000E+03  0.7818608E-02  0.1093470E+00
          1   -1    0    0  502    0  0.00000000000E+00  0.00000000000E+00  0.29404149145E+02  0.29404149145E+02  0.00000000000E+00 0.  1.
         13   -1    0    0    0    0 -0.00000000000E+00 -0.00000000000E+00 -0.10000000000E+04  0.10000000000E+04  0.00000000000E+00 0.  1.
    9000005    2    1    2  501    0 -0.10098069002E+02  0.53088391821E+00 -0.93669519862E+03  0.99402750350E+03  0.33255154451E+03 0.  0.
         13    1    3    3    0    0  0.97044166665E+02  0.67926838191E+02 -0.79603511977E+03  0.80480030910E+03  0.00000000000E+00 0.  1.
          3    1    3    3  501    0 -0.10714223567E+03 -0.67395954272E+02 -0.14066007886E+03  0.18922719440E+03  0.00000000000E+00 0.  1.
         21    1    1    2  502  501  0.10098069002E+02 -0.53088391821E+00 -0.33900652230E+02  0.35376645643E+02  0.00000000000E+00 0.  1.
<mgrwt>
<rscale>  1 0.30000000E+03</rscale>
<asrwt>0</asrwt>
<pdfrwt beam="1">  1        1 0.10692440E+00 0.30000000E+03</pdfrwt>
<pdfrwt beam="2">0</pdfrwt>
<totfact> 0.31002426E+01</totfact>
</mgrwt>
</event>
<event>
 6    1  0.1875959E-004  0.3000000E+03  0.7818608E-02  0.1093470E+00
          1   -1    0    0  502    0  0.00000000000E+00  0.00000000000E+00  0.60386400617E+02  0.60386400617E+02  0.00000000000E+00 0.  1.
         13   -1    0    0    0    0 -0.00000000000E+00 -0.00000000000E+00 -0.10000000000E+04  0.10000000000E+04  0.00000000000E+00 0.  1.
    9000005    2    1    2  501    0  0.14721987041E+02 -0.10610957952E+02 -0.96970659659E+03  0.10252450032E+04  0.33236591853E+03 0.  0.
         13    1    3    3    0    0  0.14172265317E+03  0.72658527628E+02 -0.31277473443E+03  0.35098804332E+03  0.00000000000E+00 0.  1.
          3    1    3    3  501    0 -0.12700066613E+03 -0.83269485580E+02 -0.65693186216E+03  0.67425695988E+03  0.00000000000E+00 0.  1.
         21    1    1    2  502  501 -0.14721987041E+02  0.10610957952E+02  0.30092997207E+02  0.35141397411E+02  0.00000000000E+00 0. -1.
<mgrwt>
<rscale>  1 0.30000000E+03</rscale>
<asrwt>0</asrwt>
<pdfrwt beam="1">  1        1 0.21958737E+00 0.30000000E+03</pdfrwt>
<pdfrwt beam="2">0</pdfrwt>
<totfact> 0.82800749E+00</totfact>
</mgrwt>
</event>
<event>
 6    1  0.1875959E-004  0.3000000E+03  0.7818608E-02  0.1093470E+00
          1   -1    0    0  502    0  0.00000000000E+00  0.00000000000E+00  0.26804947567E+02  0.26804947567E+02  0.00000000000E+00 0.  1.
         13   -1    0    0    0    0 -0.00000000000E+00 -0.00000000000E+00 -0.10000000000E+04  0.10000000000E+04  0.00000000000E+00 0.  1.
    9000005    2    1    2  501    0 -0.32157214743E+01 -0.10111305621E+02 -0.94518905179E+03  0.99685640106E+03  0.31658768349E+03 0.  0.
         13    1    3    3    0    0 -0.11905043832E+03  0.80700566819E+02 -0.66482643211E+03  0.68020568447E+03  0.00000000000E+00 0.  1.
          3    1    3    3  501    0  0.11583471685E+03 -0.90811872440E+02 -0.28036261968E+03  0.31665071659E+03  0.00000000000E+00 0.  1.
         21    1    1    2  502  501  0.32157214743E+01  0.10111305621E+02 -0.28006000643E+02  0.29948546509E+02  0.00000000000E+00 0. -1.
<mgrwt>
<rscale>  1 0.30000000E+03</rscale>
<asrwt>0</asrwt>
<pdfrwt beam="1">  1        1 0.97472742E-01 0.30000000E+03</pdfrwt>
<pdfrwt beam="2">0</pdfrwt>
<totfact> 0.35526999E+01</totfact>
</mgrwt>
</event>
<event>
 6    1  0.1875959E-004  0.3000000E+03  0.7818608E-02  0.1093470E+00
          1   -1    0    0  502    0  0.00000000000E+00  0.00000000000E+00  0.31022885260E+02  0.31022885260E+02  0.00000000000E+00 0.  1.
         13   -1    0    0    0    0 -0.00000000000E+00 -0.00000000000E+00 -0.10000000000E+04  0.10000000000E+04  0.00000000000E+00 0.  1.
    9000005    2    1    2  501    0 -0.13556564009E+02 -0.10475811340E+02 -0.96142404756E+03  0.10122993206E+04  0.31641774942E+03 0.  0.
         13    1    3    3    0    0  0.10327710595E+03  0.10600051502E+03 -0.37609865990E+03  0.40416886542E+03  0.00000000000E+00 0.  1.
          3    1    3    3  501    0 -0.11683366996E+03 -0.11647632636E+03 -0.58532538766E+03  0.60813045514E+03  0.00000000000E+00 0.  1.
         21    1    1    2  502  501  0.13556564009E+02  0.10475811340E+02 -0.75530671830E+01  0.18723564694E+02  0.00000000000E+00 0.  1.
<mgrwt>
<rscale>  1 0.30000000E+03</rscale>
<asrwt>0</asrwt>
<pdfrwt beam="1">  1        1 0.11281073E+00 0.30000000E+03</pdfrwt>
<pdfrwt beam="2">0</pdfrwt>
<totfact> 0.28594171E+01</totfact>
</mgrwt>
</event>
<event>
 6    1  0.1875959E-004  0.3000000E+03  0.7818608E-02  0.1093470E+00
          3   -1    0    0  502    0  0.00000000000E+00  0.00000000000E+00  0.28217200840E+02  0.28217200840E+02  0.00000000000E+00 0.  1.
         13   -1    0    0    0    0 -0.00000000000E+00 -0.00000000000E+00 -0.10000000000E+04  0.10000000000E+04  0.00000000000E+00 0.  1.
    9000005    2    1    2  501    0 -0.26291524303E+02  0.94307082742E+01 -0.93745975653E+03  0.98396503972E+03  0.29761757637E+03 0.  0.
         13    1    3    3    0    0 -0.15721217798E+03 -0.33486255444E+02 -0.53040282395E+03  0.55422392033E+03  0.00000000000E+00 0.  1.
          1    1    3    3  501    0  0.13092065368E+03  0.42916963718E+02 -0.40705693258E+03  0.42974111939E+03  0.00000000000E+00 0.  1.
         21    1    1    2  502  501  0.26291524303E+02 -0.94307082742E+01 -0.34323042632E+02  0.44252161125E+02  0.00000000000E+00 0. -1.
<mgrwt>
<rscale>  1 0.30000000E+03</rscale>
<asrwt>0</asrwt>
<pdfrwt beam="1">  1        3 0.10260822E+00 0.30000000E+03</pdfrwt>
<pdfrwt beam="2">0</pdfrwt>
<totfact> 0.36580773E+00</totfact>
</mgrwt>
</event>
<event>
 6    1  0.1875959E-004  0.3000000E+03  0.7818608E-02  0.1093470E+00
          1   -1    0    0  502    0  0.00000000000E+00  0.00000000000E+00  0.34718860722E+02  0.34718860722E+02  0.00000000000E+00 0.  1.
         13   -1    0    0    0    0 -0.00000000000E+00 -0.00000000000E+00 -0.10000000000E+04  0.10000000000E+04  0.00000000000E+00 0.  1.
    9000005    2    1    2  501    0 -0.18760104852E+02  0.17546844133E+02 -0.95111204057E+03  0.10053829334E+04  0.32483980020E+03 0.  0.
         13    1    3    3    0    0  0.32330183553E+02  0.95691736872E+02 -0.88556652094E+03  0.89130814665E+03  0.00000000000E+00 0.  1.
          1    1    3    3  501    0 -0.51090288405E+02 -0.78144892739E+02 -0.65545519632E+02  0.11407478676E+03  0.00000000000E+00 0.  1.
         21    1    1    2  502  501  0.18760104852E+02 -0.17546844133E+02 -0.14169098705E+02  0.29335927311E+02  0.00000000000E+00 0.  1.
<mgrwt>
<rscale>  1 0.30000000E+03</rscale>
<asrwt>0</asrwt>
<pdfrwt beam="1">  1        1 0.12625067E+00 0.30000000E+03</pdfrwt>
<pdfrwt beam="2">0</pdfrwt>
<totfact> 0.23988755E+01</totfact>
</mgrwt>
</event>
<event>
 6    1  0.1875959E-004  0.3000000E+03  0.7818608E-02  0.1093470E+00
          1   -1    0    0  502    0  0.00000000000E+00  0.00000000000E+00  0.27012950045E+02  0.27012950045E+02  0.00000000000E+00 0.  1.
         13   -1    0    0    0    0 -0.00000000000E+00 -0.00000000000E+00 -0.10000000000E+04  0.10000000000E+04  0.00000000000E+00 0.  1.
    9000005    2    1    2  501    0  0.26409534139E+01  0.11680763369E+02 -0.95460289231E+03  0.10050723001E+04  0.31426140640E+03 0.  0.
         13    1    3    3    0    0 -0.85991873840E+02 -0.85968231344E+02 -0.76204488361E+03  0.77168487338E+03  0.00000000000E+00 0.  1.
          1    1    3    3  501    0  0.88632827254E+02  0.97648994713E+02 -0.19255800870E+03  0.23338742671E+03  0.00000000000E+00 0.  1.
         21    1    1    2  502  501 -0.26409534139E+01 -0.11680763369E+02 -0.18384157646E+02  0.21940649949E+02  0.00000000000E+00 0.  1.
<mgrwt>
<rscale>  1 0.30000000E+03</rscale>
<asrwt>0</asrwt>
<pdfrwt beam="1">  1        1 0.98229116E-01 0.30000000E+03</pdfrwt>
<pdfrwt beam="2">0</pdfrwt>
<totfact> 0.35130368E+01</totfact>
</mgrwt>
</event>
<event>
 6    1  0.1875959E-004  0.3000000E+03  0.7818608E-02  0.1093470E+00
          1   -1    0    0  502    0  0.00000000000E+00  0.00000000000E+00  0.46828975880E+02  0.46828975880E+02  0.00000000000E+00 0.  1.
         13   -1    0    0    0    0 -0.00000000000E+00 -0.00000000000E+00 -0.10000000000E+04  0.10000000000E+04  0.00000000000E+00 0.  1.
    9000005    2    1    2  501    0 -0.17340957118E+02 -0.33182274637E+02 -0.91976089821E+03  0.99664921245E+03  0.38203111218E+03 0.  0.
         13    1    3    3    0    0 -0.14047387610E+03 -0.15590927960E+03 -0.48898131795E+03  0.53211215231E+03  0.00000000000E+00 0.  1.
          3    1    3    3  501    0  0.12313291898E+03  0.12272700496E+03 -0.43077958026E+03  0.46453706015E+03  0.00000000000E+00 0.  1.
         21    1    1    2  502  501  0.17340957118E+02  0.33182274637E+02 -0.33410125913E+02  0.50179763425E+02  0.00000000000E+00 0. -1.
<mgrwt>
<rscale>  1 0.30000000E+03</rscale>
<asrwt>0</asrwt>
<pdfrwt beam="1">  1        1 0.17028754E+00 0.30000000E+03</pdfrwt>
<pdfrwt beam="2">0</pdfrwt>
<totfact> 0.14241044E+01</totfact>
</mgrwt>
</event>
<event>
 6    1  0.1875959E-004  0.3000000E+03  0.7818608E-02  0.1093470E+00
          1   -1    0    0  502    0  0.00000000000E+00  0.00000000000E+00  0.75764348664E+02  0.75764348664E+02  0.00000000000E+00 0.  1.
         13   -1    0    0    0    0 -0.00000000000E+00 -0.00000000000E+00 -0.10000000000E+04  0.10000000000E+04  0.00000000000E+00 0.  1.
    9000005    2    1    2  501    0 -0.43173690206E+02  0.10564118361E+03 -0.87863548818E+03  0.95286844930E+03  0.35061935683E+03 0.  0.
         13    1    3    3    0    0  0.90505353339E+02 -0.87308354618E+02 -0.40804862316E+03  0.42698670545E+03  0.00000000000E+00 0.  1.
          3    1    3    3  501    0 -0.13367904355E+03  0.19294953823E+03 -0.47058686502E+03  0.52588174385E+03  0.00000000000E+00 0.  1.
         21    1    1    2  502  501  0.43173690206E+02 -0.10564118361E+03 -0.45600163158E+02  0.12289589936E+03  0.00000000000E+00 0.  1.
<mgrwt>
<rscale>  1 0.30000000E+03</rscale>
<asrwt>0</asrwt>
<pdfrwt beam="1">  1        1 0.27550730E+00 0.30000000E+03</pdfrwt>
<pdfrwt beam="2">0</pdfrwt>
<totfact> 0.45315683E+00</totfact>
</mgrwt>
</event>
<event>
 6    1  0.1875959E-004  0.3000000E+03  0.7818608E-02  0.1093470E+00
          1   -1    0    0  502    0  0.00000000000E+00  0.00000000000E+00  0.42256949373E+02  0.42256949373E+02  0.00000000000E+00 0.  1.
         13   -1    0    0    0    0 -0.00000000000E+00 -0.00000000000E+00 -0.10000000000E+04  0.10000000000E+04  0.00000000000E+00 0.  1.
    9000005    2    1    2  501    0  0.73314788409E+01  0.77503225010E+01 -0.96953441736E+03  0.10263555529E+04  0.33659310214E+03 0.  0.
         13    1    3    3    0    0 -0.69512730895E+02 -0.12533298332E+03 -0.71342378000E+03  0.72767703436E+03  0.00000000000E+00 0.  1.
          1    1    3    3  501    0  0.76844209735E+02  0.13308330582E+03 -0.25611063736E+03  0.29867851852E+03  0.00000000000E+00 0.  1.
         21    1    1    2  502  501 -0.73314788409E+01 -0.77503225010E+01  0.11791366734E+02  0.15901396489E+02  0.00000000000E+00 0.  1.
<mgrwt>
<rscale>  1 0.30000000E+03</rscale>
<asrwt>0</asrwt>
<pdfrwt beam="1">  1        1 0.15366196E+00 0.30000000E+03</pdfrwt>
<pdfrwt beam="2">0</pdfrwt>
<totfact> 0.17214578E+01</totfact>
</mgrwt>
</event>
<event>
 6    1  0.1875959E-004  0.3000000E+03  0.7818608E-02  0.1093470E+00
          1   -1    0    0  502    0  0.00000000000E+00  0.00000000000E+00  0.29003798862E+02  0.29003798862E+02  0.00000000000E+00 0.  1.
         13   -1    0    0    0    0 -0.00000000000E+00 -0.00000000000E+00 -0.10000000000E+04  0.10000000000E+04  0.00000000000E+00 0.  1.
    9000005    2    1    2  501    0 -0.15995572077E+02  0.75609777552E+01 -0.94534169555E+03  0.99784003195E+03  0.31890559939E+03 0.  0.
         13    1    3    3    0    0  0.95616175249E+02 -0.50983037155E+02 -0.11508016401E+03  0.15806697060E+03  0.00000000000E+00 0.  1.
          1    1    3    3  501    0 -0.11161174733E+03  0.58544014910E+02 -0.83026153154E+03  0.83977306135E+03  0.00000000000E+00 0.  1.
         21    1    1    2  502  501  0.15995572077E+02 -0.75609777552E+01 -0.25654505593E+02  0.31163766908E+02  0.00000000000E+00 0.  1.
<mgrwt>
<rscale>  1 0.30000000E+03</rscale>
<asrwt>0</asrwt>
<pdfrwt beam="1">  1        1 0.10546858E+00 0.30000000E+03</pdfrwt>
<pdfrwt beam="2">0</pdfrwt>
<totfact> 0.31642613E+01</totfact>
</mgrwt>
</event>
<event>
 6    1  0.1875959E-004  0.3000000E+03  0.7818608E-02  0.1093470E+00
          1   -1    0    0  502    0  0.00000000000E+00  0.00000000000E+00  0.28954374442E+02  0.28954374442E+02  0.00000000000E+00 0.  1.
         13   -1    0    0    0    0 -0.00000000000E+00 -0.00000000000E+00 -0.10000000000E+04  0.10000000000E+04  0.00000000000E+00 0.  1.
    9000005    2    1    2  501    0  0.46840063079E+02  0.64990244484E+01 -0.90551019292E+03  0.94813901848E+03  0.27709684238E+03 0.  0.
         13    1    3    3    0    0  0.51734695110E+02  0.52431025719E+02 -0.89838634240E+03  0.90140086052E+03  0.00000000000E+00 0.  1.
          3    1    3    3  501    0 -0.48946320307E+01 -0.45932001270E+02 -0.71238505200E+01  0.46738157961E+02  0.00000000000E+00 0.  1.
         21    1    1    2  502  501 -0.46840063079E+02 -0.64990244484E+01 -0.65535432642E+02  0.80815355964E+02  0.00000000000E+00 0. -1.
<mgrwt>
<rscale>  1 0.30000000E+03</rscale>
<asrwt>0</asrwt>
<pdfrwt beam="1">  1        1 0.10528886E+00 0.30000000E+03</pdfrwt>
<pdfrwt beam="2">0</pdfrwt>
<totfact> 0.31722965E+01</totfact>
</mgrwt>
</event>
<event>
 6    1  0.1875959E-004  0.3000000E+03  0.7818608E-02  0.1093470E+00
          1   -1    0    0  502    0  0.00000000000E+00  0.00000000000E+00  0.29063692371E+02  0.29063692371E+02  0.00000000000E+00 0.  1.
         13   -1    0    0    0    0 -0.00000000000E+00 -0.00000000000E+00 -0.10000000000E+04  0.10000000000E+04  0.00000000000E+00 0.  1.
    9000005    2    1    2  501    0  0.12755721975E+02 -0.64376762611E+01 -0.93448802507E+03  0.98991488115E+03  0.32628124494E+03 0.  0.
         13    1    3    3    0    0  0.38691792147E+02  0.12709651560E+03 -0.74443238362E+03  0.75619452050E+03  0.00000000000E+00 0.  1.
          1    1    3    3  501    0 -0.25936070173E+02 -0.13353419186E+03 -0.19005564146E+03  0.23372036065E+03  0.00000000000E+00 0.  1.
         21    1    1    2  502  501 -0.12755721975E+02  0.64376762611E+01 -0.36448282555E+02  0.39148811221E+02  0.00000000000E+00 0. -1.
<mgrwt>
<rscale>  1 0.30000000E+03</rscale>
<asrwt>0</asrwt>
<pdfrwt beam="1">  1        1 0.10568638E+00 0.30000000E+03</pdfrwt>
<pdfrwt beam="2">0</pdfrwt>
<totfact> 0.31545634E+01</totfact>
</mgrwt>
</event>
<event>
 6    1  0.1875959E-004  0.3000000E+03  0.7818608E-02  0.1093470E+00
          1   -1    0    0  502    0  0.00000000000E+00  0.00000000000E+00  0.58120130678E+02  0.58120130678E+02  0.00000000000E+00 0.  1.
         13   -1    0    0    0    0 -0.00000000000E+00 -0.00000000000E+00 -0.10000000000E+04  0.10000000000E+04  0.00000000000E+00 0.  1.
    9000005    2    1    2  501    0 -0.49273181621E+01 -0.24836579641E+02 -0.96931179472E+03  0.10207885799E+04  0.31906556586E+03 0.  0.
         13    1    3    3    0    0 -0.15859065213E+03 -0.34779861004E+02 -0.57479878361E+03  0.59728910530E+03  0.00000000000E+00 0.  1.
          3    1    3    3  501    0  0.15366333396E+03  0.99432813633E+01 -0.39451301111E+03  0.42349947460E+03  0.00000000000E+00 0.  1.
         21    1    1    2  502  501  0.49273181621E+01  0.24836579641E+02  0.27431925398E+02  0.37331550779E+02  0.00000000000E+00 0.  1.
<mgrwt>
<rscale>  1 0.30000000E+03</rscale>
<asrwt>0</asrwt>
<pdfrwt beam="1">  1        1 0.21134638E+00 0.30000000E+03</pdfrwt>
<pdfrwt beam="2">0</pdfrwt>
<totfact> 0.90521490E+00</totfact>
</mgrwt>
</event>
<event>
 6    1  0.1875959E-004  0.3000000E+03  0.7818608E-02  0.1093470E+00
          1   -1    0    0  502    0  0.00000000000E+00  0.00000000000E+00  0.60396701463E+02  0.60396701463E+02  0.00000000000E+00 0.  1.
         13   -1    0    0    0    0 -0.00000000000E+00 -0.00000000000E+00 -0.10000000000E+04  0.10000000000E+04  0.00000000000E+00 0.  1.
    9000005    2    1    2  501    0 -0.26091056241E+02  0.90496869267E+02 -0.88899203337E+03  0.95347651289E+03  0.33157231289E+03 0.  0.
         13    1    3    3    0    0  0.33353404339E+02 -0.64334993671E+02 -0.69278404929E+03  0.69656383767E+03  0.00000000000E+00 0.  1.
          3    1    3    3  501    0 -0.59444460580E+02  0.15483186294E+03 -0.19620798408E+03  0.25691267522E+03  0.00000000000E+00 0.  1.
         21    1    1    2  502  501  0.26091056241E+02 -0.90496869267E+02 -0.50611265170E+02  0.10692018858E+03  0.00000000000E+00 0.  1.
<mgrwt>
<rscale>  1 0.30000000E+03</rscale>
<asrwt>0</asrwt>
<pdfrwt beam="1">  1        1 0.21962483E+00 0.30000000E+03</pdfrwt>
<pdfrwt beam="2">0</pdfrwt>
<totfact> 0.82767270E+00</totfact>
</mgrwt>
</event>
<event>
 6    1  0.1875959E-004  0.3000000E+03  0.7818608E-02  0.1093470E+00
          1   -1    0    0  502    0  0.00000000000E+00  0.00000000000E+00  0.29602977100E+02  0.29602977100E+02  0.00000000000E+00 0.  1.
         13   -1    0    0    0    0 -0.00000000000E+00 -0.00000000000E+00 -0.10000000000E+04  0.10000000000E+04  0.00000000000E+00 0.  1.
    9000005    2    1    2  501    0  0.42993786157E+01 -0.92098970367E+01 -0.96512459226E+03  0.10181528511E+04  0.32413954220E+03 0.  0.
         13    1    3    3    0    0 -0.35701131494E+02 -0.97288704839E+02 -0.88708844644E+02  0.13641452268E+03  0.00000000000E+00 0.  1.
          1    1    3    3  501    0  0.40000510110E+02  0.88078807802E+02 -0.87641574761E+03  0.88173832845E+03  0.00000000000E+00 0.  1.
         21    1    1    2  502  501 -0.42993786157E+01  0.92098970367E+01 -0.52724306427E+01  0.11450125973E+02  0.00000000000E+00 0.  1.
<mgrwt>
<rscale>  1 0.30000000E+03</rscale>
<asrwt>0</asrwt>
<pdfrwt beam="1">  1        1 0.10764742E+00 0.30000000E+03</pdfrwt>
<pdfrwt beam="2">0</pdfrwt>
<totfact> 0.30691391E+01</totfact>
</mgrwt>
</event>
<event>
 6    1  0.1875959E-004  0.3000000E+03  0.7818608E-02  0.1093470E+00
          1   -1    0    0  502    0  0.00000000000E+00  0.00000000000E+00  0.33257800713E+02  0.33257800713E+02  0.00000000000E+00 0.  1.
         13   -1    0    0    0    0 -0.00000000000E+00 -0.00000000000E+00 -0.10000000000E+04  0.10000000000E+04  0.00000000000E+00 0.  1.
    9000005    2    1    2  501    0 -0.62156450895E+01  0.42424571272E+02 -0.88661476315E+03  0.94237939562E+03  0.31647228717E+03 0.  0.
         13    1    3    3    0    0  0.11752417556E+02 -0.66774316230E+02 -0.79727108037E+03  0.80014880129E+03  0.00000000000E+00 0.  1.
          1    1    3    3  501    0 -0.17968062646E+02  0.10919888750E+03 -0.89343682788E+02  0.14223059432E+03  0.00000000000E+00 0.  1.
         21    1    1    2  502  501  0.62156450895E+01 -0.42424571272E+02 -0.80127436134E+02  0.90878405096E+02  0.00000000000E+00 0. -1.
<mgrwt>
<rscale>  1 0.30000000E+03</rscale>
<asrwt>0</asrwt>
<pdfrwt beam="1">  1        1 0.12093771E+00 0.30000000E+03</pdfrwt>
<pdfrwt beam="2">0</pdfrwt>
<totfact> 0.25681225E+01</totfact>
</mgrwt>
</event>
<event>
 6    1  0.1875959E-004  0.3000000E+03  0.7818608E-02  0.1093470E+00
          1   -1    0    0  502    0  0.00000000000E+00  0.00000000000E+00  0.37404152289E+02  0.37404152289E+02  0.00000000000E+00 0.  1.
         13   -1    0    0    0    0 -0.00000000000E+00 -0.00000000000E+00 -0.10000000000E+04  0.10000000000E+04  0.00000000000E+00 0.  1.
    9000005    2    1    2  501    0 -0.99906642861E+01 -0.32601558454E+00 -0.96719058302E+03  0.10264027319E+04  0.34343125138E+03 0.  0.
         13    1    3    3    0    0 -0.81158886927E+02  0.15109546170E+03 -0.40437474736E+03  0.43924428257E+03  0.00000000000E+00 0.  1.
          1    1    3    3  501    0  0.71168222641E+02 -0.15142147728E+03 -0.56281583566E+03  0.58715844928E+03  0.00000000000E+00 0.  1.
         21    1    1    2  502  501  0.99906642861E+01  0.32601558454E+00  0.45947353053E+01  0.11001420434E+02  0.00000000000E+00 0.  1.
<mgrwt>
<rscale>  1 0.30000000E+03</rscale>
<asrwt>0</asrwt>
<pdfrwt beam="1">  1        1 0.13601539E+00 0.30000000E+03</pdfrwt>
<pdfrwt beam="2">0</pdfrwt>
<totfact> 0.21236314E+01</totfact>
</mgrwt>
</event>
<event>
 6    1  0.1875959E-004  0.3000000E+03  0.7818608E-02  0.1093470E+00
          1   -1    0    0  502    0  0.00000000000E+00  0.00000000000E+00  0.29332308538E+02  0.29332308538E+02  0.00000000000E+00 0.  1.
         13   -1    0    0    0    0 -0.00000000000E+00 -0.00000000000E+00 -0.10000000000E+04  0.10000000000E+04  0.00000000000E+00 0.  1.
    9000005    2    1    2  501    0 -0.86986961275E+01 -0.56423988521E+01 -0.96308656807E+03  0.10164879553E+04  0.32496849328E+03 0.  0.
         13    1    3    3    0    0  0.62928134962E+02 -0.58057333224E+01 -0.93869780202E+03  0.94082262952E+03  0.00000000000E+00 0.  1.
          3    1    3    3  501    0 -0.71626831090E+02  0.16333447024E+00 -0.24388766052E+02  0.75665325742E+02  0.00000000000E+00 0.  1.
         21    1    1    2  502  501  0.86986961275E+01  0.56423988521E+01 -0.75811233935E+01  0.12844353274E+02  0.00000000000E+00 0.  1.
<mgrwt>
<rscale>  1 0.30000000E+03</rscale>
<asrwt>0</asrwt>
<pdfrwt beam="1">  1        1 0.10666317E+00 0.30000000E+03</pdfrwt>
<pdfrwt beam="2">0</pdfrwt>
<totfact> 0.31115923E+01</totfact>
</mgrwt>
</event>
<event>
 6    1  0.1875959E-004  0.3000000E+03  0.7818608E-02  0.1093470E+00
          1   -1    0    0  502    0  0.00000000000E+00  0.00000000000E+00  0.35906882010E+02  0.35906882010E+02  0.00000000000E+00 0.  1.
         13   -1    0    0    0    0 -0.00000000000E+00 -0.00000000000E+00 -0.10000000000E+04  0.10000000000E+04  0.00000000000E+00 0.  1.
    9000005    2    1    2  501    0 -0.43562828222E+02 -0.12967664388E+02 -0.85394161874E+03  0.91674634698E+03  0.33036600333E+03 0.  0.
         13    1    3    3    0    0 -0.51403727155E+02 -0.74258424759E+02 -0.37207728367E+02  0.97678410426E+02  0.00000000000E+00 0.  1.
          1    1    3    3  501    0  0.78408989338E+01  0.61290760371E+02 -0.81673389037E+03  0.81906793655E+03  0.00000000000E+00 0.  1.
         21    1    1    2  502  501  0.43562828222E+02  0.12967664388E+02 -0.11015149925E+03  0.11916053503E+03  0.00000000000E+00 0. -1.
<mgrwt>
<rscale>  1 0.30000000E+03</rscale>
<asrwt>0</asrwt>
<pdfrwt beam="1">  1        1 0.13057076E+00 0.30000000E+03</pdfrwt>
<pdfrwt beam="2">0</pdfrwt>
<totfact> 0.22716818E+01</totfact>
</mgrwt>
</event>
<event>
 6    1  0.1875959E-004  0.3000000E+03  0.7818608E-02  0.1093470E+00
          1   -1    0    0  502    0  0.00000000000E+00  0.00000000000E+00  0.35685553568E+02  0.35685553568E+02  0.00000000000E+00 0.  1.
         13   -1    0    0    0    0 -0.00000000000E+00 -0.00000000000E+00 -0.10000000000E+04  0.10000000000E+04  0.00000000000E+00 0.  1.
    9000005    2    1    2  501    0  0.10205235831E+02 -0.74702396060E+01 -0.96780208363E+03  0.10225662955E+04  0.32991060057E+03 0.  0.
         13    1    3    3    0    0  0.11728649710E+03  0.43760803351E+02 -0.14636997547E+03  0.19260140194E+03  0.00000000000E+00 0.  1.
          1    1    3    3  501    0 -0.10708126127E+03 -0.51231042957E+02 -0.82143210816E+03  0.82996489359E+03  0.00000000000E+00 0.  1.
         21    1    1    2  502  501 -0.10205235831E+02  0.74702396060E+01  0.34876371975E+01  0.13119258034E+02  0.00000000000E+00 0. -1.
<mgrwt>
<rscale>  1 0.30000000E+03</rscale>
<asrwt>0</asrwt>
<pdfrwt beam="1">  1        1 0.12976592E+00 0.30000000E+03</pdfrwt>
<pdfrwt beam="2">0</pdfrwt>
<totfact> 0.22947052E+01</totfact>
</mgrwt>
</event>
<event>
 6    1  0.1875959E-004  0.3000000E+03  0.7818608E-02  0.1093470E+00
          1   -1    0    0  502    0  0.00000000000E+00  0.00000000000E+00  0.77924727699E+02  0.77924727699E+02  0.00000000000E+00 0.  1.
         13   -1    0    0    0    0 -0.00000000000E+00 -0.00000000000E+00 -0.10000000000E+04  0.10000000000E+04  0.00000000000E+00 0.  1.
    9000005    2    1    2  501    0  0.11081054851E+02 -0.27365150178E+01 -0.95843039506E+03  0.10398199610E+04  0.40312088873E+03 0.  0.
         13    1    3    3    0    0 -0.13268612056E+03 -0.41201619391E+02 -0.10668639609E+03  0.17517182176E+03  0.00000000000E+00 0.  1.
          1    1    3    3  501    0  0.14376717542E+03  0.38465104373E+02 -0.85174399897E+03  0.86464813928E+03  0.00000000000E+00 0.  1.
         21    1    1    2  502  501 -0.11081054851E+02  0.27365150178E+01  0.36355122756E+02  0.38104766652E+02  0.00000000000E+00 0.  1.
<mgrwt>
<rscale>  1 0.30000000E+03</rscale>
<asrwt>0</asrwt>
<pdfrwt beam="1">  1        1 0.28336324E+00 0.30000000E+03</pdfrwt>
<pdfrwt beam="2">0</pdfrwt>
<totfact> 0.41641274E+00</totfact>
</mgrwt>
</event>
<event>
 6    1  0.1875959E-004  0.3000000E+03  0.7818608E-02  0.1093470E+00
          1   -1    0    0  502    0  0.00000000000E+00  0.00000000000E+00  0.33039962001E+02  0.33039962001E+02  0.00000000000E+00 0.  1.
         13   -1    0    0    0    0 -0.00000000000E+00 -0.00000000000E+00 -0.10000000000E+04  0.10000000000E+04  0.00000000000E+00 0.  1.
    9000005    2    1    2  501    0 -0.12171419974E+02  0.32536728776E+02 -0.84827413261E+03  0.90937458155E+03  0.32586246076E+03 0.  0.
         13    1    3    3    0    0 -0.13888337198E+03  0.30473279295E+02 -0.18098509667E+03  0.23015824335E+03  0.00000000000E+00 0.  1.
          3    1    3    3  501    0  0.12671195200E+03  0.20634494805E+01 -0.66728903594E+03  0.67921633821E+03  0.00000000000E+00 0.  1.
         21    1    1    2  502  501  0.12171419974E+02 -0.32536728776E+02 -0.11868590539E+03  0.12366538045E+03  0.00000000000E+00 0. -1.
<mgrwt>
<rscale>  1 0.30000000E+03</rscale>
<asrwt>0</asrwt>
<pdfrwt beam="1">  1        1 0.12014557E+00 0.30000000E+03</pdfrwt>
<pdfrwt beam="2">0</pdfrwt>
<totfact> 0.25946816E+01</totfact>
</mgrwt>
</event>
<event>
 6    1  0.1875959E-004  0.3000000E+03  0.7818608E-02  0.1093470E+00
          1   -1    0    0  502    0  0.00000000000E+00  0.00000000000E+00  0.32888134513E+02  0.32888134513E+02  0.00000000000E+00 0.  1.
         13   -1    0    0    0    0 -0.00000000000E+00 -0.00000000000E+00 -0.10000000000E+04  0.10000000000E+04  0.00000000000E+00 0.  1.
    9000005    2    1    2  501    0 -0.14525072702E+02 -0.28584136844E+02 -0.87346364898E+03  0.93390319085E+03  0.32895044183E+03 0.  0.
         13    1    3    3    0    0 -0.29387157158E+02  0.58111303572E+02 -0.83561026243E+03  0.83814380585E+03  0.00000000000E+00 0.  1.
          3    1    3    3  501    0  0.14862084456E+02 -0.86695440416E+02 -0.37853386553E+02  0.95759385006E+02  0.00000000000E+00 0.  1.
         21    1    1    2  502  501  0.14525072702E+02  0.28584136844E+02 -0.93648216507E+02  0.98984943659E+02  0.00000000000E+00 0.  1.
<mgrwt>
<rscale>  1 0.30000000E+03</rscale>
<asrwt>0</asrwt>
<pdfrwt beam="1">  1        1 0.11959347E+00 0.30000000E+03</pdfrwt>
<pdfrwt beam="2">0</pdfrwt>
<totfact> 0.26134101E+01</totfact>
</mgrwt>
</event>
<event>
 6    1  0.1875959E-004  0.3000000E+03  0.7818608E-02  0.1093470E+00
          1   -1    0    0  502    0  0.00000000000E+00  0.00000000000E+00  0.21572093882E+02  0.21572093882E+02  0.00000000000E+00 0.  1.
         13   -1    0    0    0    0 -0.00000000000E+00 -0.00000000000E+00 -0.10000000000E+04  0.10000000000E+04  0.00000000000E+00 0.  1.
    9000005    2    1    2  501    0  0.13130705022E+02  0.39747813517E+01 -0.98227456886E+03  0.10073238970E+04  0.22282255375E+03 0.  0.
         13    1    3    3    0    0  0.63117401534E+02  0.44544653308E+02 -0.89778235887E+03  0.90109999246E+03  0.00000000000E+00 0.  1.
          3    1    3    3  501    0 -0.49986696512E+02 -0.40569871957E+02 -0.84492209993E+02  0.10622390450E+03  0.00000000000E+00 0.  1.
         21    1    1    2  502  501 -0.13130705022E+02 -0.39747813517E+01  0.38466627430E+01  0.14248196918E+02  0.00000000000E+00 0.  1.
<mgrwt>
<rscale>  1 0.30000000E+03</rscale>
<asrwt>0</asrwt>
<pdfrwt beam="1">  1        1 0.78444143E-01 0.30000000E+03</pdfrwt>
<pdfrwt beam="2">0</pdfrwt>
<totfact> 0.48256387E+01</totfact>
</mgrwt>
</event>
<event>
 6    1  0.1875959E-004  0.3000000E+03  0.7818608E-02  0.1093470E+00
          1   -1    0    0  502    0  0.00000000000E+00  0.00000000000E+00  0.30106775875E+02  0.30106775875E+02  0.00000000000E+00 0.  1.
         13   -1    0    0    0    0 -0.00000000000E+00 -0.00000000000E+00 -0.10000000000E+04  0.10000000000E+04  0.00000000000E+00 0.  1.
    9000005    2    1    2  501    0  0.11510463007E+01 -0.10355864144E+02 -0.96787379440E+03  0.10194932503E+04  0.32012222134E+03 0.  0.
         13    1    3    3    0    0  0.17263068825E+02  0.27719327944E+02 -0.97667680190E+03  0.97722256935E+03  0.00000000000E+00 0.  1.
          1    1    3    3  501    0 -0.16112022525E+02 -0.38075192088E+02  0.88030075018E+01  0.42270680897E+02  0.00000000000E+00 0.  1.
         21    1    1    2  502  501 -0.11510463007E+01  0.10355864144E+02 -0.20194297273E+01  0.10613525625E+02  0.00000000000E+00 0.  1.
<mgrwt>
<rscale>  1 0.30000000E+03</rscale>
<asrwt>0</asrwt>
<pdfrwt beam="1">  1        1 0.10947942E+00 0.30000000E+03</pdfrwt>
<pdfrwt beam="2">0</pdfrwt>
<totfact> 0.29922988E+01</totfact>
</mgrwt>
</event>
<event>
 6    1  0.1875959E-004  0.3000000E+03  0.7818608E-02  0.1093470E+00
          1   -1    0    0  502    0  0.00000000000E+00  0.00000000000E+00  0.31905824222E+02  0.31905824222E+02  0.00000000000E+00 0.  1.
         13   -1    0    0    0    0 -0.00000000000E+00 -0.00000000000E+00 -0.10000000000E+04  0.10000000000E+04  0.00000000000E+00 0.  1.
    9000005    2    1    2  501    0  0.15267849400E+02  0.20794605550E+01 -0.95065009916E+03  0.10086307906E+04  0.33669426683E+03 0.  0.
         13    1    3    3    0    0  0.88799468687E+02 -0.10738432657E+03 -0.18446054585E+03  0.23117619299E+03  0.00000000000E+00 0.  1.
          3    1    3    3  501    0 -0.73531619288E+02  0.10946378712E+03 -0.76618955331E+03  0.77745459760E+03  0.00000000000E+00 0.  1.
         21    1    1    2  502  501 -0.15267849400E+02 -0.20794605550E+01 -0.17444076621E+02  0.23275033634E+02  0.00000000000E+00 0. -1.
<mgrwt>
<rscale>  1 0.30000000E+03</rscale>
<asrwt>0</asrwt>
<pdfrwt beam="1">  1        1 0.11602142E+00 0.30000000E+03</pdfrwt>
<pdfrwt beam="2">0</pdfrwt>
<totfact> 0.27391319E+01</totfact>
</mgrwt>
</event>
<event>
 6    1  0.1875959E-004  0.3000000E+03  0.7818608E-02  0.1093470E+00
          1   -1    0    0  502    0  0.00000000000E+00  0.00000000000E+00  0.38039991000E+02  0.38039991000E+02  0.00000000000E+00 0.  1.
         13   -1    0    0    0    0 -0.00000000000E+00 -0.00000000000E+00 -0.10000000000E+04  0.10000000000E+04  0.00000000000E+00 0.  1.
    9000005    2    1    2  501    0  0.36408281783E+02 -0.34243082470E+02 -0.88400833336E+03  0.94544077170E+03  0.33149565256E+03 0.  0.
         13    1    3    3    0    0  0.89273189285E+02  0.33543893036E+02 -0.51266132874E+02  0.10827331834E+03  0.00000000000E+00 0.  1.
          3    1    3    3  501    0 -0.52864907501E+02 -0.67786975506E+02 -0.83274220049E+03  0.83716745336E+03  0.00000000000E+00 0.  1.
         21    1    1    2  502  501 -0.36408281783E+02  0.34243082470E+02 -0.77951675638E+02  0.92599219296E+02  0.00000000000E+00 0. -1.
<mgrwt>
<rscale>  1 0.30000000E+03</rscale>
<asrwt>0</asrwt>
<pdfrwt beam="1">  1        1 0.13832753E+00 0.30000000E+03</pdfrwt>
<pdfrwt beam="2">0</pdfrwt>
<totfact> 0.20646107E+01</totfact>
</mgrwt>
</event>
<event>
 6    1  0.1875959E-004  0.3000000E+03  0.7818608E-02  0.1093470E+00
          1   -1    0    0  502    0  0.00000000000E+00  0.00000000000E+00  0.48321134547E+02  0.48321134547E+02  0.00000000000E+00 0.  1.
         13   -1    0    0    0    0 -0.00000000000E+00 -0.00000000000E+00 -0.10000000000E+04  0.10000000000E+04  0.00000000000E+00 0.  1.
    9000005    2    1    2  501    0  0.17200029524E+02  0.22935978275E+02 -0.96462525741E+03  0.10168646697E+04  0.32045275652E+03 0.  0.
         13    1    3    3    0    0 -0.84906758628E+02  0.12793240911E+03 -0.67585675125E+03  0.69307878857E+03  0.00000000000E+00 0.  1.
          1    1    3    3  501    0  0.10210678815E+03 -0.10499643083E+03 -0.28876850616E+03  0.32378588114E+03  0.00000000000E+00 0.  1.
         21    1    1    2  502  501 -0.17200029524E+02 -0.22935978275E+02  0.12946391959E+02  0.31456464833E+02  0.00000000000E+00 0.  1.
<mgrwt>
<rscale>  1 0.30000000E+03</rscale>
<asrwt>0</asrwt>
<pdfrwt beam="1">  1        1 0.17571359E+00 0.30000000E+03</pdfrwt>
<pdfrwt beam="2">0</pdfrwt>
<totfact> 0.13400444E+01</totfact>
</mgrwt>
</event>
<event>
 6    1  0.1875959E-004  0.3000000E+03  0.7818608E-02  0.1093470E+00
          1   -1    0    0  502    0  0.00000000000E+00  0.00000000000E+00  0.36944320897E+02  0.36944320897E+02  0.00000000000E+00 0.  1.
         13   -1    0    0    0    0 -0.00000000000E+00 -0.00000000000E+00 -0.10000000000E+04  0.10000000000E+04  0.00000000000E+00 0.  1.
    9000005    2    1    2  501    0 -0.40303617562E+02  0.47946698034E+01 -0.95332096791E+03  0.99520542957E+03  0.28278191023E+03 0.  0.
         13    1    3    3    0    0 -0.78654398378E+02  0.98751456140E+02 -0.80891171903E+03  0.81870417958E+03  0.00000000000E+00 0.  1.
          1    1    3    3  501    0  0.38350780817E+02 -0.93956786337E+02 -0.14440924887E+03  0.17650124999E+03  0.00000000000E+00 0.  1.
         21    1    1    2  502  501  0.40303617562E+02 -0.47946698034E+01 -0.97347111975E+01  0.41738891327E+02  0.00000000000E+00 0.  1.
<mgrwt>
<rscale>  1 0.30000000E+03</rscale>
<asrwt>0</asrwt>
<pdfrwt beam="1">  1        1 0.13434327E+00 0.30000000E+03</pdfrwt>
<pdfrwt beam="2">0</pdfrwt>
<totfact> 0.21677052E+01</totfact>
</mgrwt>
</event>
<event>
 6    1  0.1875959E-004  0.3000000E+03  0.7818608E-02  0.1093470E+00
          1   -1    0    0  502    0  0.00000000000E+00  0.00000000000E+00  0.27340275431E+02  0.27340275431E+02  0.00000000000E+00 0.  1.
         13   -1    0    0    0    0 -0.00000000000E+00 -0.00000000000E+00 -0.10000000000E+04  0.10000000000E+04  0.00000000000E+00 0.  1.
    9000005    2    1    2  501    0  0.28275247506E+01  0.10377879869E+02 -0.96017762743E+03  0.10108630780E+04  0.31589142268E+03 0.  0.
         13    1    3    3    0    0 -0.12966990207E+03 -0.47322557002E+02 -0.24480774722E+03  0.28104188478E+03  0.00000000000E+00 0.  1.
          3    1    3    3  501    0  0.13249742682E+03  0.57700436871E+02 -0.71536988021E+03  0.72982119320E+03  0.00000000000E+00 0.  1.
         21    1    1    2  502  501 -0.28275247506E+01 -0.10377879869E+02 -0.12482097142E+02  0.16477197451E+02  0.00000000000E+00 0.  1.
<mgrwt>
<rscale>  1 0.30000000E+03</rscale>
<asrwt>0</asrwt>
<pdfrwt beam="1">  1        1 0.99419393E-01 0.30000000E+03</pdfrwt>
<pdfrwt beam="2">0</pdfrwt>
<totfact> 0.34519334E+01</totfact>
</mgrwt>
</event>
<event>
 6    1  0.1875959E-004  0.3000000E+03  0.7818608E-02  0.1093470E+00
          1   -1    0    0  502    0  0.00000000000E+00  0.00000000000E+00  0.29714838048E+02  0.29714838048E+02  0.00000000000E+00 0.  1.
         13   -1    0    0    0    0 -0.00000000000E+00 -0.00000000000E+00 -0.10000000000E+04  0.10000000000E+04  0.00000000000E+00 0.  1.
    9000005    2    1    2  501    0 -0.38363719263E+01  0.16333135922E+02 -0.94315147276E+03  0.99781301729E+03  0.32529160429E+03 0.  0.
         13    1    3    3    0    0 -0.22996644159E+02 -0.93777514421E+01 -0.96086141851E+03  0.96118232061E+03  0.00000000000E+00 0.  1.
          1    1    3    3  501    0  0.19160272232E+02  0.25710887364E+02  0.17709945749E+02  0.36630696683E+02  0.00000000000E+00 0.  1.
         21    1    1    2  502  501  0.38363719263E+01 -0.16333135922E+02 -0.27133689192E+02  0.31901820759E+02  0.00000000000E+00 0.  1.
<mgrwt>
<rscale>  1 0.30000000E+03</rscale>
<asrwt>0</asrwt>
<pdfrwt beam="1">  1        1 0.10805418E+00 0.30000000E+03</pdfrwt>
<pdfrwt beam="2">0</pdfrwt>
<totfact> 0.30518364E+01</totfact>
</mgrwt>
</event>
<event>
 6    1  0.1875959E-004  0.3000000E+03  0.7818608E-02  0.1093470E+00
          1   -1    0    0  502    0  0.00000000000E+00  0.00000000000E+00  0.34270203707E+02  0.34270203707E+02  0.00000000000E+00 0.  1.
         13   -1    0    0    0    0 -0.00000000000E+00 -0.00000000000E+00 -0.10000000000E+04  0.10000000000E+04  0.00000000000E+00 0.  1.
    9000005    2    1    2  501    0  0.10074703662E+02  0.16519566395E+02 -0.95951773509E+03  0.10139481607E+04  0.32717303205E+03 0.  0.
         13    1    3    3    0    0  0.12379808253E+03 -0.96713236014E+02 -0.60023433861E+03  0.62045199371E+03  0.00000000000E+00 0.  1.
          3    1    3    3  501    0 -0.11372337887E+03  0.11323280241E+03 -0.35928339648E+03  0.39349616698E+03  0.00000000000E+00 0.  1.
         21    1    1    2  502  501 -0.10074703662E+02 -0.16519566395E+02 -0.62120612034E+01  0.20322043011E+02  0.00000000000E+00 0. -1.
<mgrwt>
<rscale>  1 0.30000000E+03</rscale>
<asrwt>0</asrwt>
<pdfrwt beam="1">  1        1 0.12461919E+00 0.30000000E+03</pdfrwt>
<pdfrwt beam="2">0</pdfrwt>
<totfact> 0.24492786E+01</totfact>
</mgrwt>
</event>
<event>
 6    1  0.1875959E-004  0.3000000E+03  0.7818608E-02  0.1093470E+00
          1   -1    0    0  502    0  0.00000000000E+00  0.00000000000E+00  0.28735406590E+02  0.28735406590E+02  0.00000000000E+00 0.  1.
         13   -1    0    0    0    0 -0.00000000000E+00 -0.00000000000E+00 -0.10000000000E+04  0.10000000000E+04  0.00000000000E+00 0.  1.
    9000005    2    1    2  501    0  0.39497345603E+01 -0.13801924991E+02 -0.94492197438E+03  0.99873495470E+03  0.32309113037E+03 0.  0.
         13    1    3    3    0    0 -0.30026195569E+02  0.10756052052E+03 -0.79532590093E+03  0.80312771505E+03  0.00000000000E+00 0.  1.
          1    1    3    3  501    0  0.33975930129E+02 -0.12136244551E+03 -0.14959607345E+03  0.19560723964E+03  0.00000000000E+00 0.  1.
         21    1    1    2  502  501 -0.39497345603E+01  0.13801924991E+02 -0.26342619029E+02  0.30000451894E+02  0.00000000000E+00 0. -1.
<mgrwt>
<rscale>  1 0.30000000E+03</rscale>
<asrwt>0</asrwt>
<pdfrwt beam="1">  1        1 0.10449261E+00 0.30000000E+03</pdfrwt>
<pdfrwt beam="2">0</pdfrwt>
<totfact> 0.32082528E+01</totfact>
</mgrwt>
</event>
<event>
 6    1  0.1875959E-004  0.3000000E+03  0.7818608E-02  0.1093470E+00
          1   -1    0    0  502    0  0.00000000000E+00  0.00000000000E+00  0.30301355654E+02  0.30301355654E+02  0.00000000000E+00 0.  1.
         13   -1    0    0    0    0 -0.00000000000E+00 -0.00000000000E+00 -0.10000000000E+04  0.10000000000E+04  0.00000000000E+00 0.  1.
    9000005    2    1    2  501    0  0.12531802816E+02  0.92767798694E+01 -0.87465124457E+03  0.93398358506E+03  0.32721160252E+03 0.  0.
         13    1    3    3    0    0 -0.76037422111E+01 -0.66272973154E+02 -0.11978229528E+02  0.67774640160E+02  0.00000000000E+00 0.  1.
          1    1    3    3  501    0  0.20135545028E+02  0.75549753023E+02 -0.86267301504E+03  0.86620894490E+03  0.00000000000E+00 0.  1.
         21    1    1    2  502  501 -0.12531802816E+02 -0.92767798694E+01 -0.95047399780E+02  0.96317770591E+02  0.00000000000E+00 0. -1.
<mgrwt>
<rscale>  1 0.30000000E+03</rscale>
<asrwt>0</asrwt>
<pdfrwt beam="1">  1        1 0.11018698E+00 0.30000000E+03</pdfrwt>
<pdfrwt beam="2">0</pdfrwt>
<totfact> 0.29633540E+01</totfact>
</mgrwt>
</event>
<event>
 6    1  0.1875959E-004  0.3000000E+03  0.7818608E-02  0.1093470E+00
          1   -1    0    0  502    0  0.00000000000E+00  0.00000000000E+00  0.48409263190E+02  0.48409263190E+02  0.00000000000E+00 0.  1.
         13   -1    0    0    0    0 -0.00000000000E+00 -0.00000000000E+00 -0.10000000000E+04  0.10000000000E+04  0.00000000000E+00 0.  1.
    9000005    2    1    2  501    0 -0.32042820376E+02 -0.87005293298E+01 -0.95968452803E+03  0.10142339650E+04  0.32645627719E+03 0.  0.
         13    1    3    3    0    0  0.12198806206E+03  0.40350874270E+02 -0.20129412401E+03  0.23880662616E+03  0.00000000000E+00 0.  1.
          3    1    3    3  501    0 -0.15403088243E+03 -0.49051403600E+02 -0.75839040402E+03  0.77542733886E+03  0.00000000000E+00 0.  1.
         21    1    1    2  502  501  0.32042820376E+02  0.87005293298E+01  0.80937912248E+01  0.34175298164E+02  0.00000000000E+00 0.  1.
<mgrwt>
<rscale>  1 0.30000000E+03</rscale>
<asrwt>0</asrwt>
<pdfrwt beam="1">  1        1 0.17603406E+00 0.30000000E+03</pdfrwt>
<pdfrwt beam="2">0</pdfrwt>
<totfact> 0.13352510E+01</totfact>
</mgrwt>
</event>
<event>
 6    1  0.1875959E-004  0.3000000E+03  0.7818608E-02  0.1093470E+00
          1   -1    0    0  502    0  0.00000000000E+00  0.00000000000E+00  0.12613437076E+02  0.12613437076E+02  0.00000000000E+00 0.  1.
         13   -1    0    0    0    0 -0.00000000000E+00 -0.00000000000E+00 -0.10000000000E+04  0.10000000000E+04  0.00000000000E+00 0.  1.
    9000005    2    1    2  501    0 -0.92032848177E+01 -0.52985260501E+01 -0.96158297125E+03  0.98471002916E+03  0.21189444569E+03 0.  0.
         13    1    3    3    0    0 -0.59784982637E+02 -0.90759773896E+02 -0.59866823149E+03  0.60845314701E+03  0.00000000000E+00 0.  1.
          1    1    3    3  501    0  0.50581697820E+02  0.85461247846E+02 -0.36291473976E+03  0.37625688216E+03  0.00000000000E+00 0.  1.
         21    1    1    2  502  501  0.92032848177E+01  0.52985260501E+01 -0.25803591676E+02  0.27903407912E+02  0.00000000000E+00 0. -1.
<mgrwt>
<rscale>  1 0.30000000E+03</rscale>
<asrwt>0</asrwt>
<pdfrwt beam="1">  1        1 0.45867141E-01 0.30000000E+03</pdfrwt>
<pdfrwt beam="2">0</pdfrwt>
<totfact> 0.98819706E+01</totfact>
</mgrwt>
</event>
<event>
 6    1  0.1875959E-004  0.3000000E+03  0.7818608E-02  0.1093470E+00
          1   -1    0    0  502    0  0.00000000000E+00  0.00000000000E+00  0.53676691979E+02  0.53676691979E+02  0.00000000000E+00 0.  1.
         13   -1    0    0    0    0 -0.00000000000E+00 -0.00000000000E+00 -0.10000000000E+04  0.10000000000E+04  0.00000000000E+00 0.  1.
    9000005    2    1    2  501    0 -0.70807580435E+02  0.80903937025E+02 -0.60450048697E+03  0.69534444187E+03  0.32637998349E+03 0.  0.
         13    1    3    3    0    0  0.38039614041E+02 -0.11406717940E+03 -0.20393306899E+03  0.23674254007E+03  0.00000000000E+00 0.  1.
          1    1    3    3  501    0 -0.10884719448E+03  0.19497111643E+03 -0.40056741798E+03  0.45860190180E+03  0.00000000000E+00 0.  1.
         21    1    1    2  502  501  0.70807580435E+02 -0.80903937025E+02 -0.34182282106E+03  0.35833225011E+03  0.00000000000E+00 0.  1.
<mgrwt>
<rscale>  1 0.30000000E+03</rscale>
<asrwt>0</asrwt>
<pdfrwt beam="1">  1        1 0.19518838E+00 0.30000000E+03</pdfrwt>
<pdfrwt beam="2">0</pdfrwt>
<totfact> 0.10798317E+01</totfact>
</mgrwt>
</event>
<event>
 6    1  0.1875959E-004  0.3000000E+03  0.7818608E-02  0.1093470E+00
          1   -1    0    0  502    0  0.00000000000E+00  0.00000000000E+00  0.36822743768E+02  0.36822743768E+02  0.00000000000E+00 0.  1.
         13   -1    0    0    0    0 -0.00000000000E+00 -0.00000000000E+00 -0.10000000000E+04  0.10000000000E+04  0.00000000000E+00 0.  1.
    9000005    2    1    2  501    0  0.22496423766E+02 -0.53742593325E+01 -0.96028223204E+03  0.10135128122E+04  0.32331298077E+03 0.  0.
         13    1    3    3    0    0  0.95544455961E+02 -0.48430796542E+02 -0.90714089913E+03  0.91344342791E+03  0.00000000000E+00 0.  1.
          3    1    3    3  501    0 -0.73048032196E+02  0.43056537209E+02 -0.53141332910E+02  0.10006938427E+03  0.00000000000E+00 0.  1.
         21    1    1    2  502  501 -0.22496423766E+02  0.53742593325E+01 -0.28950241908E+01  0.23309931589E+02  0.00000000000E+00 0.  1.
<mgrwt>
<rscale>  1 0.30000000E+03</rscale>
<asrwt>0</asrwt>
<pdfrwt beam="1">  1        1 0.13390117E+00 0.30000000E+03</pdfrwt>
<pdfrwt beam="2">0</pdfrwt>
<totfact> 0.21795611E+01</totfact>
</mgrwt>
</event>
<event>
 6    1  0.1875959E-004  0.3000000E+03  0.7818608E-02  0.1093470E+00
          3   -1    0    0  502    0  0.00000000000E+00  0.00000000000E+00  0.28724888288E+02  0.28724888288E+02  0.00000000000E+00 0.  1.
         13   -1    0    0    0    0 -0.00000000000E+00 -0.00000000000E+00 -0.10000000000E+04  0.10000000000E+04  0.00000000000E+00 0.  1.
    9000005    2    1    2  501    0 -0.43201342791E+01 -0.11743190174E+02 -0.95566435480E+03  0.10087183442E+04  0.32258607035E+03 0.  0.
         13    1    3    3    0    0 -0.87719735321E+02 -0.14257843027E+03 -0.47529758680E+03  0.50391582309E+03  0.00000000000E+00 0.  1.
          3    1    3    3  501    0  0.83399601042E+02  0.13083524009E+03 -0.48036676800E+03  0.50480252110E+03  0.00000000000E+00 0.  1.
         21    1    1    2  502  501  0.43201342791E+01  0.11743190174E+02 -0.15610756912E+02  0.20006544105E+02  0.00000000000E+00 0. -1.
<mgrwt>
<rscale>  1 0.30000000E+03</rscale>
<asrwt>0</asrwt>
<pdfrwt beam="1">  1        3 0.10445436E+00 0.30000000E+03</pdfrwt>
<pdfrwt beam="2">0</pdfrwt>
<totfact> 0.34852815E+00</totfact>
</mgrwt>
</event>
<event>
 6    1  0.1875959E-004  0.3000000E+03  0.7818608E-02  0.1093470E+00
          1   -1    0    0  502    0  0.00000000000E+00  0.00000000000E+00  0.28639918407E+02  0.28639918407E+02  0.00000000000E+00 0.  1.
         13   -1    0    0    0    0 -0.00000000000E+00 -0.00000000000E+00 -0.10000000000E+04  0.10000000000E+04  0.00000000000E+00 0.  1.
    9000005    2    1    2  501    0 -0.94975452569E+01  0.33965883890E+00 -0.94670896332E+03  0.10022202975E+04  0.32878160663E+03 0.  0.
         13    1    3    3    0    0  0.79045582784E+02 -0.13677611666E+03 -0.35803095158E+03  0.39133370994E+03  0.00000000000E+00 0.  1.
          1    1    3    3  501    0 -0.88543128041E+02  0.13711577550E+03 -0.58867801174E+03  0.61088658761E+03  0.00000000000E+00 0.  1.
         21    1    1    2  502  501  0.94975452569E+01 -0.33965883890E+00 -0.24651118275E+02  0.26419620858E+02  0.00000000000E+00 0. -1.
<mgrwt>
<rscale>  1 0.30000000E+03</rscale>
<asrwt>0</asrwt>
<pdfrwt beam="1">  1        1 0.10414538E+00 0.30000000E+03</pdfrwt>
<pdfrwt beam="2">0</pdfrwt>
<totfact> 0.32241178E+01</totfact>
</mgrwt>
</event>
<event>
 6    1  0.1875959E-004  0.3000000E+03  0.7818608E-02  0.1093470E+00
          1   -1    0    0  502    0  0.00000000000E+00  0.00000000000E+00  0.36597340820E+02  0.36597340820E+02  0.00000000000E+00 0.  1.
         13   -1    0    0    0    0 -0.00000000000E+00 -0.00000000000E+00 -0.10000000000E+04  0.10000000000E+04  0.00000000000E+00 0.  1.
    9000005    2    1    2  501    0 -0.19561079329E+02  0.42448464839E+01 -0.92049068958E+03  0.98924661030E+03  0.36180808702E+03 0.  0.
         13    1    3    3    0    0 -0.10063488819E+02 -0.79694741048E+02 -0.89832835249E+03  0.90191260910E+03  0.00000000000E+00 0.  1.
          3    1    3    3  501    0 -0.94975905097E+01  0.83939587532E+02 -0.22162337090E+02  0.87334001201E+02  0.00000000000E+00 0.  1.
         21    1    1    2  502  501  0.19561079329E+02 -0.42448464839E+01 -0.42911969598E+02  0.47350730522E+02  0.00000000000E+00 0.  1.
<mgrwt>
<rscale>  1 0.30000000E+03</rscale>
<asrwt>0</asrwt>
<pdfrwt beam="1">  1        1 0.13308152E+00 0.30000000E+03</pdfrwt>
<pdfrwt beam="2">0</pdfrwt>
<totfact> 0.22017701E+01</totfact>
</mgrwt>
</event>
<event>
 6    1  0.1875959E-004  0.3000000E+03  0.7818608E-02  0.1093470E+00
          1   -1    0    0  502    0  0.00000000000E+00  0.00000000000E+00  0.30798139935E+02  0.30798139935E+02  0.00000000000E+00 0.  1.
         13   -1    0    0    0    0 -0.00000000000E+00 -0.00000000000E+00 -0.10000000000E+04  0.10000000000E+04  0.00000000000E+00 0.  1.
    9000005    2    1    2  501    0 -0.53598070032E+01 -0.10343043105E+02 -0.96414943862E+03  0.10181003829E+04  0.32681576393E+03 0.  0.
         13    1    3    3    0    0  0.23253896729E+01 -0.14953195413E+03 -0.73355828502E+03  0.74864742721E+03  0.00000000000E+00 0.  1.
          3    1    3    3  501    0 -0.76851966760E+01  0.13918891102E+03 -0.23059115360E+03  0.26945295567E+03  0.00000000000E+00 0.  1.
         21    1    1    2  502  501  0.53598070032E+01  0.10343043105E+02 -0.50524214405E+01  0.12697757054E+02  0.00000000000E+00 0. -1.
<mgrwt>
<rscale>  1 0.30000000E+03</rscale>
<asrwt>0</asrwt>
<pdfrwt beam="1">  1        1 0.11199347E+00 0.30000000E+03</pdfrwt>
<pdfrwt beam="2">0</pdfrwt>
<totfact> 0.28912305E+01</totfact>
</mgrwt>
</event>
<event>
 6    1  0.1875959E-004  0.3000000E+03  0.7818608E-02  0.1093470E+00
          1   -1    0    0  502    0  0.00000000000E+00  0.00000000000E+00  0.39682979713E+02  0.39682979713E+02  0.00000000000E+00 0.  1.
         13   -1    0    0    0    0 -0.00000000000E+00 -0.00000000000E+00 -0.10000000000E+04  0.10000000000E+04  0.00000000000E+00 0.  1.
    9000005    2    1    2  501    0 -0.51346235201E+01 -0.27481669431E+02 -0.95587897989E+03  0.10113756889E+04  0.32923328095E+03 0.  0.
         13    1    3    3    0    0 -0.13355932996E+03 -0.33323027164E+02 -0.18910843247E+03  0.23390279603E+03  0.00000000000E+00 0.  1.
          3    1    3    3  501    0  0.12842470644E+03  0.58413577335E+01 -0.76677054742E+03  0.77747289282E+03  0.00000000000E+00 0.  1.
         21    1    1    2  502  501  0.51346235201E+01  0.27481669431E+02 -0.44380403959E+01  0.28307290862E+02  0.00000000000E+00 0.  1.
<mgrwt>
<rscale>  1 0.30000000E+03</rscale>
<asrwt>0</asrwt>
<pdfrwt beam="1">  1        1 0.14430205E+00 0.30000000E+03</pdfrwt>
<pdfrwt beam="2">0</pdfrwt>
<totfact> 0.19215067E+01</totfact>
</mgrwt>
</event>
<event>
 6    1  0.1875959E-004  0.3000000E+03  0.7818608E-02  0.1093470E+00
          3   -1    0    0  502    0  0.00000000000E+00  0.00000000000E+00  0.33902946326E+02  0.33902946326E+02  0.00000000000E+00 0.  1.
         13   -1    0    0    0    0 -0.00000000000E+00 -0.00000000000E+00 -0.10000000000E+04  0.10000000000E+04  0.00000000000E+00 0.  1.
    9000005    2    1    2  501    0 -0.64699269662E+01  0.98264542596E+01 -0.96751325276E+03  0.10220528502E+04  0.32919859535E+03 0.  0.
         13    1    3    3    0    0 -0.52835304460E+02 -0.42704051668E+02 -0.94645641810E+03  0.94889143572E+03  0.00000000000E+00 0.  1.
          1    1    3    3  501    0  0.46365377494E+02  0.52530505928E+02 -0.21056834666E+02  0.73161414485E+02  0.00000000000E+00 0.  1.
         21    1    1    2  502  501  0.64699269662E+01 -0.98264542596E+01  0.14161990875E+01  0.11850096123E+02  0.00000000000E+00 0. -1.
<mgrwt>
<rscale>  1 0.30000000E+03</rscale>
<asrwt>0</asrwt>
<pdfrwt beam="1">  1        3 0.12328370E+00 0.30000000E+03</pdfrwt>
<pdfrwt beam="2">0</pdfrwt>
<totfact> 0.21185822E+00</totfact>
</mgrwt>
</event>
<event>
 6    1  0.1875959E-004  0.3000000E+03  0.7818608E-02  0.1093470E+00
          1   -1    0    0  502    0  0.00000000000E+00  0.00000000000E+00  0.32144545168E+02  0.32144545168E+02  0.00000000000E+00 0.  1.
         13   -1    0    0    0    0 -0.00000000000E+00 -0.00000000000E+00 -0.10000000000E+04  0.10000000000E+04  0.00000000000E+00 0.  1.
    9000005    2    1    2  501    0 -0.20316192985E+02  0.91920930949E-01 -0.95369174341E+03  0.10073783006E+04  0.32383690803E+03 0.  0.
         13    1    3    3    0    0 -0.13555287874E+03 -0.99219464851E+02 -0.58205816231E+03  0.60581415422E+03  0.00000000000E+00 0.  1.
          3    1    3    3  501    0  0.11523668575E+03  0.99311385782E+02 -0.37163358110E+03  0.40156414642E+03  0.00000000000E+00 0.  1.
         21    1    1    2  502  501  0.20316192985E+02 -0.91920930949E-01 -0.14163711418E+02  0.24766244527E+02  0.00000000000E+00 0.  1.
<mgrwt>
<rscale>  1 0.30000000E+03</rscale>
<asrwt>0</asrwt>
<pdfrwt beam="1">  1        1 0.11688950E+00 0.30000000E+03</pdfrwt>
<pdfrwt beam="2">0</pdfrwt>
<totfact> 0.27078286E+01</totfact>
</mgrwt>
</event>
<event>
 6    1  0.1875959E-004  0.3000000E+03  0.7818608E-02  0.1093470E+00
          1   -1    0    0  502    0  0.00000000000E+00  0.00000000000E+00  0.29907490289E+02  0.29907490289E+02  0.00000000000E+00 0.  1.
         13   -1    0    0    0    0 -0.00000000000E+00 -0.00000000000E+00 -0.10000000000E+04  0.10000000000E+04  0.00000000000E+00 0.  1.
    9000005    2    1    2  501    0 -0.89394592751E+01  0.95156083872E+01 -0.95049201977E+03  0.10063566954E+04  0.33037593427E+03 0.  0.
         13    1    3    3    0    0  0.73050389182E+02  0.37957741733E+02 -0.90431245350E+03  0.90805185043E+03  0.00000000000E+00 0.  1.
          3    1    3    3  501    0 -0.81989848457E+02 -0.28442133346E+02 -0.46179566278E+02  0.98304844951E+02  0.00000000000E+00 0.  1.
         21    1    1    2  502  501  0.89394592751E+01 -0.95156083872E+01 -0.19600489938E+02  0.23550794911E+02  0.00000000000E+00 0.  1.
<mgrwt>
<rscale>  1 0.30000000E+03</rscale>
<asrwt>0</asrwt>
<pdfrwt beam="1">  1        1 0.10875474E+00 0.30000000E+03</pdfrwt>
<pdfrwt beam="2">0</pdfrwt>
<totfact> 0.30223623E+01</totfact>
</mgrwt>
</event>
<event>
 6    1  0.1875959E-004  0.3000000E+03  0.7818608E-02  0.1093470E+00
          1   -1    0    0  502    0  0.00000000000E+00  0.00000000000E+00  0.23102315047E+02  0.23102315047E+02  0.00000000000E+00 0.  1.
         13   -1    0    0    0    0 -0.00000000000E+00 -0.00000000000E+00 -0.10000000000E+04  0.10000000000E+04  0.00000000000E+00 0.  1.
    9000005    2    1    2  501    0 -0.13929645029E+01 -0.15164204434E+02 -0.94726032106E+03  0.98978164902E+03  0.28658978249E+03 0.  0.
         13    1    3    3    0    0 -0.11189325563E+03 -0.49468886548E+02 -0.20634445922E+03  0.23988602969E+03  0.00000000000E+00 0.  1.
          1    1    3    3  501    0  0.11050029112E+03  0.34304682115E+02 -0.74091586184E+03  0.74989561932E+03  0.00000000000E+00 0.  1.
         21    1    1    2  502  501  0.13929645029E+01  0.15164204434E+02 -0.29637363894E+02  0.33320666032E+02  0.00000000000E+00 0. -1.
<mgrwt>
<rscale>  1 0.30000000E+03</rscale>
<asrwt>0</asrwt>
<pdfrwt beam="1">  1        1 0.84008596E-01 0.30000000E+03</pdfrwt>
<pdfrwt beam="2">0</pdfrwt>
<totfact> 0.43882576E+01</totfact>
</mgrwt>
</event>
<event>
 6    1  0.1875959E-004  0.3000000E+03  0.7818608E-02  0.1093470E+00
          1   -1    0    0  502    0  0.00000000000E+00  0.00000000000E+00  0.30636404302E+02  0.30636404302E+02  0.00000000000E+00 0.  1.
         13   -1    0    0    0    0 -0.00000000000E+00 -0.00000000000E+00 -0.10000000000E+04  0.10000000000E+04  0.00000000000E+00 0.  1.
    9000005    2    1    2  501    0  0.27380808657E+02  0.22218020185E+02 -0.86428753043E+03  0.91980171391E+03  0.31272817037E+03 0.  0.
         13    1    3    3    0    0  0.95269723265E+02  0.12143684969E+03 -0.24959970996E+03  0.29346761976E+03  0.00000000000E+00 0.  1.
          1    1    3    3  501    0 -0.67888914608E+02 -0.99218829507E+02 -0.61468782048E+03  0.62633409415E+03  0.00000000000E+00 0.  1.
         21    1    1    2  502  501 -0.27380808657E+02 -0.22218020185E+02 -0.10507606526E+03  0.11083469039E+03  0.00000000000E+00 0. -1.
<mgrwt>
<rscale>  1 0.30000000E+03</rscale>
<asrwt>0</asrwt>
<pdfrwt beam="1">  1        1 0.11140534E+00 0.30000000E+03</pdfrwt>
<pdfrwt beam="2">0</pdfrwt>
<totfact> 0.29144364E+01</totfact>
</mgrwt>
</event>
<event>
 6    1  0.1875959E-004  0.3000000E+03  0.7818608E-02  0.1093470E+00
          1   -1    0    0  502    0  0.00000000000E+00  0.00000000000E+00  0.35948786018E+02  0.35948786018E+02  0.00000000000E+00 0.  1.
         13   -1    0    0    0    0 -0.00000000000E+00 -0.00000000000E+00 -0.10000000000E+04  0.10000000000E+04  0.00000000000E+00 0.  1.
    9000005    2    1    2  501    0  0.32358915841E+02  0.34066055076E+01 -0.93520608845E+03  0.99246608069E+03  0.33063543224E+03 0.  0.
         13    1    3    3    0    0  0.62790054997E+02 -0.14559328380E+03 -0.30015348859E+03  0.33945855713E+03  0.00000000000E+00 0.  1.
          3    1    3    3  501    0 -0.30431139156E+02  0.14899988931E+03 -0.63505259986E+03  0.65300752356E+03  0.00000000000E+00 0.  1.
         21    1    1    2  502  501 -0.32358915841E+02 -0.34066055076E+01 -0.28845125530E+02  0.43482705324E+02  0.00000000000E+00 0. -1.
<mgrwt>
<rscale>  1 0.30000000E+03</rscale>
<asrwt>0</asrwt>
<pdfrwt beam="1">  1        1 0.13072313E+00 0.30000000E+03</pdfrwt>
<pdfrwt beam="2">0</pdfrwt>
<totfact> 0.22673567E+01</totfact>
</mgrwt>
</event>
<event>
 6    1  0.1875959E-004  0.3000000E+03  0.7818608E-02  0.1093470E+00
          1   -1    0    0  502    0  0.00000000000E+00  0.00000000000E+00  0.51552140175E+02  0.51552140175E+02  0.00000000000E+00 0.  1.
         13   -1    0    0    0    0 -0.00000000000E+00 -0.00000000000E+00 -0.10000000000E+04  0.10000000000E+04  0.00000000000E+00 0.  1.
    9000005    2    1    2  501    0 -0.37123294348E+01  0.13718072928E+02 -0.97400333855E+03  0.10223109123E+04  0.31021787664E+03 0.  0.
         13    1    3    3    0    0  0.16592648640E+02 -0.10579634823E+03 -0.81681972240E+03  0.82380983376E+03  0.00000000000E+00 0.  1.
          3    1    3    3  501    0 -0.20304978075E+02  0.11951442115E+03 -0.15718361615E+03  0.19850107855E+03  0.00000000000E+00 0.  1.
         21    1    1    2  502  501  0.37123294348E+01 -0.13718072928E+02  0.25555478725E+02  0.29241227874E+02  0.00000000000E+00 0.  1.
<mgrwt>
<rscale>  1 0.30000000E+03</rscale>
<asrwt>0</asrwt>
<pdfrwt beam="1">  1        1 0.18746272E+00 0.30000000E+03</pdfrwt>
<pdfrwt beam="2">0</pdfrwt>
<totfact> 0.11759368E+01</totfact>
</mgrwt>
</event>
<event>
 6    1  0.1875959E-004  0.3000000E+03  0.7818608E-02  0.1093470E+00
          1   -1    0    0  502    0  0.00000000000E+00  0.00000000000E+00  0.30659049957E+02  0.30659049957E+02  0.00000000000E+00 0.  1.
         13   -1    0    0    0    0 -0.00000000000E+00 -0.00000000000E+00 -0.10000000000E+04  0.10000000000E+04  0.00000000000E+00 0.  1.
    9000005    2    1    2  501    0 -0.17732809745E+02 -0.60829273928E+01 -0.95382700318E+03  0.10063251827E+04  0.32023892150E+03 0.  0.
         13    1    3    3    0    0  0.10899808333E+03  0.10156721792E+03 -0.54446205480E+03  0.56447799872E+03  0.00000000000E+00 0.  1.
          1    1    3    3  501    0 -0.12673089308E+03 -0.10765014532E+03 -0.40936494839E+03  0.44184718401E+03  0.00000000000E+00 0.  1.
         21    1    1    2  502  501  0.17732809745E+02  0.60829273928E+01 -0.15513946858E+02  0.24333867228E+02  0.00000000000E+00 0. -1.
<mgrwt>
<rscale>  1 0.30000000E+03</rscale>
<asrwt>0</asrwt>
<pdfrwt beam="1">  1        1 0.11148769E+00 0.30000000E+03</pdfrwt>
<pdfrwt beam="2">0</pdfrwt>
<totfact> 0.29111714E+01</totfact>
</mgrwt>
</event>
<event>
 6    1  0.1875959E-004  0.3000000E+03  0.7818608E-02  0.1093470E+00
          1   -1    0    0  502    0  0.00000000000E+00  0.00000000000E+00  0.28269126149E+02  0.28269126149E+02  0.00000000000E+00 0.  1.
         13   -1    0    0    0    0 -0.00000000000E+00 -0.00000000000E+00 -0.10000000000E+04  0.10000000000E+04  0.00000000000E+00 0.  1.
    9000005    2    1    2  501    0  0.55049515058E+01  0.10033446091E+02 -0.96322911793E+03  0.10140123949E+04  0.31666990525E+03 0.  0.
         13    1    3    3    0    0 -0.58776706469E+02 -0.13660862138E+03 -0.57819796231E+03  0.59701716917E+03  0.00000000000E+00 0.  1.
          1    1    3    3  501    0  0.64281657975E+02  0.14664206747E+03 -0.38503115562E+03  0.41699522575E+03  0.00000000000E+00 0.  1.
         21    1    1    2  502  501 -0.55049515058E+01 -0.10033446091E+02 -0.85017559167E+01  0.14256731224E+02  0.00000000000E+00 0.  1.
<mgrwt>
<rscale>  1 0.30000000E+03</rscale>
<asrwt>0</asrwt>
<pdfrwt beam="1">  1        1 0.10279704E+00 0.30000000E+03</pdfrwt>
<pdfrwt beam="2">0</pdfrwt>
<totfact> 0.32868169E+01</totfact>
</mgrwt>
</event>
<event>
 6    1  0.1875959E-004  0.3000000E+03  0.7818608E-02  0.1093470E+00
          1   -1    0    0  502    0  0.00000000000E+00  0.00000000000E+00  0.29903631225E+02  0.29903631225E+02  0.00000000000E+00 0.  1.
         13   -1    0    0    0    0 -0.00000000000E+00 -0.00000000000E+00 -0.10000000000E+04  0.10000000000E+04  0.00000000000E+00 0.  1.
    9000005    2    1    2  501    0  0.14118697179E+02 -0.10483626735E+02 -0.90504523239E+03  0.96251747253E+03  0.32714487341E+03 0.  0.
         13    1    3    3    0    0  0.82113521490E+02  0.31357889002E+02 -0.44948764080E+02  0.98723548389E+02  0.00000000000E+00 0.  1.
          3    1    3    3  501    0 -0.67994824312E+02 -0.41841515736E+02 -0.86009646831E+03  0.86379392414E+03  0.00000000000E+00 0.  1.
         21    1    1    2  502  501 -0.14118697179E+02  0.10483626735E+02 -0.65051136383E+02  0.67386158699E+02  0.00000000000E+00 0.  1.
<mgrwt>
<rscale>  1 0.30000000E+03</rscale>
<asrwt>0</asrwt>
<pdfrwt beam="1">  1        1 0.10874071E+00 0.30000000E+03</pdfrwt>
<pdfrwt beam="2">0</pdfrwt>
<totfact> 0.30229487E+01</totfact>
</mgrwt>
</event>
<event>
 6    1  0.1875959E-004  0.3000000E+03  0.7818608E-02  0.1093470E+00
          1   -1    0    0  502    0  0.00000000000E+00  0.00000000000E+00  0.25999666904E+02  0.25999666904E+02  0.00000000000E+00 0.  1.
         13   -1    0    0    0    0 -0.00000000000E+00 -0.00000000000E+00 -0.10000000000E+04  0.10000000000E+04  0.00000000000E+00 0.  1.
    9000005    2    1    2  501    0 -0.12554138824E+02 -0.15516787692E+01 -0.96828971817E+03  0.10121207177E+04  0.29435243288E+03 0.  0.
         13    1    3    3    0    0 -0.13462381783E+03 -0.61746961773E+02 -0.63639961501E+03  0.65340701680E+03  0.00000000000E+00 0.  1.
          3    1    3    3  501    0  0.12206967901E+03  0.60195283004E+02 -0.33189010316E+03  0.35871370089E+03  0.00000000000E+00 0.  1.
         21    1    1    2  502  501  0.12554138824E+02  0.15516787692E+01 -0.57106149272E+01  0.13878949221E+02  0.00000000000E+00 0. -1.
<mgrwt>
<rscale>  1 0.30000000E+03</rscale>
<asrwt>0</asrwt>
<pdfrwt beam="1">  1        1 0.94544443E-01 0.30000000E+03</pdfrwt>
<pdfrwt beam="2">0</pdfrwt>
<totfact> 0.37126959E+01</totfact>
</mgrwt>
</event>
<event>
 6    1  0.1875959E-004  0.3000000E+03  0.7818608E-02  0.1093470E+00
          1   -1    0    0  502    0  0.00000000000E+00  0.00000000000E+00  0.57018187785E+02  0.57018187785E+02  0.00000000000E+00 0.  1.
         13   -1    0    0    0    0 -0.00000000000E+00 -0.00000000000E+00 -0.10000000000E+04  0.10000000000E+04  0.00000000000E+00 0.  1.
    9000005    2    1    2  501    0 -0.42167571606E+02 -0.22690309233E+02 -0.95480004044E+03  0.10076965420E+04  0.31861614715E+03 0.  0.
         13    1    3    3    0    0 -0.12663806694E+03 -0.52762192542E+01 -0.14202343464E+03  0.19035675579E+03  0.00000000000E+00 0.  1.
          3    1    3    3  501    0  0.84470495338E+02 -0.17414089979E+02 -0.81277660580E+03  0.81733978617E+03  0.00000000000E+00 0.  1.
         21    1    1    2  502  501  0.42167571606E+02  0.22690309233E+02  0.11818228229E+02  0.49321645823E+02  0.00000000000E+00 0.  1.
<mgrwt>
<rscale>  1 0.30000000E+03</rscale>
<asrwt>0</asrwt>
<pdfrwt beam="1">  1        1 0.20733930E+00 0.30000000E+03</pdfrwt>
<pdfrwt beam="2">0</pdfrwt>
<totfact> 0.94547319E+00</totfact>
</mgrwt>
</event>
<event>
 6    1  0.1875959E-004  0.3000000E+03  0.7818608E-02  0.1093470E+00
          1   -1    0    0  502    0  0.00000000000E+00  0.00000000000E+00  0.44251902929E+02  0.44251902929E+02  0.00000000000E+00 0.  1.
         13   -1    0    0    0    0 -0.00000000000E+00 -0.00000000000E+00 -0.10000000000E+04  0.10000000000E+04  0.00000000000E+00 0.  1.
    9000005    2    1    2  501    0  0.43500061406E+02 -0.44175590737E+02 -0.92603592379E+03  0.97550198365E+03  0.30036286356E+03 0.  0.
         13    1    3    3    0    0  0.15646671818E+03 -0.90697395466E+02 -0.62439557913E+03  0.65005975931E+03  0.00000000000E+00 0.  1.
          1    1    3    3  501    0 -0.11296665677E+03  0.46521804729E+02 -0.30164034466E+03  0.32544222434E+03  0.00000000000E+00 0.  1.
         21    1    1    2  502  501 -0.43500061406E+02  0.44175590737E+02 -0.29712173285E+02  0.68749919277E+02  0.00000000000E+00 0.  1.
<mgrwt>
<rscale>  1 0.30000000E+03</rscale>
<asrwt>0</asrwt>
<pdfrwt beam="1">  1        1 0.16091635E+00 0.30000000E+03</pdfrwt>
<pdfrwt beam="2">0</pdfrwt>
<totfact> 0.15836322E+01</totfact>
</mgrwt>
</event>
<event>
 6    1  0.1875959E-004  0.3000000E+03  0.7818608E-02  0.1093470E+00
          1   -1    0    0  502    0  0.00000000000E+00  0.00000000000E+00  0.31038003041E+02  0.31038003041E+02  0.00000000000E+00 0.  1.
         13   -1    0    0    0    0 -0.00000000000E+00 -0.00000000000E+00 -0.10000000000E+04  0.10000000000E+04  0.00000000000E+00 0.  1.
    9000005    2    1    2  501    0  0.97236717960E+01 -0.27995175878E+01 -0.96157475547E+03  0.10185096979E+04  0.33560930760E+03 0.  0.
         13    1    3    3    0    0 -0.11786298325E+03  0.91202121121E+02 -0.26399255546E+03  0.30315273222E+03  0.00000000000E+00 0.  1.
          1    1    3    3  501    0  0.12758665504E+03 -0.94001638709E+02 -0.69758220001E+03  0.71535696571E+03  0.00000000000E+00 0.  1.
         21    1    1    2  502  501 -0.97236717960E+01  0.27995175878E+01 -0.73872414889E+01  0.12528305102E+02  0.00000000000E+00 0. -1.
<mgrwt>
<rscale>  1 0.30000000E+03</rscale>
<asrwt>0</asrwt>
<pdfrwt beam="1">  1        1 0.11286570E+00 0.30000000E+03</pdfrwt>
<pdfrwt beam="2">0</pdfrwt>
<totfact> 0.28572952E+01</totfact>
</mgrwt>
</event>
<event>
 6    1  0.1875959E-004  0.3000000E+03  0.7818608E-02  0.1093470E+00
          1   -1    0    0  502    0  0.00000000000E+00  0.00000000000E+00  0.28866029233E+02  0.28866029233E+02  0.00000000000E+00 0.  1.
         13   -1    0    0    0    0 -0.00000000000E+00 -0.00000000000E+00 -0.10000000000E+04  0.10000000000E+04  0.00000000000E+00 0.  1.
    9000005    2    1    2  501    0 -0.62890401031E+01 -0.81232360171E+01 -0.97051605404E+03  0.10185742456E+04  0.30900897026E+03 0.  0.
         13    1    3    3    0    0 -0.10360840159E+03 -0.62996269833E+01 -0.10515592697E+03  0.14775708158E+03  0.00000000000E+00 0.  1.
          1    1    3    3  501    0  0.97319361482E+02 -0.18236090338E+01 -0.86536012707E+03  0.87081716404E+03  0.00000000000E+00 0.  1.
         21    1    1    2  502  501  0.62890401031E+01  0.81232360171E+01 -0.61791672246E+00  0.10291783610E+02  0.00000000000E+00 0. -1.
<mgrwt>
<rscale>  1 0.30000000E+03</rscale>
<asrwt>0</asrwt>
<pdfrwt beam="1">  1        1 0.10496760E+00 0.30000000E+03</pdfrwt>
<pdfrwt beam="2">0</pdfrwt>
<totfact> 0.31867329E+01</totfact>
</mgrwt>
</event>
<event>
 6    1  0.1875959E-004  0.3000000E+03  0.7818608E-02  0.1093470E+00
          1   -1    0    0  502    0  0.00000000000E+00  0.00000000000E+00  0.36181712144E+02  0.36181712144E+02  0.00000000000E+00 0.  1.
         13   -1    0    0    0    0 -0.00000000000E+00 -0.00000000000E+00 -0.10000000000E+04  0.10000000000E+04  0.00000000000E+00 0.  1.
    9000005    2    1    2  501    0 -0.31150181057E+01 -0.48325061705E+02 -0.86854216912E+03  0.92930536430E+03  0.32695251284E+03 0.  0.
         13    1    3    3    0    0 -0.29299951736E+01  0.73985681005E+02 -0.76635815395E+03  0.76992680560E+03  0.00000000000E+00 0.  1.
          1    1    3    3  501    0 -0.18502293214E+00 -0.12231074271E+03 -0.10218401517E+03  0.15937855870E+03  0.00000000000E+00 0.  1.
         21    1    1    2  502  501  0.31150181057E+01  0.48325061705E+02 -0.95276118739E+02  0.10687634784E+03  0.00000000000E+00 0.  1.
<mgrwt>
<rscale>  1 0.30000000E+03</rscale>
<asrwt>0</asrwt>
<pdfrwt beam="1">  1        1 0.13157014E+00 0.30000000E+03</pdfrwt>
<pdfrwt beam="2">0</pdfrwt>
<totfact> 0.22435103E+01</totfact>
</mgrwt>
</event>
<event>
 6    1  0.1875959E-004  0.3000000E+03  0.7818608E-02  0.1093470E+00
          1   -1    0    0  502    0  0.00000000000E+00  0.00000000000E+00  0.28913694303E+02  0.28913694303E+02  0.00000000000E+00 0.  1.
         13   -1    0    0    0    0 -0.00000000000E+00 -0.00000000000E+00 -0.10000000000E+04  0.10000000000E+04  0.00000000000E+00 0.  1.
    9000005    2    1    2  501    0  0.12480163449E+01 -0.96792057772E+01 -0.95698556045E+03  0.10117650621E+04  0.32825589628E+03 0.  0.
         13    1    3    3    0    0  0.10414554299E+03  0.99694661339E+02 -0.24634620458E+03  0.28543260525E+03  0.00000000000E+00 0.  1.
          1    1    3    3  501    0 -0.10289752665E+03 -0.10937386712E+03 -0.71063935587E+03  0.72633245687E+03  0.00000000000E+00 0.  1.
         21    1    1    2  502  501 -0.12480163449E+01  0.96792057772E+01 -0.14100745243E+02  0.17148632181E+02  0.00000000000E+00 0.  1.
<mgrwt>
<rscale>  1 0.30000000E+03</rscale>
<asrwt>0</asrwt>
<pdfrwt beam="1">  1        1 0.10514093E+00 0.30000000E+03</pdfrwt>
<pdfrwt beam="2">0</pdfrwt>
<totfact> 0.31789323E+01</totfact>
</mgrwt>
</event>
<event>
 6    1  0.1875959E-004  0.3000000E+03  0.7818608E-02  0.1093470E+00
          1   -1    0    0  502    0  0.00000000000E+00  0.00000000000E+00  0.30453309523E+02  0.30453309523E+02  0.00000000000E+00 0.  1.
         13   -1    0    0    0    0 -0.00000000000E+00 -0.00000000000E+00 -0.10000000000E+04  0.10000000000E+04  0.00000000000E+00 0.  1.
    9000005    2    1    2  501    0  0.15448261340E+02  0.10573411767E+02 -0.94002059738E+03  0.99549281770E+03  0.32713419384E+03 0.  0.
         13    1    3    3    0    0 -0.96461498594E+01 -0.13457786949E+03 -0.20200610749E+03  0.24292121897E+03  0.00000000000E+00 0.  1.
          1    1    3    3  501    0  0.25094411200E+02  0.14515128126E+03 -0.73801448989E+03  0.75257159873E+03  0.00000000000E+00 0.  1.
         21    1    1    2  502  501 -0.15448261340E+02 -0.10573411767E+02 -0.29526093101E+02  0.34960491825E+02  0.00000000000E+00 0.  1.
<mgrwt>
<rscale>  1 0.30000000E+03</rscale>
<asrwt>0</asrwt>
<pdfrwt beam="1">  1        1 0.11073954E+00 0.30000000E+03</pdfrwt>
<pdfrwt beam="2">0</pdfrwt>
<totfact> 0.29410256E+01</totfact>
</mgrwt>
</event>
<event>
 6    1  0.1875959E-004  0.3000000E+03  0.7818608E-02  0.1093470E+00
          1   -1    0    0  502    0  0.00000000000E+00  0.00000000000E+00  0.33168642076E+02  0.33168642076E+02  0.00000000000E+00 0.  1.
         13   -1    0    0    0    0 -0.00000000000E+00 -0.00000000000E+00 -0.10000000000E+04  0.10000000000E+04  0.00000000000E+00 0.  1.
    9000005    2    1    2  501    0 -0.26604950976E+02  0.52151447441E+01 -0.94407309784E+03  0.99777147336E+03  0.32177457611E+03 0.  0.
         13    1    3    3    0    0  0.57640766658E+02  0.62312450516E+02 -0.86430726449E+03  0.86846551280E+03  0.00000000000E+00 0.  1.
          3    1    3    3  501    0 -0.84245717634E+02 -0.57097305772E+02 -0.79765833352E+02  0.12930596056E+03  0.00000000000E+00 0.  1.
         21    1    1    2  502  501  0.26604950976E+02 -0.52151447441E+01 -0.22758260080E+02  0.35397168714E+02  0.00000000000E+00 0.  1.
<mgrwt>
<rscale>  1 0.30000000E+03</rscale>
<asrwt>0</asrwt>
<pdfrwt beam="1">  1        1 0.12061350E+00 0.30000000E+03</pdfrwt>
<pdfrwt beam="2">0</pdfrwt>
<totfact> 0.25789488E+01</totfact>
</mgrwt>
</event>
<event>
 6    1  0.1875959E-004  0.3000000E+03  0.7818608E-02  0.1093470E+00
          1   -1    0    0  502    0  0.00000000000E+00  0.00000000000E+00  0.33343050700E+02  0.33343050700E+02  0.00000000000E+00 0.  1.
         13   -1    0    0    0    0 -0.00000000000E+00 -0.00000000000E+00 -0.10000000000E+04  0.10000000000E+04  0.00000000000E+00 0.  1.
    9000005    2    1    2  501    0 -0.22558215288E+02  0.31034143577E+01 -0.95074092028E+03  0.10055613258E+04  0.32669064607E+03 0.  0.
         13    1    3    3    0    0 -0.12977978279E+03 -0.39113851188E+02 -0.82066788649E+03  0.83178630988E+03  0.00000000000E+00 0.  1.
          1    1    3    3  501    0  0.10722156750E+03  0.42217265546E+02 -0.13007303378E+03  0.17377501594E+03  0.00000000000E+00 0.  1.
         21    1    1    2  502  501  0.22558215288E+02 -0.31034143577E+01 -0.15916029023E+02  0.27781724884E+02  0.00000000000E+00 0.  1.
<mgrwt>
<rscale>  1 0.30000000E+03</rscale>
<asrwt>0</asrwt>
<pdfrwt beam="1">  1        1 0.12124771E+00 0.30000000E+03</pdfrwt>
<pdfrwt beam="2">0</pdfrwt>
<totfact> 0.25578273E+01</totfact>
</mgrwt>
</event>
<event>
 6    1  0.1875959E-004  0.3000000E+03  0.7818608E-02  0.1093470E+00
          1   -1    0    0  502    0  0.00000000000E+00  0.00000000000E+00  0.51289559807E+02  0.51289559807E+02  0.00000000000E+00 0.  1.
         13   -1    0    0    0    0 -0.00000000000E+00 -0.00000000000E+00 -0.10000000000E+04  0.10000000000E+04  0.00000000000E+00 0.  1.
    9000005    2    1    2  501    0  0.30853504370E+01 -0.35976749783E+02 -0.95857480469E+03  0.10138576002E+04  0.32823426299E+03 0.  0.
         13    1    3    3    0    0 -0.13356917196E+03 -0.17847496504E+02 -0.18951523813E+03  0.23254092611E+03  0.00000000000E+00 0.  1.
          1    1    3    3  501    0  0.13665452240E+03 -0.18129253278E+02 -0.76905956656E+03  0.78131667410E+03  0.00000000000E+00 0.  1.
         21    1    1    2  502  501 -0.30853504370E+01  0.35976749783E+02  0.98643644993E+01  0.37431959596E+02  0.00000000000E+00 0.  1.
<mgrwt>
<rscale>  1 0.30000000E+03</rscale>
<asrwt>0</asrwt>
<pdfrwt beam="1">  1        1 0.18650788E+00 0.30000000E+03</pdfrwt>
<pdfrwt beam="2">0</pdfrwt>
<totfact> 0.11884302E+01</totfact>
</mgrwt>
</event>
<event>
 6    1  0.1875959E-004  0.3000000E+03  0.7818608E-02  0.1093470E+00
          1   -1    0    0  502    0  0.00000000000E+00  0.00000000000E+00  0.34468491149E+02  0.34468491149E+02  0.00000000000E+00 0.  1.
         13   -1    0    0    0    0 -0.00000000000E+00 -0.00000000000E+00 -0.10000000000E+04  0.10000000000E+04  0.00000000000E+00 0.  1.
    9000005    2    1    2  501    0  0.17595290539E+02 -0.16414310788E+02 -0.95158357145E+03  0.10066553862E+04  0.32751297580E+03 0.  0.
         13    1    3    3    0    0 -0.87601839802E+01 -0.85024373327E+02 -0.44063202040E+02  0.96163665992E+02  0.00000000000E+00 0.  1.
          1    1    3    3  501    0  0.26355474519E+02  0.68610062539E+02 -0.90752036941E+03  0.91049172023E+03  0.00000000000E+00 0.  1.
         21    1    1    2  502  501 -0.17595290539E+02  0.16414310788E+02 -0.13947937403E+02  0.27813104925E+02  0.00000000000E+00 0. -1.
<mgrwt>
<rscale>  1 0.30000000E+03</rscale>
<asrwt>0</asrwt>
<pdfrwt beam="1">  1        1 0.12534023E+00 0.30000000E+03</pdfrwt>
<pdfrwt beam="2">0</pdfrwt>
<totfact> 0.24268384E+01</totfact>
</mgrwt>
</event>
<event>
 6    1  0.1875959E-004  0.3000000E+03  0.7818608E-02  0.1093470E+00
          1   -1    0    0  502    0  0.00000000000E+00  0.00000000000E+00  0.69399058153E+02  0.69399058153E+02  0.00000000000E+00 0.  1.
         13   -1    0    0    0    0 -0.00000000000E+00 -0.00000000000E+00 -0.10000000000E+04  0.10000000000E+04  0.00000000000E+00 0.  1.
    9000005    2    1    2  501    0  0.13986729952E+02 -0.46015902692E+02 -0.95066685785E+03  0.10172863639E+04  0.35887460161E+03 0.  0.
         13    1    3    3    0    0  0.15067548452E+02 -0.15241520969E+03 -0.87099760840E+03  0.88436093367E+03  0.00000000000E+00 0.  1.
          3    1    3    3  501    0 -0.10808185001E+01  0.10639930700E+03 -0.79669249456E+02  0.13292543025E+03  0.00000000000E+00 0.  1.
         21    1    1    2  502  501 -0.13986729952E+02  0.46015902692E+02  0.20065916004E+02  0.52112694235E+02  0.00000000000E+00 0. -1.
<mgrwt>
<rscale>  1 0.30000000E+03</rscale>
<asrwt>0</asrwt>
<pdfrwt beam="1">  1        1 0.25236074E+00 0.30000000E+03</pdfrwt>
<pdfrwt beam="2">0</pdfrwt>
<totfact> 0.58169839E+00</totfact>
</mgrwt>
</event>
<event>
 6    1  0.1875959E-004  0.3000000E+03  0.7818608E-02  0.1093470E+00
          1   -1    0    0  502    0  0.00000000000E+00  0.00000000000E+00  0.28499012113E+02  0.28499012113E+02  0.00000000000E+00 0.  1.
         13   -1    0    0    0    0 -0.00000000000E+00 -0.00000000000E+00 -0.10000000000E+04  0.10000000000E+04  0.00000000000E+00 0.  1.
    9000005    2    1    2  501    0  0.13804549831E+01 -0.11855454728E+02 -0.93359829407E+03  0.98876147745E+03  0.32542438005E+03 0.  0.
         13    1    3    3    0    0  0.12306265254E+03  0.37939363198E+02 -0.76085130891E+03  0.77167255103E+03  0.00000000000E+00 0.  1.
          1    1    3    3  501    0 -0.12168219756E+03 -0.49794817926E+02 -0.17274698515E+03  0.21708892642E+03  0.00000000000E+00 0.  1.
         21    1    1    2  502  501 -0.13804549831E+01  0.11855454728E+02 -0.37902693818E+02  0.39737534667E+02  0.00000000000E+00 0. -1.
<mgrwt>
<rscale>  1 0.30000000E+03</rscale>
<asrwt>0</asrwt>
<pdfrwt beam="1">  1        1 0.10363299E+00 0.30000000E+03</pdfrwt>
<pdfrwt beam="2">0</pdfrwt>
<totfact> 0.32477376E+01</totfact>
</mgrwt>
</event>
<event>
 6    1  0.1875959E-004  0.3000000E+03  0.7818608E-02  0.1093470E+00
          1   -1    0    0  502    0  0.00000000000E+00  0.00000000000E+00  0.32475167380E+02  0.32475167380E+02  0.00000000000E+00 0.  1.
         13   -1    0    0    0    0 -0.00000000000E+00 -0.00000000000E+00 -0.10000000000E+04  0.10000000000E+04  0.00000000000E+00 0.  1.
    9000005    2    1    2  501    0  0.37247393320E+02 -0.30270769834E+02 -0.84989488364E+03  0.90542992854E+03  0.30850989359E+03 0.  0.
         13    1    3    3    0    0 -0.54925172784E+02  0.11490591774E+03 -0.49419686079E+03  0.51034368983E+03  0.00000000000E+00 0.  1.
          3    1    3    3  501    0  0.92172566104E+02 -0.14517668757E+03 -0.35569802286E+03  0.39508623871E+03  0.00000000000E+00 0.  1.
         21    1    1    2  502  501 -0.37247393320E+02  0.30270769834E+02 -0.11762994898E+03  0.12704523884E+03  0.00000000000E+00 0.  1.
<mgrwt>
<rscale>  1 0.30000000E+03</rscale>
<asrwt>0</asrwt>
<pdfrwt beam="1">  1        1 0.11809177E+00 0.30000000E+03</pdfrwt>
<pdfrwt beam="2">0</pdfrwt>
<totfact> 0.26652828E+01</totfact>
</mgrwt>
</event>
<event>
 6    1  0.1875959E-004  0.3000000E+03  0.7818608E-02  0.1093470E+00
          1   -1    0    0  502    0  0.00000000000E+00  0.00000000000E+00  0.28169601974E+02  0.28169601974E+02  0.00000000000E+00 0.  1.
         13   -1    0    0    0    0 -0.00000000000E+00 -0.00000000000E+00 -0.10000000000E+04  0.10000000000E+04  0.00000000000E+00 0.  1.
    9000005    2    1    2  501    0  0.12284060878E+02 -0.32505966103E+01 -0.96661738496E+03  0.10144349729E+04  0.30751858619E+03 0.  0.
         13    1    3    3    0    0 -0.10258523420E+03 -0.90923097866E+02 -0.67735666162E+03  0.69108811814E+03  0.00000000000E+00 0.  1.
          1    1    3    3  501    0  0.11486929507E+03  0.87672501256E+02 -0.28926072334E+03  0.32334685478E+03  0.00000000000E+00 0.  1.
         21    1    1    2  502  501 -0.12284060878E+02  0.32505966103E+01 -0.52130130677E+01  0.13734629053E+02  0.00000000000E+00 0. -1.
<mgrwt>
<rscale>  1 0.30000000E+03</rscale>
<asrwt>0</asrwt>
<pdfrwt beam="1">  1        1 0.10243513E+00 0.30000000E+03</pdfrwt>
<pdfrwt beam="2">0</pdfrwt>
<totfact> 0.33039484E+01</totfact>
</mgrwt>
</event>
<event>
 6    1  0.1875959E-004  0.3000000E+03  0.7818608E-02  0.1093470E+00
          1   -1    0    0  502    0  0.00000000000E+00  0.00000000000E+00  0.65342937371E+02  0.65342937371E+02  0.00000000000E+00 0.  1.
         13   -1    0    0    0    0 -0.00000000000E+00 -0.00000000000E+00 -0.10000000000E+04  0.10000000000E+04  0.00000000000E+00 0.  1.
    9000005    2    1    2  501    0 -0.25436402026E+02  0.10825179688E+02 -0.96980621245E+03  0.10206254039E+04  0.31684054410E+03 0.  0.
         13    1    3    3    0    0  0.73594018805E+02  0.77062435025E+02 -0.11202628140E+03  0.15461108052E+03  0.00000000000E+00 0.  1.
          1    1    3    3  501    0 -0.99030420831E+02 -0.66237255338E+02 -0.85777993105E+03  0.86601432341E+03  0.00000000000E+00 0.  1.
         21    1    1    2  502  501  0.25436402026E+02 -0.10825179688E+02  0.35149149822E+02  0.44717533435E+02  0.00000000000E+00 0.  1.
<mgrwt>
<rscale>  1 0.30000000E+03</rscale>
<asrwt>0</asrwt>
<pdfrwt beam="1">  1        1 0.23761118E+00 0.30000000E+03</pdfrwt>
<pdfrwt beam="2">0</pdfrwt>
<totfact> 0.68174177E+00</totfact>
</mgrwt>
</event>
<event>
 6    1  0.1875959E-004  0.3000000E+03  0.7818608E-02  0.1093470E+00
          1   -1    0    0  502    0  0.00000000000E+00  0.00000000000E+00  0.29781226127E+02  0.29781226127E+02  0.00000000000E+00 0.  1.
         13   -1    0    0    0    0 -0.00000000000E+00 -0.00000000000E+00 -0.10000000000E+04  0.10000000000E+04  0.00000000000E+00 0.  1.
    9000005    2    1    2  501    0  0.17619471044E+02 -0.85749037783E+01 -0.95311684434E+03  0.10037725597E+04  0.31423503615E+03 0.  0.
         13    1    3    3    0    0  0.45472439441E+02  0.81618028684E+02 -0.87848065482E+03  0.88343506057E+03  0.00000000000E+00 0.  1.
          3    1    3    3  501    0 -0.27852968398E+02 -0.90192932462E+02 -0.74636189523E+02  0.12033749915E+03  0.00000000000E+00 0.  1.
         21    1    1    2  502  501 -0.17619471044E+02  0.85749037783E+01 -0.17101929530E+02  0.26008666408E+02  0.00000000000E+00 0.  1.
<mgrwt>
<rscale>  1 0.30000000E+03</rscale>
<asrwt>0</asrwt>
<pdfrwt beam="1">  1        1 0.10829560E+00 0.30000000E+03</pdfrwt>
<pdfrwt beam="2">0</pdfrwt>
<totfact> 0.30416334E+01</totfact>
</mgrwt>
</event>
<event>
 6    1  0.1875959E-004  0.3000000E+03  0.7818608E-02  0.1093470E+00
          1   -1    0    0  502    0  0.00000000000E+00  0.00000000000E+00  0.46688534236E+02  0.46688534236E+02  0.00000000000E+00 0.  1.
         13   -1    0    0    0    0 -0.00000000000E+00 -0.00000000000E+00 -0.10000000000E+04  0.10000000000E+04  0.00000000000E+00 0.  1.
    9000005    2    1    2  501    0 -0.67844477466E+01  0.15454566013E+02 -0.97029112503E+03  0.10227473319E+04  0.32289683368E+03 0.  0.
         13    1    3    3    0    0  0.50967747690E+02 -0.65312513608E+02 -0.49270037727E+02  0.96389690092E+02  0.00000000000E+00 0.  1.
          3    1    3    3  501    0 -0.57752195437E+02  0.80767079621E+02 -0.92102108730E+03  0.92635764178E+03  0.00000000000E+00 0.  1.
         21    1    1    2  502  501  0.67844477466E+01 -0.15454566013E+02  0.16979659265E+02  0.23941202364E+02  0.00000000000E+00 0.  1.
<mgrwt>
<rscale>  1 0.30000000E+03</rscale>
<asrwt>0</asrwt>
<pdfrwt beam="1">  1        1 0.16977685E+00 0.30000000E+03</pdfrwt>
<pdfrwt beam="2">0</pdfrwt>
<totfact> 0.14323123E+01</totfact>
</mgrwt>
</event>
<event>
 6    1  0.1875959E-004  0.3000000E+03  0.7818608E-02  0.1093470E+00
          1   -1    0    0  502    0  0.00000000000E+00  0.00000000000E+00  0.41199150448E+02  0.41199150448E+02  0.00000000000E+00 0.  1.
         13   -1    0    0    0    0 -0.00000000000E+00 -0.00000000000E+00 -0.10000000000E+04  0.10000000000E+04  0.00000000000E+00 0.  1.
    9000005    2    1    2  501    0  0.76960698557E+01  0.16537633740E+02 -0.95901136484E+03  0.10229572444E+04  0.35553621909E+03 0.  0.
         13    1    3    3    0    0 -0.87175053312E+02  0.11770744286E+03 -0.79401536621E+03  0.80741249297E+03  0.00000000000E+00 0.  1.
          1    1    3    3  501    0  0.94871123168E+02 -0.10116980912E+03 -0.16499599863E+03  0.21554475139E+03  0.00000000000E+00 0.  1.
         21    1    1    2  502  501 -0.76960698557E+01 -0.16537633740E+02  0.21051528743E+00  0.18241906085E+02  0.00000000000E+00 0.  1.
<mgrwt>
<rscale>  1 0.30000000E+03</rscale>
<asrwt>0</asrwt>
<pdfrwt beam="1">  1        1 0.14981541E+00 0.30000000E+03</pdfrwt>
<pdfrwt beam="2">0</pdfrwt>
<totfact> 0.18003833E+01</totfact>
</mgrwt>
</event>
<event>
 6    1  0.1875959E-004  0.3000000E+03  0.7818608E-02  0.1093470E+00
          1   -1    0    0  502    0  0.00000000000E+00  0.00000000000E+00  0.48151666380E+02  0.48151666380E+02  0.00000000000E+00 0.  1.
         13   -1    0    0    0    0 -0.00000000000E+00 -0.00000000000E+00 -0.10000000000E+04  0.10000000000E+04  0.00000000000E+00 0.  1.
    9000005    2    1    2  501    0  0.35041475833E+02  0.21079608863E+02 -0.91949391937E+03  0.99600703042E+03  0.38064245945E+03 0.  0.
         13    1    3    3    0    0 -0.34854674519E+02  0.11255456474E+03 -0.85691041394E+03  0.86497331514E+03  0.00000000000E+00 0.  1.
          3    1    3    3  501    0  0.69896150352E+02 -0.91474955881E+02 -0.62583505431E+02  0.13103371528E+03  0.00000000000E+00 0.  1.
         21    1    1    2  502  501 -0.35041475833E+02 -0.21079608863E+02 -0.32354414245E+02  0.52144635961E+02  0.00000000000E+00 0.  1.
<mgrwt>
<rscale>  1 0.30000000E+03</rscale>
<asrwt>0</asrwt>
<pdfrwt beam="1">  1        1 0.17509734E+00 0.30000000E+03</pdfrwt>
<pdfrwt beam="2">0</pdfrwt>
<totfact> 0.13493143E+01</totfact>
</mgrwt>
</event>
<event>
 6    1  0.1875959E-004  0.3000000E+03  0.7818608E-02  0.1093470E+00
          1   -1    0    0  502    0  0.00000000000E+00  0.00000000000E+00  0.28521295304E+02  0.28521295304E+02  0.00000000000E+00 0.  1.
         13   -1    0    0    0    0 -0.00000000000E+00 -0.00000000000E+00 -0.10000000000E+04  0.10000000000E+04  0.00000000000E+00 0.  1.
    9000005    2    1    2  501    0 -0.10087017968E+02 -0.56992578587E+01 -0.95841340395E+03  0.10110590058E+04  0.32179159535E+03 0.  0.
         13    1    3    3    0    0  0.54666917806E+02 -0.85860128802E+02 -0.87958043548E+02  0.13452528032E+03  0.00000000000E+00 0.  1.
          3    1    3    3  501    0 -0.64753935774E+02  0.80160870943E+02 -0.87045536040E+03  0.87653372546E+03  0.00000000000E+00 0.  1.
         21    1    1    2  502  501  0.10087017968E+02  0.56992578587E+01 -0.13065300749E+02  0.17462289520E+02  0.00000000000E+00 0.  1.
<mgrwt>
<rscale>  1 0.30000000E+03</rscale>
<asrwt>0</asrwt>
<pdfrwt beam="1">  1        1 0.10371402E+00 0.30000000E+03</pdfrwt>
<pdfrwt beam="2">0</pdfrwt>
<totfact> 0.32439856E+01</totfact>
</mgrwt>
</event>
<event>
 6    1  0.1875959E-004  0.3000000E+03  0.7818608E-02  0.1093470E+00
          1   -1    0    0  502    0  0.00000000000E+00  0.00000000000E+00  0.31740455451E+02  0.31740455451E+02  0.00000000000E+00 0.  1.
         13   -1    0    0    0    0 -0.00000000000E+00 -0.00000000000E+00 -0.10000000000E+04  0.10000000000E+04  0.00000000000E+00 0.  1.
    9000005    2    1    2  501    0  0.14943025849E+02 -0.32134792791E-01 -0.96621134642E+03  0.10166576782E+04  0.31591956830E+03 0.  0.
         13    1    3    3    0    0  0.15668656870E+03  0.38889264611E+00 -0.33651255414E+03  0.37120281673E+03  0.00000000000E+00 0.  1.
          3    1    3    3  501    0 -0.14174354285E+03 -0.42102743890E+00 -0.62969879227E+03  0.64545486147E+03  0.00000000000E+00 0.  1.
         21    1    1    2  502  501 -0.14943025849E+02  0.32134792791E-01 -0.20481981319E+01  0.15082777256E+02  0.00000000000E+00 0.  1.
<mgrwt>
<rscale>  1 0.30000000E+03</rscale>
<asrwt>0</asrwt>
<pdfrwt beam="1">  1        1 0.11542008E+00 0.30000000E+03</pdfrwt>
<pdfrwt beam="2">0</pdfrwt>
<totfact> 0.27611119E+01</totfact>
</mgrwt>
</event>
<event>
 6    1  0.1875959E-004  0.3000000E+03  0.7818608E-02  0.1093470E+00
          1   -1    0    0  502    0  0.00000000000E+00  0.00000000000E+00  0.72288572824E+02  0.72288572824E+02  0.00000000000E+00 0.  1.
         13   -1    0    0    0    0 -0.00000000000E+00 -0.00000000000E+00 -0.10000000000E+04  0.10000000000E+04  0.00000000000E+00 0.  1.
    9000005    2    1    2  501    0 -0.16448083458E+03 -0.56335736211E+02 -0.82898434848E+03  0.87235184236E+03  0.20869841093E+03 0.  0.
         13    1    3    3    0    0 -0.34346334045E+02 -0.11937281659E+03 -0.32124820446E+03  0.34442698627E+03  0.00000000000E+00 0.  1.
          1    1    3    3  501    0 -0.13013450054E+03  0.63037080380E+02 -0.50773614403E+03  0.52792485610E+03  0.00000000000E+00 0.  1.
         21    1    1    2  502  501  0.16448083458E+03  0.56335736211E+02 -0.98727078694E+02  0.19993673046E+03  0.00000000000E+00 0.  1.
<mgrwt>
<rscale>  1 0.30000000E+03</rscale>
<asrwt>0</asrwt>
<pdfrwt beam="1">  1        1 0.26286809E+00 0.30000000E+03</pdfrwt>
<pdfrwt beam="2">0</pdfrwt>
<totfact> 0.51944376E+00</totfact>
</mgrwt>
</event>
<event>
 6    1  0.1875959E-004  0.3000000E+03  0.7818608E-02  0.1093470E+00
          1   -1    0    0  502    0  0.00000000000E+00  0.00000000000E+00  0.14514873793E+02  0.14514873793E+02  0.00000000000E+00 0.  1.
         13   -1    0    0    0    0 -0.00000000000E+00 -0.00000000000E+00 -0.10000000000E+04  0.10000000000E+04  0.00000000000E+00 0.  1.
    9000005    2    1    2  501    0  0.27657162073E+02  0.62735017299E+01 -0.93502338674E+03  0.95662996567E+03  0.20016963316E+03 0.  0.
         13    1    3    3    0    0 -0.71602468524E+02 -0.47067379701E+02 -0.49769992914E+03  0.50502224821E+03  0.00000000000E+00 0.  1.
          1    1    3    3  501    0  0.99259630597E+02  0.53340881431E+02 -0.43732345760E+03  0.45160771746E+03  0.00000000000E+00 0.  1.
         21    1    1    2  502  501 -0.27657162073E+02 -0.62735017299E+01 -0.50461739469E+02  0.57884908121E+02  0.00000000000E+00 0.  1.
<mgrwt>
<rscale>  1 0.30000000E+03</rscale>
<asrwt>0</asrwt>
<pdfrwt beam="1">  1        1 0.52781471E-01 0.30000000E+03</pdfrwt>
<pdfrwt beam="2">0</pdfrwt>
<totfact> 0.82177944E+01</totfact>
</mgrwt>
</event>
<event>
 6    1  0.1875959E-004  0.3000000E+03  0.7818608E-02  0.1093470E+00
          1   -1    0    0  502    0  0.00000000000E+00  0.00000000000E+00  0.40190299031E+02  0.40190299031E+02  0.00000000000E+00 0.  1.
         13   -1    0    0    0    0 -0.00000000000E+00 -0.00000000000E+00 -0.10000000000E+04  0.10000000000E+04  0.00000000000E+00 0.  1.
    9000005    2    1    2  501    0 -0.28660548066E+02  0.10627991262E+02 -0.94956724269E+03  0.10079522909E+04  0.33668307237E+03 0.  0.
         13    1    3    3    0    0  0.10415085155E+03 -0.11486427392E+03 -0.45690229331E+03  0.48249446311E+03  0.00000000000E+00 0.  1.
          1    1    3    3  501    0 -0.13281139961E+03  0.12549226518E+03 -0.49266494938E+03  0.52545782784E+03  0.00000000000E+00 0.  1.
         21    1    1    2  502  501  0.28660548066E+02 -0.10627991262E+02 -0.10242458279E+02  0.32238008085E+02  0.00000000000E+00 0.  1.
<mgrwt>
<rscale>  1 0.30000000E+03</rscale>
<asrwt>0</asrwt>
<pdfrwt beam="1">  1        1 0.14614685E+00 0.30000000E+03</pdfrwt>
<pdfrwt beam="2">0</pdfrwt>
<totfact> 0.18798714E+01</totfact>
</mgrwt>
</event>
<event>
 6    1  0.1875959E-004  0.3000000E+03  0.7818608E-02  0.1093470E+00
          1   -1    0    0  502    0  0.00000000000E+00  0.00000000000E+00  0.52717669977E+02  0.52717669977E+02  0.00000000000E+00 0.  1.
         13   -1    0    0    0    0 -0.00000000000E+00 -0.00000000000E+00 -0.10000000000E+04  0.10000000000E+04  0.00000000000E+00 0.  1.
    9000005    2    1    2  501    0  0.62900756303E+01  0.52290813688E+02 -0.94761905084E+03  0.10000488212E+04  0.31518547726E+03 0.  0.
         13    1    3    3    0    0 -0.14144468218E+03 -0.35875809952E+02 -0.38564167933E+03  0.41232654134E+03  0.00000000000E+00 0.  1.
          1    1    3    3  501    0  0.14773475781E+03  0.88166623640E+02 -0.56197737151E+03  0.58772227989E+03  0.00000000000E+00 0.  1.
         21    1    1    2  502  501 -0.62900756303E+01 -0.52290813688E+02  0.33672081951E+00  0.52668848748E+02  0.00000000000E+00 0. -1.
<mgrwt>
<rscale>  1 0.30000000E+03</rscale>
<asrwt>0</asrwt>
<pdfrwt beam="1">  1        1 0.19170102E+00 0.30000000E+03</pdfrwt>
<pdfrwt beam="2">0</pdfrwt>
<totfact> 0.11221209E+01</totfact>
</mgrwt>
</event>
<event>
 6    1  0.1875959E-004  0.3000000E+03  0.7818608E-02  0.1093470E+00
          1   -1    0    0  502    0  0.00000000000E+00  0.00000000000E+00  0.32025801851E+02  0.32025801851E+02  0.00000000000E+00 0.  1.
         13   -1    0    0    0    0 -0.00000000000E+00 -0.00000000000E+00 -0.10000000000E+04  0.10000000000E+04  0.00000000000E+00 0.  1.
    9000005    2    1    2  501    0  0.45796886804E+01  0.15641773851E+02 -0.96034711574E+03  0.10140310520E+04  0.32515650538E+03 0.  0.
         13    1    3    3    0    0  0.15803170061E+03  0.46889654732E+02 -0.57257406304E+03  0.59583027431E+03  0.00000000000E+00 0.  1.
          1    1    3    3  501    0 -0.15345201193E+03 -0.31247880881E+02 -0.38777305270E+03  0.41820077765E+03  0.00000000000E+00 0.  1.
         21    1    1    2  502  501 -0.45796886804E+01 -0.15641773851E+02 -0.76270824140E+01  0.17994749894E+02  0.00000000000E+00 0.  1.
<mgrwt>
<rscale>  1 0.30000000E+03</rscale>
<asrwt>0</asrwt>
<pdfrwt beam="1">  1        1 0.11645771E+00 0.30000000E+03</pdfrwt>
<pdfrwt beam="2">0</pdfrwt>
<totfact> 0.27233371E+01</totfact>
</mgrwt>
</event>
<event>
 6    1  0.1875959E-004  0.3000000E+03  0.7818608E-02  0.1093470E+00
          1   -1    0    0  502    0  0.00000000000E+00  0.00000000000E+00  0.27877748171E+02  0.27877748171E+02  0.00000000000E+00 0.  1.
         13   -1    0    0    0    0 -0.00000000000E+00 -0.00000000000E+00 -0.10000000000E+04  0.10000000000E+04  0.00000000000E+00 0.  1.
    9000005    2    1    2  501    0 -0.14319066325E+02 -0.61693365471E+01 -0.93855031898E+03  0.99086192656E+03  0.31731303138E+03 0.  0.
         13    1    3    3    0    0  0.11224188386E+03 -0.10247194877E+03 -0.35804927603E+03  0.38897046783E+03  0.00000000000E+00 0.  1.
          1    1    3    3  501    0 -0.12656095019E+03  0.96302612221E+02 -0.58050104295E+03  0.60189145874E+03  0.00000000000E+00 0.  1.
         21    1    1    2  502  501  0.14319066325E+02  0.61693365471E+01 -0.33571932853E+02  0.37015821608E+02  0.00000000000E+00 0.  1.
<mgrwt>
<rscale>  1 0.30000000E+03</rscale>
<asrwt>0</asrwt>
<pdfrwt beam="1">  1        1 0.10137384E+00 0.30000000E+03</pdfrwt>
<pdfrwt beam="2">0</pdfrwt>
<totfact> 0.33549457E+01</totfact>
</mgrwt>
</event>
<event>
 6    1  0.1875959E-004  0.3000000E+03  0.7818608E-02  0.1093470E+00
          1   -1    0    0  502    0  0.00000000000E+00  0.00000000000E+00  0.45864023268E+02  0.45864023268E+02  0.00000000000E+00 0.  1.
         13   -1    0    0    0    0 -0.00000000000E+00 -0.00000000000E+00 -0.10000000000E+04  0.10000000000E+04  0.00000000000E+00 0.  1.
    9000005    2    1    2  501    0 -0.58183589485E+02  0.39546865741E+02 -0.88173277734E+03  0.94491102451E+03  0.33234751231E+03 0.  0.
         13    1    3    3    0    0 -0.47744746918E+02 -0.99713607479E+02 -0.94655133180E+02  0.14554023022E+03  0.00000000000E+00 0.  1.
          1    1    3    3  501    0 -0.10438842567E+02  0.13926047322E+03 -0.78707764416E+03  0.79937079429E+03  0.00000000000E+00 0.  1.
         21    1    1    2  502  501  0.58183589485E+02 -0.39546865741E+02 -0.72403199393E+02  0.10095299876E+03  0.00000000000E+00 0. -1.
<mgrwt>
<rscale>  1 0.30000000E+03</rscale>
<asrwt>0</asrwt>
<pdfrwt beam="1">  1        1 0.16677862E+00 0.30000000E+03</pdfrwt>
<pdfrwt beam="2">0</pdfrwt>
<totfact> 0.14815899E+01</totfact>
</mgrwt>
</event>
<event>
 6    1  0.1875959E-004  0.3000000E+03  0.7818608E-02  0.1093470E+00
          1   -1    0    0  502    0  0.00000000000E+00  0.00000000000E+00  0.33530984902E+02  0.33530984902E+02  0.00000000000E+00 0.  1.
         13   -1    0    0    0    0 -0.00000000000E+00 -0.00000000000E+00 -0.10000000000E+04  0.10000000000E+04  0.00000000000E+00 0.  1.
    9000005    2    1    2  501    0 -0.13150231960E+02 -0.70538620206E+01 -0.94880205701E+03  0.10104050908E+04  0.34708848808E+03 0.  0.
         13    1    3    3    0    0 -0.13852688935E+03  0.60632674372E+02 -0.21471503568E+03  0.26261867188E+03  0.00000000000E+00 0.  1.
          3    1    3    3  501    0  0.12537665739E+03 -0.67686536393E+02 -0.73408702133E+03  0.74778641891E+03  0.00000000000E+00 0.  1.
         21    1    1    2  502  501  0.13150231960E+02  0.70538620206E+01 -0.17666958092E+02  0.23125894107E+02  0.00000000000E+00 0.  1.
<mgrwt>
<rscale>  1 0.30000000E+03</rscale>
<asrwt>0</asrwt>
<pdfrwt beam="1">  1        1 0.12193111E+00 0.30000000E+03</pdfrwt>
<pdfrwt beam="2">0</pdfrwt>
<totfact> 0.25353235E+01</totfact>
</mgrwt>
</event>
<event>
 6    1  0.1875959E-004  0.3000000E+03  0.7818608E-02  0.1093470E+00
          1   -1    0    0  502    0  0.00000000000E+00  0.00000000000E+00  0.57024975957E+02  0.57024975957E+02  0.00000000000E+00 0.  1.
         13   -1    0    0    0    0 -0.00000000000E+00 -0.00000000000E+00 -0.10000000000E+04  0.10000000000E+04  0.00000000000E+00 0.  1.
    9000005    2    1    2  501    0  0.14950875625E+02 -0.39072659879E+01 -0.97246751403E+03  0.10237292949E+04  0.31951495749E+03 0.  0.
         13    1    3    3    0    0 -0.16044872307E+02  0.15565909606E+03 -0.51444586477E+03  0.53771901574E+03  0.00000000000E+00 0.  1.
          1    1    3    3  501    0  0.30995747932E+02 -0.15956636205E+03 -0.45802164926E+03  0.48601027919E+03  0.00000000000E+00 0.  1.
         21    1    1    2  502  501 -0.14950875625E+02  0.39072659879E+01  0.29492489984E+02  0.33295681025E+02  0.00000000000E+00 0.  1.
<mgrwt>
<rscale>  1 0.30000000E+03</rscale>
<asrwt>0</asrwt>
<pdfrwt beam="1">  1        1 0.20736399E+00 0.30000000E+03</pdfrwt>
<pdfrwt beam="2">0</pdfrwt>
<totfact> 0.94521928E+00</totfact>
</mgrwt>
</event>
<event>
 6    1  0.1875959E-004  0.3000000E+03  0.7818608E-02  0.1093470E+00
          1   -1    0    0  502    0  0.00000000000E+00  0.00000000000E+00  0.47410607238E+02  0.47410607238E+02  0.00000000000E+00 0.  1.
         13   -1    0    0    0    0 -0.00000000000E+00 -0.00000000000E+00 -0.10000000000E+04  0.10000000000E+04  0.00000000000E+00 0.  1.
    9000005    2    1    2  501    0  0.10505159510E+02 -0.11578259332E+03 -0.71865410635E+03  0.78617951123E+03  0.29681396869E+03 0.  0.
         13    1    3    3    0    0 -0.21347522105E+02 -0.11688158925E+03 -0.72391377911E+02  0.13913135592E+03  0.00000000000E+00 0.  1.
          1    1    3    3  501    0  0.31852681615E+02  0.10989959250E+01 -0.64626272844E+03  0.64704815531E+03  0.00000000000E+00 0.  1.
         21    1    1    2  502  501 -0.10505159510E+02  0.11578259332E+03 -0.23393528641E+03  0.26123109601E+03  0.00000000000E+00 0.  1.
<mgrwt>
<rscale>  1 0.30000000E+03</rscale>
<asrwt>0</asrwt>
<pdfrwt beam="1">  1        1 0.17240257E+00 0.30000000E+03</pdfrwt>
<pdfrwt beam="2">0</pdfrwt>
<totfact> 0.13906687E+01</totfact>
</mgrwt>
</event>
<event>
 6    1  0.1875959E-004  0.3000000E+03  0.7818608E-02  0.1093470E+00
          1   -1    0    0  502    0  0.00000000000E+00  0.00000000000E+00  0.32586740736E+02  0.32586740736E+02  0.00000000000E+00 0.  1.
         13   -1    0    0    0    0 -0.00000000000E+00 -0.00000000000E+00 -0.10000000000E+04  0.10000000000E+04  0.00000000000E+00 0.  1.
    9000005    2    1    2  501    0 -0.41187955826E+01 -0.11504597773E+02 -0.97093453194E+03  0.10198698383E+04  0.31188347416E+03 0.  0.
         13    1    3    3    0    0 -0.90713737728E+02  0.23575475345E+01 -0.69815360218E+02  0.11449333939E+03  0.00000000000E+00 0.  1.
          1    1    3    3  501    0  0.86594942145E+02 -0.13862145307E+02 -0.90111917172E+03  0.90537649888E+03  0.00000000000E+00 0.  1.
         21    1    1    2  502  501  0.41187955826E+01  0.11504597773E+02  0.35212726782E+01  0.12716902462E+02  0.00000000000E+00 0. -1.
<mgrwt>
<rscale>  1 0.30000000E+03</rscale>
<asrwt>0</asrwt>
<pdfrwt beam="1">  1        1 0.11849749E+00 0.30000000E+03</pdfrwt>
<pdfrwt beam="2">0</pdfrwt>
<totfact> 0.26511315E+01</totfact>
</mgrwt>
</event>
<event>
 6    1  0.1875959E-004  0.3000000E+03  0.7818608E-02  0.1093470E+00
          1   -1    0    0  502    0  0.00000000000E+00  0.00000000000E+00  0.29460602574E+02  0.29460602574E+02  0.00000000000E+00 0.  1.
         13   -1    0    0    0    0 -0.00000000000E+00 -0.00000000000E+00 -0.10000000000E+04  0.10000000000E+04  0.00000000000E+00 0.  1.
    9000005    2    1    2  501    0  0.93373849448E+01 -0.11038991484E+02 -0.97627158718E+03  0.10139073364E+04  0.27329988787E+03 0.  0.
         13    1    3    3    0    0 -0.84799263048E+02  0.85187290378E+02 -0.64891163106E+03  0.65995006961E+03  0.00000000000E+00 0.  1.
          1    1    3    3  501    0  0.94136647993E+02 -0.96226281862E+02 -0.32735995612E+03  0.35395726675E+03  0.00000000000E+00 0.  1.
         21    1    1    2  502  501 -0.93373849448E+01  0.11038991484E+02  0.57321897492E+01  0.15553266214E+02  0.00000000000E+00 0.  1.
<mgrwt>
<rscale>  1 0.30000000E+03</rscale>
<asrwt>0</asrwt>
<pdfrwt beam="1">  1        1 0.10712969E+00 0.30000000E+03</pdfrwt>
<pdfrwt beam="2">0</pdfrwt>
<totfact> 0.30913655E+01</totfact>
</mgrwt>
</event>
<event>
 6    1  0.1875959E-004  0.3000000E+03  0.7818608E-02  0.1093470E+00
          1   -1    0    0  502    0  0.00000000000E+00  0.00000000000E+00  0.36951965997E+02  0.36951965997E+02  0.00000000000E+00 0.  1.
         13   -1    0    0    0    0 -0.00000000000E+00 -0.00000000000E+00 -0.10000000000E+04  0.10000000000E+04  0.00000000000E+00 0.  1.
    9000005    2    1    2  501    0 -0.43361757939E+02 -0.48398901355E+01 -0.93301218534E+03  0.98398198589E+03  0.30952406040E+03 0.  0.
         13    1    3    3    0    0  0.41324554829E+02  0.11605471406E+03 -0.67993683376E+03  0.69100688375E+03  0.00000000000E+00 0.  1.
          3    1    3    3  501    0 -0.84686312768E+02 -0.12089460419E+03 -0.25307535158E+03  0.29297510214E+03  0.00000000000E+00 0.  1.
         21    1    1    2  502  501  0.43361757939E+02  0.48398901355E+01 -0.30035848663E+02  0.52969980111E+02  0.00000000000E+00 0.  1.
<mgrwt>
<rscale>  1 0.30000000E+03</rscale>
<asrwt>0</asrwt>
<pdfrwt beam="1">  1        1 0.13437107E+00 0.30000000E+03</pdfrwt>
<pdfrwt beam="2">0</pdfrwt>
<totfact> 0.21669625E+01</totfact>
</mgrwt>
</event>
<event>
 6    1  0.1875959E-004  0.3000000E+03  0.7818608E-02  0.1093470E+00
          1   -1    0    0  502    0  0.00000000000E+00  0.00000000000E+00  0.32454653113E+02  0.32454653113E+02  0.00000000000E+00 0.  1.
         13   -1    0    0    0    0 -0.00000000000E+00 -0.00000000000E+00 -0.10000000000E+04  0.10000000000E+04  0.00000000000E+00 0.  1.
    9000005    2    1    2  501    0  0.16745400816E+02 -0.28786309939E+02 -0.76314118031E+03  0.82535534504E+03  0.31259866350E+03 0.  0.
         13    1    3    3    0    0 -0.35071110442E+02 -0.15494674861E+03 -0.54853795397E+03  0.57107999846E+03  0.00000000000E+00 0.  1.
          1    1    3    3  501    0  0.51816511257E+02  0.12616043868E+03 -0.21460322633E+03  0.25427534658E+03  0.00000000000E+00 0.  1.
         21    1    1    2  502  501 -0.16745400816E+02  0.28786309939E+02 -0.20440416658E+03  0.20709930807E+03  0.00000000000E+00 0.  1.
<mgrwt>
<rscale>  1 0.30000000E+03</rscale>
<asrwt>0</asrwt>
<pdfrwt beam="1">  1        1 0.11801717E+00 0.30000000E+03</pdfrwt>
<pdfrwt beam="2">0</pdfrwt>
<totfact> 0.26678960E+01</totfact>
</mgrwt>
</event>
<event>
 6    1  0.1875959E-004  0.3000000E+03  0.7818608E-02  0.1093470E+00
          1   -1    0    0  502    0  0.00000000000E+00  0.00000000000E+00  0.38767131593E+02  0.38767131593E+02  0.00000000000E+00 0.  1.
         13   -1    0    0    0    0 -0.00000000000E+00 -0.00000000000E+00 -0.10000000000E+04  0.10000000000E+04  0.00000000000E+00 0.  1.
    9000005    2    1    2  501    0  0.14448221120E+02 -0.16453997122E+02 -0.96151966255E+03  0.10168681050E+04  0.33018357983E+03 0.  0.
         13    1    3    3    0    0  0.56057352845E+02  0.14726909674E+03 -0.54711280202E+03  0.56935316965E+03  0.00000000000E+00 0.  1.
          1    1    3    3  501    0 -0.41609131725E+02 -0.16372309386E+03 -0.41440686053E+03  0.44751493535E+03  0.00000000000E+00 0.  1.
         21    1    1    2  502  501 -0.14448221120E+02  0.16453997122E+02  0.28679413971E+00  0.21899026593E+02  0.00000000000E+00 0.  1.
<mgrwt>
<rscale>  1 0.30000000E+03</rscale>
<asrwt>0</asrwt>
<pdfrwt beam="1">  1        1 0.14097168E+00 0.30000000E+03</pdfrwt>
<pdfrwt beam="2">0</pdfrwt>
<totfact> 0.19996627E+01</totfact>
</mgrwt>
</event>
<event>
 6    1  0.1875959E-004  0.3000000E+03  0.7818608E-02  0.1093470E+00
          1   -1    0    0  502    0  0.00000000000E+00  0.00000000000E+00  0.48112455531E+02  0.48112455531E+02  0.00000000000E+00 0.  1.
         13   -1    0    0    0    0 -0.00000000000E+00 -0.00000000000E+00 -0.10000000000E+04  0.10000000000E+04  0.00000000000E+00 0.  1.
    9000005    2    1    2  501    0  0.12542315142E+01 -0.23393905066E+02 -0.97036221616E+03  0.10182768831E+04  0.30779235226E+03 0.  0.
         13    1    3    3    0    0  0.25512803761E+02  0.12982614569E+03 -0.63689189520E+03  0.65048982884E+03  0.00000000000E+00 0.  1.
          3    1    3    3  501    0 -0.24258572247E+02 -0.15322005075E+03 -0.33347032097E+03  0.36778705421E+03  0.00000000000E+00 0.  1.
         21    1    1    2  502  501 -0.12542315142E+01  0.23393905066E+02  0.18474671693E+02  0.29835572478E+02  0.00000000000E+00 0.  1.
<mgrwt>
<rscale>  1 0.30000000E+03</rscale>
<asrwt>0</asrwt>
<pdfrwt beam="1">  1        1 0.17495475E+00 0.30000000E+03</pdfrwt>
<pdfrwt beam="2">0</pdfrwt>
<totfact> 0.13514689E+01</totfact>
</mgrwt>
</event>
<event>
 6    1  0.1875959E-004  0.3000000E+03  0.7818608E-02  0.1093470E+00
          1   -1    0    0  502    0  0.00000000000E+00  0.00000000000E+00  0.56440465679E+02  0.56440465679E+02  0.00000000000E+00 0.  1.
         13   -1    0    0    0    0 -0.00000000000E+00 -0.00000000000E+00 -0.10000000000E+04  0.10000000000E+04  0.00000000000E+00 0.  1.
    9000005    2    1    2  501    0 -0.68094390506E+01  0.74752680027E+01 -0.97231946499E+03  0.10259547034E+04  0.32722417893E+03 0.  0.
         13    1    3    3    0    0 -0.15882978512E+03 -0.15323230757E+02 -0.64333291354E+03  0.66282647781E+03  0.00000000000E+00 0.  1.
          3    1    3    3  501    0  0.15202034607E+03  0.22798498760E+02 -0.32898655145E+03  0.36312822556E+03  0.00000000000E+00 0.  1.
         21    1    1    2  502  501  0.68094390506E+01 -0.74752680027E+01  0.28759930666E+02  0.30485762313E+02  0.00000000000E+00 0.  1.
<mgrwt>
<rscale>  1 0.30000000E+03</rscale>
<asrwt>0</asrwt>
<pdfrwt beam="1">  1        1 0.20523849E+00 0.30000000E+03</pdfrwt>
<pdfrwt beam="2">0</pdfrwt>
<totfact> 0.96735770E+00</totfact>
</mgrwt>
</event>
<event>
 6    1  0.1875959E-004  0.3000000E+03  0.7818608E-02  0.1093470E+00
          1   -1    0    0  502    0  0.00000000000E+00  0.00000000000E+00  0.35208413033E+02  0.35208413033E+02  0.00000000000E+00 0.  1.
         13   -1    0    0    0    0 -0.00000000000E+00 -0.00000000000E+00 -0.10000000000E+04  0.10000000000E+04  0.00000000000E+00 0.  1.
    9000005    2    1    2  501    0  0.24751212288E+01 -0.20841033844E+02 -0.96989344641E+03  0.10136097120E+04  0.29371904251E+03 0.  0.
         13    1    3    3    0    0  0.83790390950E+02  0.10520449858E+03 -0.59088604313E+03  0.60599928391E+03  0.00000000000E+00 0.  1.
          3    1    3    3  501    0 -0.81315269721E+02 -0.12604553243E+03 -0.37900740329E+03  0.40761042808E+03  0.00000000000E+00 0.  1.
         21    1    1    2  502  501 -0.24751212288E+01  0.20841033844E+02  0.51018594470E+01  0.21598701040E+02  0.00000000000E+00 0. -1.
<mgrwt>
<rscale>  1 0.30000000E+03</rscale>
<asrwt>0</asrwt>
<pdfrwt beam="1">  1        1 0.12803086E+00 0.30000000E+03</pdfrwt>
<pdfrwt beam="2">0</pdfrwt>
<totfact> 0.23453779E+01</totfact>
</mgrwt>
</event>
<event>
 6    1  0.1875959E-004  0.3000000E+03  0.7818608E-02  0.1093470E+00
          1   -1    0    0  502    0  0.00000000000E+00  0.00000000000E+00  0.36355585800E+02  0.36355585800E+02  0.00000000000E+00 0.  1.
         13   -1    0    0    0    0 -0.00000000000E+00 -0.00000000000E+00 -0.10000000000E+04  0.10000000000E+04  0.00000000000E+00 0.  1.
    9000005    2    1    2  501    0 -0.21594891092E+02 -0.40878117079E+02 -0.84819916382E+03  0.91199737090E+03  0.33190363549E+03 0.  0.
         13    1    3    3    0    0  0.62154684689E+02 -0.51457690289E+02 -0.81856378634E+03  0.82253131918E+03  0.00000000000E+00 0.  1.
          1    1    3    3  501    0 -0.83749575781E+02  0.10579573211E+02 -0.29635377479E+02  0.89466051724E+02  0.00000000000E+00 0.  1.
         21    1    1    2  502  501  0.21594891092E+02  0.40878117079E+02 -0.11544525038E+03  0.12435821490E+03  0.00000000000E+00 0.  1.
<mgrwt>
<rscale>  1 0.30000000E+03</rscale>
<asrwt>0</asrwt>
<pdfrwt beam="1">  1        1 0.13220241E+00 0.30000000E+03</pdfrwt>
<pdfrwt beam="2">0</pdfrwt>
<totfact> 0.22259233E+01</totfact>
</mgrwt>
</event>
<event>
 6    1  0.1875959E-004  0.3000000E+03  0.7818608E-02  0.1093470E+00
          1   -1    0    0  502    0  0.00000000000E+00  0.00000000000E+00  0.30100947829E+02  0.30100947829E+02  0.00000000000E+00 0.  1.
         13   -1    0    0    0    0 -0.00000000000E+00 -0.00000000000E+00 -0.10000000000E+04  0.10000000000E+04  0.00000000000E+00 0.  1.
    9000005    2    1    2  501    0 -0.71021837265E+01 -0.83298875069E+01 -0.96832327771E+03  0.10190415127E+04  0.31729451063E+03 0.  0.
         13    1    3    3    0    0 -0.16131094290E+03  0.53725330146E+01 -0.44870506170E+03  0.47685041344E+03  0.00000000000E+00 0.  1.
          3    1    3    3  501    0  0.15420875917E+03 -0.13702420521E+02 -0.51961821601E+03  0.54219109928E+03  0.00000000000E+00 0.  1.
         21    1    1    2  502  501  0.71021837265E+01  0.83298875069E+01 -0.15757744649E+01  0.11059435100E+02  0.00000000000E+00 0. -1.
<mgrwt>
<rscale>  1 0.30000000E+03</rscale>
<asrwt>0</asrwt>
<pdfrwt beam="1">  1        1 0.10945822E+00 0.30000000E+03</pdfrwt>
<pdfrwt beam="2">0</pdfrwt>
<totfact> 0.29931720E+01</totfact>
</mgrwt>
</event>
<event>
 6    1  0.1875959E-004  0.3000000E+03  0.7818608E-02  0.1093470E+00
          1   -1    0    0  502    0  0.00000000000E+00  0.00000000000E+00  0.28565458188E+02  0.28565458188E+02  0.00000000000E+00 0.  1.
         13   -1    0    0    0    0 -0.00000000000E+00 -0.00000000000E+00 -0.10000000000E+04  0.10000000000E+04  0.00000000000E+00 0.  1.
    9000005    2    1    2  501    0  0.10497196428E+02  0.62849580301E+01 -0.95682970911E+03  0.10095130838E+04  0.32162693041E+03 0.  0.
         13    1    3    3    0    0  0.16080788307E+03  0.14537575282E+02 -0.37025787510E+03  0.40393243299E+03  0.00000000000E+00 0.  1.
          1    1    3    3  501    0 -0.15031068665E+03 -0.82526172523E+01 -0.58657183402E+03  0.60558065084E+03  0.00000000000E+00 0.  1.
         21    1    1    2  502  501 -0.10497196428E+02 -0.62849580301E+01 -0.14604832698E+02  0.19052374351E+02  0.00000000000E+00 0.  1.
<mgrwt>
<rscale>  1 0.30000000E+03</rscale>
<asrwt>0</asrwt>
<pdfrwt beam="1">  1        1 0.10387461E+00 0.30000000E+03</pdfrwt>
<pdfrwt beam="2">0</pdfrwt>
<totfact> 0.32365682E+01</totfact>
</mgrwt>
</event>
<event>
 6    1  0.1875959E-004  0.3000000E+03  0.7818608E-02  0.1093470E+00
          1   -1    0    0  502    0  0.00000000000E+00  0.00000000000E+00  0.37090650506E+02  0.37090650506E+02  0.00000000000E+00 0.  1.
         13   -1    0    0    0    0 -0.00000000000E+00 -0.00000000000E+00 -0.10000000000E+04  0.10000000000E+04  0.00000000000E+00 0.  1.
    9000005    2    1    2  501    0  0.32734090903E+02 -0.37812143406E+02 -0.90191181826E+03  0.95821113661E+03  0.31972234127E+03 0.  0.
         13    1    3    3    0    0  0.18639870222E+02 -0.17984824563E+03 -0.51354775250E+03  0.54444846434E+03  0.00000000000E+00 0.  1.
          3    1    3    3  501    0  0.14094220680E+02  0.14203610223E+03 -0.38836406576E+03  0.41376267227E+03  0.00000000000E+00 0.  1.
         21    1    1    2  502  501 -0.32734090903E+02  0.37812143406E+02 -0.60997531230E+02  0.78879513895E+02  0.00000000000E+00 0.  1.
<mgrwt>
<rscale>  1 0.30000000E+03</rscale>
<asrwt>0</asrwt>
<pdfrwt beam="1">  1        1 0.13487538E+00 0.30000000E+03</pdfrwt>
<pdfrwt beam="2">0</pdfrwt>
<totfact> 0.21535487E+01</totfact>
</mgrwt>
</event>
<event>
 6    1  0.1875959E-004  0.3000000E+03  0.7818608E-02  0.1093470E+00
          1   -1    0    0  502    0  0.00000000000E+00  0.00000000000E+00  0.28164292239E+02  0.28164292239E+02  0.00000000000E+00 0.  1.
         13   -1    0    0    0    0 -0.00000000000E+00 -0.00000000000E+00 -0.10000000000E+04  0.10000000000E+04  0.00000000000E+00 0.  1.
    9000005    2    1    2  501    0  0.12086355371E+02  0.70769033170E+01 -0.96269117638E+03  0.10114375173E+04  0.30989576911E+03 0.  0.
         13    1    3    3    0    0  0.69374043792E+02  0.14466248370E+03 -0.53386699118E+03  0.55745309795E+03  0.00000000000E+00 0.  1.
          3    1    3    3  501    0 -0.57287688422E+02 -0.13758558038E+03 -0.42882418520E+03  0.45398441932E+03  0.00000000000E+00 0.  1.
         21    1    1    2  502  501 -0.12086355371E+02 -0.70769033170E+01 -0.91445313833E+01  0.16726774971E+02  0.00000000000E+00 0.  1.
<mgrwt>
<rscale>  1 0.30000000E+03</rscale>
<asrwt>0</asrwt>
<pdfrwt beam="1">  1        1 0.10241582E+00 0.30000000E+03</pdfrwt>
<pdfrwt beam="2">0</pdfrwt>
<totfact> 0.33048660E+01</totfact>
</mgrwt>
</event>
<event>
 6    1  0.1875959E-004  0.3000000E+03  0.7818608E-02  0.1093470E+00
          3   -1    0    0  502    0  0.00000000000E+00  0.00000000000E+00  0.33173716750E+02  0.33173716750E+02  0.00000000000E+00 0.  1.
         13   -1    0    0    0    0 -0.00000000000E+00 -0.00000000000E+00 -0.10000000000E+04  0.10000000000E+04  0.00000000000E+00 0.  1.
    9000005    2    1    2  501    0 -0.10721927273E+01 -0.99192223233E+01 -0.97070071502E+03  0.10224708297E+04  0.32107192179E+03 0.  0.
         13    1    3    3    0    0  0.26329706181E+01 -0.28167210289E+02 -0.99300943478E+03  0.99341233223E+03  0.00000000000E+00 0.  1.
          3    1    3    3  501    0 -0.37051633453E+01  0.18247987965E+02  0.22308719759E+02  0.29058497509E+02  0.00000000000E+00 0.  1.
         21    1    1    2  502  501  0.10721927273E+01  0.99192223233E+01  0.38744317714E+01  0.10702887008E+02  0.00000000000E+00 0. -1.
<mgrwt>
<rscale>  1 0.30000000E+03</rscale>
<asrwt>0</asrwt>
<pdfrwt beam="1">  1        3 0.12063195E+00 0.30000000E+03</pdfrwt>
<pdfrwt beam="2">0</pdfrwt>
<totfact> 0.22742823E+00</totfact>
</mgrwt>
</event>
<event>
 6    1  0.1875959E-004  0.3000000E+03  0.7818608E-02  0.1093470E+00
          1   -1    0    0  502    0  0.00000000000E+00  0.00000000000E+00  0.37621760613E+02  0.37621760613E+02  0.00000000000E+00 0.  1.
         13   -1    0    0    0    0 -0.00000000000E+00 -0.00000000000E+00 -0.10000000000E+04  0.10000000000E+04  0.00000000000E+00 0.  1.
    9000005    2    1    2  501    0 -0.16766238813E+02 -0.80353860672E+01 -0.96535703711E+03  0.10187923307E+04  0.32508142043E+03 0.  0.
         13    1    3    3    0    0  0.90246297157E+02  0.11695859394E+03 -0.31465744408E+03  0.34761043420E+03  0.00000000000E+00 0.  1.
          1    1    3    3  501    0 -0.10701253597E+03 -0.12499398001E+03 -0.65069959303E+03  0.67118189655E+03  0.00000000000E+00 0.  1.
         21    1    1    2  502  501  0.16766238813E+02  0.80353860672E+01  0.29787977197E+01  0.18829429865E+02  0.00000000000E+00 0.  1.
<mgrwt>
<rscale>  1 0.30000000E+03</rscale>
<asrwt>0</asrwt>
<pdfrwt beam="1">  1        1 0.13680669E+00 0.30000000E+03</pdfrwt>
<pdfrwt beam="2">0</pdfrwt>
<totfact> 0.21031903E+01</totfact>
</mgrwt>
</event>
<event>
 6    1  0.1875959E-004  0.3000000E+03  0.7818608E-02  0.1093470E+00
          1   -1    0    0  502    0  0.00000000000E+00  0.00000000000E+00  0.28768967762E+02  0.28768967762E+02  0.00000000000E+00 0.  1.
         13   -1    0    0    0    0 -0.00000000000E+00 -0.00000000000E+00 -0.10000000000E+04  0.10000000000E+04  0.00000000000E+00 0.  1.
    9000005    2    1    2  501    0 -0.23356716349E+01 -0.75265850406E+01 -0.95009011079E+03  0.10062069775E+04  0.33123882340E+03 0.  0.
         13    1    3    3    0    0 -0.16585656071E+03 -0.21418951786E+01 -0.53139576917E+03  0.55668164146E+03  0.00000000000E+00 0.  1.
          1    1    3    3  501    0  0.16352088908E+03 -0.53846898620E+01 -0.41869434163E+03  0.44952533606E+03  0.00000000000E+00 0.  1.
         21    1    1    2  502  501  0.23356716349E+01  0.75265850406E+01 -0.21140921445E+02  0.22561990247E+02  0.00000000000E+00 0.  1.
<mgrwt>
<rscale>  1 0.30000000E+03</rscale>
<asrwt>0</asrwt>
<pdfrwt beam="1">  1        1 0.10461465E+00 0.30000000E+03</pdfrwt>
<pdfrwt beam="2">0</pdfrwt>
<totfact> 0.32027036E+01</totfact>
</mgrwt>
</event>
<event>
 6    1  0.1875959E-004  0.3000000E+03  0.7818608E-02  0.1093470E+00
          1   -1    0    0  502    0  0.00000000000E+00  0.00000000000E+00  0.29558925474E+02  0.29558925474E+02  0.00000000000E+00 0.  1.
         13   -1    0    0    0    0 -0.00000000000E+00 -0.00000000000E+00 -0.10000000000E+04  0.10000000000E+04  0.00000000000E+00 0.  1.
    9000005    2    1    2  501    0 -0.88219749672E+01 -0.46667460205E+01 -0.96360028217E+03  0.10174592478E+04  0.32649381510E+03 0.  0.
         13    1    3    3    0    0 -0.10653510082E+03  0.34718804660E+02 -0.86798394417E+03  0.87518640897E+03  0.00000000000E+00 0.  1.
          3    1    3    3  501    0  0.97713125850E+02 -0.39385550681E+02 -0.95616337995E+02  0.14227283879E+03  0.00000000000E+00 0.  1.
         21    1    1    2  502  501  0.88219749672E+01  0.46667460205E+01 -0.68407923604E+01  0.12099677717E+02  0.00000000000E+00 0.  1.
<mgrwt>
<rscale>  1 0.30000000E+03</rscale>
<asrwt>0</asrwt>
<pdfrwt beam="1">  1        1 0.10748723E+00 0.30000000E+03</pdfrwt>
<pdfrwt beam="2">0</pdfrwt>
<totfact> 0.30759915E+01</totfact>
</mgrwt>
</event>
<event>
 6    1  0.1875959E-004  0.3000000E+03  0.7818608E-02  0.1093470E+00
          1   -1    0    0  502    0  0.00000000000E+00  0.00000000000E+00  0.56610006173E+02  0.56610006173E+02  0.00000000000E+00 0.  1.
         13   -1    0    0    0    0 -0.00000000000E+00 -0.00000000000E+00 -0.10000000000E+04  0.10000000000E+04  0.00000000000E+00 0.  1.
    9000005    2    1    2  501    0  0.25706899546E+01  0.10141762508E+02 -0.97134866769E+03  0.10267578498E+04  0.33257177300E+03 0.  0.
         13    1    3    3    0    0  0.14153872918E+03  0.84846945409E+02 -0.62044798005E+03  0.64201862275E+03  0.00000000000E+00 0.  1.
          1    1    3    3  501    0 -0.13896803923E+03 -0.74705182901E+02 -0.35090068764E+03  0.38473922709E+03  0.00000000000E+00 0.  1.
         21    1    1    2  502  501 -0.25706899546E+01 -0.10141762508E+02  0.27958673863E+02  0.29852156333E+02  0.00000000000E+00 0.  1.
<mgrwt>
<rscale>  1 0.30000000E+03</rscale>
<asrwt>0</asrwt>
<pdfrwt beam="1">  1        1 0.20585500E+00 0.30000000E+03</pdfrwt>
<pdfrwt beam="2">0</pdfrwt>
<totfact> 0.96087875E+00</totfact>
</mgrwt>
</event>
<event>
 6    1  0.1875959E-004  0.3000000E+03  0.7818608E-02  0.1093470E+00
          3   -1    0    0  502    0  0.00000000000E+00  0.00000000000E+00  0.34060247122E+02  0.34060247122E+02  0.00000000000E+00 0.  1.
         13   -1    0    0    0    0 -0.00000000000E+00 -0.00000000000E+00 -0.10000000000E+04  0.10000000000E+04  0.00000000000E+00 0.  1.
    9000005    2    1    2  501    0  0.15869009767E+02  0.19220796378E+01 -0.96296616876E+03  0.10178010324E+04  0.32918016269E+03 0.  0.
         13    1    3    3    0    0  0.12906798900E+03 -0.34951739584E+02 -0.82414077283E+03  0.83491806982E+03  0.00000000000E+00 0.  1.
          1    1    3    3  501    0 -0.11319897923E+03  0.36873819222E+02 -0.13882539593E+03  0.18288296257E+03  0.00000000000E+00 0.  1.
         21    1    1    2  502  501 -0.15869009767E+02 -0.19220796378E+01 -0.29735841213E+01  0.16259214730E+02  0.00000000000E+00 0.  1.
<mgrwt>
<rscale>  1 0.30000000E+03</rscale>
<asrwt>0</asrwt>
<pdfrwt beam="1">  1        3 0.12385571E+00 0.30000000E+03</pdfrwt>
<pdfrwt beam="2">0</pdfrwt>
<totfact> 0.20863869E+00</totfact>
</mgrwt>
</event>
<event>
 6    1  0.1875959E-004  0.3000000E+03  0.7818608E-02  0.1093470E+00
          1   -1    0    0  502    0  0.00000000000E+00  0.00000000000E+00  0.28224421469E+02  0.28224421469E+02  0.00000000000E+00 0.  1.
         13   -1    0    0    0    0 -0.00000000000E+00 -0.00000000000E+00 -0.10000000000E+04  0.10000000000E+04  0.00000000000E+00 0.  1.
    9000005    2    1    2  501    0 -0.10096693005E+01 -0.15122260202E+02 -0.95164294503E+03  0.10030247168E+04  0.31655107869E+03 0.  0.
         13    1    3    3    0    0  0.76948171383E+02 -0.75490684913E+02 -0.86522689845E+03  0.87191596521E+03  0.00000000000E+00 0.  1.
          1    1    3    3  501    0 -0.77957840684E+02  0.60368424710E+02 -0.86416046580E+02  0.13110875155E+03  0.00000000000E+00 0.  1.
         21    1    1    2  502  501  0.10096693005E+01  0.15122260202E+02 -0.20132633500E+02  0.25199704708E+02  0.00000000000E+00 0. -1.
<mgrwt>
<rscale>  1 0.30000000E+03</rscale>
<asrwt>0</asrwt>
<pdfrwt beam="1">  1        1 0.10263448E+00 0.30000000E+03</pdfrwt>
<pdfrwt beam="2">0</pdfrwt>
<totfact> 0.32944960E+01</totfact>
</mgrwt>
</event>
<event>
 6    1  0.1875959E-004  0.3000000E+03  0.7818608E-02  0.1093470E+00
          1   -1    0    0  502    0  0.00000000000E+00  0.00000000000E+00  0.28860383451E+02  0.28860383451E+02  0.00000000000E+00 0.  1.
         13   -1    0    0    0    0 -0.00000000000E+00 -0.00000000000E+00 -0.10000000000E+04  0.10000000000E+04  0.00000000000E+00 0.  1.
    9000005    2    1    2  501    0 -0.78569254262E+01 -0.11705076328E+02 -0.95783586413E+03  0.10094766295E+04  0.31842547448E+03 0.  0.
         13    1    3    3    0    0  0.26949430179E+02  0.32013241910E+02  0.75097847916E+01  0.42514895180E+02  0.00000000000E+00 0.  1.
          1    1    3    3  501    0 -0.34806355605E+02 -0.43718318238E+02 -0.96534564892E+03  0.96696173432E+03  0.00000000000E+00 0.  1.
         21    1    1    2  502  501  0.78569254262E+01  0.11705076328E+02 -0.13303752420E+02  0.19383753957E+02  0.00000000000E+00 0. -1.
<mgrwt>
<rscale>  1 0.30000000E+03</rscale>
<asrwt>0</asrwt>
<pdfrwt beam="1">  1        1 0.10494707E+00 0.30000000E+03</pdfrwt>
<pdfrwt beam="2">0</pdfrwt>
<totfact> 0.31876588E+01</totfact>
</mgrwt>
</event>
<event>
 6    1  0.1875959E-004  0.3000000E+03  0.7818608E-02  0.1093470E+00
          1   -1    0    0  502    0  0.00000000000E+00  0.00000000000E+00  0.52419352689E+02  0.52419352689E+02  0.00000000000E+00 0.  1.
         13   -1    0    0    0    0 -0.00000000000E+00 -0.00000000000E+00 -0.10000000000E+04  0.10000000000E+04  0.00000000000E+00 0.  1.
    9000005    2    1    2  501    0  0.62178639563E+01  0.82113683274E+01 -0.97431705958E+03  0.10237675789E+04  0.31416593473E+03 0.  0.
         13    1    3    3    0    0 -0.14415642034E+03  0.58443235575E+02 -0.50250964262E+03  0.52603481466E+03  0.00000000000E+00 0.  1.
          1    1    3    3  501    0  0.15037428430E+03 -0.50231867247E+02 -0.47180741696E+03  0.49773276421E+03  0.00000000000E+00 0.  1.
         21    1    1    2  502  501 -0.62178639563E+01 -0.82113683274E+01  0.26736412271E+02  0.28651773821E+02  0.00000000000E+00 0.  1.
<mgrwt>
<rscale>  1 0.30000000E+03</rscale>
<asrwt>0</asrwt>
<pdfrwt beam="1">  1        1 0.19061623E+00 0.30000000E+03</pdfrwt>
<pdfrwt beam="2">0</pdfrwt>
<totfact> 0.11356411E+01</totfact>
</mgrwt>
</event>
<event>
 6    1  0.1875959E-004  0.3000000E+03  0.7818608E-02  0.1093470E+00
          1   -1    0    0  502    0  0.00000000000E+00  0.00000000000E+00  0.34407197467E+02  0.34407197467E+02  0.00000000000E+00 0.  1.
         13   -1    0    0    0    0 -0.00000000000E+00 -0.00000000000E+00 -0.10000000000E+04  0.10000000000E+04  0.00000000000E+00 0.  1.
    9000005    2    1    2  501    0 -0.70013483366E+01  0.72611300136E+01 -0.97294743569E+03  0.10219238679E+04  0.31240988516E+03 0.  0.
         13    1    3    3    0    0  0.30323518506E+02 -0.79022491865E+02 -0.59049365536E+02  0.10320318583E+03  0.00000000000E+00 0.  1.
          1    1    3    3  501    0 -0.37324866843E+02  0.86283621878E+02 -0.91389807015E+03  0.91872068210E+03  0.00000000000E+00 0.  1.
         21    1    1    2  502  501  0.70013483366E+01 -0.72611300136E+01  0.73546331522E+01  0.12483329540E+02  0.00000000000E+00 0. -1.
<mgrwt>
<rscale>  1 0.30000000E+03</rscale>
<asrwt>0</asrwt>
<pdfrwt beam="1">  1        1 0.12511735E+00 0.30000000E+03</pdfrwt>
<pdfrwt beam="2">0</pdfrwt>
<totfact> 0.24337471E+01</totfact>
</mgrwt>
</event>
<event>
 6    1  0.1875959E-004  0.3000000E+03  0.7818608E-02  0.1093470E+00
          1   -1    0    0  502    0  0.00000000000E+00  0.00000000000E+00  0.75583688282E+02  0.75583688282E+02  0.00000000000E+00 0.  1.
         13   -1    0    0    0    0 -0.00000000000E+00 -0.00000000000E+00 -0.10000000000E+04  0.10000000000E+04  0.00000000000E+00 0.  1.
    9000005    2    1    2  501    0  0.12415650744E+02  0.40944159890E+02 -0.96391832768E+03  0.10173515504E+04  0.32254466688E+03 0.  0.
         13    1    3    3    0    0  0.73686914637E+02  0.99411263479E+02 -0.90678890974E+03  0.91519314219E+03  0.00000000000E+00 0.  1.
          1    1    3    3  501    0 -0.61271263893E+02 -0.58467103589E+02 -0.57129417944E+02  0.10215840825E+03  0.00000000000E+00 0.  1.
         21    1    1    2  502  501 -0.12415650744E+02 -0.40944159890E+02  0.39502015962E+02  0.58232137842E+02  0.00000000000E+00 0.  1.
<mgrwt>
<rscale>  1 0.30000000E+03</rscale>
<asrwt>0</asrwt>
<pdfrwt beam="1">  1        1 0.27485036E+00 0.30000000E+03</pdfrwt>
<pdfrwt beam="2">0</pdfrwt>
<totfact> 0.45636490E+00</totfact>
</mgrwt>
</event>
<event>
 6    1  0.1875959E-004  0.3000000E+03  0.7818608E-02  0.1093470E+00
          1   -1    0    0  502    0  0.00000000000E+00  0.00000000000E+00  0.51547041496E+02  0.51547041496E+02  0.00000000000E+00 0.  1.
         13   -1    0    0    0    0 -0.00000000000E+00 -0.00000000000E+00 -0.10000000000E+04  0.10000000000E+04  0.00000000000E+00 0.  1.
    9000005    2    1    2  501    0 -0.20733679975E+02  0.18423837187E+02 -0.95210355809E+03  0.10235711565E+04  0.37473644591E+03 0.  0.
         13    1    3    3    0    0  0.10161613187E+03 -0.80525862033E+02 -0.11981627776E+03  0.17653949453E+03  0.00000000000E+00 0.  1.
          1    1    3    3  501    0 -0.12234981184E+03  0.98949699221E+02 -0.83228728034E+03  0.84703166201E+03  0.00000000000E+00 0.  1.
         21    1    1    2  502  501  0.20733679975E+02 -0.18423837187E+02  0.36505995894E+01  0.27975884961E+02  0.00000000000E+00 0. -1.
<mgrwt>
<rscale>  1 0.30000000E+03</rscale>
<asrwt>0</asrwt>
<pdfrwt beam="1">  1        1 0.18744418E+00 0.30000000E+03</pdfrwt>
<pdfrwt beam="2">0</pdfrwt>
<totfact> 0.11761781E+01</totfact>
</mgrwt>
</event>
<event>
 6    1  0.1875959E-004  0.3000000E+03  0.7818608E-02  0.1093470E+00
          1   -1    0    0  502    0  0.00000000000E+00  0.00000000000E+00  0.28684137368E+02  0.28684137368E+02  0.00000000000E+00 0.  1.
         13   -1    0    0    0    0 -0.00000000000E+00 -0.00000000000E+00 -0.10000000000E+04  0.10000000000E+04  0.00000000000E+00 0.  1.
    9000005    2    1    2  501    0  0.13346358262E+02  0.10184968967E+01 -0.95313792637E+03  0.10061098161E+04  0.32187869255E+03 0.  0.
         13    1    3    3    0    0  0.15203439006E+02 -0.17874751390E+02 -0.97606280537E+03  0.97634484242E+03  0.00000000000E+00 0.  1.
          1    1    3    3  501    0 -0.18570807439E+01  0.18893248287E+02  0.22924879002E+02  0.29764973660E+02  0.00000000000E+00 0.  1.
         21    1    1    2  502  501 -0.13346358262E+02 -0.10184968967E+01 -0.18177936261E+02  0.22574321286E+02  0.00000000000E+00 0.  1.
<mgrwt>
<rscale>  1 0.30000000E+03</rscale>
<asrwt>0</asrwt>
<pdfrwt beam="1">  1        1 0.10430617E+00 0.30000000E+03</pdfrwt>
<pdfrwt beam="2">0</pdfrwt>
<totfact> 0.32167568E+01</totfact>
</mgrwt>
</event>
<event>
 6    1  0.1875959E-004  0.3000000E+03  0.7818608E-02  0.1093470E+00
          1   -1    0    0  502    0  0.00000000000E+00  0.00000000000E+00  0.31114879328E+02  0.31114879328E+02  0.00000000000E+00 0.  1.
         13   -1    0    0    0    0 -0.00000000000E+00 -0.00000000000E+00 -0.10000000000E+04  0.10000000000E+04  0.00000000000E+00 0.  1.
    9000005    2    1    2  501    0  0.32607815073E+01 -0.14319965765E+02 -0.95672073696E+03  0.10120448414E+04  0.32970365232E+03 0.  0.
         13    1    3    3    0    0 -0.13422482352E+03 -0.94384615433E+02 -0.58794274134E+03  0.61041086652E+03  0.00000000000E+00 0.  1.
          1    1    3    3  501    0  0.13748560503E+03  0.80064649668E+02 -0.36877799563E+03  0.40163397487E+03  0.00000000000E+00 0.  1.
         21    1    1    2  502  501 -0.32607815073E+01  0.14319965765E+02 -0.12164383709E+02  0.19070037928E+02  0.00000000000E+00 0. -1.
<mgrwt>
<rscale>  1 0.30000000E+03</rscale>
<asrwt>0</asrwt>
<pdfrwt beam="1">  1        1 0.11314525E+00 0.30000000E+03</pdfrwt>
<pdfrwt beam="2">0</pdfrwt>
<totfact> 0.28465395E+01</totfact>
</mgrwt>
</event>
<event>
 6    1  0.1875959E-004  0.3000000E+03  0.7818608E-02  0.1093470E+00
          1   -1    0    0  502    0  0.00000000000E+00  0.00000000000E+00  0.32551178417E+02  0.32551178417E+02  0.00000000000E+00 0.  1.
         13   -1    0    0    0    0 -0.00000000000E+00 -0.00000000000E+00 -0.10000000000E+04  0.10000000000E+04  0.00000000000E+00 0.  1.
    9000005    2    1    2  501    0 -0.59057584258E+01 -0.18384121756E+02 -0.95936717288E+03  0.10116187404E+04  0.32033459011E+03 0.  0.
         13    1    3    3    0    0  0.10722636107E+03 -0.12544737242E+03 -0.47934356135E+03  0.50695639414E+03  0.00000000000E+00 0.  1.
          1    1    3    3  501    0 -0.11313211950E+03  0.10706325067E+03 -0.48002361154E+03  0.50466234627E+03  0.00000000000E+00 0.  1.
         21    1    1    2  502  501  0.59057584258E+01  0.18384121756E+02 -0.80816487004E+01  0.20932438010E+02  0.00000000000E+00 0.  1.
<mgrwt>
<rscale>  1 0.30000000E+03</rscale>
<asrwt>0</asrwt>
<pdfrwt beam="1">  1        1 0.11836817E+00 0.30000000E+03</pdfrwt>
<pdfrwt beam="2">0</pdfrwt>
<totfact> 0.26556309E+01</totfact>
</mgrwt>
</event>
<event>
 6    1  0.1875959E-004  0.3000000E+03  0.7818608E-02  0.1093470E+00
          1   -1    0    0  502    0  0.00000000000E+00  0.00000000000E+00  0.68251411641E+02  0.68251411641E+02  0.00000000000E+00 0.  1.
         13   -1    0    0    0    0 -0.00000000000E+00 -0.00000000000E+00 -0.10000000000E+04  0.10000000000E+04  0.00000000000E+00 0.  1.
    9000005    2    1    2  501    0 -0.36086223071E+02 -0.30339878113E+02 -0.95870135412E+03  0.10139451019E+04  0.32673178528E+03 0.  0.
         13    1    3    3    0    0  0.70307918186E+02 -0.70107606992E+01 -0.26594606112E+02  0.75495875380E+02  0.00000000000E+00 0.  1.
          1    1    3    3  501    0 -0.10639414126E+03 -0.23329117413E+02 -0.93210674800E+03  0.93844922648E+03  0.00000000000E+00 0.  1.
         21    1    1    2  502  501  0.36086223071E+02  0.30339878113E+02  0.26952765758E+02  0.54306309776E+02  0.00000000000E+00 0.  1.
<mgrwt>
<rscale>  1 0.30000000E+03</rscale>
<asrwt>0</asrwt>
<pdfrwt beam="1">  1        1 0.24818747E+00 0.30000000E+03</pdfrwt>
<pdfrwt beam="2">0</pdfrwt>
<totfact> 0.60831882E+00</totfact>
</mgrwt>
</event>
<event>
 6    1  0.1875959E-004  0.3000000E+03  0.7818608E-02  0.1093470E+00
          1   -1    0    0  502    0  0.00000000000E+00  0.00000000000E+00  0.36256574815E+02  0.36256574815E+02  0.00000000000E+00 0.  1.
         13   -1    0    0    0    0 -0.00000000000E+00 -0.00000000000E+00 -0.10000000000E+04  0.10000000000E+04  0.00000000000E+00 0.  1.
    9000005    2    1    2  501    0  0.13351927415E+02 -0.86393521560E+01 -0.96854514630E+03  0.10196442632E+04  0.31834228541E+03 0.  0.
         13    1    3    3    0    0  0.12239503559E+03  0.61838064905E+02 -0.21509359654E+03  0.25508772272E+03  0.00000000000E+00 0.  1.
          1    1    3    3  501    0 -0.10904310818E+03 -0.70477417061E+02 -0.75345154976E+03  0.76455654048E+03  0.00000000000E+00 0.  1.
         21    1    1    2  502  501 -0.13351927415E+02  0.86393521560E+01  0.48017211194E+01  0.16612311612E+02  0.00000000000E+00 0.  1.
<mgrwt>
<rscale>  1 0.30000000E+03</rscale>
<asrwt>0</asrwt>
<pdfrwt beam="1">  1        1 0.13184237E+00 0.30000000E+03</pdfrwt>
<pdfrwt beam="2">0</pdfrwt>
<totfact> 0.22359158E+01</totfact>
</mgrwt>
</event>
<event>
 6    1  0.1875959E-004  0.3000000E+03  0.7818608E-02  0.1093470E+00
          1   -1    0    0  502    0  0.00000000000E+00  0.00000000000E+00  0.33668111230E+02  0.33668111230E+02  0.00000000000E+00 0.  1.
         13   -1    0    0    0    0 -0.00000000000E+00 -0.00000000000E+00 -0.10000000000E+04  0.10000000000E+04  0.00000000000E+00 0.  1.
    9000005    2    1    2  501    0  0.10197945594E+02 -0.15402468424E+02 -0.95787017265E+03  0.10133497755E+04  0.33018368478E+03 0.  0.
         13    1    3    3    0    0  0.13132673689E+03  0.95424720069E+02 -0.55665678984E+03  0.57984426418E+03  0.00000000000E+00 0.  1.
          3    1    3    3  501    0 -0.12112879129E+03 -0.11082718849E+03 -0.40121338281E+03  0.43350551130E+03  0.00000000000E+00 0.  1.
         21    1    1    2  502  501 -0.10197945594E+02  0.15402468424E+02 -0.84617161246E+01  0.20318335750E+02  0.00000000000E+00 0. -1.
<mgrwt>
<rscale>  1 0.30000000E+03</rscale>
<asrwt>0</asrwt>
<pdfrwt beam="1">  1        1 0.12242975E+00 0.30000000E+03</pdfrwt>
<pdfrwt beam="2">0</pdfrwt>
<totfact> 0.25190679E+01</totfact>
</mgrwt>
</event>
<event>
 6    1  0.1875959E-004  0.3000000E+03  0.7818608E-02  0.1093470E+00
          1   -1    0    0  502    0  0.00000000000E+00  0.00000000000E+00  0.30883220722E+02  0.30883220722E+02  0.00000000000E+00 0.  1.
         13   -1    0    0    0    0 -0.00000000000E+00 -0.00000000000E+00 -0.10000000000E+04  0.10000000000E+04  0.00000000000E+00 0.  1.
    9000005    2    1    2  501    0 -0.14842644558E+02 -0.18203512084E+02 -0.90338988390E+03  0.96108567975E+03  0.32714022917E+03 0.  0.
         13    1    3    3    0    0  0.63119317949E+02 -0.61236608807E+02 -0.85543625983E+03  0.85994486172E+03  0.00000000000E+00 0.  1.
          3    1    3    3  501    0 -0.77961962507E+02  0.43033096724E+02 -0.47953624068E+02  0.10114081804E+03  0.00000000000E+00 0.  1.
         21    1    1    2  502  501  0.14842644558E+02  0.18203512084E+02 -0.65726895376E+02  0.69797540970E+02  0.00000000000E+00 0.  1.
<mgrwt>
<rscale>  1 0.30000000E+03</rscale>
<asrwt>0</asrwt>
<pdfrwt beam="1">  1        1 0.11230286E+00 0.30000000E+03</pdfrwt>
<pdfrwt beam="2">0</pdfrwt>
<totfact> 0.28791277E+01</totfact>
</mgrwt>
</event>
<event>
 6    1  0.1875959E-004  0.3000000E+03  0.7818608E-02  0.1093470E+00
          3   -1    0    0  502    0  0.00000000000E+00  0.00000000000E+00  0.29376763055E+02  0.29376763055E+02  0.00000000000E+00 0.  1.
         13   -1    0    0    0    0 -0.00000000000E+00 -0.00000000000E+00 -0.10000000000E+04  0.10000000000E+04  0.00000000000E+00 0.  1.
    9000005    2    1    2  501    0  0.74586977088E+01 -0.55054593495E+01 -0.95055763458E+03  0.10072731287E+04  0.33309667794E+03 0.  0.
         13    1    3    3    0    0  0.45083121769E+02 -0.30867917722E+02 -0.95947597488E+03  0.96103041710E+03  0.00000000000E+00 0.  1.
          1    1    3    3  501    0 -0.37624424060E+02  0.25362458373E+02  0.89183403055E+01  0.46242711581E+02  0.00000000000E+00 0.  1.
         21    1    1    2  502  501 -0.74586977088E+01  0.55054593495E+01 -0.20065602369E+02  0.22103634375E+02  0.00000000000E+00 0.  1.
<mgrwt>
<rscale>  1 0.30000000E+03</rscale>
<asrwt>0</asrwt>
<pdfrwt beam="1">  1        3 0.10682482E+00 0.30000000E+03</pdfrwt>
<pdfrwt beam="2">0</pdfrwt>
<totfact> 0.32753329E+00</totfact>
</mgrwt>
</event>
<event>
 6    1  0.1875959E-004  0.3000000E+03  0.7818608E-02  0.1093470E+00
          1   -1    0    0  502    0  0.00000000000E+00  0.00000000000E+00  0.31645442193E+02  0.31645442193E+02  0.00000000000E+00 0.  1.
         13   -1    0    0    0    0 -0.00000000000E+00 -0.00000000000E+00 -0.10000000000E+04  0.10000000000E+04  0.00000000000E+00 0.  1.
    9000005    2    1    2  501    0  0.76699412455E+01  0.20866628398E+02 -0.94689499328E+03  0.10007462984E+04  0.32309252733E+03 0.  0.
         13    1    3    3    0    0  0.13661997048E+03  0.99979974135E+02 -0.42862767188E+03  0.46084996763E+03  0.00000000000E+00 0.  1.
          3    1    3    3  501    0 -0.12895002924E+03 -0.79113345737E+02 -0.51826732140E+03  0.53989633074E+03  0.00000000000E+00 0.  1.
         21    1    1    2  502  501 -0.76699412455E+01 -0.20866628398E+02 -0.21459564526E+02  0.30899143824E+02  0.00000000000E+00 0. -1.
<mgrwt>
<rscale>  1 0.30000000E+03</rscale>
<asrwt>0</asrwt>
<pdfrwt beam="1">  1        1 0.11507458E+00 0.30000000E+03</pdfrwt>
<pdfrwt beam="2">0</pdfrwt>
<totfact> 0.27738521E+01</totfact>
</mgrwt>
</event>
<event>
 6    1  0.1875959E-004  0.3000000E+03  0.7818608E-02  0.1093470E+00
          1   -1    0    0  502    0  0.00000000000E+00  0.00000000000E+00  0.33347235926E+02  0.33347235926E+02  0.00000000000E+00 0.  1.
         13   -1    0    0    0    0 -0.00000000000E+00 -0.00000000000E+00 -0.10000000000E+04  0.10000000000E+04  0.00000000000E+00 0.  1.
    9000005    2    1    2  501    0  0.88748995996E+00 -0.12942462975E+02 -0.96500468315E+03  0.10202701125E+04  0.33098152363E+03 0.  0.
         13    1    3    3    0    0  0.72457518548E+02  0.13503858285E+03 -0.32232908717E+03  0.35690552151E+03  0.00000000000E+00 0.  1.
          3    1    3    3  501    0 -0.71570028588E+02 -0.14798104582E+03 -0.64267559598E+03  0.66336459099E+03  0.00000000000E+00 0.  1.
         21    1    1    2  502  501 -0.88748995996E+00  0.12942462975E+02 -0.16480809270E+01  0.13077123423E+02  0.00000000000E+00 0. -1.
<mgrwt>
<rscale>  1 0.30000000E+03</rscale>
<asrwt>0</asrwt>
<pdfrwt beam="1">  1        1 0.12126293E+00 0.30000000E+03</pdfrwt>
<pdfrwt beam="2">0</pdfrwt>
<totfact> 0.25573233E+01</totfact>
</mgrwt>
</event>
<event>
 6    1  0.1875959E-004  0.3000000E+03  0.7818608E-02  0.1093470E+00
          1   -1    0    0  502    0  0.00000000000E+00  0.00000000000E+00  0.48323136573E+02  0.48323136573E+02  0.00000000000E+00 0.  1.
         13   -1    0    0    0    0 -0.00000000000E+00 -0.00000000000E+00 -0.10000000000E+04  0.10000000000E+04  0.00000000000E+00 0.  1.
    9000005    2    1    2  501    0  0.17636648563E+02 -0.99442364712E+00 -0.96947845855E+03  0.10232445194E+04  0.32684679074E+03 0.  0.
         13    1    3    3    0    0 -0.82554673365E+01  0.12740571960E+03 -0.79438190384E+03  0.80457627313E+03  0.00000000000E+00 0.  1.
          3    1    3    3  501    0  0.25892115900E+02 -0.12840014325E+03 -0.17509655471E+03  0.21866824626E+03  0.00000000000E+00 0.  1.
         21    1    1    2  502  501 -0.17636648563E+02  0.99442364712E+00  0.17801595123E+02  0.25078617184E+02  0.00000000000E+00 0. -1.
<mgrwt>
<rscale>  1 0.30000000E+03</rscale>
<asrwt>0</asrwt>
<pdfrwt beam="1">  1        1 0.17572087E+00 0.30000000E+03</pdfrwt>
<pdfrwt beam="2">0</pdfrwt>
<totfact> 0.13399353E+01</totfact>
</mgrwt>
</event>
<event>
 6    1  0.1875959E-004  0.3000000E+03  0.7818608E-02  0.1093470E+00
          1   -1    0    0  502    0  0.00000000000E+00  0.00000000000E+00  0.26426683096E+02  0.26426683096E+02  0.00000000000E+00 0.  1.
         13   -1    0    0    0    0 -0.00000000000E+00 -0.00000000000E+00 -0.10000000000E+04  0.10000000000E+04  0.00000000000E+00 0.  1.
    9000005    2    1    2  501    0 -0.68283880908E+02 -0.20240111348E+02 -0.83574068040E+03  0.87128098968E+03  0.23578746279E+03 0.  0.
         13    1    3    3    0    0 -0.27869229060E+02  0.93261274312E+02 -0.18066074739E+03  0.20521370535E+03  0.00000000000E+00 0.  1.
          3    1    3    3  501    0 -0.40414651848E+02 -0.11350138566E+03 -0.65507993301E+03  0.66606728433E+03  0.00000000000E+00 0.  1.
         21    1    1    2  502  501  0.68283880908E+02  0.20240111348E+02 -0.13783263651E+03  0.15514569342E+03  0.00000000000E+00 0.  1.
<mgrwt>
<rscale>  1 0.30000000E+03</rscale>
<asrwt>0</asrwt>
<pdfrwt beam="1">  1        1 0.96097232E-01 0.30000000E+03</pdfrwt>
<pdfrwt beam="2">0</pdfrwt>
<totfact> 0.36265507E+01</totfact>
</mgrwt>
</event>
<event>
 6    1  0.1875959E-004  0.3000000E+03  0.7818608E-02  0.1093470E+00
          1   -1    0    0  502    0  0.00000000000E+00  0.00000000000E+00  0.39543265998E+02  0.39543265998E+02  0.00000000000E+00 0.  1.
         13   -1    0    0    0    0 -0.00000000000E+00 -0.00000000000E+00 -0.10000000000E+04  0.10000000000E+04  0.00000000000E+00 0.  1.
    9000005    2    1    2  501    0  0.10172408926E+02  0.43408713675E-01 -0.97234137196E+03  0.10238995961E+04  0.32065426789E+03 0.  0.
         13    1    3    3    0    0  0.60101457864E+01 -0.69026600839E+02 -0.94802863342E+03  0.95055724881E+03  0.00000000000E+00 0.  1.
          3    1    3    3  501    0  0.41622631398E+01  0.69070009552E+02 -0.24312738544E+02  0.73342347314E+02  0.00000000000E+00 0.  1.
         21    1    1    2  502  501 -0.10172408926E+02 -0.43408713675E-01  0.11884637963E+02  0.15643669876E+02  0.00000000000E+00 0.  1.
<mgrwt>
<rscale>  1 0.30000000E+03</rscale>
<asrwt>0</asrwt>
<pdfrwt beam="1">  1        1 0.14379400E+00 0.30000000E+03</pdfrwt>
<pdfrwt beam="2">0</pdfrwt>
<totfact> 0.19331765E+01</totfact>
</mgrwt>
</event>
<event>
 6    1  0.1875959E-004  0.3000000E+03  0.7818608E-02  0.1093470E+00
          1   -1    0    0  502    0  0.00000000000E+00  0.00000000000E+00  0.38675058441E+02  0.38675058441E+02  0.00000000000E+00 0.  1.
         13   -1    0    0    0    0 -0.00000000000E+00 -0.00000000000E+00 -0.10000000000E+04  0.10000000000E+04  0.00000000000E+00 0.  1.
    9000005    2    1    2  501    0 -0.14627734705E+02  0.88436406060E+00 -0.96270811695E+03  0.10239554832E+04  0.34851565292E+03 0.  0.
         13    1    3    3    0    0 -0.10599483144E+03  0.19058998509E+02 -0.91113029709E+03  0.91747292494E+03  0.00000000000E+00 0.  1.
          3    1    3    3  501    0  0.91367096738E+02 -0.18174634449E+02 -0.51577819858E+02  0.10648255822E+03  0.00000000000E+00 0.  1.
         21    1    1    2  502  501  0.14627734705E+02 -0.88436406060E+00  0.13831753896E+01  0.14719575284E+02  0.00000000000E+00 0.  1.
<mgrwt>
<rscale>  1 0.30000000E+03</rscale>
<asrwt>0</asrwt>
<pdfrwt beam="1">  1        1 0.14063687E+00 0.30000000E+03</pdfrwt>
<pdfrwt beam="2">0</pdfrwt>
<totfact> 0.20077413E+01</totfact>
</mgrwt>
</event>
<event>
 6    1  0.1875959E-004  0.3000000E+03  0.7818608E-02  0.1093470E+00
          1   -1    0    0  502    0  0.00000000000E+00  0.00000000000E+00  0.38695203100E+02  0.38695203100E+02  0.00000000000E+00 0.  1.
         13   -1    0    0    0    0 -0.00000000000E+00 -0.00000000000E+00 -0.10000000000E+04  0.10000000000E+04  0.00000000000E+00 0.  1.
    9000005    2    1    2  501    0 -0.14164089835E+02 -0.15772639425E+02 -0.95450649005E+03  0.10164328005E+04  0.34871707831E+03 0.  0.
         13    1    3    3    0    0 -0.20356293611E+02  0.15158313713E+03 -0.66143092082E+03  0.67888341353E+03  0.00000000000E+00 0.  1.
          1    1    3    3  501    0  0.61922037764E+01 -0.16735577656E+03 -0.29307556923E+03  0.33754938693E+03  0.00000000000E+00 0.  1.
         21    1    1    2  502  501  0.14164089835E+02  0.15772639425E+02 -0.67983068465E+01  0.22262402639E+02  0.00000000000E+00 0.  1.
<mgrwt>
<rscale>  1 0.30000000E+03</rscale>
<asrwt>0</asrwt>
<pdfrwt beam="1">  1        1 0.14071013E+00 0.30000000E+03</pdfrwt>
<pdfrwt beam="2">0</pdfrwt>
<totfact> 0.20059703E+01</totfact>
</mgrwt>
</event>
<event>
 6    1  0.1875959E-004  0.3000000E+03  0.7818608E-02  0.1093470E+00
          1   -1    0    0  502    0  0.00000000000E+00  0.00000000000E+00  0.57022039913E+02  0.57022039913E+02  0.00000000000E+00 0.  1.
         13   -1    0    0    0    0 -0.00000000000E+00 -0.00000000000E+00 -0.10000000000E+04  0.10000000000E+04  0.00000000000E+00 0.  1.
    9000005    2    1    2  501    0  0.12596245024E+02  0.67884856230E+01 -0.94935731853E+03  0.10413553511E+04  0.42771123435E+03 0.  0.
         13    1    3    3    0    0 -0.17793283224E+03  0.32630660272E+02 -0.71846084117E+03  0.74088516861E+03  0.00000000000E+00 0.  1.
          3    1    3    3  501    0  0.19052907727E+03 -0.25842174649E+02 -0.23089647736E+03  0.30047018244E+03  0.00000000000E+00 0.  1.
         21    1    1    2  502  501 -0.12596245024E+02 -0.67884856230E+01  0.63793584445E+01  0.15666688863E+02  0.00000000000E+00 0. -1.
<mgrwt>
<rscale>  1 0.30000000E+03</rscale>
<asrwt>0</asrwt>
<pdfrwt beam="1">  1        1 0.20735331E+00 0.30000000E+03</pdfrwt>
<pdfrwt beam="2">0</pdfrwt>
<totfact> 0.94532910E+00</totfact>
</mgrwt>
</event>
<event>
 6    1  0.1875959E-004  0.3000000E+03  0.7818608E-02  0.1093470E+00
          1   -1    0    0  502    0  0.00000000000E+00  0.00000000000E+00  0.40543546456E+02  0.40543546456E+02  0.00000000000E+00 0.  1.
         13   -1    0    0    0    0 -0.00000000000E+00 -0.00000000000E+00 -0.10000000000E+04  0.10000000000E+04  0.00000000000E+00 0.  1.
    9000005    2    1    2  501    0 -0.37250602396E+00  0.16026956421E+02 -0.95474214348E+03  0.10238334653E+04  0.36938516760E+03 0.  0.
         13    1    3    3    0    0 -0.89647871164E+02  0.13398653183E+03 -0.77232364354E+03  0.78896954433E+03  0.00000000000E+00 0.  1.
          3    1    3    3  501    0  0.89275365140E+02 -0.11795957541E+03 -0.18241849994E+03  0.23486392097E+03  0.00000000000E+00 0.  1.
         21    1    1    2  502  501  0.37250602396E+00 -0.16026956421E+02 -0.47143100673E+01  0.16710081157E+02  0.00000000000E+00 0.  1.
<mgrwt>
<rscale>  1 0.30000000E+03</rscale>
<asrwt>0</asrwt>
<pdfrwt beam="1">  1        1 0.14743139E+00 0.30000000E+03</pdfrwt>
<pdfrwt beam="2">0</pdfrwt>
<totfact> 0.18515486E+01</totfact>
</mgrwt>
</event>
<event>
 6    1  0.1875959E-004  0.3000000E+03  0.7818608E-02  0.1093470E+00
          1   -1    0    0  502    0  0.00000000000E+00  0.00000000000E+00  0.37074823226E+02  0.37074823226E+02  0.00000000000E+00 0.  1.
         13   -1    0    0    0    0 -0.00000000000E+00 -0.00000000000E+00 -0.10000000000E+04  0.10000000000E+04  0.00000000000E+00 0.  1.
    9000005    2    1    2  501    0  0.99112302914E+01  0.21679153659E+02 -0.96027414795E+03  0.10130905337E+04  0.32195927086E+03 0.  0.
         13    1    3    3    0    0 -0.13654385432E+03  0.84383163054E+02 -0.55094522541E+03  0.57385136034E+03  0.00000000000E+00 0.  1.
          3    1    3    3  501    0  0.14645508461E+03 -0.62704009395E+02 -0.40932892254E+03  0.43923917338E+03  0.00000000000E+00 0.  1.
         21    1    1    2  502  501 -0.99112302914E+01 -0.21679153659E+02 -0.26510288201E+01  0.23984289506E+02  0.00000000000E+00 0.  1.
<mgrwt>
<rscale>  1 0.30000000E+03</rscale>
<asrwt>0</asrwt>
<pdfrwt beam="1">  1        1 0.13481782E+00 0.30000000E+03</pdfrwt>
<pdfrwt beam="2">0</pdfrwt>
<totfact> 0.21550740E+01</totfact>
</mgrwt>
</event>
<event>
 6    1  0.1875959E-004  0.3000000E+03  0.7818608E-02  0.1093470E+00
          1   -1    0    0  502    0  0.00000000000E+00  0.00000000000E+00  0.34259734671E+02  0.34259734671E+02  0.00000000000E+00 0.  1.
         13   -1    0    0    0    0 -0.00000000000E+00 -0.00000000000E+00 -0.10000000000E+04  0.10000000000E+04  0.00000000000E+00 0.  1.
    9000005    2    1    2  501    0 -0.47105605777E+01 -0.15753637955E+02 -0.96232822689E+03  0.10174666261E+04  0.32998841258E+03 0.  0.
         13    1    3    3    0    0 -0.23378134510E+02 -0.10676505395E+03 -0.89761401604E+03  0.90424346041E+03  0.00000000000E+00 0.  1.
          3    1    3    3  501    0  0.18667573932E+02  0.91011415994E+02 -0.64714210850E+02  0.11322316567E+03  0.00000000000E+00 0.  1.
         21    1    1    2  502  501  0.47105605777E+01  0.15753637955E+02 -0.34120384434E+01  0.16793108590E+02  0.00000000000E+00 0.  1.
<mgrwt>
<rscale>  1 0.30000000E+03</rscale>
<asrwt>0</asrwt>
<pdfrwt beam="1">  1        1 0.12458112E+00 0.30000000E+03</pdfrwt>
<pdfrwt beam="2">0</pdfrwt>
<totfact> 0.24504707E+01</totfact>
</mgrwt>
</event>
<event>
 6    1  0.1875959E-004  0.3000000E+03  0.7818608E-02  0.1093470E+00
          1   -1    0    0  502    0  0.00000000000E+00  0.00000000000E+00  0.36716819155E+02  0.36716819155E+02  0.00000000000E+00 0.  1.
         13   -1    0    0    0    0 -0.00000000000E+00 -0.00000000000E+00 -0.10000000000E+04  0.10000000000E+04  0.00000000000E+00 0.  1.
    9000005    2    1    2  501    0  0.12198204862E+02  0.21743050019E+02 -0.96051396095E+03  0.10116324614E+04  0.31653058513E+03 0.  0.
         13    1    3    3    0    0 -0.14059762471E+02  0.16272894304E+03 -0.37903388023E+03  0.41272880707E+03  0.00000000000E+00 0.  1.
          3    1    3    3  501    0  0.26257967333E+02 -0.14098589302E+03 -0.58148008072E+03  0.59890365432E+03  0.00000000000E+00 0.  1.
         21    1    1    2  502  501 -0.12198204862E+02 -0.21743050019E+02 -0.27692198969E+01  0.25084357772E+02  0.00000000000E+00 0.  1.
<mgrwt>
<rscale>  1 0.30000000E+03</rscale>
<asrwt>0</asrwt>
<pdfrwt beam="1">  1        1 0.13351599E+00 0.30000000E+03</pdfrwt>
<pdfrwt beam="2">0</pdfrwt>
<totfact> 0.21899608E+01</totfact>
</mgrwt>
</event>
<event>
 6    1  0.1875959E-004  0.3000000E+03  0.7818608E-02  0.1093470E+00
          1   -1    0    0  502    0  0.00000000000E+00  0.00000000000E+00  0.39392841835E+02  0.39392841835E+02  0.00000000000E+00 0.  1.
         13   -1    0    0    0    0 -0.00000000000E+00 -0.00000000000E+00 -0.10000000000E+04  0.10000000000E+04  0.00000000000E+00 0.  1.
    9000005    2    1    2  501    0  0.13159288317E+01 -0.13116755281E+02 -0.97002968366E+03  0.10231889866E+04  0.32524503716E+03 0.  0.
         13    1    3    3    0    0 -0.87431645550E+02 -0.13276569374E+03 -0.66485413711E+03  0.68359494272E+03  0.00000000000E+00 0.  1.
          3    1    3    3  501    0  0.88747574382E+02  0.11964893846E+03 -0.30517554654E+03  0.33959404388E+03  0.00000000000E+00 0.  1.
         21    1    1    2  502  501 -0.13159288317E+01  0.13116755281E+02  0.94225254904E+01  0.16203855233E+02  0.00000000000E+00 0.  1.
<mgrwt>
<rscale>  1 0.30000000E+03</rscale>
<asrwt>0</asrwt>
<pdfrwt beam="1">  1        1 0.14324700E+00 0.30000000E+03</pdfrwt>
<pdfrwt beam="2">0</pdfrwt>
<totfact> 0.19458411E+01</totfact>
</mgrwt>
</event>
<event>
 6    1  0.1875959E-004  0.3000000E+03  0.7818608E-02  0.1093470E+00
          3   -1    0    0  502    0  0.00000000000E+00  0.00000000000E+00  0.37364652378E+02  0.37364652378E+02  0.00000000000E+00 0.  1.
         13   -1    0    0    0    0 -0.00000000000E+00 -0.00000000000E+00 -0.10000000000E+04  0.10000000000E+04  0.00000000000E+00 0.  1.
    9000005    2    1    2  501    0 -0.46673327433E+02  0.27466908125E+02 -0.79294125738E+03  0.85923853189E+03  0.32649990276E+03 0.  0.
         13    1    3    3    0    0  0.12238715909E+03  0.33123160599E+02 -0.54183346207E+03  0.55647035959E+03  0.00000000000E+00 0.  1.
          1    1    3    3  501    0 -0.16906048653E+03 -0.56562524743E+01 -0.25110779531E+03  0.30276817230E+03  0.00000000000E+00 0.  1.
         21    1    1    2  502  501  0.46673327433E+02 -0.27466908125E+02 -0.16969409024E+03  0.17812612048E+03  0.00000000000E+00 0.  1.
<mgrwt>
<rscale>  1 0.30000000E+03</rscale>
<asrwt>0</asrwt>
<pdfrwt beam="1">  1        3 0.13587175E+00 0.30000000E+03</pdfrwt>
<pdfrwt beam="2">0</pdfrwt>
<totfact> 0.15063663E+00</totfact>
</mgrwt>
</event>
<event>
 6    1  0.1875959E-004  0.3000000E+03  0.7818608E-02  0.1093470E+00
          1   -1    0    0  502    0  0.00000000000E+00  0.00000000000E+00  0.82508315632E+02  0.82508315632E+02  0.00000000000E+00 0.  1.
         13   -1    0    0    0    0 -0.00000000000E+00 -0.00000000000E+00 -0.10000000000E+04  0.10000000000E+04  0.00000000000E+00 0.  1.
    9000005    2    1    2  501    0 -0.36615200653E+02 -0.53624561709E+02 -0.95474837043E+03  0.10076462612E+04  0.31557926156E+03 0.  0.
         13    1    3    3    0    0  0.42182118518E+02  0.10745809007E+03 -0.19140582462E+03  0.22352351541E+03  0.00000000000E+00 0.  1.
          3    1    3    3  501    0 -0.78797319170E+02 -0.16108265178E+03 -0.76334254581E+03  0.78412274579E+03  0.00000000000E+00 0.  1.
         21    1    1    2  502  501  0.36615200653E+02  0.53624561709E+02  0.37256686065E+02  0.74862054432E+02  0.00000000000E+00 0. -1.
<mgrwt>
<rscale>  1 0.30000000E+03</rscale>
<asrwt>0</asrwt>
<pdfrwt beam="1">  1        1 0.30003087E+00 0.30000000E+03</pdfrwt>
<pdfrwt beam="2">0</pdfrwt>
<totfact> 0.34732239E+00</totfact>
</mgrwt>
</event>
<event>
 6    1  0.1875959E-004  0.3000000E+03  0.7818608E-02  0.1093470E+00
          1   -1    0    0  502    0  0.00000000000E+00  0.00000000000E+00  0.30988315377E+02  0.30988315377E+02  0.00000000000E+00 0.  1.
         13   -1    0    0    0    0 -0.00000000000E+00 -0.00000000000E+00 -0.10000000000E+04  0.10000000000E+04  0.00000000000E+00 0.  1.
    9000005    2    1    2  501    0  0.85022475444E+01  0.24779557724E+02 -0.93052269123E+03  0.98442956424E+03  0.32022300569E+03 0.  0.
         13    1    3    3    0    0  0.37298746310E+02 -0.91819329201E+02 -0.85427657093E+02  0.13084292219E+03  0.00000000000E+00 0.  1.
          3    1    3    3  501    0 -0.28796498766E+02  0.11659888693E+03 -0.84509503413E+03  0.85358664205E+03  0.00000000000E+00 0.  1.
         21    1    1    2  502  501 -0.85022475444E+01 -0.24779557724E+02 -0.38488993396E+02  0.46558751132E+02  0.00000000000E+00 0.  1.
<mgrwt>
<rscale>  1 0.30000000E+03</rscale>
<asrwt>0</asrwt>
<pdfrwt beam="1">  1        1 0.11268502E+00 0.30000000E+03</pdfrwt>
<pdfrwt beam="2">0</pdfrwt>
<totfact> 0.28642778E+01</totfact>
</mgrwt>
</event>
<event>
 6    1  0.1875959E-004  0.3000000E+03  0.7818608E-02  0.1093470E+00
          1   -1    0    0  502    0  0.00000000000E+00  0.00000000000E+00  0.29402491034E+02  0.29402491034E+02  0.00000000000E+00 0.  1.
         13   -1    0    0    0    0 -0.00000000000E+00 -0.00000000000E+00 -0.10000000000E+04  0.10000000000E+04  0.00000000000E+00 0.  1.
    9000005    2    1    2  501    0 -0.50558132460E+01 -0.81803686013E+01 -0.96300198787E+03  0.10171480380E+04  0.32729928646E+03 0.  0.
         13    1    3    3    0    0  0.13499633559E+03 -0.26011982480E+02 -0.20982441080E+03  0.25085238133E+03  0.00000000000E+00 0.  1.
          1    1    3    3  501    0 -0.14005214883E+03  0.17831613879E+02 -0.75317757708E+03  0.76629565669E+03  0.00000000000E+00 0.  1.
         21    1    1    2  502  501  0.50558132460E+01  0.81803686013E+01 -0.75955210932E+01  0.12254453016E+02  0.00000000000E+00 0. -1.
<mgrwt>
<rscale>  1 0.30000000E+03</rscale>
<asrwt>0</asrwt>
<pdfrwt beam="1">  1        1 0.10691837E+00 0.30000000E+03</pdfrwt>
<pdfrwt beam="2">0</pdfrwt>
<totfact> 0.31005039E+01</totfact>
</mgrwt>
</event>
<event>
 6    1  0.1875959E-004  0.3000000E+03  0.7818608E-02  0.1093470E+00
          1   -1    0    0  502    0  0.00000000000E+00  0.00000000000E+00  0.30193768120E+02  0.30193768120E+02  0.00000000000E+00 0.  1.
         13   -1    0    0    0    0 -0.00000000000E+00 -0.00000000000E+00 -0.10000000000E+04  0.10000000000E+04  0.00000000000E+00 0.  1.
    9000005    2    1    2  501    0  0.73322855292E+01  0.11131449603E+02 -0.95960191027E+03  0.10134068756E+04  0.32554569220E+03 0.  0.
         13    1    3    3    0    0 -0.14204255346E+03  0.62039664200E+01 -0.24432364554E+03  0.28268112771E+03  0.00000000000E+00 0.  1.
          1    1    3    3  501    0  0.14937483899E+03  0.49274831826E+01 -0.71527826474E+03  0.73072574788E+03  0.00000000000E+00 0.  1.
         21    1    1    2  502  501 -0.73322855292E+01 -0.11131449603E+02 -0.10204321607E+02  0.16786892529E+02  0.00000000000E+00 0. -1.
<mgrwt>
<rscale>  1 0.30000000E+03</rscale>
<asrwt>0</asrwt>
<pdfrwt beam="1">  1        1 0.10979575E+00 0.30000000E+03</pdfrwt>
<pdfrwt beam="2">0</pdfrwt>
<totfact> 0.29793088E+01</totfact>
</mgrwt>
</event>
<event>
 6    1  0.1875959E-004  0.3000000E+03  0.7818608E-02  0.1093470E+00
          1   -1    0    0  502    0  0.00000000000E+00  0.00000000000E+00  0.38742163266E+02  0.38742163266E+02  0.00000000000E+00 0.  1.
         13   -1    0    0    0    0 -0.00000000000E+00 -0.00000000000E+00 -0.10000000000E+04  0.10000000000E+04  0.00000000000E+00 0.  1.
    9000005    2    1    2  501    0  0.82308344930E+01  0.22922963774E+02 -0.93930937806E+03  0.10059558286E+04  0.35923782153E+03 0.  0.
         13    1    3    3    0    0 -0.13980473899E+03  0.11830514039E+03 -0.51265693145E+03  0.54438828115E+03  0.00000000000E+00 0.  1.
          3    1    3    3  501    0  0.14803557349E+03 -0.95382176619E+02 -0.42665244661E+03  0.46156754742E+03  0.00000000000E+00 0.  1.
         21    1    1    2  502  501 -0.82308344930E+01 -0.22922963774E+02 -0.21948458672E+02  0.32786334695E+02  0.00000000000E+00 0. -1.
<mgrwt>
<rscale>  1 0.30000000E+03</rscale>
<asrwt>0</asrwt>
<pdfrwt beam="1">  1        1 0.14088089E+00 0.30000000E+03</pdfrwt>
<pdfrwt beam="2">0</pdfrwt>
<totfact> 0.20018494E+01</totfact>
</mgrwt>
</event>
<event>
 6    1  0.1875959E-004  0.3000000E+03  0.7818608E-02  0.1093470E+00
          1   -1    0    0  502    0  0.00000000000E+00  0.00000000000E+00  0.31711456680E+02  0.31711456680E+02  0.00000000000E+00 0.  1.
         13   -1    0    0    0    0 -0.00000000000E+00 -0.00000000000E+00 -0.10000000000E+04  0.10000000000E+04  0.00000000000E+00 0.  1.
    9000005    2    1    2  501    0 -0.14429402434E+02  0.10448285854E+02 -0.95280431743E+03  0.10081077370E+04  0.32882786946E+03 0.  0.
         13    1    3    3    0    0 -0.16866886023E+03 -0.21403156086E+02 -0.44191063690E+03  0.47348948300E+03  0.00000000000E+00 0.  1.
          1    1    3    3  501    0  0.15423945780E+03  0.31851441940E+02 -0.51089368053E+03  0.53461825399E+03  0.00000000000E+00 0.  1.
         21    1    1    2  502  501  0.14429402434E+02 -0.10448285854E+02 -0.15484225893E+02  0.23603719694E+02  0.00000000000E+00 0.  1.
<mgrwt>
<rscale>  1 0.30000000E+03</rscale>
<asrwt>0</asrwt>
<pdfrwt beam="1">  1        1 0.11531463E+00 0.30000000E+03</pdfrwt>
<pdfrwt beam="2">0</pdfrwt>
<totfact> 0.27649916E+01</totfact>
</mgrwt>
</event>
<event>
 6    1  0.1875959E-004  0.3000000E+03  0.7818608E-02  0.1093470E+00
          1   -1    0    0  502    0  0.00000000000E+00  0.00000000000E+00  0.38290803519E+02  0.38290803519E+02  0.00000000000E+00 0.  1.
         13   -1    0    0    0    0 -0.00000000000E+00 -0.00000000000E+00 -0.10000000000E+04  0.10000000000E+04  0.00000000000E+00 0.  1.
    9000005    2    1    2  501    0  0.53214339878E+02  0.37299433785E+01 -0.92118974336E+03  0.97130196469E+03  0.30330065100E+03 0.  0.
         13    1    3    3    0    0 -0.40924462342E+02 -0.15793714163E+02 -0.85132882325E+03  0.85245822087E+03  0.00000000000E+00 0.  1.
          3    1    3    3  501    0  0.94138802220E+02  0.19523657542E+02 -0.69860920103E+02  0.11884374382E+03  0.00000000000E+00 0.  1.
         21    1    1    2  502  501 -0.53214339878E+02 -0.37299433785E+01 -0.40519453124E+02  0.66988838830E+02  0.00000000000E+00 0.  1.
<mgrwt>
<rscale>  1 0.30000000E+03</rscale>
<asrwt>0</asrwt>
<pdfrwt beam="1">  1        1 0.13923958E+00 0.30000000E+03</pdfrwt>
<pdfrwt beam="2">0</pdfrwt>
<totfact> 0.20419083E+01</totfact>
</mgrwt>
</event>
<event>
 6    1  0.1875959E-004  0.3000000E+03  0.7818608E-02  0.1093470E+00
          1   -1    0    0  502    0  0.00000000000E+00  0.00000000000E+00  0.37725844870E+02  0.37725844870E+02  0.00000000000E+00 0.  1.
         13   -1    0    0    0    0 -0.00000000000E+00 -0.00000000000E+00 -0.10000000000E+04  0.10000000000E+04  0.00000000000E+00 0.  1.
    9000005    2    1    2  501    0  0.24977122990E+02  0.10662826485E+02 -0.96010711667E+03  0.10104816052E+04  0.31389464212E+03 0.  0.
         13    1    3    3    0    0 -0.13334226038E+03 -0.37731778265E+02 -0.57187283811E+03  0.58842364709E+03  0.00000000000E+00 0.  1.
          1    1    3    3  501    0  0.15831938337E+03  0.48394604750E+02 -0.38823427856E+03  0.42205795807E+03  0.00000000000E+00 0.  1.
         21    1    1    2  502  501 -0.24977122990E+02 -0.10662826485E+02 -0.21670384587E+01  0.27244239707E+02  0.00000000000E+00 0.  1.
<mgrwt>
<rscale>  1 0.30000000E+03</rscale>
<asrwt>0</asrwt>
<pdfrwt beam="1">  1        1 0.13718518E+00 0.30000000E+03</pdfrwt>
<pdfrwt beam="2">0</pdfrwt>
<totfact> 0.20935033E+01</totfact>
</mgrwt>
</event>
<event>
 6    1  0.1875959E-004  0.3000000E+03  0.7818608E-02  0.1093470E+00
          1   -1    0    0  502    0  0.00000000000E+00  0.00000000000E+00  0.68560994667E+02  0.68560994667E+02  0.00000000000E+00 0.  1.
         13   -1    0    0    0    0 -0.00000000000E+00 -0.00000000000E+00 -0.10000000000E+04  0.10000000000E+04  0.00000000000E+00 0.  1.
    9000005    2    1    2  501    0  0.47821526913E+02 -0.63260238071E+02 -0.93468977346E+03  0.98919271605E+03  0.31395620830E+03 0.  0.
         13    1    3    3    0    0 -0.78453662803E+02 -0.14979880694E+03 -0.44077566090E+03  0.47209939950E+03  0.00000000000E+00 0.  1.
          3    1    3    3  501    0  0.12627518972E+03  0.86538568866E+02 -0.49391411256E+03  0.51709331655E+03  0.00000000000E+00 0.  1.
         21    1    1    2  502  501 -0.47821526913E+02  0.63260238071E+02  0.32507681226E+01  0.79368278617E+02  0.00000000000E+00 0.  1.
<mgrwt>
<rscale>  1 0.30000000E+03</rscale>
<asrwt>0</asrwt>
<pdfrwt beam="1">  1        1 0.24931323E+00 0.30000000E+03</pdfrwt>
<pdfrwt beam="2">0</pdfrwt>
<totfact> 0.60101706E+00</totfact>
</mgrwt>
</event>
<event>
 6    1  0.1875959E-004  0.3000000E+03  0.7818608E-02  0.1093470E+00
          1   -1    0    0  502    0  0.00000000000E+00  0.00000000000E+00  0.61532842935E+02  0.61532842935E+02  0.00000000000E+00 0.  1.
         13   -1    0    0    0    0 -0.00000000000E+00 -0.00000000000E+00 -0.10000000000E+04  0.10000000000E+04  0.00000000000E+00 0.  1.
    9000005    2    1    2  501    0  0.14893516521E+02 -0.35402337241E+02 -0.95246607667E+03  0.10206536053E+04  0.36478351467E+03 0.  0.
         13    1    3    3    0    0 -0.77986525057E+02  0.81398207441E+02 -0.86945047384E+02  0.14236224053E+03  0.00000000000E+00 0.  1.
          1    1    3    3  501    0  0.92880041578E+02 -0.11680054468E+03 -0.86552102928E+03  0.87829136480E+03  0.00000000000E+00 0.  1.
         21    1    1    2  502  501 -0.14893516521E+02  0.35402337241E+02  0.13998919601E+02  0.40879237597E+02  0.00000000000E+00 0.  1.
<mgrwt>
<rscale>  1 0.30000000E+03</rscale>
<asrwt>0</asrwt>
<pdfrwt beam="1">  1        1 0.22375626E+00 0.30000000E+03</pdfrwt>
<pdfrwt beam="2">0</pdfrwt>
<totfact> 0.79158636E+00</totfact>
</mgrwt>
</event>
<event>
 6    1  0.1875959E-004  0.3000000E+03  0.7818608E-02  0.1093470E+00
          1   -1    0    0  502    0  0.00000000000E+00  0.00000000000E+00  0.29748912653E+02  0.29748912653E+02  0.00000000000E+00 0.  1.
         13   -1    0    0    0    0 -0.00000000000E+00 -0.00000000000E+00 -0.10000000000E+04  0.10000000000E+04  0.00000000000E+00 0.  1.
    9000005    2    1    2  501    0  0.63726436192E+01 -0.19739541068E+02 -0.93338537579E+03  0.98744831269E+03  0.32158303817E+03 0.  0.
         13    1    3    3    0    0  0.59301632768E+02 -0.66819762750E+02 -0.52304791721E+02  0.10352466170E+03  0.00000000000E+00 0.  1.
          1    1    3    3  501    0 -0.52928989149E+02  0.47080221682E+02 -0.88108058407E+03  0.88392365099E+03  0.00000000000E+00 0.  1.
         21    1    1    2  502  501 -0.63726436192E+01  0.19739541068E+02 -0.36865711561E+02  0.42300599963E+02  0.00000000000E+00 0.  1.
<mgrwt>
<rscale>  1 0.30000000E+03</rscale>
<asrwt>0</asrwt>
<pdfrwt beam="1">  1        1 0.10817809E+00 0.30000000E+03</pdfrwt>
<pdfrwt beam="2">0</pdfrwt>
<totfact> 0.30465935E+01</totfact>
</mgrwt>
</event>
<event>
 6    1  0.1875959E-004  0.3000000E+03  0.7818608E-02  0.1093470E+00
          1   -1    0    0  502    0  0.00000000000E+00  0.00000000000E+00  0.19430490005E+02  0.19430490005E+02  0.00000000000E+00 0.  1.
         13   -1    0    0    0    0 -0.00000000000E+00 -0.00000000000E+00 -0.10000000000E+04  0.10000000000E+04  0.00000000000E+00 0.  1.
    9000005    2    1    2  501    0 -0.20594717767E+02  0.27522388213E+02 -0.92880889383E+03  0.95729526941E+03  0.22923055494E+03 0.  0.
         13    1    3    3    0    0  0.38279962641E+02 -0.87204737030E+01 -0.85596955011E+03  0.85686946084E+03  0.00000000000E+00 0.  1.
          3    1    3    3  501    0 -0.58874680408E+02  0.36242861916E+02 -0.72839343719E+02  0.10042580857E+03  0.00000000000E+00 0.  1.
         21    1    1    2  502  501  0.20594717767E+02 -0.27522388213E+02 -0.51760616162E+02  0.62135220595E+02  0.00000000000E+00 0.  1.
<mgrwt>
<rscale>  1 0.30000000E+03</rscale>
<asrwt>0</asrwt>
<pdfrwt beam="1">  1        1 0.70656476E-01 0.30000000E+03</pdfrwt>
<pdfrwt beam="2">0</pdfrwt>
<totfact> 0.55674102E+01</totfact>
</mgrwt>
</event>
<event>
 6    1  0.1875959E-004  0.3000000E+03  0.7818608E-02  0.1093470E+00
          1   -1    0    0  502    0  0.00000000000E+00  0.00000000000E+00  0.41196026650E+02  0.41196026650E+02  0.00000000000E+00 0.  1.
         13   -1    0    0    0    0 -0.00000000000E+00 -0.00000000000E+00 -0.10000000000E+04  0.10000000000E+04  0.00000000000E+00 0.  1.
    9000005    2    1    2  501    0 -0.34795265643E+02  0.57287225303E+02 -0.83482037811E+03  0.90025466088E+03  0.33021334626E+03 0.  0.
         13    1    3    3    0    0  0.14845189025E+03  0.32044031901E+02 -0.36557644040E+03  0.39586729781E+03  0.00000000000E+00 0.  1.
          3    1    3    3  501    0 -0.18324715589E+03  0.25243193403E+02 -0.46924393771E+03  0.50438736308E+03  0.00000000000E+00 0.  1.
         21    1    1    2  502  501  0.34795265643E+02 -0.57287225303E+02 -0.12398359524E+03  0.14094136577E+03  0.00000000000E+00 0.  1.
<mgrwt>
<rscale>  1 0.30000000E+03</rscale>
<asrwt>0</asrwt>
<pdfrwt beam="1">  1        1 0.14980405E+00 0.30000000E+03</pdfrwt>
<pdfrwt beam="2">0</pdfrwt>
<totfact> 0.18006229E+01</totfact>
</mgrwt>
</event>
<event>
 6    1  0.1875959E-004  0.3000000E+03  0.7818608E-02  0.1093470E+00
          1   -1    0    0  502    0  0.00000000000E+00  0.00000000000E+00  0.38343704594E+02  0.38343704594E+02  0.00000000000E+00 0.  1.
         13   -1    0    0    0    0 -0.00000000000E+00 -0.00000000000E+00 -0.10000000000E+04  0.10000000000E+04  0.00000000000E+00 0.  1.
    9000005    2    1    2  501    0  0.95750482460E+00 -0.32581122834E+02 -0.93123654735E+03  0.99375887026E+03  0.34538780917E+03 0.  0.
         13    1    3    3    0    0  0.65703753315E+02 -0.30554329996E+02 -0.13461366280E+02  0.73700465829E+02  0.00000000000E+00 0.  1.
          3    1    3    3  501    0 -0.64746248491E+02 -0.20267928380E+01 -0.91777518107E+03  0.92005840443E+03  0.00000000000E+00 0.  1.
         21    1    1    2  502  501 -0.95750482460E+00  0.32581122834E+02 -0.30419748058E+02  0.44584834333E+02  0.00000000000E+00 0. -1.
<mgrwt>
<rscale>  1 0.30000000E+03</rscale>
<asrwt>0</asrwt>
<pdfrwt beam="1">  1        1 0.13943195E+00 0.30000000E+03</pdfrwt>
<pdfrwt beam="2">0</pdfrwt>
<totfact> 0.20371607E+01</totfact>
</mgrwt>
</event>
<event>
 6    1  0.1875959E-004  0.3000000E+03  0.7818608E-02  0.1093470E+00
          1   -1    0    0  502    0  0.00000000000E+00  0.00000000000E+00  0.24021470355E+02  0.24021470355E+02  0.00000000000E+00 0.  1.
         13   -1    0    0    0    0 -0.00000000000E+00 -0.00000000000E+00 -0.10000000000E+04  0.10000000000E+04  0.00000000000E+00 0.  1.
    9000005    2    1    2  501    0 -0.55193056219E+01 -0.88774930224E+01 -0.95169000023E+03  0.99757898034E+03  0.29889913494E+03 0.  0.
         13    1    3    3    0    0  0.62494947861E+02 -0.13076696049E+03 -0.33019915894E+03  0.36060657375E+03  0.00000000000E+00 0.  1.
          1    1    3    3  501    0 -0.68014253482E+02  0.12188946747E+03 -0.62149084129E+03  0.63697240659E+03  0.00000000000E+00 0.  1.
         21    1    1    2  502  501  0.55193056219E+01  0.88774930224E+01 -0.24288529415E+02  0.26442490013E+02  0.00000000000E+00 0. -1.
<mgrwt>
<rscale>  1 0.30000000E+03</rscale>
<asrwt>0</asrwt>
<pdfrwt beam="1">  1        1 0.87350985E-01 0.30000000E+03</pdfrwt>
<pdfrwt beam="2">0</pdfrwt>
<totfact> 0.41548228E+01</totfact>
</mgrwt>
</event>
<event>
 6    1  0.1875959E-004  0.3000000E+03  0.7818608E-02  0.1093470E+00
          1   -1    0    0  502    0  0.00000000000E+00  0.00000000000E+00  0.33043996662E+02  0.33043996662E+02  0.00000000000E+00 0.  1.
         13   -1    0    0    0    0 -0.00000000000E+00 -0.00000000000E+00 -0.10000000000E+04  0.10000000000E+04  0.00000000000E+00 0.  1.
    9000005    2    1    2  501    0  0.23945017646E+02  0.39563200043E+02 -0.88922245452E+03  0.94259447881E+03  0.30923965980E+03 0.  0.
         13    1    3    3    0    0 -0.96236719405E+01 -0.11285295181E+03 -0.62933610647E+03  0.63944690061E+03  0.00000000000E+00 0.  1.
          3    1    3    3  501    0  0.33568689586E+02  0.15241615185E+03 -0.25988634805E+03  0.30314757820E+03  0.00000000000E+00 0.  1.
         21    1    1    2  502  501 -0.23945017646E+02 -0.39563200043E+02 -0.77733548820E+02  0.90449517853E+02  0.00000000000E+00 0. -1.
<mgrwt>
<rscale>  1 0.30000000E+03</rscale>
<asrwt>0</asrwt>
<pdfrwt beam="1">  1        1 0.12016024E+00 0.30000000E+03</pdfrwt>
<pdfrwt beam="2">0</pdfrwt>
<totfact> 0.25941863E+01</totfact>
</mgrwt>
</event>
<event>
 6    1  0.1875959E-004  0.3000000E+03  0.7818608E-02  0.1093470E+00
          1   -1    0    0  502    0  0.00000000000E+00  0.00000000000E+00  0.38570055722E+02  0.38570055722E+02  0.00000000000E+00 0.  1.
         13   -1    0    0    0    0 -0.00000000000E+00 -0.00000000000E+00 -0.10000000000E+04  0.10000000000E+04  0.00000000000E+00 0.  1.
    9000005    2    1    2  501    0 -0.33496107006E+00 -0.51111349993E+02 -0.82187280951E+03  0.88994745932E+03  0.33751901138E+03 0.  0.
         13    1    3    3    0    0 -0.60399184653E+02 -0.16566668644E+03 -0.26539390621E+03  0.31863370499E+03  0.00000000000E+00 0.  1.
          1    1    3    3  501    0  0.60064223583E+02  0.11455533645E+03 -0.55647890330E+03  0.57131375433E+03  0.00000000000E+00 0.  1.
         21    1    1    2  502  501  0.33496107006E+00  0.51111349993E+02 -0.13955713477E+03  0.14862259640E+03  0.00000000000E+00 0. -1.
<mgrwt>
<rscale>  1 0.30000000E+03</rscale>
<asrwt>0</asrwt>
<pdfrwt beam="1">  1        1 0.14025504E+00 0.30000000E+03</pdfrwt>
<pdfrwt beam="2">0</pdfrwt>
<totfact> 0.20170051E+01</totfact>
</mgrwt>
</event>
<event>
 6    1  0.1875959E-004  0.3000000E+03  0.7818608E-02  0.1093470E+00
          1   -1    0    0  502    0  0.00000000000E+00  0.00000000000E+00  0.41415497183E+02  0.41415497183E+02  0.00000000000E+00 0.  1.
         13   -1    0    0    0    0 -0.00000000000E+00 -0.00000000000E+00 -0.10000000000E+04  0.10000000000E+04  0.00000000000E+00 0.  1.
    9000005    2    1    2  501    0  0.22976554887E+02  0.30053931966E+02 -0.93432477463E+03  0.99647447680E+03  0.34433622745E+03 0.  0.
         13    1    3    3    0    0  0.75214596995E+02 -0.13197517882E+03 -0.26123682169E+03  0.30219093374E+03  0.00000000000E+00 0.  1.
          1    1    3    3  501    0 -0.52238042108E+02  0.16202911078E+03 -0.67308795294E+03  0.69428354307E+03  0.00000000000E+00 0.  1.
         21    1    1    2  502  501 -0.22976554887E+02 -0.30053931966E+02 -0.24259728189E+02  0.44941020381E+02  0.00000000000E+00 0. -1.
<mgrwt>
<rscale>  1 0.30000000E+03</rscale>
<asrwt>0</asrwt>
<pdfrwt beam="1">  1        1 0.15060213E+00 0.30000000E+03</pdfrwt>
<pdfrwt beam="2">0</pdfrwt>
<totfact> 0.17838855E+01</totfact>
</mgrwt>
</event>
<event>
 6    1  0.1875959E-004  0.3000000E+03  0.7818608E-02  0.1093470E+00
          1   -1    0    0  502    0  0.00000000000E+00  0.00000000000E+00  0.42158681840E+02  0.42158681840E+02  0.00000000000E+00 0.  1.
         13   -1    0    0    0    0 -0.00000000000E+00 -0.00000000000E+00 -0.10000000000E+04  0.10000000000E+04  0.00000000000E+00 0.  1.
    9000005    2    1    2  501    0 -0.37245036695E+02 -0.23261791536E+02 -0.94188849101E+03  0.99543827519E+03  0.31908482649E+03 0.  0.
         13    1    3    3    0    0 -0.19444396118E+02 -0.15696215070E+03 -0.70794317767E+03  0.72539557767E+03  0.00000000000E+00 0.  1.
          3    1    3    3  501    0 -0.17800640577E+02  0.13370035917E+03 -0.23394531334E+03  0.27004269752E+03  0.00000000000E+00 0.  1.
         21    1    1    2  502  501  0.37245036695E+02  0.23261791536E+02 -0.15952827145E+02  0.46720406653E+02  0.00000000000E+00 0.  1.
<mgrwt>
<rscale>  1 0.30000000E+03</rscale>
<asrwt>0</asrwt>
<pdfrwt beam="1">  1        1 0.15330462E+00 0.30000000E+03</pdfrwt>
<pdfrwt beam="2">0</pdfrwt>
<totfact> 0.17286094E+01</totfact>
</mgrwt>
</event>
<event>
 6    1  0.1875959E-004  0.3000000E+03  0.7818608E-02  0.1093470E+00
          3   -1    0    0  502    0  0.00000000000E+00  0.00000000000E+00  0.32645185269E+02  0.32645185269E+02  0.00000000000E+00 0.  1.
         13   -1    0    0    0    0 -0.00000000000E+00 -0.00000000000E+00 -0.10000000000E+04  0.10000000000E+04  0.00000000000E+00 0.  1.
    9000005    2    1    2  501    0 -0.13826033948E+02 -0.24049224248E+02 -0.93587395043E+03  0.99068604778E+03  0.32377348529E+03 0.  0.
         13    1    3    3    0    0  0.13931368350E+03  0.56835675539E+02 -0.39101452337E+03  0.41896414395E+03  0.00000000000E+00 0.  1.
          3    1    3    3  501    0 -0.15313971745E+03 -0.80884899786E+02 -0.54485942705E+03  0.57172190383E+03  0.00000000000E+00 0.  1.
         21    1    1    2  502  501  0.13826033948E+02  0.24049224248E+02 -0.31480864304E+02  0.41959137491E+02  0.00000000000E+00 0.  1.
<mgrwt>
<rscale>  1 0.30000000E+03</rscale>
<asrwt>0</asrwt>
<pdfrwt beam="1">  1        3 0.11871001E+00 0.30000000E+03</pdfrwt>
<pdfrwt beam="2">0</pdfrwt>
<totfact> 0.23939508E+00</totfact>
</mgrwt>
</event>
<event>
 6    1  0.1875959E-004  0.3000000E+03  0.7818608E-02  0.1093470E+00
          1   -1    0    0  502    0  0.00000000000E+00  0.00000000000E+00  0.30915384288E+02  0.30915384288E+02  0.00000000000E+00 0.  1.
         13   -1    0    0    0    0 -0.00000000000E+00 -0.00000000000E+00 -0.10000000000E+04  0.10000000000E+04  0.00000000000E+00 0.  1.
    9000005    2    1    2  501    0 -0.16405612043E+02  0.52259679063E+01 -0.95357247890E+03  0.10077403711E+04  0.32548998175E+03 0.  0.
         13    1    3    3    0    0  0.61135744674E+02  0.14501393376E+03 -0.58900118068E+03  0.60966303079E+03  0.00000000000E+00 0.  1.
          1    1    3    3  501    0 -0.77541356717E+02 -0.13978796586E+03 -0.36457129821E+03  0.39807734033E+03  0.00000000000E+00 0.  1.
         21    1    1    2  502  501  0.16405612043E+02 -0.52259679063E+01 -0.15512136816E+02  0.23175013175E+02  0.00000000000E+00 0. -1.
<mgrwt>
<rscale>  1 0.30000000E+03</rscale>
<asrwt>0</asrwt>
<pdfrwt beam="1">  1        1 0.11241982E+00 0.30000000E+03</pdfrwt>
<pdfrwt beam="2">0</pdfrwt>
<totfact> 0.28745713E+01</totfact>
</mgrwt>
</event>
<event>
 6    1  0.1875959E-004  0.3000000E+03  0.7818608E-02  0.1093470E+00
          1   -1    0    0  502    0  0.00000000000E+00  0.00000000000E+00  0.85690836957E+02  0.85690836957E+02  0.00000000000E+00 0.  1.
         13   -1    0    0    0    0 -0.00000000000E+00 -0.00000000000E+00 -0.10000000000E+04  0.10000000000E+04  0.00000000000E+00 0.  1.
    9000005    2    1    2  501    0  0.10442558120E+03  0.32892880345E+02 -0.91335266741E+03  0.97620312773E+03  0.32676108695E+03 0.  0.
         13    1    3    3    0    0  0.21279682976E+03  0.71930057628E+02 -0.67667585201E+03  0.71298431444E+03  0.00000000000E+00 0.  1.
          3    1    3    3  501    0 -0.10837124855E+03 -0.39037177283E+02 -0.23667681540E+03  0.26321881329E+03  0.00000000000E+00 0.  1.
         21    1    1    2  502  501 -0.10442558120E+03 -0.32892880345E+02 -0.95649563193E+00  0.10948770922E+03  0.00000000000E+00 0.  1.
<mgrwt>
<rscale>  1 0.30000000E+03</rscale>
<asrwt>0</asrwt>
<pdfrwt beam="1">  1        1 0.31160370E+00 0.30000000E+03</pdfrwt>
<pdfrwt beam="2">0</pdfrwt>
<totfact> 0.30580350E+00</totfact>
</mgrwt>
</event>
<event>
 6    1  0.1875959E-004  0.3000000E+03  0.7818608E-02  0.1093470E+00
          1   -1    0    0  502    0  0.00000000000E+00  0.00000000000E+00  0.40554742448E+02  0.40554742448E+02  0.00000000000E+00 0.  1.
         13   -1    0    0    0    0 -0.00000000000E+00 -0.00000000000E+00 -0.10000000000E+04  0.10000000000E+04  0.00000000000E+00 0.  1.
    9000005    2    1    2  501    0 -0.12609968220E+02  0.28510256820E+00 -0.96356166249E+03  0.10272868349E+04  0.35596077184E+03 0.  0.
         13    1    3    3    0    0 -0.13855634492E+03 -0.98682308842E+02 -0.30202186322E+03  0.34663130941E+03  0.00000000000E+00 0.  1.
          1    1    3    3  501    0  0.12594637670E+03  0.98967411410E+02 -0.66153979927E+03  0.68065552546E+03  0.00000000000E+00 0.  1.
         21    1    1    2  502  501  0.12609968220E+02 -0.28510256820E+00  0.41164049353E+01  0.13267907581E+02  0.00000000000E+00 0.  1.
<mgrwt>
<rscale>  1 0.30000000E+03</rscale>
<asrwt>0</asrwt>
<pdfrwt beam="1">  1        1 0.14747210E+00 0.30000000E+03</pdfrwt>
<pdfrwt beam="2">0</pdfrwt>
<totfact> 0.18506597E+01</totfact>
</mgrwt>
</event>
<event>
 6    1  0.1875959E-004  0.3000000E+03  0.7818608E-02  0.1093470E+00
          1   -1    0    0  502    0  0.00000000000E+00  0.00000000000E+00  0.30694289407E+02  0.30694289407E+02  0.00000000000E+00 0.  1.
         13   -1    0    0    0    0 -0.00000000000E+00 -0.00000000000E+00 -0.10000000000E+04  0.10000000000E+04  0.00000000000E+00 0.  1.
    9000005    2    1    2  501    0  0.11544426753E+02 -0.11698289040E+02 -0.94920864732E+03  0.10047324769E+04  0.32896834235E+03 0.  0.
         13    1    3    3    0    0  0.16317986856E+03  0.10839018239E+02 -0.62601611571E+03  0.64702498480E+03  0.00000000000E+00 0.  1.
          3    1    3    3  501    0 -0.15163544181E+03 -0.22537307280E+02 -0.32319253161E+03  0.35770749212E+03  0.00000000000E+00 0.  1.
         21    1    1    2  502  501 -0.11544426753E+02  0.11698289040E+02 -0.20097063268E+02  0.25961812486E+02  0.00000000000E+00 0.  1.
<mgrwt>
<rscale>  1 0.30000000E+03</rscale>
<asrwt>0</asrwt>
<pdfrwt beam="1">  1        1 0.11161583E+00 0.30000000E+03</pdfrwt>
<pdfrwt beam="2">0</pdfrwt>
<totfact> 0.29061010E+01</totfact>
</mgrwt>
</event>
<event>
 6    1  0.1875959E-004  0.3000000E+03  0.7818608E-02  0.1093470E+00
          1   -1    0    0  502    0  0.00000000000E+00  0.00000000000E+00  0.47834221512E+02  0.47834221512E+02  0.00000000000E+00 0.  1.
         13   -1    0    0    0    0 -0.00000000000E+00 -0.00000000000E+00 -0.10000000000E+04  0.10000000000E+04  0.00000000000E+00 0.  1.
    9000005    2    1    2  501    0 -0.61561977923E+02 -0.57047241139E+02 -0.85975319901E+03  0.92299692864E+03  0.32512075020E+03 0.  0.
         13    1    3    3    0    0 -0.60573050952E+02  0.80867386280E+02 -0.71853466241E+03  0.72560367264E+03  0.00000000000E+00 0.  1.
          3    1    3    3  501    0 -0.98892697079E+00 -0.13791462742E+03 -0.14121853661E+03  0.19739325600E+03  0.00000000000E+00 0.  1.
         21    1    1    2  502  501  0.61561977923E+02  0.57047241139E+02 -0.92412579474E+02  0.12483729288E+03  0.00000000000E+00 0.  1.
<mgrwt>
<rscale>  1 0.30000000E+03</rscale>
<asrwt>0</asrwt>
<pdfrwt beam="1">  1        1 0.17394299E+00 0.30000000E+03</pdfrwt>
<pdfrwt beam="2">0</pdfrwt>
<totfact> 0.13668647E+01</totfact>
</mgrwt>
</event>
<event>
 6    1  0.1875959E-004  0.3000000E+03  0.7818608E-02  0.1093470E+00
          1   -1    0    0  502    0  0.00000000000E+00  0.00000000000E+00  0.35177916621E+02  0.35177916621E+02  0.00000000000E+00 0.  1.
         13   -1    0    0    0    0 -0.00000000000E+00 -0.00000000000E+00 -0.10000000000E+04  0.10000000000E+04  0.00000000000E+00 0.  1.
    9000005    2    1    2  501    0 -0.89902080262E+01 -0.63558593067E+01 -0.96717155612E+03  0.10239199945E+04  0.33596147909E+03 0.  0.
         13    1    3    3    0    0  0.13510961270E+03 -0.85092947598E+02 -0.61429752771E+03  0.63471006745E+03  0.00000000000E+00 0.  1.
          3    1    3    3  501    0 -0.14409982072E+03  0.78737088292E+02 -0.35287402841E+03  0.38920992707E+03  0.00000000000E+00 0.  1.
         21    1    1    2  502  501  0.89902080262E+01  0.63558593067E+01  0.23494727369E+01  0.11257922101E+02  0.00000000000E+00 0. -1.
<mgrwt>
<rscale>  1 0.30000000E+03</rscale>
<asrwt>0</asrwt>
<pdfrwt beam="1">  1        1 0.12791997E+00 0.30000000E+03</pdfrwt>
<pdfrwt beam="2">0</pdfrwt>
<totfact> 0.23486655E+01</totfact>
</mgrwt>
</event>
<event>
 6    1  0.1875959E-004  0.3000000E+03  0.7818608E-02  0.1093470E+00
          1   -1    0    0  502    0  0.00000000000E+00  0.00000000000E+00  0.30875966838E+02  0.30875966838E+02  0.00000000000E+00 0.  1.
         13   -1    0    0    0    0 -0.00000000000E+00 -0.00000000000E+00 -0.10000000000E+04  0.10000000000E+04  0.00000000000E+00 0.  1.
    9000005    2    1    2  501    0  0.68083667101E+01 -0.12493224754E+02 -0.94156737288E+03  0.99986300103E+03  0.33611674853E+03 0.  0.
         13    1    3    3    0    0  0.10967914931E+03  0.45773545758E+02 -0.82609991339E+03  0.83460517623E+03  0.00000000000E+00 0.  1.
          1    1    3    3  501    0 -0.10287078260E+03 -0.58266770512E+02 -0.11546745949E+03  0.16525782481E+03  0.00000000000E+00 0.  1.
         21    1    1    2  502  501 -0.68083667101E+01  0.12493224754E+02 -0.27556660286E+02  0.31012965807E+02  0.00000000000E+00 0.  1.
<mgrwt>
<rscale>  1 0.30000000E+03</rscale>
<asrwt>0</asrwt>
<pdfrwt beam="1">  1        1 0.11227648E+00 0.30000000E+03</pdfrwt>
<pdfrwt beam="2">0</pdfrwt>
<totfact> 0.28801568E+01</totfact>
</mgrwt>
</event>
<event>
 6    1  0.1875959E-004  0.3000000E+03  0.7818608E-02  0.1093470E+00
          1   -1    0    0  502    0  0.00000000000E+00  0.00000000000E+00  0.33668184291E+02  0.33668184291E+02  0.00000000000E+00 0.  1.
         13   -1    0    0    0    0 -0.00000000000E+00 -0.00000000000E+00 -0.10000000000E+04  0.10000000000E+04  0.00000000000E+00 0.  1.
    9000005    2    1    2  501    0  0.11293155882E+02  0.75679674347E+01 -0.96703634616E+03  0.10200554746E+04  0.32429780611E+03 0.  0.
         13    1    3    3    0    0 -0.11341764444E+03 -0.83765668693E+02 -0.67565962077E+03  0.69021458436E+03  0.00000000000E+00 0.  1.
          1    1    3    3  501    0  0.12471080032E+03  0.91333636128E+02 -0.29137672539E+03  0.32984089029E+03  0.00000000000E+00 0.  1.
         21    1    1    2  502  501 -0.11293155882E+02 -0.75679674347E+01  0.70453045052E+00  0.13612709650E+02  0.00000000000E+00 0. -1.
<mgrwt>
<rscale>  1 0.30000000E+03</rscale>
<asrwt>0</asrwt>
<pdfrwt beam="1">  1        1 0.12243002E+00 0.30000000E+03</pdfrwt>
<pdfrwt beam="2">0</pdfrwt>
<totfact> 0.25190593E+01</totfact>
</mgrwt>
</event>
<event>
 6    1  0.1875959E-004  0.3000000E+03  0.7818608E-02  0.1093470E+00
          1   -1    0    0  502    0  0.00000000000E+00  0.00000000000E+00  0.42434315417E+02  0.42434315417E+02  0.00000000000E+00 0.  1.
         13   -1    0    0    0    0 -0.00000000000E+00 -0.00000000000E+00 -0.10000000000E+04  0.10000000000E+04  0.00000000000E+00 0.  1.
    9000005    2    1    2  501    0  0.14493680139E+00 -0.59568569573E+02 -0.90044422335E+03  0.95990373429E+03  0.32721085595E+03 0.  0.
         13    1    3    3    0    0 -0.14549519403E+03 -0.89565957715E+02 -0.61180946816E+03  0.63521786625E+03  0.00000000000E+00 0.  1.
          3    1    3    3  501    0  0.14564013083E+03  0.29997388142E+02 -0.28863475519E+03  0.32468586804E+03  0.00000000000E+00 0.  1.
         21    1    1    2  502  501 -0.14493680139E+00  0.59568569573E+02 -0.57121461233E+02  0.82530581126E+02  0.00000000000E+00 0.  1.
<mgrwt>
<rscale>  1 0.30000000E+03</rscale>
<asrwt>0</asrwt>
<pdfrwt beam="1">  1        1 0.15430693E+00 0.30000000E+03</pdfrwt>
<pdfrwt beam="2">0</pdfrwt>
<totfact> 0.17086400E+01</totfact>
</mgrwt>
</event>
<event>
 6    1  0.1875959E-004  0.3000000E+03  0.7818608E-02  0.1093470E+00
          1   -1    0    0  502    0  0.00000000000E+00  0.00000000000E+00  0.28815959227E+02  0.28815959227E+02  0.00000000000E+00 0.  1.
         13   -1    0    0    0    0 -0.00000000000E+00 -0.00000000000E+00 -0.10000000000E+04  0.10000000000E+04  0.00000000000E+00 0.  1.
    9000005    2    1    2  501    0 -0.17938618572E+01  0.15563148829E+02 -0.94604092231E+03  0.99919154450E+03  0.32116177602E+03 0.  0.
         13    1    3    3    0    0 -0.12611026882E+03 -0.26886366479E+02 -0.17686523130E+03  0.21887893148E+03  0.00000000000E+00 0.  1.
          1    1    3    3  501    0  0.12431640697E+03  0.42449515308E+02 -0.76917569101E+03  0.78031261302E+03  0.00000000000E+00 0.  1.
         21    1    1    2  502  501  0.17938618572E+01 -0.15563148829E+02 -0.25143118462E+02  0.29624414725E+02  0.00000000000E+00 0.  1.
<mgrwt>
<rscale>  1 0.30000000E+03</rscale>
<asrwt>0</asrwt>
<pdfrwt beam="1">  1        1 0.10478553E+00 0.30000000E+03</pdfrwt>
<pdfrwt beam="2">0</pdfrwt>
<totfact> 0.31949571E+01</totfact>
</mgrwt>
</event>
<event>
 6    1  0.1875959E-004  0.3000000E+03  0.7818608E-02  0.1093470E+00
          1   -1    0    0  502    0  0.00000000000E+00  0.00000000000E+00  0.40553692816E+02  0.40553692816E+02  0.00000000000E+00 0.  1.
         13   -1    0    0    0    0 -0.00000000000E+00 -0.00000000000E+00 -0.10000000000E+04  0.10000000000E+04  0.00000000000E+00 0.  1.
    9000005    2    1    2  501    0  0.37951873519E+01 -0.17617113187E+02 -0.96771337034E+03  0.10207266795E+04  0.32417436814E+03 0.  0.
         13    1    3    3    0    0  0.12698812453E+03  0.59287827532E+02 -0.23383345382E+03  0.27261532310E+03  0.00000000000E+00 0.  1.
          3    1    3    3  501    0 -0.12319293718E+03 -0.76904940719E+02 -0.73387991652E+03  0.74811135639E+03  0.00000000000E+00 0.  1.
         21    1    1    2  502  501 -0.37951873519E+01  0.17617113187E+02  0.82670631606E+01  0.19827013324E+02  0.00000000000E+00 0. -1.
<mgrwt>
<rscale>  1 0.30000000E+03</rscale>
<asrwt>0</asrwt>
<pdfrwt beam="1">  1        1 0.14746828E+00 0.30000000E+03</pdfrwt>
<pdfrwt beam="2">0</pdfrwt>
<totfact> 0.18507430E+01</totfact>
</mgrwt>
</event>
<event>
 6    1  0.1875959E-004  0.3000000E+03  0.7818608E-02  0.1093470E+00
          1   -1    0    0  502    0  0.00000000000E+00  0.00000000000E+00  0.32215424123E+02  0.32215424123E+02  0.00000000000E+00 0.  1.
         13   -1    0    0    0    0 -0.00000000000E+00 -0.00000000000E+00 -0.10000000000E+04  0.10000000000E+04  0.00000000000E+00 0.  1.
    9000005    2    1    2  501    0 -0.86113285490E+01 -0.76436193761E+01 -0.96632440650E+03  0.10206088746E+04  0.32821797099E+03 0.  0.
         13    1    3    3    0    0  0.69986583813E+02 -0.13479723386E+03 -0.68920879535E+03  0.70574583227E+03  0.00000000000E+00 0.  1.
          3    1    3    3  501    0 -0.78597912362E+02  0.12715361449E+03 -0.27711561114E+03  0.31486304236E+03  0.00000000000E+00 0.  1.
         21    1    1    2  502  501  0.86113285490E+01  0.76436193761E+01 -0.14601693789E+01  0.11606549494E+02  0.00000000000E+00 0. -1.
<mgrwt>
<rscale>  1 0.30000000E+03</rscale>
<asrwt>0</asrwt>
<pdfrwt beam="1">  1        1 0.11714724E+00 0.30000000E+03</pdfrwt>
<pdfrwt beam="2">0</pdfrwt>
<totfact> 0.26986295E+01</totfact>
</mgrwt>
</event>
<event>
 6    1  0.1875959E-004  0.3000000E+03  0.7818608E-02  0.1093470E+00
          1   -1    0    0  502    0  0.00000000000E+00  0.00000000000E+00  0.28770296863E+02  0.28770296863E+02  0.00000000000E+00 0.  1.
         13   -1    0    0    0    0 -0.00000000000E+00 -0.00000000000E+00 -0.10000000000E+04  0.10000000000E+04  0.00000000000E+00 0.  1.
    9000005    2    1    2  501    0  0.77015552978E+01  0.65616746822E+01 -0.96062966863E+03  0.10141166195E+04  0.32483963454E+03 0.  0.
         13    1    3    3    0    0  0.90110038326E+02  0.38029721102E+02 -0.72826179297E+02  0.12194150682E+03  0.00000000000E+00 0.  1.
          3    1    3    3  501    0 -0.82408483029E+02 -0.31468046420E+02 -0.88780348933E+03  0.89217511268E+03  0.00000000000E+00 0.  1.
         21    1    1    2  502  501 -0.77015552978E+01 -0.65616746822E+01 -0.10600034507E+02  0.14653677360E+02  0.00000000000E+00 0.  1.
<mgrwt>
<rscale>  1 0.30000000E+03</rscale>
<asrwt>0</asrwt>
<pdfrwt beam="1">  1        1 0.10461948E+00 0.30000000E+03</pdfrwt>
<pdfrwt beam="2">0</pdfrwt>
<totfact> 0.32024841E+01</totfact>
</mgrwt>
</event>
<event>
 6    1  0.1875959E-004  0.3000000E+03  0.7818608E-02  0.1093470E+00
          1   -1    0    0  502    0  0.00000000000E+00  0.00000000000E+00  0.92492574573E+02  0.92492574573E+02  0.00000000000E+00 0.  1.
         13   -1    0    0    0    0 -0.00000000000E+00 -0.00000000000E+00 -0.10000000000E+04  0.10000000000E+04  0.00000000000E+00 0.  1.
    9000005    2    1    2  501    0 -0.12570742442E+03  0.76124267949E+02 -0.87729758065E+03  0.94245959338E+03  0.31141897728E+03 0.  0.
         13    1    3    3    0    0  0.91752417670E+02 -0.33942647317E+02 -0.30858237858E+03  0.32371854106E+03  0.00000000000E+00 0.  1.
          3    1    3    3  501    0 -0.21745984209E+03  0.11006691527E+03 -0.56871520207E+03  0.61874105232E+03  0.00000000000E+00 0.  1.
         21    1    1    2  502  501  0.12570742442E+03 -0.76124267949E+02 -0.30209844779E+02  0.15003298120E+03  0.00000000000E+00 0.  1.
<mgrwt>
<rscale>  1 0.30000000E+03</rscale>
<asrwt>0</asrwt>
<pdfrwt beam="1">  1        1 0.33633734E+00 0.30000000E+03</pdfrwt>
<pdfrwt beam="2">0</pdfrwt>
<totfact> 0.23109115E+00</totfact>
</mgrwt>
</event>
<event>
 6    1  0.1875959E-004  0.3000000E+03  0.7818608E-02  0.1093470E+00
          1   -1    0    0  502    0  0.00000000000E+00  0.00000000000E+00  0.26277793657E+02  0.26277793657E+02  0.00000000000E+00 0.  1.
         13   -1    0    0    0    0 -0.00000000000E+00 -0.00000000000E+00 -0.10000000000E+04  0.10000000000E+04  0.00000000000E+00 0.  1.
    9000005    2    1    2  501    0 -0.98221606195E+01 -0.51094526796E+01 -0.94637872054E+03  0.99677783498E+03  0.31274716350E+03 0.  0.
         13    1    3    3    0    0  0.93264677644E+02 -0.68617740766E+02 -0.79279867959E+03  0.80120936141E+03  0.00000000000E+00 0.  1.
          3    1    3    3  501    0 -0.10308683826E+03  0.63508288086E+02 -0.15358004095E+03  0.19556847357E+03  0.00000000000E+00 0.  1.
         21    1    1    2  502  501  0.98221606195E+01  0.51094526796E+01 -0.27343485805E+02  0.29499958676E+02  0.00000000000E+00 0.  1.
<mgrwt>
<rscale>  1 0.30000000E+03</rscale>
<asrwt>0</asrwt>
<pdfrwt beam="1">  1        1 0.95555815E-01 0.30000000E+03</pdfrwt>
<pdfrwt beam="2">0</pdfrwt>
<totfact> 0.36562460E+01</totfact>
</mgrwt>
</event>
<event>
 6    1  0.1875959E-004  0.3000000E+03  0.7818608E-02  0.1093470E+00
          1   -1    0    0  502    0  0.00000000000E+00  0.00000000000E+00  0.33054876526E+02  0.33054876526E+02  0.00000000000E+00 0.  1.
         13   -1    0    0    0    0 -0.00000000000E+00 -0.00000000000E+00 -0.10000000000E+04  0.10000000000E+04  0.00000000000E+00 0.  1.
    9000005    2    1    2  501    0  0.62512307594E+00  0.17558697487E+02 -0.96706612926E+03  0.10154846381E+04  0.30932742071E+03 0.  0.
         13    1    3    3    0    0 -0.78456870883E+02 -0.16862616543E+02 -0.90661753771E+03  0.91016217682E+03  0.00000000000E+00 0.  1.
          3    1    3    3  501    0  0.79081993959E+02  0.34421314030E+02 -0.60448591541E+02  0.10532246127E+03  0.00000000000E+00 0.  1.
         21    1    1    2  502  501 -0.62512307594E+00 -0.17558697487E+02  0.12100578102E+00  0.17570238436E+02  0.00000000000E+00 0.  1.
<mgrwt>
<rscale>  1 0.30000000E+03</rscale>
<asrwt>0</asrwt>
<pdfrwt beam="1">  1        1 0.12019980E+00 0.30000000E+03</pdfrwt>
<pdfrwt beam="2">0</pdfrwt>
<totfact> 0.25928515E+01</totfact>
</mgrwt>
</event>
<event>
 6    1  0.1875959E-004  0.3000000E+03  0.7818608E-02  0.1093470E+00
          1   -1    0    0  502    0  0.00000000000E+00  0.00000000000E+00  0.48160218472E+02  0.48160218472E+02  0.00000000000E+00 0.  1.
         13   -1    0    0    0    0 -0.00000000000E+00 -0.00000000000E+00 -0.10000000000E+04  0.10000000000E+04  0.00000000000E+00 0.  1.
    9000005    2    1    2  501    0  0.12153377625E+02 -0.17793151217E+02 -0.96895455051E+03  0.10206426580E+04  0.31995970608E+03 0.  0.
         13    1    3    3    0    0  0.13464666589E+03  0.74088182616E+02 -0.63378422344E+03  0.65215122887E+03  0.00000000000E+00 0.  1.
          3    1    3    3  501    0 -0.12249328827E+03 -0.91881333833E+02 -0.33517032708E+03  0.36849142911E+03  0.00000000000E+00 0.  1.
         21    1    1    2  502  501 -0.12153377625E+02  0.17793151217E+02  0.17114768985E+02  0.27517560490E+02  0.00000000000E+00 0.  1.
<mgrwt>
<rscale>  1 0.30000000E+03</rscale>
<asrwt>0</asrwt>
<pdfrwt beam="1">  1        1 0.17512844E+00 0.30000000E+03</pdfrwt>
<pdfrwt beam="2">0</pdfrwt>
<totfact> 0.13488448E+01</totfact>
</mgrwt>
</event>
<event>
 6    1  0.1875959E-004  0.3000000E+03  0.7818608E-02  0.1093470E+00
          1   -1    0    0  502    0  0.00000000000E+00  0.00000000000E+00  0.30330857745E+02  0.30330857745E+02  0.00000000000E+00 0.  1.
         13   -1    0    0    0    0 -0.00000000000E+00 -0.00000000000E+00 -0.10000000000E+04  0.10000000000E+04  0.00000000000E+00 0.  1.
    9000005    2    1    2  501    0 -0.10412605004E+02 -0.11762354088E+00 -0.96394386249E+03  0.10184474657E+04  0.32854076484E+03 0.  0.
         13    1    3    3    0    0  0.13091565184E+03  0.30938577924E+01 -0.18427071760E+03  0.22606233038E+03  0.00000000000E+00 0.  1.
          3    1    3    3  501    0 -0.14132825684E+03 -0.32114813333E+01 -0.77967314490E+03  0.79238513532E+03  0.00000000000E+00 0.  1.
         21    1    1    2  502  501  0.10412605004E+02  0.11762354088E+00 -0.57252797611E+01  0.11883392050E+02  0.00000000000E+00 0. -1.
<mgrwt>
<rscale>  1 0.30000000E+03</rscale>
<asrwt>0</asrwt>
<pdfrwt beam="1">  1        1 0.11029426E+00 0.30000000E+03</pdfrwt>
<pdfrwt beam="2">0</pdfrwt>
<totfact> 0.29590002E+01</totfact>
</mgrwt>
</event>
<event>
 6    1  0.1875959E-004  0.3000000E+03  0.7818608E-02  0.1093470E+00
          1   -1    0    0  502    0  0.00000000000E+00  0.00000000000E+00  0.47509500418E+02  0.47509500418E+02  0.00000000000E+00 0.  1.
         13   -1    0    0    0    0 -0.00000000000E+00 -0.00000000000E+00 -0.10000000000E+04  0.10000000000E+04  0.00000000000E+00 0.  1.
    9000005    2    1    2  501    0  0.13948914107E+02 -0.71618297315E+01 -0.96685873190E+03  0.10262419169E+04  0.34367251926E+03 0.  0.
         13    1    3    3    0    0  0.91761694427E+02 -0.29659469836E+02 -0.93378253758E+03  0.93874901875E+03  0.00000000000E+00 0.  1.
          3    1    3    3  501    0 -0.77812780320E+02  0.22497640105E+02 -0.33076194317E+02  0.87492898123E+02  0.00000000000E+00 0.  1.
         21    1    1    2  502  501 -0.13948914107E+02  0.71618297315E+01  0.14368232317E+02  0.21267583543E+02  0.00000000000E+00 0.  1.
<mgrwt>
<rscale>  1 0.30000000E+03</rscale>
<asrwt>0</asrwt>
<pdfrwt beam="1">  1        1 0.17276218E+00 0.30000000E+03</pdfrwt>
<pdfrwt beam="2">0</pdfrwt>
<totfact> 0.13850714E+01</totfact>
</mgrwt>
</event>
<event>
 6    1  0.1875959E-004  0.3000000E+03  0.7818608E-02  0.1093470E+00
          1   -1    0    0  502    0  0.00000000000E+00  0.00000000000E+00  0.30651748704E+02  0.30651748704E+02  0.00000000000E+00 0.  1.
         13   -1    0    0    0    0 -0.00000000000E+00 -0.00000000000E+00 -0.10000000000E+04  0.10000000000E+04  0.00000000000E+00 0.  1.
    9000005    2    1    2  501    0  0.10821317090E+02 -0.16106233041E+01 -0.96607299874E+03  0.10192314908E+04  0.32467845319E+03 0.  0.
         13    1    3    3    0    0 -0.39475121318E+02 -0.15678819345E+03 -0.49038181647E+03  0.51634789506E+03  0.00000000000E+00 0.  1.
          3    1    3    3  501    0  0.50296438409E+02  0.15517757014E+03 -0.47569118227E+03  0.50288359575E+03  0.00000000000E+00 0.  1.
         21    1    1    2  502  501 -0.10821317090E+02  0.16106233041E+01 -0.32752525604E+01  0.11420257893E+02  0.00000000000E+00 0.  1.
<mgrwt>
<rscale>  1 0.30000000E+03</rscale>
<asrwt>0</asrwt>
<pdfrwt beam="1">  1        1 0.11146114E+00 0.30000000E+03</pdfrwt>
<pdfrwt beam="2">0</pdfrwt>
<totfact> 0.29122235E+01</totfact>
</mgrwt>
</event>
<event>
 6    1  0.1875959E-004  0.3000000E+03  0.7818608E-02  0.1093470E+00
          3   -1    0    0  502    0  0.00000000000E+00  0.00000000000E+00  0.35900533134E+02  0.35900533134E+02  0.00000000000E+00 0.  1.
         13   -1    0    0    0    0 -0.00000000000E+00 -0.00000000000E+00 -0.10000000000E+04  0.10000000000E+04  0.00000000000E+00 0.  1.
    9000005    2    1    2  501    0  0.77388925814E+01  0.25991859940E+02 -0.94512518251E+03  0.10028023352E+04  0.33408897852E+03 0.  0.
         13    1    3    3    0    0 -0.11232388799E+03 -0.62438490363E+02 -0.72892397182E+03  0.74016577710E+03  0.00000000000E+00 0.  1.
          1    1    3    3  501    0  0.12006278057E+03  0.88430350303E+02 -0.21620121069E+03  0.26263655808E+03  0.00000000000E+00 0.  1.
         21    1    1    2  502  501 -0.77388925814E+01 -0.25991859940E+02 -0.18974284355E+02  0.33098197962E+02  0.00000000000E+00 0. -1.
<mgrwt>
<rscale>  1 0.30000000E+03</rscale>
<asrwt>0</asrwt>
<pdfrwt beam="1">  1        3 0.13054767E+00 0.30000000E+03</pdfrwt>
<pdfrwt beam="2">0</pdfrwt>
<totfact> 0.17434204E+00</totfact>
</mgrwt>
</event>
<event>
 6    1  0.1875959E-004  0.3000000E+03  0.7818608E-02  0.1093470E+00
          1   -1    0    0  502    0  0.00000000000E+00  0.00000000000E+00  0.36547552873E+02  0.36547552873E+02  0.00000000000E+00 0.  1.
         13   -1    0    0    0    0 -0.00000000000E+00 -0.00000000000E+00 -0.10000000000E+04  0.10000000000E+04  0.00000000000E+00 0.  1.
    9000005    2    1    2  501    0 -0.71746819526E+01 -0.33051510682E+02 -0.94311991667E+03  0.99708503630E+03  0.32180664067E+03 0.  0.
         13    1    3    3    0    0 -0.13998969359E+03 -0.90568758948E+02 -0.63722904236E+03  0.65868100537E+03  0.00000000000E+00 0.  1.
          3    1    3    3  501    0  0.13281501164E+03  0.57517248266E+02 -0.30589087431E+03  0.33840403093E+03  0.00000000000E+00 0.  1.
         21    1    1    2  502  501  0.71746819526E+01  0.33051510682E+02 -0.20332530461E+02  0.39462516575E+02  0.00000000000E+00 0.  1.
<mgrwt>
<rscale>  1 0.30000000E+03</rscale>
<asrwt>0</asrwt>
<pdfrwt beam="1">  1        1 0.13290047E+00 0.30000000E+03</pdfrwt>
<pdfrwt beam="2">0</pdfrwt>
<totfact> 0.22067159E+01</totfact>
</mgrwt>
</event>
<event>
 6    1  0.1875959E-004  0.3000000E+03  0.7818608E-02  0.1093470E+00
          1   -1    0    0  502    0  0.00000000000E+00  0.00000000000E+00  0.29094158892E+02  0.29094158892E+02  0.00000000000E+00 0.  1.
         13   -1    0    0    0    0 -0.00000000000E+00 -0.00000000000E+00 -0.10000000000E+04  0.10000000000E+04  0.00000000000E+00 0.  1.
    9000005    2    1    2  501    0 -0.16876027156E+02  0.87290091764E+01 -0.94943480977E+03  0.10004235977E+04  0.31473786059E+03 0.  0.
         13    1    3    3    0    0 -0.31556043962E+02  0.75860801648E+02 -0.92322965233E+03  0.92687843651E+03  0.00000000000E+00 0.  1.
          1    1    3    3  501    0  0.14680016805E+02 -0.67131792471E+02 -0.26205157444E+02  0.73545161163E+02  0.00000000000E+00 0.  1.
         21    1    1    2  502  501  0.16876027156E+02 -0.87290091764E+01 -0.21471031337E+02  0.28670561216E+02  0.00000000000E+00 0.  1.
<mgrwt>
<rscale>  1 0.30000000E+03</rscale>
<asrwt>0</asrwt>
<pdfrwt beam="1">  1        1 0.10579716E+00 0.30000000E+03</pdfrwt>
<pdfrwt beam="2">0</pdfrwt>
<totfact> 0.31496468E+01</totfact>
</mgrwt>
</event>
<event>
 6    1  0.1875959E-004  0.3000000E+03  0.7818608E-02  0.1093470E+00
          1   -1    0    0  502    0  0.00000000000E+00  0.00000000000E+00  0.28744268046E+02  0.28744268046E+02  0.00000000000E+00 0.  1.
         13   -1    0    0    0    0 -0.00000000000E+00 -0.00000000000E+00 -0.10000000000E+04  0.10000000000E+04  0.00000000000E+00 0.  1.
    9000005    2    1    2  501    0 -0.10838045643E+02  0.55952702287E+01 -0.96480466613E+03  0.10149462054E+04  0.31483167852E+03 0.  0.
         13    1    3    3    0    0  0.18051097323E+02 -0.15145635724E+03 -0.40342022364E+03  0.43129195112E+03  0.00000000000E+00 0.  1.
          3    1    3    3  501    0 -0.28889142966E+02  0.15705162747E+03 -0.56138444249E+03  0.58365425429E+03  0.00000000000E+00 0.  1.
         21    1    1    2  502  501  0.10838045643E+02 -0.55952702287E+01 -0.64510658230E+01  0.13798062638E+02  0.00000000000E+00 0.  1.
<mgrwt>
<rscale>  1 0.30000000E+03</rscale>
<asrwt>0</asrwt>
<pdfrwt beam="1">  1        1 0.10452483E+00 0.30000000E+03</pdfrwt>
<pdfrwt beam="2">0</pdfrwt>
<totfact> 0.32067862E+01</totfact>
</mgrwt>
</event>
<event>
 6    1  0.1875959E-004  0.3000000E+03  0.7818608E-02  0.1093470E+00
          1   -1    0    0  502    0  0.00000000000E+00  0.00000000000E+00  0.46385792336E+02  0.46385792336E+02  0.00000000000E+00 0.  1.
         13   -1    0    0    0    0 -0.00000000000E+00 -0.00000000000E+00 -0.10000000000E+04  0.10000000000E+04  0.00000000000E+00 0.  1.
    9000005    2    1    2  501    0  0.52843565220E+02 -0.60431810331E+02 -0.70340832738E+03  0.78361701829E+03  0.33589866067E+03 0.  0.
         13    1    3    3    0    0 -0.12902757620E+02  0.51480631031E+02 -0.63440089387E+03  0.63661702040E+03  0.00000000000E+00 0.  1.
          1    1    3    3  501    0  0.65746322841E+02 -0.11191244136E+03 -0.69007433512E+02  0.14699999789E+03  0.00000000000E+00 0.  1.
         21    1    1    2  502  501 -0.52843565220E+02  0.60431810331E+02 -0.25020588028E+03  0.26276877404E+03  0.00000000000E+00 0.  1.
<mgrwt>
<rscale>  1 0.30000000E+03</rscale>
<asrwt>0</asrwt>
<pdfrwt beam="1">  1        1 0.16867596E+00 0.30000000E+03</pdfrwt>
<pdfrwt beam="2">0</pdfrwt>
<totfact> 0.14501875E+01</totfact>
</mgrwt>
</event>
<event>
 6    1  0.1875959E-004  0.3000000E+03  0.7818608E-02  0.1093470E+00
          1   -1    0    0  502    0  0.00000000000E+00  0.00000000000E+00  0.40760093815E+02  0.40760093815E+02  0.00000000000E+00 0.  1.
         13   -1    0    0    0    0 -0.00000000000E+00 -0.00000000000E+00 -0.10000000000E+04  0.10000000000E+04  0.00000000000E+00 0.  1.
    9000005    2    1    2  501    0  0.46505382603E+02 -0.24824583310E+02 -0.90481134892E+03  0.96498755001E+03  0.33126784331E+03 0.  0.
         13    1    3    3    0    0  0.16799168140E+03  0.58186197508E+02 -0.37308393135E+03  0.41327770135E+03  0.00000000000E+00 0.  1.
          1    1    3    3  501    0 -0.12148629879E+03 -0.83010780818E+02 -0.53172741756E+03  0.55170984867E+03  0.00000000000E+00 0.  1.
         21    1    1    2  502  501 -0.46505382603E+02  0.24824583310E+02 -0.54428557269E+02  0.75772543801E+02  0.00000000000E+00 0.  1.
<mgrwt>
<rscale>  1 0.30000000E+03</rscale>
<asrwt>0</asrwt>
<pdfrwt beam="1">  1        1 0.14821884E+00 0.30000000E+03</pdfrwt>
<pdfrwt beam="2">0</pdfrwt>
<totfact> 0.18344503E+01</totfact>
</mgrwt>
</event>
<event>
 6    1  0.1875959E-004  0.3000000E+03  0.7818608E-02  0.1093470E+00
          1   -1    0    0  502    0  0.00000000000E+00  0.00000000000E+00  0.52062665826E+02  0.52062665826E+02  0.00000000000E+00 0.  1.
         13   -1    0    0    0    0 -0.00000000000E+00 -0.00000000000E+00 -0.10000000000E+04  0.10000000000E+04  0.00000000000E+00 0.  1.
    9000005    2    1    2  501    0  0.96662227258E+01  0.10454060631E+02 -0.97157921472E+03  0.10244644456E+04  0.32458975110E+03 0.  0.
         13    1    3    3    0    0  0.13703966296E+03  0.38441253992E+01 -0.20038139814E+03  0.24279075609E+03  0.00000000000E+00 0.  1.
          1    1    3    3  501    0 -0.12737344024E+03  0.66099352314E+01 -0.77119781658E+03  0.78167368948E+03  0.00000000000E+00 0.  1.
         21    1    1    2  502  501 -0.96662227258E+01 -0.10454060631E+02  0.23641880545E+02  0.27598220253E+02  0.00000000000E+00 0.  1.
<mgrwt>
<rscale>  1 0.30000000E+03</rscale>
<asrwt>0</asrwt>
<pdfrwt beam="1">  1        1 0.18931918E+00 0.30000000E+03</pdfrwt>
<pdfrwt beam="2">0</pdfrwt>
<totfact> 0.11520357E+01</totfact>
</mgrwt>
</event>
<event>
 6    1  0.1875959E-004  0.3000000E+03  0.7818608E-02  0.1093470E+00
          1   -1    0    0  502    0  0.00000000000E+00  0.00000000000E+00  0.27596568600E+02  0.27596568600E+02  0.00000000000E+00 0.  1.
         13   -1    0    0    0    0 -0.00000000000E+00 -0.00000000000E+00 -0.10000000000E+04  0.10000000000E+04  0.00000000000E+00 0.  1.
    9000005    2    1    2  501    0  0.11183863979E+02 -0.61669131919E+01 -0.93293036537E+03  0.98610882856E+03  0.31919969533E+03 0.  0.
         13    1    3    3    0    0  0.13791753464E+03  0.86113309016E+02 -0.48670190018E+03  0.51314275596E+03  0.00000000000E+00 0.  1.
          3    1    3    3  501    0 -0.12673367066E+03 -0.92280222208E+02 -0.44622846518E+03  0.47296607260E+03  0.00000000000E+00 0.  1.
         21    1    1    2  502  501 -0.11183863979E+02  0.61669131919E+01 -0.39473066034E+02  0.41487740044E+02  0.00000000000E+00 0.  1.
<mgrwt>
<rscale>  1 0.30000000E+03</rscale>
<asrwt>0</asrwt>
<pdfrwt beam="1">  1        1 0.10035137E+00 0.30000000E+03</pdfrwt>
<pdfrwt beam="2">0</pdfrwt>
<totfact> 0.34051774E+01</totfact>
</mgrwt>
</event>
<event>
 6    1  0.1875959E-004  0.3000000E+03  0.7818608E-02  0.1093470E+00
          1   -1    0    0  502    0  0.00000000000E+00  0.00000000000E+00  0.28167974023E+02  0.28167974023E+02  0.00000000000E+00 0.  1.
         13   -1    0    0    0    0 -0.00000000000E+00 -0.00000000000E+00 -0.10000000000E+04  0.10000000000E+04  0.00000000000E+00 0.  1.
    9000005    2    1    2  501    0  0.57151472530E-01 -0.98818149793E+01 -0.95860931964E+03  0.10116605970E+04  0.32315272283E+03 0.  0.
         13    1    3    3    0    0 -0.99744086179E+02 -0.12891468419E+03 -0.40214499654E+03  0.43392220129E+03  0.00000000000E+00 0.  1.
          1    1    3    3  501    0  0.99801237652E+02  0.11903286921E+03 -0.55646432310E+03  0.57773839571E+03  0.00000000000E+00 0.  1.
         21    1    1    2  502  501 -0.57151472530E-01  0.98818149793E+01 -0.13222706334E+02  0.16507377029E+02  0.00000000000E+00 0.  1.
<mgrwt>
<rscale>  1 0.30000000E+03</rscale>
<asrwt>0</asrwt>
<pdfrwt beam="1">  1        1 0.10242921E+00 0.30000000E+03</pdfrwt>
<pdfrwt beam="2">0</pdfrwt>
<totfact> 0.33042297E+01</totfact>
</mgrwt>
</event>
<event>
 6    1  0.1875959E-004  0.3000000E+03  0.7818608E-02  0.1093470E+00
          1   -1    0    0  502    0  0.00000000000E+00  0.00000000000E+00  0.65049082181E+02  0.65049082181E+02  0.00000000000E+00 0.  1.
         13   -1    0    0    0    0 -0.00000000000E+00 -0.00000000000E+00 -0.10000000000E+04  0.10000000000E+04  0.00000000000E+00 0.  1.
    9000005    2    1    2  501    0  0.10591243369E+02  0.87086830208E+01 -0.97361544070E+03  0.10240251754E+04  0.31703709235E+03 0.  0.
         13    1    3    3    0    0 -0.13167521675E+03  0.72307734980E+02 -0.61375852062E+03  0.63187521939E+03  0.00000000000E+00 0.  1.
          1    1    3    3  501    0  0.14226646012E+03 -0.63599051959E+02 -0.35985692008E+03  0.39214995603E+03  0.00000000000E+00 0.  1.
         21    1    1    2  502  501 -0.10591243369E+02 -0.87086830208E+01  0.38664522882E+02  0.41023906759E+02  0.00000000000E+00 0.  1.
<mgrwt>
<rscale>  1 0.30000000E+03</rscale>
<asrwt>0</asrwt>
<pdfrwt beam="1">  1        1 0.23654262E+00 0.30000000E+03</pdfrwt>
<pdfrwt beam="2">0</pdfrwt>
<totfact> 0.68965015E+00</totfact>
</mgrwt>
</event>
<event>
 6    1  0.1875959E-004  0.3000000E+03  0.7818608E-02  0.1093470E+00
          1   -1    0    0  502    0  0.00000000000E+00  0.00000000000E+00  0.34317962562E+02  0.34317962562E+02  0.00000000000E+00 0.  1.
         13   -1    0    0    0    0 -0.00000000000E+00 -0.00000000000E+00 -0.10000000000E+04  0.10000000000E+04  0.00000000000E+00 0.  1.
    9000005    2    1    2  501    0  0.78037194553E+01 -0.79796303842E+01 -0.96929215334E+03  0.10225874265E+04  0.32562738500E+03 0.  0.
         13    1    3    3    0    0  0.10607243033E+03 -0.10206738677E+03 -0.75159638031E+03  0.76587611976E+03  0.00000000000E+00 0.  1.
          3    1    3    3  501    0 -0.98268710874E+02  0.94087756383E+02 -0.21769577303E+03  0.25671130679E+03  0.00000000000E+00 0.  1.
         21    1    1    2  502  501 -0.78037194553E+01  0.79796303842E+01  0.36101159027E+01  0.11730536017E+02  0.00000000000E+00 0.  1.
<mgrwt>
<rscale>  1 0.30000000E+03</rscale>
<asrwt>0</asrwt>
<pdfrwt beam="1">  1        1 0.12479285E+00 0.30000000E+03</pdfrwt>
<pdfrwt beam="2">0</pdfrwt>
<totfact> 0.24438498E+01</totfact>
</mgrwt>
</event>
<event>
 6    1  0.1875959E-004  0.3000000E+03  0.7818608E-02  0.1093470E+00
          1   -1    0    0  502    0  0.00000000000E+00  0.00000000000E+00  0.27713113777E+02  0.27713113777E+02  0.00000000000E+00 0.  1.
         13   -1    0    0    0    0 -0.00000000000E+00 -0.00000000000E+00 -0.10000000000E+04  0.10000000000E+04  0.00000000000E+00 0.  1.
    9000005    2    1    2  501    0  0.88584825273E+01 -0.69674732173E+01 -0.97500103727E+03  0.10161206588E+04  0.28591458907E+03 0.  0.
         13    1    3    3    0    0  0.39514421191E+02  0.12496498975E+03 -0.66544083168E+03  0.67822499115E+03  0.00000000000E+00 0.  1.
          1    1    3    3  501    0 -0.30655938664E+02 -0.13193246297E+03 -0.30956020558E+03  0.33789566769E+03  0.00000000000E+00 0.  1.
         21    1    1    2  502  501 -0.88584825273E+01  0.69674732173E+01  0.27141510429E+01  0.11592454943E+02  0.00000000000E+00 0.  1.
<mgrwt>
<rscale>  1 0.30000000E+03</rscale>
<asrwt>0</asrwt>
<pdfrwt beam="1">  1        1 0.10077517E+00 0.30000000E+03</pdfrwt>
<pdfrwt beam="2">0</pdfrwt>
<totfact> 0.33842238E+01</totfact>
</mgrwt>
</event>
<event>
 6    1  0.1875959E-004  0.3000000E+03  0.7818608E-02  0.1093470E+00
          1   -1    0    0  502    0  0.00000000000E+00  0.00000000000E+00  0.41760238364E+02  0.41760238364E+02  0.00000000000E+00 0.  1.
         13   -1    0    0    0    0 -0.00000000000E+00 -0.00000000000E+00 -0.10000000000E+04  0.10000000000E+04  0.00000000000E+00 0.  1.
    9000005    2    1    2  501    0  0.93962228284E+01  0.11418194456E+02 -0.97343027557E+03  0.10205608072E+04  0.30620123386E+03 0.  0.
         13    1    3    3    0    0 -0.54006891926E+02 -0.36225752774E+02 -0.92573205509E+03  0.92801340904E+03  0.00000000000E+00 0.  1.
          1    1    3    3  501    0  0.63403114755E+02  0.47643947230E+02 -0.47698220483E+02  0.92547398156E+02  0.00000000000E+00 0.  1.
         21    1    1    2  502  501 -0.93962228284E+01 -0.11418194456E+02  0.15190513938E+02  0.21199431166E+02  0.00000000000E+00 0. -1.
<mgrwt>
<rscale>  1 0.30000000E+03</rscale>
<asrwt>0</asrwt>
<pdfrwt beam="1">  1        1 0.15185573E+00 0.30000000E+03</pdfrwt>
<pdfrwt beam="2">0</pdfrwt>
<totfact> 0.17579797E+01</totfact>
</mgrwt>
</event>
<event>
 6    1  0.1875959E-004  0.3000000E+03  0.7818608E-02  0.1093470E+00
          1   -1    0    0  502    0  0.00000000000E+00  0.00000000000E+00  0.35872470498E+02  0.35872470498E+02  0.00000000000E+00 0.  1.
         13   -1    0    0    0    0 -0.00000000000E+00 -0.00000000000E+00 -0.10000000000E+04  0.10000000000E+04  0.00000000000E+00 0.  1.
    9000005    2    1    2  501    0 -0.13909034546E+02  0.13578190593E+02 -0.96642018469E+03  0.10162999191E+04  0.31387851727E+03 0.  0.
         13    1    3    3    0    0 -0.10001229267E+03  0.61581364245E+02 -0.87173900079E+03  0.87961560276E+03  0.00000000000E+00 0.  1.
          3    1    3    3  501    0  0.86103258122E+02 -0.48003173652E+02 -0.94681183901E+02  0.13668431631E+03  0.00000000000E+00 0.  1.
         21    1    1    2  502  501  0.13909034546E+02 -0.13578190593E+02  0.22926551927E+01  0.19572551434E+02  0.00000000000E+00 0.  1.
<mgrwt>
<rscale>  1 0.30000000E+03</rscale>
<asrwt>0</asrwt>
<pdfrwt beam="1">  1        1 0.13044562E+00 0.30000000E+03</pdfrwt>
<pdfrwt beam="2">0</pdfrwt>
<totfact> 0.22752416E+01</totfact>
</mgrwt>
</event>
<event>
 6    1  0.1875959E-004  0.3000000E+03  0.7818608E-02  0.1093470E+00
          1   -1    0    0  502    0  0.00000000000E+00  0.00000000000E+00  0.37378559923E+02  0.37378559923E+02  0.00000000000E+00 0.  1.
         13   -1    0    0    0    0 -0.00000000000E+00 -0.00000000000E+00 -0.10000000000E+04  0.10000000000E+04  0.00000000000E+00 0.  1.
    9000005    2    1    2  501    0 -0.16755388881E+02 -0.71842077526E+00 -0.96670646367E+03  0.10201174301E+04  0.32532587527E+03 0.  0.
         13    1    3    3    0    0  0.62811871361E+01  0.52840696054E+02 -0.15847874367E+01  0.53236303614E+02  0.00000000000E+00 0.  1.
          3    1    3    3  501    0 -0.23036576017E+02 -0.53559116829E+02 -0.96512167623E+03  0.96688112649E+03  0.00000000000E+00 0.  1.
         21    1    1    2  502  501  0.16755388881E+02  0.71842077526E+00  0.40850235900E+01  0.17261129821E+02  0.00000000000E+00 0. -1.
<mgrwt>
<rscale>  1 0.30000000E+03</rscale>
<asrwt>0</asrwt>
<pdfrwt beam="1">  1        1 0.13592232E+00 0.30000000E+03</pdfrwt>
<pdfrwt beam="2">0</pdfrwt>
<totfact> 0.21260528E+01</totfact>
</mgrwt>
</event>
<event>
 6    1  0.1875959E-004  0.3000000E+03  0.7818608E-02  0.1093470E+00
          1   -1    0    0  502    0  0.00000000000E+00  0.00000000000E+00  0.43873717357E+02  0.43873717357E+02  0.00000000000E+00 0.  1.
         13   -1    0    0    0    0 -0.00000000000E+00 -0.00000000000E+00 -0.10000000000E+04  0.10000000000E+04  0.00000000000E+00 0.  1.
    9000005    2    1    2  501    0 -0.19183268644E+02 -0.77766450616E+02 -0.66883343522E+03  0.74562415941E+03  0.31968985656E+03 0.  0.
         13    1    3    3    0    0  0.73921540088E+02 -0.53089600447E+02 -0.24663715200E+02  0.94293152519E+02  0.00000000000E+00 0.  1.
          1    1    3    3  501    0 -0.93104808731E+02 -0.24676850169E+02 -0.64416972002E+03  0.65133100689E+03  0.00000000000E+00 0.  1.
         21    1    1    2  502  501  0.19183268644E+02  0.77766450616E+02 -0.28729284742E+03  0.29824955795E+03  0.00000000000E+00 0.  1.
<mgrwt>
<rscale>  1 0.30000000E+03</rscale>
<asrwt>0</asrwt>
<pdfrwt beam="1">  1        1 0.15954113E+00 0.30000000E+03</pdfrwt>
<pdfrwt beam="2">0</pdfrwt>
<totfact> 0.16087302E+01</totfact>
</mgrwt>
</event>
<event>
 6    1  0.1875959E-004  0.3000000E+03  0.7818608E-02  0.1093470E+00
          3   -1    0    0  502    0  0.00000000000E+00  0.00000000000E+00  0.38303312940E+02  0.38303312940E+02  0.00000000000E+00 0.  1.
         13   -1    0    0    0    0 -0.00000000000E+00 -0.00000000000E+00 -0.10000000000E+04  0.10000000000E+04  0.00000000000E+00 0.  1.
    9000005    2    1    2  501    0 -0.34672544648E+02  0.47764592142E+02 -0.79688954521E+03  0.86324607767E+03  0.32661476044E+03 0.  0.
         13    1    3    3    0    0  0.69359439025E+02 -0.11656574706E+03 -0.28432920179E+03  0.31502603093E+03  0.00000000000E+00 0.  1.
          3    1    3    3  501    0 -0.10403198367E+03  0.16433033920E+03 -0.51256034342E+03  0.54822004674E+03  0.00000000000E+00 0.  1.
         21    1    1    2  502  501  0.34672544648E+02 -0.47764592142E+02 -0.16480714185E+03  0.17505723527E+03  0.00000000000E+00 0.  1.
<mgrwt>
<rscale>  1 0.30000000E+03</rscale>
<asrwt>0</asrwt>
<pdfrwt beam="1">  1        3 0.13928507E+00 0.30000000E+03</pdfrwt>
<pdfrwt beam="2">0</pdfrwt>
<totfact> 0.13672211E+00</totfact>
</mgrwt>
</event>
<event>
 6    1  0.1875959E-004  0.3000000E+03  0.7818608E-02  0.1093470E+00
          1   -1    0    0  502    0  0.00000000000E+00  0.00000000000E+00  0.59001297799E+02  0.59001297799E+02  0.00000000000E+00 0.  1.
         13   -1    0    0    0    0 -0.00000000000E+00 -0.00000000000E+00 -0.10000000000E+04  0.10000000000E+04  0.00000000000E+00 0.  1.
    9000005    2    1    2  501    0  0.87188795725E+00 -0.66771584294E+02 -0.92372507904E+03  0.99002606518E+03  0.34989195965E+03 0.  0.
         13    1    3    3    0    0  0.20394037080E+01 -0.19242152074E+03 -0.32033187886E+03  0.37368798941E+03  0.00000000000E+00 0.  1.
          1    1    3    3  501    0 -0.11675157507E+01  0.12564993645E+03 -0.60339320018E+03  0.61633807577E+03  0.00000000000E+00 0.  1.
         21    1    1    2  502  501 -0.87188795725E+00  0.66771584294E+02 -0.17273623156E+02  0.68975232618E+02  0.00000000000E+00 0.  1.
<mgrwt>
<rscale>  1 0.30000000E+03</rscale>
<asrwt>0</asrwt>
<pdfrwt beam="1">  1        1 0.21455063E+00 0.30000000E+03</pdfrwt>
<pdfrwt beam="2">0</pdfrwt>
<totfact> 0.87433535E+00</totfact>
</mgrwt>
</event>
<event>
 6    1  0.1875959E-004  0.3000000E+03  0.7818608E-02  0.1093470E+00
          1   -1    0    0  502    0  0.00000000000E+00  0.00000000000E+00  0.32238125370E+02  0.32238125370E+02  0.00000000000E+00 0.  1.
         13   -1    0    0    0    0 -0.00000000000E+00 -0.00000000000E+00 -0.10000000000E+04  0.10000000000E+04  0.00000000000E+00 0.  1.
    9000005    2    1    2  501    0 -0.20168061687E+02 -0.13493985474E+02 -0.96188218486E+03  0.10072699635E+04  0.29797080970E+03 0.  0.
         13    1    3    3    0    0 -0.83718803540E+02  0.11395405899E+03 -0.63764546594E+03  0.65313559531E+03  0.00000000000E+00 0.  1.
          1    1    3    3  501    0  0.63550741854E+02 -0.12744804446E+03 -0.32423671892E+03  0.35413436818E+03  0.00000000000E+00 0.  1.
         21    1    1    2  502  501  0.20168061687E+02  0.13493985474E+02 -0.58796897725E+01  0.24968161887E+02  0.00000000000E+00 0. -1.
<mgrwt>
<rscale>  1 0.30000000E+03</rscale>
<asrwt>0</asrwt>
<pdfrwt beam="1">  1        1 0.11722979E+00 0.30000000E+03</pdfrwt>
<pdfrwt beam="2">0</pdfrwt>
<totfact> 0.26956923E+01</totfact>
</mgrwt>
</event>
<event>
 6    1  0.1875959E-004  0.3000000E+03  0.7818608E-02  0.1093470E+00
          1   -1    0    0  502    0  0.00000000000E+00  0.00000000000E+00  0.31307457304E+02  0.31307457304E+02  0.00000000000E+00 0.  1.
         13   -1    0    0    0    0 -0.00000000000E+00 -0.00000000000E+00 -0.10000000000E+04  0.10000000000E+04  0.00000000000E+00 0.  1.
    9000005    2    1    2  501    0 -0.19894370154E+02  0.40256904386E+01 -0.93612083635E+03  0.99292897112E+03  0.33041448107E+03 0.  0.
         13    1    3    3    0    0 -0.17056527032E+03 -0.35306761257E+01 -0.37683374984E+03  0.41365281594E+03  0.00000000000E+00 0.  1.
          3    1    3    3  501    0  0.15067090016E+03  0.75563665643E+01 -0.55928708650E+03  0.57927615518E+03  0.00000000000E+00 0.  1.
         21    1    1    2  502  501  0.19894370154E+02 -0.40256904386E+01 -0.32571706350E+02  0.38378486186E+02  0.00000000000E+00 0.  1.
<mgrwt>
<rscale>  1 0.30000000E+03</rscale>
<asrwt>0</asrwt>
<pdfrwt beam="1">  1        1 0.11384554E+00 0.30000000E+03</pdfrwt>
<pdfrwt beam="2">0</pdfrwt>
<totfact> 0.28198479E+01</totfact>
</mgrwt>
</event>
<event>
 6    1  0.1875959E-004  0.3000000E+03  0.7818608E-02  0.1093470E+00
          1   -1    0    0  502    0  0.00000000000E+00  0.00000000000E+00  0.31337859381E+02  0.31337859381E+02  0.00000000000E+00 0.  1.
         13   -1    0    0    0    0 -0.00000000000E+00 -0.00000000000E+00 -0.10000000000E+04  0.10000000000E+04  0.00000000000E+00 0.  1.
    9000005    2    1    2  501    0  0.70591232355E+01 -0.93520166163E+01 -0.96227486540E+03  0.10179928708E+04  0.33196276443E+03 0.  0.
         13    1    3    3    0    0  0.71049151778E+02 -0.10076612515E+03 -0.13344266612E+03  0.18168307320E+03  0.00000000000E+00 0.  1.
          1    1    3    3  501    0 -0.63990028542E+02  0.91414108531E+02 -0.82883219928E+03  0.83630979760E+03  0.00000000000E+00 0.  1.
         21    1    1    2  502  501 -0.70591232355E+01  0.93520166163E+01 -0.63872752177E+01  0.13344988586E+02  0.00000000000E+00 0. -1.
<mgrwt>
<rscale>  1 0.30000000E+03</rscale>
<asrwt>0</asrwt>
<pdfrwt beam="1">  1        1 0.11395609E+00 0.30000000E+03</pdfrwt>
<pdfrwt beam="2">0</pdfrwt>
<totfact> 0.28156667E+01</totfact>
</mgrwt>
</event>
<event>
 6    1  0.1875959E-004  0.3000000E+03  0.7818608E-02  0.1093470E+00
          1   -1    0    0  502    0  0.00000000000E+00  0.00000000000E+00  0.35160693005E+02  0.35160693005E+02  0.00000000000E+00 0.  1.
         13   -1    0    0    0    0 -0.00000000000E+00 -0.00000000000E+00 -0.10000000000E+04  0.10000000000E+04  0.00000000000E+00 0.  1.
    9000005    2    1    2  501    0 -0.16215845285E+02  0.10263413493E+01 -0.96482495678E+03  0.10189123940E+04  0.32715632716E+03 0.  0.
         13    1    3    3    0    0  0.82661892172E+02  0.55297487768E+02 -0.85740067628E+03  0.86314930357E+03  0.00000000000E+00 0.  1.
          3    1    3    3  501    0 -0.98877737456E+02 -0.54271146419E+02 -0.10742428050E+03  0.15576309043E+03  0.00000000000E+00 0.  1.
         21    1    1    2  502  501  0.16215845285E+02 -0.10263413493E+01 -0.14350220102E-01  0.16248299012E+02  0.00000000000E+00 0. -1.
<mgrwt>
<rscale>  1 0.30000000E+03</rscale>
<asrwt>0</asrwt>
<pdfrwt beam="1">  1        1 0.12785734E+00 0.30000000E+03</pdfrwt>
<pdfrwt beam="2">0</pdfrwt>
<totfact> 0.23505249E+01</totfact>
</mgrwt>
</event>
<event>
 6    1  0.1875959E-004  0.3000000E+03  0.7818608E-02  0.1093470E+00
          1   -1    0    0  502    0  0.00000000000E+00  0.00000000000E+00  0.34971045027E+02  0.34971045027E+02  0.00000000000E+00 0.  1.
         13   -1    0    0    0    0 -0.00000000000E+00 -0.00000000000E+00 -0.10000000000E+04  0.10000000000E+04  0.00000000000E+00 0.  1.
    9000005    2    1    2  501    0 -0.32503658703E+02 -0.18214238417E+02 -0.92619274900E+03  0.98115192942E+03  0.32161755860E+03 0.  0.
         13    1    3    3    0    0 -0.11916646322E+03 -0.11722898299E+03 -0.32209025852E+03  0.36288485094E+03  0.00000000000E+00 0.  1.
          1    1    3    3  501    0  0.86662804518E+02  0.99014744569E+02 -0.60410249048E+03  0.61826707848E+03  0.00000000000E+00 0.  1.
         21    1    1    2  502  501  0.32503658703E+02  0.18214238417E+02 -0.38836205977E+02  0.53819115608E+02  0.00000000000E+00 0.  1.
<mgrwt>
<rscale>  1 0.30000000E+03</rscale>
<asrwt>0</asrwt>
<pdfrwt beam="1">  1        1 0.12716770E+00 0.30000000E+03</pdfrwt>
<pdfrwt beam="2">0</pdfrwt>
<totfact> 0.23711241E+01</totfact>
</mgrwt>
</event>
<event>
 6    1  0.1875959E-004  0.3000000E+03  0.7818608E-02  0.1093470E+00
          1   -1    0    0  502    0  0.00000000000E+00  0.00000000000E+00  0.97329790305E+02  0.97329790305E+02  0.00000000000E+00 0.  1.
         13   -1    0    0    0    0 -0.00000000000E+00 -0.00000000000E+00 -0.10000000000E+04  0.10000000000E+04  0.00000000000E+00 0.  1.
    9000005    2    1    2  501    0 -0.10348232805E+03  0.17706172222E+03 -0.39824650661E+03  0.55280915898E+03  0.32394172399E+03 0.  0.
         13    1    3    3    0    0 -0.12643197958E+03  0.62808082872E+02 -0.34961206880E+01  0.14121658399E+03  0.00000000000E+00 0.  1.
          3    1    3    3  501    0  0.22949651527E+02  0.11425363935E+03 -0.39475038592E+03  0.41159257500E+03  0.00000000000E+00 0.  1.
         21    1    1    2  502  501  0.10348232805E+03 -0.17706172222E+03 -0.50442370309E+03  0.54452063132E+03  0.00000000000E+00 0.  1.
<mgrwt>
<rscale>  1 0.30000000E+03</rscale>
<asrwt>0</asrwt>
<pdfrwt beam="1">  1        1 0.35392726E+00 0.30000000E+03</pdfrwt>
<pdfrwt beam="2">0</pdfrwt>
<totfact> 0.18793667E+00</totfact>
</mgrwt>
</event>
<event>
 6    1  0.1875959E-004  0.3000000E+03  0.7818608E-02  0.1093470E+00
          1   -1    0    0  502    0  0.00000000000E+00  0.00000000000E+00  0.35627491432E+02  0.35627491432E+02  0.00000000000E+00 0.  1.
         13   -1    0    0    0    0 -0.00000000000E+00 -0.00000000000E+00 -0.10000000000E+04  0.10000000000E+04  0.00000000000E+00 0.  1.
    9000005    2    1    2  501    0  0.37755440362E+02  0.24206567795E+02 -0.90628607543E+03  0.96224176451E+03  0.32022387738E+03 0.  0.
         13    1    3    3    0    0 -0.57839682718E+02  0.86070906826E+02 -0.79930217998E+03  0.80600099555E+03  0.00000000000E+00 0.  1.
          3    1    3    3  501    0  0.95595123080E+02 -0.61864339031E+02 -0.10698389545E+03  0.15624076896E+03  0.00000000000E+00 0.  1.
         21    1    1    2  502  501 -0.37755440362E+02 -0.24206567795E+02 -0.58086433140E+02  0.73385726925E+02  0.00000000000E+00 0. -1.
<mgrwt>
<rscale>  1 0.30000000E+03</rscale>
<asrwt>0</asrwt>
<pdfrwt beam="1">  1        1 0.12955479E+00 0.30000000E+03</pdfrwt>
<pdfrwt beam="2">0</pdfrwt>
<totfact> 0.23007953E+01</totfact>
</mgrwt>
</event>
<event>
 6    1  0.1875959E-004  0.3000000E+03  0.7818608E-02  0.1093470E+00
          1   -1    0    0  502    0  0.00000000000E+00  0.00000000000E+00  0.31227527995E+02  0.31227527995E+02  0.00000000000E+00 0.  1.
         13   -1    0    0    0    0 -0.00000000000E+00 -0.00000000000E+00 -0.10000000000E+04  0.10000000000E+04  0.00000000000E+00 0.  1.
    9000005    2    1    2  501    0  0.12224725695E+02  0.10383344459E+02 -0.95819004089E+03  0.10120117634E+04  0.32524205916E+03 0.  0.
         13    1    3    3    0    0  0.11791931228E+03 -0.27641199392E+02 -0.84102356998E+03  0.84969973836E+03  0.00000000000E+00 0.  1.
          1    1    3    3  501    0 -0.10569458658E+03  0.38024543851E+02 -0.11716647092E+03  0.16231202505E+03  0.00000000000E+00 0.  1.
         21    1    1    2  502  501 -0.12224725695E+02 -0.10383344459E+02 -0.10582431112E+02  0.19215764588E+02  0.00000000000E+00 0. -1.
<mgrwt>
<rscale>  1 0.30000000E+03</rscale>
<asrwt>0</asrwt>
<pdfrwt beam="1">  1        1 0.11355489E+00 0.30000000E+03</pdfrwt>
<pdfrwt beam="2">0</pdfrwt>
<totfact> 0.28308829E+01</totfact>
</mgrwt>
</event>
<event>
 6    1  0.1875959E-004  0.3000000E+03  0.7818608E-02  0.1093470E+00
          1   -1    0    0  502    0  0.00000000000E+00  0.00000000000E+00  0.31749215336E+02  0.31749215336E+02  0.00000000000E+00 0.  1.
         13   -1    0    0    0    0 -0.00000000000E+00 -0.00000000000E+00 -0.10000000000E+04  0.10000000000E+04  0.00000000000E+00 0.  1.
    9000005    2    1    2  501    0  0.18306170684E+01 -0.14354623903E+02 -0.94581494998E+03  0.10050514052E+04  0.33963657219E+03 0.  0.
         13    1    3    3    0    0 -0.10041645370E+03 -0.98449262125E+02 -0.78144389582E+03  0.79399640031E+03  0.00000000000E+00 0.  1.
          3    1    3    3  501    0  0.10224707077E+03  0.84094638222E+02 -0.16437105416E+03  0.21105500493E+03  0.00000000000E+00 0.  1.
         21    1    1    2  502  501 -0.18306170684E+01  0.14354623903E+02 -0.22435834681E+02  0.26697810099E+02  0.00000000000E+00 0.  1.
<mgrwt>
<rscale>  1 0.30000000E+03</rscale>
<asrwt>0</asrwt>
<pdfrwt beam="1">  1        1 0.11545194E+00 0.30000000E+03</pdfrwt>
<pdfrwt beam="2">0</pdfrwt>
<totfact> 0.27599414E+01</totfact>
</mgrwt>
</event>
<event>
 6    1  0.1875959E-004  0.3000000E+03  0.7818608E-02  0.1093470E+00
          1   -1    0    0  502    0  0.00000000000E+00  0.00000000000E+00  0.51197321032E+02  0.51197321032E+02  0.00000000000E+00 0.  1.
         13   -1    0    0    0    0 -0.00000000000E+00 -0.00000000000E+00 -0.10000000000E+04  0.10000000000E+04  0.00000000000E+00 0.  1.
    9000005    2    1    2  501    0  0.22762566529E+02 -0.15871087689E+02 -0.95776399491E+03  0.10220368848E+04  0.35563675010E+03 0.  0.
         13    1    3    3    0    0 -0.23765970941E+02 -0.10699933887E+03 -0.89566680571E+03  0.90234843976E+03  0.00000000000E+00 0.  1.
          3    1    3    3  501    0  0.46528537469E+02  0.91128251179E+02 -0.62097189205E+02  0.11968844501E+03  0.00000000000E+00 0.  1.
         21    1    1    2  502  501 -0.22762566529E+02  0.15871087689E+02  0.89613159441E+01  0.29160436260E+02  0.00000000000E+00 0.  1.
<mgrwt>
<rscale>  1 0.30000000E+03</rscale>
<asrwt>0</asrwt>
<pdfrwt beam="1">  1        1 0.18617247E+00 0.30000000E+03</pdfrwt>
<pdfrwt beam="2">0</pdfrwt>
<totfact> 0.11928512E+01</totfact>
</mgrwt>
</event>
<event>
 6    1  0.1875959E-004  0.3000000E+03  0.7818608E-02  0.1093470E+00
          1   -1    0    0  502    0  0.00000000000E+00  0.00000000000E+00  0.34157042878E+02  0.34157042878E+02  0.00000000000E+00 0.  1.
         13   -1    0    0    0    0 -0.00000000000E+00 -0.00000000000E+00 -0.10000000000E+04  0.10000000000E+04  0.00000000000E+00 0.  1.
    9000005    2    1    2  501    0 -0.30291325553E+02 -0.27150600847E+02 -0.79574413443E+03  0.85926184851E+03  0.32166360892E+03 0.  0.
         13    1    3    3    0    0 -0.11529281320E+03  0.75470700409E+02 -0.16680339089E+03  0.21635995611E+03  0.00000000000E+00 0.  1.
          3    1    3    3  501    0  0.85001487648E+02 -0.10262130126E+03 -0.62894074353E+03  0.64290189240E+03  0.00000000000E+00 0.  1.
         21    1    1    2  502  501  0.30291325553E+02  0.27150600847E+02 -0.17009882269E+03  0.17489519437E+03  0.00000000000E+00 0. -1.
<mgrwt>
<rscale>  1 0.30000000E+03</rscale>
<asrwt>0</asrwt>
<pdfrwt beam="1">  1        1 0.12420769E+00 0.30000000E+03</pdfrwt>
<pdfrwt beam="2">0</pdfrwt>
<totfact> 0.24622028E+01</totfact>
</mgrwt>
</event>
<event>
 6    1  0.1875959E-004  0.3000000E+03  0.7818608E-02  0.1093470E+00
          1   -1    0    0  502    0  0.00000000000E+00  0.00000000000E+00  0.37813127962E+02  0.37813127962E+02  0.00000000000E+00 0.  1.
         13   -1    0    0    0    0 -0.00000000000E+00 -0.00000000000E+00 -0.10000000000E+04  0.10000000000E+04  0.00000000000E+00 0.  1.
    9000005    2    1    2  501    0  0.78319403878E+01  0.18433200886E+02 -0.94917224922E+03  0.10139279319E+04  0.35597860913E+03 0.  0.
         13    1    3    3    0    0 -0.14127495113E+03 -0.31378582748E+02 -0.72999040490E+03  0.74419702937E+03  0.00000000000E+00 0.  1.
          3    1    3    3  501    0  0.14910689152E+03  0.49811783635E+02 -0.21918184432E+03  0.26973090250E+03  0.00000000000E+00 0.  1.
         21    1    1    2  502  501 -0.78319403878E+01 -0.18433200886E+02 -0.13014622823E+02  0.23885196093E+02  0.00000000000E+00 0.  1.
<mgrwt>
<rscale>  1 0.30000000E+03</rscale>
<asrwt>0</asrwt>
<pdfrwt beam="1">  1        1 0.13750257E+00 0.30000000E+03</pdfrwt>
<pdfrwt beam="2">0</pdfrwt>
<totfact> 0.20854240E+01</totfact>
</mgrwt>
</event>
<event>
 6    1  0.1875959E-004  0.3000000E+03  0.7818608E-02  0.1093470E+00
          1   -1    0    0  502    0  0.00000000000E+00  0.00000000000E+00  0.30973532561E+02  0.30973532561E+02  0.00000000000E+00 0.  1.
         13   -1    0    0    0    0 -0.00000000000E+00 -0.00000000000E+00 -0.10000000000E+04  0.10000000000E+04  0.00000000000E+00 0.  1.
    9000005    2    1    2  501    0 -0.20057565134E+01  0.17806616084E+02 -0.94384063568E+03  0.10000635866E+04  0.33010745694E+03 0.  0.
         13    1    3    3    0    0 -0.20620281684E+02 -0.65041029686E+02 -0.90346892636E+03  0.90604173880E+03  0.00000000000E+00 0.  1.
          1    1    3    3  501    0  0.18614525170E+02  0.82847645770E+02 -0.40371709323E+02  0.94021847836E+02  0.00000000000E+00 0.  1.
         21    1    1    2  502  501  0.20057565134E+01 -0.17806616084E+02 -0.25185831758E+02  0.30909945922E+02  0.00000000000E+00 0.  1.
<mgrwt>
<rscale>  1 0.30000000E+03</rscale>
<asrwt>0</asrwt>
<pdfrwt beam="1">  1        1 0.11263127E+00 0.30000000E+03</pdfrwt>
<pdfrwt beam="2">0</pdfrwt>
<totfact> 0.28663600E+01</totfact>
</mgrwt>
</event>
<event>
 6    1  0.1875959E-004  0.3000000E+03  0.7818608E-02  0.1093470E+00
          1   -1    0    0  502    0  0.00000000000E+00  0.00000000000E+00  0.61541848798E+02  0.61541848798E+02  0.00000000000E+00 0.  1.
         13   -1    0    0    0    0 -0.00000000000E+00 -0.00000000000E+00 -0.10000000000E+04  0.10000000000E+04  0.00000000000E+00 0.  1.
    9000005    2    1    2  501    0  0.76617133264E+01 -0.18480308378E+02 -0.95405395305E+03  0.10361754796E+04  0.40378268365E+03 0.  0.
         13    1    3    3    0    0 -0.51762083751E+02  0.68314043444E+02 -0.10012966505E+02  0.86292417651E+02  0.00000000000E+00 0.  1.
          3    1    3    3  501    0  0.59423797077E+02 -0.86794351822E+02 -0.94404098655E+03  0.94988306199E+03  0.00000000000E+00 0.  1.
         21    1    1    2  502  501 -0.76617133264E+01  0.18480308378E+02  0.15595801853E+02  0.25366369158E+02  0.00000000000E+00 0. -1.
<mgrwt>
<rscale>  1 0.30000000E+03</rscale>
<asrwt>0</asrwt>
<pdfrwt beam="1">  1        1 0.22378901E+00 0.30000000E+03</pdfrwt>
<pdfrwt beam="2">0</pdfrwt>
<totfact> 0.79130676E+00</totfact>
</mgrwt>
</event>
<event>
 6    1  0.1875959E-004  0.3000000E+03  0.7818608E-02  0.1093470E+00
          1   -1    0    0  502    0  0.00000000000E+00  0.00000000000E+00  0.35586491160E+02  0.35586491160E+02  0.00000000000E+00 0.  1.
         13   -1    0    0    0    0 -0.00000000000E+00 -0.00000000000E+00 -0.10000000000E+04  0.10000000000E+04  0.00000000000E+00 0.  1.
    9000005    2    1    2  501    0  0.77643383835E+01  0.67054443274E+01 -0.97060688984E+03  0.10236029231E+04  0.32493070299E+03 0.  0.
         13    1    3    3    0    0  0.70051148425E+02 -0.10876973694E+03 -0.17710210429E+03  0.21932435892E+03  0.00000000000E+00 0.  1.
          1    1    3    3  501    0 -0.62286810041E+02  0.11547518127E+03 -0.79350478555E+03  0.80427856423E+03  0.00000000000E+00 0.  1.
         21    1    1    2  502  501 -0.77643383835E+01 -0.67054443274E+01  0.61933809963E+01  0.11983568013E+02  0.00000000000E+00 0.  1.
<mgrwt>
<rscale>  1 0.30000000E+03</rscale>
<asrwt>0</asrwt>
<pdfrwt beam="1">  1        1 0.12940570E+00 0.30000000E+03</pdfrwt>
<pdfrwt beam="2">0</pdfrwt>
<totfact> 0.23051083E+01</totfact>
</mgrwt>
</event>
<event>
 6    1  0.1875959E-004  0.3000000E+03  0.7818608E-02  0.1093470E+00
          1   -1    0    0  502    0  0.00000000000E+00  0.00000000000E+00  0.38818537765E+02  0.38818537765E+02  0.00000000000E+00 0.  1.
         13   -1    0    0    0    0 -0.00000000000E+00 -0.00000000000E+00 -0.10000000000E+04  0.10000000000E+04  0.00000000000E+00 0.  1.
    9000005    2    1    2  501    0  0.59572762418E+02  0.12100313497E+02 -0.87818936071E+03  0.93594472903E+03  0.31793183376E+03 0.  0.
         13    1    3    3    0    0  0.18912102907E+03 -0.13782711612E+02 -0.46603886423E+03  0.50313909583E+03  0.00000000000E+00 0.  1.
          3    1    3    3  501    0 -0.12954826665E+03  0.25883025109E+02 -0.41215049648E+03  0.43280563320E+03  0.00000000000E+00 0.  1.
         21    1    1    2  502  501 -0.59572762418E+02 -0.12100313497E+02 -0.82992101524E+02  0.10287380874E+03  0.00000000000E+00 0.  1.
<mgrwt>
<rscale>  1 0.30000000E+03</rscale>
<asrwt>0</asrwt>
<pdfrwt beam="1">  1        1 0.14115862E+00 0.30000000E+03</pdfrwt>
<pdfrwt beam="2">0</pdfrwt>
<totfact> 0.19951703E+01</totfact>
</mgrwt>
</event>
<event>
 6    1  0.1875959E-004  0.3000000E+03  0.7818608E-02  0.1093470E+00
          1   -1    0    0  502    0  0.00000000000E+00  0.00000000000E+00  0.49111876318E+02  0.49111876318E+02  0.00000000000E+00 0.  1.
         13   -1    0    0    0    0 -0.00000000000E+00 -0.00000000000E+00 -0.10000000000E+04  0.10000000000E+04  0.00000000000E+00 0.  1.
    9000005    2    1    2  501    0 -0.59763537521E+02  0.41171817807E+02 -0.87589461157E+03  0.94475275665E+03  0.34655389426E+03 0.  0.
         13    1    3    3    0    0  0.49839921730E+02 -0.54386544366E+02 -0.74640945486E+03  0.75004599080E+03  0.00000000000E+00 0.  1.
          3    1    3    3  501    0 -0.10960345925E+03  0.95558362173E+02 -0.12948515671E+03  0.19470676585E+03  0.00000000000E+00 0.  1.
         21    1    1    2  502  501  0.59763537521E+02 -0.41171817807E+02 -0.74993512111E+02  0.10435911967E+03  0.00000000000E+00 0.  1.
<mgrwt>
<rscale>  1 0.30000000E+03</rscale>
<asrwt>0</asrwt>
<pdfrwt beam="1">  1        1 0.17858902E+00 0.30000000E+03</pdfrwt>
<pdfrwt beam="2">0</pdfrwt>
<totfact> 0.12976928E+01</totfact>
</mgrwt>
</event>
<event>
 6    1  0.1875959E-004  0.3000000E+03  0.7818608E-02  0.1093470E+00
          1   -1    0    0  502    0  0.00000000000E+00  0.00000000000E+00  0.46169186099E+02  0.46169186099E+02  0.00000000000E+00 0.  1.
         13   -1    0    0    0    0 -0.00000000000E+00 -0.00000000000E+00 -0.10000000000E+04  0.10000000000E+04  0.00000000000E+00 0.  1.
    9000005    2    1    2  501    0  0.73363749599E+01  0.18511866998E+02 -0.96675266174E+03  0.10224313309E+04  0.33220265778E+03 0.  0.
         13    1    3    3    0    0  0.17892908348E+02  0.72846153692E+02 -0.96410399486E+03  0.96701769952E+03  0.00000000000E+00 0.  1.
          3    1    3    3  501    0 -0.10556533388E+02 -0.54334286694E+02 -0.26486668756E+01  0.55413631391E+02  0.00000000000E+00 0.  1.
         21    1    1    2  502  501 -0.73363749599E+01 -0.18511866998E+02  0.12921847838E+02  0.23737855187E+02  0.00000000000E+00 0.  1.
<mgrwt>
<rscale>  1 0.30000000E+03</rscale>
<asrwt>0</asrwt>
<pdfrwt beam="1">  1        1 0.16788830E+00 0.30000000E+03</pdfrwt>
<pdfrwt beam="2">0</pdfrwt>
<totfact> 0.14631314E+01</totfact>
</mgrwt>
</event>
<event>
 6    1  0.1875959E-004  0.3000000E+03  0.7818608E-02  0.1093470E+00
          1   -1    0    0  502    0  0.00000000000E+00  0.00000000000E+00  0.28601033407E+02  0.28601033407E+02  0.00000000000E+00 0.  1.
         13   -1    0    0    0    0 -0.00000000000E+00 -0.00000000000E+00 -0.10000000000E+04  0.10000000000E+04  0.00000000000E+00 0.  1.
    9000005    2    1    2  501    0  0.16999267032E+02  0.47121487010E+01 -0.93543356670E+03  0.98854245861E+03  0.31916932081E+03 0.  0.
         13    1    3    3    0    0 -0.18455201880E+02  0.12483536037E+03 -0.16360601177E+03  0.20661894579E+03  0.00000000000E+00 0.  1.
          1    1    3    3  501    0  0.35454468912E+02 -0.12012321167E+03 -0.77182755493E+03  0.78192351282E+03  0.00000000000E+00 0.  1.
         21    1    1    2  502  501 -0.16999267032E+02 -0.47121487010E+01 -0.35965399895E+02  0.40058574795E+02  0.00000000000E+00 0. -1.
<mgrwt>
<rscale>  1 0.30000000E+03</rscale>
<asrwt>0</asrwt>
<pdfrwt beam="1">  1        1 0.10400398E+00 0.30000000E+03</pdfrwt>
<pdfrwt beam="2">0</pdfrwt>
<totfact> 0.32306110E+01</totfact>
</mgrwt>
</event>
<event>
 6    1  0.1875959E-004  0.3000000E+03  0.7818608E-02  0.1093470E+00
          1   -1    0    0  502    0  0.00000000000E+00  0.00000000000E+00  0.36359366361E+02  0.36359366361E+02  0.00000000000E+00 0.  1.
         13   -1    0    0    0    0 -0.00000000000E+00 -0.00000000000E+00 -0.10000000000E+04  0.10000000000E+04  0.00000000000E+00 0.  1.
    9000005    2    1    2  501    0  0.54368028927E+01 -0.25658276157E+02 -0.94319352287E+03  0.10031029339E+04  0.34046081780E+03 0.  0.
         13    1    3    3    0    0 -0.70100359290E+02 -0.14825473910E+03 -0.28029290905E+03  0.32474242547E+03  0.00000000000E+00 0.  1.
          3    1    3    3  501    0  0.75537162183E+02  0.12259646294E+03 -0.66290061383E+03  0.67836050844E+03  0.00000000000E+00 0.  1.
         21    1    1    2  502  501 -0.54368028927E+01  0.25658276157E+02 -0.20447110767E+02  0.33256432457E+02  0.00000000000E+00 0.  1.
<mgrwt>
<rscale>  1 0.30000000E+03</rscale>
<asrwt>0</asrwt>
<pdfrwt beam="1">  1        1 0.13221616E+00 0.30000000E+03</pdfrwt>
<pdfrwt beam="2">0</pdfrwt>
<totfact> 0.22255429E+01</totfact>
</mgrwt>
</event>
<event>
 6    1  0.1875959E-004  0.3000000E+03  0.7818608E-02  0.1093470E+00
          1   -1    0    0  502    0  0.00000000000E+00  0.00000000000E+00  0.38670735680E+02  0.38670735680E+02  0.00000000000E+00 0.  1.
         13   -1    0    0    0    0 -0.00000000000E+00 -0.00000000000E+00 -0.10000000000E+04  0.10000000000E+04  0.00000000000E+00 0.  1.
    9000005    2    1    2  501    0  0.48890666196E+01  0.17814972164E+02 -0.96172279564E+03  0.10201928821E+04  0.33991396685E+03 0.  0.
         13    1    3    3    0    0  0.18755219113E+02 -0.66546631852E+01 -0.98406945081E+03  0.98427065729E+03  0.00000000000E+00 0.  1.
          3    1    3    3  501    0 -0.13866152493E+02  0.24469635349E+02  0.22346655171E+02  0.35922224825E+02  0.00000000000E+00 0.  1.
         21    1    1    2  502  501 -0.48890666196E+01 -0.17814972164E+02  0.39353131572E+00  0.18477853569E+02  0.00000000000E+00 0.  1.
<mgrwt>
<rscale>  1 0.30000000E+03</rscale>
<asrwt>0</asrwt>
<pdfrwt beam="1">  1        1 0.14062115E+00 0.30000000E+03</pdfrwt>
<pdfrwt beam="2">0</pdfrwt>
<totfact> 0.20081216E+01</totfact>
</mgrwt>
</event>
<event>
 6    1  0.1875959E-004  0.3000000E+03  0.7818608E-02  0.1093470E+00
          1   -1    0    0  502    0  0.00000000000E+00  0.00000000000E+00  0.34226780893E+02  0.34226780893E+02  0.00000000000E+00 0.  1.
         13   -1    0    0    0    0 -0.00000000000E+00 -0.00000000000E+00 -0.10000000000E+04  0.10000000000E+04  0.00000000000E+00 0.  1.
    9000005    2    1    2  501    0 -0.11716707567E+02  0.88960309320E+01 -0.97539416998E+03  0.10166488601E+04  0.28629477357E+03 0.  0.
         13    1    3    3    0    0 -0.58018853310E+01  0.12312051161E+03 -0.21603177939E+03  0.24872083137E+03  0.00000000000E+00 0.  1.
          1    1    3    3  501    0 -0.59148222364E+01 -0.11422448068E+03 -0.75936239059E+03  0.76792802876E+03  0.00000000000E+00 0.  1.
         21    1    1    2  502  501  0.11716707567E+02 -0.88960309320E+01  0.96209508736E+01  0.17577920761E+02  0.00000000000E+00 0. -1.
<mgrwt>
<rscale>  1 0.30000000E+03</rscale>
<asrwt>0</asrwt>
<pdfrwt beam="1">  1        1 0.12446128E+00 0.30000000E+03</pdfrwt>
<pdfrwt beam="2">0</pdfrwt>
<totfact> 0.24542278E+01</totfact>
</mgrwt>
</event>
<event>
 6    1  0.1875959E-004  0.3000000E+03  0.7818608E-02  0.1093470E+00
          1   -1    0    0  502    0  0.00000000000E+00  0.00000000000E+00  0.30758089987E+02  0.30758089987E+02  0.00000000000E+00 0.  1.
         13   -1    0    0    0    0 -0.00000000000E+00 -0.00000000000E+00 -0.10000000000E+04  0.10000000000E+04  0.00000000000E+00 0.  1.
    9000005    2    1    2  501    0  0.27384240136E+02 -0.20551047671E+02 -0.89895021462E+03  0.95257136087E+03  0.31322271154E+03 0.  0.
         13    1    3    3    0    0  0.49806296171E+02 -0.76530851828E+02 -0.55262663663E+02  0.10673144061E+03  0.00000000000E+00 0.  1.
          3    1    3    3  501    0 -0.22422056035E+02  0.55979804156E+02 -0.84368755095E+03  0.84583992026E+03  0.00000000000E+00 0.  1.
         21    1    1    2  502  501 -0.27384240136E+02  0.20551047671E+02 -0.70291695396E+02  0.78186729116E+02  0.00000000000E+00 0.  1.
<mgrwt>
<rscale>  1 0.30000000E+03</rscale>
<asrwt>0</asrwt>
<pdfrwt beam="1">  1        1 0.11184784E+00 0.30000000E+03</pdfrwt>
<pdfrwt beam="2">0</pdfrwt>
<totfact> 0.28969526E+01</totfact>
</mgrwt>
</event>
<event>
 6    1  0.1875959E-004  0.3000000E+03  0.7818608E-02  0.1093470E+00
          1   -1    0    0  502    0  0.00000000000E+00  0.00000000000E+00  0.29320044352E+02  0.29320044352E+02  0.00000000000E+00 0.  1.
         13   -1    0    0    0    0 -0.00000000000E+00 -0.00000000000E+00 -0.10000000000E+04  0.10000000000E+04  0.00000000000E+00 0.  1.
    9000005    2    1    2  501    0 -0.14449485823E+01 -0.10915129157E+02 -0.96522677245E+03  0.10170332576E+04  0.32026972532E+03 0.  0.
         13    1    3    3    0    0  0.14537651376E+03 -0.69739580248E+02 -0.44603638327E+03  0.47428514103E+03  0.00000000000E+00 0.  1.
          1    1    3    3  501    0 -0.14682146235E+03  0.58824451091E+02 -0.51919038918E+03  0.54274811660E+03  0.00000000000E+00 0.  1.
         21    1    1    2  502  501  0.14449485823E+01  0.10915129157E+02 -0.54531832020E+01  0.12286786722E+02  0.00000000000E+00 0.  1.
<mgrwt>
<rscale>  1 0.30000000E+03</rscale>
<asrwt>0</asrwt>
<pdfrwt beam="1">  1        1 0.10661857E+00 0.30000000E+03</pdfrwt>
<pdfrwt beam="2">0</pdfrwt>
<totfact> 0.31135358E+01</totfact>
</mgrwt>
</event>
<event>
 6    1  0.1875959E-004  0.3000000E+03  0.7818608E-02  0.1093470E+00
          1   -1    0    0  502    0  0.00000000000E+00  0.00000000000E+00  0.40901999007E+02  0.40901999007E+02  0.00000000000E+00 0.  1.
         13   -1    0    0    0    0 -0.00000000000E+00 -0.00000000000E+00 -0.10000000000E+04  0.10000000000E+04  0.00000000000E+00 0.  1.
    9000005    2    1    2  501    0 -0.42683675178E+02  0.14710126585E+02 -0.93296953844E+03  0.98873898044E+03  0.32424424101E+03 0.  0.
         13    1    3    3    0    0  0.92400542051E+02  0.12297343737E+03 -0.41349281522E+03  0.44117642130E+03  0.00000000000E+00 0.  1.
          1    1    3    3  501    0 -0.13508421723E+03 -0.10826331078E+03 -0.51947672322E+03  0.54756255914E+03  0.00000000000E+00 0.  1.
         21    1    1    2  502  501  0.42683675178E+02 -0.14710126585E+02 -0.26128462554E+02  0.52163018569E+02  0.00000000000E+00 0.  1.
<mgrwt>
<rscale>  1 0.30000000E+03</rscale>
<asrwt>0</asrwt>
<pdfrwt beam="1">  1        1 0.14873486E+00 0.30000000E+03</pdfrwt>
<pdfrwt beam="2">0</pdfrwt>
<totfact> 0.18233525E+01</totfact>
</mgrwt>
</event>
<event>
 6    1  0.1875959E-004  0.3000000E+03  0.7818608E-02  0.1093470E+00
          1   -1    0    0  502    0  0.00000000000E+00  0.00000000000E+00  0.58047965691E+02  0.58047965691E+02  0.00000000000E+00 0.  1.
         13   -1    0    0    0    0 -0.00000000000E+00 -0.00000000000E+00 -0.10000000000E+04  0.10000000000E+04  0.00000000000E+00 0.  1.
    9000005    2    1    2  501    0 -0.10492040047E+03 -0.72396448694E+02 -0.81815639808E+03  0.88035470254E+03  0.29898992350E+03 0.  0.
         13    1    3    3    0    0 -0.53217157261E+02 -0.83484521024E+02 -0.50980567183E+02  0.11135865170E+03  0.00000000000E+00 0.  1.
          3    1    3    3  501    0 -0.51703243208E+02  0.11088072330E+02 -0.76717583090E+03  0.76899605085E+03  0.00000000000E+00 0.  1.
         21    1    1    2  502  501  0.10492040047E+03  0.72396448694E+02 -0.12379563623E+03  0.17769326315E+03  0.00000000000E+00 0.  1.
<mgrwt>
<rscale>  1 0.30000000E+03</rscale>
<asrwt>0</asrwt>
<pdfrwt beam="1">  1        1 0.21108396E+00 0.30000000E+03</pdfrwt>
<pdfrwt beam="2">0</pdfrwt>
<totfact> 0.90779429E+00</totfact>
</mgrwt>
</event>
<event>
 6    1  0.1875959E-004  0.3000000E+03  0.7818608E-02  0.1093470E+00
          1   -1    0    0  502    0  0.00000000000E+00  0.00000000000E+00  0.37545186529E+02  0.37545186529E+02  0.00000000000E+00 0.  1.
         13   -1    0    0    0    0 -0.00000000000E+00 -0.00000000000E+00 -0.10000000000E+04  0.10000000000E+04  0.00000000000E+00 0.  1.
    9000005    2    1    2  501    0 -0.40804273757E+02  0.16081527366E+02 -0.91679884628E+03  0.97423585373E+03  0.32663706139E+03 0.  0.
         13    1    3    3    0    0  0.93877541454E+02  0.35609995471E+02 -0.85514775166E+02  0.13188571317E+03  0.00000000000E+00 0.  1.
          3    1    3    3  501    0 -0.13468181521E+03 -0.19528468105E+02 -0.83128407111E+03  0.84235014056E+03  0.00000000000E+00 0.  1.
         21    1    1    2  502  501  0.40804273757E+02 -0.16081527366E+02 -0.45655967194E+02  0.63309332801E+02  0.00000000000E+00 0.  1.
<mgrwt>
<rscale>  1 0.30000000E+03</rscale>
<asrwt>0</asrwt>
<pdfrwt beam="1">  1        1 0.13652824E+00 0.30000000E+03</pdfrwt>
<pdfrwt beam="2">0</pdfrwt>
<totfact> 0.21103537E+01</totfact>
</mgrwt>
</event>
<event>
 6    1  0.1875959E-004  0.3000000E+03  0.7818608E-02  0.1093470E+00
          1   -1    0    0  502    0  0.00000000000E+00  0.00000000000E+00  0.38033593397E+02  0.38033593397E+02  0.00000000000E+00 0.  1.
         13   -1    0    0    0    0 -0.00000000000E+00 -0.00000000000E+00 -0.10000000000E+04  0.10000000000E+04  0.00000000000E+00 0.  1.
    9000005    2    1    2  501    0 -0.14039278999E+02 -0.16603001858E+02 -0.96297456256E+03  0.10162671650E+04  0.32404657312E+03 0.  0.
         13    1    3    3    0    0  0.14653618186E+03 -0.41666326299E+02 -0.59137257034E+03  0.61068031923E+03  0.00000000000E+00 0.  1.
          3    1    3    3  501    0 -0.16057546086E+03  0.25063324441E+02 -0.37160199222E+03  0.40558684580E+03  0.00000000000E+00 0.  1.
         21    1    1    2  502  501  0.14039278999E+02  0.16603001858E+02  0.10081559559E+01  0.21766428369E+02  0.00000000000E+00 0.  1.
<mgrwt>
<rscale>  1 0.30000000E+03</rscale>
<asrwt>0</asrwt>
<pdfrwt beam="1">  1        1 0.13830427E+00 0.30000000E+03</pdfrwt>
<pdfrwt beam="2">0</pdfrwt>
<totfact> 0.20651940E+01</totfact>
</mgrwt>
</event>
<event>
 6    1  0.1875959E-004  0.3000000E+03  0.7818608E-02  0.1093470E+00
          1   -1    0    0  502    0  0.00000000000E+00  0.00000000000E+00  0.33906948890E+02  0.33906948890E+02  0.00000000000E+00 0.  1.
         13   -1    0    0    0    0 -0.00000000000E+00 -0.00000000000E+00 -0.10000000000E+04  0.10000000000E+04  0.00000000000E+00 0.  1.
    9000005    2    1    2  501    0  0.68733613065E+01  0.10846868649E+02 -0.95638105565E+03  0.10178066225E+04  0.34799525783E+03 0.  0.
         13    1    3    3    0    0  0.15020647798E+03 -0.63860537382E+02 -0.66354310380E+03  0.68332247502E+03  0.00000000000E+00 0.  1.
          3    1    3    3  501    0 -0.14333311667E+03  0.74707406031E+02 -0.29283795185E+03  0.33448414745E+03  0.00000000000E+00 0.  1.
         21    1    1    2  502  501 -0.68733613065E+01 -0.10846868649E+02 -0.97119954574E+01  0.16100326422E+02  0.00000000000E+00 0. -1.
<mgrwt>
<rscale>  1 0.30000000E+03</rscale>
<asrwt>0</asrwt>
<pdfrwt beam="1">  1        1 0.12329826E+00 0.30000000E+03</pdfrwt>
<pdfrwt beam="2">0</pdfrwt>
<totfact> 0.24910791E+01</totfact>
</mgrwt>
</event>
<event>
 6    1  0.1875959E-004  0.3000000E+03  0.7818608E-02  0.1093470E+00
          1   -1    0    0  502    0  0.00000000000E+00  0.00000000000E+00  0.29520452797E+02  0.29520452797E+02  0.00000000000E+00 0.  1.
         13   -1    0    0    0    0 -0.00000000000E+00 -0.00000000000E+00 -0.10000000000E+04  0.10000000000E+04  0.00000000000E+00 0.  1.
    9000005    2    1    2  501    0  0.31278661058E+01 -0.13775001998E+02 -0.96006763295E+03  0.10119721713E+04  0.31962209145E+03 0.  0.
         13    1    3    3    0    0  0.45657233132E+02 -0.15251812610E+03 -0.34415645502E+03  0.37919655492E+03  0.00000000000E+00 0.  1.
          1    1    3    3  501    0 -0.42529367026E+02  0.13874312410E+03 -0.61591117793E+03  0.63277561635E+03  0.00000000000E+00 0.  1.
         21    1    1    2  502  501 -0.31278661058E+01  0.13775001998E+02 -0.10411914249E+02  0.17548281532E+02  0.00000000000E+00 0.  1.
<mgrwt>
<rscale>  1 0.30000000E+03</rscale>
<asrwt>0</asrwt>
<pdfrwt beam="1">  1        1 0.10734733E+00 0.30000000E+03</pdfrwt>
<pdfrwt beam="2">0</pdfrwt>
<totfact> 0.30819941E+01</totfact>
</mgrwt>
</event>
<event>
 6    1  0.1875959E-004  0.3000000E+03  0.7818608E-02  0.1093470E+00
          1   -1    0    0  502    0  0.00000000000E+00  0.00000000000E+00  0.28290459267E+02  0.28290459267E+02  0.00000000000E+00 0.  1.
         13   -1    0    0    0    0 -0.00000000000E+00 -0.00000000000E+00 -0.10000000000E+04  0.10000000000E+04  0.00000000000E+00 0.  1.
    9000005    2    1    2  501    0  0.37763926982E+01 -0.95549114006E+01 -0.96039831340E+03  0.10130097087E+04  0.32205308894E+03 0.  0.
         13    1    3    3    0    0  0.10858824414E+03 -0.35692060803E+02 -0.12010906179E+03  0.16580565942E+03  0.00000000000E+00 0.  1.
          1    1    3    3  501    0 -0.10481185144E+03  0.26137149402E+02 -0.84028925160E+03  0.84720404929E+03  0.00000000000E+00 0.  1.
         21    1    1    2  502  501 -0.37763926982E+01  0.95549114006E+01 -0.11311227337E+02  0.15280750556E+02  0.00000000000E+00 0.  1.
<mgrwt>
<rscale>  1 0.30000000E+03</rscale>
<asrwt>0</asrwt>
<pdfrwt beam="1">  1        1 0.10287461E+00 0.30000000E+03</pdfrwt>
<pdfrwt beam="2">0</pdfrwt>
<totfact> 0.32831616E+01</totfact>
</mgrwt>
</event>
<event>
 6    1  0.1875959E-004  0.3000000E+03  0.7818608E-02  0.1093470E+00
          1   -1    0    0  502    0  0.00000000000E+00  0.00000000000E+00  0.44523656154E+02  0.44523656154E+02  0.00000000000E+00 0.  1.
         13   -1    0    0    0    0 -0.00000000000E+00 -0.00000000000E+00 -0.10000000000E+04  0.10000000000E+04  0.00000000000E+00 0.  1.
    9000005    2    1    2  501    0 -0.14795372410E+02 -0.54087242863E+01 -0.97049205855E+03  0.10227606363E+04  0.32239157280E+03 0.  0.
         13    1    3    3    0    0 -0.13240275656E+03  0.17788700683E+02 -0.18510355897E+03  0.22827670788E+03  0.00000000000E+00 0.  1.
          3    1    3    3  501    0  0.11760738415E+03 -0.23197424970E+02 -0.78538849957E+03  0.79448392847E+03  0.00000000000E+00 0.  1.
         21    1    1    2  502  501  0.14795372410E+02  0.54087242863E+01  0.15015714700E+02  0.21763019807E+02  0.00000000000E+00 0.  1.
<mgrwt>
<rscale>  1 0.30000000E+03</rscale>
<asrwt>0</asrwt>
<pdfrwt beam="1">  1        1 0.16190455E+00 0.30000000E+03</pdfrwt>
<pdfrwt beam="2">0</pdfrwt>
<totfact> 0.15658779E+01</totfact>
</mgrwt>
</event>
<event>
 6    1  0.1875959E-004  0.3000000E+03  0.7818608E-02  0.1093470E+00
          1   -1    0    0  502    0  0.00000000000E+00  0.00000000000E+00  0.33745385577E+02  0.33745385577E+02  0.00000000000E+00 0.  1.
         13   -1    0    0    0    0 -0.00000000000E+00 -0.00000000000E+00 -0.10000000000E+04  0.10000000000E+04  0.00000000000E+00 0.  1.
    9000005    2    1    2  501    0  0.37403907087E+02 -0.54048287160E+01 -0.86520108859E+03  0.92585618537E+03  0.32742707256E+03 0.  0.
         13    1    3    3    0    0 -0.12548890091E+02  0.11441767102E+03 -0.10876896537E+03  0.15836529263E+03  0.00000000000E+00 0.  1.
          3    1    3    3  501    0  0.49952797178E+02 -0.11982249973E+03 -0.75643212322E+03  0.76749089273E+03  0.00000000000E+00 0.  1.
         21    1    1    2  502  501 -0.37403907087E+02  0.54048287160E+01 -0.10105352583E+03  0.10788920021E+03  0.00000000000E+00 0.  1.
<mgrwt>
<rscale>  1 0.30000000E+03</rscale>
<asrwt>0</asrwt>
<pdfrwt beam="1">  1        1 0.12271075E+00 0.30000000E+03</pdfrwt>
<pdfrwt beam="2">0</pdfrwt>
<totfact> 0.25099676E+01</totfact>
</mgrwt>
</event>
<event>
 6    1  0.1875959E-004  0.3000000E+03  0.7818608E-02  0.1093470E+00
          1   -1    0    0  502    0  0.00000000000E+00  0.00000000000E+00  0.27670063591E+02  0.27670063591E+02  0.00000000000E+00 0.  1.
         13   -1    0    0    0    0 -0.00000000000E+00 -0.00000000000E+00 -0.10000000000E+04  0.10000000000E+04  0.00000000000E+00 0.  1.
    9000005    2    1    2  501    0 -0.44472362181E+01 -0.80824931044E+01 -0.96037735509E+03  0.10125714277E+04  0.32076646875E+03 0.  0.
         13    1    3    3    0    0 -0.44844617545E+02 -0.13033147498E+00 -0.96938768058E+03  0.97042440817E+03  0.00000000000E+00 0.  1.
          3    1    3    3  501    0  0.40397381327E+02 -0.79521616294E+01  0.90103254860E+01  0.42147019563E+02  0.00000000000E+00 0.  1.
         21    1    1    2  502  501  0.44472362181E+01  0.80824931044E+01 -0.11952581316E+02  0.15098635861E+02  0.00000000000E+00 0.  1.
<mgrwt>
<rscale>  1 0.30000000E+03</rscale>
<asrwt>0</asrwt>
<pdfrwt beam="1">  1        1 0.10061863E+00 0.30000000E+03</pdfrwt>
<pdfrwt beam="2">0</pdfrwt>
<totfact> 0.33919416E+01</totfact>
</mgrwt>
</event>
<event>
 6    1  0.1875959E-004  0.3000000E+03  0.7818608E-02  0.1093470E+00
          1   -1    0    0  502    0  0.00000000000E+00  0.00000000000E+00  0.40307715935E+02  0.40307715935E+02  0.00000000000E+00 0.  1.
         13   -1    0    0    0    0 -0.00000000000E+00 -0.00000000000E+00 -0.10000000000E+04  0.10000000000E+04  0.00000000000E+00 0.  1.
    9000005    2    1    2  501    0 -0.31168963926E+00 -0.10472885838E+02 -0.96892109791E+03  0.10263452844E+04  0.33832938159E+03 0.  0.
         13    1    3    3    0    0 -0.55074704827E+02 -0.16128023138E+03 -0.39016778744E+03  0.42576453411E+03  0.00000000000E+00 0.  1.
          1    1    3    3  501    0  0.54763015188E+02  0.15080734555E+03 -0.57875331046E+03  0.60058075034E+03  0.00000000000E+00 0.  1.
         21    1    1    2  502  501  0.31168963926E+00  0.10472885838E+02  0.92288138400E+01  0.13962431489E+02  0.00000000000E+00 0.  1.
<mgrwt>
<rscale>  1 0.30000000E+03</rscale>
<asrwt>0</asrwt>
<pdfrwt beam="1">  1        1 0.14657382E+00 0.30000000E+03</pdfrwt>
<pdfrwt beam="2">0</pdfrwt>
<totfact> 0.18703972E+01</totfact>
</mgrwt>
</event>
<event>
 6    1  0.1875959E-004  0.3000000E+03  0.7818608E-02  0.1093470E+00
          3   -1    0    0  502    0  0.00000000000E+00  0.00000000000E+00  0.31334056930E+02  0.31334056930E+02  0.00000000000E+00 0.  1.
         13   -1    0    0    0    0 -0.00000000000E+00 -0.00000000000E+00 -0.10000000000E+04  0.10000000000E+04  0.00000000000E+00 0.  1.
    9000005    2    1    2  501    0 -0.11359557478E+02  0.11544969780E+01 -0.96718053967E+03  0.10198197687E+04  0.32320858897E+03 0.  0.
         13    1    3    3    0    0  0.54966471173E+02 -0.84324185670E+02 -0.86553800163E+03  0.87137128339E+03  0.00000000000E+00 0.  1.
          1    1    3    3  501    0 -0.66326028651E+02  0.85478682648E+02 -0.10164253804E+03  0.14844848535E+03  0.00000000000E+00 0.  1.
         21    1    1    2  502  501  0.11359557478E+02 -0.11544969780E+01 -0.14854034017E+01  0.11514288195E+02  0.00000000000E+00 0. -1.
<mgrwt>
<rscale>  1 0.30000000E+03</rscale>
<asrwt>0</asrwt>
<pdfrwt beam="1">  1        3 0.11394227E+00 0.30000000E+03</pdfrwt>
<pdfrwt beam="2">0</pdfrwt>
<totfact> 0.27168078E+00</totfact>
</mgrwt>
</event>
<event>
 6    1  0.1875959E-004  0.3000000E+03  0.7818608E-02  0.1093470E+00
          1   -1    0    0  502    0  0.00000000000E+00  0.00000000000E+00  0.38626662994E+02  0.38626662994E+02  0.00000000000E+00 0.  1.
         13   -1    0    0    0    0 -0.00000000000E+00 -0.00000000000E+00 -0.10000000000E+04  0.10000000000E+04  0.00000000000E+00 0.  1.
    9000005    2    1    2  501    0  0.62305186924E+01 -0.50643192470E+02 -0.87798793253E+03  0.94086839999E+03  0.33431569529E+03 0.  0.
         13    1    3    3    0    0 -0.11730709219E+02  0.11150718494E+03 -0.65525775335E+03  0.66478130626E+03  0.00000000000E+00 0.  1.
          3    1    3    3  501    0  0.17961227912E+02 -0.16215037741E+03 -0.22273017918E+03  0.27608709373E+03  0.00000000000E+00 0.  1.
         21    1    1    2  502  501 -0.62305186924E+01  0.50643192470E+02 -0.83385404476E+02  0.97758263008E+02  0.00000000000E+00 0.  1.
<mgrwt>
<rscale>  1 0.30000000E+03</rscale>
<asrwt>0</asrwt>
<pdfrwt beam="1">  1        1 0.14046089E+00 0.30000000E+03</pdfrwt>
<pdfrwt beam="2">0</pdfrwt>
<totfact> 0.20120042E+01</totfact>
</mgrwt>
</event>
<event>
 6    1  0.1875959E-004  0.3000000E+03  0.7818608E-02  0.1093470E+00
          1   -1    0    0  502    0  0.00000000000E+00  0.00000000000E+00  0.33192863164E+02  0.33192863164E+02  0.00000000000E+00 0.  1.
         13   -1    0    0    0    0 -0.00000000000E+00 -0.00000000000E+00 -0.10000000000E+04  0.10000000000E+04  0.00000000000E+00 0.  1.
    9000005    2    1    2  501    0 -0.59723689893E+00  0.22188535058E+02 -0.95262334114E+03  0.10068514919E+04  0.32521686436E+03 0.  0.
         13    1    3    3    0    0 -0.14783452708E+03 -0.37478517556E+02 -0.31851920491E+03  0.35314893540E+03  0.00000000000E+00 0.  1.
          1    1    3    3  501    0  0.14723729018E+03  0.59667052614E+02 -0.63410413623E+03  0.65370255650E+03  0.00000000000E+00 0.  1.
         21    1    1    2  502  501  0.59723689893E+00 -0.22188535058E+02 -0.14183795694E+02  0.26341371267E+02  0.00000000000E+00 0.  1.
<mgrwt>
<rscale>  1 0.30000000E+03</rscale>
<asrwt>0</asrwt>
<pdfrwt beam="1">  1        1 0.12070158E+00 0.30000000E+03</pdfrwt>
<pdfrwt beam="2">0</pdfrwt>
<totfact> 0.25760017E+01</totfact>
</mgrwt>
</event>
<event>
 6    1  0.1875959E-004  0.3000000E+03  0.7818608E-02  0.1093470E+00
          1   -1    0    0  502    0  0.00000000000E+00  0.00000000000E+00  0.28537741548E+02  0.28537741548E+02  0.00000000000E+00 0.  1.
         13   -1    0    0    0    0 -0.00000000000E+00 -0.00000000000E+00 -0.10000000000E+04  0.10000000000E+04  0.00000000000E+00 0.  1.
    9000005    2    1    2  501    0 -0.90740952480E+01 -0.33711399090E+01 -0.95092909008E+03  0.10058371955E+04  0.32764100116E+03 0.  0.
         13    1    3    3    0    0 -0.64836353255E+02 -0.74174211391E+02 -0.71319421551E+02  0.12162247420E+03  0.00000000000E+00 0.  1.
          1    1    3    3  501    0  0.55762258007E+02  0.70803071482E+02 -0.87960966853E+03  0.88421472127E+03  0.00000000000E+00 0.  1.
         21    1    1    2  502  501  0.90740952480E+01  0.33711399090E+01 -0.20533168375E+02  0.22700546081E+02  0.00000000000E+00 0. -1.
<mgrwt>
<rscale>  1 0.30000000E+03</rscale>
<asrwt>0</asrwt>
<pdfrwt beam="1">  1        1 0.10377382E+00 0.30000000E+03</pdfrwt>
<pdfrwt beam="2">0</pdfrwt>
<totfact> 0.32412205E+01</totfact>
</mgrwt>
</event>
<event>
 6    1  0.1875959E-004  0.3000000E+03  0.7818608E-02  0.1093470E+00
          1   -1    0    0  502    0  0.00000000000E+00  0.00000000000E+00  0.37203880469E+02  0.37203880469E+02  0.00000000000E+00 0.  1.
         13   -1    0    0    0    0 -0.00000000000E+00 -0.00000000000E+00 -0.10000000000E+04  0.10000000000E+04  0.00000000000E+00 0.  1.
    9000005    2    1    2  501    0 -0.13083470054E+02  0.11253714469E+01 -0.97154202793E+03  0.10214262202E+04  0.31503201050E+03 0.  0.
         13    1    3    3    0    0  0.12837114412E+03 -0.49175152144E+02 -0.67714853911E+03  0.69096127985E+03  0.00000000000E+00 0.  1.
          1    1    3    3  501    0 -0.14145461418E+03  0.50300523591E+02 -0.29439348883E+03  0.33046494036E+03  0.00000000000E+00 0.  1.
         21    1    1    2  502  501  0.13083470054E+02 -0.11253714469E+01  0.87459084003E+01  0.15777660261E+02  0.00000000000E+00 0. -1.
<mgrwt>
<rscale>  1 0.30000000E+03</rscale>
<asrwt>0</asrwt>
<pdfrwt beam="1">  1        1 0.13528712E+00 0.30000000E+03</pdfrwt>
<pdfrwt beam="2">0</pdfrwt>
<totfact> 0.21426788E+01</totfact>
</mgrwt>
</event>
<event>
 6    1  0.1875959E-004  0.3000000E+03  0.7818608E-02  0.1093470E+00
          1   -1    0    0  502    0  0.00000000000E+00  0.00000000000E+00  0.27048509976E+02  0.27048509976E+02  0.00000000000E+00 0.  1.
         13   -1    0    0    0    0 -0.00000000000E+00 -0.00000000000E+00 -0.10000000000E+04  0.10000000000E+04  0.00000000000E+00 0.  1.
    9000005    2    1    2  501    0 -0.66271932367E+00  0.94445609721E+01 -0.96357439486E+03  0.10137230140E+04  0.31475243571E+03 0.  0.
         13    1    3    3    0    0  0.14243063157E+03  0.70583399410E+02 -0.46383102916E+03  0.49031390425E+03  0.00000000000E+00 0.  1.
          3    1    3    3  501    0 -0.14309335089E+03 -0.61138838438E+02 -0.49974336569E+03  0.52340910977E+03  0.00000000000E+00 0.  1.
         21    1    1    2  502  501  0.66271932367E+00 -0.94445609721E+01 -0.93770951680E+01  0.13325495963E+02  0.00000000000E+00 0.  1.
<mgrwt>
<rscale>  1 0.30000000E+03</rscale>
<asrwt>0</asrwt>
<pdfrwt beam="1">  1        1 0.98358426E-01 0.30000000E+03</pdfrwt>
<pdfrwt beam="2">0</pdfrwt>
<totfact> 0.35063217E+01</totfact>
</mgrwt>
</event>
<event>
 6    1  0.1875959E-004  0.3000000E+03  0.7818608E-02  0.1093470E+00
          1   -1    0    0  502    0  0.00000000000E+00  0.00000000000E+00  0.31224128153E+02  0.31224128153E+02  0.00000000000E+00 0.  1.
         13   -1    0    0    0    0 -0.00000000000E+00 -0.00000000000E+00 -0.10000000000E+04  0.10000000000E+04  0.00000000000E+00 0.  1.
    9000005    2    1    2  501    0  0.80987041092E+01  0.11753019670E+02 -0.95948131969E+03  0.10141914778E+04  0.32829290008E+03 0.  0.
         13    1    3    3    0    0  0.57245795025E+02  0.52011420903E+02 -0.30660691426E+02  0.83200642732E+02  0.00000000000E+00 0.  1.
          1    1    3    3  501    0 -0.49147090916E+02 -0.40258401232E+02 -0.92882062826E+03  0.93099083503E+03  0.00000000000E+00 0.  1.
         21    1    1    2  502  501 -0.80987041092E+01 -0.11753019670E+02 -0.92945521568E+01  0.17032650393E+02  0.00000000000E+00 0.  1.
<mgrwt>
<rscale>  1 0.30000000E+03</rscale>
<asrwt>0</asrwt>
<pdfrwt beam="1">  1        1 0.11354252E+00 0.30000000E+03</pdfrwt>
<pdfrwt beam="2">0</pdfrwt>
<totfact> 0.28313536E+01</totfact>
</mgrwt>
</event>
<event>
 6    1  0.1875959E-004  0.3000000E+03  0.7818608E-02  0.1093470E+00
          1   -1    0    0  502    0  0.00000000000E+00  0.00000000000E+00  0.49036272951E+02  0.49036272951E+02  0.00000000000E+00 0.  1.
         13   -1    0    0    0    0 -0.00000000000E+00 -0.00000000000E+00 -0.10000000000E+04  0.10000000000E+04  0.00000000000E+00 0.  1.
    9000005    2    1    2  501    0 -0.61231816596E+01  0.16829879239E+02 -0.97075022936E+03  0.10223483756E+04  0.32018659434E+03 0.  0.
         13    1    3    3    0    0  0.75834237567E+02 -0.83633457514E+02 -0.13224943415E+03  0.17388300560E+03  0.00000000000E+00 0.  1.
          3    1    3    3  501    0 -0.81957419226E+02  0.10046333675E+03 -0.83850079521E+03  0.84846537005E+03  0.00000000000E+00 0.  1.
         21    1    1    2  502  501  0.61231816596E+01 -0.16829879239E+02  0.19786502312E+02  0.26687897305E+02  0.00000000000E+00 0.  1.
<mgrwt>
<rscale>  1 0.30000000E+03</rscale>
<asrwt>0</asrwt>
<pdfrwt beam="1">  1        1 0.17831410E+00 0.30000000E+03</pdfrwt>
<pdfrwt beam="2">0</pdfrwt>
<totfact> 0.13016785E+01</totfact>
</mgrwt>
</event>
<event>
 6    1  0.1875959E-004  0.3000000E+03  0.7818608E-02  0.1093470E+00
          3   -1    0    0  502    0  0.00000000000E+00  0.00000000000E+00  0.23137290276E+02  0.23137290276E+02  0.00000000000E+00 0.  1.
         13   -1    0    0    0    0 -0.00000000000E+00 -0.00000000000E+00 -0.10000000000E+04  0.10000000000E+04  0.00000000000E+00 0.  1.
    9000005    2    1    2  501    0 -0.40895213794E+02  0.97723672695E+02 -0.67066452133E+03  0.69913163401E+03  0.16664875273E+03 0.  0.
         13    1    3    3    0    0 -0.74932455331E+02  0.97618206886E+02 -0.26655436971E+03  0.29359056387E+03  0.00000000000E+00 0.  1.
          1    1    3    3  501    0  0.34037241537E+02  0.10546580835E+00 -0.40411015162E+03  0.40554107015E+03  0.00000000000E+00 0.  1.
         21    1    1    2  502  501  0.40895213794E+02 -0.97723672695E+02 -0.30619818839E+03  0.32400565627E+03  0.00000000000E+00 0. -1.
<mgrwt>
<rscale>  1 0.30000000E+03</rscale>
<asrwt>0</asrwt>
<pdfrwt beam="1">  1        3 0.84135778E-01 0.30000000E+03</pdfrwt>
<pdfrwt beam="2">0</pdfrwt>
<totfact> 0.59779431E+00</totfact>
</mgrwt>
</event>
<event>
 6    1  0.1875959E-004  0.3000000E+03  0.7818608E-02  0.1093470E+00
          3   -1    0    0  502    0  0.00000000000E+00  0.00000000000E+00  0.35508883841E+02  0.35508883841E+02  0.00000000000E+00 0.  1.
         13   -1    0    0    0    0 -0.00000000000E+00 -0.00000000000E+00 -0.10000000000E+04  0.10000000000E+04  0.00000000000E+00 0.  1.
    9000005    2    1    2  501    0  0.22682375712E+02  0.25091241890E+01 -0.95794576122E+03  0.10117680426E+04  0.32479794441E+03 0.  0.
         13    1    3    3    0    0  0.67494789456E+02 -0.96471778205E+01 -0.96268359188E+03  0.96509497601E+03  0.00000000000E+00 0.  1.
          1    1    3    3  501    0 -0.44812413744E+02  0.12156302009E+02  0.47378306644E+01  0.46673066575E+02  0.00000000000E+00 0.  1.
         21    1    1    2  502  501 -0.22682375712E+02 -0.25091241890E+01 -0.65453549408E+01  0.23740841254E+02  0.00000000000E+00 0.  1.
<mgrwt>
<rscale>  1 0.30000000E+03</rscale>
<asrwt>0</asrwt>
<pdfrwt beam="1">  1        3 0.12912349E+00 0.30000000E+03</pdfrwt>
<pdfrwt beam="2">0</pdfrwt>
<totfact> 0.18116877E+00</totfact>
</mgrwt>
</event>
<event>
 6    1  0.1875959E-004  0.3000000E+03  0.7818608E-02  0.1093470E+00
          1   -1    0    0  502    0  0.00000000000E+00  0.00000000000E+00  0.35948769364E+02  0.35948769364E+02  0.00000000000E+00 0.  1.
         13   -1    0    0    0    0 -0.00000000000E+00 -0.00000000000E+00 -0.10000000000E+04  0.10000000000E+04  0.00000000000E+00 0.  1.
    9000005    2    1    2  501    0  0.23803513470E+02 -0.27492877214E+02 -0.92359864772E+03  0.98155320874E+03  0.33028741115E+03 0.  0.
         13    1    3    3    0    0  0.88096383766E+02  0.43630104004E+02 -0.86201620625E+03  0.86760388348E+03  0.00000000000E+00 0.  1.
          1    1    3    3  501    0 -0.64292870296E+02 -0.71122981218E+02 -0.61582441480E+02  0.11394932526E+03  0.00000000000E+00 0.  1.
         21    1    1    2  502  501 -0.23803513470E+02  0.27492877214E+02 -0.40452582911E+02  0.54395560620E+02  0.00000000000E+00 0. -1.
<mgrwt>
<rscale>  1 0.30000000E+03</rscale>
<asrwt>0</asrwt>
<pdfrwt beam="1">  1        1 0.13072307E+00 0.30000000E+03</pdfrwt>
<pdfrwt beam="2">0</pdfrwt>
<totfact> 0.22673584E+01</totfact>
</mgrwt>
</event>
<event>
 6    1  0.1875959E-004  0.3000000E+03  0.7818608E-02  0.1093470E+00
          1   -1    0    0  502    0  0.00000000000E+00  0.00000000000E+00  0.34672690225E+02  0.34672690225E+02  0.00000000000E+00 0.  1.
         13   -1    0    0    0    0 -0.00000000000E+00 -0.00000000000E+00 -0.10000000000E+04  0.10000000000E+04  0.00000000000E+00 0.  1.
    9000005    2    1    2  501    0  0.98815002284E+01  0.29634975701E+02 -0.94041056624E+03  0.99471371201E+03  0.32265687648E+03 0.  0.
         13    1    3    3    0    0  0.53374024041E+02 -0.75521101153E+02 -0.83337207225E+03  0.83848746798E+03  0.00000000000E+00 0.  1.
          1    1    3    3  501    0 -0.43492523813E+02  0.10515607685E+03 -0.10703849399E+03  0.15622624402E+03  0.00000000000E+00 0.  1.
         21    1    1    2  502  501 -0.98815002284E+01 -0.29634975701E+02 -0.24916743540E+02  0.39958978217E+02  0.00000000000E+00 0. -1.
<mgrwt>
<rscale>  1 0.30000000E+03</rscale>
<asrwt>0</asrwt>
<pdfrwt beam="1">  1        1 0.12608278E+00 0.30000000E+03</pdfrwt>
<pdfrwt beam="2">0</pdfrwt>
<totfact> 0.24040012E+01</totfact>
</mgrwt>
</event>
<event>
 6    1  0.1875959E-004  0.3000000E+03  0.7818608E-02  0.1093470E+00
          1   -1    0    0  502    0  0.00000000000E+00  0.00000000000E+00  0.47353134676E+02  0.47353134676E+02  0.00000000000E+00 0.  1.
         13   -1    0    0    0    0 -0.00000000000E+00 -0.00000000000E+00 -0.10000000000E+04  0.10000000000E+04  0.00000000000E+00 0.  1.
    9000005    2    1    2  501    0  0.98858075840E+00 -0.14728743605E+02 -0.96427810950E+03  0.10285595448E+04  0.35760949584E+03 0.  0.
         13    1    3    3    0    0  0.15809929447E+03 -0.43989315512E+02 -0.70612188360E+03  0.72494038465E+03  0.00000000000E+00 0.  1.
          1    1    3    3  501    0 -0.15711071371E+03  0.29260571908E+02 -0.25815622590E+03  0.30361916013E+03  0.00000000000E+00 0.  1.
         21    1    1    2  502  501 -0.98858075840E+00  0.14728743605E+02  0.11631244176E+02  0.18793589896E+02  0.00000000000E+00 0. -1.
<mgrwt>
<rscale>  1 0.30000000E+03</rscale>
<asrwt>0</asrwt>
<pdfrwt beam="1">  1        1 0.17219358E+00 0.30000000E+03</pdfrwt>
<pdfrwt beam="2">0</pdfrwt>
<totfact> 0.13939332E+01</totfact>
</mgrwt>
</event>
<event>
 6    1  0.1875959E-004  0.3000000E+03  0.7818608E-02  0.1093470E+00
          1   -1    0    0  502    0  0.00000000000E+00  0.00000000000E+00  0.28118936982E+02  0.28118936982E+02  0.00000000000E+00 0.  1.
         13   -1    0    0    0    0 -0.00000000000E+00 -0.00000000000E+00 -0.10000000000E+04  0.10000000000E+04  0.00000000000E+00 0.  1.
    9000005    2    1    2  501    0  0.43496124929E+01  0.11107906783E+02 -0.94466868812E+03  0.99840668244E+03  0.32291588459E+03 0.  0.
         13    1    3    3    0    0 -0.93556239161E+02  0.13250400489E+03 -0.39407731869E+03  0.42615374492E+03  0.00000000000E+00 0.  1.
          1    1    3    3  501    0  0.97905851654E+02 -0.12139609811E+03 -0.55059136942E+03  0.57225293753E+03  0.00000000000E+00 0.  1.
         21    1    1    2  502  501 -0.43496124929E+01 -0.11107906783E+02 -0.27212374902E+02  0.29712254538E+02  0.00000000000E+00 0. -1.
<mgrwt>
<rscale>  1 0.30000000E+03</rscale>
<asrwt>0</asrwt>
<pdfrwt beam="1">  1        1 0.10225090E+00 0.30000000E+03</pdfrwt>
<pdfrwt beam="2">0</pdfrwt>
<totfact> 0.33127196E+01</totfact>
</mgrwt>
</event>
<event>
 6    1  0.1875959E-004  0.3000000E+03  0.7818608E-02  0.1093470E+00
          3   -1    0    0  502    0  0.00000000000E+00  0.00000000000E+00  0.30431258335E+02  0.30431258335E+02  0.00000000000E+00 0.  1.
         13   -1    0    0    0    0 -0.00000000000E+00 -0.00000000000E+00 -0.10000000000E+04  0.10000000000E+04  0.00000000000E+00 0.  1.
    9000005    2    1    2  501    0  0.18915257975E+02 -0.12935638024E+02 -0.93676208057E+03  0.99041382803E+03  0.32073546337E+03 0.  0.
         13    1    3    3    0    0 -0.12744895503E+03  0.59347939497E+02 -0.27547317990E+03  0.30927477573E+03  0.00000000000E+00 0.  1.
          3    1    3    3  501    0  0.14636421300E+03 -0.72283577521E+02 -0.66128890067E+03  0.68113905231E+03  0.00000000000E+00 0.  1.
         21    1    1    2  502  501 -0.18915257975E+02  0.12935638024E+02 -0.32806661100E+02  0.40017430301E+02  0.00000000000E+00 0.  1.
<mgrwt>
<rscale>  1 0.30000000E+03</rscale>
<asrwt>0</asrwt>
<pdfrwt beam="1">  1        3 0.11065935E+00 0.30000000E+03</pdfrwt>
<pdfrwt beam="2">0</pdfrwt>
<totfact> 0.29619073E+00</totfact>
</mgrwt>
</event>
<event>
 6    1  0.1875959E-004  0.3000000E+03  0.7818608E-02  0.1093470E+00
          1   -1    0    0  502    0  0.00000000000E+00  0.00000000000E+00  0.10500210822E+03  0.10500210822E+03  0.00000000000E+00 0.  1.
         13   -1    0    0    0    0 -0.00000000000E+00 -0.00000000000E+00 -0.10000000000E+04  0.10000000000E+04  0.00000000000E+00 0.  1.
    9000005    2    1    2  501    0 -0.58316019782E+02 -0.57005046428E+02 -0.94902424252E+03  0.10071799223E+04  0.32728282806E+03 0.  0.
         13    1    3    3    0    0  0.97966646592E+02  0.25962103017E+02 -0.10946564888E+03  0.14917849350E+03  0.00000000000E+00 0.  1.
          3    1    3    3  501    0 -0.15628266637E+03 -0.82967149445E+02 -0.83955859364E+03  0.85800142882E+03  0.00000000000E+00 0.  1.
         21    1    1    2  502  501  0.58316019782E+02  0.57005046428E+02  0.54026350740E+02  0.97822185908E+02  0.00000000000E+00 0.  1.
<mgrwt>
<rscale>  1 0.30000000E+03</rscale>
<asrwt>0</asrwt>
<pdfrwt beam="1">  1        1 0.38182665E+00 0.30000000E+03</pdfrwt>
<pdfrwt beam="2">0</pdfrwt>
<totfact> 0.13312619E+00</totfact>
</mgrwt>
</event>
<event>
 6    1  0.1875959E-004  0.3000000E+03  0.7818608E-02  0.1093470E+00
          1   -1    0    0  502    0  0.00000000000E+00  0.00000000000E+00  0.28288193742E+02  0.28288193742E+02  0.00000000000E+00 0.  1.
         13   -1    0    0    0    0 -0.00000000000E+00 -0.00000000000E+00 -0.10000000000E+04  0.10000000000E+04  0.00000000000E+00 0.  1.
    9000005    2    1    2  501    0  0.87849036743E+01 -0.47755564317E+01 -0.94575147225E+03  0.10004687866E+04  0.32617781229E+03 0.  0.
         13    1    3    3    0    0 -0.40015678848E+02 -0.94910920550E+02 -0.86192455021E+03  0.86805717995E+03  0.00000000000E+00 0.  1.
          3    1    3    3  501    0  0.48800582522E+02  0.90135364119E+02 -0.83826922035E+02  0.13241160666E+03  0.00000000000E+00 0.  1.
         21    1    1    2  502  501 -0.87849036743E+01  0.47755564317E+01 -0.25960334009E+02  0.27819407141E+02  0.00000000000E+00 0. -1.
<mgrwt>
<rscale>  1 0.30000000E+03</rscale>
<asrwt>0</asrwt>
<pdfrwt beam="1">  1        1 0.10286638E+00 0.30000000E+03</pdfrwt>
<pdfrwt beam="2">0</pdfrwt>
<totfact> 0.32835495E+01</totfact>
</mgrwt>
</event>
<event>
 6    1  0.1875959E-004  0.3000000E+03  0.7818608E-02  0.1093470E+00
          1   -1    0    0  502    0  0.00000000000E+00  0.00000000000E+00  0.27769119603E+02  0.27769119603E+02  0.00000000000E+00 0.  1.
         13   -1    0    0    0    0 -0.00000000000E+00 -0.00000000000E+00 -0.10000000000E+04  0.10000000000E+04  0.00000000000E+00 0.  1.
    9000005    2    1    2  501    0 -0.15585340202E+02 -0.79946959404E+01 -0.94274442322E+03  0.99347233916E+03  0.31291120650E+03 0.  0.
         13    1    3    3    0    0  0.57761328669E-01 -0.15365580258E+03 -0.62453546095E+03  0.64315989535E+03  0.00000000000E+00 0.  1.
          1    1    3    3  501    0 -0.15643101531E+02  0.14566110664E+03 -0.31820896228E+03  0.35031244381E+03  0.00000000000E+00 0.  1.
         21    1    1    2  502  501  0.15585340202E+02  0.79946959404E+01 -0.29486457172E+02  0.34296780446E+02  0.00000000000E+00 0. -1.
<mgrwt>
<rscale>  1 0.30000000E+03</rscale>
<asrwt>0</asrwt>
<pdfrwt beam="1">  1        1 0.10097883E+00 0.30000000E+03</pdfrwt>
<pdfrwt beam="2">0</pdfrwt>
<totfact> 0.33742219E+01</totfact>
</mgrwt>
</event>
<event>
 6    1  0.1875959E-004  0.3000000E+03  0.7818608E-02  0.1093470E+00
          1   -1    0    0  502    0  0.00000000000E+00  0.00000000000E+00  0.34635552605E+02  0.34635552605E+02  0.00000000000E+00 0.  1.
         13   -1    0    0    0    0 -0.00000000000E+00 -0.00000000000E+00 -0.10000000000E+04  0.10000000000E+04  0.00000000000E+00 0.  1.
    9000005    2    1    2  501    0 -0.44091644706E+02 -0.59004338195E+01 -0.76356410060E+03  0.82799028114E+03  0.31711020432E+03 0.  0.
         13    1    3    3    0    0 -0.13228068506E+03 -0.18681963861E+02 -0.71325664498E+03  0.72565986318E+03  0.00000000000E+00 0.  1.
          3    1    3    3  501    0  0.88189040358E+02  0.12781530042E+02 -0.50307455615E+02  0.10233041796E+03  0.00000000000E+00 0.  1.
         21    1    1    2  502  501  0.44091644706E+02  0.59004338195E+01 -0.20180034680E+03  0.20664527147E+03  0.00000000000E+00 0.  1.
<mgrwt>
<rscale>  1 0.30000000E+03</rscale>
<asrwt>0</asrwt>
<pdfrwt beam="1">  1        1 0.12594773E+00 0.30000000E+03</pdfrwt>
<pdfrwt beam="2">0</pdfrwt>
<totfact> 0.24081341E+01</totfact>
</mgrwt>
</event>
<event>
 6    1  0.1875959E-004  0.3000000E+03  0.7818608E-02  0.1093470E+00
          1   -1    0    0  502    0  0.00000000000E+00  0.00000000000E+00  0.29118830799E+02  0.29118830799E+02  0.00000000000E+00 0.  1.
         13   -1    0    0    0    0 -0.00000000000E+00 -0.00000000000E+00 -0.10000000000E+04  0.10000000000E+04  0.00000000000E+00 0.  1.
    9000005    2    1    2  501    0  0.76255623245E+01  0.77117398577E+01 -0.96972427323E+03  0.10182120191E+04  0.31027879350E+03 0.  0.
         13    1    3    3    0    0 -0.12397123329E+03  0.19543594317E+02 -0.19223679343E+03  0.22957744557E+03  0.00000000000E+00 0.  1.
          1    1    3    3  501    0  0.13159679561E+03 -0.11831854460E+02 -0.77748747979E+03  0.78863457357E+03  0.00000000000E+00 0.  1.
         21    1    1    2  502  501 -0.76255623245E+01 -0.77117398577E+01 -0.11568959740E+01  0.10906811665E+02  0.00000000000E+00 0.  1.
<mgrwt>
<rscale>  1 0.30000000E+03</rscale>
<asrwt>0</asrwt>
<pdfrwt beam="1">  1        1 0.10588688E+00 0.30000000E+03</pdfrwt>
<pdfrwt beam="2">0</pdfrwt>
<totfact> 0.31456733E+01</totfact>
</mgrwt>
</event>
<event>
 6    1  0.1875959E-004  0.3000000E+03  0.7818608E-02  0.1093470E+00
          1   -1    0    0  502    0  0.00000000000E+00  0.00000000000E+00  0.31537607789E+02  0.31537607789E+02  0.00000000000E+00 0.  1.
         13   -1    0    0    0    0 -0.00000000000E+00 -0.00000000000E+00 -0.10000000000E+04  0.10000000000E+04  0.00000000000E+00 0.  1.
    9000005    2    1    2  501    0  0.12870726892E+02  0.11995369212E+01 -0.96152300469E+03  0.10168662207E+04  0.33064078360E+03 0.  0.
         13    1    3    3    0    0  0.10346657807E+03  0.47583922184E+01 -0.80473261743E+02  0.13116371804E+03  0.00000000000E+00 0.  1.
          3    1    3    3  501    0 -0.90595851176E+02 -0.35588552972E+01 -0.88104974295E+03  0.88570250268E+03  0.00000000000E+00 0.  1.
         21    1    1    2  502  501 -0.12870726892E+02 -0.11995369212E+01 -0.69393875225E+01  0.14671387076E+02  0.00000000000E+00 0. -1.
<mgrwt>
<rscale>  1 0.30000000E+03</rscale>
<asrwt>0</asrwt>
<pdfrwt beam="1">  1        1 0.11468245E+00 0.30000000E+03</pdfrwt>
<pdfrwt beam="2">0</pdfrwt>
<totfact> 0.27884116E+01</totfact>
</mgrwt>
</event>
<event>
 6    1  0.1875959E-004  0.3000000E+03  0.7818608E-02  0.1093470E+00
          1   -1    0    0  502    0  0.00000000000E+00  0.00000000000E+00  0.15431519165E+02  0.15431519165E+02  0.00000000000E+00 0.  1.
         13   -1    0    0    0    0 -0.00000000000E+00 -0.00000000000E+00 -0.10000000000E+04  0.10000000000E+04  0.00000000000E+00 0.  1.
    9000005    2    1    2  501    0  0.92722692668E+01  0.72485992201E+01 -0.93028548606E+03  0.95988729634E+03  0.23624990778E+03 0.  0.
         13    1    3    3    0    0  0.11803058671E+03  0.37167264315E+02 -0.48730255759E+03  0.50276874164E+03  0.00000000000E+00 0.  1.
          3    1    3    3  501    0 -0.10875831744E+03 -0.29918665095E+02 -0.44298292847E+03  0.45711855470E+03  0.00000000000E+00 0.  1.
         21    1    1    2  502  501 -0.92722692668E+01 -0.72485992201E+01 -0.54282994772E+02  0.55544222827E+02  0.00000000000E+00 0. -1.
<mgrwt>
<rscale>  1 0.30000000E+03</rscale>
<asrwt>0</asrwt>
<pdfrwt beam="1">  1        1 0.56114733E-01 0.30000000E+03</pdfrwt>
<pdfrwt beam="2">0</pdfrwt>
<totfact> 0.75783997E+01</totfact>
</mgrwt>
</event>
<event>
 6    1  0.1875959E-004  0.3000000E+03  0.7818608E-02  0.1093470E+00
          1   -1    0    0  502    0  0.00000000000E+00  0.00000000000E+00  0.44472065037E+02  0.44472065037E+02  0.00000000000E+00 0.  1.
         13   -1    0    0    0    0 -0.00000000000E+00 -0.00000000000E+00 -0.10000000000E+04  0.10000000000E+04  0.00000000000E+00 0.  1.
    9000005    2    1    2  501    0  0.70259093072E+02 -0.14800488858E+02 -0.86449016211E+03  0.92852694563E+03  0.33115502976E+03 0.  0.
         13    1    3    3    0    0  0.18614765029E+03  0.26301306847E+02 -0.68940100119E+03  0.71457431167E+03  0.00000000000E+00 0.  1.
          1    1    3    3  501    0 -0.11588855722E+03 -0.41101795704E+02 -0.17508916092E+03  0.21395263396E+03  0.00000000000E+00 0.  1.
         21    1    1    2  502  501 -0.70259093072E+02  0.14800488858E+02 -0.91037772849E+02  0.11594511941E+03  0.00000000000E+00 0.  1.
<mgrwt>
<rscale>  1 0.30000000E+03</rscale>
<asrwt>0</asrwt>
<pdfrwt beam="1">  1        1 0.16171694E+00 0.30000000E+03</pdfrwt>
<pdfrwt beam="2">0</pdfrwt>
<totfact> 0.15692307E+01</totfact>
</mgrwt>
</event>
<event>
 6    1  0.1875959E-004  0.3000000E+03  0.7818608E-02  0.1093470E+00
          1   -1    0    0  502    0  0.00000000000E+00  0.00000000000E+00  0.30521136267E+02  0.30521136267E+02  0.00000000000E+00 0.  1.
         13   -1    0    0    0    0 -0.00000000000E+00 -0.00000000000E+00 -0.10000000000E+04  0.10000000000E+04  0.00000000000E+00 0.  1.
    9000005    2    1    2  501    0  0.88040670672E+01 -0.18012519174E+02 -0.94224305161E+03  0.99670173494E+03  0.32433072270E+03 0.  0.
         13    1    3    3    0    0 -0.57570254421E+02  0.83309739043E+01 -0.92009930801E+03  0.92193626456E+03  0.00000000000E+00 0.  1.
          1    1    3    3  501    0  0.66374321489E+02 -0.26343493078E+02 -0.22143743605E+02  0.74765470382E+02  0.00000000000E+00 0.  1.
         21    1    1    2  502  501 -0.88040670672E+01  0.18012519174E+02 -0.27235812122E+02  0.33819401323E+02  0.00000000000E+00 0.  1.
<mgrwt>
<rscale>  1 0.30000000E+03</rscale>
<asrwt>0</asrwt>
<pdfrwt beam="1">  1        1 0.11098618E+00 0.30000000E+03</pdfrwt>
<pdfrwt beam="2">0</pdfrwt>
<totfact> 0.29311359E+01</totfact>
</mgrwt>
</event>
<event>
 6    1  0.1875959E-004  0.3000000E+03  0.7818608E-02  0.1093470E+00
          1   -1    0    0  502    0  0.00000000000E+00  0.00000000000E+00  0.39323489098E+02  0.39323489098E+02  0.00000000000E+00 0.  1.
         13   -1    0    0    0    0 -0.00000000000E+00 -0.00000000000E+00 -0.10000000000E+04  0.10000000000E+04  0.00000000000E+00 0.  1.
    9000005    2    1    2  501    0 -0.32286005433E+02 -0.22122659650E+02 -0.93511133154E+03  0.99257547724E+03  0.33051637997E+03 0.  0.
         13    1    3    3    0    0 -0.51053941500E+02 -0.15961433215E+03 -0.31155514487E+03  0.35376524457E+03  0.00000000000E+00 0.  1.
          3    1    3    3  501    0  0.18767936068E+02  0.13749167250E+03 -0.62355618667E+03  0.63881023267E+03  0.00000000000E+00 0.  1.
         21    1    1    2  502  501  0.32286005433E+02  0.22122659650E+02 -0.25565179359E+02  0.46748011856E+02  0.00000000000E+00 0.  1.
<mgrwt>
<rscale>  1 0.30000000E+03</rscale>
<asrwt>0</asrwt>
<pdfrwt beam="1">  1        1 0.14299481E+00 0.30000000E+03</pdfrwt>
<pdfrwt beam="2">0</pdfrwt>
<totfact> 0.19517154E+01</totfact>
</mgrwt>
</event>
<event>
 6    1  0.1875959E-004  0.3000000E+03  0.7818608E-02  0.1093470E+00
          1   -1    0    0  502    0  0.00000000000E+00  0.00000000000E+00  0.33236694034E+02  0.33236694034E+02  0.00000000000E+00 0.  1.
         13   -1    0    0    0    0 -0.00000000000E+00 -0.00000000000E+00 -0.10000000000E+04  0.10000000000E+04  0.00000000000E+00 0.  1.
    9000005    2    1    2  501    0  0.12870016223E+02 -0.14834088550E+00 -0.96737734533E+03  0.10203511841E+04  0.32424057620E+03 0.  0.
         13    1    3    3    0    0 -0.13222635449E+03  0.76736276281E+02 -0.35886376831E+03  0.39007110778E+03  0.00000000000E+00 0.  1.
          1    1    3    3  501    0  0.14509637071E+03 -0.76884617167E+02 -0.60851357702E+03  0.63028007629E+03  0.00000000000E+00 0.  1.
         21    1    1    2  502  501 -0.12870016223E+02  0.14834088550E+00  0.61403936700E+00  0.12885509961E+02  0.00000000000E+00 0. -1.
<mgrwt>
<rscale>  1 0.30000000E+03</rscale>
<asrwt>0</asrwt>
<pdfrwt beam="1">  1        1 0.12086096E+00 0.30000000E+03</pdfrwt>
<pdfrwt beam="2">0</pdfrwt>
<totfact> 0.25706800E+01</totfact>
</mgrwt>
</event>
<event>
 6    1  0.1875959E-004  0.3000000E+03  0.7818608E-02  0.1093470E+00
          1   -1    0    0  502    0  0.00000000000E+00  0.00000000000E+00  0.31736775650E+02  0.31736775650E+02  0.00000000000E+00 0.  1.
         13   -1    0    0    0    0 -0.00000000000E+00 -0.00000000000E+00 -0.10000000000E+04  0.10000000000E+04  0.00000000000E+00 0.  1.
    9000005    2    1    2  501    0 -0.23307666829E+02 -0.14502194622E+02 -0.92903274705E+03  0.98385576343E+03  0.32267128345E+03 0.  0.
         13    1    3    3    0    0 -0.11314401816E+03  0.10871355871E+03 -0.61581968242E+03  0.63549515179E+03  0.00000000000E+00 0.  1.
          1    1    3    3  501    0  0.89836351334E+02 -0.12321575333E+03 -0.31321306463E+03  0.34836061164E+03  0.00000000000E+00 0.  1.
         21    1    1    2  502  501  0.23307666829E+02  0.14502194622E+02 -0.39230477298E+02  0.47881012217E+02  0.00000000000E+00 0.  1.
<mgrwt>
<rscale>  1 0.30000000E+03</rscale>
<asrwt>0</asrwt>
<pdfrwt beam="1">  1        1 0.11540670E+00 0.30000000E+03</pdfrwt>
<pdfrwt beam="2">0</pdfrwt>
<totfact> 0.27616038E+01</totfact>
</mgrwt>
</event>
<event>
 6    1  0.1875959E-004  0.3000000E+03  0.7818608E-02  0.1093470E+00
          1   -1    0    0  502    0  0.00000000000E+00  0.00000000000E+00  0.31349278919E+02  0.31349278919E+02  0.00000000000E+00 0.  1.
         13   -1    0    0    0    0 -0.00000000000E+00 -0.00000000000E+00 -0.10000000000E+04  0.10000000000E+04  0.00000000000E+00 0.  1.
    9000005    2    1    2  501    0  0.15301832837E+02 -0.14600058015E+02 -0.95664407219E+03  0.10070291761E+04  0.31383526401E+03 0.  0.
         13    1    3    3    0    0  0.13062806940E+02  0.14890684893E+03 -0.50688445026E+03  0.52846545062E+03  0.00000000000E+00 0.  1.
          3    1    3    3  501    0  0.22390258964E+01 -0.16350690694E+03 -0.44975962193E+03  0.47856372551E+03  0.00000000000E+00 0.  1.
         21    1    1    2  502  501 -0.15301832837E+02  0.14600058015E+02 -0.12006648891E+02  0.24320102791E+02  0.00000000000E+00 0.  1.
<mgrwt>
<rscale>  1 0.30000000E+03</rscale>
<asrwt>0</asrwt>
<pdfrwt beam="1">  1        1 0.11399762E+00 0.30000000E+03</pdfrwt>
<pdfrwt beam="2">0</pdfrwt>
<totfact> 0.28140984E+01</totfact>
</mgrwt>
</event>
<event>
 6    1  0.1875959E-004  0.3000000E+03  0.7818608E-02  0.1093470E+00
          1   -1    0    0  502    0  0.00000000000E+00  0.00000000000E+00  0.36645295839E+02  0.36645295839E+02  0.00000000000E+00 0.  1.
         13   -1    0    0    0    0 -0.00000000000E+00 -0.00000000000E+00 -0.10000000000E+04  0.10000000000E+04  0.00000000000E+00 0.  1.
    9000005    2    1    2  501    0  0.21177315147E+02  0.37894429844E+02 -0.89201693127E+03  0.95313754572E+03  0.33300526856E+03 0.  0.
         13    1    3    3    0    0 -0.10301602845E+03  0.11126608910E+03 -0.68001406337E+03  0.69671484202E+03  0.00000000000E+00 0.  1.
          3    1    3    3  501    0  0.12419334359E+03 -0.73371659254E+02 -0.21200286790E+03  0.25642270370E+03  0.00000000000E+00 0.  1.
         21    1    1    2  502  501 -0.21177315147E+02 -0.37894429844E+02 -0.71337772887E+02  0.83507750122E+02  0.00000000000E+00 0. -1.
<mgrwt>
<rscale>  1 0.30000000E+03</rscale>
<asrwt>0</asrwt>
<pdfrwt beam="1">  1        1 0.13325590E+00 0.30000000E+03</pdfrwt>
<pdfrwt beam="2">0</pdfrwt>
<totfact> 0.21970201E+01</totfact>
</mgrwt>
</event>
<event>
 6    1  0.1875959E-004  0.3000000E+03  0.7818608E-02  0.1093470E+00
          1   -1    0    0  502    0  0.00000000000E+00  0.00000000000E+00  0.33619211334E+02  0.33619211334E+02  0.00000000000E+00 0.  1.
         13   -1    0    0    0    0 -0.00000000000E+00 -0.00000000000E+00 -0.10000000000E+04  0.10000000000E+04  0.00000000000E+00 0.  1.
    9000005    2    1    2  501    0 -0.16096747053E+02  0.62833281313E+00 -0.96166928071E+03  0.10168353389E+04  0.32998000066E+03 0.  0.
         13    1    3    3    0    0 -0.62797346913E+02  0.93795106655E+02 -0.10600729057E+03  0.15485016779E+03  0.00000000000E+00 0.  1.
          3    1    3    3  501    0  0.46700599860E+02 -0.93166773842E+02 -0.85566199014E+03  0.86198517108E+03  0.00000000000E+00 0.  1.
         21    1    1    2  502  501  0.16096747053E+02 -0.62833281313E+00 -0.47115079551E+01  0.16783872468E+02  0.00000000000E+00 0. -1.
<mgrwt>
<rscale>  1 0.30000000E+03</rscale>
<asrwt>0</asrwt>
<pdfrwt beam="1">  1        1 0.12225194E+00 0.30000000E+03</pdfrwt>
<pdfrwt beam="2">0</pdfrwt>
<totfact> 0.25248490E+01</totfact>
</mgrwt>
</event>
<event>
 6    1  0.1875959E-004  0.3000000E+03  0.7818608E-02  0.1093470E+00
          1   -1    0    0  502    0  0.00000000000E+00  0.00000000000E+00  0.67710799201E+02  0.67710799201E+02  0.00000000000E+00 0.  1.
         13   -1    0    0    0    0 -0.00000000000E+00 -0.00000000000E+00 -0.10000000000E+04  0.10000000000E+04  0.00000000000E+00 0.  1.
    9000005    2    1    2  501    0  0.38660081996E+02 -0.47720218057E+02 -0.94606479083E+03  0.10047696518E+04  0.33279369531E+03 0.  0.
         13    1    3    3    0    0 -0.13447655204E+03  0.33042008173E+02 -0.51448720640E+03  0.53279714986E+03  0.00000000000E+00 0.  1.
          1    1    3    3  501    0  0.17313663403E+03 -0.80762226230E+02 -0.43157758443E+03  0.47197250197E+03  0.00000000000E+00 0.  1.
         21    1    1    2  502  501 -0.38660081996E+02  0.47720218057E+02  0.13775590035E+02  0.62941147370E+02  0.00000000000E+00 0.  1.
<mgrwt>
<rscale>  1 0.30000000E+03</rscale>
<asrwt>0</asrwt>
<pdfrwt beam="1">  1        1 0.24622161E+00 0.30000000E+03</pdfrwt>
<pdfrwt beam="2">0</pdfrwt>
<totfact> 0.62129673E+00</totfact>
</mgrwt>
</event>
<event>
 6    1  0.1875959E-004  0.3000000E+03  0.7818608E-02  0.1093470E+00
          1   -1    0    0  502    0  0.00000000000E+00  0.00000000000E+00  0.20755010376E+02  0.20755010376E+02  0.00000000000E+00 0.  1.
         13   -1    0    0    0    0 -0.00000000000E+00 -0.00000000000E+00 -0.10000000000E+04  0.10000000000E+04  0.00000000000E+00 0.  1.
    9000005    2    1    2  501    0  0.80596778434E+01 -0.23735500123E+01 -0.96120631561E+03  0.10008556157E+04  0.27878986755E+03 0.  0.
         13    1    3    3    0    0  0.73486571950E+02  0.74858258545E+02 -0.14817928405E+03  0.18155201830E+03  0.00000000000E+00 0.  1.
          1    1    3    3  501    0 -0.65426894107E+02 -0.77231808557E+02 -0.81302703156E+03  0.81930359744E+03  0.00000000000E+00 0.  1.
         21    1    1    2  502  501 -0.80596778434E+01  0.23735500123E+01 -0.18038674015E+02  0.19899394635E+02  0.00000000000E+00 0.  1.
<mgrwt>
<rscale>  1 0.30000000E+03</rscale>
<asrwt>0</asrwt>
<pdfrwt beam="1">  1        1 0.75472924E-01 0.30000000E+03</pdfrwt>
<pdfrwt beam="2">0</pdfrwt>
<totfact> 0.50885399E+01</totfact>
</mgrwt>
</event>
<event>
 6    1  0.1875959E-004  0.3000000E+03  0.7818608E-02  0.1093470E+00
          1   -1    0    0  502    0  0.00000000000E+00  0.00000000000E+00  0.58281432214E+02  0.58281432214E+02  0.00000000000E+00 0.  1.
         13   -1    0    0    0    0 -0.00000000000E+00 -0.00000000000E+00 -0.10000000000E+04  0.10000000000E+04  0.00000000000E+00 0.  1.
    9000005    2    1    2  501    0 -0.38646857190E+02  0.72780812960E+02 -0.90943967746E+03  0.96977971999E+03  0.32649893117E+03 0.  0.
         13    1    3    3    0    0 -0.43944815879E+02  0.16313812271E+03 -0.83690647699E+03  0.85379016459E+03  0.00000000000E+00 0.  1.
          1    1    3    3  501    0  0.52979586884E+01 -0.90357309749E+02 -0.72533200475E+02  0.11598955540E+03  0.00000000000E+00 0.  1.
         21    1    1    2  502  501  0.38646857190E+02 -0.72780812960E+02 -0.32278890321E+02  0.88501712222E+02  0.00000000000E+00 0.  1.
<mgrwt>
<rscale>  1 0.30000000E+03</rscale>
<asrwt>0</asrwt>
<pdfrwt beam="1">  1        1 0.21193293E+00 0.30000000E+03</pdfrwt>
<pdfrwt beam="2">0</pdfrwt>
<totfact> 0.89947746E+00</totfact>
</mgrwt>
</event>
<event>
 6    1  0.1875959E-004  0.3000000E+03  0.7818608E-02  0.1093470E+00
          1   -1    0    0  502    0  0.00000000000E+00  0.00000000000E+00  0.32898942426E+02  0.32898942426E+02  0.00000000000E+00 0.  1.
         13   -1    0    0    0    0 -0.00000000000E+00 -0.00000000000E+00 -0.10000000000E+04  0.10000000000E+04  0.00000000000E+00 0.  1.
    9000005    2    1    2  501    0 -0.51854733305E+01  0.10443965838E+02 -0.96157991299E+03  0.10199974466E+04  0.34003366968E+03 0.  0.
         13    1    3    3    0    0  0.92519162938E+02 -0.19910183765E+02 -0.89027275225E+03  0.89528865978E+03  0.00000000000E+00 0.  1.
          1    1    3    3  501    0 -0.97704636269E+02  0.30354149603E+02 -0.71307160742E+02  0.12470878686E+03  0.00000000000E+00 0.  1.
         21    1    1    2  502  501  0.51854733305E+01 -0.10443965838E+02 -0.55211445796E+01  0.12901495788E+02  0.00000000000E+00 0. -1.
<mgrwt>
<rscale>  1 0.30000000E+03</rscale>
<asrwt>0</asrwt>
<pdfrwt beam="1">  1        1 0.11963277E+00 0.30000000E+03</pdfrwt>
<pdfrwt beam="2">0</pdfrwt>
<totfact> 0.26120709E+01</totfact>
</mgrwt>
</event>
<event>
 6    1  0.1875959E-004  0.3000000E+03  0.7818608E-02  0.1093470E+00
          1   -1    0    0  502    0  0.00000000000E+00  0.00000000000E+00  0.40885735543E+02  0.40885735543E+02  0.00000000000E+00 0.  1.
         13   -1    0    0    0    0 -0.00000000000E+00 -0.00000000000E+00 -0.10000000000E+04  0.10000000000E+04  0.00000000000E+00 0.  1.
    9000005    2    1    2  501    0  0.39078109996E+02  0.11992029596E+02 -0.93463568382E+03  0.99324008134E+03  0.33363316719E+03 0.  0.
         13    1    3    3    0    0  0.14147476980E+03  0.76787850701E+02 -0.78177956208E+03  0.79817965910E+03  0.00000000000E+00 0.  1.
          1    1    3    3  501    0 -0.10239665980E+03 -0.64795821105E+02 -0.15285612174E+03  0.19506042224E+03  0.00000000000E+00 0.  1.
         21    1    1    2  502  501 -0.39078109996E+02 -0.11992029596E+02 -0.24478580632E+02  0.47645654203E+02  0.00000000000E+00 0.  1.
<mgrwt>
<rscale>  1 0.30000000E+03</rscale>
<asrwt>0</asrwt>
<pdfrwt beam="1">  1        1 0.14867572E+00 0.30000000E+03</pdfrwt>
<pdfrwt beam="2">0</pdfrwt>
<totfact> 0.18246202E+01</totfact>
</mgrwt>
</event>
<event>
 6    1  0.1875959E-004  0.3000000E+03  0.7818608E-02  0.1093470E+00
          1   -1    0    0  502    0  0.00000000000E+00  0.00000000000E+00  0.27188562795E+02  0.27188562795E+02  0.00000000000E+00 0.  1.
         13   -1    0    0    0    0 -0.00000000000E+00 -0.00000000000E+00 -0.10000000000E+04  0.10000000000E+04  0.00000000000E+00 0.  1.
    9000005    2    1    2  501    0  0.14269586091E+02 -0.40497496182E+00 -0.97996770237E+03  0.10112199303E+04  0.24904871952E+03 0.  0.
         13    1    3    3    0    0  0.20333471611E+02  0.10655030188E+03 -0.74659607756E+03  0.75443496733E+03  0.00000000000E+00 0.  1.
          1    1    3    3  501    0 -0.60638855202E+01 -0.10695527684E+03 -0.23337162481E+03  0.25678496300E+03  0.00000000000E+00 0.  1.
         21    1    1    2  502  501 -0.14269586091E+02  0.40497496182E+00  0.71562651669E+01  0.15968632473E+02  0.00000000000E+00 0.  1.
<mgrwt>
<rscale>  1 0.30000000E+03</rscale>
<asrwt>0</asrwt>
<pdfrwt beam="1">  1        1 0.98867710E-01 0.30000000E+03</pdfrwt>
<pdfrwt beam="2">0</pdfrwt>
<totfact> 0.34800576E+01</totfact>
</mgrwt>
</event>
<event>
 6    1  0.1875959E-004  0.3000000E+03  0.7818608E-02  0.1093470E+00
          1   -1    0    0  502    0  0.00000000000E+00  0.00000000000E+00  0.52043982278E+02  0.52043982278E+02  0.00000000000E+00 0.  1.
         13   -1    0    0    0    0 -0.00000000000E+00 -0.00000000000E+00 -0.10000000000E+04  0.10000000000E+04  0.00000000000E+00 0.  1.
    9000005    2    1    2  501    0  0.13996437968E+01 -0.20739779710E+02 -0.97018568078E+03  0.10216095382E+04  0.31936451891E+03 0.  0.
         13    1    3    3    0    0 -0.15893895395E+03 -0.10216923672E+02 -0.47084859043E+03  0.49705570284E+03  0.00000000000E+00 0.  1.
          1    1    3    3  501    0  0.16033859774E+03 -0.10522856039E+02 -0.49933709035E+03  0.52455383539E+03  0.00000000000E+00 0.  1.
         21    1    1    2  502  501 -0.13996437968E+01  0.20739779710E+02  0.22229663057E+02  0.30434444053E+02  0.00000000000E+00 0.  1.
<mgrwt>
<rscale>  1 0.30000000E+03</rscale>
<asrwt>0</asrwt>
<pdfrwt beam="1">  1        1 0.18925124E+00 0.30000000E+03</pdfrwt>
<pdfrwt beam="2">0</pdfrwt>
<totfact> 0.11529013E+01</totfact>
</mgrwt>
</event>
<event>
 6    1  0.1875959E-004  0.3000000E+03  0.7818608E-02  0.1093470E+00
          1   -1    0    0  502    0  0.00000000000E+00  0.00000000000E+00  0.30462421156E+02  0.30462421156E+02  0.00000000000E+00 0.  1.
         13   -1    0    0    0    0 -0.00000000000E+00 -0.00000000000E+00 -0.10000000000E+04  0.10000000000E+04  0.00000000000E+00 0.  1.
    9000005    2    1    2  501    0 -0.27829674741E+02 -0.18212134346E+02 -0.91005609709E+03  0.96231391196E+03  0.31103021183E+03 0.  0.
         13    1    3    3    0    0  0.47722269868E+02  0.38182516043E+02 -0.84629404151E+03  0.84849804023E+03  0.00000000000E+00 0.  1.
          1    1    3    3  501    0 -0.75551944609E+02 -0.56394650390E+02 -0.63762055574E+02  0.11381587173E+03  0.00000000000E+00 0.  1.
         21    1    1    2  502  501  0.27829674741E+02  0.18212134346E+02 -0.59481481758E+02  0.68148509197E+02  0.00000000000E+00 0.  1.
<mgrwt>
<rscale>  1 0.30000000E+03</rscale>
<asrwt>0</asrwt>
<pdfrwt beam="1">  1        1 0.11077267E+00 0.30000000E+03</pdfrwt>
<pdfrwt beam="2">0</pdfrwt>
<totfact> 0.29396943E+01</totfact>
</mgrwt>
</event>
<event>
 6    1  0.1875959E-004  0.3000000E+03  0.7818608E-02  0.1093470E+00
          1   -1    0    0  502    0  0.00000000000E+00  0.00000000000E+00  0.41793837888E+02  0.41793837888E+02  0.00000000000E+00 0.  1.
         13   -1    0    0    0    0 -0.00000000000E+00 -0.00000000000E+00 -0.10000000000E+04  0.10000000000E+04  0.00000000000E+00 0.  1.
    9000005    2    1    2  501    0  0.36737267609E+02 -0.75843014597E+02 -0.80217725645E+03  0.86446135610E+03  0.31097153525E+03 0.  0.
         13    1    3    3    0    0 -0.53621464743E+02 -0.15439337574E+03 -0.65319187935E+03  0.67332919675E+03  0.00000000000E+00 0.  1.
          3    1    3    3  501    0  0.90358732352E+02  0.78550361142E+02 -0.14898537710E+03  0.19113215935E+03  0.00000000000E+00 0.  1.
         21    1    1    2  502  501 -0.36737267609E+02  0.75843014597E+02 -0.15602890566E+03  0.17733248179E+03  0.00000000000E+00 0. -1.
<mgrwt>
<rscale>  1 0.30000000E+03</rscale>
<asrwt>0</asrwt>
<pdfrwt beam="1">  1        1 0.15197791E+00 0.30000000E+03</pdfrwt>
<pdfrwt beam="2">0</pdfrwt>
<totfact> 0.17554796E+01</totfact>
</mgrwt>
</event>
<event>
 6    1  0.1875959E-004  0.3000000E+03  0.7818608E-02  0.1093470E+00
          3   -1    0    0  502    0  0.00000000000E+00  0.00000000000E+00  0.40020034030E+02  0.40020034030E+02  0.00000000000E+00 0.  1.
         13   -1    0    0    0    0 -0.00000000000E+00 -0.00000000000E+00 -0.10000000000E+04  0.10000000000E+04  0.00000000000E+00 0.  1.
    9000005    2    1    2  501    0 -0.19328550764E+02  0.36044898315E+02 -0.93862699095E+03  0.99388136141E+03  0.32420164226E+03 0.  0.
         13    1    3    3    0    0 -0.12182376582E+03  0.42914181062E+01 -0.13017416621E+03  0.17833889014E+03  0.00000000000E+00 0.  1.
          1    1    3    3  501    0  0.10249521506E+03  0.31753480209E+02 -0.80845282473E+03  0.81554247126E+03  0.00000000000E+00 0.  1.
         21    1    1    2  502  501  0.19328550764E+02 -0.36044898315E+02 -0.21352975022E+02  0.46138672623E+02  0.00000000000E+00 0.  1.
<mgrwt>
<rscale>  1 0.30000000E+03</rscale>
<asrwt>0</asrwt>
<pdfrwt beam="1">  1        3 0.14552770E+00 0.30000000E+03</pdfrwt>
<pdfrwt beam="2">0</pdfrwt>
<totfact> 0.11368504E+00</totfact>
</mgrwt>
</event>
<event>
 6    1  0.1875959E-004  0.3000000E+03  0.7818608E-02  0.1093470E+00
          1   -1    0    0  502    0  0.00000000000E+00  0.00000000000E+00  0.48491133399E+02  0.48491133399E+02  0.00000000000E+00 0.  1.
         13   -1    0    0    0    0 -0.00000000000E+00 -0.00000000000E+00 -0.10000000000E+04  0.10000000000E+04  0.00000000000E+00 0.  1.
    9000005    2    1    2  501    0 -0.13777921700E+02  0.92410469662E+02 -0.81368980980E+03  0.88198702400E+03  0.32723153561E+03 0.  0.
         13    1    3    3    0    0 -0.91147684679E+02  0.63413031124E+02 -0.78753038680E+03  0.79531957292E+03  0.00000000000E+00 0.  1.
          1    1    3    3  501    0  0.77369762979E+02  0.28997438538E+02 -0.26159423005E+02  0.86667451082E+02  0.00000000000E+00 0.  1.
         21    1    1    2  502  501  0.13777921700E+02 -0.92410469662E+02 -0.13781905680E+03  0.16650410940E+03  0.00000000000E+00 0.  1.
<mgrwt>
<rscale>  1 0.30000000E+03</rscale>
<asrwt>0</asrwt>
<pdfrwt beam="1">  1        1 0.17633177E+00 0.30000000E+03</pdfrwt>
<pdfrwt beam="2">0</pdfrwt>
<totfact> 0.13308146E+01</totfact>
</mgrwt>
</event>
<event>
 6    1  0.1875959E-004  0.3000000E+03  0.7818608E-02  0.1093470E+00
          1   -1    0    0  502    0  0.00000000000E+00  0.00000000000E+00  0.65440931904E+02  0.65440931904E+02  0.00000000000E+00 0.  1.
         13   -1    0    0    0    0 -0.00000000000E+00 -0.00000000000E+00 -0.10000000000E+04  0.10000000000E+04  0.00000000000E+00 0.  1.
    9000005    2    1    2  501    0 -0.14762087672E+02  0.87381138939E+01 -0.97274096277E+03  0.10235824686E+04  0.31812232800E+03 0.  0.
         13    1    3    3    0    0  0.88324891572E+02 -0.11951116511E+03 -0.36846128665E+03  0.39730079891E+03  0.00000000000E+00 0.  1.
          1    1    3    3  501    0 -0.10308697924E+03  0.12824927901E+03 -0.60427967612E+03  0.62628166972E+03  0.00000000000E+00 0.  1.
         21    1    1    2  502  501  0.14762087672E+02 -0.87381138939E+01  0.38181894672E+02  0.41858463273E+02  0.00000000000E+00 0.  1.
<mgrwt>
<rscale>  1 0.30000000E+03</rscale>
<asrwt>0</asrwt>
<pdfrwt beam="1">  1        1 0.23796753E+00 0.30000000E+03</pdfrwt>
<pdfrwt beam="2">0</pdfrwt>
<totfact> 0.67912421E+00</totfact>
</mgrwt>
</event>
<event>
 6    1  0.1875959E-004  0.3000000E+03  0.7818608E-02  0.1093470E+00
          1   -1    0    0  502    0  0.00000000000E+00  0.00000000000E+00  0.29767505433E+02  0.29767505433E+02  0.00000000000E+00 0.  1.
         13   -1    0    0    0    0 -0.00000000000E+00 -0.00000000000E+00 -0.10000000000E+04  0.10000000000E+04  0.00000000000E+00 0.  1.
    9000005    2    1    2  501    0  0.86427730208E+01 -0.12693373046E+02 -0.95133361509E+03  0.10054161833E+04  0.32494651124E+03 0.  0.
         13    1    3    3    0    0  0.12735999058E+03  0.99393250955E+02 -0.44571441684E+03  0.47408957689E+03  0.00000000000E+00 0.  1.
          3    1    3    3  501    0 -0.11871721756E+03 -0.11208662400E+03 -0.50561919825E+03  0.53132660639E+03  0.00000000000E+00 0.  1.
         21    1    1    2  502  501 -0.86427730208E+01  0.12693373046E+02 -0.18898879479E+02  0.24351322148E+02  0.00000000000E+00 0.  1.
<mgrwt>
<rscale>  1 0.30000000E+03</rscale>
<asrwt>0</asrwt>
<pdfrwt beam="1">  1        1 0.10824570E+00 0.30000000E+03</pdfrwt>
<pdfrwt beam="2">0</pdfrwt>
<totfact> 0.30437381E+01</totfact>
</mgrwt>
</event>
<event>
 6    1  0.1875959E-004  0.3000000E+03  0.7818608E-02  0.1093470E+00
          1   -1    0    0  502    0  0.00000000000E+00  0.00000000000E+00  0.17923723420E+02  0.17923723420E+02  0.00000000000E+00 0.  1.
         13   -1    0    0    0    0 -0.00000000000E+00 -0.00000000000E+00 -0.10000000000E+04  0.10000000000E+04  0.00000000000E+00 0.  1.
    9000005    2    1    2  501    0 -0.91027196995E+01  0.25109228972E+02 -0.89509402481E+03  0.92693336674E+03  0.23937171980E+03 0.  0.
         13    1    3    3    0    0 -0.13948409003E+02  0.62358412671E+02 -0.88597886978E+03  0.88828018521E+03  0.00000000000E+00 0.  1.
          3    1    3    3  501    0  0.48456893035E+01 -0.37249183700E+02 -0.91151550317E+01  0.38653181530E+02  0.00000000000E+00 0.  1.
         21    1    1    2  502  501  0.91027196995E+01 -0.25109228972E+02 -0.86982251769E+02  0.90990356677E+02  0.00000000000E+00 0.  1.
<mgrwt>
<rscale>  1 0.30000000E+03</rscale>
<asrwt>0</asrwt>
<pdfrwt beam="1">  1        1 0.65177314E-01 0.30000000E+03</pdfrwt>
<pdfrwt beam="2">0</pdfrwt>
<totfact> 0.62087568E+01</totfact>
</mgrwt>
</event>
<event>
 6    1  0.1875959E-004  0.3000000E+03  0.7818608E-02  0.1093470E+00
          1   -1    0    0  502    0  0.00000000000E+00  0.00000000000E+00  0.50127778349E+02  0.50127778349E+02  0.00000000000E+00 0.  1.
         13   -1    0    0    0    0 -0.00000000000E+00 -0.00000000000E+00 -0.10000000000E+04  0.10000000000E+04  0.00000000000E+00 0.  1.
    9000005    2    1    2  501    0  0.15477181700E+02 -0.23927509810E+02 -0.96332194045E+03  0.10186164500E+04  0.32981546712E+03 0.  0.
         13    1    3    3    0    0  0.80383671042E+02  0.77872016113E+02 -0.11044835152E+03  0.15724001977E+03  0.00000000000E+00 0.  1.
          3    1    3    3  501    0 -0.64906489342E+02 -0.10179952592E+03 -0.85287358893E+03  0.86137643022E+03  0.00000000000E+00 0.  1.
         21    1    1    2  502  501 -0.15477181700E+02  0.23927509810E+02  0.13449718803E+02  0.31511328359E+02  0.00000000000E+00 0.  1.
<mgrwt>
<rscale>  1 0.30000000E+03</rscale>
<asrwt>0</asrwt>
<pdfrwt beam="1">  1        1 0.18228321E+00 0.30000000E+03</pdfrwt>
<pdfrwt beam="2">0</pdfrwt>
<totfact> 0.12454092E+01</totfact>
</mgrwt>
</event>
<event>
 6    1  0.1875959E-004  0.3000000E+03  0.7818608E-02  0.1093470E+00
          1   -1    0    0  502    0  0.00000000000E+00  0.00000000000E+00  0.30935519527E+02  0.30935519527E+02  0.00000000000E+00 0.  1.
         13   -1    0    0    0    0 -0.00000000000E+00 -0.00000000000E+00 -0.10000000000E+04  0.10000000000E+04  0.00000000000E+00 0.  1.
    9000005    2    1    2  501    0 -0.56078302767E+01  0.11170022885E+02 -0.95287312228E+03  0.10104812473E+04  0.33607878070E+03 0.  0.
         13    1    3    3    0    0  0.63719207243E+02 -0.12706865530E+03 -0.22336456175E+03  0.26476085054E+03  0.00000000000E+00 0.  1.
          3    1    3    3  501    0 -0.69327037520E+02  0.13823867819E+03 -0.72950856053E+03  0.74572039677E+03  0.00000000000E+00 0.  1.
         21    1    1    2  502  501  0.56078302767E+01 -0.11170022885E+02 -0.16191358189E+02  0.20454272211E+02  0.00000000000E+00 0. -1.
<mgrwt>
<rscale>  1 0.30000000E+03</rscale>
<asrwt>0</asrwt>
<pdfrwt beam="1">  1        1 0.11249304E+00 0.30000000E+03</pdfrwt>
<pdfrwt beam="2">0</pdfrwt>
<totfact> 0.28717241E+01</totfact>
</mgrwt>
</event>
<event>
 6    1  0.1875959E-004  0.3000000E+03  0.7818608E-02  0.1093470E+00
          1   -1    0    0  502    0  0.00000000000E+00  0.00000000000E+00  0.32835263241E+02  0.32835263241E+02  0.00000000000E+00 0.  1.
         13   -1    0    0    0    0 -0.00000000000E+00 -0.00000000000E+00 -0.10000000000E+04  0.10000000000E+04  0.00000000000E+00 0.  1.
    9000005    2    1    2  501    0  0.11200023609E+02  0.37239918206E+01 -0.96567884706E+03  0.10209391920E+04  0.33112216681E+03 0.  0.
         13    1    3    3    0    0 -0.43358747761E+02 -0.13620965574E+03 -0.23561221038E+03  0.27558331772E+03  0.00000000000E+00 0.  1.
          3    1    3    3  501    0  0.54558771370E+02  0.13993364756E+03 -0.73006663668E+03  0.74535587423E+03  0.00000000000E+00 0.  1.
         21    1    1    2  502  501 -0.11200023609E+02 -0.37239918206E+01 -0.14858896956E+01  0.11896071289E+02  0.00000000000E+00 0. -1.
<mgrwt>
<rscale>  1 0.30000000E+03</rscale>
<asrwt>0</asrwt>
<pdfrwt beam="1">  1        1 0.11940121E+00 0.30000000E+03</pdfrwt>
<pdfrwt beam="2">0</pdfrwt>
<totfact> 0.26199746E+01</totfact>
</mgrwt>
</event>
<event>
 6    1  0.1875959E-004  0.3000000E+03  0.7818608E-02  0.1093470E+00
          1   -1    0    0  502    0  0.00000000000E+00  0.00000000000E+00  0.30634306243E+02  0.30634306243E+02  0.00000000000E+00 0.  1.
         13   -1    0    0    0    0 -0.00000000000E+00 -0.00000000000E+00 -0.10000000000E+04  0.10000000000E+04  0.00000000000E+00 0.  1.
    9000005    2    1    2  501    0 -0.81795640958E+01  0.65411856310E+01 -0.95766610554E+03  0.10149316713E+04  0.33593486783E+03 0.  0.
         13    1    3    3    0    0 -0.62080747127E+02  0.13983692656E+03 -0.25234004573E+03  0.29509978630E+03  0.00000000000E+00 0.  1.
          1    1    3    3  501    0  0.53901183031E+02 -0.13329574093E+03 -0.70532605981E+03  0.71983188505E+03  0.00000000000E+00 0.  1.
         21    1    1    2  502  501  0.81795640958E+01 -0.65411856310E+01 -0.11699588213E+02  0.15702634894E+02  0.00000000000E+00 0. -1.
<mgrwt>
<rscale>  1 0.30000000E+03</rscale>
<asrwt>0</asrwt>
<pdfrwt beam="1">  1        1 0.11139771E+00 0.30000000E+03</pdfrwt>
<pdfrwt beam="2">0</pdfrwt>
<totfact> 0.29147392E+01</totfact>
</mgrwt>
</event>
<event>
 6    1  0.1875959E-004  0.3000000E+03  0.7818608E-02  0.1093470E+00
          1   -1    0    0  502    0  0.00000000000E+00  0.00000000000E+00  0.39018224808E+02  0.39018224808E+02  0.00000000000E+00 0.  1.
         13   -1    0    0    0    0 -0.00000000000E+00 -0.00000000000E+00 -0.10000000000E+04  0.10000000000E+04  0.00000000000E+00 0.  1.
    9000005    2    1    2  501    0  0.53700433022E+02 -0.13826806396E+02 -0.86599308189E+03  0.92902836647E+03  0.33177518103E+03 0.  0.
         13    1    3    3    0    0 -0.42194629597E+02  0.14374284761E+03 -0.33696507261E+03  0.36876530906E+03  0.00000000000E+00 0.  1.
          3    1    3    3  501    0  0.95895062620E+02 -0.15756965401E+03 -0.52902800928E+03  0.56026305742E+03  0.00000000000E+00 0.  1.
         21    1    1    2  502  501 -0.53700433022E+02  0.13826806396E+02 -0.94988693299E+02  0.10998985833E+03  0.00000000000E+00 0.  1.
<mgrwt>
<rscale>  1 0.30000000E+03</rscale>
<asrwt>0</asrwt>
<pdfrwt beam="1">  1        1 0.14188475E+00 0.30000000E+03</pdfrwt>
<pdfrwt beam="2">0</pdfrwt>
<totfact> 0.19778405E+01</totfact>
</mgrwt>
</event>
<event>
 6    1  0.1875959E-004  0.3000000E+03  0.7818608E-02  0.1093470E+00
          1   -1    0    0  502    0  0.00000000000E+00  0.00000000000E+00  0.48366669258E+02  0.48366669258E+02  0.00000000000E+00 0.  1.
         13   -1    0    0    0    0 -0.00000000000E+00 -0.00000000000E+00 -0.10000000000E+04  0.10000000000E+04  0.00000000000E+00 0.  1.
    9000005    2    1    2  501    0 -0.25111297221E+02 -0.87172946111E+01 -0.96972744973E+03  0.10162113335E+04  0.30266743988E+03 0.  0.
         13    1    3    3    0    0  0.67709601955E+02  0.37343063914E+02 -0.86651360525E+03  0.86995685106E+03  0.00000000000E+00 0.  1.
          3    1    3    3  501    0 -0.92820899176E+02 -0.46060358526E+02 -0.10321384448E+03  0.14625448247E+03  0.00000000000E+00 0.  1.
         21    1    1    2  502  501  0.25111297221E+02  0.87172946111E+01  0.18094118990E+02  0.32155335723E+02  0.00000000000E+00 0.  1.
<mgrwt>
<rscale>  1 0.30000000E+03</rscale>
<asrwt>0</asrwt>
<pdfrwt beam="1">  1        1 0.17587917E+00 0.30000000E+03</pdfrwt>
<pdfrwt beam="2">0</pdfrwt>
<totfact> 0.13375654E+01</totfact>
</mgrwt>
</event>
<event>
 6    1  0.1875959E-004  0.3000000E+03  0.7818608E-02  0.1093470E+00
          1   -1    0    0  502    0  0.00000000000E+00  0.00000000000E+00  0.30166860663E+02  0.30166860663E+02  0.00000000000E+00 0.  1.
         13   -1    0    0    0    0 -0.00000000000E+00 -0.00000000000E+00 -0.10000000000E+04  0.10000000000E+04  0.00000000000E+00 0.  1.
    9000005    2    1    2  501    0 -0.16652603787E+02 -0.61221807762E+01 -0.94326588813E+03  0.99821988668E+03  0.32615581573E+03 0.  0.
         13    1    3    3    0    0 -0.11518861169E+02 -0.10957482731E+03 -0.85518362205E+03  0.86225190888E+03  0.00000000000E+00 0.  1.
          3    1    3    3  501    0 -0.51337426173E+01  0.10345264653E+03 -0.88082266081E+02  0.13596797780E+03  0.00000000000E+00 0.  1.
         21    1    1    2  502  501  0.16652603787E+02  0.61221807762E+01 -0.26567251202E+02  0.31946973985E+02  0.00000000000E+00 0. -1.
<mgrwt>
<rscale>  1 0.30000000E+03</rscale>
<asrwt>0</asrwt>
<pdfrwt beam="1">  1        1 0.10969791E+00 0.30000000E+03</pdfrwt>
<pdfrwt beam="2">0</pdfrwt>
<totfact> 0.29833182E+01</totfact>
</mgrwt>
</event>
<event>
 6    1  0.1875959E-004  0.3000000E+03  0.7818608E-02  0.1093470E+00
          1   -1    0    0  502    0  0.00000000000E+00  0.00000000000E+00  0.39454969741E+02  0.39454969741E+02  0.00000000000E+00 0.  1.
         13   -1    0    0    0    0 -0.00000000000E+00 -0.00000000000E+00 -0.10000000000E+04  0.10000000000E+04  0.00000000000E+00 0.  1.
    9000005    2    1    2  501    0  0.31878223545E+02 -0.11486415643E+02 -0.94700608929E+03  0.10029657686E+04  0.32859038461E+03 0.  0.
         13    1    3    3    0    0 -0.58160111452E+02  0.13889404147E+03 -0.52065481592E+03  0.54199224225E+03  0.00000000000E+00 0.  1.
          3    1    3    3  501    0  0.90038334997E+02 -0.15038045711E+03 -0.42635127337E+03  0.46097352631E+03  0.00000000000E+00 0.  1.
         21    1    1    2  502  501 -0.31878223545E+02  0.11486415643E+02 -0.13538940971E+02  0.36489201188E+02  0.00000000000E+00 0.  1.
<mgrwt>
<rscale>  1 0.30000000E+03</rscale>
<asrwt>0</asrwt>
<pdfrwt beam="1">  1        1 0.14347292E+00 0.30000000E+03</pdfrwt>
<pdfrwt beam="2">0</pdfrwt>
<totfact> 0.19405977E+01</totfact>
</mgrwt>
</event>
<event>
 6    1  0.1875959E-004  0.3000000E+03  0.7818608E-02  0.1093470E+00
          1   -1    0    0  502    0  0.00000000000E+00  0.00000000000E+00  0.29272510291E+02  0.29272510291E+02  0.00000000000E+00 0.  1.
         13   -1    0    0    0    0 -0.00000000000E+00 -0.00000000000E+00 -0.10000000000E+04  0.10000000000E+04  0.00000000000E+00 0.  1.
    9000005    2    1    2  501    0 -0.69048537487E+01  0.95668059911E+01 -0.96517440640E+03  0.10162326669E+04  0.31784901708E+03 0.  0.
         13    1    3    3    0    0  0.51321748588E+02 -0.46319788041E+02 -0.92221798501E+03  0.92480563175E+03  0.00000000000E+00 0.  1.
          3    1    3    3  501    0 -0.58226602337E+02  0.55886594032E+02 -0.42956421392E+02  0.91427035121E+02  0.00000000000E+00 0.  1.
         21    1    1    2  502  501  0.69048537487E+01 -0.95668059911E+01 -0.55530833036E+01  0.13039843417E+02  0.00000000000E+00 0. -1.
<mgrwt>
<rscale>  1 0.30000000E+03</rscale>
<asrwt>0</asrwt>
<pdfrwt beam="1">  1        1 0.10644572E+00 0.30000000E+03</pdfrwt>
<pdfrwt beam="2">0</pdfrwt>
<totfact> 0.31210851E+01</totfact>
</mgrwt>
</event>
<event>
 6    1  0.1875959E-004  0.3000000E+03  0.7818608E-02  0.1093470E+00
          1   -1    0    0  502    0  0.00000000000E+00  0.00000000000E+00  0.26551535822E+02  0.26551535822E+02  0.00000000000E+00 0.  1.
         13   -1    0    0    0    0 -0.00000000000E+00 -0.00000000000E+00 -0.10000000000E+04  0.10000000000E+04  0.00000000000E+00 0.  1.
    9000005    2    1    2  501    0  0.31925088527E+01 -0.14736114115E+02 -0.96272548399E+03  0.10080494420E+04  0.29848948860E+03 0.  0.
         13    1    3    3    0    0  0.14213601170E+03  0.42847556035E+02 -0.47355849271E+03  0.49628238423E+03  0.00000000000E+00 0.  1.
          3    1    3    3  501    0 -0.13894350285E+03 -0.57583670150E+02 -0.48916699128E+03  0.51176705776E+03  0.00000000000E+00 0.  1.
         21    1    1    2  502  501 -0.31925088527E+01  0.14736114115E+02 -0.10722980183E+02  0.18502093827E+02  0.00000000000E+00 0.  1.
<mgrwt>
<rscale>  1 0.30000000E+03</rscale>
<asrwt>0</asrwt>
<pdfrwt beam="1">  1        1 0.96551243E-01 0.30000000E+03</pdfrwt>
<pdfrwt beam="2">0</pdfrwt>
<totfact> 0.36019250E+01</totfact>
</mgrwt>
</event>
<event>
 6    1  0.1875959E-004  0.3000000E+03  0.7818608E-02  0.1093470E+00
          1   -1    0    0  502    0  0.00000000000E+00  0.00000000000E+00  0.32239139338E+02  0.32239139338E+02  0.00000000000E+00 0.  1.
         13   -1    0    0    0    0 -0.00000000000E+00 -0.00000000000E+00 -0.10000000000E+04  0.10000000000E+04  0.00000000000E+00 0.  1.
    9000005    2    1    2  501    0  0.18706158469E+02  0.12081602861E+02 -0.93187023253E+03  0.99000144669E+03  0.33350389606E+03 0.  0.
         13    1    3    3    0    0  0.14641238408E+02 -0.11755878692E+03 -0.12290646099E+03  0.17070568941E+03  0.00000000000E+00 0.  1.
          1    1    3    3  501    0  0.40649200609E+01  0.12964038978E+03 -0.80896377153E+03  0.81929575728E+03  0.00000000000E+00 0.  1.
         21    1    1    2  502  501 -0.18706158469E+02 -0.12081602861E+02 -0.35890628136E+02  0.42237692649E+02  0.00000000000E+00 0.  1.
<mgrwt>
<rscale>  1 0.30000000E+03</rscale>
<asrwt>0</asrwt>
<pdfrwt beam="1">  1        1 0.11723348E+00 0.30000000E+03</pdfrwt>
<pdfrwt beam="2">0</pdfrwt>
<totfact> 0.26955612E+01</totfact>
</mgrwt>
</event>
<event>
 6    1  0.1875959E-004  0.3000000E+03  0.7818608E-02  0.1093470E+00
          1   -1    0    0  502    0  0.00000000000E+00  0.00000000000E+00  0.49000173448E+02  0.49000173448E+02  0.00000000000E+00 0.  1.
         13   -1    0    0    0    0 -0.00000000000E+00 -0.00000000000E+00 -0.10000000000E+04  0.10000000000E+04  0.00000000000E+00 0.  1.
    9000005    2    1    2  501    0  0.24823731821E+02 -0.36713169842E+02 -0.94925783681E+03  0.10046480706E+04  0.32598041423E+03 0.  0.
         13    1    3    3    0    0  0.94684711133E+02 -0.15720713130E+03 -0.44123703390E+03  0.47788010708E+03  0.00000000000E+00 0.  1.
          3    1    3    3  501    0 -0.69860979312E+02  0.12049396146E+03 -0.50802080290E+03  0.52676796349E+03  0.00000000000E+00 0.  1.
         21    1    1    2  502  501 -0.24823731821E+02  0.36713169842E+02 -0.17419897465E+01  0.44352102877E+02  0.00000000000E+00 0.  1.
<mgrwt>
<rscale>  1 0.30000000E+03</rscale>
<asrwt>0</asrwt>
<pdfrwt beam="1">  1        1 0.17818282E+00 0.30000000E+03</pdfrwt>
<pdfrwt beam="2">0</pdfrwt>
<totfact> 0.13035864E+01</totfact>
</mgrwt>
</event>
<event>
 6    1  0.1875959E-004  0.3000000E+03  0.7818608E-02  0.1093470E+00
          1   -1    0    0  502    0  0.00000000000E+00  0.00000000000E+00  0.30142686727E+02  0.30142686727E+02  0.00000000000E+00 0.  1.
         13   -1    0    0    0    0 -0.00000000000E+00 -0.00000000000E+00 -0.10000000000E+04  0.10000000000E+04  0.00000000000E+00 0.  1.
    9000005    2    1    2  501    0  0.21513372549E+02 -0.49460142398E+01 -0.94195926501E+03  0.99456756407E+03  0.31841811240E+03 0.  0.
         13    1    3    3    0    0  0.46560008669E+02 -0.15229609710E+03 -0.35872258331E+03  0.39248417468E+03  0.00000000000E+00 0.  1.
          3    1    3    3  501    0 -0.25046636120E+02  0.14735008286E+03 -0.58323668170E+03  0.60208338939E+03  0.00000000000E+00 0.  1.
         21    1    1    2  502  501 -0.21513372549E+02  0.49460142398E+01 -0.27898048267E+02  0.35575122661E+02  0.00000000000E+00 0. -1.
<mgrwt>
<rscale>  1 0.30000000E+03</rscale>
<asrwt>0</asrwt>
<pdfrwt beam="1">  1        1 0.10961000E+00 0.30000000E+03</pdfrwt>
<pdfrwt beam="2">0</pdfrwt>
<totfact> 0.29869267E+01</totfact>
</mgrwt>
</event>
<event>
 6    1  0.1875959E-004  0.3000000E+03  0.7818608E-02  0.1093470E+00
          1   -1    0    0  502    0  0.00000000000E+00  0.00000000000E+00  0.32358603554E+02  0.32358603554E+02  0.00000000000E+00 0.  1.
         13   -1    0    0    0    0 -0.00000000000E+00 -0.00000000000E+00 -0.10000000000E+04  0.10000000000E+04  0.00000000000E+00 0.  1.
    9000005    2    1    2  501    0 -0.22265553821E+02 -0.18693280062E+02 -0.94317768473E+03  0.99436298805E+03  0.31357361724E+03 0.  0.
         13    1    3    3    0    0  0.12557533554E+03 -0.32109219470E+02 -0.67966012208E+03  0.69190898853E+03  0.00000000000E+00 0.  1.
          3    1    3    3  501    0 -0.14784088936E+03  0.13415939408E+02 -0.26351756265E+03  0.30245399952E+03  0.00000000000E+00 0.  1.
         21    1    1    2  502  501  0.22265553821E+02  0.18693280062E+02 -0.24463711713E+02  0.37995615500E+02  0.00000000000E+00 0. -1.
<mgrwt>
<rscale>  1 0.30000000E+03</rscale>
<asrwt>0</asrwt>
<pdfrwt beam="1">  1        1 0.11766790E+00 0.30000000E+03</pdfrwt>
<pdfrwt beam="2">0</pdfrwt>
<totfact> 0.26801775E+01</totfact>
</mgrwt>
</event>
<event>
 6    1  0.1875959E-004  0.3000000E+03  0.7818608E-02  0.1093470E+00
          1   -1    0    0  502    0  0.00000000000E+00  0.00000000000E+00  0.36362982735E+02  0.36362982735E+02  0.00000000000E+00 0.  1.
         13   -1    0    0    0    0 -0.00000000000E+00 -0.00000000000E+00 -0.10000000000E+04  0.10000000000E+04  0.00000000000E+00 0.  1.
    9000005    2    1    2  501    0  0.30750145402E+02  0.57929047288E+01 -0.93456738801E+03  0.99365264988E+03  0.33608072943E+03 0.  0.
         13    1    3    3    0    0  0.17822323178E+03  0.42847922583E+02 -0.56633527111E+03  0.59526053466E+03  0.00000000000E+00 0.  1.
          1    1    3    3  501    0 -0.14747308638E+03 -0.37055017854E+02 -0.36823211690E+03  0.39839211522E+03  0.00000000000E+00 0.  1.
         21    1    1    2  502  501 -0.30750145402E+02 -0.57929047288E+01 -0.29069629255E+02  0.42710332854E+02  0.00000000000E+00 0. -1.
<mgrwt>
<rscale>  1 0.30000000E+03</rscale>
<asrwt>0</asrwt>
<pdfrwt beam="1">  1        1 0.13222931E+00 0.30000000E+03</pdfrwt>
<pdfrwt beam="2">0</pdfrwt>
<totfact> 0.22251791E+01</totfact>
</mgrwt>
</event>
<event>
 6    1  0.1875959E-004  0.3000000E+03  0.7818608E-02  0.1093470E+00
          1   -1    0    0  502    0  0.00000000000E+00  0.00000000000E+00  0.31210386763E+02  0.31210386763E+02  0.00000000000E+00 0.  1.
         13   -1    0    0    0    0 -0.00000000000E+00 -0.00000000000E+00 -0.10000000000E+04  0.10000000000E+04  0.00000000000E+00 0.  1.
    9000005    2    1    2  501    0  0.50132187652E+01 -0.24741133067E+02 -0.92975981396E+03  0.98472833367E+03  0.32341818665E+03 0.  0.
         13    1    3    3    0    0 -0.31613471884E+02 -0.14796541816E+03 -0.24461400027E+03  0.28762681673E+03  0.00000000000E+00 0.  1.
          3    1    3    3  501    0  0.36626690649E+02  0.12322428509E+03 -0.68514581369E+03  0.69710151694E+03  0.00000000000E+00 0.  1.
         21    1    1    2  502  501 -0.50132187652E+01  0.24741133067E+02 -0.39029799282E+02  0.46482053094E+02  0.00000000000E+00 0. -1.
<mgrwt>
<rscale>  1 0.30000000E+03</rscale>
<asrwt>0</asrwt>
<pdfrwt beam="1">  1        1 0.11349255E+00 0.30000000E+03</pdfrwt>
<pdfrwt beam="2">0</pdfrwt>
<totfact> 0.28332573E+01</totfact>
</mgrwt>
</event>
<event>
 6    1  0.1875959E-004  0.3000000E+03  0.7818608E-02  0.1093470E+00
          1   -1    0    0  502    0  0.00000000000E+00  0.00000000000E+00  0.38651721231E+02  0.38651721231E+02  0.00000000000E+00 0.  1.
         13   -1    0    0    0    0 -0.00000000000E+00 -0.00000000000E+00 -0.10000000000E+04  0.10000000000E+04  0.00000000000E+00 0.  1.
    9000005    2    1    2  501    0  0.15104958227E+02 -0.13430986941E+02 -0.96301417383E+03  0.10183705383E+04  0.33056573201E+03 0.  0.
         13    1    3    3    0    0 -0.11980246528E+03  0.84139322185E+02 -0.62048073450E+03  0.63751737083E+03  0.00000000000E+00 0.  1.
          3    1    3    3  501    0  0.13490742351E+03 -0.97570309125E+02 -0.34253343933E+03  0.38085316751E+03  0.00000000000E+00 0.  1.
         21    1    1    2  502  501 -0.15104958227E+02  0.13430986941E+02  0.16658950606E+01  0.20281182895E+02  0.00000000000E+00 0. -1.
<mgrwt>
<rscale>  1 0.30000000E+03</rscale>
<asrwt>0</asrwt>
<pdfrwt beam="1">  1        1 0.14055201E+00 0.30000000E+03</pdfrwt>
<pdfrwt beam="2">0</pdfrwt>
<totfact> 0.20097955E+01</totfact>
</mgrwt>
</event>
<event>
 6    1  0.1875959E-004  0.3000000E+03  0.7818608E-02  0.1093470E+00
          1   -1    0    0  502    0  0.00000000000E+00  0.00000000000E+00  0.52500099483E+02  0.52500099483E+02  0.00000000000E+00 0.  1.
         13   -1    0    0    0    0 -0.00000000000E+00 -0.00000000000E+00 -0.10000000000E+04  0.10000000000E+04  0.00000000000E+00 0.  1.
    9000005    2    1    2  501    0  0.16384439953E+02 -0.52939875670E+01 -0.97051827293E+03  0.10237542886E+04  0.32537770219E+03 0.  0.
         13    1    3    3    0    0 -0.49688887579E+02 -0.26882879365E+02 -0.60876778251E+01  0.56821955027E+02  0.00000000000E+00 0.  1.
          3    1    3    3  501    0  0.66073327532E+02  0.21588891798E+02 -0.96443059511E+03  0.96693233354E+03  0.00000000000E+00 0.  1.
         21    1    1    2  502  501 -0.16384439953E+02  0.52939875670E+01  0.23018372414E+02  0.28745810921E+02  0.00000000000E+00 0.  1.
<mgrwt>
<rscale>  1 0.30000000E+03</rscale>
<asrwt>0</asrwt>
<pdfrwt beam="1">  1        1 0.19090986E+00 0.30000000E+03</pdfrwt>
<pdfrwt beam="2">0</pdfrwt>
<totfact> 0.11319643E+01</totfact>
</mgrwt>
</event>
<event>
 6    1  0.1875959E-004  0.3000000E+03  0.7818608E-02  0.1093470E+00
          3   -1    0    0  502    0  0.00000000000E+00  0.00000000000E+00  0.33750124398E+02  0.33750124398E+02  0.00000000000E+00 0.  1.
         13   -1    0    0    0    0 -0.00000000000E+00 -0.00000000000E+00 -0.10000000000E+04  0.10000000000E+04  0.00000000000E+00 0.  1.
    9000005    2    1    2  501    0  0.42707045063E+00 -0.10838233375E+02 -0.96418957302E+03  0.10227095384E+04  0.34081610521E+03 0.  0.
         13    1    3    3    0    0  0.49461635660E+02  0.20045760341E+02 -0.96327495362E+03  0.96475225949E+03  0.00000000000E+00 0.  1.
          3    1    3    3  501    0 -0.49034565209E+02 -0.30883993716E+02 -0.91461939777E+00  0.57957278937E+02  0.00000000000E+00 0.  1.
         21    1    1    2  502  501 -0.42707045063E+00  0.10838233375E+02 -0.20603025800E+01  0.11040585971E+02  0.00000000000E+00 0. -1.
<mgrwt>
<rscale>  1 0.30000000E+03</rscale>
<asrwt>0</asrwt>
<pdfrwt beam="1">  1        3 0.12272798E+00 0.30000000E+03</pdfrwt>
<pdfrwt beam="2">0</pdfrwt>
<totfact> 0.21503278E+00</totfact>
</mgrwt>
</event>
<event>
 6    1  0.1875959E-004  0.3000000E+03  0.7818608E-02  0.1093470E+00
          1   -1    0    0  502    0  0.00000000000E+00  0.00000000000E+00  0.32857327492E+02  0.32857327492E+02  0.00000000000E+00 0.  1.
         13   -1    0    0    0    0 -0.00000000000E+00 -0.00000000000E+00 -0.10000000000E+04  0.10000000000E+04  0.00000000000E+00 0.  1.
    9000005    2    1    2  501    0  0.17862784910E+02 -0.26500492580E+01 -0.95633476520E+03  0.10118118361E+04  0.32994076253E+03 0.  0.
         13    1    3    3    0    0 -0.14557466571E+03 -0.20589041292E+02 -0.28563279742E+03  0.32125066051E+03  0.00000000000E+00 0.  1.
          3    1    3    3  501    0  0.16343745062E+03  0.17938992034E+02 -0.67070196778E+03  0.69056117563E+03  0.00000000000E+00 0.  1.
         21    1    1    2  502  501 -0.17862784910E+02  0.26500492580E+01 -0.10807907306E+02  0.21045491349E+02  0.00000000000E+00 0. -1.
<mgrwt>
<rscale>  1 0.30000000E+03</rscale>
<asrwt>0</asrwt>
<pdfrwt beam="1">  1        1 0.11948144E+00 0.30000000E+03</pdfrwt>
<pdfrwt beam="2">0</pdfrwt>
<totfact> 0.26172324E+01</totfact>
</mgrwt>
</event>
<event>
 6    1  0.1875959E-004  0.3000000E+03  0.7818608E-02  0.1093470E+00
          1   -1    0    0  502    0  0.00000000000E+00  0.00000000000E+00  0.29454552985E+02  0.29454552985E+02  0.00000000000E+00 0.  1.
         13   -1    0    0    0    0 -0.00000000000E+00 -0.00000000000E+00 -0.10000000000E+04  0.10000000000E+04  0.00000000000E+00 0.  1.
    9000005    2    1    2  501    0 -0.19143283474E+02  0.47980642252E+01 -0.95571449375E+03  0.10047676355E+04  0.30948072794E+03 0.  0.
         13    1    3    3    0    0  0.66613704905E+02 -0.59268206587E+02 -0.72029259850E+02  0.11462251205E+03  0.00000000000E+00 0.  1.
          1    1    3    3  501    0 -0.85756988378E+02  0.64066270813E+02 -0.88368523390E+03  0.89014512341E+03  0.00000000000E+00 0.  1.
         21    1    1    2  502  501  0.19143283474E+02 -0.47980642252E+01 -0.14830953264E+02  0.24686917531E+02  0.00000000000E+00 0. -1.
<mgrwt>
<rscale>  1 0.30000000E+03</rscale>
<asrwt>0</asrwt>
<pdfrwt beam="1">  1        1 0.10710769E+00 0.30000000E+03</pdfrwt>
<pdfrwt beam="2">0</pdfrwt>
<totfact> 0.30923151E+01</totfact>
</mgrwt>
</event>
<event>
 6    1  0.1875959E-004  0.3000000E+03  0.7818608E-02  0.1093470E+00
          1   -1    0    0  502    0  0.00000000000E+00  0.00000000000E+00  0.31703201568E+02  0.31703201568E+02  0.00000000000E+00 0.  1.
         13   -1    0    0    0    0 -0.00000000000E+00 -0.00000000000E+00 -0.10000000000E+04  0.10000000000E+04  0.00000000000E+00 0.  1.
    9000005    2    1    2  501    0 -0.42208091354E+02  0.10418181629E+02 -0.84430896500E+03  0.90031429670E+03  0.30954505806E+03 0.  0.
         13    1    3    3    0    0  0.48782947444E+02 -0.61224677182E+02 -0.40375025207E+02  0.88081665049E+02  0.00000000000E+00 0.  1.
          3    1    3    3  501    0 -0.90991038798E+02  0.71642858811E+02 -0.80393393980E+03  0.81223263165E+03  0.00000000000E+00 0.  1.
         21    1    1    2  502  501  0.42208091354E+02 -0.10418181629E+02 -0.12398783343E+03  0.13138890487E+03  0.00000000000E+00 0.  1.
<mgrwt>
<rscale>  1 0.30000000E+03</rscale>
<asrwt>0</asrwt>
<pdfrwt beam="1">  1        1 0.11528461E+00 0.30000000E+03</pdfrwt>
<pdfrwt beam="2">0</pdfrwt>
<totfact> 0.27660974E+01</totfact>
</mgrwt>
</event>
<event>
 6    1  0.1875959E-004  0.3000000E+03  0.7818608E-02  0.1093470E+00
          1   -1    0    0  502    0  0.00000000000E+00  0.00000000000E+00  0.40137404865E+02  0.40137404865E+02  0.00000000000E+00 0.  1.
         13   -1    0    0    0    0 -0.00000000000E+00 -0.00000000000E+00 -0.10000000000E+04  0.10000000000E+04  0.00000000000E+00 0.  1.
    9000005    2    1    2  501    0 -0.28911269407E+02 -0.10345530945E+02 -0.94654445484E+03  0.10066670543E+04  0.34130523233E+03 0.  0.
         13    1    3    3    0    0 -0.62861151090E+02 -0.16685024023E+03 -0.41921132942E+03  0.45555314256E+03  0.00000000000E+00 0.  1.
          1    1    3    3  501    0  0.33949881683E+02  0.15650470928E+03 -0.52733312542E+03  0.55111391169E+03  0.00000000000E+00 0.  1.
         21    1    1    2  502  501  0.28911269407E+02  0.10345530945E+02 -0.13318140293E+02  0.33470350612E+02  0.00000000000E+00 0.  1.
<mgrwt>
<rscale>  1 0.30000000E+03</rscale>
<asrwt>0</asrwt>
<pdfrwt beam="1">  1        1 0.14595451E+00 0.30000000E+03</pdfrwt>
<pdfrwt beam="2">0</pdfrwt>
<totfact> 0.18841590E+01</totfact>
</mgrwt>
</event>
<event>
 6    1  0.1875959E-004  0.3000000E+03  0.7818608E-02  0.1093470E+00
          1   -1    0    0  502    0  0.00000000000E+00  0.00000000000E+00  0.32477667377E+02  0.32477667377E+02  0.00000000000E+00 0.  1.
         13   -1    0    0    0    0 -0.00000000000E+00 -0.00000000000E+00 -0.10000000000E+04  0.10000000000E+04  0.00000000000E+00 0.  1.
    9000005    2    1    2  501    0  0.16887561475E+02 -0.91436438044E+01 -0.95388573352E+03  0.10089244767E+04  0.32811859316E+03 0.  0.
         13    1    3    3    0    0  0.15080586005E+03 -0.46689408426E+02 -0.71746476618E+03  0.73462779623E+03  0.00000000000E+00 0.  1.
          1    1    3    3  501    0 -0.13391829858E+03  0.37545764622E+02 -0.23642096733E+03  0.27429668049E+03  0.00000000000E+00 0.  1.
         21    1    1    2  502  501 -0.16887561475E+02  0.91436438044E+01 -0.13636599107E+02  0.23553190650E+02  0.00000000000E+00 0.  1.
<mgrwt>
<rscale>  1 0.30000000E+03</rscale>
<asrwt>0</asrwt>
<pdfrwt beam="1">  1        1 0.11810086E+00 0.30000000E+03</pdfrwt>
<pdfrwt beam="2">0</pdfrwt>
<totfact> 0.26649646E+01</totfact>
</mgrwt>
</event>
<event>
 6    1  0.1875959E-004  0.3000000E+03  0.7818608E-02  0.1093470E+00
          1   -1    0    0  502    0  0.00000000000E+00  0.00000000000E+00  0.47128214309E+02  0.47128214309E+02  0.00000000000E+00 0.  1.
         13   -1    0    0    0    0 -0.00000000000E+00 -0.00000000000E+00 -0.10000000000E+04  0.10000000000E+04  0.00000000000E+00 0.  1.
    9000005    2    1    2  501    0 -0.17688510039E+02  0.14035021354E+02 -0.96816771661E+03  0.10198549542E+04  0.31975855733E+03 0.  0.
         13    1    3    3    0    0 -0.14728688015E+03 -0.41394057311E+02 -0.70402009398E+03  0.72045207042E+03  0.00000000000E+00 0.  1.
          3    1    3    3  501    0  0.12959837011E+03  0.55429078665E+02 -0.26414762263E+03  0.29940288382E+03  0.00000000000E+00 0.  1.
         21    1    1    2  502  501  0.17688510039E+02 -0.14035021354E+02  0.15295930924E+02  0.27273260066E+02  0.00000000000E+00 0. -1.
<mgrwt>
<rscale>  1 0.30000000E+03</rscale>
<asrwt>0</asrwt>
<pdfrwt beam="1">  1        1 0.17137569E+00 0.30000000E+03</pdfrwt>
<pdfrwt beam="2">0</pdfrwt>
<totfact> 0.14067914E+01</totfact>
</mgrwt>
</event>
<event>
 6    1  0.1875959E-004  0.3000000E+03  0.7818608E-02  0.1093470E+00
          1   -1    0    0  502    0  0.00000000000E+00  0.00000000000E+00  0.53010311132E+02  0.53010311132E+02  0.00000000000E+00 0.  1.
         13   -1    0    0    0    0 -0.00000000000E+00 -0.00000000000E+00 -0.10000000000E+04  0.10000000000E+04  0.00000000000E+00 0.  1.
    9000005    2    1    2  501    0 -0.11611350864E+02  0.78646219963E+02 -0.89875431827E+03  0.96002266486E+03  0.32796972580E+03 0.  0.
         13    1    3    3    0    0  0.66249765268E+02  0.15796724130E+03 -0.25792498362E+03  0.30962554465E+03  0.00000000000E+00 0.  1.
          1    1    3    3  501    0 -0.77861116132E+02 -0.79321021335E+02 -0.64082933465E+03  0.65039712021E+03  0.00000000000E+00 0.  1.
         21    1    1    2  502  501  0.11611350864E+02 -0.78646219963E+02 -0.48235370597E+02  0.92987646276E+02  0.00000000000E+00 0.  1.
<mgrwt>
<rscale>  1 0.30000000E+03</rscale>
<asrwt>0</asrwt>
<pdfrwt beam="1">  1        1 0.19276517E+00 0.30000000E+03</pdfrwt>
<pdfrwt beam="2">0</pdfrwt>
<totfact> 0.11090270E+01</totfact>
</mgrwt>
</event>
<event>
 6    1  0.1875959E-004  0.3000000E+03  0.7818608E-02  0.1093470E+00
          1   -1    0    0  502    0  0.00000000000E+00  0.00000000000E+00  0.43817024818E+02  0.43817024818E+02  0.00000000000E+00 0.  1.
         13   -1    0    0    0    0 -0.00000000000E+00 -0.00000000000E+00 -0.10000000000E+04  0.10000000000E+04  0.00000000000E+00 0.  1.
    9000005    2    1    2  501    0  0.41140750846E+01  0.22434729829E+02 -0.96620173877E+03  0.10189048121E+04  0.32264682473E+03 0.  0.
         13    1    3    3    0    0 -0.89057476609E+02  0.10943193187E+03 -0.78365848908E+03  0.79625825544E+03  0.00000000000E+00 0.  1.
          3    1    3    3  501    0  0.93171551694E+02 -0.86997202039E+02 -0.18254324968E+03  0.22264655671E+03  0.00000000000E+00 0.  1.
         21    1    1    2  502  501 -0.41140750846E+01 -0.22434729829E+02  0.10018763584E+02  0.24912212668E+02  0.00000000000E+00 0. -1.
<mgrwt>
<rscale>  1 0.30000000E+03</rscale>
<asrwt>0</asrwt>
<pdfrwt beam="1">  1        1 0.15933497E+00 0.30000000E+03</pdfrwt>
<pdfrwt beam="2">0</pdfrwt>
<totfact> 0.16125324E+01</totfact>
</mgrwt>
</event>
<event>
 6    1  0.1875959E-004  0.3000000E+03  0.7818608E-02  0.1093470E+00
          3   -1    0    0  502    0  0.00000000000E+00  0.00000000000E+00  0.27275272392E+02  0.27275272392E+02  0.00000000000E+00 0.  1.
         13   -1    0    0    0    0 -0.00000000000E+00 -0.00000000000E+00 -0.10000000000E+04  0.10000000000E+04  0.00000000000E+00 0.  1.
    9000005    2    1    2  501    0 -0.21650191299E-01  0.95759486130E+01 -0.93802649921E+03  0.99127990721E+03  0.32039107659E+03 0.  0.
         13    1    3    3    0    0  0.15998974953E+03  0.10199235109E+02 -0.45164409065E+03  0.47925267758E+03  0.00000000000E+00 0.  1.
          3    1    3    3  501    0 -0.16001139972E+03 -0.62328649609E+00 -0.48638240856E+03  0.51202722963E+03  0.00000000000E+00 0.  1.
         21    1    1    2  502  501  0.21650191299E-01 -0.95759486130E+01 -0.34698228399E+02  0.35995365182E+02  0.00000000000E+00 0.  1.
<mgrwt>
<rscale>  1 0.30000000E+03</rscale>
<asrwt>0</asrwt>
<pdfrwt beam="1">  1        3 0.99183018E-01 0.30000000E+03</pdfrwt>
<pdfrwt beam="2">0</pdfrwt>
<totfact> 0.40019512E+00</totfact>
</mgrwt>
</event>
<event>
 6    1  0.1875959E-004  0.3000000E+03  0.7818608E-02  0.1093470E+00
          1   -1    0    0  502    0  0.00000000000E+00  0.00000000000E+00  0.48614951004E+02  0.48614951004E+02  0.00000000000E+00 0.  1.
         13   -1    0    0    0    0 -0.00000000000E+00 -0.00000000000E+00 -0.10000000000E+04  0.10000000000E+04  0.00000000000E+00 0.  1.
    9000005    2    1    2  501    0 -0.10837632729E+02 -0.16650975325E+02 -0.96851198419E+03  0.10223844121E+04  0.32689403990E+03 0.  0.
         13    1    3    3    0    0  0.10202464312E+03 -0.12906952432E+03 -0.56826141139E+03  0.59159868288E+03  0.00000000000E+00 0.  1.
          1    1    3    3  501    0 -0.11286227585E+03  0.11241854900E+03 -0.40025057280E+03  0.43078572921E+03  0.00000000000E+00 0.  1.
         21    1    1    2  502  501  0.10837632729E+02  0.16650975325E+02  0.17126935190E+02  0.26230538909E+02  0.00000000000E+00 0. -1.
<mgrwt>
<rscale>  1 0.30000000E+03</rscale>
<asrwt>0</asrwt>
<pdfrwt beam="1">  1        1 0.17678201E+00 0.30000000E+03</pdfrwt>
<pdfrwt beam="2">0</pdfrwt>
<totfact> 0.13241354E+01</totfact>
</mgrwt>
</event>
<event>
 6    1  0.1875959E-004  0.3000000E+03  0.7818608E-02  0.1093470E+00
          1   -1    0    0  502    0  0.00000000000E+00  0.00000000000E+00  0.43235937456E+02  0.43235937456E+02  0.00000000000E+00 0.  1.
         13   -1    0    0    0    0 -0.00000000000E+00 -0.00000000000E+00 -0.10000000000E+04  0.10000000000E+04  0.00000000000E+00 0.  1.
    9000005    2    1    2  501    0 -0.18127195052E+02 -0.94842693482E+00 -0.97219808593E+03  0.10194094020E+04  0.30609951954E+03 0.  0.
         13    1    3    3    0    0 -0.57346456788E+02  0.61767713914E+02 -0.58207120064E+02  0.10243014895E+03  0.00000000000E+00 0.  1.
          3    1    3    3  501    0  0.39219261736E+02 -0.62716140849E+02 -0.91399096587E+03  0.91697925304E+03  0.00000000000E+00 0.  1.
         21    1    1    2  502  501  0.18127195052E+02  0.94842693482E+00  0.15434023390E+02  0.23826535462E+02  0.00000000000E+00 0. -1.
<mgrwt>
<rscale>  1 0.30000000E+03</rscale>
<asrwt>0</asrwt>
<pdfrwt beam="1">  1        1 0.15722192E+00 0.30000000E+03</pdfrwt>
<pdfrwt beam="2">0</pdfrwt>
<totfact> 0.16521190E+01</totfact>
</mgrwt>
</event>
<event>
 6    1  0.1875959E-004  0.3000000E+03  0.7818608E-02  0.1093470E+00
          1   -1    0    0  502    0  0.00000000000E+00  0.00000000000E+00  0.58076646957E+02  0.58076646957E+02  0.00000000000E+00 0.  1.
         13   -1    0    0    0    0 -0.00000000000E+00 -0.00000000000E+00 -0.10000000000E+04  0.10000000000E+04  0.00000000000E+00 0.  1.
    9000005    2    1    2  501    0 -0.10493644505E+03 -0.22484866585E+02 -0.84736387294E+03  0.91504265799E+03  0.32826864919E+03 0.  0.
         13    1    3    3    0    0 -0.17550188797E+03 -0.12472223802E+03 -0.45274920751E+03  0.50133660772E+03  0.00000000000E+00 0.  1.
          1    1    3    3  501    0  0.70565442929E+02  0.10223737143E+03 -0.39461466543E+03  0.41370605027E+03  0.00000000000E+00 0.  1.
         21    1    1    2  502  501  0.10493644505E+03  0.22484866585E+02 -0.94559480101E+02  0.14303398897E+03  0.00000000000E+00 0.  1.
<mgrwt>
<rscale>  1 0.30000000E+03</rscale>
<asrwt>0</asrwt>
<pdfrwt beam="1">  1        1 0.21118825E+00 0.30000000E+03</pdfrwt>
<pdfrwt beam="2">0</pdfrwt>
<totfact> 0.90676821E+00</totfact>
</mgrwt>
</event>
<event>
 6    1  0.1875959E-004  0.3000000E+03  0.7818608E-02  0.1093470E+00
          1   -1    0    0  502    0  0.00000000000E+00  0.00000000000E+00  0.60729236004E+02  0.60729236004E+02  0.00000000000E+00 0.  1.
         13   -1    0    0    0    0 -0.00000000000E+00 -0.00000000000E+00 -0.10000000000E+04  0.10000000000E+04  0.00000000000E+00 0.  1.
    9000005    2    1    2  501    0 -0.89437966983E+02 -0.94618542995E+02 -0.73208086503E+03  0.81602641042E+03  0.33616200103E+03 0.  0.
         13    1    3    3    0    0 -0.17294687367E+03 -0.16555809443E+03 -0.39827484990E+03  0.46469663202E+03  0.00000000000E+00 0.  1.
          3    1    3    3  501    0  0.83508906688E+02  0.70939551438E+02 -0.33380601513E+03  0.35132977840E+03  0.00000000000E+00 0.  1.
         21    1    1    2  502  501  0.89437966983E+02  0.94618542995E+02 -0.20718989897E+03  0.24470282559E+03  0.00000000000E+00 0.  1.
<mgrwt>
<rscale>  1 0.30000000E+03</rscale>
<asrwt>0</asrwt>
<pdfrwt beam="1">  1        1 0.22083405E+00 0.30000000E+03</pdfrwt>
<pdfrwt beam="2">0</pdfrwt>
<totfact> 0.81693979E+00</totfact>
</mgrwt>
</event>
<event>
 6    1  0.1875959E-004  0.3000000E+03  0.7818608E-02  0.1093470E+00
          1   -1    0    0  502    0  0.00000000000E+00  0.00000000000E+00  0.53780000415E+02  0.53780000415E+02  0.00000000000E+00 0.  1.
         13   -1    0    0    0    0 -0.00000000000E+00 -0.00000000000E+00 -0.10000000000E+04  0.10000000000E+04  0.00000000000E+00 0.  1.
    9000005    2    1    2  501    0 -0.41358000619E+02  0.13258094900E+02 -0.95400415410E+03  0.10096568279E+04  0.32771439196E+03 0.  0.
         13    1    3    3    0    0  0.46582476505E+02 -0.11524013972E+03 -0.70574515823E+03  0.71660759505E+03  0.00000000000E+00 0.  1.
          1    1    3    3  501    0 -0.87940477123E+02  0.12849823462E+03 -0.24825899587E+03  0.29304923281E+03  0.00000000000E+00 0.  1.
         21    1    1    2  502  501  0.41358000619E+02 -0.13258094900E+02  0.77841545119E+01  0.44123172563E+02  0.00000000000E+00 0. -1.
<mgrwt>
<rscale>  1 0.30000000E+03</rscale>
<asrwt>0</asrwt>
<pdfrwt beam="1">  1        1 0.19556405E+00 0.30000000E+03</pdfrwt>
<pdfrwt beam="2">0</pdfrwt>
<totfact> 0.10753825E+01</totfact>
</mgrwt>
</event>
<event>
 6    1  0.1875959E-004  0.3000000E+03  0.7818608E-02  0.1093470E+00
          1   -1    0    0  502    0  0.00000000000E+00  0.00000000000E+00  0.30557456108E+02  0.30557456108E+02  0.00000000000E+00 0.  1.
         13   -1    0    0    0    0 -0.00000000000E+00 -0.00000000000E+00 -0.10000000000E+04  0.10000000000E+04  0.00000000000E+00 0.  1.
    9000005    2    1    2  501    0 -0.10674203425E+02  0.31099431449E+01 -0.96347060724E+03  0.10179370602E+04  0.32832398204E+03 0.  0.
         13    1    3    3    0    0  0.75901660147E+02 -0.90819107485E+02 -0.80843663755E+03  0.81705505887E+03  0.00000000000E+00 0.  1.
          1    1    3    3  501    0 -0.86575863572E+02  0.93929050630E+02 -0.15503396969E+03  0.20088200134E+03  0.00000000000E+00 0.  1.
         21    1    1    2  502  501  0.10674203425E+02 -0.31099431449E+01 -0.59719366570E+01  0.12620395896E+02  0.00000000000E+00 0.  1.
<mgrwt>
<rscale>  1 0.30000000E+03</rscale>
<asrwt>0</asrwt>
<pdfrwt beam="1">  1        1 0.11111826E+00 0.30000000E+03</pdfrwt>
<pdfrwt beam="2">0</pdfrwt>
<totfact> 0.29258595E+01</totfact>
</mgrwt>
</event>
<event>
 6    1  0.1875959E-004  0.3000000E+03  0.7818608E-02  0.1093470E+00
          1   -1    0    0  502    0  0.00000000000E+00  0.00000000000E+00  0.36106099516E+02  0.36106099516E+02  0.00000000000E+00 0.  1.
         13   -1    0    0    0    0 -0.00000000000E+00 -0.00000000000E+00 -0.10000000000E+04  0.10000000000E+04  0.00000000000E+00 0.  1.
    9000005    2    1    2  501    0  0.17311918541E+02 -0.14164594474E+02 -0.95683159240E+03  0.10126494490E+04  0.33080488507E+03 0.  0.
         13    1    3    3    0    0  0.15080287891E+03  0.40986606982E+02 -0.70705561456E+03  0.72411950141E+03  0.00000000000E+00 0.  1.
          1    1    3    3  501    0 -0.13349096037E+03 -0.55151201455E+02 -0.24977597784E+03  0.28852994755E+03  0.00000000000E+00 0.  1.
         21    1    1    2  502  501 -0.17311918541E+02  0.14164594474E+02 -0.70623080828E+01  0.23456650563E+02  0.00000000000E+00 0. -1.
<mgrwt>
<rscale>  1 0.30000000E+03</rscale>
<asrwt>0</asrwt>
<pdfrwt beam="1">  1        1 0.13129518E+00 0.30000000E+03</pdfrwt>
<pdfrwt beam="2">0</pdfrwt>
<totfact> 0.22512152E+01</totfact>
</mgrwt>
</event>
<event>
 6    1  0.1875959E-004  0.3000000E+03  0.7818608E-02  0.1093470E+00
          1   -1    0    0  502    0  0.00000000000E+00  0.00000000000E+00  0.53612875911E+02  0.53612875911E+02  0.00000000000E+00 0.  1.
         13   -1    0    0    0    0 -0.00000000000E+00 -0.00000000000E+00 -0.10000000000E+04  0.10000000000E+04  0.00000000000E+00 0.  1.
    9000005    2    1    2  501    0  0.34796826751E+02  0.90007077892E+01 -0.96015612094E+03  0.10151236934E+04  0.32754313384E+03 0.  0.
         13    1    3    3    0    0  0.57300191162E+02  0.91989920782E+02 -0.90823370905E+03  0.91467695263E+03  0.00000000000E+00 0.  1.
          1    1    3    3  501    0 -0.22503364411E+02 -0.82989212992E+02 -0.51922411892E+02  0.10044674081E+03  0.00000000000E+00 0.  1.
         21    1    1    2  502  501 -0.34796826751E+02 -0.90007077892E+01  0.13768996850E+02  0.38489182465E+02  0.00000000000E+00 0.  1.
<mgrwt>
<rscale>  1 0.30000000E+03</rscale>
<asrwt>0</asrwt>
<pdfrwt beam="1">  1        1 0.19495632E+00 0.30000000E+03</pdfrwt>
<pdfrwt beam="2">0</pdfrwt>
<totfact> 0.10825904E+01</totfact>
</mgrwt>
</event>
<event>
 6    1  0.1875959E-004  0.3000000E+03  0.7818608E-02  0.1093470E+00
          1   -1    0    0  502    0  0.00000000000E+00  0.00000000000E+00  0.45916557440E+02  0.45916557440E+02  0.00000000000E+00 0.  1.
         13   -1    0    0    0    0 -0.00000000000E+00 -0.00000000000E+00 -0.10000000000E+04  0.10000000000E+04  0.00000000000E+00 0.  1.
    9000005    2    1    2  501    0  0.21985118271E+02  0.62201144760E+01 -0.96653582755E+03  0.10198954671E+04  0.32476641248E+03 0.  0.
         13    1    3    3    0    0 -0.11501744677E+03 -0.78644616251E+02 -0.25754963813E+03  0.29282384607E+03  0.00000000000E+00 0.  1.
          1    1    3    3  501    0  0.13700256505E+03  0.84864730727E+02 -0.70898618942E+03  0.72707162105E+03  0.00000000000E+00 0.  1.
         21    1    1    2  502  501 -0.21985118271E+02 -0.62201144760E+01  0.12452384987E+02  0.26021090319E+02  0.00000000000E+00 0. -1.
<mgrwt>
<rscale>  1 0.30000000E+03</rscale>
<asrwt>0</asrwt>
<pdfrwt beam="1">  1        1 0.16696965E+00 0.30000000E+03</pdfrwt>
<pdfrwt beam="2">0</pdfrwt>
<totfact> 0.14783935E+01</totfact>
</mgrwt>
</event>
<event>
 6    1  0.1875959E-004  0.3000000E+03  0.7818608E-02  0.1093470E+00
          1   -1    0    0  502    0  0.00000000000E+00  0.00000000000E+00  0.28631039099E+02  0.28631039099E+02  0.00000000000E+00 0.  1.
         13   -1    0    0    0    0 -0.00000000000E+00 -0.00000000000E+00 -0.10000000000E+04  0.10000000000E+04  0.00000000000E+00 0.  1.
    9000005    2    1    2  501    0 -0.53003510998E+00 -0.94355177434E+01 -0.95222045277E+03  0.10072774610E+04  0.32832115819E+03 0.  0.
         13    1    3    3    0    0 -0.38842895930E+02 -0.13060146440E+03 -0.18587460977E+03  0.23046666489E+03  0.00000000000E+00 0.  1.
          1    1    3    3  501    0  0.38312860820E+02  0.12116594666E+03 -0.76634584300E+03  0.77681079616E+03  0.00000000000E+00 0.  1.
         21    1    1    2  502  501  0.53003510998E+00  0.94355177434E+01 -0.19148508127E+02  0.21353578056E+02  0.00000000000E+00 0.  1.
<mgrwt>
<rscale>  1 0.30000000E+03</rscale>
<asrwt>0</asrwt>
<pdfrwt beam="1">  1        1 0.10411309E+00 0.30000000E+03</pdfrwt>
<pdfrwt beam="2">0</pdfrwt>
<totfact> 0.32255988E+01</totfact>
</mgrwt>
</event>
<event>
 6    1  0.1875959E-004  0.3000000E+03  0.7818608E-02  0.1093470E+00
          1   -1    0    0  502    0  0.00000000000E+00  0.00000000000E+00  0.19149205154E+02  0.19149205154E+02  0.00000000000E+00 0.  1.
         13   -1    0    0    0    0 -0.00000000000E+00 -0.00000000000E+00 -0.10000000000E+04  0.10000000000E+04  0.00000000000E+00 0.  1.
    9000005    2    1    2  501    0 -0.17812670100E+02 -0.63548573656E+01 -0.94705515623E+03  0.98042168758E+03  0.25289432793E+03 0.  0.
         13    1    3    3    0    0  0.68991356334E+02 -0.10211586591E+03 -0.41645129388E+03  0.43430304799E+03  0.00000000000E+00 0.  1.
          1    1    3    3  501    0 -0.86804026434E+02  0.95761008545E+02 -0.53060386235E+03  0.54611863959E+03  0.00000000000E+00 0.  1.
         21    1    1    2  502  501  0.17812670100E+02  0.63548573656E+01 -0.33795638616E+02  0.38727517577E+02  0.00000000000E+00 0.  1.
<mgrwt>
<rscale>  1 0.30000000E+03</rscale>
<asrwt>0</asrwt>
<pdfrwt beam="1">  1        1 0.69633620E-01 0.30000000E+03</pdfrwt>
<pdfrwt beam="2">0</pdfrwt>
<totfact> 0.56787010E+01</totfact>
</mgrwt>
</event>
<event>
 6    1  0.1875959E-004  0.3000000E+03  0.7818608E-02  0.1093470E+00
          1   -1    0    0  502    0  0.00000000000E+00  0.00000000000E+00  0.25782639892E+02  0.25782639892E+02  0.00000000000E+00 0.  1.
         13   -1    0    0    0    0 -0.00000000000E+00 -0.00000000000E+00 -0.10000000000E+04  0.10000000000E+04  0.00000000000E+00 0.  1.
    9000005    2    1    2  501    0 -0.74928213933E+01  0.76224209718E+01 -0.92059630596E+03  0.97110667514E+03  0.30892777841E+03 0.  0.
         13    1    3    3    0    0 -0.12027903461E+03  0.10350353905E+03 -0.41571746156E+03  0.44497307402E+03  0.00000000000E+00 0.  1.
          3    1    3    3  501    0  0.11278621321E+03 -0.95881118080E+02 -0.50487884441E+03  0.52613360112E+03  0.00000000000E+00 0.  1.
         21    1    1    2  502  501  0.74928213933E+01 -0.76224209718E+01 -0.53621054144E+02  0.54675964751E+02  0.00000000000E+00 0. -1.
<mgrwt>
<rscale>  1 0.30000000E+03</rscale>
<asrwt>0</asrwt>
<pdfrwt beam="1">  1        1 0.93755252E-01 0.30000000E+03</pdfrwt>
<pdfrwt beam="2">0</pdfrwt>
<totfact> 0.37576533E+01</totfact>
</mgrwt>
</event>
<event>
 6    1  0.1875959E-004  0.3000000E+03  0.7818608E-02  0.1093470E+00
          1   -1    0    0  502    0  0.00000000000E+00  0.00000000000E+00  0.28661612033E+02  0.28661612033E+02  0.00000000000E+00 0.  1.
         13   -1    0    0    0    0 -0.00000000000E+00 -0.00000000000E+00 -0.10000000000E+04  0.10000000000E+04  0.00000000000E+00 0.  1.
    9000005    2    1    2  501    0 -0.97133799945E+01 -0.10826809422E+02 -0.91513855177E+03  0.97060998724E+03  0.32309999819E+03 0.  0.
         13    1    3    3    0    0  0.12889569973E+02  0.34924994780E+02 -0.91870122704E+03  0.91945518697E+03  0.00000000000E+00 0.  1.
          3    1    3    3  501    0 -0.22602949968E+02 -0.45751804203E+02  0.35626752735E+01  0.51154800265E+02  0.00000000000E+00 0.  1.
         21    1    1    2  502  501  0.97133799945E+01  0.10826809422E+02 -0.56199836196E+02  0.58051624797E+02  0.00000000000E+00 0.  1.
<mgrwt>
<rscale>  1 0.30000000E+03</rscale>
<asrwt>0</asrwt>
<pdfrwt beam="1">  1        1 0.10422426E+00 0.30000000E+03</pdfrwt>
<pdfrwt beam="2">0</pdfrwt>
<totfact> 0.32205035E+01</totfact>
</mgrwt>
</event>
<event>
 6    1  0.1875959E-004  0.3000000E+03  0.7818608E-02  0.1093470E+00
          1   -1    0    0  502    0  0.00000000000E+00  0.00000000000E+00  0.37162688310E+02  0.37162688310E+02  0.00000000000E+00 0.  1.
         13   -1    0    0    0    0 -0.00000000000E+00 -0.00000000000E+00 -0.10000000000E+04  0.10000000000E+04  0.00000000000E+00 0.  1.
    9000005    2    1    2  501    0  0.53589384005E+02  0.61554158277E+01 -0.89129002399E+03  0.94755953212E+03  0.31711425201E+03 0.  0.
         13    1    3    3    0    0 -0.54016286025E+02 -0.50008950152E+02 -0.77815499150E+03  0.78162896892E+03  0.00000000000E+00 0.  1.
          3    1    3    3  501    0  0.10760567003E+03  0.56164365980E+02 -0.11313503249E+03  0.16593056320E+03  0.00000000000E+00 0.  1.
         21    1    1    2  502  501 -0.53589384005E+02 -0.61554158277E+01 -0.71547287701E+02  0.89603156192E+02  0.00000000000E+00 0. -1.
<mgrwt>
<rscale>  1 0.30000000E+03</rscale>
<asrwt>0</asrwt>
<pdfrwt beam="1">  1        1 0.13513733E+00 0.30000000E+03</pdfrwt>
<pdfrwt beam="2">0</pdfrwt>
<totfact> 0.21466247E+01</totfact>
</mgrwt>
</event>
<event>
 6    1  0.1875959E-004  0.3000000E+03  0.7818608E-02  0.1093470E+00
          1   -1    0    0  502    0  0.00000000000E+00  0.00000000000E+00  0.40674595716E+02  0.40674595716E+02  0.00000000000E+00 0.  1.
         13   -1    0    0    0    0 -0.00000000000E+00 -0.00000000000E+00 -0.10000000000E+04  0.10000000000E+04  0.00000000000E+00 0.  1.
    9000005    2    1    2  501    0  0.52738619286E+02  0.14785955179E+02 -0.91322325146E+03  0.96908273214E+03  0.31960076392E+03 0.  0.
         13    1    3    3    0    0  0.87093732793E+02  0.13045692311E+03 -0.74926997876E+03  0.76551278771E+03  0.00000000000E+00 0.  1.
          1    1    3    3  501    0 -0.34355113507E+02 -0.11567096793E+03 -0.16395327270E+03  0.20356994443E+03  0.00000000000E+00 0.  1.
         21    1    1    2  502  501 -0.52738619286E+02 -0.14785955179E+02 -0.46102152825E+02  0.71591863573E+02  0.00000000000E+00 0. -1.
<mgrwt>
<rscale>  1 0.30000000E+03</rscale>
<asrwt>0</asrwt>
<pdfrwt beam="1">  1        1 0.14790793E+00 0.30000000E+03</pdfrwt>
<pdfrwt beam="2">0</pdfrwt>
<totfact> 0.18411774E+01</totfact>
</mgrwt>
</event>
<event>
 6    1  0.1875959E-004  0.3000000E+03  0.7818608E-02  0.1093470E+00
          1   -1    0    0  502    0  0.00000000000E+00  0.00000000000E+00  0.36063621451E+02  0.36063621451E+02  0.00000000000E+00 0.  1.
         13   -1    0    0    0    0 -0.00000000000E+00 -0.00000000000E+00 -0.10000000000E+04  0.10000000000E+04  0.00000000000E+00 0.  1.
    9000005    2    1    2  501    0 -0.15591610593E+02 -0.85471596829E+01 -0.96609839986E+03  0.10181519885E+04  0.32089126066E+03 0.  0.
         13    1    3    3    0    0  0.13331901921E+03 -0.51610840668E+02 -0.65685784003E+03  0.67223497511E+03  0.00000000000E+00 0.  1.
          1    1    3    3  501    0 -0.14891062981E+03  0.43063680985E+02 -0.30924055984E+03  0.34591701337E+03  0.00000000000E+00 0.  1.
         21    1    1    2  502  501  0.15591610593E+02  0.85471596829E+01  0.21620213155E+01  0.17911632971E+02  0.00000000000E+00 0. -1.
<mgrwt>
<rscale>  1 0.30000000E+03</rscale>
<asrwt>0</asrwt>
<pdfrwt beam="1">  1        1 0.13114072E+00 0.30000000E+03</pdfrwt>
<pdfrwt beam="2">0</pdfrwt>
<totfact> 0.22555589E+01</totfact>
</mgrwt>
</event>
<event>
 6    1  0.1875959E-004  0.3000000E+03  0.7818608E-02  0.1093470E+00
          1   -1    0    0  502    0  0.00000000000E+00  0.00000000000E+00  0.57672151977E+02  0.57672151977E+02  0.00000000000E+00 0.  1.
         13   -1    0    0    0    0 -0.00000000000E+00 -0.00000000000E+00 -0.10000000000E+04  0.10000000000E+04  0.00000000000E+00 0.  1.
    9000005    2    1    2  501    0 -0.11136851802E+02 -0.11055874859E+02 -0.97241164374E+03  0.10237413901E+04  0.31971200646E+03 0.  0.
         13    1    3    3    0    0 -0.36297960710E+02 -0.43873501373E+02 -0.98003809423E+03  0.98169093518E+03  0.00000000000E+00 0.  1.
          3    1    3    3  501    0  0.25161108909E+02  0.32817626513E+02  0.76264504892E+01  0.42050454915E+02  0.00000000000E+00 0.  1.
         21    1    1    2  502  501  0.11136851802E+02  0.11055874859E+02  0.30083795718E+02  0.33930761880E+02  0.00000000000E+00 0.  1.
<mgrwt>
<rscale>  1 0.30000000E+03</rscale>
<asrwt>0</asrwt>
<pdfrwt beam="1">  1        1 0.20971736E+00 0.30000000E+03</pdfrwt>
<pdfrwt beam="2">0</pdfrwt>
<totfact> 0.92135329E+00</totfact>
</mgrwt>
</event>
<event>
 6    1  0.1875959E-004  0.3000000E+03  0.7818608E-02  0.1093470E+00
          1   -1    0    0  502    0  0.00000000000E+00  0.00000000000E+00  0.22567795757E+02  0.22567795757E+02  0.00000000000E+00 0.  1.
         13   -1    0    0    0    0 -0.00000000000E+00 -0.00000000000E+00 -0.10000000000E+04  0.10000000000E+04  0.00000000000E+00 0.  1.
    9000005    2    1    2  501    0  0.24371603819E+02 -0.12519435635E+02 -0.98113944186E+03  0.99491901727E+03  0.16272226403E+03 0.  0.
         13    1    3    3    0    0  0.16496694157E+01 -0.77858890095E+02 -0.73898819968E+03  0.74308026985E+03  0.00000000000E+00 0.  1.
          3    1    3    3  501    0  0.22721934403E+02  0.65339454460E+02 -0.24215124218E+03  0.25183874742E+03  0.00000000000E+00 0.  1.
         21    1    1    2  502  501 -0.24371603819E+02  0.12519435635E+02  0.37072376130E+01  0.27648778491E+02  0.00000000000E+00 0.  1.
<mgrwt>
<rscale>  1 0.30000000E+03</rscale>
<asrwt>0</asrwt>
<pdfrwt beam="1">  1        1 0.82064885E-01 0.30000000E+03</pdfrwt>
<pdfrwt beam="2">0</pdfrwt>
<totfact> 0.45336197E+01</totfact>
</mgrwt>
</event>
<event>
 6    1  0.1875959E-004  0.3000000E+03  0.7818608E-02  0.1093470E+00
          1   -1    0    0  502    0  0.00000000000E+00  0.00000000000E+00  0.38031227419E+02  0.38031227419E+02  0.00000000000E+00 0.  1.
         13   -1    0    0    0    0 -0.00000000000E+00 -0.00000000000E+00 -0.10000000000E+04  0.10000000000E+04  0.00000000000E+00 0.  1.
    9000005    2    1    2  501    0 -0.24895007062E+02  0.13442701831E+02 -0.95536985073E+03  0.10089793191E+04  0.32327580643E+03 0.  0.
         13    1    3    3    0    0  0.11859431917E+03  0.98361267000E+02 -0.38335093555E+03  0.41315552903E+03  0.00000000000E+00 0.  1.
          1    1    3    3  501    0 -0.14348932623E+03 -0.84918565169E+02 -0.57201891518E+03  0.59582379004E+03  0.00000000000E+00 0.  1.
         21    1    1    2  502  501  0.24895007062E+02 -0.13442701831E+02 -0.65989218526E+01  0.29051908350E+02  0.00000000000E+00 0.  1.
<mgrwt>
<rscale>  1 0.30000000E+03</rscale>
<asrwt>0</asrwt>
<pdfrwt beam="1">  1        1 0.13829566E+00 0.30000000E+03</pdfrwt>
<pdfrwt beam="2">0</pdfrwt>
<totfact> 0.20654097E+01</totfact>
</mgrwt>
</event>
<event>
 6    1  0.1875959E-004  0.3000000E+03  0.7818608E-02  0.1093470E+00
          1   -1    0    0  502    0  0.00000000000E+00  0.00000000000E+00  0.37374933596E+02  0.37374933596E+02  0.00000000000E+00 0.  1.
         13   -1    0    0    0    0 -0.00000000000E+00 -0.00000000000E+00 -0.10000000000E+04  0.10000000000E+04  0.00000000000E+00 0.  1.
    9000005    2    1    2  501    0  0.13135383457E+02 -0.10994091819E+02 -0.96777927226E+03  0.10194871112E+04  0.32009973702E+03 0.  0.
         13    1    3    3    0    0 -0.95912894864E+02  0.43703726598E+02 -0.10731993290E+03  0.15042229595E+03  0.00000000000E+00 0.  1.
          1    1    3    3  501    0  0.10904827832E+03 -0.54697818416E+02 -0.86045933936E+03  0.86906481521E+03  0.00000000000E+00 0.  1.
         21    1    1    2  502  501 -0.13135383457E+02  0.10994091819E+02  0.51542058597E+01  0.17887822436E+02  0.00000000000E+00 0. -1.
<mgrwt>
<rscale>  1 0.30000000E+03</rscale>
<asrwt>0</asrwt>
<pdfrwt beam="1">  1        1 0.13590914E+00 0.30000000E+03</pdfrwt>
<pdfrwt beam="2">0</pdfrwt>
<totfact> 0.21263962E+01</totfact>
</mgrwt>
</event>
<event>
 6    1  0.1875959E-004  0.3000000E+03  0.7818608E-02  0.1093470E+00
          1   -1    0    0  502    0  0.00000000000E+00  0.00000000000E+00  0.29497934387E+02  0.29497934387E+02  0.00000000000E+00 0.  1.
         13   -1    0    0    0    0 -0.00000000000E+00 -0.00000000000E+00 -0.10000000000E+04  0.10000000000E+04  0.00000000000E+00 0.  1.
    9000005    2    1    2  501    0  0.81292711272E+01  0.85898342342E+01 -0.95773927235E+03  0.10120979576E+04  0.32701359547E+03 0.  0.
         13    1    3    3    0    0 -0.14734855523E+03  0.22496653839E+01 -0.65883869805E+03  0.67511857312E+03  0.00000000000E+00 0.  1.
          1    1    3    3  501    0  0.15547782636E+03  0.63401688503E+01 -0.29890057430E+03  0.33697938445E+03  0.00000000000E+00 0.  1.
         21    1    1    2  502  501 -0.81292711272E+01 -0.85898342342E+01 -0.12762793260E+02  0.17399976811E+02  0.00000000000E+00 0. -1.
<mgrwt>
<rscale>  1 0.30000000E+03</rscale>
<asrwt>0</asrwt>
<pdfrwt beam="1">  1        1 0.10726544E+00 0.30000000E+03</pdfrwt>
<pdfrwt beam="2">0</pdfrwt>
<totfact> 0.30855153E+01</totfact>
</mgrwt>
</event>
<event>
 6    1  0.1875959E-004  0.3000000E+03  0.7818608E-02  0.1093470E+00
          1   -1    0    0  502    0  0.00000000000E+00  0.00000000000E+00  0.31736758513E+02  0.31736758513E+02  0.00000000000E+00 0.  1.
         13   -1    0    0    0    0 -0.00000000000E+00 -0.00000000000E+00 -0.10000000000E+04  0.10000000000E+04  0.00000000000E+00 0.  1.
    9000005    2    1    2  501    0  0.18318989272E+01 -0.12176499819E+02 -0.96632160986E+03  0.10192710883E+04  0.32401307794E+03 0.  0.
         13    1    3    3    0    0  0.83573802502E+01 -0.10945374243E+03 -0.88649127209E+03  0.89326185580E+03  0.00000000000E+00 0.  1.
          1    1    3    3  501    0 -0.65254813230E+01  0.97277242609E+02 -0.79830337764E+02  0.12600923245E+03  0.00000000000E+00 0.  1.
         21    1    1    2  502  501 -0.18318989272E+01  0.12176499819E+02 -0.19416316292E+01  0.12465670255E+02  0.00000000000E+00 0.  1.
<mgrwt>
<rscale>  1 0.30000000E+03</rscale>
<asrwt>0</asrwt>
<pdfrwt beam="1">  1        1 0.11540664E+00 0.30000000E+03</pdfrwt>
<pdfrwt beam="2">0</pdfrwt>
<totfact> 0.27616061E+01</totfact>
</mgrwt>
</event>
<event>
 6    1  0.1875959E-004  0.3000000E+03  0.7818608E-02  0.1093470E+00
          1   -1    0    0  502    0  0.00000000000E+00  0.00000000000E+00  0.30730390062E+02  0.30730390062E+02  0.00000000000E+00 0.  1.
         13   -1    0    0    0    0 -0.00000000000E+00 -0.00000000000E+00 -0.10000000000E+04  0.10000000000E+04  0.00000000000E+00 0.  1.
    9000005    2    1    2  501    0  0.13315043801E+02  0.91805540560E+00 -0.96527338085E+03  0.10167983025E+04  0.31929289838E+03 0.  0.
         13    1    3    3    0    0  0.12924527152E+03 -0.64601632146E+02 -0.24594905376E+03  0.28525190294E+03  0.00000000000E+00 0.  1.
          1    1    3    3  501    0 -0.11593022771E+03  0.65519687552E+02 -0.71932432709E+03  0.73154639955E+03  0.00000000000E+00 0.  1.
         21    1    1    2  502  501 -0.13315043801E+02 -0.91805540560E+00 -0.39962290890E+01  0.13932087571E+02  0.00000000000E+00 0. -1.
<mgrwt>
<rscale>  1 0.30000000E+03</rscale>
<asrwt>0</asrwt>
<pdfrwt beam="1">  1        1 0.11174711E+00 0.30000000E+03</pdfrwt>
<pdfrwt beam="2">0</pdfrwt>
<totfact> 0.29009195E+01</totfact>
</mgrwt>
</event>
<event>
 6    1  0.1875959E-004  0.3000000E+03  0.7818608E-02  0.1093470E+00
          1   -1    0    0  502    0  0.00000000000E+00  0.00000000000E+00  0.31857840986E+02  0.31857840986E+02  0.00000000000E+00 0.  1.
         13   -1    0    0    0    0 -0.00000000000E+00 -0.00000000000E+00 -0.10000000000E+04  0.10000000000E+04  0.00000000000E+00 0.  1.
    9000005    2    1    2  501    0 -0.11069543780E+02  0.45315976338E+01 -0.95381052108E+03  0.10131905963E+04  0.34155175921E+03 0.  0.
         13    1    3    3    0    0 -0.81440532671E+01 -0.97922472065E+02 -0.88338170789E+03  0.88882978009E+03  0.00000000000E+00 0.  1.
          1    1    3    3  501    0 -0.29254905130E+01  0.10245406970E+03 -0.70428813194E+02  0.12436081626E+03  0.00000000000E+00 0.  1.
         21    1    1    2  502  501  0.11069543780E+02 -0.45315976338E+01 -0.14331637932E+02  0.18667244639E+02  0.00000000000E+00 0. -1.
<mgrwt>
<rscale>  1 0.30000000E+03</rscale>
<asrwt>0</asrwt>
<pdfrwt beam="1">  1        1 0.11584694E+00 0.30000000E+03</pdfrwt>
<pdfrwt beam="2">0</pdfrwt>
<totfact> 0.27454844E+01</totfact>
</mgrwt>
</event>
<event>
 6    1  0.1875959E-004  0.3000000E+03  0.7818608E-02  0.1093470E+00
          1   -1    0    0  502    0  0.00000000000E+00  0.00000000000E+00  0.32207055868E+02  0.32207055868E+02  0.00000000000E+00 0.  1.
         13   -1    0    0    0    0 -0.00000000000E+00 -0.00000000000E+00 -0.10000000000E+04  0.10000000000E+04  0.00000000000E+00 0.  1.
    9000005    2    1    2  501    0 -0.89125497604E+01 -0.13583517810E+02 -0.95908742308E+03  0.10137752465E+04  0.32806648691E+03 0.  0.
         13    1    3    3    0    0  0.83154452682E+01  0.11874962669E+03 -0.78727733075E+03  0.79622623417E+03  0.00000000000E+00 0.  1.
          1    1    3    3  501    0 -0.17227995029E+02 -0.13233314450E+03 -0.17181009233E+03  0.21754901235E+03  0.00000000000E+00 0.  1.
         21    1    1    2  502  501  0.89125497604E+01  0.13583517810E+02 -0.87055210527E+01  0.18431809356E+02  0.00000000000E+00 0.  1.
<mgrwt>
<rscale>  1 0.30000000E+03</rscale>
<asrwt>0</asrwt>
<pdfrwt beam="1">  1        1 0.11711681E+00 0.30000000E+03</pdfrwt>
<pdfrwt beam="2">0</pdfrwt>
<totfact> 0.26997134E+01</totfact>
</mgrwt>
</event>
<event>
 6    1  0.1875959E-004  0.3000000E+03  0.7818608E-02  0.1093470E+00
          3   -1    0    0  502    0  0.00000000000E+00  0.00000000000E+00  0.30018098579E+02  0.30018098579E+02  0.00000000000E+00 0.  1.
         13   -1    0    0    0    0 -0.00000000000E+00 -0.00000000000E+00 -0.10000000000E+04  0.10000000000E+04  0.00000000000E+00 0.  1.
    9000005    2    1    2  501    0 -0.12327946889E+02  0.99819078366E+00 -0.96120220083E+03  0.10148504421E+04  0.32535945410E+03 0.  0.
         13    1    3    3    0    0 -0.14740132853E+02 -0.21811629639E+02  0.20198778395E+02  0.33181460979E+02  0.00000000000E+00 0.  1.
          1    1    3    3  501    0  0.24121859638E+01  0.22809820422E+02 -0.98140097923E+03  0.98166898117E+03  0.00000000000E+00 0.  1.
         21    1    1    2  502  501  0.12327946889E+02 -0.99819078366E+00 -0.87797005868E+01  0.15167656435E+02  0.00000000000E+00 0.  1.
<mgrwt>
<rscale>  1 0.30000000E+03</rscale>
<asrwt>0</asrwt>
<pdfrwt beam="1">  1        3 0.10915695E+00 0.30000000E+03</pdfrwt>
<pdfrwt beam="2">0</pdfrwt>
<totfact> 0.30810298E+00</totfact>
</mgrwt>
</event>
<event>
 6    1  0.1875959E-004  0.3000000E+03  0.7818608E-02  0.1093470E+00
          1   -1    0    0  502    0  0.00000000000E+00  0.00000000000E+00  0.42770190331E+02  0.42770190331E+02  0.00000000000E+00 0.  1.
         13   -1    0    0    0    0 -0.00000000000E+00 -0.00000000000E+00 -0.10000000000E+04  0.10000000000E+04  0.00000000000E+00 0.  1.
    9000005    2    1    2  501    0  0.14377951374E+01 -0.58272140537E+02 -0.91701227110E+03  0.97195239577E+03  0.31683157147E+03 0.  0.
         13    1    3    3    0    0  0.32618755241E+02  0.93178088207E+01 -0.89313775990E+03  0.89378177590E+03  0.00000000000E+00 0.  1.
          3    1    3    3  501    0 -0.31180960104E+02 -0.67589949358E+02 -0.23874511199E+02  0.78170619879E+02  0.00000000000E+00 0.  1.
         21    1    1    2  502  501 -0.14377951374E+01  0.58272140537E+02 -0.40217538565E+02  0.70817794557E+02  0.00000000000E+00 0. -1.
<mgrwt>
<rscale>  1 0.30000000E+03</rscale>
<asrwt>0</asrwt>
<pdfrwt beam="1">  1        1 0.15552829E+00 0.30000000E+03</pdfrwt>
<pdfrwt beam="2">0</pdfrwt>
<totfact> 0.16846809E+01</totfact>
</mgrwt>
</event>
<event>
 6    1  0.1875959E-004  0.3000000E+03  0.7818608E-02  0.1093470E+00
          1   -1    0    0  502    0  0.00000000000E+00  0.00000000000E+00  0.34656193117E+02  0.34656193117E+02  0.00000000000E+00 0.  1.
         13   -1    0    0    0    0 -0.00000000000E+00 -0.00000000000E+00 -0.10000000000E+04  0.10000000000E+04  0.00000000000E+00 0.  1.
    9000005    2    1    2  501    0  0.18305263316E+02 -0.15724404679E+02 -0.93095485829E+03  0.99264501183E+03  0.34363473599E+03 0.  0.
         13    1    3    3    0    0  0.86571313482E+02  0.93744318969E+02 -0.79517740633E+03  0.80535066722E+03  0.00000000000E+00 0.  1.
          3    1    3    3  501    0 -0.68266050166E+02 -0.10946872365E+03 -0.13577745195E+03  0.18729434461E+03  0.00000000000E+00 0.  1.
         21    1    1    2  502  501 -0.18305263316E+02  0.15724404679E+02 -0.34388948597E+02  0.42011181287E+02  0.00000000000E+00 0.  1.
<mgrwt>
<rscale>  1 0.30000000E+03</rscale>
<asrwt>0</asrwt>
<pdfrwt beam="1">  1        1 0.12602279E+00 0.30000000E+03</pdfrwt>
<pdfrwt beam="2">0</pdfrwt>
<totfact> 0.24058360E+01</totfact>
</mgrwt>
</event>
<event>
 6    1  0.1875959E-004  0.3000000E+03  0.7818608E-02  0.1093470E+00
          1   -1    0    0  502    0  0.00000000000E+00  0.00000000000E+00  0.44898786239E+02  0.44898786239E+02  0.00000000000E+00 0.  1.
         13   -1    0    0    0    0 -0.00000000000E+00 -0.00000000000E+00 -0.10000000000E+04  0.10000000000E+04  0.00000000000E+00 0.  1.
    9000005    2    1    2  501    0 -0.85685225201E+01 -0.16931898599E+02 -0.96057743075E+03  0.10251478946E+04  0.35757390362E+03 0.  0.
         13    1    3    3    0    0 -0.86388048056E+02 -0.81907045957E+02 -0.91418791587E+02  0.15009681702E+03  0.00000000000E+00 0.  1.
          3    1    3    3  501    0  0.77819525536E+02  0.64975147358E+02 -0.86915863916E+03  0.87505107757E+03  0.00000000000E+00 0.  1.
         21    1    1    2  502  501  0.85685225201E+01  0.16931898599E+02  0.54762169875E+01  0.19750891647E+02  0.00000000000E+00 0.  1.
<mgrwt>
<rscale>  1 0.30000000E+03</rscale>
<asrwt>0</asrwt>
<pdfrwt beam="1">  1        1 0.16326866E+00 0.30000000E+03</pdfrwt>
<pdfrwt beam="2">0</pdfrwt>
<totfact> 0.15417460E+01</totfact>
</mgrwt>
</event>
<event>
 6    1  0.1875959E-004  0.3000000E+03  0.7818608E-02  0.1093470E+00
          1   -1    0    0  502    0  0.00000000000E+00  0.00000000000E+00  0.31488722465E+02  0.31488722465E+02  0.00000000000E+00 0.  1.
         13   -1    0    0    0    0 -0.00000000000E+00 -0.00000000000E+00 -0.10000000000E+04  0.10000000000E+04  0.00000000000E+00 0.  1.
    9000005    2    1    2  501    0  0.71573225769E+00  0.13270643273E+02 -0.96120834678E+03  0.10163244538E+04  0.32987465391E+03 0.  0.
         13    1    3    3    0    0  0.14517338772E+02  0.16968734660E+03 -0.43366258257E+03  0.46590533828E+03  0.00000000000E+00 0.  1.
          1    1    3    3  501    0 -0.13801606514E+02 -0.15641670333E+03 -0.52754576422E+03  0.55041911555E+03  0.00000000000E+00 0.  1.
         21    1    1    2  502  501 -0.71573225769E+00 -0.13270643273E+02 -0.73029307517E+01  0.15164268631E+02  0.00000000000E+00 0. -1.
<mgrwt>
<rscale>  1 0.30000000E+03</rscale>
<asrwt>0</asrwt>
<pdfrwt beam="1">  1        1 0.11450469E+00 0.30000000E+03</pdfrwt>
<pdfrwt beam="2">0</pdfrwt>
<totfact> 0.27950473E+01</totfact>
</mgrwt>
</event>
<event>
 6    1  0.1875959E-004  0.3000000E+03  0.7818608E-02  0.1093470E+00
          1   -1    0    0  502    0  0.00000000000E+00  0.00000000000E+00  0.37097192583E+02  0.37097192583E+02  0.00000000000E+00 0.  1.
         13   -1    0    0    0    0 -0.00000000000E+00 -0.00000000000E+00 -0.10000000000E+04  0.10000000000E+04  0.00000000000E+00 0.  1.
    9000005    2    1    2  501    0 -0.63163685496E+01  0.77324833097E+01 -0.96913212514E+03  0.10253289213E+04  0.33463806277E+03 0.  0.
         13    1    3    3    0    0  0.13672453966E+03 -0.30537630490E+02 -0.21373299095E+03  0.25555417829E+03  0.00000000000E+00 0.  1.
          3    1    3    3  501    0 -0.14304090821E+03  0.38270113800E+02 -0.75539913419E+03  0.76977474301E+03  0.00000000000E+00 0.  1.
         21    1    1    2  502  501  0.63163685496E+01 -0.77324833097E+01  0.62293177248E+01  0.11768271288E+02  0.00000000000E+00 0.  1.
<mgrwt>
<rscale>  1 0.30000000E+03</rscale>
<asrwt>0</asrwt>
<pdfrwt beam="1">  1        1 0.13489917E+00 0.30000000E+03</pdfrwt>
<pdfrwt beam="2">0</pdfrwt>
<totfact> 0.21529187E+01</totfact>
</mgrwt>
</event>
<event>
 6    1  0.1875959E-004  0.3000000E+03  0.7818608E-02  0.1093470E+00
          1   -1    0    0  502    0  0.00000000000E+00  0.00000000000E+00  0.51053798666E+02  0.51053798666E+02  0.00000000000E+00 0.  1.
         13   -1    0    0    0    0 -0.00000000000E+00 -0.00000000000E+00 -0.10000000000E+04  0.10000000000E+04  0.00000000000E+00 0.  1.
    9000005    2    1    2  501    0  0.93757404269E+01  0.49343950815E+01 -0.96975677283E+03  0.10277014401E+04  0.34004381895E+03 0.  0.
         13    1    3    3    0    0  0.83978595028E+02  0.14755700784E+03 -0.37673617660E+03  0.41322587255E+03  0.00000000000E+00 0.  1.
          3    1    3    3  501    0 -0.74602854601E+02 -0.14262261276E+03 -0.59302059623E+03  0.61447556757E+03  0.00000000000E+00 0.  1.
         21    1    1    2  502  501 -0.93757404269E+01 -0.49343950815E+01  0.20810571500E+02  0.23352358543E+02  0.00000000000E+00 0. -1.
<mgrwt>
<rscale>  1 0.30000000E+03</rscale>
<asrwt>0</asrwt>
<pdfrwt beam="1">  1        1 0.18565057E+00 0.30000000E+03</pdfrwt>
<pdfrwt beam="2">0</pdfrwt>
<totfact> 0.11997637E+01</totfact>
</mgrwt>
</event>
<event>
 6    1  0.1875959E-004  0.3000000E+03  0.7818608E-02  0.1093470E+00
          1   -1    0    0  502    0  0.00000000000E+00  0.00000000000E+00  0.29585171232E+02  0.29585171232E+02  0.00000000000E+00 0.  1.
         13   -1    0    0    0    0 -0.00000000000E+00 -0.00000000000E+00 -0.10000000000E+04  0.10000000000E+04  0.00000000000E+00 0.  1.
    9000005    2    1    2  501    0  0.72760474459E+01 -0.21717123923E+02 -0.93615502506E+03  0.98837463268E+03  0.31618603580E+03 0.  0.
         13    1    3    3    0    0  0.24496778928E+02 -0.15090635123E+03 -0.71930187446E+03  0.73536929880E+03  0.00000000000E+00 0.  1.
          1    1    3    3  501    0 -0.17220731482E+02  0.12918922731E+03 -0.21685315061E+03  0.25300533388E+03  0.00000000000E+00 0.  1.
         21    1    1    2  502  501 -0.72760474459E+01  0.21717123923E+02 -0.34259803703E+02  0.41210538551E+02  0.00000000000E+00 0.  1.
<mgrwt>
<rscale>  1 0.30000000E+03</rscale>
<asrwt>0</asrwt>
<pdfrwt beam="1">  1        1 0.10758267E+00 0.30000000E+03</pdfrwt>
<pdfrwt beam="2">0</pdfrwt>
<totfact> 0.30719062E+01</totfact>
</mgrwt>
</event>
<event>
 6    1  0.1875959E-004  0.3000000E+03  0.7818608E-02  0.1093470E+00
          1   -1    0    0  502    0  0.00000000000E+00  0.00000000000E+00  0.34749152916E+02  0.34749152916E+02  0.00000000000E+00 0.  1.
         13   -1    0    0    0    0 -0.00000000000E+00 -0.00000000000E+00 -0.10000000000E+04  0.10000000000E+04  0.00000000000E+00 0.  1.
    9000005    2    1    2  501    0  0.10436901929E+02 -0.18320510405E+02 -0.94997178425E+03  0.10087103399E+04  0.33853447222E+03 0.  0.
         13    1    3    3    0    0 -0.14776307773E+03 -0.10908557383E+02 -0.24625532841E+03  0.28739278094E+03  0.00000000000E+00 0.  1.
          3    1    3    3  501    0  0.15819997966E+03 -0.74119530215E+01 -0.70371645585E+03  0.72131755894E+03  0.00000000000E+00 0.  1.
         21    1    1    2  502  501 -0.10436901929E+02  0.18320510405E+02 -0.15279062831E+02  0.26038813037E+02  0.00000000000E+00 0. -1.
<mgrwt>
<rscale>  1 0.30000000E+03</rscale>
<asrwt>0</asrwt>
<pdfrwt beam="1">  1        1 0.12636082E+00 0.30000000E+03</pdfrwt>
<pdfrwt beam="2">0</pdfrwt>
<totfact> 0.23955202E+01</totfact>
</mgrwt>
</event>
<event>
 6    1  0.1875959E-004  0.3000000E+03  0.7818608E-02  0.1093470E+00
          3   -1    0    0  502    0  0.00000000000E+00  0.00000000000E+00  0.44556890828E+02  0.44556890828E+02  0.00000000000E+00 0.  1.
         13   -1    0    0    0    0 -0.00000000000E+00 -0.00000000000E+00 -0.10000000000E+04  0.10000000000E+04  0.00000000000E+00 0.  1.
    9000005    2    1    2  501    0 -0.35220714977E+01 -0.28357264790E+02 -0.95949921601E+03  0.10156952995E+04  0.33193622332E+03 0.  0.
         13    1    3    3    0    0  0.34332220499E+02 -0.13436041454E+03 -0.84062171352E+03  0.85198373670E+03  0.00000000000E+00 0.  1.
          1    1    3    3  501    0 -0.37854291997E+02  0.10600314975E+03 -0.11887750249E+03  0.16371156275E+03  0.00000000000E+00 0.  1.
         21    1    1    2  502  501  0.35220714977E+01  0.28357264790E+02  0.40561068396E+01  0.28861591375E+02  0.00000000000E+00 0.  1.
<mgrwt>
<rscale>  1 0.30000000E+03</rscale>
<asrwt>0</asrwt>
<pdfrwt beam="1">  1        3 0.16202540E+00 0.30000000E+03</pdfrwt>
<pdfrwt beam="2">0</pdfrwt>
<totfact> 0.65935565E-01</totfact>
</mgrwt>
</event>
<event>
 6    1  0.1875959E-004  0.3000000E+03  0.7818608E-02  0.1093470E+00
          1   -1    0    0  502    0  0.00000000000E+00  0.00000000000E+00  0.79454405303E+02  0.79454405303E+02  0.00000000000E+00 0.  1.
         13   -1    0    0    0    0 -0.00000000000E+00 -0.00000000000E+00 -0.10000000000E+04  0.10000000000E+04  0.00000000000E+00 0.  1.
    9000005    2    1    2  501    0 -0.65680946604E+02  0.40375811057E+02 -0.94299546641E+03  0.99915378510E+03  0.32112870275E+03 0.  0.
         13    1    3    3    0    0  0.91812205816E+01 -0.99513022166E+02 -0.10006697918E+03  0.14142325380E+03  0.00000000000E+00 0.  1.
          3    1    3    3  501    0 -0.74862167185E+02  0.13988883322E+03 -0.84292848723E+03  0.85773053130E+03  0.00000000000E+00 0.  1.
         21    1    1    2  502  501  0.65680946604E+02 -0.40375811057E+02  0.22449871718E+02  0.80300620206E+02  0.00000000000E+00 0.  1.
<mgrwt>
<rscale>  1 0.30000000E+03</rscale>
<asrwt>0</asrwt>
<pdfrwt beam="1">  1        1 0.28892572E+00 0.30000000E+03</pdfrwt>
<pdfrwt beam="2">0</pdfrwt>
<totfact> 0.39201634E+00</totfact>
</mgrwt>
</event>
<event>
 6    1  0.1875959E-004  0.3000000E+03  0.7818608E-02  0.1093470E+00
          1   -1    0    0  502    0  0.00000000000E+00  0.00000000000E+00  0.30910274289E+02  0.30910274289E+02  0.00000000000E+00 0.  1.
         13   -1    0    0    0    0 -0.00000000000E+00 -0.00000000000E+00 -0.10000000000E+04  0.10000000000E+04  0.00000000000E+00 0.  1.
    9000005    2    1    2  501    0 -0.93521184909E+01 -0.52799772224E+01 -0.96864764698E+03  0.10201615203E+04  0.31989986422E+03 0.  0.
         13    1    3    3    0    0 -0.11150778943E+03  0.14548402436E+02 -0.86845609475E+03  0.87570636153E+03  0.00000000000E+00 0.  1.
          3    1    3    3  501    0  0.10215567094E+03 -0.19828379658E+02 -0.10019155223E+03  0.14445515873E+03  0.00000000000E+00 0.  1.
         21    1    1    2  502  501  0.93521184909E+01  0.52799772224E+01 -0.44207873463E+00  0.10748754037E+02  0.00000000000E+00 0.  1.
<mgrwt>
<rscale>  1 0.30000000E+03</rscale>
<asrwt>0</asrwt>
<pdfrwt beam="1">  1        1 0.11240123E+00 0.30000000E+03</pdfrwt>
<pdfrwt beam="2">0</pdfrwt>
<totfact> 0.28752945E+01</totfact>
</mgrwt>
</event>
<event>
 6    1  0.1875959E-004  0.3000000E+03  0.7818608E-02  0.1093470E+00
          1   -1    0    0  502    0  0.00000000000E+00  0.00000000000E+00  0.38354531316E+02  0.38354531316E+02  0.00000000000E+00 0.  1.
         13   -1    0    0    0    0 -0.00000000000E+00 -0.00000000000E+00 -0.10000000000E+04  0.10000000000E+04  0.00000000000E+00 0.  1.
    9000005    2    1    2  501    0  0.19864527923E+02  0.11137613952E+01 -0.92771194987E+03  0.99901849653E+03  0.37012518765E+03 0.  0.
         13    1    3    3    0    0  0.17671630252E+03 -0.59087264923E+02 -0.33937606935E+03  0.38716414206E+03  0.00000000000E+00 0.  1.
          3    1    3    3  501    0 -0.15685177460E+03  0.60201026318E+02 -0.58833588052E+03  0.61185435446E+03  0.00000000000E+00 0.  1.
         21    1    1    2  502  501 -0.19864527923E+02 -0.11137613952E+01 -0.33933518812E+02  0.39336034790E+02  0.00000000000E+00 0. -1.
<mgrwt>
<rscale>  1 0.30000000E+03</rscale>
<asrwt>0</asrwt>
<pdfrwt beam="1">  1        1 0.13947132E+00 0.30000000E+03</pdfrwt>
<pdfrwt beam="2">0</pdfrwt>
<totfact> 0.20361908E+01</totfact>
</mgrwt>
</event>
<event>
 6    1  0.1875959E-004  0.3000000E+03  0.7818608E-02  0.1093470E+00
          3   -1    0    0  502    0  0.00000000000E+00  0.00000000000E+00  0.30440515882E+02  0.30440515882E+02  0.00000000000E+00 0.  1.
         13   -1    0    0    0    0 -0.00000000000E+00 -0.00000000000E+00 -0.10000000000E+04  0.10000000000E+04  0.00000000000E+00 0.  1.
    9000005    2    1    2  501    0 -0.13165282599E+02  0.23223047252E+02 -0.90448101669E+03  0.96009962086E+03  0.32092481648E+03 0.  0.
         13    1    3    3    0    0 -0.11232001485E+02  0.11970768905E+03 -0.82875608745E+03  0.83743223078E+03  0.00000000000E+00 0.  1.
          3    1    3    3  501    0 -0.19332811145E+01 -0.96484641802E+02 -0.75724929246E+02  0.12266739008E+03  0.00000000000E+00 0.  1.
         21    1    1    2  502  501  0.13165282599E+02 -0.23223047252E+02 -0.65078467425E+02  0.70340895018E+02  0.00000000000E+00 0.  1.
<mgrwt>
<rscale>  1 0.30000000E+03</rscale>
<asrwt>0</asrwt>
<pdfrwt beam="1">  1        3 0.11069302E+00 0.30000000E+03</pdfrwt>
<pdfrwt beam="2">0</pdfrwt>
<totfact> 0.29592904E+00</totfact>
</mgrwt>
</event>
<event>
 6    1  0.1875959E-004  0.3000000E+03  0.7818608E-02  0.1093470E+00
          1   -1    0    0  502    0  0.00000000000E+00  0.00000000000E+00  0.39419163472E+02  0.39419163472E+02  0.00000000000E+00 0.  1.
         13   -1    0    0    0    0 -0.00000000000E+00 -0.00000000000E+00 -0.10000000000E+04  0.10000000000E+04  0.00000000000E+00 0.  1.
    9000005    2    1    2  501    0 -0.17473893778E+02  0.90798249226E+01 -0.96579723293E+03  0.10190478362E+04  0.32450950231E+03 0.  0.
         13    1    3    3    0    0 -0.16082542476E+01  0.71275583792E+02 -0.95035964336E+03  0.95303003471E+03  0.00000000000E+00 0.  1.
          1    1    3    3  501    0 -0.15865639530E+02 -0.62195758870E+02 -0.15437589575E+02  0.66017801470E+02  0.00000000000E+00 0.  1.
         21    1    1    2  502  501  0.17473893778E+02 -0.90798249226E+01  0.52163964048E+01  0.20371327297E+02  0.00000000000E+00 0.  1.
<mgrwt>
<rscale>  1 0.30000000E+03</rscale>
<asrwt>0</asrwt>
<pdfrwt beam="1">  1        1 0.14334271E+00 0.30000000E+03</pdfrwt>
<pdfrwt beam="2">0</pdfrwt>
<totfact> 0.19436174E+01</totfact>
</mgrwt>
</event>
<event>
 6    1  0.1875959E-004  0.3000000E+03  0.7818608E-02  0.1093470E+00
          1   -1    0    0  502    0  0.00000000000E+00  0.00000000000E+00  0.84329417754E+02  0.84329417754E+02  0.00000000000E+00 0.  1.
         13   -1    0    0    0    0 -0.00000000000E+00 -0.00000000000E+00 -0.10000000000E+04  0.10000000000E+04  0.00000000000E+00 0.  1.
    9000005    2    1    2  501    0 -0.28211035920E+02  0.92455502647E+02 -0.92669988584E+03  0.98703847236E+03  0.32577351795E+03 0.  0.
         13    1    3    3    0    0 -0.14657503835E+03  0.10280795138E+03 -0.76912778260E+03  0.78969061201E+03  0.00000000000E+00 0.  1.
          1    1    3    3  501    0  0.11836400243E+03 -0.10352448736E+02 -0.15757210324E+03  0.19734786035E+03  0.00000000000E+00 0.  1.
         21    1    1    2  502  501  0.28211035920E+02 -0.92455502647E+02  0.11029303591E+02  0.97290945391E+02  0.00000000000E+00 0.  1.
<mgrwt>
<rscale>  1 0.30000000E+03</rscale>
<asrwt>0</asrwt>
<pdfrwt beam="1">  1        1 0.30665307E+00 0.30000000E+03</pdfrwt>
<pdfrwt beam="2">0</pdfrwt>
<totfact> 0.32299913E+00</totfact>
</mgrwt>
</event>
<event>
 6    1  0.1875959E-004  0.3000000E+03  0.7818608E-02  0.1093470E+00
          1   -1    0    0  502    0  0.00000000000E+00  0.00000000000E+00  0.32566377230E+02  0.32566377230E+02  0.00000000000E+00 0.  1.
         13   -1    0    0    0    0 -0.00000000000E+00 -0.00000000000E+00 -0.10000000000E+04  0.10000000000E+04  0.00000000000E+00 0.  1.
    9000005    2    1    2  501    0 -0.20866043044E+02  0.49885257208E+01 -0.94780076624E+03  0.10034850052E+04  0.32893097470E+03 0.  0.
         13    1    3    3    0    0 -0.16451292685E+03  0.36835949924E+02 -0.64734285301E+03  0.66893509375E+03  0.00000000000E+00 0.  1.
          3    1    3    3  501    0  0.14364688381E+03 -0.31847424203E+02 -0.30045791324E+03  0.33454991150E+03  0.00000000000E+00 0.  1.
         21    1    1    2  502  501  0.20866043044E+02 -0.49885257208E+01 -0.19632856526E+02  0.29081371986E+02  0.00000000000E+00 0.  1.
<mgrwt>
<rscale>  1 0.30000000E+03</rscale>
<asrwt>0</asrwt>
<pdfrwt beam="1">  1        1 0.11842344E+00 0.30000000E+03</pdfrwt>
<pdfrwt beam="2">0</pdfrwt>
<totfact> 0.26537066E+01</totfact>
</mgrwt>
</event>
<event>
 6    1  0.1875959E-004  0.3000000E+03  0.7818608E-02  0.1093470E+00
          1   -1    0    0  502    0  0.00000000000E+00  0.00000000000E+00  0.10120944039E+03  0.10120944039E+03  0.00000000000E+00 0.  1.
         13   -1    0    0    0    0 -0.00000000000E+00 -0.00000000000E+00 -0.10000000000E+04  0.10000000000E+04  0.00000000000E+00 0.  1.
    9000005    2    1    2  501    0 -0.23494709589E+03  0.40134434651E+02 -0.62658572285E+03  0.73939956784E+03  0.31191528038E+03 0.  0.
         13    1    3    3    0    0  0.54787620540E+02  0.31139688740E+02 -0.18374392050E+02  0.65642835577E+02  0.00000000000E+00 0.  1.
          1    1    3    3  501    0 -0.28973471643E+03  0.89947459110E+01 -0.60821133080E+03  0.67375673226E+03  0.00000000000E+00 0.  1.
         21    1    1    2  502  501  0.23494709589E+03 -0.40134434651E+02 -0.27220483677E+03  0.36180987255E+03  0.00000000000E+00 0.  1.
<mgrwt>
<rscale>  1 0.30000000E+03</rscale>
<asrwt>0</asrwt>
<pdfrwt beam="1">  1        1 0.36803510E+00 0.30000000E+03</pdfrwt>
<pdfrwt beam="2">0</pdfrwt>
<totfact> 0.15816544E+00</totfact>
</mgrwt>
</event>
<event>
 6    1  0.1875959E-004  0.3000000E+03  0.7818608E-02  0.1093470E+00
          1   -1    0    0  502    0  0.00000000000E+00  0.00000000000E+00  0.53639173652E+02  0.53639173652E+02  0.00000000000E+00 0.  1.
         13   -1    0    0    0    0 -0.00000000000E+00 -0.00000000000E+00 -0.10000000000E+04  0.10000000000E+04  0.00000000000E+00 0.  1.
    9000005    2    1    2  501    0  0.29638302085E+02  0.40748215807E+02 -0.94661008068E+03  0.10032515941E+04  0.32848785404E+03 0.  0.
         13    1    3    3    0    0  0.10162266232E+03 -0.37882481606E+02 -0.85743556728E+03  0.86426731972E+03  0.00000000000E+00 0.  1.
          3    1    3    3  501    0 -0.71984360234E+02  0.78630697413E+02 -0.89174513399E+02  0.13898427441E+03  0.00000000000E+00 0.  1.
         21    1    1    2  502  501 -0.29638302085E+02 -0.40748215807E+02  0.24925432776E+00  0.50387579518E+02  0.00000000000E+00 0. -1.
<mgrwt>
<rscale>  1 0.30000000E+03</rscale>
<asrwt>0</asrwt>
<pdfrwt beam="1">  1        1 0.19505195E+00 0.30000000E+03</pdfrwt>
<pdfrwt beam="2">0</pdfrwt>
<totfact> 0.10814526E+01</totfact>
</mgrwt>
</event>
<event>
 6    1  0.1875959E-004  0.3000000E+03  0.7818608E-02  0.1093470E+00
          1   -1    0    0  502    0  0.00000000000E+00  0.00000000000E+00  0.27370657294E+02  0.27370657294E+02  0.00000000000E+00 0.  1.
         13   -1    0    0    0    0 -0.00000000000E+00 -0.00000000000E+00 -0.10000000000E+04  0.10000000000E+04  0.00000000000E+00 0.  1.
    9000005    2    1    2  501    0 -0.86336438411E+01 -0.35051198775E+01 -0.96264099525E+03  0.10137107614E+04  0.31756101200E+03 0.  0.
         13    1    3    3    0    0 -0.14892564281E+03  0.62396444661E+02 -0.53562076015E+03  0.55942985449E+03  0.00000000000E+00 0.  1.
          3    1    3    3  501    0  0.14029199897E+03 -0.65901564538E+02 -0.42702023510E+03  0.45428090689E+03  0.00000000000E+00 0.  1.
         21    1    1    2  502  501  0.86336438411E+01  0.35051198775E+01 -0.99883474602E+01  0.13659895912E+02  0.00000000000E+00 0. -1.
<mgrwt>
<rscale>  1 0.30000000E+03</rscale>
<asrwt>0</asrwt>
<pdfrwt beam="1">  1        1 0.99529873E-01 0.30000000E+03</pdfrwt>
<pdfrwt beam="2">0</pdfrwt>
<totfact> 0.34463415E+01</totfact>
</mgrwt>
</event>
<event>
 6    1  0.1875959E-004  0.3000000E+03  0.7818608E-02  0.1093470E+00
          3   -1    0    0  502    0  0.00000000000E+00  0.00000000000E+00  0.34120194073E+02  0.34120194073E+02  0.00000000000E+00 0.  1.
         13   -1    0    0    0    0 -0.00000000000E+00 -0.00000000000E+00 -0.10000000000E+04  0.10000000000E+04  0.00000000000E+00 0.  1.
    9000005    2    1    2  501    0  0.29288283850E+02 -0.34292254629E+02 -0.85073630086E+03  0.91046022053E+03  0.32117253504E+03 0.  0.
         13    1    3    3    0    0  0.46980387909E+02  0.10512753415E+02  0.93367044119E+01  0.49039258576E+02  0.00000000000E+00 0.  1.
          3    1    3    3  501    0 -0.17692104059E+02 -0.44805008044E+02 -0.86007300527E+03  0.86142096195E+03  0.00000000000E+00 0.  1.
         21    1    1    2  502  501 -0.29288283850E+02  0.34292254629E+02 -0.11514350507E+03  0.12365997355E+03  0.00000000000E+00 0.  1.
<mgrwt>
<rscale>  1 0.30000000E+03</rscale>
<asrwt>0</asrwt>
<pdfrwt beam="1">  1        3 0.12407369E+00 0.30000000E+03</pdfrwt>
<pdfrwt beam="2">0</pdfrwt>
<totfact> 0.20742448E+00</totfact>
</mgrwt>
</event>
<event>
 6    1  0.1875959E-004  0.3000000E+03  0.7818608E-02  0.1093470E+00
          1   -1    0    0  502    0  0.00000000000E+00  0.00000000000E+00  0.30215128715E+02  0.30215128715E+02  0.00000000000E+00 0.  1.
         13   -1    0    0    0    0 -0.00000000000E+00 -0.00000000000E+00 -0.10000000000E+04  0.10000000000E+04  0.00000000000E+00 0.  1.
    9000005    2    1    2  501    0 -0.15831822835E+02  0.10012734605E+02 -0.96254188147E+03  0.10101312454E+04  0.30582242859E+03 0.  0.
         13    1    3    3    0    0 -0.11429027215E+03 -0.10365164738E+03 -0.43386122810E+03  0.46047963642E+03  0.00000000000E+00 0.  1.
          1    1    3    3  501    0  0.98458449318E+02  0.11366438198E+03 -0.52868065337E+03  0.54965160895E+03  0.00000000000E+00 0.  1.
         21    1    1    2  502  501  0.15831822835E+02 -0.10012734605E+02 -0.72429898118E+01  0.20083883339E+02  0.00000000000E+00 0.  1.
<mgrwt>
<rscale>  1 0.30000000E+03</rscale>
<asrwt>0</asrwt>
<pdfrwt beam="1">  1        1 0.10987343E+00 0.30000000E+03</pdfrwt>
<pdfrwt beam="2">0</pdfrwt>
<totfact> 0.29761315E+01</totfact>
</mgrwt>
</event>
<event>
 6    1  0.1875959E-004  0.3000000E+03  0.7818608E-02  0.1093470E+00
          1   -1    0    0  502    0  0.00000000000E+00  0.00000000000E+00  0.37119087777E+02  0.37119087777E+02  0.00000000000E+00 0.  1.
         13   -1    0    0    0    0 -0.00000000000E+00 -0.00000000000E+00 -0.10000000000E+04  0.10000000000E+04  0.00000000000E+00 0.  1.
    9000005    2    1    2  501    0 -0.14049691313E+02 -0.51576892857E+02 -0.79950717660E+03  0.86522217915E+03  0.32640484703E+03 0.  0.
         13    1    3    3    0    0 -0.16165819857E+02  0.79312549933E+01  0.29239377103E+02  0.34339186228E+02  0.00000000000E+00 0.  1.
          3    1    3    3  501    0  0.21161285438E+01 -0.59508147851E+02 -0.82874655370E+03  0.83088299292E+03  0.00000000000E+00 0.  1.
         21    1    1    2  502  501  0.14049691313E+02  0.51576892857E+02 -0.16337373563E+03  0.17189690863E+03  0.00000000000E+00 0.  1.
<mgrwt>
<rscale>  1 0.30000000E+03</rscale>
<asrwt>0</asrwt>
<pdfrwt beam="1">  1        1 0.13497879E+00 0.30000000E+03</pdfrwt>
<pdfrwt beam="2">0</pdfrwt>
<totfact> 0.21508119E+01</totfact>
</mgrwt>
</event>
<event>
 6    1  0.1875959E-004  0.3000000E+03  0.7818608E-02  0.1093470E+00
          3   -1    0    0  502    0  0.00000000000E+00  0.00000000000E+00  0.34775792504E+02  0.34775792504E+02  0.00000000000E+00 0.  1.
         13   -1    0    0    0    0 -0.00000000000E+00 -0.00000000000E+00 -0.10000000000E+04  0.10000000000E+04  0.00000000000E+00 0.  1.
    9000005    2    1    2  501    0 -0.51384209824E-01  0.25603737048E+02 -0.94330904415E+03  0.10010737395E+04  0.33415733597E+03 0.  0.
         13    1    3    3    0    0  0.15703092586E+03  0.63730847236E+02 -0.40523804502E+03  0.43924731723E+03  0.00000000000E+00 0.  1.
          1    1    3    3  501    0 -0.15708231007E+03 -0.38127110189E+02 -0.53807099913E+03  0.56182642228E+03  0.00000000000E+00 0.  1.
         21    1    1    2  502  501  0.51384209824E-01 -0.25603737048E+02 -0.21915163349E+02  0.33702052990E+02  0.00000000000E+00 0.  1.
<mgrwt>
<rscale>  1 0.30000000E+03</rscale>
<asrwt>0</asrwt>
<pdfrwt beam="1">  1        3 0.12645769E+00 0.30000000E+03</pdfrwt>
<pdfrwt beam="2">0</pdfrwt>
<totfact> 0.19460030E+00</totfact>
</mgrwt>
</event>
<event>
 6    1  0.1875959E-004  0.3000000E+03  0.7818608E-02  0.1093470E+00
          1   -1    0    0  502    0  0.00000000000E+00  0.00000000000E+00  0.27783732958E+02  0.27783732958E+02  0.00000000000E+00 0.  1.
         13   -1    0    0    0    0 -0.00000000000E+00 -0.00000000000E+00 -0.10000000000E+04  0.10000000000E+04  0.00000000000E+00 0.  1.
    9000005    2    1    2  501    0  0.80749993208E+01 -0.39675465108E+01 -0.93742217351E+03  0.99184523015E+03  0.32390690351E+03 0.  0.
         13    1    3    3    0    0  0.23705354637E+02 -0.15675172148E+03 -0.34237499175E+03  0.37729786774E+03  0.00000000000E+00 0.  1.
          1    1    3    3  501    0 -0.15630355316E+02  0.15278417496E+03 -0.59504718177E+03  0.61454736242E+03  0.00000000000E+00 0.  1.
         21    1    1    2  502  501 -0.80749993208E+01  0.39675465108E+01 -0.34794093529E+02  0.35938502805E+02  0.00000000000E+00 0.  1.
<mgrwt>
<rscale>  1 0.30000000E+03</rscale>
<asrwt>0</asrwt>
<pdfrwt beam="1">  1        1 0.10103197E+00 0.30000000E+03</pdfrwt>
<pdfrwt beam="2">0</pdfrwt>
<totfact> 0.33716193E+01</totfact>
</mgrwt>
</event>
<event>
 6    1  0.1875959E-004  0.3000000E+03  0.7818608E-02  0.1093470E+00
          1   -1    0    0  502    0  0.00000000000E+00  0.00000000000E+00  0.45348336691E+02  0.45348336691E+02  0.00000000000E+00 0.  1.
         13   -1    0    0    0    0 -0.00000000000E+00 -0.00000000000E+00 -0.10000000000E+04  0.10000000000E+04  0.00000000000E+00 0.  1.
    9000005    2    1    2  501    0 -0.84124862816E-01  0.19507355966E+02 -0.96821882704E+03  0.10215867722E+04  0.32528647707E+03 0.  0.
         13    1    3    3    0    0 -0.12420626501E+03  0.11193825689E+03 -0.58120280790E+03  0.60477605238E+03  0.00000000000E+00 0.  1.
          1    1    3    3  501    0  0.12412214014E+03 -0.92430900920E+02 -0.38701601914E+03  0.41681071986E+03  0.00000000000E+00 0.  1.
         21    1    1    2  502  501  0.84124862816E-01 -0.19507355966E+02  0.13567163728E+02  0.23761564456E+02  0.00000000000E+00 0.  1.
<mgrwt>
<rscale>  1 0.30000000E+03</rscale>
<asrwt>0</asrwt>
<pdfrwt beam="1">  1        1 0.16490339E+00 0.30000000E+03</pdfrwt>
<pdfrwt beam="2">0</pdfrwt>
<totfact> 0.15133880E+01</totfact>
</mgrwt>
</event>
<event>
 6    1  0.1875959E-004  0.3000000E+03  0.7818608E-02  0.1093470E+00
          1   -1    0    0  502    0  0.00000000000E+00  0.00000000000E+00  0.54115842314E+02  0.54115842314E+02  0.00000000000E+00 0.  1.
         13   -1    0    0    0    0 -0.00000000000E+00 -0.00000000000E+00 -0.10000000000E+04  0.10000000000E+04  0.00000000000E+00 0.  1.
    9000005    2    1    2  501    0 -0.62425523195E+01  0.84941779921E+01 -0.97164140998E+03  0.10262849860E+04  0.33024645691E+03 0.  0.
         13    1    3    3    0    0 -0.48599157454E+02 -0.66788845740E+02 -0.42046154275E+02  0.92684988590E+02  0.00000000000E+00 0.  1.
          3    1    3    3  501    0  0.42356605134E+02  0.75283023732E+02 -0.92959525571E+03  0.93359999737E+03  0.00000000000E+00 0.  1.
         21    1    1    2  502  501  0.62425523195E+01 -0.84941779921E+01  0.25757252298E+02  0.27830856350E+02  0.00000000000E+00 0.  1.
<mgrwt>
<rscale>  1 0.30000000E+03</rscale>
<asrwt>0</asrwt>
<pdfrwt beam="1">  1        1 0.19678530E+00 0.30000000E+03</pdfrwt>
<pdfrwt beam="2">0</pdfrwt>
<totfact> 0.10610605E+01</totfact>
</mgrwt>
</event>
<event>
 6    1  0.1875959E-004  0.3000000E+03  0.7818608E-02  0.1093470E+00
          1   -1    0    0  502    0  0.00000000000E+00  0.00000000000E+00  0.33502398974E+02  0.33502398974E+02  0.00000000000E+00 0.  1.
         13   -1    0    0    0    0 -0.00000000000E+00 -0.00000000000E+00 -0.10000000000E+04  0.10000000000E+04  0.00000000000E+00 0.  1.
    9000005    2    1    2  501    0  0.18890229259E+00 -0.14381229494E+02 -0.96807744136E+03  0.10190334204E+04  0.31788099023E+03 0.  0.
         13    1    3    3    0    0  0.33509320510E+02 -0.92075769857E+02 -0.91276221634E+03  0.91800636465E+03  0.00000000000E+00 0.  1.
          3    1    3    3  501    0 -0.33320418217E+02  0.77694540363E+02 -0.55315225020E+02  0.10102705574E+03  0.00000000000E+00 0.  1.
         21    1    1    2  502  501 -0.18890229259E+00  0.14381229494E+02  0.15798403346E+01  0.14468978585E+02  0.00000000000E+00 0.  1.
<mgrwt>
<rscale>  1 0.30000000E+03</rscale>
<asrwt>0</asrwt>
<pdfrwt beam="1">  1        1 0.12182716E+00 0.30000000E+03</pdfrwt>
<pdfrwt beam="2">0</pdfrwt>
<totfact> 0.25387296E+01</totfact>
</mgrwt>
</event>
<event>
 6    1  0.1875959E-004  0.3000000E+03  0.7818608E-02  0.1093470E+00
          1   -1    0    0  502    0  0.00000000000E+00  0.00000000000E+00  0.15392349341E+02  0.15392349341E+02  0.00000000000E+00 0.  1.
         13   -1    0    0    0    0 -0.00000000000E+00 -0.00000000000E+00 -0.10000000000E+04  0.10000000000E+04  0.00000000000E+00 0.  1.
    9000005    2    1    2  501    0 -0.16593445769E+02 -0.10761485421E+02 -0.96316214129E+03  0.98621938441E+03  0.21108342369E+03 0.  0.
         13    1    3    3    0    0  0.52970962912E+02 -0.78822004207E+02 -0.68439416238E+03  0.69095166312E+03  0.00000000000E+00 0.  1.
          3    1    3    3  501    0 -0.69564408681E+02  0.68060518786E+02 -0.27876797891E+03  0.29526772129E+03  0.00000000000E+00 0.  1.
         21    1    1    2  502  501  0.16593445769E+02  0.10761485421E+02 -0.21445509366E+02  0.29172964932E+02  0.00000000000E+00 0. -1.
<mgrwt>
<rscale>  1 0.30000000E+03</rscale>
<asrwt>0</asrwt>
<pdfrwt beam="1">  1        1 0.55972297E-01 0.30000000E+03</pdfrwt>
<pdfrwt beam="2">0</pdfrwt>
<totfact> 0.76039472E+01</totfact>
</mgrwt>
</event>
<event>
 6    1  0.1875959E-004  0.3000000E+03  0.7818608E-02  0.1093470E+00
          1   -1    0    0  502    0  0.00000000000E+00  0.00000000000E+00  0.38809661519E+02  0.38809661519E+02  0.00000000000E+00 0.  1.
         13   -1    0    0    0    0 -0.00000000000E+00 -0.00000000000E+00 -0.10000000000E+04  0.10000000000E+04  0.00000000000E+00 0.  1.
    9000005    2    1    2  501    0 -0.45611122406E+02  0.22522418116E+02 -0.91661632503E+03  0.97117478531E+03  0.31687117651E+03 0.  0.
         13    1    3    3    0    0 -0.16258217482E+01  0.83581709942E+02 -0.42417881457E+02  0.93743384836E+02  0.00000000000E+00 0.  1.
          1    1    3    3  501    0 -0.43985300658E+02 -0.61059291826E+02 -0.87419844357E+03  0.87743140047E+03  0.00000000000E+00 0.  1.
         21    1    1    2  502  501  0.45611122406E+02 -0.22522418116E+02 -0.44574013456E+02  0.67634876214E+02  0.00000000000E+00 0.  1.
<mgrwt>
<rscale>  1 0.30000000E+03</rscale>
<asrwt>0</asrwt>
<pdfrwt beam="1">  1        1 0.14112634E+00 0.30000000E+03</pdfrwt>
<pdfrwt beam="2">0</pdfrwt>
<totfact> 0.19959451E+01</totfact>
</mgrwt>
</event>
<event>
 6    1  0.1875959E-004  0.3000000E+03  0.7818608E-02  0.1093470E+00
          1   -1    0    0  502    0  0.00000000000E+00  0.00000000000E+00  0.36078106118E+02  0.36078106118E+02  0.00000000000E+00 0.  1.
         13   -1    0    0    0    0 -0.00000000000E+00 -0.00000000000E+00 -0.10000000000E+04  0.10000000000E+04  0.00000000000E+00 0.  1.
    9000005    2    1    2  501    0  0.33157655872E+01 -0.10590254208E+02 -0.96949607951E+03  0.10236595985E+04  0.32837962433E+03 0.  0.
         13    1    3    3    0    0  0.15527541311E+03 -0.28977468559E+02 -0.32658554520E+03  0.36277853566E+03  0.00000000000E+00 0.  1.
          3    1    3    3  501    0 -0.15195964752E+03  0.18387214350E+02 -0.64291053430E+03  0.66088106286E+03  0.00000000000E+00 0.  1.
         21    1    1    2  502  501 -0.33157655872E+01  0.10590254208E+02  0.55741856232E+01  0.12418507599E+02  0.00000000000E+00 0. -1.
<mgrwt>
<rscale>  1 0.30000000E+03</rscale>
<asrwt>0</asrwt>
<pdfrwt beam="1">  1        1 0.13119339E+00 0.30000000E+03</pdfrwt>
<pdfrwt beam="2">0</pdfrwt>
<totfact> 0.22540765E+01</totfact>
</mgrwt>
</event>
<event>
 6    1  0.1875959E-004  0.3000000E+03  0.7818608E-02  0.1093470E+00
          1   -1    0    0  502    0  0.00000000000E+00  0.00000000000E+00  0.24055310119E+02  0.24055310119E+02  0.00000000000E+00 0.  1.
         13   -1    0    0    0    0 -0.00000000000E+00 -0.00000000000E+00 -0.10000000000E+04  0.10000000000E+04  0.00000000000E+00 0.  1.
    9000005    2    1    2  501    0 -0.16922543935E+02  0.15707672523E+02 -0.86030327350E+03  0.90613143361E+03  0.28358305503E+03 0.  0.
         13    1    3    3    0    0  0.99463275465E+02  0.62374055554E+02 -0.65595180720E+03  0.66637544924E+03  0.00000000000E+00 0.  1.
          1    1    3    3  501    0 -0.11638581940E+03 -0.46666383031E+02 -0.20435146630E+03  0.23975598437E+03  0.00000000000E+00 0.  1.
         21    1    1    2  502  501  0.16922543935E+02 -0.15707672523E+02 -0.11564141638E+03  0.11792387651E+03  0.00000000000E+00 0.  1.
<mgrwt>
<rscale>  1 0.30000000E+03</rscale>
<asrwt>0</asrwt>
<pdfrwt beam="1">  1        1 0.87474039E-01 0.30000000E+03</pdfrwt>
<pdfrwt beam="2">0</pdfrwt>
<totfact> 0.41466003E+01</totfact>
</mgrwt>
</event>
<event>
 6    1  0.1875959E-004  0.3000000E+03  0.7818608E-02  0.1093470E+00
          1   -1    0    0  502    0  0.00000000000E+00  0.00000000000E+00  0.25776088217E+02  0.25776088217E+02  0.00000000000E+00 0.  1.
         13   -1    0    0    0    0 -0.00000000000E+00 -0.00000000000E+00 -0.10000000000E+04  0.10000000000E+04  0.00000000000E+00 0.  1.
    9000005    2    1    2  501    0  0.73091442589E+01 -0.52782933415E+01 -0.94196164463E+03  0.99227776211E+03  0.31183670927E+03 0.  0.
         13    1    3    3    0    0 -0.80763613125E+02 -0.11147615942E+03 -0.23816725551E+03  0.27508787127E+03  0.00000000000E+00 0.  1.
          1    1    3    3  501    0  0.88072757384E+02  0.10619786608E+03 -0.70379438912E+03  0.71718989083E+03  0.00000000000E+00 0.  1.
         21    1    1    2  502  501 -0.73091442589E+01  0.52782933415E+01 -0.32262267153E+02  0.33498326111E+02  0.00000000000E+00 0. -1.
<mgrwt>
<rscale>  1 0.30000000E+03</rscale>
<asrwt>0</asrwt>
<pdfrwt beam="1">  1        1 0.93731428E-01 0.30000000E+03</pdfrwt>
<pdfrwt beam="2">0</pdfrwt>
<totfact> 0.37590231E+01</totfact>
</mgrwt>
</event>
<event>
 6    1  0.1875959E-004  0.3000000E+03  0.7818608E-02  0.1093470E+00
          1   -1    0    0  502    0  0.00000000000E+00  0.00000000000E+00  0.85799694107E+02  0.85799694107E+02  0.00000000000E+00 0.  1.
         13   -1    0    0    0    0 -0.00000000000E+00 -0.00000000000E+00 -0.10000000000E+04  0.10000000000E+04  0.00000000000E+00 0.  1.
    9000005    2    1    2  501    0 -0.12433473075E+03 -0.16229924625E+02 -0.89450887406E+03  0.95887338395E+03  0.32182216353E+03 0.  0.
         13    1    3    3    0    0 -0.57411957176E+02  0.12968997512E+03 -0.19466166956E+03  0.24085013612E+03  0.00000000000E+00 0.  1.
          3    1    3    3  501    0 -0.66922773574E+02 -0.14591989975E+03 -0.69984720450E+03  0.71802324782E+03  0.00000000000E+00 0.  1.
         21    1    1    2  502  501  0.12433473075E+03  0.16229924625E+02 -0.19691431829E+02  0.12692631016E+03  0.00000000000E+00 0.  1.
<mgrwt>
<rscale>  1 0.30000000E+03</rscale>
<asrwt>0</asrwt>
<pdfrwt beam="1">  1        1 0.31199955E+00 0.30000000E+03</pdfrwt>
<pdfrwt beam="2">0</pdfrwt>
<totfact> 0.30446377E+00</totfact>
</mgrwt>
</event>
<event>
 6    1  0.1875959E-004  0.3000000E+03  0.7818608E-02  0.1093470E+00
          1   -1    0    0  502    0  0.00000000000E+00  0.00000000000E+00  0.37522571607E+02  0.37522571607E+02  0.00000000000E+00 0.  1.
         13   -1    0    0    0    0 -0.00000000000E+00 -0.00000000000E+00 -0.10000000000E+04  0.10000000000E+04  0.00000000000E+00 0.  1.
    9000005    2    1    2  501    0 -0.16413130225E+02  0.11366329581E+02 -0.95207030793E+03  0.10150082995E+04  0.35129103679E+03 0.  0.
         13    1    3    3    0    0 -0.18353808918E+03 -0.45966392766E+01 -0.52072006543E+03  0.55213833938E+03  0.00000000000E+00 0.  1.
          1    1    3    3  501    0  0.16712495895E+03  0.15962968857E+02 -0.43135024250E+03  0.46286996012E+03  0.00000000000E+00 0.  1.
         21    1    1    2  502  501  0.16413130225E+02 -0.11366329581E+02 -0.10407120458E+02  0.22514272099E+02  0.00000000000E+00 0.  1.
<mgrwt>
<rscale>  1 0.30000000E+03</rscale>
<asrwt>0</asrwt>
<pdfrwt beam="1">  1        1 0.13644600E+00 0.30000000E+03</pdfrwt>
<pdfrwt beam="2">0</pdfrwt>
<totfact> 0.21124753E+01</totfact>
</mgrwt>
</event>
<event>
 6    1  0.1875959E-004  0.3000000E+03  0.7818608E-02  0.1093470E+00
          1   -1    0    0  502    0  0.00000000000E+00  0.00000000000E+00  0.62091729607E+02  0.62091729607E+02  0.00000000000E+00 0.  1.
         13   -1    0    0    0    0 -0.00000000000E+00 -0.00000000000E+00 -0.10000000000E+04  0.10000000000E+04  0.00000000000E+00 0.  1.
    9000005    2    1    2  501    0  0.10814589442E+03 -0.90326098211E+02 -0.83669876366E+03  0.88860483457E+03  0.26400642492E+03 0.  0.
         13    1    3    3    0    0  0.68704216228E+02 -0.53715421662E+02 -0.82977675733E+03  0.83434709975E+03  0.00000000000E+00 0.  1.
          1    1    3    3  501    0  0.39441678194E+02 -0.36610676550E+02 -0.69220063355E+01  0.54257734821E+02  0.00000000000E+00 0.  1.
         21    1    1    2  502  501 -0.10814589442E+03  0.90326098211E+02 -0.10120950673E+03  0.17348689504E+03  0.00000000000E+00 0.  1.
<mgrwt>
<rscale>  1 0.30000000E+03</rscale>
<asrwt>0</asrwt>
<pdfrwt beam="1">  1        1 0.22578858E+00 0.30000000E+03</pdfrwt>
<pdfrwt beam="2">0</pdfrwt>
<totfact> 0.77442242E+00</totfact>
</mgrwt>
</event>
<event>
 6    1  0.1875959E-004  0.3000000E+03  0.7818608E-02  0.1093470E+00
          1   -1    0    0  502    0  0.00000000000E+00  0.00000000000E+00  0.32015690001E+02  0.32015690001E+02  0.00000000000E+00 0.  1.
         13   -1    0    0    0    0 -0.00000000000E+00 -0.00000000000E+00 -0.10000000000E+04  0.10000000000E+04  0.00000000000E+00 0.  1.
    9000005    2    1    2  501    0  0.96229291340E+01 -0.72686362416E+01 -0.96919124379E+03  0.10198958498E+04  0.31734908776E+03 0.  0.
         13    1    3    3    0    0  0.12450250811E+02  0.58672667633E+02 -0.12926683876E+02  0.61356253377E+02  0.00000000000E+00 0.  1.
          3    1    3    3  501    0 -0.28273216773E+01 -0.65941303875E+02 -0.95626455992E+03  0.95853959640E+03  0.00000000000E+00 0.  1.
         21    1    1    2  502  501 -0.96229291340E+01  0.72686362416E+01  0.12069337950E+01  0.12119840227E+02  0.00000000000E+00 0.  1.
<mgrwt>
<rscale>  1 0.30000000E+03</rscale>
<asrwt>0</asrwt>
<pdfrwt beam="1">  1        1 0.11642094E+00 0.30000000E+03</pdfrwt>
<pdfrwt beam="2">0</pdfrwt>
<totfact> 0.27246634E+01</totfact>
</mgrwt>
</event>
<event>
 6    1  0.1875959E-004  0.3000000E+03  0.7818608E-02  0.1093470E+00
          3   -1    0    0  502    0  0.00000000000E+00  0.00000000000E+00  0.29379476520E+02  0.29379476520E+02  0.00000000000E+00 0.  1.
         13   -1    0    0    0    0 -0.00000000000E+00 -0.00000000000E+00 -0.10000000000E+04  0.10000000000E+04  0.00000000000E+00 0.  1.
    9000005    2    1    2  501    0  0.10528791851E+02 -0.52634659612E+01 -0.97159648724E+03  0.10175679552E+04  0.30216924035E+03 0.  0.
         13    1    3    3    0    0  0.47842086061E+02  0.11145320975E+03 -0.18323396883E+03  0.21973932396E+03  0.00000000000E+00 0.  1.
          3    1    3    3  501    0 -0.37313294210E+02 -0.11671667572E+03 -0.78836251841E+03  0.79782863119E+03  0.00000000000E+00 0.  1.
         21    1    1    2  502  501 -0.10528791851E+02  0.52634659612E+01  0.97596375589E+00  0.11811521368E+02  0.00000000000E+00 0.  1.
<mgrwt>
<rscale>  1 0.30000000E+03</rscale>
<asrwt>0</asrwt>
<pdfrwt beam="1">  1        3 0.10683469E+00 0.30000000E+03</pdfrwt>
<pdfrwt beam="2">0</pdfrwt>
<totfact> 0.32744858E+00</totfact>
</mgrwt>
</event>
<event>
 6    1  0.1875959E-004  0.3000000E+03  0.7818608E-02  0.1093470E+00
          1   -1    0    0  502    0  0.00000000000E+00  0.00000000000E+00  0.34631862326E+02  0.34631862326E+02  0.00000000000E+00 0.  1.
         13   -1    0    0    0    0 -0.00000000000E+00 -0.00000000000E+00 -0.10000000000E+04  0.10000000000E+04  0.00000000000E+00 0.  1.
    9000005    2    1    2  501    0 -0.12577317023E+02 -0.13480206192E+01 -0.96768466609E+03  0.10217721435E+04  0.32778757493E+03 0.  0.
         13    1    3    3    0    0 -0.16320918028E+03  0.31598351460E+02 -0.61045293394E+03  0.63268355194E+03  0.00000000000E+00 0.  1.
          3    1    3    3  501    0  0.15063186326E+03 -0.32946372079E+02 -0.35723173216E+03  0.38908859161E+03  0.00000000000E+00 0.  1.
         21    1    1    2  502  501  0.12577317023E+02  0.13480206192E+01  0.23165284193E+01  0.12859718776E+02  0.00000000000E+00 0. -1.
<mgrwt>
<rscale>  1 0.30000000E+03</rscale>
<asrwt>0</asrwt>
<pdfrwt beam="1">  1        1 0.12593431E+00 0.30000000E+03</pdfrwt>
<pdfrwt beam="2">0</pdfrwt>
<totfact> 0.24085453E+01</totfact>
</mgrwt>
</event>
<event>
 6    1  0.1875959E-004  0.3000000E+03  0.7818608E-02  0.1093470E+00
          1   -1    0    0  502    0  0.00000000000E+00  0.00000000000E+00  0.27077880947E+02  0.27077880947E+02  0.00000000000E+00 0.  1.
         13   -1    0    0    0    0 -0.00000000000E+00 -0.00000000000E+00 -0.10000000000E+04  0.10000000000E+04  0.00000000000E+00 0.  1.
    9000005    2    1    2  501    0 -0.65830523235E+01 -0.59875623558E+01 -0.95202132704E+03  0.10043615743E+04  0.31987243913E+03 0.  0.
         13    1    3    3    0    0 -0.84837453496E+02 -0.13258207823E+03 -0.63387000553E+03  0.65312065110E+03  0.00000000000E+00 0.  1.
          1    1    3    3  501    0  0.78254401172E+02  0.12659451587E+03 -0.31815132151E+03  0.35124092320E+03  0.00000000000E+00 0.  1.
         21    1    1    2  502  501  0.65830523235E+01  0.59875623558E+01 -0.20900792014E+02  0.22716306647E+02  0.00000000000E+00 0. -1.
<mgrwt>
<rscale>  1 0.30000000E+03</rscale>
<asrwt>0</asrwt>
<pdfrwt beam="1">  1        1 0.98465229E-01 0.30000000E+03</pdfrwt>
<pdfrwt beam="2">0</pdfrwt>
<totfact> 0.35007895E+01</totfact>
</mgrwt>
</event>
<event>
 6    1  0.1875959E-004  0.3000000E+03  0.7818608E-02  0.1093470E+00
          1   -1    0    0  502    0  0.00000000000E+00  0.00000000000E+00  0.36450065345E+02  0.36450065345E+02  0.00000000000E+00 0.  1.
         13   -1    0    0    0    0 -0.00000000000E+00 -0.00000000000E+00 -0.10000000000E+04  0.10000000000E+04  0.00000000000E+00 0.  1.
    9000005    2    1    2  501    0  0.24709281454E+02  0.84014465500E+01 -0.94575899125E+03  0.10048644585E+04  0.33854302161E+03 0.  0.
         13    1    3    3    0    0  0.90388383291E+02 -0.13897861854E+03 -0.61340335018E+03  0.63541229627E+03  0.00000000000E+00 0.  1.
          1    1    3    3  501    0 -0.65679101837E+02  0.14738006509E+03 -0.33235564107E+03  0.36945216220E+03  0.00000000000E+00 0.  1.
         21    1    1    2  502  501 -0.24709281454E+02 -0.84014465500E+01 -0.17790943407E+02  0.31585606871E+02  0.00000000000E+00 0.  1.
<mgrwt>
<rscale>  1 0.30000000E+03</rscale>
<asrwt>0</asrwt>
<pdfrwt beam="1">  1        1 0.13254597E+00 0.30000000E+03</pdfrwt>
<pdfrwt beam="2">0</pdfrwt>
<totfact> 0.22164427E+01</totfact>
</mgrwt>
</event>
<event>
 6    1  0.1875959E-004  0.3000000E+03  0.7818608E-02  0.1093470E+00
          1   -1    0    0  502    0  0.00000000000E+00  0.00000000000E+00  0.39016304368E+02  0.39016304368E+02  0.00000000000E+00 0.  1.
         13   -1    0    0    0    0 -0.00000000000E+00 -0.00000000000E+00 -0.10000000000E+04  0.10000000000E+04  0.00000000000E+00 0.  1.
    9000005    2    1    2  501    0 -0.24198936547E+02 -0.41932106552E+01 -0.93837153064E+03  0.10056324527E+04  0.36076630787E+03 0.  0.
         13    1    3    3    0    0 -0.10556544407E+03  0.12293125579E+03 -0.22992264311E+03  0.28128380409E+03  0.00000000000E+00 0.  1.
          1    1    3    3  501    0  0.81366507525E+02 -0.12712446644E+03 -0.70844888753E+03  0.72434864862E+03  0.00000000000E+00 0.  1.
         21    1    1    2  502  501  0.24198936547E+02  0.41932106552E+01 -0.22612164996E+02  0.33383851656E+02  0.00000000000E+00 0.  1.
<mgrwt>
<rscale>  1 0.30000000E+03</rscale>
<asrwt>0</asrwt>
<pdfrwt beam="1">  1        1 0.14187777E+00 0.30000000E+03</pdfrwt>
<pdfrwt beam="2">0</pdfrwt>
<totfact> 0.19780062E+01</totfact>
</mgrwt>
</event>
<event>
 6    1  0.1875959E-004  0.3000000E+03  0.7818608E-02  0.1093470E+00
          1   -1    0    0  502    0  0.00000000000E+00  0.00000000000E+00  0.30734849662E+02  0.30734849662E+02  0.00000000000E+00 0.  1.
         13   -1    0    0    0    0 -0.00000000000E+00 -0.00000000000E+00 -0.10000000000E+04  0.10000000000E+04  0.00000000000E+00 0.  1.
    9000005    2    1    2  501    0 -0.41748862683E+01 -0.17803244237E+02 -0.94639511947E+03  0.10014530551E+04  0.32697112141E+03 0.  0.
         13    1    3    3    0    0  0.44078625195E+02 -0.16592297376E+03 -0.49029573746E+03  0.51948365575E+03  0.00000000000E+00 0.  1.
          1    1    3    3  501    0 -0.48253511463E+02  0.14811972952E+03 -0.45609938201E+03  0.48196939935E+03  0.00000000000E+00 0.  1.
         21    1    1    2  502  501  0.41748862683E+01  0.17803244237E+02 -0.22870030869E+02  0.29281794560E+02  0.00000000000E+00 0. -1.
<mgrwt>
<rscale>  1 0.30000000E+03</rscale>
<asrwt>0</asrwt>
<pdfrwt beam="1">  1        1 0.11176333E+00 0.30000000E+03</pdfrwt>
<pdfrwt beam="2">0</pdfrwt>
<totfact> 0.29002803E+01</totfact>
</mgrwt>
</event>
<event>
 6    1  0.1875959E-004  0.3000000E+03  0.7818608E-02  0.1093470E+00
          1   -1    0    0  502    0  0.00000000000E+00  0.00000000000E+00  0.28928822992E+02  0.28928822992E+02  0.00000000000E+00 0.  1.
         13   -1    0    0    0    0 -0.00000000000E+00 -0.00000000000E+00 -0.10000000000E+04  0.10000000000E+04  0.00000000000E+00 0.  1.
    9000005    2    1    2  501    0  0.79427829589E+00 -0.10228673190E+02 -0.96921340936E+03  0.10185025133E+04  0.31283778556E+03 0.  0.
         13    1    3    3    0    0  0.14906936837E+03 -0.40185829395E+01 -0.32750936545E+03  0.35986137616E+03  0.00000000000E+00 0.  1.
          1    1    3    3  501    0 -0.14827509007E+03 -0.62100902509E+01 -0.64170404391E+03  0.65864113714E+03  0.00000000000E+00 0.  1.
         21    1    1    2  502  501 -0.79427829589E+00  0.10228673190E+02 -0.18577676465E+01  0.10426309696E+02  0.00000000000E+00 0. -1.
<mgrwt>
<rscale>  1 0.30000000E+03</rscale>
<asrwt>0</asrwt>
<pdfrwt beam="1">  1        1 0.10519594E+00 0.30000000E+03</pdfrwt>
<pdfrwt beam="2">0</pdfrwt>
<totfact> 0.31764621E+01</totfact>
</mgrwt>
</event>
<event>
 6    1  0.1875959E-004  0.3000000E+03  0.7818608E-02  0.1093470E+00
          1   -1    0    0  502    0  0.00000000000E+00  0.00000000000E+00  0.31030423237E+02  0.31030423237E+02  0.00000000000E+00 0.  1.
         13   -1    0    0    0    0 -0.00000000000E+00 -0.00000000000E+00 -0.10000000000E+04  0.10000000000E+04  0.00000000000E+00 0.  1.
    9000005    2    1    2  501    0 -0.11844124745E+02  0.21993085189E+02 -0.89665740263E+03  0.95452532788E+03  0.32634356864E+03 0.  0.
         13    1    3    3    0    0 -0.22773786878E+02  0.71634670944E+02 -0.21900815376E+02  0.78293148896E+02  0.00000000000E+00 0.  1.
          1    1    3    3  501    0  0.10929662133E+02 -0.49641585755E+02 -0.87475658725E+03  0.87623217899E+03  0.00000000000E+00 0.  1.
         21    1    1    2  502  501  0.11844124745E+02 -0.21993085189E+02 -0.72312174135E+02  0.76505095354E+02  0.00000000000E+00 0.  1.
<mgrwt>
<rscale>  1 0.30000000E+03</rscale>
<asrwt>0</asrwt>
<pdfrwt beam="1">  1        1 0.11283814E+00 0.30000000E+03</pdfrwt>
<pdfrwt beam="2">0</pdfrwt>
<totfact> 0.28583588E+01</totfact>
</mgrwt>
</event>
<event>
 6    1  0.1875959E-004  0.3000000E+03  0.7818608E-02  0.1093470E+00
          1   -1    0    0  502    0  0.00000000000E+00  0.00000000000E+00  0.49782711393E+02  0.49782711393E+02  0.00000000000E+00 0.  1.
         13   -1    0    0    0    0 -0.00000000000E+00 -0.00000000000E+00 -0.10000000000E+04  0.10000000000E+04  0.00000000000E+00 0.  1.
    9000005    2    1    2  501    0 -0.34608694627E+02 -0.17254910021E+01 -0.95368107905E+03  0.10149583391E+04  0.34558948257E+03 0.  0.
         13    1    3    3    0    0  0.62424668989E+02 -0.69976771368E+02 -0.85645782904E+03  0.86157623038E+03  0.00000000000E+00 0.  1.
          3    1    3    3  501    0 -0.97033363616E+02  0.68251280366E+02 -0.97223250008E+02  0.15338210870E+03  0.00000000000E+00 0.  1.
         21    1    1    2  502  501  0.34608694627E+02  0.17254910021E+01  0.34637904430E+01  0.34824372316E+02  0.00000000000E+00 0.  1.
<mgrwt>
<rscale>  1 0.30000000E+03</rscale>
<asrwt>0</asrwt>
<pdfrwt beam="1">  1        1 0.18102842E+00 0.30000000E+03</pdfrwt>
<pdfrwt beam="2">0</pdfrwt>
<totfact> 0.12629046E+01</totfact>
</mgrwt>
</event>
<event>
 6    1  0.1875959E-004  0.3000000E+03  0.7818608E-02  0.1093470E+00
          1   -1    0    0  502    0  0.00000000000E+00  0.00000000000E+00  0.27656438891E+02  0.27656438891E+02  0.00000000000E+00 0.  1.
         13   -1    0    0    0    0 -0.00000000000E+00 -0.00000000000E+00 -0.10000000000E+04  0.10000000000E+04  0.00000000000E+00 0.  1.
    9000005    2    1    2  501    0  0.10876264205E+01 -0.95197520249E+01 -0.95224819698E+03  0.10053936388E+04  0.32240957122E+03 0.  0.
         13    1    3    3    0    0 -0.25009794905E+02  0.15356152972E+03 -0.51524461696E+03  0.53822267562E+03  0.00000000000E+00 0.  1.
          1    1    3    3  501    0  0.26097421325E+02 -0.16308128174E+03 -0.43700358002E+03  0.46717096314E+03  0.00000000000E+00 0.  1.
         21    1    1    2  502  501 -0.10876264205E+01  0.95197520249E+01 -0.20095364130E+02  0.22262800124E+02  0.00000000000E+00 0. -1.
<mgrwt>
<rscale>  1 0.30000000E+03</rscale>
<asrwt>0</asrwt>
<pdfrwt beam="1">  1        1 0.10056908E+00 0.30000000E+03</pdfrwt>
<pdfrwt beam="2">0</pdfrwt>
<totfact> 0.33943896E+01</totfact>
</mgrwt>
</event>
<event>
 6    1  0.1875959E-004  0.3000000E+03  0.7818608E-02  0.1093470E+00
          1   -1    0    0  502    0  0.00000000000E+00  0.00000000000E+00  0.35009586952E+02  0.35009586952E+02  0.00000000000E+00 0.  1.
         13   -1    0    0    0    0 -0.00000000000E+00 -0.00000000000E+00 -0.10000000000E+04  0.10000000000E+04  0.00000000000E+00 0.  1.
    9000005    2    1    2  501    0 -0.18134301656E+02 -0.29117409058E+02 -0.93571943800E+03  0.98991561411E+03  0.32122481223E+03 0.  0.
         13    1    3    3    0    0  0.14575209991E+03  0.14300234725E+02 -0.33251079773E+03  0.36333400880E+03  0.00000000000E+00 0.  1.
          1    1    3    3  501    0 -0.16388640157E+03 -0.43417643783E+02 -0.60320864027E+03  0.62658160531E+03  0.00000000000E+00 0.  1.
         21    1    1    2  502  501  0.18134301656E+02  0.29117409058E+02 -0.29270975044E+02  0.45093972844E+02  0.00000000000E+00 0.  1.
<mgrwt>
<rscale>  1 0.30000000E+03</rscale>
<asrwt>0</asrwt>
<pdfrwt beam="1">  1        1 0.12730786E+00 0.30000000E+03</pdfrwt>
<pdfrwt beam="2">0</pdfrwt>
<totfact> 0.23669190E+01</totfact>
</mgrwt>
</event>
<event>
 6    1  0.1875959E-004  0.3000000E+03  0.7818608E-02  0.1093470E+00
          1   -1    0    0  502    0  0.00000000000E+00  0.00000000000E+00  0.37995512980E+02  0.37995512980E+02  0.00000000000E+00 0.  1.
         13   -1    0    0    0    0 -0.00000000000E+00 -0.00000000000E+00 -0.10000000000E+04  0.10000000000E+04  0.00000000000E+00 0.  1.
    9000005    2    1    2  501    0  0.21360050649E+02 -0.17911055181E+02 -0.95492498610E+03  0.10092348281E+04  0.32541688879E+03 0.  0.
         13    1    3    3    0    0 -0.74218903855E+02 -0.93682121313E+02 -0.13507133829E+03  0.18035812144E+03  0.00000000000E+00 0.  1.
          3    1    3    3  501    0  0.95578954505E+02  0.75771066132E+02 -0.81985364782E+03  0.82887670666E+03  0.00000000000E+00 0.  1.
         21    1    1    2  502  501 -0.21360050649E+02  0.17911055181E+02 -0.70795009151E+01  0.28760684878E+02  0.00000000000E+00 0.  1.
<mgrwt>
<rscale>  1 0.30000000E+03</rscale>
<asrwt>0</asrwt>
<pdfrwt beam="1">  1        1 0.13816579E+00 0.30000000E+03</pdfrwt>
<pdfrwt beam="2">0</pdfrwt>
<totfact> 0.20686703E+01</totfact>
</mgrwt>
</event>
<event>
 6    1  0.1875959E-004  0.3000000E+03  0.7818608E-02  0.1093470E+00
          1   -1    0    0  502    0  0.00000000000E+00  0.00000000000E+00  0.29208532831E+02  0.29208532831E+02  0.00000000000E+00 0.  1.
         13   -1    0    0    0    0 -0.00000000000E+00 -0.00000000000E+00 -0.10000000000E+04  0.10000000000E+04  0.00000000000E+00 0.  1.
    9000005    2    1    2  501    0 -0.78058769695E+01 -0.13960944806E+02 -0.94553114061E+03  0.99930997445E+03  0.32300998048E+03 0.  0.
         13    1    3    3    0    0 -0.26579601602E+02 -0.64095797951E+02 -0.19974154902E+02  0.72206048226E+02  0.00000000000E+00 0.  1.
          1    1    3    3  501    0  0.18773724632E+02  0.50134853146E+02 -0.92555698571E+03  0.92710392623E+03  0.00000000000E+00 0.  1.
         21    1    1    2  502  501  0.78058769695E+01  0.13960944806E+02 -0.25260326561E+02  0.29898558379E+02  0.00000000000E+00 0. -1.
<mgrwt>
<rscale>  1 0.30000000E+03</rscale>
<asrwt>0</asrwt>
<pdfrwt beam="1">  1        1 0.10621307E+00 0.30000000E+03</pdfrwt>
<pdfrwt beam="2">0</pdfrwt>
<totfact> 0.31312875E+01</totfact>
</mgrwt>
</event>
<event>
 6    1  0.1875959E-004  0.3000000E+03  0.7818608E-02  0.1093470E+00
          1   -1    0    0  502    0  0.00000000000E+00  0.00000000000E+00  0.40542619858E+02  0.40542619858E+02  0.00000000000E+00 0.  1.
         13   -1    0    0    0    0 -0.00000000000E+00 -0.00000000000E+00 -0.10000000000E+04  0.10000000000E+04  0.00000000000E+00 0.  1.
    9000005    2    1    2  501    0  0.35461016359E+02 -0.14582649017E+02 -0.94522668889E+03  0.99964457703E+03  0.32305672825E+03 0.  0.
         13    1    3    3    0    0 -0.87262652905E+02  0.37955101479E+02 -0.80406488105E+02  0.12458155421E+03  0.00000000000E+00 0.  1.
          1    1    3    3  501    0  0.12272366926E+03 -0.52537750496E+02 -0.86482020078E+03  0.87506302282E+03  0.00000000000E+00 0.  1.
         21    1    1    2  502  501 -0.35461016359E+02  0.14582649017E+02 -0.14230691255E+02  0.40898042828E+02  0.00000000000E+00 0. -1.
<mgrwt>
<rscale>  1 0.30000000E+03</rscale>
<asrwt>0</asrwt>
<pdfrwt beam="1">  1        1 0.14742802E+00 0.30000000E+03</pdfrwt>
<pdfrwt beam="2">0</pdfrwt>
<totfact> 0.18516222E+01</totfact>
</mgrwt>
</event>
<event>
 6    1  0.1875959E-004  0.3000000E+03  0.7818608E-02  0.1093470E+00
          3   -1    0    0  502    0  0.00000000000E+00  0.00000000000E+00  0.33776744824E+02  0.33776744824E+02  0.00000000000E+00 0.  1.
         13   -1    0    0    0    0 -0.00000000000E+00 -0.00000000000E+00 -0.10000000000E+04  0.10000000000E+04  0.00000000000E+00 0.  1.
    9000005    2    1    2  501    0  0.31526393772E+02 -0.24963823021E+02 -0.89745894640E+03  0.95411724366E+03  0.32138769145E+03 0.  0.
         13    1    3    3    0    0  0.27090106570E+02 -0.12397891440E+03 -0.13514997615E+03  0.18539191229E+03  0.00000000000E+00 0.  1.
          3    1    3    3  501    0  0.44362872022E+01  0.99015091379E+02 -0.76230897025E+03  0.76872533137E+03  0.00000000000E+00 0.  1.
         21    1    1    2  502  501 -0.31526393772E+02  0.24963823021E+02 -0.68764308778E+02  0.79659501164E+02  0.00000000000E+00 0.  1.
<mgrwt>
<rscale>  1 0.30000000E+03</rscale>
<asrwt>0</asrwt>
<pdfrwt beam="1">  1        3 0.12282479E+00 0.30000000E+03</pdfrwt>
<pdfrwt beam="2">0</pdfrwt>
<totfact> 0.21447647E+00</totfact>
</mgrwt>
</event>
<event>
 6    1  0.1875959E-004  0.3000000E+03  0.7818608E-02  0.1093470E+00
          1   -1    0    0  502    0  0.00000000000E+00  0.00000000000E+00  0.64952169263E+02  0.64952169263E+02  0.00000000000E+00 0.  1.
         13   -1    0    0    0    0 -0.00000000000E+00 -0.00000000000E+00 -0.10000000000E+04  0.10000000000E+04  0.00000000000E+00 0.  1.
    9000005    2    1    2  501    0  0.18760727170E+02  0.83756860001E+02 -0.88455896624E+03  0.96537153902E+03  0.37700194577E+03 0.  0.
         13    1    3    3    0    0  0.22690942457E+02 -0.14502252539E+03 -0.46309225574E+03  0.48579918595E+03  0.00000000000E+00 0.  1.
          1    1    3    3  501    0 -0.39302152870E+01  0.22877938539E+03 -0.42146671050E+03  0.47957235308E+03  0.00000000000E+00 0.  1.
         21    1    1    2  502  501 -0.18760727170E+02 -0.83756860001E+02 -0.50488864495E+02  0.99580630241E+02  0.00000000000E+00 0.  1.
<mgrwt>
<rscale>  1 0.30000000E+03</rscale>
<asrwt>0</asrwt>
<pdfrwt beam="1">  1        1 0.23619020E+00 0.30000000E+03</pdfrwt>
<pdfrwt beam="2">0</pdfrwt>
<totfact> 0.69227769E+00</totfact>
</mgrwt>
</event>
<event>
 6    1  0.1875959E-004  0.3000000E+03  0.7818608E-02  0.1093470E+00
          1   -1    0    0  502    0  0.00000000000E+00  0.00000000000E+00  0.31969160857E+02  0.31969160857E+02  0.00000000000E+00 0.  1.
         13   -1    0    0    0    0 -0.00000000000E+00 -0.00000000000E+00 -0.10000000000E+04  0.10000000000E+04  0.00000000000E+00 0.  1.
    9000005    2    1    2  501    0 -0.10085531115E+01 -0.24125060764E+02 -0.93382195204E+03  0.99009693028E+03  0.32815462440E+03 0.  0.
         13    1    3    3    0    0 -0.58347618092E+02 -0.97843393577E+02 -0.86894702515E+03  0.87638273986E+03  0.00000000000E+00 0.  1.
          1    1    3    3  501    0  0.57339064981E+02  0.73718332813E+02 -0.64874926889E+02  0.11371419043E+03  0.00000000000E+00 0.  1.
         21    1    1    2  502  501  0.10085531115E+01  0.24125060764E+02 -0.34208887104E+02  0.41872230573E+02  0.00000000000E+00 0. -1.
<mgrwt>
<rscale>  1 0.30000000E+03</rscale>
<asrwt>0</asrwt>
<pdfrwt beam="1">  1        1 0.11625174E+00 0.30000000E+03</pdfrwt>
<pdfrwt beam="2">0</pdfrwt>
<totfact> 0.27307779E+01</totfact>
</mgrwt>
</event>
<event>
 6    1  0.1875959E-004  0.3000000E+03  0.7818608E-02  0.1093470E+00
          1   -1    0    0  502    0  0.00000000000E+00  0.00000000000E+00  0.48691666669E+02  0.48691666669E+02  0.00000000000E+00 0.  1.
         13   -1    0    0    0    0 -0.00000000000E+00 -0.00000000000E+00 -0.10000000000E+04  0.10000000000E+04  0.00000000000E+00 0.  1.
    9000005    2    1    2  501    0  0.12568979027E+01  0.92636826251E+01 -0.93286442427E+03  0.10280138189E+04  0.43184370102E+03 0.  0.
         13    1    3    3    0    0  0.58829459613E+02 -0.18074089998E+03 -0.68256483820E+03  0.70853576946E+03  0.00000000000E+00 0.  1.
          1    1    3    3  501    0 -0.57572561710E+02  0.19000458261E+03 -0.25029958607E+03  0.31947804942E+03  0.00000000000E+00 0.  1.
         21    1    1    2  502  501 -0.12568979027E+01 -0.92636826251E+01 -0.18443909057E+02  0.20677847794E+02  0.00000000000E+00 0. -1.
<mgrwt>
<rscale>  1 0.30000000E+03</rscale>
<asrwt>0</asrwt>
<pdfrwt beam="1">  1        1 0.17706098E+00 0.30000000E+03</pdfrwt>
<pdfrwt beam="2">0</pdfrwt>
<totfact> 0.13200153E+01</totfact>
</mgrwt>
</event>
<event>
 6    1  0.1875959E-004  0.3000000E+03  0.7818608E-02  0.1093470E+00
          1   -1    0    0  502    0  0.00000000000E+00  0.00000000000E+00  0.29669213844E+02  0.29669213844E+02  0.00000000000E+00 0.  1.
         13   -1    0    0    0    0 -0.00000000000E+00 -0.00000000000E+00 -0.10000000000E+04  0.10000000000E+04  0.00000000000E+00 0.  1.
    9000005    2    1    2  501    0 -0.51979526137E+01 -0.15526410115E+02 -0.91525255657E+03  0.97220879706E+03  0.32746696727E+03 0.  0.
         13    1    3    3    0    0 -0.13796694279E+03 -0.72494616399E+02 -0.27725623238E+03  0.31805874474E+03  0.00000000000E+00 0.  1.
          1    1    3    3  501    0  0.13276899017E+03  0.56968206283E+02 -0.63799632419E+03  0.65415005232E+03  0.00000000000E+00 0.  1.
         21    1    1    2  502  501  0.51979526137E+01  0.15526410115E+02 -0.55078229589E+02  0.57460416785E+02  0.00000000000E+00 0. -1.
<mgrwt>
<rscale>  1 0.30000000E+03</rscale>
<asrwt>0</asrwt>
<pdfrwt beam="1">  1        1 0.10788828E+00 0.30000000E+03</pdfrwt>
<pdfrwt beam="2">0</pdfrwt>
<totfact> 0.30588767E+01</totfact>
</mgrwt>
</event>
<event>
 6    1  0.1875959E-004  0.3000000E+03  0.7818608E-02  0.1093470E+00
          1   -1    0    0  502    0  0.00000000000E+00  0.00000000000E+00  0.27474685856E+02  0.27474685856E+02  0.00000000000E+00 0.  1.
         13   -1    0    0    0    0 -0.00000000000E+00 -0.00000000000E+00 -0.10000000000E+04  0.10000000000E+04  0.00000000000E+00 0.  1.
    9000005    2    1    2  501    0  0.87226377875E+01 -0.93294156881E+00 -0.95630066828E+03  0.10090303392E+04  0.32179854334E+03 0.  0.
         13    1    3    3    0    0  0.32024532632E+02  0.80985760907E+02 -0.53472315193E+02  0.10219370163E+03  0.00000000000E+00 0.  1.
          1    1    3    3  501    0 -0.23301894845E+02 -0.81918702476E+02 -0.90282835309E+03  0.90683663758E+03  0.00000000000E+00 0.  1.
         21    1    1    2  502  501 -0.87226377875E+01  0.93294156881E+00 -0.16224645865E+02  0.18444346651E+02  0.00000000000E+00 0.  1.
<mgrwt>
<rscale>  1 0.30000000E+03</rscale>
<asrwt>0</asrwt>
<pdfrwt beam="1">  1        1 0.99908159E-01 0.30000000E+03</pdfrwt>
<pdfrwt beam="2">0</pdfrwt>
<totfact> 0.34272956E+01</totfact>
</mgrwt>
</event>
<event>
 6    1  0.1875959E-004  0.3000000E+03  0.7818608E-02  0.1093470E+00
          1   -1    0    0  502    0  0.00000000000E+00  0.00000000000E+00  0.33394975784E+02  0.33394975784E+02  0.00000000000E+00 0.  1.
         13   -1    0    0    0    0 -0.00000000000E+00 -0.00000000000E+00 -0.10000000000E+04  0.10000000000E+04  0.00000000000E+00 0.  1.
    9000005    2    1    2  501    0  0.15971881455E+02 -0.16117474814E+02 -0.95594609816E+03  0.10083253388E+04  0.31995651638E+03 0.  0.
         13    1    3    3    0    0 -0.11495201002E+03 -0.73161633901E+02 -0.22097815127E+03  0.25961111806E+03  0.00000000000E+00 0.  1.
          3    1    3    3  501    0  0.13092389147E+03  0.57044159087E+02 -0.73496794689E+03  0.74871422078E+03  0.00000000000E+00 0.  1.
         21    1    1    2  502  501 -0.15971881455E+02  0.16117474814E+02 -0.10658926054E+02  0.25069636939E+02  0.00000000000E+00 0. -1.
<mgrwt>
<rscale>  1 0.30000000E+03</rscale>
<asrwt>0</asrwt>
<pdfrwt beam="1">  1        1 0.12143653E+00 0.30000000E+03</pdfrwt>
<pdfrwt beam="2">0</pdfrwt>
<totfact> 0.25515833E+01</totfact>
</mgrwt>
</event>
<event>
 6    1  0.1875959E-004  0.3000000E+03  0.7818608E-02  0.1093470E+00
          1   -1    0    0  502    0  0.00000000000E+00  0.00000000000E+00  0.36762000809E+02  0.36762000809E+02  0.00000000000E+00 0.  1.
         13   -1    0    0    0    0 -0.00000000000E+00 -0.00000000000E+00 -0.10000000000E+04  0.10000000000E+04  0.00000000000E+00 0.  1.
    9000005    2    1    2  501    0  0.72036167369E+02 -0.52632294410E+00 -0.81415669294E+03  0.87118808288E+03  0.30154281399E+03 0.  0.
         13    1    3    3    0    0 -0.78859447327E+02 -0.27448349869E+02 -0.61108010917E+03  0.61675856230E+03  0.00000000000E+00 0.  1.
          1    1    3    3  501    0  0.15089561470E+03  0.26922026925E+02 -0.20307658377E+03  0.25442952058E+03  0.00000000000E+00 0.  1.
         21    1    1    2  502  501 -0.72036167369E+02  0.52632294410E+00 -0.14908130626E+03  0.16557391793E+03  0.00000000000E+00 0.  1.
<mgrwt>
<rscale>  1 0.30000000E+03</rscale>
<asrwt>0</asrwt>
<pdfrwt beam="1">  1        1 0.13368028E+00 0.30000000E+03</pdfrwt>
<pdfrwt beam="2">0</pdfrwt>
<totfact> 0.21855169E+01</totfact>
</mgrwt>
</event>
<event>
 6    1  0.1875959E-004  0.3000000E+03  0.7818608E-02  0.1093470E+00
          1   -1    0    0  502    0  0.00000000000E+00  0.00000000000E+00  0.29511235666E+02  0.29511235666E+02  0.00000000000E+00 0.  1.
         13   -1    0    0    0    0 -0.00000000000E+00 -0.00000000000E+00 -0.10000000000E+04  0.10000000000E+04  0.00000000000E+00 0.  1.
    9000005    2    1    2  501    0  0.11721508444E+02 -0.26683965603E+01 -0.94972542128E+03  0.10055189345E+04  0.33006883784E+03 0.  0.
         13    1    3    3    0    0 -0.55511432864E+02 -0.11117749893E+03 -0.79628627389E+03  0.80592418095E+03  0.00000000000E+00 0.  1.
          3    1    3    3  501    0  0.67232941308E+02  0.10850910237E+03 -0.15343914739E+03  0.19959475355E+03  0.00000000000E+00 0.  1.
         21    1    1    2  502  501 -0.11721508444E+02  0.26683965603E+01 -0.20763343057E+02  0.23992301168E+02  0.00000000000E+00 0. -1.
<mgrwt>
<rscale>  1 0.30000000E+03</rscale>
<asrwt>0</asrwt>
<pdfrwt beam="1">  1        1 0.10731381E+00 0.30000000E+03</pdfrwt>
<pdfrwt beam="2">0</pdfrwt>
<totfact> 0.30834347E+01</totfact>
</mgrwt>
</event>
<event>
 6    1  0.1875959E-004  0.3000000E+03  0.7818608E-02  0.1093470E+00
          1   -1    0    0  502    0  0.00000000000E+00  0.00000000000E+00  0.28372873271E+02  0.28372873271E+02  0.00000000000E+00 0.  1.
         13   -1    0    0    0    0 -0.00000000000E+00 -0.00000000000E+00 -0.10000000000E+04  0.10000000000E+04  0.00000000000E+00 0.  1.
    9000005    2    1    2  501    0 -0.94887836196E+01  0.36830559321E+01 -0.96277365916E+03  0.10148826619E+04  0.32085837481E+03 0.  0.
         13    1    3    3    0    0 -0.11551271147E+03 -0.54500572531E+01 -0.12465292852E+03  0.17003306215E+03  0.00000000000E+00 0.  1.
          3    1    3    3  501    0  0.10602392785E+03  0.91331131851E+01 -0.83812073063E+03  0.84484959972E+03  0.00000000000E+00 0.  1.
         21    1    1    2  502  501  0.94887836196E+01 -0.36830559321E+01 -0.88534675701E+01  0.13490211399E+02  0.00000000000E+00 0.  1.
<mgrwt>
<rscale>  1 0.30000000E+03</rscale>
<asrwt>0</asrwt>
<pdfrwt beam="1">  1        1 0.10317430E+00 0.30000000E+03</pdfrwt>
<pdfrwt beam="2">0</pdfrwt>
<totfact> 0.32690962E+01</totfact>
</mgrwt>
</event>
<event>
 6    1  0.1875959E-004  0.3000000E+03  0.7818608E-02  0.1093470E+00
          3   -1    0    0  502    0  0.00000000000E+00  0.00000000000E+00  0.27507755332E+02  0.27507755332E+02  0.00000000000E+00 0.  1.
         13   -1    0    0    0    0 -0.00000000000E+00 -0.00000000000E+00 -0.10000000000E+04  0.10000000000E+04  0.00000000000E+00 0.  1.
    9000005    2    1    2  501    0 -0.11722105333E+02  0.13847215249E+01 -0.94372081359E+03  0.99640919502E+03  0.31950427964E+03 0.  0.
         13    1    3    3    0    0  0.30788123367E+02  0.42625562483E+02 -0.17839294796E+01  0.52612066314E+02  0.00000000000E+00 0.  1.
          3    1    3    3  501    0 -0.42510228700E+02 -0.41240840958E+02 -0.94193688411E+03  0.94379712870E+03  0.00000000000E+00 0.  1.
         21    1    1    2  502  501  0.11722105333E+02 -0.13847215249E+01 -0.28771431081E+02  0.31098560314E+02  0.00000000000E+00 0.  1.
<mgrwt>
<rscale>  1 0.30000000E+03</rscale>
<asrwt>0</asrwt>
<pdfrwt beam="1">  1        3 0.10002841E+00 0.30000000E+03</pdfrwt>
<pdfrwt beam="2">0</pdfrwt>
<totfact> 0.39141380E+00</totfact>
</mgrwt>
</event>
<event>
 6    1  0.1875959E-004  0.3000000E+03  0.7818608E-02  0.1093470E+00
          1   -1    0    0  502    0  0.00000000000E+00  0.00000000000E+00  0.84441756749E+02  0.84441756749E+02  0.00000000000E+00 0.  1.
         13   -1    0    0    0    0 -0.00000000000E+00 -0.00000000000E+00 -0.10000000000E+04  0.10000000000E+04  0.00000000000E+00 0.  1.
    9000005    2    1    2  501    0  0.34724872625E+02 -0.99275114061E+01 -0.96873986364E+03  0.10201560118E+04  0.31773730134E+03 0.  0.
         13    1    3    3    0    0 -0.22673139320E+02  0.10684913417E+03 -0.79822888732E+03  0.80566752775E+03  0.00000000000E+00 0.  1.
          1    1    3    3  501    0  0.57398011945E+02 -0.11677664557E+03 -0.17051097632E+03  0.21448848400E+03  0.00000000000E+00 0.  1.
         21    1    1    2  502  501 -0.34724872625E+02  0.99275114061E+01  0.53181620389E+02  0.64285744989E+02  0.00000000000E+00 0.  1.
<mgrwt>
<rscale>  1 0.30000000E+03</rscale>
<asrwt>0</asrwt>
<pdfrwt beam="1">  1        1 0.30706158E+00 0.30000000E+03</pdfrwt>
<pdfrwt beam="2">0</pdfrwt>
<totfact> 0.32154885E+00</totfact>
</mgrwt>
</event>
<event>
 6    1  0.1875959E-004  0.3000000E+03  0.7818608E-02  0.1093470E+00
          1   -1    0    0  502    0  0.00000000000E+00  0.00000000000E+00  0.34880285100E+02  0.34880285100E+02  0.00000000000E+00 0.  1.
         13   -1    0    0    0    0 -0.00000000000E+00 -0.00000000000E+00 -0.10000000000E+04  0.10000000000E+04  0.00000000000E+00 0.  1.
    9000005    2    1    2  501    0  0.14020337551E+02 -0.15304788935E+02 -0.95890107594E+03  0.10132128464E+04  0.32661627676E+03 0.  0.
         13    1    3    3    0    0  0.47923004139E+02  0.30634757663E+02 -0.44458504340E+01  0.57051452996E+02  0.00000000000E+00 0.  1.
          1    1    3    3  501    0 -0.33902666589E+02 -0.45939546598E+02 -0.95445522550E+03  0.95616139340E+03  0.00000000000E+00 0.  1.
         21    1    1    2  502  501 -0.14020337551E+02  0.15304788935E+02 -0.62186389639E+01  0.21667438703E+02  0.00000000000E+00 0. -1.
<mgrwt>
<rscale>  1 0.30000000E+03</rscale>
<asrwt>0</asrwt>
<pdfrwt beam="1">  1        1 0.12683767E+00 0.30000000E+03</pdfrwt>
<pdfrwt beam="2">0</pdfrwt>
<totfact> 0.23810642E+01</totfact>
</mgrwt>
</event>
<event>
 6    1  0.1875959E-004  0.3000000E+03  0.7818608E-02  0.1093470E+00
          1   -1    0    0  502    0  0.00000000000E+00  0.00000000000E+00  0.67671288047E+02  0.67671288047E+02  0.00000000000E+00 0.  1.
         13   -1    0    0    0    0 -0.00000000000E+00 -0.00000000000E+00 -0.10000000000E+04  0.10000000000E+04  0.00000000000E+00 0.  1.
    9000005    2    1    2  501    0  0.48996145038E+02 -0.45220366185E+02 -0.94584799334E+03  0.99963986358E+03  0.31655319711E+03 0.  0.
         13    1    3    3    0    0  0.16166923362E+02 -0.18141578400E+03 -0.49030720857E+03  0.52304322467E+03  0.00000000000E+00 0.  1.
          1    1    3    3  501    0  0.32829221675E+02  0.13619541782E+03 -0.45554078477E+03  0.47659663891E+03  0.00000000000E+00 0.  1.
         21    1    1    2  502  501 -0.48996145038E+02  0.45220366185E+02  0.13519281385E+02  0.68031424471E+02  0.00000000000E+00 0. -1.
<mgrwt>
<rscale>  1 0.30000000E+03</rscale>
<asrwt>0</asrwt>
<pdfrwt beam="1">  1        1 0.24607793E+00 0.30000000E+03</pdfrwt>
<pdfrwt beam="2">0</pdfrwt>
<totfact> 0.62225692E+00</totfact>
</mgrwt>
</event>
<event>
 6    1  0.1875959E-004  0.3000000E+03  0.7818608E-02  0.1093470E+00
          1   -1    0    0  502    0  0.00000000000E+00  0.00000000000E+00  0.30773826520E+02  0.30773826520E+02  0.00000000000E+00 0.  1.
         13   -1    0    0    0    0 -0.00000000000E+00 -0.00000000000E+00 -0.10000000000E+04  0.10000000000E+04  0.00000000000E+00 0.  1.
    9000005    2    1    2  501    0  0.21952403362E+02 -0.11606310259E+02 -0.93351359345E+03  0.98727666772E+03  0.32039190847E+03 0.  0.
         13    1    3    3    0    0  0.15449381381E+03  0.57641535409E+02 -0.38684078333E+03  0.42051953196E+03  0.00000000000E+00 0.  1.
          1    1    3    3  501    0 -0.13254141045E+03 -0.69247845668E+02 -0.54667281012E+03  0.56675713576E+03  0.00000000000E+00 0.  1.
         21    1    1    2  502  501 -0.21952403362E+02  0.11606310259E+02 -0.35712580026E+02  0.43497158796E+02  0.00000000000E+00 0. -1.
<mgrwt>
<rscale>  1 0.30000000E+03</rscale>
<asrwt>0</asrwt>
<pdfrwt beam="1">  1        1 0.11190506E+00 0.30000000E+03</pdfrwt>
<pdfrwt beam="2">0</pdfrwt>
<totfact> 0.28947024E+01</totfact>
</mgrwt>
</event>
<event>
 6    1  0.1875959E-004  0.3000000E+03  0.7818608E-02  0.1093470E+00
          1   -1    0    0  502    0  0.00000000000E+00  0.00000000000E+00  0.30398772295E+02  0.30398772295E+02  0.00000000000E+00 0.  1.
         13   -1    0    0    0    0 -0.00000000000E+00 -0.00000000000E+00 -0.10000000000E+04  0.10000000000E+04  0.00000000000E+00 0.  1.
    9000005    2    1    2  501    0 -0.64193344874E+01 -0.77262700051E+01 -0.96715865433E+03  0.10200610130E+04  0.32407978093E+03 0.  0.
         13    1    3    3    0    0 -0.13113065799E+03 -0.71222375747E+02 -0.26531390378E+03  0.30439997341E+03  0.00000000000E+00 0.  1.
          1    1    3    3  501    0  0.12471132350E+03  0.63496105742E+02 -0.70184475055E+03  0.71566103955E+03  0.00000000000E+00 0.  1.
         21    1    1    2  502  501  0.64193344874E+01  0.77262700051E+01 -0.24425733777E+01  0.10337759339E+02  0.00000000000E+00 0. -1.
<mgrwt>
<rscale>  1 0.30000000E+03</rscale>
<asrwt>0</asrwt>
<pdfrwt beam="1">  1        1 0.11054122E+00 0.30000000E+03</pdfrwt>
<pdfrwt beam="2">0</pdfrwt>
<totfact> 0.29490119E+01</totfact>
</mgrwt>
</event>
<event>
 6    1  0.1875959E-004  0.3000000E+03  0.7818608E-02  0.1093470E+00
          1   -1    0    0  502    0  0.00000000000E+00  0.00000000000E+00  0.32538718473E+02  0.32538718473E+02  0.00000000000E+00 0.  1.
         13   -1    0    0    0    0 -0.00000000000E+00 -0.00000000000E+00 -0.10000000000E+04  0.10000000000E+04  0.00000000000E+00 0.  1.
    9000005    2    1    2  501    0 -0.90692556507E+01  0.40265309099E+01 -0.96808166404E+03  0.10225964238E+04  0.32927628723E+03 0.  0.
         13    1    3    3    0    0  0.12250687229E+03 -0.12892026861E+02 -0.15126625487E+03  0.19507849184E+03  0.00000000000E+00 0.  1.
          3    1    3    3  501    0 -0.13157612794E+03  0.16918557771E+02 -0.81681540917E+03  0.82751793195E+03  0.00000000000E+00 0.  1.
         21    1    1    2  502  501  0.90692556507E+01 -0.40265309099E+01  0.62038251377E+00  0.99422946893E+01  0.00000000000E+00 0.  1.
<mgrwt>
<rscale>  1 0.30000000E+03</rscale>
<asrwt>0</asrwt>
<pdfrwt beam="1">  1        1 0.11832286E+00 0.30000000E+03</pdfrwt>
<pdfrwt beam="2">0</pdfrwt>
<totfact> 0.26572098E+01</totfact>
</mgrwt>
</event>
<event>
 6    1  0.1875959E-004  0.3000000E+03  0.7818608E-02  0.1093470E+00
          1   -1    0    0  502    0  0.00000000000E+00  0.00000000000E+00  0.41860596511E+02  0.41860596511E+02  0.00000000000E+00 0.  1.
         13   -1    0    0    0    0 -0.00000000000E+00 -0.00000000000E+00 -0.10000000000E+04  0.10000000000E+04  0.00000000000E+00 0.  1.
    9000005    2    1    2  501    0  0.68069435798E+01 -0.51459667864E+02 -0.91386874263E+03  0.97363799534E+03  0.33184399244E+03 0.  0.
         13    1    3    3    0    0 -0.11412156608E+03  0.61990471557E+02 -0.64348485042E+03  0.65645967365E+03  0.00000000000E+00 0.  1.
          3    1    3    3  501    0  0.12092850966E+03 -0.11345013942E+03 -0.27038389221E+03  0.31717832169E+03  0.00000000000E+00 0.  1.
         21    1    1    2  502  501 -0.68069435798E+01  0.51459667864E+02 -0.44270660863E+02  0.68222601173E+02  0.00000000000E+00 0.  1.
<mgrwt>
<rscale>  1 0.30000000E+03</rscale>
<asrwt>0</asrwt>
<pdfrwt beam="1">  1        1 0.15222067E+00 0.30000000E+03</pdfrwt>
<pdfrwt beam="2">0</pdfrwt>
<totfact> 0.17505251E+01</totfact>
</mgrwt>
</event>
<event>
 6    1  0.1875959E-004  0.3000000E+03  0.7818608E-02  0.1093470E+00
          1   -1    0    0  502    0  0.00000000000E+00  0.00000000000E+00  0.43456887952E+02  0.43456887952E+02  0.00000000000E+00 0.  1.
         13   -1    0    0    0    0 -0.00000000000E+00 -0.00000000000E+00 -0.10000000000E+04  0.10000000000E+04  0.00000000000E+00 0.  1.
    9000005    2    1    2  501    0  0.89531969081E+01  0.17346856363E+02 -0.96955225818E+03  0.10199981786E+04  0.31620188155E+03 0.  0.
         13    1    3    3    0    0 -0.41629752105E+02  0.25924959954E+02 -0.96740585858E+03  0.96864814821E+03  0.00000000000E+00 0.  1.
          3    1    3    3  501    0  0.50582949013E+02 -0.85781035914E+01 -0.21463995928E+01  0.51350030412E+02  0.00000000000E+00 0.  1.
         21    1    1    2  502  501 -0.89531969081E+01 -0.17346856363E+02  0.13009146127E+02  0.23458709331E+02  0.00000000000E+00 0.  1.
<mgrwt>
<rscale>  1 0.30000000E+03</rscale>
<asrwt>0</asrwt>
<pdfrwt beam="1">  1        1 0.15802538E+00 0.30000000E+03</pdfrwt>
<pdfrwt beam="2">0</pdfrwt>
<totfact> 0.16369333E+01</totfact>
</mgrwt>
</event>
<event>
 6    1  0.1875959E-004  0.3000000E+03  0.7818608E-02  0.1093470E+00
          1   -1    0    0  502    0  0.00000000000E+00  0.00000000000E+00  0.33535055619E+02  0.33535055619E+02  0.00000000000E+00 0.  1.
         13   -1    0    0    0    0 -0.00000000000E+00 -0.00000000000E+00 -0.10000000000E+04  0.10000000000E+04  0.00000000000E+00 0.  1.
    9000005    2    1    2  501    0 -0.99530751889E+01 -0.65663280459E+01 -0.89280960748E+03  0.95892078738E+03  0.34968257163E+03 0.  0.
         13    1    3    3    0    0  0.13596747971E+03  0.22140751703E+02 -0.15982274687E+03  0.21099923896E+03  0.00000000000E+00 0.  1.
          3    1    3    3  501    0 -0.14592055490E+03 -0.28707079749E+02 -0.73298686061E+03  0.74792154842E+03  0.00000000000E+00 0.  1.
         21    1    1    2  502  501  0.99530751889E+01  0.65663280459E+01 -0.73655336905E+02  0.74614268236E+02  0.00000000000E+00 0.  1.
<mgrwt>
<rscale>  1 0.30000000E+03</rscale>
<asrwt>0</asrwt>
<pdfrwt beam="1">  1        1 0.12194591E+00 0.30000000E+03</pdfrwt>
<pdfrwt beam="2">0</pdfrwt>
<totfact> 0.25348389E+01</totfact>
</mgrwt>
</event>
<event>
 6    1  0.1875959E-004  0.3000000E+03  0.7818608E-02  0.1093470E+00
          1   -1    0    0  502    0  0.00000000000E+00  0.00000000000E+00  0.53448757820E+02  0.53448757820E+02  0.00000000000E+00 0.  1.
         13   -1    0    0    0    0 -0.00000000000E+00 -0.00000000000E+00 -0.10000000000E+04  0.10000000000E+04  0.00000000000E+00 0.  1.
    9000005    2    1    2  501    0 -0.28696950262E+02 -0.12269494467E+02 -0.96409010406E+03  0.10176483790E+04  0.32429067062E+03 0.  0.
         13    1    3    3    0    0  0.10486665323E+03 -0.24812758882E+01 -0.10584666204E+03  0.14901908453E+03  0.00000000000E+00 0.  1.
          1    1    3    3  501    0 -0.13356360350E+03 -0.97882185788E+01 -0.85824344202E+03  0.86862929445E+03  0.00000000000E+00 0.  1.
         21    1    1    2  502  501  0.28696950262E+02  0.12269494467E+02  0.17538861881E+02  0.35800378837E+02  0.00000000000E+00 0.  1.
<mgrwt>
<rscale>  1 0.30000000E+03</rscale>
<asrwt>0</asrwt>
<pdfrwt beam="1">  1        1 0.19435953E+00 0.30000000E+03</pdfrwt>
<pdfrwt beam="2">0</pdfrwt>
<totfact> 0.10897211E+01</totfact>
</mgrwt>
</event>
<event>
 6    1  0.1875959E-004  0.3000000E+03  0.7818608E-02  0.1093470E+00
          1   -1    0    0  502    0  0.00000000000E+00  0.00000000000E+00  0.63664391748E+02  0.63664391748E+02  0.00000000000E+00 0.  1.
         13   -1    0    0    0    0 -0.00000000000E+00 -0.00000000000E+00 -0.10000000000E+04  0.10000000000E+04  0.00000000000E+00 0.  1.
    9000005    2    1    2  501    0  0.64863845044E+02 -0.41260477630E+02 -0.92068981584E+03  0.98521353944E+03  0.34214943502E+03 0.  0.
         13    1    3    3    0    0  0.21186934888E+02  0.84152422795E+02 -0.80327912645E+03  0.80795288938E+03  0.00000000000E+00 0.  1.
          1    1    3    3  501    0  0.43676910156E+02 -0.12541290043E+03 -0.11741068939E+03  0.17726065006E+03  0.00000000000E+00 0.  1.
         21    1    1    2  502  501 -0.64863845044E+02  0.41260477630E+02 -0.15645792407E+02  0.78450852310E+02  0.00000000000E+00 0.  1.
<mgrwt>
<rscale>  1 0.30000000E+03</rscale>
<asrwt>0</asrwt>
<pdfrwt beam="1">  1        1 0.23150737E+00 0.30000000E+03</pdfrwt>
<pdfrwt beam="2">0</pdfrwt>
<totfact> 0.72811571E+00</totfact>
</mgrwt>
</event>
<event>
 6    1  0.1875959E-004  0.3000000E+03  0.7818608E-02  0.1093470E+00
          1   -1    0    0  502    0  0.00000000000E+00  0.00000000000E+00  0.63424279748E+02  0.63424279748E+02  0.00000000000E+00 0.  1.
         13   -1    0    0    0    0 -0.00000000000E+00 -0.00000000000E+00 -0.10000000000E+04  0.10000000000E+04  0.00000000000E+00 0.  1.
    9000005    2    1    2  501    0 -0.58965382336E+02 -0.25625356193E+02 -0.94313158357E+03  0.99879801158E+03  0.32243869000E+03 0.  0.
         13    1    3    3    0    0  0.39982229776E+02 -0.14307820854E+03 -0.26802019678E+03  0.30643886558E+03  0.00000000000E+00 0.  1.
          3    1    3    3  501    0 -0.98947612112E+02  0.11745285235E+03 -0.67511138679E+03  0.69235914600E+03  0.00000000000E+00 0.  1.
         21    1    1    2  502  501  0.58965382336E+02  0.25625356193E+02  0.65558633167E+01  0.64626268172E+02  0.00000000000E+00 0.  1.
<mgrwt>
<rscale>  1 0.30000000E+03</rscale>
<asrwt>0</asrwt>
<pdfrwt beam="1">  1        1 0.23063423E+00 0.30000000E+03</pdfrwt>
<pdfrwt beam="2">0</pdfrwt>
<totfact> 0.73499990E+00</totfact>
</mgrwt>
</event>
<event>
 6    1  0.1875959E-004  0.3000000E+03  0.7818608E-02  0.1093470E+00
          1   -1    0    0  502    0  0.00000000000E+00  0.00000000000E+00  0.32699872595E+02  0.32699872595E+02  0.00000000000E+00 0.  1.
         13   -1    0    0    0    0 -0.00000000000E+00 -0.00000000000E+00 -0.10000000000E+04  0.10000000000E+04  0.00000000000E+00 0.  1.
    9000005    2    1    2  501    0  0.12547224249E+02 -0.12867795602E+02 -0.95929017936E+03  0.10130231791E+04  0.32504661224E+03 0.  0.
         13    1    3    3    0    0  0.78503827689E+02  0.53489603967E+02 -0.67972790701E+02  0.11680877095E+03  0.00000000000E+00 0.  1.
          3    1    3    3  501    0 -0.65956603440E+02 -0.66357399569E+02 -0.89131738866E+03  0.89621440813E+03  0.00000000000E+00 0.  1.
         21    1    1    2  502  501 -0.12547224249E+02  0.12867795602E+02 -0.80099480415E+01  0.19676693514E+02  0.00000000000E+00 0. -1.
<mgrwt>
<rscale>  1 0.30000000E+03</rscale>
<asrwt>0</asrwt>
<pdfrwt beam="1">  1        1 0.11890888E+00 0.30000000E+03</pdfrwt>
<pdfrwt beam="2">0</pdfrwt>
<totfact> 0.26368865E+01</totfact>
</mgrwt>
</event>
<event>
 6    1  0.1875959E-004  0.3000000E+03  0.7818608E-02  0.1093470E+00
          1   -1    0    0  502    0  0.00000000000E+00  0.00000000000E+00  0.34614052418E+02  0.34614052418E+02  0.00000000000E+00 0.  1.
         13   -1    0    0    0    0 -0.00000000000E+00 -0.00000000000E+00 -0.10000000000E+04  0.10000000000E+04  0.00000000000E+00 0.  1.
    9000005    2    1    2  501    0  0.66138220444E+01  0.99719605446E+01 -0.96928336017E+03  0.10220294402E+04  0.32386843276E+03 0.  0.
         13    1    3    3    0    0  0.13034977169E+03  0.10522103066E+03 -0.47562212544E+03  0.50426078023E+03  0.00000000000E+00 0.  1.
          3    1    3    3  501    0 -0.12373594965E+03 -0.95249070111E+02 -0.49366123473E+03  0.51776865999E+03  0.00000000000E+00 0.  1.
         21    1    1    2  502  501 -0.66138220444E+01 -0.99719605446E+01  0.38974125914E+01  0.12584612193E+02  0.00000000000E+00 0.  1.
<mgrwt>
<rscale>  1 0.30000000E+03</rscale>
<asrwt>0</asrwt>
<pdfrwt beam="1">  1        1 0.12586955E+00 0.30000000E+03</pdfrwt>
<pdfrwt beam="2">0</pdfrwt>
<totfact> 0.24105310E+01</totfact>
</mgrwt>
</event>
<event>
 6    1  0.1875959E-004  0.3000000E+03  0.7818608E-02  0.1093470E+00
          1   -1    0    0  502    0  0.00000000000E+00  0.00000000000E+00  0.25946098017E+02  0.25946098017E+02  0.00000000000E+00 0.  1.
         13   -1    0    0    0    0 -0.00000000000E+00 -0.00000000000E+00 -0.10000000000E+04  0.10000000000E+04  0.00000000000E+00 0.  1.
    9000005    2    1    2  501    0  0.55351412852E+01 -0.63050290992E+01 -0.95645686537E+03  0.10064513070E+04  0.31315189090E+03 0.  0.
         13    1    3    3    0    0  0.14541524702E+03  0.31324569004E+02 -0.30835257279E+03  0.34235673184E+03  0.00000000000E+00 0.  1.
          1    1    3    3  501    0 -0.13988010574E+03 -0.37629598103E+02 -0.64810429259E+03  0.66409457512E+03  0.00000000000E+00 0.  1.
         21    1    1    2  502  501 -0.55351412852E+01  0.63050290992E+01 -0.17597036611E+02  0.19494791060E+02  0.00000000000E+00 0. -1.
<mgrwt>
<rscale>  1 0.30000000E+03</rscale>
<asrwt>0</asrwt>
<pdfrwt beam="1">  1        1 0.94349646E-01 0.30000000E+03</pdfrwt>
<pdfrwt beam="2">0</pdfrwt>
<totfact> 0.37237178E+01</totfact>
</mgrwt>
</event>
<event>
 6    1  0.1875959E-004  0.3000000E+03  0.7818608E-02  0.1093470E+00
          1   -1    0    0  502    0  0.00000000000E+00  0.00000000000E+00  0.48064820384E+02  0.48064820384E+02  0.00000000000E+00 0.  1.
         13   -1    0    0    0    0 -0.00000000000E+00 -0.00000000000E+00 -0.10000000000E+04  0.10000000000E+04  0.00000000000E+00 0.  1.
    9000005    2    1    2  501    0 -0.45968112005E+01  0.88731870532E+01 -0.97026075330E+03  0.10271916133E+04  0.33707093760E+03 0.  0.
         13    1    3    3    0    0  0.87457405653E+02 -0.95419856283E+02 -0.78456392201E+03  0.79516934957E+03  0.00000000000E+00 0.  1.
          1    1    3    3  501    0 -0.92054216854E+02  0.10429304334E+03 -0.18569683129E+03  0.23202226376E+03  0.00000000000E+00 0.  1.
         21    1    1    2  502  501  0.45968112005E+01 -0.88731870532E+01  0.18325573687E+02  0.20873207052E+02  0.00000000000E+00 0. -1.
<mgrwt>
<rscale>  1 0.30000000E+03</rscale>
<asrwt>0</asrwt>
<pdfrwt beam="1">  1        1 0.17478153E+00 0.30000000E+03</pdfrwt>
<pdfrwt beam="2">0</pdfrwt>
<totfact> 0.13540915E+01</totfact>
</mgrwt>
</event>
