<event>
 6    1  0.4693694E-003  0.6531758E+03  0.7818608E-02  0.9800838E-01
          1   -1    0    0  502    0  0.00000000000E+00  0.00000000000E+00  0.10680629637E+03  0.10680629637E+03  0.00000000000E+00 0.  1.
         13   -1    0    0    0    0 -0.00000000000E+00 -0.00000000000E+00 -0.10000000000E+04  0.10000000000E+04  0.00000000000E+00 0.  1.
    9000005    2    1    2  501    0  0.24912699381E+00  0.27359699506E-01 -0.89321080007E+03  0.11065550891E+04  0.65317575660E+03 0.  0.
         13    1    3    3    0    0  0.84362219258E+02  0.97174760572E+02 -0.95523773754E+03  0.96386671970E+03  0.00000000000E+00 0.  1.
          1    1    3    3  501    0 -0.84113092264E+02 -0.97147400873E+02  0.62026937467E+02  0.14268836939E+03  0.00000000000E+00 0.  1.
         21    1    1    2  502  501 -0.24912699381E+00 -0.27359699506E-01  0.17096443572E-01  0.25120728609E+00  0.00000000000E+00 0. -1.
<mgrwt>
<rscale>  1 0.65317580E+03</rscale>
<asrwt>0</asrwt>
<pdfrwt beam="1">  1        1 0.38838735E+00 0.65317580E+03</pdfrwt>
<pdfrwt beam="2">0</pdfrwt>
<totfact> 0.15057787E+00</totfact>
</mgrwt>
</event>
<event>
 6    1  0.4693694E-003  0.6218110E+03  0.7818608E-02  0.9861161E-01
          1   -1    0    0  502    0  0.00000000000E+00  0.00000000000E+00  0.96662261874E+02  0.96662261874E+02  0.00000000000E+00 0.  1.
         13   -1    0    0    0    0 -0.00000000000E+00 -0.00000000000E+00 -0.10000000000E+04  0.10000000000E+04  0.00000000000E+00 0.  1.
    9000005    2    1    2  501    0  0.20088522490E-05 -0.27326134386E-05 -0.90333775463E+03  0.10966622450E+04  0.62181104906E+03 0.  0.
         13    1    3    3    0    0 -0.24162602486E+03  0.13683327619E+03 -0.20503550390E+03  0.34517537458E+03  0.00000000000E+00 0.  1.
          3    1    3    3  501    0  0.24162602687E+03 -0.13683327892E+03 -0.69830225073E+03  0.75148687044E+03  0.00000000000E+00 0.  1.
         21    1    1    2  502  501 -0.20088522367E-05  0.27326134124E-05  0.16501332910E-04  0.16846265200E-04  0.00000000000E+00 0.  1.
<mgrwt>
<rscale>  1 0.62181105E+03</rscale>
<asrwt>0</asrwt>
<pdfrwt beam="1">  1        1 0.35149988E+00 0.62181105E+03</pdfrwt>
<pdfrwt beam="2">0</pdfrwt>
<totfact> 0.21993003E+00</totfact>
</mgrwt>
</event>
<event>
 6    1  0.4693694E-003  0.6549304E+03  0.7818608E-02  0.9797571E-01
          1   -1    0    0  502    0  0.00000000000E+00  0.00000000000E+00  0.10733127988E+03  0.10733127988E+03  0.00000000000E+00 0.  1.
         13   -1    0    0    0    0 -0.00000000000E+00 -0.00000000000E+00 -0.10000000000E+04  0.10000000000E+04  0.00000000000E+00 0.  1.
    9000005    2    1    2  501    0  0.27432839883E-02  0.32504078243E-02 -0.89276649752E+03  0.11072334100E+04  0.65493038190E+03 0.  0.
         13    1    3    3    0    0  0.24381331514E+03  0.21266112135E+03 -0.53201065130E+03  0.62265963276E+03  0.00000000000E+00 0.  1.
          3    1    3    3  501    0 -0.24381057186E+03 -0.21265787094E+03 -0.36075584622E+03  0.48457377726E+03  0.00000000000E+00 0.  1.
         21    1    1    2  502  501 -0.27432839883E-02 -0.32504078242E-02  0.97777397043E-01  0.97869863240E-01  0.00000000000E+00 0.  1.
<mgrwt>
<rscale>  1 0.65493038E+03</rscale>
<asrwt>0</asrwt>
<pdfrwt beam="1">  1        1 0.39029639E+00 0.65493038E+03</pdfrwt>
<pdfrwt beam="2">0</pdfrwt>
<totfact> 0.14762393E+00</totfact>
</mgrwt>
</event>
<event>
 6    1  0.4693694E-003  0.6557259E+03  0.7818608E-02  0.9796094E-01
          1   -1    0    0  502    0  0.00000000000E+00  0.00000000000E+00  0.10753473016E+03  0.10753473016E+03  0.00000000000E+00 0.  1.
         13   -1    0    0    0    0 -0.00000000000E+00 -0.00000000000E+00 -0.10000000000E+04  0.10000000000E+04  0.00000000000E+00 0.  1.
    9000005    2    1    2  501    0  0.57128425018E-02 -0.19344516606E-02 -0.89250562265E+03  0.11074939291E+04  0.65572594616E+03 0.  0.
         13    1    3    3    0    0  0.19793537969E+03 -0.23115222710E+03 -0.65232245810E+03  0.71981550134E+03  0.00000000000E+00 0.  1.
          1    1    3    3  501    0 -0.19792966684E+03  0.23115029265E+03 -0.24018316455E+03  0.38767842775E+03  0.00000000000E+00 0.  1.
         21    1    1    2  502  501 -0.57128425018E-02  0.19344516606E-02  0.40352807183E-01  0.40801074989E-01  0.00000000000E+00 0.  1.
<mgrwt>
<rscale>  1 0.65572595E+03</rscale>
<asrwt>0</asrwt>
<pdfrwt beam="1">  1        1 0.39103621E+00 0.65572595E+03</pdfrwt>
<pdfrwt beam="2">0</pdfrwt>
<totfact> 0.14649087E+00</totfact>
</mgrwt>
</event>
<event>
 6    1  0.4693694E-003  0.6490069E+03  0.7818608E-02  0.9808644E-01
          1   -1    0    0  502    0  0.00000000000E+00  0.00000000000E+00  0.10532595975E+03  0.10532595975E+03  0.00000000000E+00 0.  1.
         13   -1    0    0    0    0 -0.00000000000E+00 -0.00000000000E+00 -0.10000000000E+04  0.10000000000E+04  0.00000000000E+00 0.  1.
    9000005    2    1    2  501    0  0.53685566675E-02  0.30946082069E-01 -0.89468527776E+03  0.11052926016E+04  0.64900692449E+03 0.  0.
         13    1    3    3    0    0 -0.10873795904E+03  0.30657812922E+02  0.70728886410E+02  0.13329073712E+03  0.00000000000E+00 0.  1.
          3    1    3    3  501    0  0.10874332760E+03 -0.30626866840E+02 -0.96541416417E+03  0.97200186453E+03  0.00000000000E+00 0.  1.
         21    1    1    2  502  501 -0.53685566675E-02 -0.30946082069E-01  0.11237509229E-01  0.33358102611E-01  0.00000000000E+00 0.  1.
<mgrwt>
<rscale>  1 0.64900693E+03</rscale>
<asrwt>0</asrwt>
<pdfrwt beam="1">  1        1 0.38300430E+00 0.64900693E+03</pdfrwt>
<pdfrwt beam="2">0</pdfrwt>
<totfact> 0.15918963E+00</totfact>
</mgrwt>
</event>
<event>
 6    1  0.4693694E-003  0.6549496E+03  0.7818608E-02  0.9797536E-01
          1   -1    0    0  502    0  0.00000000000E+00  0.00000000000E+00  0.10723982220E+03  0.10723982220E+03  0.00000000000E+00 0.  1.
         13   -1    0    0    0    0 -0.00000000000E+00 -0.00000000000E+00 -0.10000000000E+04  0.10000000000E+04  0.00000000000E+00 0.  1.
    9000005    2    1    2  501    0 -0.93968408237E-05  0.16061986230E-06 -0.89276026220E+03  0.11072397373E+04  0.65494957824E+03 0.  0.
         13    1    3    3    0    0 -0.26272463315E+03 -0.16271149162E+03 -0.62955955575E+03  0.70131626005E+03  0.00000000000E+00 0.  1.
          1    1    3    3  501    0  0.26272462375E+03  0.16271149179E+03 -0.26320070645E+03  0.40592347722E+03  0.00000000000E+00 0.  1.
         21    1    1    2  502  501  0.93968408293E-05 -0.16061985575E-06  0.84406718820E-04  0.84928326242E-04  0.00000000000E+00 0.  1.
<mgrwt>
<rscale>  1 0.65494958E+03</rscale>
<asrwt>0</asrwt>
<pdfrwt beam="1">  1        1 0.38996381E+00 0.65494958E+03</pdfrwt>
<pdfrwt beam="2">0</pdfrwt>
<totfact> 0.14812563E+00</totfact>
</mgrwt>
</event>
<event>
 6    1  0.6354025E-003  0.6383878E+03  0.7818608E-02  0.9828816E-01
          1   -1    0    0  502    0  0.00000000000E+00  0.00000000000E+00  0.10188474981E+03  0.10188474981E+03  0.00000000000E+00 0.  1.
         13   -1    0    0    0    0 -0.00000000000E+00 -0.00000000000E+00 -0.10000000000E+04  0.10000000000E+04  0.00000000000E+00 0.  1.
    9000005    2    1    2  501    0  0.73989153293E-06  0.53921212384E-06 -0.89811526474E+03  0.11018847352E+04  0.63838776694E+03 0.  0.
         13    1    3    3    0    0  0.14780777903E+03 -0.21038333915E+03 -0.77553284262E+03  0.81704313161E+03  0.00000000000E+00 0.  1.
          3    1    3    3  501    0 -0.14780777829E+03  0.21038333969E+03 -0.12258242212E+03  0.28484160362E+03  0.00000000000E+00 0.  1.
         21    1    1    2  502  501 -0.73989154241E-06 -0.53921212149E-06  0.14546519192E-04  0.14575301363E-04  0.00000000000E+00 0. -1.
<mgrwt>
<rscale>  1 0.63838777E+03</rscale>
<asrwt>0</asrwt>
<pdfrwt beam="1">  1        1 0.37049078E+00 0.63838777E+03</pdfrwt>
<pdfrwt beam="2">0</pdfrwt>
<totfact> 0.18108752E+00</totfact>
</mgrwt>
</event>
<event>
 6    1  0.4693694E-003  0.6498224E+03  0.7818608E-02  0.9807112E-01
          1   -1    0    0  502    0  0.00000000000E+00  0.00000000000E+00  0.10927043323E+03  0.10927043323E+03  0.00000000000E+00 0.  1.
         13   -1    0    0    0    0 -0.00000000000E+00 -0.00000000000E+00 -0.10000000000E+04  0.10000000000E+04  0.00000000000E+00 0.  1.
    9000005    2    1    2  501    0  0.84223046158E+00 -0.17676081379E+01 -0.89414440746E+03  0.11053340735E+04  0.64981948181E+03 0.  0.
         13    1    3    3    0    0 -0.25128768730E+03 -0.20589420277E+03 -0.47019950875E+03  0.57151159441E+03  0.00000000000E+00 0.  1.
          1    1    3    3  501    0  0.25212991776E+03  0.20412659464E+03 -0.42394489872E+03  0.53382247912E+03  0.00000000000E+00 0.  1.
         21    1    1    2  502  501 -0.84223046158E+00  0.17676081379E+01  0.34148406926E+01  0.39363596933E+01  0.00000000000E+00 0. -1.
<mgrwt>
<rscale>  1 0.64982243E+03</rscale>
<asrwt>0</asrwt>
<pdfrwt beam="1">  1        1 0.39734787E+00 0.64982243E+03</pdfrwt>
<pdfrwt beam="2">0</pdfrwt>
<totfact> 0.13748086E+00</totfact>
</mgrwt>
</event>
<event>
 6    1  0.4693694E-003  0.5092155E+03  0.7818608E-02  0.1011401E+00
          1   -1    0    0  502    0  0.00000000000E+00  0.00000000000E+00  0.64837850835E+02  0.64837850835E+02  0.00000000000E+00 0.  1.
         13   -1    0    0    0    0 -0.00000000000E+00 -0.00000000000E+00 -0.10000000000E+04  0.10000000000E+04  0.00000000000E+00 0.  1.
    9000005    2    1    2  501    0  0.38472203052E-02 -0.13076121523E-01 -0.93517094749E+03  0.10648216275E+04  0.50921547226E+03 0.  0.
         13    1    3    3    0    0 -0.17309137651E+03  0.45786000694E+02 -0.89057599072E+02  0.19997059392E+03  0.00000000000E+00 0.  1.
          1    1    3    3  501    0  0.17309522373E+03 -0.45799076816E+02 -0.84611334841E+03  0.86485103358E+03  0.00000000000E+00 0.  1.
         21    1    1    2  502  501 -0.38472203052E-02  0.13076121523E-01  0.87983213269E-02  0.16223332467E-01  0.00000000000E+00 0. -1.
<mgrwt>
<rscale>  1 0.50921547E+03</rscale>
<asrwt>0</asrwt>
<pdfrwt beam="1">  1        1 0.23577450E+00 0.50921547E+03</pdfrwt>
<pdfrwt beam="2">0</pdfrwt>
<totfact> 0.71143978E+00</totfact>
</mgrwt>
</event>
<event>
 6    1  0.4693694E-003  0.6489856E+03  0.7818608E-02  0.9808684E-01
          1   -1    0    0  502    0  0.00000000000E+00  0.00000000000E+00  0.10529563512E+03  0.10529563512E+03  0.00000000000E+00 0.  1.
         13   -1    0    0    0    0 -0.00000000000E+00 -0.00000000000E+00 -0.10000000000E+04  0.10000000000E+04  0.00000000000E+00 0.  1.
    9000005    2    1    2  501    0 -0.15390764929E-05  0.94922205562E-06 -0.89470441297E+03  0.11052955870E+04  0.64898563007E+03 0.  0.
         13    1    3    3    0    0  0.15768902586E+03  0.25717292590E+03 -0.65095676336E+03  0.71745972044E+03  0.00000000000E+00 0.  1.
          3    1    3    3  501    0 -0.15768902740E+03 -0.25717292495E+03 -0.24374764961E+03  0.38783586655E+03  0.00000000000E+00 0.  1.
         21    1    1    2  502  501  0.15390764725E-05 -0.94922208552E-06  0.48088376638E-04  0.48122362230E-04  0.00000000000E+00 0.  1.
<mgrwt>
<rscale>  1 0.64898563E+03</rscale>
<asrwt>0</asrwt>
<pdfrwt beam="1">  1        1 0.38289403E+00 0.64898563E+03</pdfrwt>
<pdfrwt beam="2">0</pdfrwt>
<totfact> 0.15936896E+00</totfact>
</mgrwt>
</event>
<event>
 6    1  0.4693694E-003  0.6730940E+03  0.7818608E-02  0.9764385E-01
          1   -1    0    0  502    0  0.00000000000E+00  0.00000000000E+00  0.12979988809E+03  0.12979988809E+03  0.00000000000E+00 0.  1.
         13   -1    0    0    0    0 -0.00000000000E+00 -0.00000000000E+00 -0.10000000000E+04  0.10000000000E+04  0.00000000000E+00 0.  1.
    9000005    2    1    2  501    0  0.19021729543E+02  0.21798709835E+02 -0.87110577894E+03  0.11008545918E+04  0.67247196537E+03 0.  0.
         13    1    3    3    0    0  0.85778757848E+02  0.29631732306E+03 -0.71353826322E+03  0.77736658298E+03  0.00000000000E+00 0.  1.
          3    1    3    3  501    0 -0.66757028304E+02 -0.27451861323E+03 -0.15756751572E+03  0.32348800881E+03  0.00000000000E+00 0.  1.
         21    1    1    2  502  501 -0.19021729543E+02 -0.21798709835E+02  0.90566703366E+00  0.28945296303E+02  0.00000000000E+00 0. -1.
<mgrwt>
<rscale>  1 0.67309402E+03</rscale>
<asrwt>0</asrwt>
<pdfrwt beam="1">  1        1 0.47200059E+00 0.67309402E+03</pdfrwt>
<pdfrwt beam="2">0</pdfrwt>
<totfact> 0.62480608E-01</totfact>
</mgrwt>
</event>
<event>
 6    1  0.4693694E-003  0.6555419E+03  0.7818608E-02  0.9796435E-01
          1   -1    0    0  502    0  0.00000000000E+00  0.00000000000E+00  0.13160199440E+03  0.13160199440E+03  0.00000000000E+00 0.  1.
         13   -1    0    0    0    0 -0.00000000000E+00 -0.00000000000E+00 -0.10000000000E+04  0.10000000000E+04  0.00000000000E+00 0.  1.
    9000005    2    1    2  501    0  0.44353854505E+01  0.52186109006E+01 -0.89202767526E+03  0.11069998028E+04  0.65550612766E+03 0.  0.
         13    1    3    3    0    0 -0.25668651067E+03 -0.47821586723E+02 -0.77162651581E+03  0.81460564006E+03  0.00000000000E+00 0.  1.
          1    1    3    3  501    0  0.26112189612E+03  0.53040197623E+02 -0.12040115945E+03  0.29239416272E+03  0.00000000000E+00 0.  1.
         21    1    1    2  502  501 -0.44353854505E+01 -0.52186109006E+01  0.23629669660E+02  0.24602191611E+02  0.00000000000E+00 0. -1.
<mgrwt>
<rscale>  1 0.65554191E+03</rscale>
<asrwt>0</asrwt>
<pdfrwt beam="1">  1        1 0.47855372E+00 0.65554191E+03</pdfrwt>
<pdfrwt beam="2">0</pdfrwt>
<totfact> 0.58419432E-01</totfact>
</mgrwt>
</event>
<event>
 6    1  0.4693694E-003  0.6494325E+03  0.7818608E-02  0.9807845E-01
          1   -1    0    0  502    0  0.00000000000E+00  0.00000000000E+00  0.10796501405E+03  0.10796501405E+03  0.00000000000E+00 0.  1.
         13   -1    0    0    0    0 -0.00000000000E+00 -0.00000000000E+00 -0.10000000000E+04  0.10000000000E+04  0.00000000000E+00 0.  1.
    9000005    2    1    2  501    0 -0.59098108336E+00  0.58121153144E+00 -0.89448391505E+03  0.11053796090E+04  0.64943199694E+03 0.  0.
         13    1    3    3    0    0 -0.19340434555E+03  0.21048320332E+03 -0.18423179094E+03  0.34007318706E+03  0.00000000000E+00 0.  1.
          3    1    3    3  501    0  0.19281336447E+03 -0.20990199179E+03 -0.71025212411E+03  0.76530642195E+03  0.00000000000E+00 0.  1.
         21    1    1    2  502  501  0.59098108336E+00 -0.58121153144E+00  0.24489291048E+01  0.25854050448E+01  0.00000000000E+00 0. -1.
<mgrwt>
<rscale>  1 0.64943253E+03</rscale>
<asrwt>0</asrwt>
<pdfrwt beam="1">  1        1 0.39260088E+00 0.64943253E+03</pdfrwt>
<pdfrwt beam="2">0</pdfrwt>
<totfact> 0.14433639E+00</totfact>
</mgrwt>
</event>
<event>
 6    1  0.4693694E-003  0.6643976E+03  0.7818608E-02  0.9780132E-01
          1   -1    0    0  502    0  0.00000000000E+00  0.00000000000E+00  0.11035624720E+03  0.11035624720E+03  0.00000000000E+00 0.  1.
         13   -1    0    0    0    0 -0.00000000000E+00 -0.00000000000E+00 -0.10000000000E+04  0.10000000000E+04  0.00000000000E+00 0.  1.
    9000005    2    1    2  501    0  0.19621826939E-03  0.15817248885E-03 -0.88964385404E+03  0.11103559756E+04  0.66439762605E+03 0.  0.
         13    1    3    3    0    0 -0.17979791268E+03 -0.27911146008E+03 -0.46354209478E+03  0.57017696392E+03  0.00000000000E+00 0.  1.
          3    1    3    3  501    0  0.17979810890E+03  0.27911161825E+03 -0.42610175926E+03  0.54017901167E+03  0.00000000000E+00 0.  1.
         21    1    1    2  502  501 -0.19621826938E-03 -0.15817248882E-03  0.10123579876E-03  0.27160418334E-03  0.00000000000E+00 0.  1.
<mgrwt>
<rscale>  1 0.66439763E+03</rscale>
<asrwt>0</asrwt>
<pdfrwt beam="1">  1        1 0.40129629E+00 0.66439763E+03</pdfrwt>
<pdfrwt beam="2">0</pdfrwt>
<totfact> 0.13165985E+00</totfact>
</mgrwt>
</event>
<event>
 6    1  0.4693694E-003  0.6621428E+03  0.7818608E-02  0.9784257E-01
          1   -1    0    0  502    0  0.00000000000E+00  0.00000000000E+00  0.11002275992E+03  0.11002275992E+03  0.00000000000E+00 0.  1.
         13   -1    0    0    0    0 -0.00000000000E+00 -0.00000000000E+00 -0.10000000000E+04  0.10000000000E+04  0.00000000000E+00 0.  1.
    9000005    2    1    2  501    0  0.70245096076E-01  0.32173712128E+00 -0.89031782835E+03  0.11095489989E+04  0.66214276180E+03 0.  0.
         13    1    3    3    0    0 -0.74481850553E+02 -0.21447172348E+03 -0.84852813060E+03  0.87837671569E+03  0.00000000000E+00 0.  1.
          3    1    3    3  501    0  0.74552095649E+02  0.21479346060E+03 -0.41789697745E+02  0.23117228320E+03  0.00000000000E+00 0.  1.
         21    1    1    2  502  501 -0.70245096076E-01 -0.32173712128E+00  0.34058827058E+00  0.47376103553E+00  0.00000000000E+00 0.  1.
<mgrwt>
<rscale>  1 0.66214284E+03</rscale>
<asrwt>0</asrwt>
<pdfrwt beam="1">  1        1 0.40008361E+00 0.66214284E+03</pdfrwt>
<pdfrwt beam="2">0</pdfrwt>
<totfact> 0.13336643E+00</totfact>
</mgrwt>
</event>
<event>
 6    1  0.4693694E-003  0.6483815E+03  0.7818608E-02  0.9809821E-01
          1   -1    0    0  502    0  0.00000000000E+00  0.00000000000E+00  0.10530247697E+03  0.10530247697E+03  0.00000000000E+00 0.  1.
         13   -1    0    0    0    0 -0.00000000000E+00 -0.00000000000E+00 -0.10000000000E+04  0.10000000000E+04  0.00000000000E+00 0.  1.
    9000005    2    1    2  501    0  0.81355461367E-03 -0.60134984131E-02 -0.89490029440E+03  0.11050996148E+04  0.64838154023E+03 0.  0.
         13    1    3    3    0    0 -0.20997341599E+03 -0.55404223557E+02 -0.85771609584E+03  0.88477983955E+03  0.00000000000E+00 0.  1.
          3    1    3    3  501    0  0.20997422954E+03  0.55398210058E+02 -0.37184198557E+02  0.22031977526E+03  0.00000000000E+00 0.  1.
         21    1    1    2  502  501 -0.81355461366E-03  0.60134984131E-02  0.20277136816E+00  0.20286214970E+00  0.00000000000E+00 0. -1.
<mgrwt>
<rscale>  1 0.64838154E+03</rscale>
<asrwt>0</asrwt>
<pdfrwt beam="1">  1        1 0.38291891E+00 0.64838154E+03</pdfrwt>
<pdfrwt beam="2">0</pdfrwt>
<totfact> 0.15934636E+00</totfact>
</mgrwt>
</event>
<event>
 6    1  0.4693694E-003  0.6638722E+03  0.7818608E-02  0.9781092E-01
          1   -1    0    0  502    0  0.00000000000E+00  0.00000000000E+00  0.11018275104E+03  0.11018275104E+03  0.00000000000E+00 0.  1.
         13   -1    0    0    0    0 -0.00000000000E+00 -0.00000000000E+00 -0.10000000000E+04  0.10000000000E+04  0.00000000000E+00 0.  1.
    9000005    2    1    2  501    0  0.12202961017E-04  0.45622627027E-04 -0.88981843039E+03  0.11101815687E+04  0.66387218376E+03 0.  0.
         13    1    3    3    0    0 -0.23737307067E+03  0.22637437194E+03 -0.35979934379E+03  0.48687462322E+03  0.00000000000E+00 0.  1.
          3    1    3    3  501    0  0.23737308287E+03 -0.22637432632E+03 -0.53001908660E+03  0.62330694545E+03  0.00000000000E+00 0.  1.
         21    1    1    2  502  501 -0.12202961027E-04 -0.45622627023E-04  0.11814272974E-02  0.11823708367E-02  0.00000000000E+00 0. -1.
<mgrwt>
<rscale>  1 0.66387218E+03</rscale>
<asrwt>0</asrwt>
<pdfrwt beam="1">  1        1 0.40066539E+00 0.66387218E+03</pdfrwt>
<pdfrwt beam="2">0</pdfrwt>
<totfact> 0.13252904E+00</totfact>
</mgrwt>
</event>
<event>
 6    1  0.5081557E-003  0.5884453E+03  0.7818608E-02  0.9929673E-01
          1   -1    0    0  502    0  0.00000000000E+00  0.00000000000E+00  0.86566966514E+02  0.86566966514E+02  0.00000000000E+00 0.  1.
         13   -1    0    0    0    0 -0.00000000000E+00 -0.00000000000E+00 -0.10000000000E+04  0.10000000000E+04  0.00000000000E+00 0.  1.
    9000005    2    1    2  501    0 -0.33364778460E-05 -0.67004839011E-05 -0.91343304231E+03  0.10865669549E+04  0.58844526066E+03 0.  0.
         13    1    3    3    0    0 -0.28184571452E+03  0.33423515219E+02 -0.59989887105E+03  0.66365110837E+03  0.00000000000E+00 0.  1.
          1    1    3    3  501    0  0.28184571119E+03 -0.33423521919E+02 -0.31353417126E+03  0.42291584657E+03  0.00000000000E+00 0.  1.
         21    1    1    2  502  501  0.33364778595E-05  0.67004839009E-05  0.88220507108E-05  0.11569664980E-04  0.00000000000E+00 0.  1.
<mgrwt>
<rscale>  1 0.58844526E+03</rscale>
<asrwt>0</asrwt>
<pdfrwt beam="1">  1        1 0.31478963E+00 0.58844526E+03</pdfrwt>
<pdfrwt beam="2">0</pdfrwt>
<totfact> 0.31919755E+00</totfact>
</mgrwt>
</event>
<event>
 6    1  0.4693694E-003  0.6701908E+03  0.7818608E-02  0.9769613E-01
          1   -1    0    0  502    0  0.00000000000E+00  0.00000000000E+00  0.11229504739E+03  0.11229504739E+03  0.00000000000E+00 0.  1.
         13   -1    0    0    0    0 -0.00000000000E+00 -0.00000000000E+00 -0.10000000000E+04  0.10000000000E+04  0.00000000000E+00 0.  1.
    9000005    2    1    2  501    0 -0.28666140395E-04  0.14381740696E-03 -0.88771108313E+03  0.11122889151E+04  0.67019076656E+03 0.  0.
         13    1    3    3    0    0 -0.25600827578E+03  0.11766994067E+03 -0.14280912003E+03  0.31588114374E+03  0.00000000000E+00 0.  1.
          3    1    3    3  501    0  0.25600824712E+03 -0.11766979685E+03 -0.74490196310E+03  0.79640777138E+03  0.00000000000E+00 0.  1.
         21    1    1    2  502  501  0.28666140359E-04 -0.14381740696E-03  0.61305206608E-02  0.61322743551E-02  0.00000000000E+00 0.  1.
<mgrwt>
<rscale>  1 0.67019077E+03</rscale>
<asrwt>0</asrwt>
<pdfrwt beam="1">  1        1 0.40834649E+00 0.67019077E+03</pdfrwt>
<pdfrwt beam="2">0</pdfrwt>
<totfact> 0.12230739E+00</totfact>
</mgrwt>
</event>
<event>
 6    1  0.4693694E-003  0.5078998E+03  0.7818608E-02  0.1011737E+00
          1   -1    0    0  502    0  0.00000000000E+00  0.00000000000E+00  0.64491573953E+02  0.64491573953E+02  0.00000000000E+00 0.  1.
         13   -1    0    0    0    0 -0.00000000000E+00 -0.00000000000E+00 -0.10000000000E+04  0.10000000000E+04  0.00000000000E+00 0.  1.
    9000005    2    1    2  501    0  0.13391197980E-02 -0.11347019163E-02 -0.93550862119E+03  0.10644898079E+04  0.50789976456E+03 0.  0.
         13    1    3    3    0    0 -0.23289098652E+03  0.91916767630E+02 -0.37875317412E+03  0.45402738978E+03  0.00000000000E+00 0.  1.
          1    1    3    3  501    0  0.23289232564E+03 -0.91917902332E+02 -0.55675544708E+03  0.61046241814E+03  0.00000000000E+00 0.  1.
         21    1    1    2  502  501 -0.13391197980E-02  0.11347019163E-02  0.19514333423E-03  0.17660326138E-02  0.00000000000E+00 0.  1.
<mgrwt>
<rscale>  1 0.50789976E+03</rscale>
<asrwt>0</asrwt>
<pdfrwt beam="1">  1        1 0.23451531E+00 0.50789976E+03</pdfrwt>
<pdfrwt beam="2">0</pdfrwt>
<totfact> 0.72070071E+00</totfact>
</mgrwt>
</event>
<event>
 6    1  0.4693694E-003  0.6625049E+03  0.7818608E-02  0.9783594E-01
          1   -1    0    0  502    0  0.00000000000E+00  0.00000000000E+00  0.10982710895E+03  0.10982710895E+03  0.00000000000E+00 0.  1.
         13   -1    0    0    0    0 -0.00000000000E+00 -0.00000000000E+00 -0.10000000000E+04  0.10000000000E+04  0.00000000000E+00 0.  1.
    9000005    2    1    2  501    0  0.11170028595E-02  0.14834552459E-01 -0.89027119665E+03  0.11097276841E+04  0.66250488983E+03 0.  0.
         13    1    3    3    0    0 -0.67649325597E+02  0.31134796590E+03 -0.29328952951E+03  0.43305049965E+03  0.00000000000E+00 0.  1.
          3    1    3    3  501    0  0.67650442600E+02 -0.31133313135E+03 -0.59698166713E+03  0.67667718445E+03  0.00000000000E+00 0.  1.
         21    1    1    2  502  501 -0.11170028595E-02 -0.14834552459E-01  0.98305593560E-01  0.99424852865E-01  0.00000000000E+00 0.  1.
<mgrwt>
<rscale>  1 0.66250489E+03</rscale>
<asrwt>0</asrwt>
<pdfrwt beam="1">  1        1 0.39937215E+00 0.66250489E+03</pdfrwt>
<pdfrwt beam="2">0</pdfrwt>
<totfact> 0.13433500E+00</totfact>
</mgrwt>
</event>
<event>
 6    1  0.4693694E-003  0.6572222E+03  0.7818608E-02  0.9793321E-01
          1   -1    0    0  502    0  0.00000000000E+00  0.00000000000E+00  0.10799901797E+03  0.10799901797E+03  0.00000000000E+00 0.  1.
         13   -1    0    0    0    0 -0.00000000000E+00 -0.00000000000E+00 -0.10000000000E+04  0.10000000000E+04  0.00000000000E+00 0.  1.
    9000005    2    1    2  501    0 -0.43048705720E-05 -0.22237113429E-03 -0.89201474779E+03  0.11079852504E+04  0.65722218834E+03 0.  0.
         13    1    3    3    0    0 -0.32215482017E+03 -0.98587816829E+01 -0.33800260700E+03  0.46704034738E+03  0.00000000000E+00 0.  1.
          1    1    3    3  501    0  0.32215481587E+03  0.98585593117E+01 -0.55401214079E+03  0.64094490303E+03  0.00000000000E+00 0.  1.
         21    1    1    2  502  501  0.43048706093E-05  0.22237113429E-03  0.13765763441E-01  0.13767560081E-01  0.00000000000E+00 0. -1.
<mgrwt>
<rscale>  1 0.65722219E+03</rscale>
<asrwt>0</asrwt>
<pdfrwt beam="1">  1        1 0.39272453E+00 0.65722219E+03</pdfrwt>
<pdfrwt beam="2">0</pdfrwt>
<totfact> 0.14394447E+00</totfact>
</mgrwt>
</event>
<event>
 6    1  0.4693694E-003  0.6497375E+03  0.7818608E-02  0.9807272E-01
          1   -1    0    0  502    0  0.00000000000E+00  0.00000000000E+00  0.10577991515E+03  0.10577991515E+03  0.00000000000E+00 0.  1.
         13   -1    0    0    0    0 -0.00000000000E+00 -0.00000000000E+00 -0.10000000000E+04  0.10000000000E+04  0.00000000000E+00 0.  1.
    9000005    2    1    2  501    0  0.23272633973E-01  0.35808100842E-01 -0.89445820924E+03  0.11055379915E+04  0.64973745521E+03 0.  0.
         13    1    3    3    0    0  0.27969656426E+03 -0.67748713566E+02 -0.19074479288E+03  0.34525879027E+03  0.00000000000E+00 0.  1.
          3    1    3    3  501    0 -0.27967329163E+03  0.67784521666E+02 -0.70371341636E+03  0.76027920121E+03  0.00000000000E+00 0.  1.
         21    1    1    2  502  501 -0.23272633973E-01 -0.35808100842E-01  0.23812439120E+00  0.24192366826E+00  0.00000000000E+00 0.  1.
<mgrwt>
<rscale>  1 0.64973746E+03</rscale>
<asrwt>0</asrwt>
<pdfrwt beam="1">  1        1 0.38465505E+00 0.64973746E+03</pdfrwt>
<pdfrwt beam="2">0</pdfrwt>
<totfact> 0.15651608E+00</totfact>
</mgrwt>
</event>
<event>
 6    1  0.4693694E-003  0.6485643E+03  0.7818608E-02  0.9809477E-01
          1   -1    0    0  502    0  0.00000000000E+00  0.00000000000E+00  0.10515892632E+03  0.10515892632E+03  0.00000000000E+00 0.  1.
         13   -1    0    0    0    0 -0.00000000000E+00 -0.00000000000E+00 -0.10000000000E+04  0.10000000000E+04  0.00000000000E+00 0.  1.
    9000005    2    1    2  501    0 -0.29134025539E-05  0.27258840873E-05 -0.89484108559E+03  0.11051589138E+04  0.64856430384E+03 0.  0.
         13    1    3    3    0    0  0.11386849038E+03  0.30158887086E+03 -0.50735306951E+03  0.60110649412E+03  0.00000000000E+00 0.  1.
          1    1    3    3  501    0 -0.11386849329E+03 -0.30158886814E+03 -0.38748801607E+03  0.50405241964E+03  0.00000000000E+00 0.  1.
         21    1    1    2  502  501  0.29134025450E-05 -0.27258840474E-05  0.11907357787E-04  0.12558006517E-04  0.00000000000E+00 0.  1.
<mgrwt>
<rscale>  1 0.64856430E+03</rscale>
<asrwt>0</asrwt>
<pdfrwt beam="1">  1        1 0.38239690E+00 0.64856430E+03</pdfrwt>
<pdfrwt beam="2">0</pdfrwt>
<totfact> 0.16018939E+00</totfact>
</mgrwt>
</event>
<event>
 6    1  0.4693694E-003  0.6512934E+03  0.7818608E-02  0.9804355E-01
          1   -1    0    0  502    0  0.00000000000E+00  0.00000000000E+00  0.10612187658E+03  0.10612187658E+03  0.00000000000E+00 0.  1.
         13   -1    0    0    0    0 -0.00000000000E+00 -0.00000000000E+00 -0.10000000000E+04  0.10000000000E+04  0.00000000000E+00 0.  1.
    9000005    2    1    2  501    0 -0.11747550368E+00 -0.41722665240E-01 -0.89389305309E+03  0.11059963211E+04  0.65129337203E+03 0.  0.
         13    1    3    3    0    0 -0.23768369603E+03  0.21752151262E+03 -0.52763440201E+03  0.61822909184E+03  0.00000000000E+00 0.  1.
          3    1    3    3  501    0  0.23756622053E+03 -0.21756323528E+03 -0.36625865108E+03  0.48776722930E+03  0.00000000000E+00 0.  1.
         21    1    1    2  502  501  0.11747550368E+00  0.41722665240E-01  0.14929665214E-01  0.12555544458E+00  0.00000000000E+00 0.  1.
<mgrwt>
<rscale>  1 0.65129338E+03</rscale>
<asrwt>0</asrwt>
<pdfrwt beam="1">  1        1 0.38589855E+00 0.65129338E+03</pdfrwt>
<pdfrwt beam="2">0</pdfrwt>
<totfact> 0.15450164E+00</totfact>
</mgrwt>
</event>
<event>
 6    1  0.4693694E-003  0.6440662E+03  0.7818608E-02  0.9817978E-01
          1   -1    0    0  502    0  0.00000000000E+00  0.00000000000E+00  0.10374963839E+03  0.10374963839E+03  0.00000000000E+00 0.  1.
         13   -1    0    0    0    0 -0.00000000000E+00 -0.00000000000E+00 -0.10000000000E+04  0.10000000000E+04  0.00000000000E+00 0.  1.
    9000005    2    1    2  501    0 -0.50342225265E-02  0.11407383287E-02 -0.89629453226E+03  0.11037051672E+04  0.64406615143E+03 0.  0.
         13    1    3    3    0    0  0.16033807204E+03 -0.25964852030E+03 -0.27189225013E+03  0.40871878734E+03  0.00000000000E+00 0.  1.
          1    1    3    3  501    0 -0.16034310626E+03  0.25964966104E+03 -0.62440228213E+03  0.69498637982E+03  0.00000000000E+00 0.  1.
         21    1    1    2  502  501  0.50342225265E-02 -0.11407383287E-02  0.44170651405E-01  0.44471239312E-01  0.00000000000E+00 0. -1.
<mgrwt>
<rscale>  1 0.64406615E+03</rscale>
<asrwt>0</asrwt>
<pdfrwt beam="1">  1        1 0.37727221E+00 0.64406615E+03</pdfrwt>
<pdfrwt beam="2">0</pdfrwt>
<totfact> 0.16888941E+00</totfact>
</mgrwt>
</event>
<event>
 6    1  0.4693694E-003  0.6424910E+03  0.7818608E-02  0.9820972E-01
          1   -1    0    0  502    0  0.00000000000E+00  0.00000000000E+00  0.10319890441E+03  0.10319890441E+03  0.00000000000E+00 0.  1.
         13   -1    0    0    0    0 -0.00000000000E+00 -0.00000000000E+00 -0.10000000000E+04  0.10000000000E+04  0.00000000000E+00 0.  1.
    9000005    2    1    2  501    0  0.12534926043E-04 -0.43294703751E-05 -0.89680133502E+03  0.11031986646E+04  0.64249097979E+03 0.  0.
         13    1    3    3    0    0 -0.29436281335E+03 -0.15217864635E+02 -0.22906209757E+03  0.37329679055E+03  0.00000000000E+00 0.  1.
          1    1    3    3  501    0  0.29436282589E+03  0.15217860306E+02 -0.66773923744E+03  0.72990187406E+03  0.00000000000E+00 0.  1.
         21    1    1    2  502  501 -0.12534926057E-04  0.43294703744E-05  0.23943199538E-03  0.23979897643E-03  0.00000000000E+00 0.  1.
<mgrwt>
<rscale>  1 0.64249098E+03</rscale>
<asrwt>0</asrwt>
<pdfrwt beam="1">  1        1 0.37526953E+00 0.64249098E+03</pdfrwt>
<pdfrwt beam="2">0</pdfrwt>
<totfact> 0.17240437E+00</totfact>
</mgrwt>
</event>
<event>
 6    1  0.4693694E-003  0.5603809E+03  0.7818608E-02  0.9991193E-01
          1   -1    0    0  502    0  0.00000000000E+00  0.00000000000E+00  0.78506719446E+02  0.78506719446E+02  0.00000000000E+00 0.  1.
         13   -1    0    0    0    0 -0.00000000000E+00 -0.00000000000E+00 -0.10000000000E+04  0.10000000000E+04  0.00000000000E+00 0.  1.
    9000005    2    1    2  501    0  0.51036815876E-05 -0.21611848439E-04 -0.92149330342E+03  0.10785066876E+04  0.56038091231E+03 0.  0.
         13    1    3    3    0    0 -0.19070189254E+03  0.16117471996E+03 -0.70542161018E+03  0.74830752387E+03  0.00000000000E+00 0.  1.
          1    1    3    3  501    0  0.19070189765E+03 -0.16117474157E+03 -0.21607169324E+03  0.33019916370E+03  0.00000000000E+00 0.  1.
         21    1    1    2  502  501 -0.51036815941E-05  0.21611848425E-04  0.22866836434E-04  0.31874939477E-04  0.00000000000E+00 0. -1.
<mgrwt>
<rscale>  1 0.56038091E+03</rscale>
<asrwt>0</asrwt>
<pdfrwt beam="1">  1        1 0.28547958E+00 0.56038091E+03</pdfrwt>
<pdfrwt beam="2">0</pdfrwt>
<totfact> 0.42921661E+00</totfact>
</mgrwt>
</event>
<event>
 6    1  0.4693694E-003  0.6562531E+03  0.7818608E-02  0.9795116E-01
          1   -1    0    0  502    0  0.00000000000E+00  0.00000000000E+00  0.11284466134E+03  0.11284466134E+03  0.00000000000E+00 0.  1.
         13   -1    0    0    0    0 -0.00000000000E+00 -0.00000000000E+00 -0.10000000000E+04  0.10000000000E+04  0.00000000000E+00 0.  1.
    9000005    2    1    2  501    0 -0.87229589505E+00 -0.12835000887E+00 -0.89229135187E+03  0.11076335189E+04  0.65625252625E+03 0.  0.
         13    1    3    3    0    0  0.45332828006E+02  0.21005390797E+03 -0.86430746967E+03  0.89062063286E+03  0.00000000000E+00 0.  1.
          1    1    3    3  501    0 -0.46205123901E+02 -0.21018225798E+03 -0.27983882196E+02  0.21701288604E+03  0.00000000000E+00 0.  1.
         21    1    1    2  502  501  0.87229589505E+00  0.12835000887E+00  0.51360132030E+01  0.52111424347E+01  0.00000000000E+00 0.  1.
<mgrwt>
<rscale>  1 0.65625312E+03</rscale>
<asrwt>0</asrwt>
<pdfrwt beam="1">  1        1 0.41034509E+00 0.65625312E+03</pdfrwt>
<pdfrwt beam="2">0</pdfrwt>
<totfact> 0.12012835E+00</totfact>
</mgrwt>
</event>
<event>
 6    1  0.4693694E-003  0.6484510E+03  0.7818608E-02  0.9809690E-01
          1   -1    0    0  502    0  0.00000000000E+00  0.00000000000E+00  0.10512225970E+03  0.10512225970E+03  0.00000000000E+00 0.  1.
         13   -1    0    0    0    0 -0.00000000000E+00 -0.00000000000E+00 -0.10000000000E+04  0.10000000000E+04  0.00000000000E+00 0.  1.
    9000005    2    1    2  501    0 -0.24044850875E-05  0.12396279743E-04 -0.89487781052E+03  0.11051221884E+04  0.64845104319E+03 0.  0.
         13    1    3    3    0    0 -0.28359858131E+03  0.83963578821E+02 -0.67381653904E+03  0.73587143318E+03  0.00000000000E+00 0.  1.
          1    1    3    3  501    0  0.28359857890E+03 -0.83963566424E+02 -0.22106127148E+03  0.36925075517E+03  0.00000000000E+00 0.  1.
         21    1    1    2  502  501  0.24044850575E-05 -0.12396279745E-04  0.70226853986E-04  0.71353068054E-04  0.00000000000E+00 0.  1.
<mgrwt>
<rscale>  1 0.64845104E+03</rscale>
<asrwt>0</asrwt>
<pdfrwt beam="1">  1        1 0.38226357E+00 0.64845104E+03</pdfrwt>
<pdfrwt beam="2">0</pdfrwt>
<totfact> 0.16041013E+00</totfact>
</mgrwt>
</event>
<event>
 6    1  0.4693694E-003  0.6498620E+03  0.7818608E-02  0.9807038E-01
          1   -1    0    0  502    0  0.00000000000E+00  0.00000000000E+00  0.10558077606E+03  0.10558077606E+03  0.00000000000E+00 0.  1.
         13   -1    0    0    0    0 -0.00000000000E+00 -0.00000000000E+00 -0.10000000000E+04  0.10000000000E+04  0.00000000000E+00 0.  1.
    9000005    2    1    2  501    0 -0.12389695312E-02 -0.50255318297E-03 -0.89441888968E+03  0.11055793979E+04  0.64986202753E+03 0.  0.
         13    1    3    3    0    0 -0.30902545383E+03  0.89290132660E+02 -0.36904426741E+03  0.48955401154E+03  0.00000000000E+00 0.  1.
          3    1    3    3  501    0  0.30902421486E+03 -0.89290635214E+02 -0.52537462227E+03  0.61602538635E+03  0.00000000000E+00 0.  1.
         21    1    1    2  502  501  0.12389695312E-02  0.50255318297E-03 -0.33425873958E-03  0.13781633089E-02  0.00000000000E+00 0.  1.
<mgrwt>
<rscale>  1 0.64986203E+03</rscale>
<asrwt>0</asrwt>
<pdfrwt beam="1">  1        1 0.38393090E+00 0.64986203E+03</pdfrwt>
<pdfrwt beam="2">0</pdfrwt>
<totfact> 0.15767065E+00</totfact>
</mgrwt>
</event>
<event>
 6    1  0.4693694E-003  0.6486631E+03  0.7818608E-02  0.9809291E-01
          1   -1    0    0  502    0  0.00000000000E+00  0.00000000000E+00  0.10612910546E+03  0.10612910546E+03  0.00000000000E+00 0.  1.
         13   -1    0    0    0    0 -0.00000000000E+00 -0.00000000000E+00 -0.10000000000E+04  0.10000000000E+04  0.00000000000E+00 0.  1.
    9000005    2    1    2  501    0  0.16457269234E+00  0.49972305694E-01 -0.89480032340E+03  0.11051838968E+04  0.64866308467E+03 0.  0.
         13    1    3    3    0    0  0.11905548764E+03  0.33039000915E+02 -0.95842924711E+03  0.96636039159E+03  0.00000000000E+00 0.  1.
          3    1    3    3  501    0 -0.11889091495E+03 -0.32989028610E+02  0.63628923710E+02  0.13882350521E+03  0.00000000000E+00 0.  1.
         21    1    1    2  502  501 -0.16457269234E+00 -0.49972305694E-01  0.92942886374E+00  0.94520866223E+00  0.00000000000E+00 0. -1.
<mgrwt>
<rscale>  1 0.64866311E+03</rscale>
<asrwt>0</asrwt>
<pdfrwt beam="1">  1        1 0.38592483E+00 0.64866311E+03</pdfrwt>
<pdfrwt beam="2">0</pdfrwt>
<totfact> 0.15453548E+00</totfact>
</mgrwt>
</event>
<event>
 6    1  0.4693694E-003  0.6448475E+03  0.7818608E-02  0.9816496E-01
          1   -1    0    0  502    0  0.00000000000E+00  0.00000000000E+00  0.10483515128E+03  0.10483515128E+03  0.00000000000E+00 0.  1.
         13   -1    0    0    0    0 -0.00000000000E+00 -0.00000000000E+00 -0.10000000000E+04  0.10000000000E+04  0.00000000000E+00 0.  1.
    9000005    2    1    2  501    0  0.33236435273E-01 -0.29895404094E-01 -0.89604229543E+03  0.11039565665E+04  0.64484750416E+03 0.  0.
         13    1    3    3    0    0 -0.15805901786E+03 -0.19905594957E+03 -0.10841494516E+03  0.27633263383E+03  0.00000000000E+00 0.  1.
          1    1    3    3  501    0  0.15809225430E+03  0.19902605416E+03 -0.78762735028E+03  0.82762393272E+03  0.00000000000E+00 0.  1.
         21    1    1    2  502  501 -0.33236435273E-01  0.29895404094E-01  0.87744671611E+00  0.87858473434E+00  0.00000000000E+00 0. -1.
<mgrwt>
<rscale>  1 0.64484751E+03</rscale>
<asrwt>0</asrwt>
<pdfrwt beam="1">  1        1 0.38121954E+00 0.64484751E+03</pdfrwt>
<pdfrwt beam="2">0</pdfrwt>
<totfact> 0.16222978E+00</totfact>
</mgrwt>
</event>
<event>
 6    1  0.4693694E-003  0.6523954E+03  0.7818608E-02  0.9802295E-01
          1   -1    0    0  502    0  0.00000000000E+00  0.00000000000E+00  0.10640495580E+03  0.10640495580E+03  0.00000000000E+00 0.  1.
         13   -1    0    0    0    0 -0.00000000000E+00 -0.00000000000E+00 -0.10000000000E+04  0.10000000000E+04  0.00000000000E+00 0.  1.
    9000005    2    1    2  501    0  0.45396823793E-05 -0.22427808801E-05 -0.89359505429E+03  0.11064049445E+04  0.65239541705E+03 0.  0.
         13    1    3    3    0    0  0.23110200065E+03  0.15932442564E+03 -0.16498754604E+03  0.32559683300E+03  0.00000000000E+00 0.  1.
          3    1    3    3  501    0 -0.23110199611E+03 -0.15932442789E+03 -0.72860750825E+03  0.78080811151E+03  0.00000000000E+00 0.  1.
         21    1    1    2  502  501 -0.45396823686E-05  0.22427809016E-05  0.10088124041E-04  0.11287560801E-04  0.00000000000E+00 0.  1.
<mgrwt>
<rscale>  1 0.65239542E+03</rscale>
<asrwt>0</asrwt>
<pdfrwt beam="1">  1        1 0.38692793E+00 0.65239542E+03</pdfrwt>
<pdfrwt beam="2">0</pdfrwt>
<totfact> 0.15285798E+00</totfact>
</mgrwt>
</event>
<event>
 6    1  0.4693694E-003  0.6448599E+03  0.7818608E-02  0.9816472E-01
          1   -1    0    0  502    0  0.00000000000E+00  0.00000000000E+00  0.10396111918E+03  0.10396111918E+03  0.00000000000E+00 0.  1.
         13   -1    0    0    0    0 -0.00000000000E+00 -0.00000000000E+00 -0.10000000000E+04  0.10000000000E+04  0.00000000000E+00 0.  1.
    9000005    2    1    2  501    0 -0.20085237225E-05  0.85046207161E-05 -0.89603891272E+03  0.11039610861E+04  0.64485994335E+03 0.  0.
         13    1    3    3    0    0 -0.30343309385E+03 -0.26156062294E+02 -0.26680192783E+03  0.40489387589E+03  0.00000000000E+00 0.  1.
          3    1    3    3  501    0  0.30343309184E+03  0.26156070799E+02 -0.62923698488E+03  0.69906721022E+03  0.00000000000E+00 0.  1.
         21    1    1    2  502  501  0.20085237649E-05 -0.85046207161E-05  0.31896647887E-04  0.33072025757E-04  0.00000000000E+00 0.  1.
<mgrwt>
<rscale>  1 0.64485994E+03</rscale>
<asrwt>0</asrwt>
<pdfrwt beam="1">  1        1 0.37804123E+00 0.64485994E+03</pdfrwt>
<pdfrwt beam="2">0</pdfrwt>
<totfact> 0.16755212E+00</totfact>
</mgrwt>
</event>
<event>
 6    1  0.4693694E-003  0.6790245E+03  0.7818608E-02  0.9753791E-01
          1   -1    0    0  502    0  0.00000000000E+00  0.00000000000E+00  0.11571208599E+03  0.11571208599E+03  0.00000000000E+00 0.  1.
         13   -1    0    0    0    0 -0.00000000000E+00 -0.00000000000E+00 -0.10000000000E+04  0.10000000000E+04  0.00000000000E+00 0.  1.
    9000005    2    1    2  501    0 -0.13878231037E+00 -0.75463349200E-02 -0.88471924057E+03  0.11152589193E+04  0.67902452316E+03 0.  0.
         13    1    3    3    0    0 -0.16036201321E+02 -0.14354013579E+03  0.62296996133E+02  0.15729541018E+03  0.00000000000E+00 0.  1.
          1    1    3    3  501    0  0.15897419010E+02  0.14353258945E+03 -0.94701623670E+03  0.95796350909E+03  0.00000000000E+00 0.  1.
         21    1    1    2  502  501  0.13878231037E+00  0.75463349200E-02  0.43132656081E+00  0.45316672308E+00  0.00000000000E+00 0.  1.
<mgrwt>
<rscale>  1 0.67902454E+03</rscale>
<asrwt>0</asrwt>
<pdfrwt beam="1">  1        1 0.42077211E+00 0.67902454E+03</pdfrwt>
<pdfrwt beam="2">0</pdfrwt>
<totfact> 0.10735572E+00</totfact>
</mgrwt>
</event>
<event>
 6    1  0.4693694E-003  0.6462323E+03  0.7818608E-02  0.9813875E-01
          1   -1    0    0  502    0  0.00000000000E+00  0.00000000000E+00  0.10440661122E+03  0.10440661122E+03  0.00000000000E+00 0.  1.
         13   -1    0    0    0    0 -0.00000000000E+00 -0.00000000000E+00 -0.10000000000E+04  0.10000000000E+04  0.00000000000E+00 0.  1.
    9000005    2    1    2  501    0 -0.29107390736E-03  0.47223569101E-03 -0.89559592195E+03  0.11044040180E+04  0.64623229539E+03 0.  0.
         13    1    3    3    0    0  0.53869273317E+02  0.26884163089E+03 -0.15563383589E+03  0.31527704005E+03  0.00000000000E+00 0.  1.
          1    1    3    3  501    0 -0.53869564391E+02 -0.26884115866E+03 -0.73996208606E+03  0.78912697797E+03  0.00000000000E+00 0.  1.
         21    1    1    2  502  501  0.29107390735E-03 -0.47223569103E-03  0.25331714556E-02  0.25932003761E-02  0.00000000000E+00 0. -1.
<mgrwt>
<rscale>  1 0.64623230E+03</rscale>
<asrwt>0</asrwt>
<pdfrwt beam="1">  1        1 0.37966121E+00 0.64623230E+03</pdfrwt>
<pdfrwt beam="2">0</pdfrwt>
<totfact> 0.16477706E+00</totfact>
</mgrwt>
</event>
<event>
 6    1  0.4693694E-003  0.6533365E+03  0.7818608E-02  0.9800539E-01
          1   -1    0    0  502    0  0.00000000000E+00  0.00000000000E+00  0.11092141206E+03  0.11092141206E+03  0.00000000000E+00 0.  1.
         13   -1    0    0    0    0 -0.00000000000E+00 -0.00000000000E+00 -0.10000000000E+04  0.10000000000E+04  0.00000000000E+00 0.  1.
    9000005    2    1    2  501    0  0.52095870800E-01  0.10485314881E+00 -0.89328695473E+03  0.11067114169E+04  0.65333648537E+03 0.  0.
         13    1    3    3    0    0 -0.12513871877E+03 -0.19324499951E+03 -0.83906235554E+03  0.87007411480E+03  0.00000000000E+00 0.  1.
          3    1    3    3  501    0  0.12519081464E+03  0.19334985265E+03 -0.54224599192E+02  0.23663730211E+03  0.00000000000E+00 0.  1.
         21    1    1    2  502  501 -0.52095870800E-01 -0.10485314881E+00  0.42083667878E+01  0.42099951524E+01  0.00000000000E+00 0. -1.
<mgrwt>
<rscale>  1 0.65333650E+03</rscale>
<asrwt>0</asrwt>
<pdfrwt beam="1">  1        1 0.40335144E+00 0.65333650E+03</pdfrwt>
<pdfrwt beam="2">0</pdfrwt>
<totfact> 0.12917722E+00</totfact>
</mgrwt>
</event>
<event>
 6    1  0.4693694E-003  0.6351109E+03  0.7818608E-02  0.9835126E-01
          1   -1    0    0  502    0  0.00000000000E+00  0.00000000000E+00  0.10105156403E+03  0.10105156403E+03  0.00000000000E+00 0.  1.
         13   -1    0    0    0    0 -0.00000000000E+00 -0.00000000000E+00 -0.10000000000E+04  0.10000000000E+04  0.00000000000E+00 0.  1.
    9000005    2    1    2  501    0 -0.23055794142E-01  0.15694708066E-01 -0.89915750185E+03  0.11008406459E+04  0.63511094610E+03 0.  0.
         13    1    3    3    0    0 -0.75104167993E+02  0.29429738111E+03 -0.28888796408E+03  0.41917519055E+03  0.00000000000E+00 0.  1.
          1    1    3    3  501    0  0.75081112199E+02 -0.29428168640E+03 -0.61026953777E+03  0.68166545540E+03  0.00000000000E+00 0.  1.
         21    1    1    2  502  501  0.23055794142E-01 -0.15694708066E-01  0.20906588145E+00  0.21091807958E+00  0.00000000000E+00 0. -1.
<mgrwt>
<rscale>  1 0.63511095E+03</rscale>
<asrwt>0</asrwt>
<pdfrwt beam="1">  1        1 0.36746101E+00 0.63511095E+03</pdfrwt>
<pdfrwt beam="2">0</pdfrwt>
<totfact> 0.18683049E+00</totfact>
</mgrwt>
</event>
<event>
 6    1  0.4693694E-003  0.6229986E+03  0.7818608E-02  0.9858808E-01
          1   -1    0    0  502    0  0.00000000000E+00  0.00000000000E+00  0.97055193168E+02  0.97055193168E+02  0.00000000000E+00 0.  1.
         13   -1    0    0    0    0 -0.00000000000E+00 -0.00000000000E+00 -0.10000000000E+04  0.10000000000E+04  0.00000000000E+00 0.  1.
    9000005    2    1    2  501    0 -0.17382253089E-01  0.21125957655E-01 -0.90295910968E+03  0.10970243221E+04  0.62299856249E+03 0.  0.
         13    1    3    3    0    0 -0.12576602368E+03 -0.60427870622E+02  0.38928610693E+02  0.14485874841E+03  0.00000000000E+00 0.  1.
          3    1    3    3  501    0  0.12574864143E+03  0.60448996580E+02 -0.94188772038E+03  0.95216557373E+03  0.00000000000E+00 0.  1.
         21    1    1    2  502  501  0.17382253089E-01 -0.21125957655E-01  0.14302851277E-01  0.30871027905E-01  0.00000000000E+00 0.  1.
<mgrwt>
<rscale>  1 0.62299856E+03</rscale>
<asrwt>0</asrwt>
<pdfrwt beam="1">  1        1 0.35292872E+00 0.62299856E+03</pdfrwt>
<pdfrwt beam="2">0</pdfrwt>
<totfact> 0.21675108E+00</totfact>
</mgrwt>
</event>
<event>
 6    1  0.4693694E-003  0.6362507E+03  0.7818608E-02  0.9832926E-01
          1   -1    0    0  502    0  0.00000000000E+00  0.00000000000E+00  0.10120378385E+03  0.10120378385E+03  0.00000000000E+00 0.  1.
         13   -1    0    0    0    0 -0.00000000000E+00 -0.00000000000E+00 -0.10000000000E+04  0.10000000000E+04  0.00000000000E+00 0.  1.
    9000005    2    1    2  501    0 -0.10448500234E-05  0.31724512212E-04 -0.89879625274E+03  0.11012037354E+04  0.63625070762E+03 0.  0.
         13    1    3    3    0    0  0.19663352873E+03  0.18551743662E+03 -0.73964309482E+03  0.78749817246E+03  0.00000000000E+00 0.  1.
          3    1    3    3  501    0 -0.19663352978E+03 -0.18551740489E+03 -0.15915315792E+03  0.31370556295E+03  0.00000000000E+00 0.  1.
         21    1    1    2  502  501  0.10448500304E-05 -0.31724512221E-04  0.36586626186E-04  0.48436738154E-04  0.00000000000E+00 0.  1.
<mgrwt>
<rscale>  1 0.63625071E+03</rscale>
<asrwt>0</asrwt>
<pdfrwt beam="1">  1        1 0.36801454E+00 0.63625071E+03</pdfrwt>
<pdfrwt beam="2">0</pdfrwt>
<totfact> 0.18575015E+00</totfact>
</mgrwt>
</event>
<event>
 6    1  0.4693694E-003  0.5020617E+03  0.7818608E-02  0.1013242E+00
          1   -1    0    0  502    0  0.00000000000E+00  0.00000000000E+00  0.64824574626E+02  0.64824574626E+02  0.00000000000E+00 0.  1.
         13   -1    0    0    0    0 -0.00000000000E+00 -0.00000000000E+00 -0.10000000000E+04  0.10000000000E+04  0.00000000000E+00 0.  1.
    9000005    2    1    2  501    0  0.93132312158E-01  0.16155639925E+00 -0.93697840901E+03  0.10630119732E+04  0.50206163102E+03 0.  0.
         13    1    3    3    0    0  0.16853488117E+03  0.18328268744E+03 -0.53776138032E+03  0.59260767110E+03  0.00000000000E+00 0.  1.
          1    1    3    3  501    0 -0.16844174886E+03 -0.18312113104E+03 -0.39921702869E+03  0.47040430205E+03  0.00000000000E+00 0.  1.
         21    1    1    2  502  501 -0.93132312158E-01 -0.16155639925E+00  0.18029836379E+01  0.18126014720E+01  0.00000000000E+00 0.  1.
<mgrwt>
<rscale>  1 0.50206167E+03</rscale>
<asrwt>0</asrwt>
<pdfrwt beam="1">  1        1 0.23572622E+00 0.50206167E+03</pdfrwt>
<pdfrwt beam="2">0</pdfrwt>
<totfact> 0.71261302E+00</totfact>
</mgrwt>
</event>
<event>
 6    1  0.4693694E-003  0.6232855E+03  0.7818608E-02  0.9858240E-01
          1   -1    0    0  502    0  0.00000000000E+00  0.00000000000E+00  0.97121228062E+02  0.97121228062E+02  0.00000000000E+00 0.  1.
         13   -1    0    0    0    0 -0.00000000000E+00 -0.00000000000E+00 -0.10000000000E+04  0.10000000000E+04  0.00000000000E+00 0.  1.
    9000005    2    1    2  501    0 -0.32673840735E-05 -0.73071987430E-05 -0.90287879640E+03  0.10971212023E+04  0.62328549765E+03 0.  0.
         13    1    3    3    0    0 -0.73262138590E+02  0.81458228315E+02  0.62106612584E+02  0.12593655243E+03  0.00000000000E+00 0.  1.
          1    1    3    3  501    0  0.73262135322E+02 -0.81458235622E+02 -0.96498540899E+03  0.97118464989E+03  0.00000000000E+00 0.  1.
         21    1    1    2  502  501  0.32673840702E-05  0.73071987473E-05  0.24465906842E-04  0.25742019148E-04  0.00000000000E+00 0.  1.
<mgrwt>
<rscale>  1 0.62328550E+03</rscale>
<asrwt>0</asrwt>
<pdfrwt beam="1">  1        1 0.35316885E+00 0.62328550E+03</pdfrwt>
<pdfrwt beam="2">0</pdfrwt>
<totfact> 0.21621782E+00</totfact>
</mgrwt>
</event>
<event>
 6    1  0.4693694E-003  0.6585472E+03  0.7818608E-02  0.9790872E-01
          1   -1    0    0  502    0  0.00000000000E+00  0.00000000000E+00  0.10844603925E+03  0.10844603925E+03  0.00000000000E+00 0.  1.
         13   -1    0    0    0    0 -0.00000000000E+00 -0.00000000000E+00 -0.10000000000E+04  0.10000000000E+04  0.00000000000E+00 0.  1.
    9000005    2    1    2  501    0  0.30901952753E-03 -0.48762568076E-03 -0.89157889486E+03  0.11084210985E+04  0.65854719325E+03 0.  0.
         13    1    3    3    0    0 -0.56157968044E+02 -0.30275107129E+03 -0.64214193943E+03  0.71215040471E+03  0.00000000000E+00 0.  1.
          1    1    3    3  501    0  0.56158277064E+02  0.30275058367E+03 -0.24943695543E+03  0.39627069375E+03  0.00000000000E+00 0.  1.
         21    1    1    2  502  501 -0.30901952754E-03  0.48762568075E-03  0.24934108212E-01  0.24940790369E-01  0.00000000000E+00 0.  1.
<mgrwt>
<rscale>  1 0.65854719E+03</rscale>
<asrwt>0</asrwt>
<pdfrwt beam="1">  1        1 0.39435007E+00 0.65854719E+03</pdfrwt>
<pdfrwt beam="2">0</pdfrwt>
<totfact> 0.14153547E+00</totfact>
</mgrwt>
</event>
<event>
 6    1  0.4693694E-003  0.6072314E+03  0.7818608E-02  0.9890516E-01
          1   -1    0    0  502    0  0.00000000000E+00  0.00000000000E+00  0.92331582511E+02  0.92331582511E+02  0.00000000000E+00 0.  1.
         13   -1    0    0    0    0 -0.00000000000E+00 -0.00000000000E+00 -0.10000000000E+04  0.10000000000E+04  0.00000000000E+00 0.  1.
    9000005    2    1    2  501    0  0.30234984579E-02  0.14105390570E-01 -0.90781711940E+03  0.10921821825E+04  0.60723141989E+03 0.  0.
         13    1    3    3    0    0 -0.28430595482E+02 -0.28937141926E+03 -0.29674516886E+03  0.41545374266E+03  0.00000000000E+00 0.  1.
          3    1    3    3  501    0  0.28433618980E+02  0.28938552465E+03 -0.61107195054E+03  0.67672843985E+03  0.00000000000E+00 0.  1.
         21    1    1    2  502  501 -0.30234984579E-02 -0.14105390570E-01  0.14870191075E+00  0.14940000618E+00  0.00000000000E+00 0.  1.
<mgrwt>
<rscale>  1 0.60723142E+03</rscale>
<asrwt>0</asrwt>
<pdfrwt beam="1">  1        1 0.33575192E+00 0.60723142E+03</pdfrwt>
<pdfrwt beam="2">0</pdfrwt>
<totfact> 0.25816000E+00</totfact>
</mgrwt>
</event>
<event>
 6    1  0.4693694E-003  0.6501172E+03  0.7818608E-02  0.9806559E-01
          1   -1    0    0  502    0  0.00000000000E+00  0.00000000000E+00  0.10567988300E+03  0.10567988300E+03  0.00000000000E+00 0.  1.
         13   -1    0    0    0    0 -0.00000000000E+00 -0.00000000000E+00 -0.10000000000E+04  0.10000000000E+04  0.00000000000E+00 0.  1.
    9000005    2    1    2  501    0 -0.44839885582E-01  0.17960833150E-01 -0.89428012542E+03  0.11056171731E+04  0.65011721126E+03 0.  0.
         13    1    3    3    0    0  0.49108744549E+02  0.31477679584E+03 -0.33732153828E+03  0.46398482753E+03  0.00000000000E+00 0.  1.
          1    1    3    3  501    0 -0.49153584434E+02 -0.31475883501E+03 -0.55695858715E+03  0.64163234556E+03  0.00000000000E+00 0.  1.
         21    1    1    2  502  501  0.44839885582E-01 -0.17960833150E-01 -0.39991575653E-01  0.62709911415E-01  0.00000000000E+00 0. -1.
<mgrwt>
<rscale>  1 0.65011721E+03</rscale>
<asrwt>0</asrwt>
<pdfrwt beam="1">  1        1 0.38429129E+00 0.65011721E+03</pdfrwt>
<pdfrwt beam="2">0</pdfrwt>
<totfact> 0.15708584E+00</totfact>
</mgrwt>
</event>
<event>
 6    1  0.4693694E-003  0.6474026E+03  0.7818608E-02  0.9811665E-01
          1   -1    0    0  502    0  0.00000000000E+00  0.00000000000E+00  0.10518517632E+03  0.10518517632E+03  0.00000000000E+00 0.  1.
         13   -1    0    0    0    0 -0.00000000000E+00 -0.00000000000E+00 -0.10000000000E+04  0.10000000000E+04  0.00000000000E+00 0.  1.
    9000005    2    1    2  501    0 -0.11077010785E-01  0.64979631958E-03 -0.89521738917E+03  0.11047824579E+04  0.64740258369E+03 0.  0.
         13    1    3    3    0    0 -0.29603064125E+03 -0.10683012078E+03 -0.31833968378E+03  0.44764603151E+03  0.00000000000E+00 0.  1.
          3    1    3    3  501    0  0.29601956424E+03  0.10683077058E+03 -0.57687770539E+03  0.65713642642E+03  0.00000000000E+00 0.  1.
         21    1    1    2  502  501  0.11077010785E-01 -0.64979631958E-03  0.40256549552E+00  0.40271838869E+00  0.00000000000E+00 0. -1.
<mgrwt>
<rscale>  1 0.64740258E+03</rscale>
<asrwt>0</asrwt>
<pdfrwt beam="1">  1        1 0.38249236E+00 0.64740258E+03</pdfrwt>
<pdfrwt beam="2">0</pdfrwt>
<totfact> 0.16006820E+00</totfact>
</mgrwt>
</event>
<event>
 6    1  0.4693694E-003  0.6401574E+03  0.7818608E-02  0.9825426E-01
          1   -1    0    0  502    0  0.00000000000E+00  0.00000000000E+00  0.10245081943E+03  0.10245081943E+03  0.00000000000E+00 0.  1.
         13   -1    0    0    0    0 -0.00000000000E+00 -0.00000000000E+00 -0.10000000000E+04  0.10000000000E+04  0.00000000000E+00 0.  1.
    9000005    2    1    2  501    0 -0.26092408291E-04  0.10571731764E-04 -0.89754963874E+03  0.11024503604E+04  0.64015735812E+03 0.  0.
         13    1    3    3    0    0 -0.29848158410E+03 -0.92876148659E+02 -0.33029440042E+03  0.45476546261E+03  0.00000000000E+00 0.  1.
          3    1    3    3  501    0  0.29848155801E+03  0.92876159230E+02 -0.56725523832E+03  0.64768489779E+03  0.00000000000E+00 0.  1.
         21    1    1    2  502  501  0.26092408263E-04 -0.10571731759E-04  0.45816536124E-03  0.45902949090E-03  0.00000000000E+00 0. -1.
<mgrwt>
<rscale>  1 0.64015736E+03</rscale>
<asrwt>0</asrwt>
<pdfrwt beam="1">  1        1 0.37254922E+00 0.64015736E+03</pdfrwt>
<pdfrwt beam="2">0</pdfrwt>
<totfact> 0.17729719E+00</totfact>
</mgrwt>
</event>
<event>
 6    1  0.4693694E-003  0.6473997E+03  0.7818608E-02  0.9811671E-01
          1   -1    0    0  502    0  0.00000000000E+00  0.00000000000E+00  0.10478166237E+03  0.10478166237E+03  0.00000000000E+00 0.  1.
         13   -1    0    0    0    0 -0.00000000000E+00 -0.00000000000E+00 -0.10000000000E+04  0.10000000000E+04  0.00000000000E+00 0.  1.
    9000005    2    1    2  501    0  0.10291045868E-04  0.26153519173E-04 -0.89521840940E+03  0.11047815853E+04  0.64739968387E+03 0.  0.
         13    1    3    3    0    0 -0.60621828575E+02 -0.19252914041E+03 -0.15765506800E+02  0.20246240938E+03  0.00000000000E+00 0.  1.
          3    1    3    3  501    0  0.60621838866E+02  0.19252916656E+03 -0.87945290260E+03  0.90231917591E+03  0.00000000000E+00 0.  1.
         21    1    1    2  502  501 -0.10291045868E-04 -0.26153519168E-04  0.71767328217E-04  0.77074389971E-04  0.00000000000E+00 0.  1.
<mgrwt>
<rscale>  1 0.64739968E+03</rscale>
<asrwt>0</asrwt>
<pdfrwt beam="1">  1        1 0.38102503E+00 0.64739968E+03</pdfrwt>
<pdfrwt beam="2">0</pdfrwt>
<totfact> 0.16247442E+00</totfact>
</mgrwt>
</event>
<event>
 6    1  0.4693694E-003  0.6528358E+03  0.7818608E-02  0.9801473E-01
          1   -1    0    0  502    0  0.00000000000E+00  0.00000000000E+00  0.10655934743E+03  0.10655934743E+03  0.00000000000E+00 0.  1.
         13   -1    0    0    0    0 -0.00000000000E+00 -0.00000000000E+00 -0.10000000000E+04  0.10000000000E+04  0.00000000000E+00 0.  1.
    9000005    2    1    2  501    0  0.11275594689E-02 -0.99658174690E-05 -0.89345132396E+03  0.11065486166E+04  0.65283579303E+03 0.  0.
         13    1    3    3    0    0 -0.24076348100E+03 -0.19432958867E+03 -0.27043553535E+03  0.41093359755E+03  0.00000000000E+00 0.  1.
          1    1    3    3  501    0  0.24076460856E+03  0.19432957871E+03 -0.62301578862E+03  0.69561501908E+03  0.00000000000E+00 0.  1.
         21    1    1    2  502  501 -0.11275594689E-02  0.99658174697E-05  0.10671390294E-01  0.10730799620E-01  0.00000000000E+00 0. -1.
<mgrwt>
<rscale>  1 0.65283579E+03</rscale>
<asrwt>0</asrwt>
<pdfrwt beam="1">  1        1 0.38748935E+00 0.65283579E+03</pdfrwt>
<pdfrwt beam="2">0</pdfrwt>
<totfact> 0.15197305E+00</totfact>
</mgrwt>
</event>
<event>
 6    1  0.4693694E-003  0.6654160E+03  0.7818608E-02  0.9778275E-01
          1   -1    0    0  502    0  0.00000000000E+00  0.00000000000E+00  0.11071074850E+03  0.11071074850E+03  0.00000000000E+00 0.  1.
         13   -1    0    0    0    0 -0.00000000000E+00 -0.00000000000E+00 -0.10000000000E+04  0.10000000000E+04  0.00000000000E+00 0.  1.
    9000005    2    1    2  501    0  0.92290225714E-02  0.12112902885E-01 -0.88930130913E+03  0.11106913247E+04  0.66541596022E+03 0.  0.
         13    1    3    3    0    0  0.26688042057E+03 -0.19848764834E+03 -0.45882920892E+03  0.56669811045E+03  0.00000000000E+00 0.  1.
          1    1    3    3  501    0 -0.26687119155E+03  0.19849976124E+03 -0.43047210021E+03  0.54399321426E+03  0.00000000000E+00 0.  1.
         21    1    1    2  502  501 -0.92290225714E-02 -0.12112902885E-01  0.12057631266E-01  0.19423793287E-01  0.00000000000E+00 0. -1.
<mgrwt>
<rscale>  1 0.66541596E+03</rscale>
<asrwt>0</asrwt>
<pdfrwt beam="1">  1        1 0.40258539E+00 0.66541596E+03</pdfrwt>
<pdfrwt beam="2">0</pdfrwt>
<totfact> 0.12990190E+00</totfact>
</mgrwt>
</event>
<event>
 6    1  0.4693694E-003  0.6487551E+03  0.7818608E-02  0.9809118E-01
          1   -1    0    0  502    0  0.00000000000E+00  0.00000000000E+00  0.10525621869E+03  0.10525621869E+03  0.00000000000E+00 0.  1.
         13   -1    0    0    0    0 -0.00000000000E+00 -0.00000000000E+00 -0.10000000000E+04  0.10000000000E+04  0.00000000000E+00 0.  1.
    9000005    2    1    2  501    0 -0.64918676563E-03 -0.58242683053E-03 -0.89477920216E+03  0.11052207871E+04  0.64875509063E+03 0.  0.
         13    1    3    3    0    0 -0.21076923607E+03 -0.14047874807E+03 -0.10217167328E+03  0.27312451438E+03  0.00000000000E+00 0.  1.
          3    1    3    3  501    0  0.21076858689E+03  0.14047816564E+03 -0.79260752888E+03  0.83209627272E+03  0.00000000000E+00 0.  1.
         21    1    1    2  502  501  0.64918676564E-03  0.58242683052E-03  0.35420854376E-01  0.35431590272E-01  0.00000000000E+00 0. -1.
<mgrwt>
<rscale>  1 0.64875509E+03</rscale>
<asrwt>0</asrwt>
<pdfrwt beam="1">  1        1 0.38275069E+00 0.64875509E+03</pdfrwt>
<pdfrwt beam="2">0</pdfrwt>
<totfact> 0.15960831E+00</totfact>
</mgrwt>
</event>
<event>
 6    1  0.4693694E-003  0.6073574E+03  0.7818608E-02  0.9890258E-01
          1   -1    0    0  502    0  0.00000000000E+00  0.00000000000E+00  0.92428532754E+02  0.92428532754E+02  0.00000000000E+00 0.  1.
         13   -1    0    0    0    0 -0.00000000000E+00 -0.00000000000E+00 -0.10000000000E+04  0.10000000000E+04  0.00000000000E+00 0.  1.
    9000005    2    1    2  501    0 -0.63662374471E-01  0.66187570497E+00 -0.90683746710E+03  0.10914381346E+04  0.60735703481E+03 0.  0.
         13    1    3    3    0    0  0.18591884613E+03 -0.16056722850E+02 -0.88380433484E+03  0.90329050586E+03  0.00000000000E+00 0.  1.
          1    1    3    3  501    0 -0.18598250850E+03  0.16718598555E+02 -0.23033132258E+02  0.18814762871E+03  0.00000000000E+00 0.  1.
         21    1    1    2  502  501  0.63662374471E-01 -0.66187570497E+00 -0.73400014839E+00  0.99039818487E+00  0.00000000000E+00 0.  1.
<mgrwt>
<rscale>  1 0.60735740E+03</rscale>
<asrwt>0</asrwt>
<pdfrwt beam="1">  1        1 0.33610446E+00 0.60735740E+03</pdfrwt>
<pdfrwt beam="2">0</pdfrwt>
<totfact> 0.25724667E+00</totfact>
</mgrwt>
</event>
<event>
 6    1  0.4693694E-003  0.6306068E+03  0.7818608E-02  0.9843865E-01
          1   -1    0    0  502    0  0.00000000000E+00  0.00000000000E+00  0.10113295944E+03  0.10113295944E+03  0.00000000000E+00 0.  1.
         13   -1    0    0    0    0 -0.00000000000E+00 -0.00000000000E+00 -0.10000000000E+04  0.10000000000E+04  0.00000000000E+00 0.  1.
    9000005    2    1    2  501    0  0.27401323544E+00 -0.73005447147E-01 -0.90057086744E+03  0.10994056960E+04  0.63060678450E+03 0.  0.
         13    1    3    3    0    0 -0.34125820011E+02  0.19821210975E+03 -0.87348780534E+03  0.89634455324E+03  0.00000000000E+00 0.  1.
          1    1    3    3  501    0  0.34399833246E+02 -0.19828511520E+03 -0.27083062094E+02  0.20306114273E+03  0.00000000000E+00 0.  1.
         21    1    1    2  502  501 -0.27401323544E+00  0.73005447147E-01  0.17038268760E+01  0.17272634634E+01  0.00000000000E+00 0.  1.
<mgrwt>
<rscale>  1 0.63060685E+03</rscale>
<asrwt>0</asrwt>
<pdfrwt beam="1">  1        1 0.36775699E+00 0.63060685E+03</pdfrwt>
<pdfrwt beam="2">0</pdfrwt>
<totfact> 0.18642592E+00</totfact>
</mgrwt>
</event>
<event>
 6    1  0.4693694E-003  0.6597532E+03  0.7818608E-02  0.9788648E-01
          1   -1    0    0  502    0  0.00000000000E+00  0.00000000000E+00  0.10882014825E+03  0.10882014825E+03  0.00000000000E+00 0.  1.
         13   -1    0    0    0    0 -0.00000000000E+00 -0.00000000000E+00 -0.10000000000E+04  0.10000000000E+04  0.00000000000E+00 0.  1.
    9000005    2    1    2  501    0 -0.96428524330E-05 -0.37605304158E-04 -0.89118142085E+03  0.11088185787E+04  0.65975322320E+03 0.  0.
         13    1    3    3    0    0 -0.28187410221E+03 -0.16756527750E+03 -0.50589460127E+03  0.60287683594E+03  0.00000000000E+00 0.  1.
          3    1    3    3  501    0  0.28187409257E+03  0.16756523990E+03 -0.38528681959E+03  0.50594174272E+03  0.00000000000E+00 0.  1.
         21    1    1    2  502  501  0.96428524206E-05  0.37605304138E-04  0.15691065470E-02  0.15695867288E-02  0.00000000000E+00 0.  1.
<mgrwt>
<rscale>  1 0.65975322E+03</rscale>
<asrwt>0</asrwt>
<pdfrwt beam="1">  1        1 0.39571046E+00 0.65975322E+03</pdfrwt>
<pdfrwt beam="2">0</pdfrwt>
<totfact> 0.13954626E+00</totfact>
</mgrwt>
</event>
<event>
 6    1  0.4693694E-003  0.6517928E+03  0.7818608E-02  0.9803421E-01
          1   -1    0    0  502    0  0.00000000000E+00  0.00000000000E+00  0.10629922550E+03  0.10629922550E+03  0.00000000000E+00 0.  1.
         13   -1    0    0    0    0 -0.00000000000E+00 -0.00000000000E+00 -0.10000000000E+04  0.10000000000E+04  0.00000000000E+00 0.  1.
    9000005    2    1    2  501    0 -0.80623332826E-02 -0.13138707021E-02 -0.89379133634E+03  0.11062082960E+04  0.65179279004E+03 0.  0.
         13    1    3    3    0    0  0.26353882330E+03 -0.59929023948E+02 -0.13782686322E+03  0.30338167961E+03  0.00000000000E+00 0.  1.
          1    1    3    3  501    0 -0.26354688563E+03  0.59927710077E+02 -0.75596447312E+03  0.80282661639E+03  0.00000000000E+00 0.  1.
         21    1    1    2  502  501  0.80623332826E-02  0.13138707021E-02  0.90561836978E-01  0.90929499014E-01  0.00000000000E+00 0.  1.
<mgrwt>
<rscale>  1 0.65179279E+03</rscale>
<asrwt>0</asrwt>
<pdfrwt beam="1">  1        1 0.38654345E+00 0.65179279E+03</pdfrwt>
<pdfrwt beam="2">0</pdfrwt>
<totfact> 0.15347536E+00</totfact>
</mgrwt>
</event>
<event>
 6    1  0.4693694E-003  0.6403250E+03  0.7818608E-02  0.9825105E-01
          1   -1    0    0  502    0  0.00000000000E+00  0.00000000000E+00  0.10250436161E+03  0.10250436161E+03  0.00000000000E+00 0.  1.
         13   -1    0    0    0    0 -0.00000000000E+00 -0.00000000000E+00 -0.10000000000E+04  0.10000000000E+04  0.00000000000E+00 0.  1.
    9000005    2    1    2  501    0 -0.21550845560E-03 -0.60663937371E-03 -0.89749558354E+03  0.11025037155E+04  0.64032501138E+03 0.  0.
         13    1    3    3    0    0 -0.30683268462E+03 -0.53399371900E+02 -0.32098324834E+03  0.44724493847E+03  0.00000000000E+00 0.  1.
          3    1    3    3  501    0  0.30683246911E+03  0.53398765261E+02 -0.57651233520E+03  0.65525877703E+03  0.00000000000E+00 0.  1.
         21    1    1    2  502  501  0.21550845560E-03  0.60663937371E-03 -0.54851727229E-04  0.64611449152E-03  0.00000000000E+00 0. -1.
<mgrwt>
<rscale>  1 0.64032501E+03</rscale>
<asrwt>0</asrwt>
<pdfrwt beam="1">  1        1 0.37274392E+00 0.64032501E+03</pdfrwt>
<pdfrwt beam="2">0</pdfrwt>
<totfact> 0.17694262E+00</totfact>
</mgrwt>
</event>
<event>
 6    1  0.4693694E-003  0.6270136E+03  0.7818608E-02  0.9850894E-01
          1   -1    0    0  502    0  0.00000000000E+00  0.00000000000E+00  0.99078682590E+02  0.99078682590E+02  0.00000000000E+00 0.  1.
         13   -1    0    0    0    0 -0.00000000000E+00 -0.00000000000E+00 -0.10000000000E+04  0.10000000000E+04  0.00000000000E+00 0.  1.
    9000005    2    1    2  501    0 -0.73558515833E-02 -0.33801948946E-01 -0.90171307346E+03  0.10982861712E+04  0.62701359298E+03 0.  0.
         13    1    3    3    0    0 -0.25117568278E+03 -0.40833080384E+02 -0.77162075635E+03  0.81249932659E+03  0.00000000000E+00 0.  1.
          3    1    3    3  501    0  0.25116832693E+03  0.40799278435E+02 -0.13009231710E+03  0.28578684460E+03  0.00000000000E+00 0.  1.
         21    1    1    2  502  501  0.73558515833E-02  0.33801948946E-01  0.79175604844E+00  0.79251140089E+00  0.00000000000E+00 0. -1.
<mgrwt>
<rscale>  1 0.62701359E+03</rscale>
<asrwt>0</asrwt>
<pdfrwt beam="1">  1        1 0.36028688E+00 0.62701359E+03</pdfrwt>
<pdfrwt beam="2">0</pdfrwt>
<totfact> 0.20114509E+00</totfact>
</mgrwt>
</event>
<event>
 6    1  0.4693694E-003  0.6836316E+03  0.7818608E-02  0.9745641E-01
          1   -1    0    0  502    0  0.00000000000E+00  0.00000000000E+00  0.11699148917E+03  0.11699148917E+03  0.00000000000E+00 0.  1.
         13   -1    0    0    0    0 -0.00000000000E+00 -0.00000000000E+00 -0.10000000000E+04  0.10000000000E+04  0.00000000000E+00 0.  1.
    9000005    2    1    2  501    0  0.13878455766E+00 -0.76726792527E-01 -0.88311469714E+03  0.11168006393E+04  0.68363153409E+03 0.  0.
         13    1    3    3    0    0  0.29467150991E+03  0.11917380808E+01 -0.15846418318E+03  0.33457976081E+03  0.00000000000E+00 0.  1.
          1    1    3    3  501    0 -0.29453272535E+03 -0.12684648733E+01 -0.72465051396E+03  0.78222087845E+03  0.00000000000E+00 0.  1.
         21    1    1    2  502  501 -0.13878455766E+00  0.76726792527E-01  0.10618630748E+00  0.19084990446E+00  0.00000000000E+00 0.  1.
<mgrwt>
<rscale>  1 0.68363155E+03</rscale>
<asrwt>0</asrwt>
<pdfrwt beam="1">  1        1 0.42542449E+00 0.68363155E+03</pdfrwt>
<pdfrwt beam="2">0</pdfrwt>
<totfact> 0.10218731E+00</totfact>
</mgrwt>
</event>
<event>
 6    1  0.4693694E-003  0.6463152E+03  0.7818608E-02  0.9813718E-01
          1   -1    0    0  502    0  0.00000000000E+00  0.00000000000E+00  0.10443449223E+03  0.10443449223E+03  0.00000000000E+00 0.  1.
         13   -1    0    0    0    0 -0.00000000000E+00 -0.00000000000E+00 -0.10000000000E+04  0.10000000000E+04  0.00000000000E+00 0.  1.
    9000005    2    1    2  501    0  0.19637375300E-03  0.53555693924E-04 -0.89556915699E+03  0.11044308373E+04  0.64631521683E+03 0.  0.
         13    1    3    3    0    0 -0.26862010379E+03  0.97479720925E+02 -0.18991958593E+03  0.34311587732E+03  0.00000000000E+00 0.  1.
          3    1    3    3  501    0  0.26862030016E+03 -0.97479667369E+02 -0.70564957106E+03  0.76131496001E+03  0.00000000000E+00 0.  1.
         21    1    1    2  502  501 -0.19637375301E-03 -0.53555693931E-04  0.36492176126E-02  0.36548898817E-02  0.00000000000E+00 0.  1.
<mgrwt>
<rscale>  1 0.64631522E+03</rscale>
<asrwt>0</asrwt>
<pdfrwt beam="1">  1        1 0.37976259E+00 0.64631522E+03</pdfrwt>
<pdfrwt beam="2">0</pdfrwt>
<totfact> 0.16460493E+00</totfact>
</mgrwt>
</event>
<event>
 6    1  0.7089723E-003  0.6314453E+03  0.7818608E-02  0.9842232E-01
          1   -1    0    0  502    0  0.00000000000E+00  0.00000000000E+00  0.99680801812E+02  0.99680801812E+02  0.00000000000E+00 0.  1.
         13   -1    0    0    0    0 -0.00000000000E+00 -0.00000000000E+00 -0.10000000000E+04  0.10000000000E+04  0.00000000000E+00 0.  1.
    9000005    2    1    2  501    0 -0.82483826702E-06 -0.54069647604E-06 -0.90031920824E+03  0.10996807917E+04  0.63144530004E+03 0.  0.
         13    1    3    3    0    0  0.10960881663E+03 -0.26561351270E+03 -0.67800176220E+03  0.73637695535E+03  0.00000000000E+00 0.  1.
          3    1    3    3  501    0 -0.10960881746E+03  0.26561351216E+03 -0.22231744604E+03  0.36330383637E+03  0.00000000000E+00 0.  1.
         21    1    1    2  502  501  0.82483826525E-06  0.54069648072E-06  0.10050846663E-04  0.10099120234E-04  0.00000000000E+00 0.  1.
<mgrwt>
<rscale>  1 0.63144530E+03</rscale>
<asrwt>0</asrwt>
<pdfrwt beam="1">  1        1 0.36247641E+00 0.63144530E+03</pdfrwt>
<pdfrwt beam="2">0</pdfrwt>
<totfact> 0.19659861E+00</totfact>
</mgrwt>
</event>
<event>
 6    1  0.4693694E-003  0.5991240E+03  0.7818608E-02  0.9907225E-01
          1   -1    0    0  502    0  0.00000000000E+00  0.00000000000E+00  0.89737446231E+02  0.89737446231E+02  0.00000000000E+00 0.  1.
         13   -1    0    0    0    0 -0.00000000000E+00 -0.00000000000E+00 -0.10000000000E+04  0.10000000000E+04  0.00000000000E+00 0.  1.
    9000005    2    1    2  501    0  0.31490794498E-04  0.97738229101E-05 -0.91026261161E+03  0.10897373796E+04  0.59912397256E+03 0.  0.
         13    1    3    3    0    0 -0.24139201888E+03 -0.83957699370E+02 -0.17090547378E+03  0.30745354614E+03  0.00000000000E+00 0.  1.
          3    1    3    3  501    0  0.24139205037E+03  0.83957709144E+02 -0.73935713783E+03  0.78228383351E+03  0.00000000000E+00 0.  1.
         21    1    1    2  502  501 -0.31490794501E-04 -0.97738229198E-05  0.57845558097E-04  0.66583078513E-04  0.00000000000E+00 0.  1.
<mgrwt>
<rscale>  1 0.59912397E+03</rscale>
<asrwt>0</asrwt>
<pdfrwt beam="1">  1        1 0.32631867E+00 0.59912397E+03</pdfrwt>
<pdfrwt beam="2">0</pdfrwt>
<totfact> 0.28404232E+00</totfact>
</mgrwt>
</event>
<event>
 6    1  0.4693694E-003  0.6373587E+03  0.7818608E-02  0.9830793E-01
          1   -1    0    0  502    0  0.00000000000E+00  0.00000000000E+00  0.10155663322E+03  0.10155663322E+03  0.00000000000E+00 0.  1.
         13   -1    0    0    0    0 -0.00000000000E+00 -0.00000000000E+00 -0.10000000000E+04  0.10000000000E+04  0.00000000000E+00 0.  1.
    9000005    2    1    2  501    0 -0.48611283319E-05 -0.86916272188E-05 -0.89844345867E+03  0.11015565408E+04  0.63735874054E+03 0.  0.
         13    1    3    3    0    0 -0.31659101788E+03  0.20021758803E+02 -0.50180907124E+03  0.59366917337E+03  0.00000000000E+00 0.  1.
          3    1    3    3  501    0  0.31659101302E+03 -0.20021767494E+02 -0.39663438742E+03  0.50788736742E+03  0.00000000000E+00 0.  1.
         21    1    1    2  502  501  0.48611283275E-05  0.86916272189E-05  0.91891231015E-04  0.92429288052E-04  0.00000000000E+00 0.  1.
<mgrwt>
<rscale>  1 0.63735874E+03</rscale>
<asrwt>0</asrwt>
<pdfrwt beam="1">  1        1 0.36929763E+00 0.63735874E+03</pdfrwt>
<pdfrwt beam="2">0</pdfrwt>
<totfact> 0.18331999E+00</totfact>
</mgrwt>
</event>
<event>
 6    1  0.4693694E-003  0.6322001E+03  0.7818608E-02  0.9840765E-01
          1   -1    0    0  502    0  0.00000000000E+00  0.00000000000E+00  0.10148464361E+03  0.10148464361E+03  0.00000000000E+00 0.  1.
         13   -1    0    0    0    0 -0.00000000000E+00 -0.00000000000E+00 -0.10000000000E+04  0.10000000000E+04  0.00000000000E+00 0.  1.
    9000005    2    1    2  501    0 -0.66348062532E+00 -0.48992747410E+00 -0.89996042201E+03  0.10998207776E+04  0.63219957403E+03 0.  0.
         13    1    3    3    0    0 -0.61359795426E+02 -0.23984646369E+03 -0.79294877888E+03  0.83069796952E+03  0.00000000000E+00 0.  1.
          1    1    3    3  501    0  0.60696314801E+02  0.23935653621E+03 -0.10701164313E+03  0.26912280807E+03  0.00000000000E+00 0.  1.
         21    1    1    2  502  501  0.66348062532E+00  0.48992747410E+00  0.14450656262E+01  0.16638660205E+01  0.00000000000E+00 0. -1.
<mgrwt>
<rscale>  1 0.63220011E+03</rscale>
<asrwt>0</asrwt>
<pdfrwt beam="1">  1        1 0.36903585E+00 0.63220011E+03</pdfrwt>
<pdfrwt beam="2">0</pdfrwt>
<totfact> 0.18397893E+00</totfact>
</mgrwt>
</event>
<event>
 6    1  0.4693694E-003  0.6547765E+03  0.7818608E-02  0.9797858E-01
          1   -1    0    0  502    0  0.00000000000E+00  0.00000000000E+00  0.10718335846E+03  0.10718335846E+03  0.00000000000E+00 0.  1.
         13   -1    0    0    0    0 -0.00000000000E+00 -0.00000000000E+00 -0.10000000000E+04  0.10000000000E+04  0.00000000000E+00 0.  1.
    9000005    2    1    2  501    0  0.89219863277E-04  0.20841111534E-03 -0.89281689845E+03  0.11071830158E+04  0.65477646289E+03 0.  0.
         13    1    3    3    0    0 -0.17565788219E+02  0.24194133992E+02 -0.99768664695E+03  0.99813453929E+03  0.00000000000E+00 0.  1.
          3    1    3    3  501    0  0.17565877439E+02 -0.24193925581E+02  0.10486974849E+03  0.10904847653E+03  0.00000000000E+00 0.  1.
         21    1    1    2  502  501 -0.89219863280E-04 -0.20841111534E-03  0.25691604419E-03  0.34263862999E-03  0.00000000000E+00 0. -1.
<mgrwt>
<rscale>  1 0.65477646E+03</rscale>
<asrwt>0</asrwt>
<pdfrwt beam="1">  1        1 0.38975849E+00 0.65477646E+03</pdfrwt>
<pdfrwt beam="2">0</pdfrwt>
<totfact> 0.14844127E+00</totfact>
</mgrwt>
</event>
<event>
 6    1  0.4693694E-003  0.6316309E+03  0.7818608E-02  0.9841871E-01
          1   -1    0    0  502    0  0.00000000000E+00  0.00000000000E+00  0.99739523717E+02  0.99739523717E+02  0.00000000000E+00 0.  1.
         13   -1    0    0    0    0 -0.00000000000E+00 -0.00000000000E+00 -0.10000000000E+04  0.10000000000E+04  0.00000000000E+00 0.  1.
    9000005    2    1    2  501    0  0.80174368406E-05 -0.44641765840E-04 -0.90026061022E+03  0.10997393823E+04  0.63163085951E+03 0.  0.
         13    1    3    3    0    0 -0.74249642748E+02  0.16033767200E+03  0.56225783334E+01  0.17678459180E+03  0.00000000000E+00 0.  1.
          3    1    3    3  501    0  0.74249650765E+02 -0.16033771665E+03 -0.90588318855E+03  0.92295479051E+03  0.00000000000E+00 0.  1.
         21    1    1    2  502  501 -0.80174368413E-05  0.44641765842E-04  0.13393595015E-03  0.14140723211E-03  0.00000000000E+00 0. -1.
<mgrwt>
<rscale>  1 0.63163086E+03</rscale>
<asrwt>0</asrwt>
<pdfrwt beam="1">  1        1 0.36268994E+00 0.63163086E+03</pdfrwt>
<pdfrwt beam="2">0</pdfrwt>
<totfact> 0.19616928E+00</totfact>
</mgrwt>
</event>
<event>
 6    1  0.4693694E-003  0.6530749E+03  0.7818608E-02  0.9801026E-01
          1   -1    0    0  502    0  0.00000000000E+00  0.00000000000E+00  0.10732166507E+03  0.10732166507E+03  0.00000000000E+00 0.  1.
         13   -1    0    0    0    0 -0.00000000000E+00 -0.00000000000E+00 -0.10000000000E+04  0.10000000000E+04  0.00000000000E+00 0.  1.
    9000005    2    1    2  501    0 -0.41015892240E+00  0.81730116179E+00 -0.89302341002E+03  0.11063442765E+04  0.65307427692E+03 0.  0.
         13    1    3    3    0    0 -0.14856803595E+03 -0.28437033740E+03 -0.54660124220E+03  0.63380743769E+03  0.00000000000E+00 0.  1.
          3    1    3    3  501    0  0.14815787703E+03  0.28518763856E+03 -0.34642216782E+03  0.47253683885E+03  0.00000000000E+00 0.  1.
         21    1    1    2  502  501  0.41015892240E+00 -0.81730116179E+00  0.34507509282E+00  0.97738853604E+00  0.00000000000E+00 0.  1.
<mgrwt>
<rscale>  1 0.65307492E+03</rscale>
<asrwt>0</asrwt>
<pdfrwt beam="1">  1        1 0.39026142E+00 0.65307492E+03</pdfrwt>
<pdfrwt beam="2">0</pdfrwt>
<totfact> 0.14772754E+00</totfact>
</mgrwt>
</event>
<event>
 6    1  0.4693694E-003  0.6328325E+03  0.7818608E-02  0.9839537E-01
          1   -1    0    0  502    0  0.00000000000E+00  0.00000000000E+00  0.10011929412E+03  0.10011929412E+03  0.00000000000E+00 0.  1.
         13   -1    0    0    0    0 -0.00000000000E+00 -0.00000000000E+00 -0.10000000000E+04  0.10000000000E+04  0.00000000000E+00 0.  1.
    9000005    2    1    2  501    0 -0.25076419902E-04 -0.36305879121E-05 -0.89988074602E+03  0.11001192467E+04  0.63283252112E+03 0.  0.
         13    1    3    3    0    0 -0.13083062294E+02  0.26586629959E+03 -0.15256031951E+03  0.30680727969E+03  0.00000000000E+00 0.  1.
          1    1    3    3  501    0  0.13083037217E+02 -0.26586630322E+03 -0.74732042651E+03  0.79331196696E+03  0.00000000000E+00 0.  1.
         21    1    1    2  502  501  0.25076419902E-04  0.36305878817E-05  0.40144726599E-04  0.47472171608E-04  0.00000000000E+00 0.  1.
<mgrwt>
<rscale>  1 0.63283252E+03</rscale>
<asrwt>0</asrwt>
<pdfrwt beam="1">  1        1 0.36407093E+00 0.63283252E+03</pdfrwt>
<pdfrwt beam="2">0</pdfrwt>
<totfact> 0.19341431E+00</totfact>
</mgrwt>
</event>
<event>
 6    1  0.4693694E-003  0.6466500E+03  0.7818608E-02  0.9813086E-01
          1   -1    0    0  502    0  0.00000000000E+00  0.00000000000E+00  0.10490510228E+03  0.10490510228E+03  0.00000000000E+00 0.  1.
         13   -1    0    0    0    0 -0.00000000000E+00 -0.00000000000E+00 -0.10000000000E+04  0.10000000000E+04  0.00000000000E+00 0.  1.
    9000005    2    1    2  501    0 -0.87440640458E-03  0.51538403792E-02 -0.89546093410E+03  0.11045390286E+04  0.64664996802E+03 0.  0.
         13    1    3    3    0    0 -0.76707486562E+02 -0.19443673002E+03 -0.86907215388E+03  0.89385462415E+03  0.00000000000E+00 0.  1.
          1    1    3    3  501    0  0.76706612156E+02  0.19444188386E+03 -0.26388780220E+02  0.21068440443E+03  0.00000000000E+00 0.  1.
         21    1    1    2  502  501  0.87440640458E-03 -0.51538403792E-02  0.36603637115E+00  0.36607369703E+00  0.00000000000E+00 0.  1.
<mgrwt>
<rscale>  1 0.64664997E+03</rscale>
<asrwt>0</asrwt>
<pdfrwt beam="1">  1        1 0.38147390E+00 0.64664997E+03</pdfrwt>
<pdfrwt beam="2">0</pdfrwt>
<totfact> 0.16175704E+00</totfact>
</mgrwt>
</event>
<event>
 6    1  0.4693694E-003  0.6232612E+03  0.7818608E-02  0.9858288E-01
          1   -1    0    0  502    0  0.00000000000E+00  0.00000000000E+00  0.97113762839E+02  0.97113762839E+02  0.00000000000E+00 0.  1.
         13   -1    0    0    0    0 -0.00000000000E+00 -0.00000000000E+00 -0.10000000000E+04  0.10000000000E+04  0.00000000000E+00 0.  1.
    9000005    2    1    2  501    0  0.52534047512E-05 -0.79176696630E-05 -0.90288637453E+03  0.10971136251E+04  0.62326118214E+03 0.  0.
         13    1    3    3    0    0  0.47332478888E+02  0.61422433534E+02 -0.98274588295E+03  0.98580046123E+03  0.00000000000E+00 0.  1.
          1    1    3    3  501    0 -0.47332473635E+02 -0.61422441451E+02  0.79859508426E+02  0.11131316391E+03  0.00000000000E+00 0.  1.
         21    1    1    2  502  501 -0.52534047512E-05  0.79176696600E-05  0.13736741166E-03  0.13769565549E-03  0.00000000000E+00 0. -1.
<mgrwt>
<rscale>  1 0.62326118E+03</rscale>
<asrwt>0</asrwt>
<pdfrwt beam="1">  1        1 0.35314170E+00 0.62326118E+03</pdfrwt>
<pdfrwt beam="2">0</pdfrwt>
<totfact> 0.21627772E+00</totfact>
</mgrwt>
</event>
<event>
 6    1  0.4693694E-003  0.6502131E+03  0.7818608E-02  0.9806379E-01
          1   -1    0    0  502    0  0.00000000000E+00  0.00000000000E+00  0.10602914084E+03  0.10602914084E+03  0.00000000000E+00 0.  1.
         13   -1    0    0    0    0 -0.00000000000E+00 -0.00000000000E+00 -0.10000000000E+04  0.10000000000E+04  0.00000000000E+00 0.  1.
    9000005    2    1    2  501    0  0.64874564261E-02 -0.74730088751E-02 -0.89430564725E+03  0.11056942065E+04  0.65021310932E+03 0.  0.
         13    1    3    3    0    0 -0.13801254478E+03 -0.23020438709E+03 -0.75911169575E+03  0.80516587669E+03  0.00000000000E+00 0.  1.
          1    1    3    3  501    0  0.13801903224E+03  0.23019691408E+03 -0.13519395150E+03  0.30052832983E+03  0.00000000000E+00 0.  1.
         21    1    1    2  502  501 -0.64874564261E-02  0.74730088751E-02  0.33478809396E+00  0.33493432313E+00  0.00000000000E+00 0. -1.
<mgrwt>
<rscale>  1 0.65021311E+03</rscale>
<asrwt>0</asrwt>
<pdfrwt beam="1">  1        1 0.38556133E+00 0.65021311E+03</pdfrwt>
<pdfrwt beam="2">0</pdfrwt>
<totfact> 0.15506435E+00</totfact>
</mgrwt>
</event>
<event>
 6    1  0.4693694E-003  0.6530300E+03  0.7818608E-02  0.9801110E-01
          1   -1    0    0  502    0  0.00000000000E+00  0.00000000000E+00  0.10661225929E+03  0.10661225929E+03  0.00000000000E+00 0.  1.
         13   -1    0    0    0    0 -0.00000000000E+00 -0.00000000000E+00 -0.10000000000E+04  0.10000000000E+04  0.00000000000E+00 0.  1.
    9000005    2    1    2  501    0 -0.19824085626E-03  0.82115640254E-04 -0.89338789617E+03  0.11066119943E+04  0.65302999389E+03 0.  0.
         13    1    3    3    0    0 -0.85541290796E+02 -0.14612568875E+03  0.26400727005E+02  0.17136810593E+03  0.00000000000E+00 0.  1.
          3    1    3    3  501    0  0.85541092555E+02  0.14612577087E+03 -0.91978862318E+03  0.93524388838E+03  0.00000000000E+00 0.  1.
         21    1    1    2  502  501  0.19824085627E-03 -0.82115640265E-04  0.15546085213E-03  0.26497262503E-03  0.00000000000E+00 0. -1.
<mgrwt>
<rscale>  1 0.65302999E+03</rscale>
<asrwt>0</asrwt>
<pdfrwt beam="1">  1        1 0.38768176E+00 0.65302999E+03</pdfrwt>
<pdfrwt beam="2">0</pdfrwt>
<totfact> 0.15166968E+00</totfact>
</mgrwt>
</event>
<event>
 6    1  0.4693694E-003  0.6583356E+03  0.7818608E-02  0.9791263E-01
          1   -1    0    0  502    0  0.00000000000E+00  0.00000000000E+00  0.10852040648E+03  0.10852040648E+03  0.00000000000E+00 0.  1.
         13   -1    0    0    0    0 -0.00000000000E+00 -0.00000000000E+00 -0.10000000000E+04  0.10000000000E+04  0.00000000000E+00 0.  1.
    9000005    2    1    2  501    0  0.68232855237E-01  0.63763628121E-01 -0.89163414651E+03  0.11083398292E+04  0.65833556570E+03 0.  0.
         13    1    3    3    0    0 -0.23545342002E+03  0.22229459742E+03 -0.34626526967E+03  0.47408104584E+03  0.00000000000E+00 0.  1.
          3    1    3    3  501    0  0.23552165287E+03 -0.22223083379E+03 -0.54536887684E+03  0.63425878337E+03  0.00000000000E+00 0.  1.
         21    1    1    2  502  501 -0.68232855237E-01 -0.63763628121E-01  0.15455298847E+00  0.18057726615E+00  0.00000000000E+00 0. -1.
<mgrwt>
<rscale>  1 0.65833557E+03</rscale>
<asrwt>0</asrwt>
<pdfrwt beam="1">  1        1 0.39462049E+00 0.65833557E+03</pdfrwt>
<pdfrwt beam="2">0</pdfrwt>
<totfact> 0.14114978E+00</totfact>
</mgrwt>
</event>
<event>
 6    1  0.4693694E-003  0.6489902E+03  0.7818608E-02  0.9808676E-01
          1   -1    0    0  502    0  0.00000000000E+00  0.00000000000E+00  0.10530640589E+03  0.10530640589E+03  0.00000000000E+00 0.  1.
         13   -1    0    0    0    0 -0.00000000000E+00 -0.00000000000E+00 -0.10000000000E+04  0.10000000000E+04  0.00000000000E+00 0.  1.
    9000005    2    1    2  501    0  0.93110659776E-04 -0.32020479227E-02 -0.89470261987E+03  0.11052968285E+04  0.64899021651E+03 0.  0.
         13    1    3    3    0    0 -0.16393081033E+03 -0.26782104744E+03 -0.58672155945E+03  0.66546495952E+03  0.00000000000E+00 0.  1.
          1    1    3    3  501    0  0.16393090344E+03  0.26781784539E+03 -0.30798106042E+03  0.43983186900E+03  0.00000000000E+00 0.  1.
         21    1    1    2  502  501 -0.93110659780E-04  0.32020479227E-02  0.90257564167E-02  0.95773722590E-02  0.00000000000E+00 0. -1.
<mgrwt>
<rscale>  1 0.64899022E+03</rscale>
<asrwt>0</asrwt>
<pdfrwt beam="1">  1        1 0.38293319E+00 0.64899022E+03</pdfrwt>
<pdfrwt beam="2">0</pdfrwt>
<totfact> 0.15930533E+00</totfact>
</mgrwt>
</event>
<event>
 6    1  0.4693694E-003  0.6495592E+03  0.7818608E-02  0.9807607E-01
          3   -1    0    0  502    0  0.00000000000E+00  0.00000000000E+00  0.11541727626E+03  0.11541727626E+03  0.00000000000E+00 0.  1.
         13   -1    0    0    0    0 -0.00000000000E+00 -0.00000000000E+00 -0.10000000000E+04  0.10000000000E+04  0.00000000000E+00 0.  1.
    9000005    2    1    2  501    0 -0.23429412407E+00  0.61286686568E+00 -0.89450622861E+03  0.11054721041E+04  0.64955888842E+03 0.  0.
         13    1    3    3    0    0  0.92018781881E+02  0.12017815429E+02 -0.97687525852E+03  0.98127323148E+03  0.00000000000E+00 0.  1.
          1    1    3    3  501    0 -0.92253076005E+02 -0.11404948563E+02  0.82369029910E+02  0.12419887267E+03  0.00000000000E+00 0.  1.
         21    1    1    2  502  501  0.23429412407E+00 -0.61286686568E+00  0.99235048710E+01  0.99451721180E+01  0.00000000000E+00 0. -1.
<mgrwt>
<rscale>  1 0.64955922E+03</rscale>
<asrwt>0</asrwt>
<pdfrwt beam="1">  1        3 0.41970007E+00 0.64955922E+03</pdfrwt>
<pdfrwt beam="2">0</pdfrwt>
<totfact> 0.46771119E-02</totfact>
</mgrwt>
</event>
<event>
 6    1  0.4693694E-003  0.6408791E+03  0.7818608E-02  0.9824046E-01
          1   -1    0    0  502    0  0.00000000000E+00  0.00000000000E+00  0.10294603016E+03  0.10294603016E+03  0.00000000000E+00 0.  1.
         13   -1    0    0    0    0 -0.00000000000E+00 -0.00000000000E+00 -0.10000000000E+04  0.10000000000E+04  0.00000000000E+00 0.  1.
    9000005    2    1    2  501    0  0.31097194781E-02  0.16495835299E-01 -0.89731818922E+03  0.11026812781E+04  0.64087913684E+03 0.  0.
         13    1    3    3    0    0  0.10598772104E+03 -0.19508945624E+03 -0.51109102367E+02  0.22782763943E+03  0.00000000000E+00 0.  1.
          1    1    3    3  501    0 -0.10598461132E+03  0.19510595207E+03 -0.84620908686E+03  0.87485363864E+03  0.00000000000E+00 0.  1.
         21    1    1    2  502  501 -0.31097194781E-02 -0.16495835299E-01  0.26421938038E+00  0.26475208007E+00  0.00000000000E+00 0. -1.
<mgrwt>
<rscale>  1 0.64087914E+03</rscale>
<asrwt>0</asrwt>
<pdfrwt beam="1">  1        1 0.37434999E+00 0.64087914E+03</pdfrwt>
<pdfrwt beam="2">0</pdfrwt>
<totfact> 0.17406989E+00</totfact>
</mgrwt>
</event>
<event>
 6    1  0.4693694E-003  0.6335810E+03  0.7818608E-02  0.9838086E-01
          1   -1    0    0  502    0  0.00000000000E+00  0.00000000000E+00  0.10035801208E+03  0.10035801208E+03  0.00000000000E+00 0.  1.
         13   -1    0    0    0    0 -0.00000000000E+00 -0.00000000000E+00 -0.10000000000E+04  0.10000000000E+04  0.00000000000E+00 0.  1.
    9000005    2    1    2  501    0  0.11546915642E-02  0.10409720517E-05 -0.89964356363E+03  0.11003560586E+04  0.63358102408E+03 0.  0.
         13    1    3    3    0    0  0.12388368528E+03 -0.27541209505E+03 -0.61601663570E+03  0.68605793125E+03  0.00000000000E+00 0.  1.
          1    1    3    3  501    0 -0.12388253059E+03  0.27541209610E+03 -0.28362692793E+03  0.41429812733E+03  0.00000000000E+00 0.  1.
         21    1    1    2  502  501 -0.11546915642E-02 -0.10409720711E-05  0.15757046125E-02  0.19534990960E-02  0.00000000000E+00 0. -1.
<mgrwt>
<rscale>  1 0.63358102E+03</rscale>
<asrwt>0</asrwt>
<pdfrwt beam="1">  1        1 0.36493900E+00 0.63358102E+03</pdfrwt>
<pdfrwt beam="2">0</pdfrwt>
<totfact> 0.19170184E+00</totfact>
</mgrwt>
</event>
<event>
 6    1  0.4693694E-003  0.6381708E+03  0.7818608E-02  0.9829233E-01
          1   -1    0    0  502    0  0.00000000000E+00  0.00000000000E+00  0.10181549726E+03  0.10181549726E+03  0.00000000000E+00 0.  1.
         13   -1    0    0    0    0 -0.00000000000E+00 -0.00000000000E+00 -0.10000000000E+04  0.10000000000E+04  0.00000000000E+00 0.  1.
    9000005    2    1    2  501    0 -0.33503776251E-05 -0.31502147522E-05 -0.89818450759E+03  0.11018154906E+04  0.63817079657E+03 0.  0.
         13    1    3    3    0    0 -0.17898893022E+03  0.11605594843E+03 -0.85878914911E+03  0.88488689838E+03  0.00000000000E+00 0.  1.
          3    1    3    3  501    0  0.17898892687E+03 -0.11605595158E+03 -0.39395358486E+02  0.21692859219E+03  0.00000000000E+00 0.  1.
         21    1    1    2  502  501  0.33503776120E-05  0.31502147466E-05  0.48511813000E-05  0.66845226530E-05  0.00000000000E+00 0.  1.
<mgrwt>
<rscale>  1 0.63817080E+03</rscale>
<asrwt>0</asrwt>
<pdfrwt beam="1">  1        1 0.37023895E+00 0.63817080E+03</pdfrwt>
<pdfrwt beam="2">0</pdfrwt>
<totfact> 0.18155653E+00</totfact>
</mgrwt>
</event>
<event>
 6    1  0.4693694E-003  0.6646093E+03  0.7818608E-02  0.9779746E-01
          1   -1    0    0  502    0  0.00000000000E+00  0.00000000000E+00  0.11042643765E+03  0.11042643765E+03  0.00000000000E+00 0.  1.
         13   -1    0    0    0    0 -0.00000000000E+00 -0.00000000000E+00 -0.10000000000E+04  0.10000000000E+04  0.00000000000E+00 0.  1.
    9000005    2    1    2  501    0  0.33183252199E-05 -0.17920407942E-04 -0.88957361763E+03  0.11104263794E+04  0.66460930099E+03 0.  0.
         13    1    3    3    0    0  0.17651534672E+02  0.21292604148E+03 -0.87002745834E+03  0.89587770041E+03  0.00000000000E+00 0.  1.
          3    1    3    3  501    0 -0.17651531353E+02 -0.21292605940E+03 -0.19546159288E+02  0.21454867903E+03  0.00000000000E+00 0.  1.
         21    1    1    2  502  501 -0.33183252222E-05  0.17920407952E-04  0.55282370621E-04  0.58209044013E-04  0.00000000000E+00 0. -1.
<mgrwt>
<rscale>  1 0.66460930E+03</rscale>
<asrwt>0</asrwt>
<pdfrwt beam="1">  1        1 0.40155153E+00 0.66460930E+03</pdfrwt>
<pdfrwt beam="2">0</pdfrwt>
<totfact> 0.13130976E+00</totfact>
</mgrwt>
</event>
<event>
 6    1  0.4693694E-003  0.5896908E+03  0.7818608E-02  0.9927028E-01
          1   -1    0    0  502    0  0.00000000000E+00  0.00000000000E+00  0.86976113930E+02  0.86976113930E+02  0.00000000000E+00 0.  1.
         13   -1    0    0    0    0 -0.00000000000E+00 -0.00000000000E+00 -0.10000000000E+04  0.10000000000E+04  0.00000000000E+00 0.  1.
    9000005    2    1    2  501    0  0.32103659118E-01  0.65393013006E-01 -0.91302954446E+03  0.10869030461E+04  0.58969083192E+03 0.  0.
         13    1    3    3    0    0 -0.24985390035E+03  0.55027124436E+01 -0.74481393787E+03  0.78562398984E+03  0.00000000000E+00 0.  1.
          1    1    3    3  501    0  0.24988600400E+03 -0.54373194306E+01 -0.16821560659E+03  0.30127905626E+03  0.00000000000E+00 0.  1.
         21    1    1    2  502  501 -0.32103659118E-01 -0.65393013006E-01  0.56583876592E-02  0.73067834439E-01  0.00000000000E+00 0.  1.
<mgrwt>
<rscale>  1 0.58969084E+03</rscale>
<asrwt>0</asrwt>
<pdfrwt beam="1">  1        1 0.31627744E+00 0.58969084E+03</pdfrwt>
<pdfrwt beam="2">0</pdfrwt>
<totfact> 0.31443804E+00</totfact>
</mgrwt>
</event>
<event>
 6    1  0.4693694E-003  0.6741336E+03  0.7818608E-02  0.9762519E-01
          1   -1    0    0  502    0  0.00000000000E+00  0.00000000000E+00  0.11416756799E+03  0.11416756799E+03  0.00000000000E+00 0.  1.
         13   -1    0    0    0    0 -0.00000000000E+00 -0.00000000000E+00 -0.10000000000E+04  0.10000000000E+04  0.00000000000E+00 0.  1.
    9000005    2    1    2  501    0  0.13038881925E+00  0.32219437173E+00 -0.88632450377E+03  0.11135651188E+04  0.67413353791E+03 0.  0.
         13    1    3    3    0    0  0.33246298832E+03 -0.51227129269E+02 -0.40683765689E+03  0.52789462627E+03  0.00000000000E+00 0.  1.
          1    1    3    3  501    0 -0.33233259950E+03  0.51549323640E+02 -0.47948684687E+03  0.58567049250E+03  0.00000000000E+00 0.  1.
         21    1    1    2  502  501 -0.13038881925E+00 -0.32219437173E+00  0.49207175581E+00  0.60244922627E+00  0.00000000000E+00 0.  1.
<mgrwt>
<rscale>  1 0.67413363E+03</rscale>
<asrwt>0</asrwt>
<pdfrwt beam="1">  1        1 0.41515567E+00 0.67413363E+03</pdfrwt>
<pdfrwt beam="2">0</pdfrwt>
<totfact> 0.11390704E+00</totfact>
</mgrwt>
</event>
<event>
 6    1  0.4693694E-003  0.6490041E+03  0.7818608E-02  0.9808650E-01
          1   -1    0    0  502    0  0.00000000000E+00  0.00000000000E+00  0.11958699159E+03  0.11958699159E+03  0.00000000000E+00 0.  1.
         13   -1    0    0    0    0 -0.00000000000E+00 -0.00000000000E+00 -0.10000000000E+04  0.10000000000E+04  0.00000000000E+00 0.  1.
    9000005    2    1    2  501    0 -0.10929142083E+02 -0.15132486974E+02 -0.88761809249E+03  0.10995782049E+04  0.64873562585E+03 0.  0.
         13    1    3    3    0    0 -0.13443286880E+02  0.51223475100E+02  0.98176820474E+02  0.11154933636E+03  0.00000000000E+00 0.  1.
          3    1    3    3  501    0  0.25141447977E+01 -0.66355962075E+02 -0.98579491296E+03  0.98802886853E+03  0.00000000000E+00 0.  1.
         21    1    1    2  502  501  0.10929142083E+02  0.15132486974E+02  0.72050840713E+01  0.20008786699E+02  0.00000000000E+00 0.  1.
<mgrwt>
<rscale>  1 0.64900412E+03</rscale>
<asrwt>0</asrwt>
<pdfrwt beam="1">  1        1 0.43486270E+00 0.64900412E+03</pdfrwt>
<pdfrwt beam="2">0</pdfrwt>
<totfact> 0.93215487E-01</totfact>
</mgrwt>
</event>
<event>
 6    1  0.4693694E-003  0.6965099E+03  0.7818608E-02  0.9723219E-01
          1   -1    0    0  502    0  0.00000000000E+00  0.00000000000E+00  0.14241328457E+03  0.14241328457E+03  0.00000000000E+00 0.  1.
         13   -1    0    0    0    0 -0.00000000000E+00 -0.00000000000E+00 -0.10000000000E+04  0.10000000000E+04  0.00000000000E+00 0.  1.
    9000005    2    1    2  501    0 -0.49401286656E+00 -0.59863331679E+00 -0.87871049016E+03  0.11212752556E+04  0.69650949085E+03 0.  0.
         13    1    3    3    0    0  0.31807582504E+03  0.23614354029E+02 -0.66315558523E+03  0.73587036794E+03  0.00000000000E+00 0.  1.
          1    1    3    3  501    0 -0.31856983790E+03 -0.24212987346E+02 -0.21555490493E+03  0.38540488764E+03  0.00000000000E+00 0.  1.
         21    1    1    2  502  501  0.49401286656E+00  0.59863331679E+00  0.21123774737E+02  0.21138028993E+02  0.00000000000E+00 0. -1.
<mgrwt>
<rscale>  1 0.69650992E+03</rscale>
<asrwt>0</asrwt>
<pdfrwt beam="1">  1        1 0.51786758E+00 0.69650992E+03</pdfrwt>
<pdfrwt beam="2">0</pdfrwt>
<totfact> 0.37471274E-01</totfact>
</mgrwt>
</event>
<event>
 6    1  0.4693694E-003  0.6533905E+03  0.7818608E-02  0.9800438E-01
          1   -1    0    0  502    0  0.00000000000E+00  0.00000000000E+00  0.10672977933E+03  0.10672977933E+03  0.00000000000E+00 0.  1.
         13   -1    0    0    0    0 -0.00000000000E+00 -0.00000000000E+00 -0.10000000000E+04  0.10000000000E+04  0.00000000000E+00 0.  1.
    9000005    2    1    2  501    0  0.79409046521E-05 -0.84109136651E-05 -0.89327021230E+03  0.11067297651E+04  0.65339046570E+03 0.  0.
         13    1    3    3    0    0 -0.20686207359E+03  0.25234638870E+03 -0.47390275234E+03  0.57537330148E+03  0.00000000000E+00 0.  1.
          1    1    3    3  501    0  0.20686208153E+03 -0.25234639711E+03 -0.41936745996E+03  0.53135646357E+03  0.00000000000E+00 0.  1.
         21    1    1    2  502  501 -0.79409046356E-05  0.84109136819E-05 -0.83684459223E-05  0.14276985766E-04  0.00000000000E+00 0.  1.
<mgrwt>
<rscale>  1 0.65339047E+03</rscale>
<asrwt>0</asrwt>
<pdfrwt beam="1">  1        1 0.38810911E+00 0.65339047E+03</pdfrwt>
<pdfrwt beam="2">0</pdfrwt>
<totfact> 0.15099992E+00</totfact>
</mgrwt>
</event>
<event>
 6    1  0.4693694E-003  0.7021490E+03  0.7818608E-02  0.9713564E-01
          1   -1    0    0  502    0  0.00000000000E+00  0.00000000000E+00  0.12325336268E+03  0.12325336268E+03  0.00000000000E+00 0.  1.
         13   -1    0    0    0    0 -0.00000000000E+00 -0.00000000000E+00 -0.10000000000E+04  0.10000000000E+04  0.00000000000E+00 0.  1.
    9000005    2    1    2  501    0  0.28602398800E-04 -0.58203849278E-05 -0.87674670097E+03  0.11232532927E+04  0.70214897409E+03 0.  0.
         13    1    3    3    0    0  0.28524521360E+03 -0.20173864388E+03 -0.38318843141E+03  0.51855249135E+03  0.00000000000E+00 0.  1.
          3    1    3    3  501    0 -0.28524518500E+03  0.20173863806E+03 -0.49355826955E+03  0.60470080131E+03  0.00000000000E+00 0.  1.
         21    1    1    2  502  501 -0.28602398839E-04  0.58203849168E-05  0.63643247316E-04  0.70017405185E-04  0.00000000000E+00 0. -1.
<mgrwt>
<rscale>  1 0.70214897E+03</rscale>
<asrwt>0</asrwt>
<pdfrwt beam="1">  1        1 0.44819499E+00 0.70214897E+03</pdfrwt>
<pdfrwt beam="2">0</pdfrwt>
<totfact> 0.80137075E-01</totfact>
</mgrwt>
</event>
<event>
 6    1  0.4693694E-003  0.6669941E+03  0.7818608E-02  0.9775403E-01
          1   -1    0    0  502    0  0.00000000000E+00  0.00000000000E+00  0.11199440040E+03  0.11199440040E+03  0.00000000000E+00 0.  1.
         13   -1    0    0    0    0 -0.00000000000E+00 -0.00000000000E+00 -0.10000000000E+04  0.10000000000E+04  0.00000000000E+00 0.  1.
    9000005    2    1    2  501    0 -0.25192742011E-01 -0.69056590564E-03 -0.88877949432E+03  0.11112200954E+04  0.66699408569E+03 0.  0.
         13    1    3    3    0    0 -0.19482629369E+03  0.26876170058E+03 -0.39080474903E+03  0.51275577840E+03  0.00000000000E+00 0.  1.
          1    1    3    3  501    0  0.19480110094E+03 -0.26876239115E+03 -0.49797474528E+03  0.59846431704E+03  0.00000000000E+00 0.  1.
         21    1    1    2  502  501  0.25192742011E-01  0.69056590564E-03  0.77389471933E+00  0.77430497076E+00  0.00000000000E+00 0.  1.
<mgrwt>
<rscale>  1 0.66699409E+03</rscale>
<asrwt>0</asrwt>
<pdfrwt beam="1">  1        1 0.40725322E+00 0.66699409E+03</pdfrwt>
<pdfrwt beam="2">0</pdfrwt>
<totfact> 0.12376901E+00</totfact>
</mgrwt>
</event>
<event>
 6    1  0.4693694E-003  0.6544494E+03  0.7818608E-02  0.9798466E-01
          1   -1    0    0  502    0  0.00000000000E+00  0.00000000000E+00  0.10707606102E+03  0.10707606102E+03  0.00000000000E+00 0.  1.
         13   -1    0    0    0    0 -0.00000000000E+00 -0.00000000000E+00 -0.10000000000E+04  0.10000000000E+04  0.00000000000E+00 0.  1.
    9000005    2    1    2  501    0 -0.54260475054E-04 -0.16383961690E-03 -0.89292370506E+03  0.11070757703E+04  0.65444940078E+03 0.  0.
         13    1    3    3    0    0  0.64421595830E+02 -0.29745668984E+03 -0.24314834233E+03  0.38955325787E+03  0.00000000000E+00 0.  1.
          3    1    3    3  501    0 -0.64421650091E+02  0.29745652600E+03 -0.64977536273E+03  0.71752251245E+03  0.00000000000E+00 0.  1.
         21    1    1    2  502  501  0.54260475055E-04  0.16383961692E-03 -0.23392274561E-03  0.29070168582E-03  0.00000000000E+00 0.  1.
<mgrwt>
<rscale>  1 0.65444940E+03</rscale>
<asrwt>0</asrwt>
<pdfrwt beam="1">  1        1 0.38936832E+00 0.65444940E+03</pdfrwt>
<pdfrwt beam="2">0</pdfrwt>
<totfact> 0.14904277E+00</totfact>
</mgrwt>
</event>
<event>
 6    1  0.4693694E-003  0.5173505E+03  0.7818608E-02  0.1009347E+00
          1   -1    0    0  502    0  0.00000000000E+00  0.00000000000E+00  0.66914610088E+02  0.66914610088E+02  0.00000000000E+00 0.  1.
         13   -1    0    0    0    0 -0.00000000000E+00 -0.00000000000E+00 -0.10000000000E+04  0.10000000000E+04  0.00000000000E+00 0.  1.
    9000005    2    1    2  501    0 -0.13294179399E-03 -0.96060994892E-04 -0.93308712200E+03  0.10669128703E+04  0.51735045712E+03 0.  0.
         13    1    3    3    0    0  0.24333941112E+03  0.87308839410E+02 -0.48451361396E+03  0.54917241788E+03  0.00000000000E+00 0.  1.
          1    1    3    3  501    0 -0.24333954406E+03 -0.87308935471E+02 -0.44857350803E+03  0.51774045238E+03  0.00000000000E+00 0.  1.
         21    1    1    2  502  501  0.13294179398E-03  0.96060994891E-04  0.17320850170E-02  0.17398332510E-02  0.00000000000E+00 0.  1.
<mgrwt>
<rscale>  1 0.51735046E+03</rscale>
<asrwt>0</asrwt>
<pdfrwt beam="1">  1        1 0.24332637E+00 0.51735046E+03</pdfrwt>
<pdfrwt beam="2">0</pdfrwt>
<totfact> 0.65844141E+00</totfact>
</mgrwt>
</event>
<event>
 6    1  0.4693694E-003  0.6486566E+03  0.7818608E-02  0.9809303E-01
          1   -1    0    0  502    0  0.00000000000E+00  0.00000000000E+00  0.10542135155E+03  0.10542135155E+03  0.00000000000E+00 0.  1.
         13   -1    0    0    0    0 -0.00000000000E+00 -0.00000000000E+00 -0.10000000000E+04  0.10000000000E+04  0.00000000000E+00 0.  1.
    9000005    2    1    2  501    0  0.43546200490E-03 -0.56467692670E-02 -0.89481113134E+03  0.11051887997E+04  0.64865655176E+03 0.  0.
         13    1    3    3    0    0  0.14933797041E+03  0.13696104530E+03 -0.87886888302E+03  0.90192608947E+03  0.00000000000E+00 0.  1.
          1    1    3    3  501    0 -0.14933753495E+03 -0.13696669207E+03 -0.15942248324E+02  0.20326271021E+03  0.00000000000E+00 0.  1.
         21    1    1    2  502  501 -0.43546200492E-03  0.56467692670E-02  0.23248289330E+00  0.23255186799E+00  0.00000000000E+00 0.  1.
<mgrwt>
<rscale>  1 0.64865655E+03</rscale>
<asrwt>0</asrwt>
<pdfrwt beam="1">  1        1 0.38335118E+00 0.64865655E+03</pdfrwt>
<pdfrwt beam="2">0</pdfrwt>
<totfact> 0.15863898E+00</totfact>
</mgrwt>
</event>
<event>
 6    1  0.4693694E-003  0.6437865E+03  0.7818608E-02  0.9818509E-01
          1   -1    0    0  502    0  0.00000000000E+00  0.00000000000E+00  0.10361529807E+03  0.10361529807E+03  0.00000000000E+00 0.  1.
         13   -1    0    0    0    0 -0.00000000000E+00 -0.00000000000E+00 -0.10000000000E+04  0.10000000000E+04  0.00000000000E+00 0.  1.
    9000005    2    1    2  501    0 -0.35963838840E-06  0.89084841761E-05 -0.89638471832E+03  0.11036152794E+04  0.64378654980E+03 0.  0.
         13    1    3    3    0    0 -0.18885692287E+02  0.32133658894E+03 -0.44615641349E+03  0.55015399486E+03  0.00000000000E+00 0.  1.
          1    1    3    3  501    0  0.18885691928E+02 -0.32133658003E+03 -0.45022830484E+03  0.55346128455E+03  0.00000000000E+00 0.  1.
         21    1    1    2  502  501  0.35963838816E-06 -0.89084841704E-05  0.16389056620E-04  0.18657213267E-04  0.00000000000E+00 0. -1.
<mgrwt>
<rscale>  1 0.64378655E+03</rscale>
<asrwt>0</asrwt>
<pdfrwt beam="1">  1        1 0.37678370E+00 0.64378655E+03</pdfrwt>
<pdfrwt beam="2">0</pdfrwt>
<totfact> 0.16973720E+00</totfact>
</mgrwt>
</event>
<event>
 6    1  0.4693694E-003  0.6413600E+03  0.7818608E-02  0.9823128E-01
          1   -1    0    0  502    0  0.00000000000E+00  0.00000000000E+00  0.10310407670E+03  0.10310407670E+03  0.00000000000E+00 0.  1.
         13   -1    0    0    0    0 -0.00000000000E+00 -0.00000000000E+00 -0.10000000000E+04  0.10000000000E+04  0.00000000000E+00 0.  1.
    9000005    2    1    2  501    0 -0.12429434024E+00  0.40428483404E-01 -0.89714667175E+03  0.11028213077E+04  0.64136001507E+03 0.  0.
         13    1    3    3    0    0  0.13544250334E+03  0.11822258891E+03 -0.90511460854E+03  0.92279667686E+03  0.00000000000E+00 0.  1.
          3    1    3    3  501    0 -0.13556679768E+03 -0.11818216043E+03  0.79679367922E+01  0.18002463080E+03  0.00000000000E+00 0.  1.
         21    1    1    2  502  501  0.12429434024E+00 -0.40428483404E-01  0.25074844889E+00  0.28276903987E+00  0.00000000000E+00 0. -1.
<mgrwt>
<rscale>  1 0.64136003E+03</rscale>
<asrwt>0</asrwt>
<pdfrwt beam="1">  1        1 0.37492471E+00 0.64136003E+03</pdfrwt>
<pdfrwt beam="2">0</pdfrwt>
<totfact> 0.17304383E+00</totfact>
</mgrwt>
</event>
<event>
 6    1  0.4693694E-003  0.6598782E+03  0.7818608E-02  0.9788418E-01
          1   -1    0    0  502    0  0.00000000000E+00  0.00000000000E+00  0.10918744450E+03  0.10918744450E+03  0.00000000000E+00 0.  1.
         13   -1    0    0    0    0 -0.00000000000E+00 -0.00000000000E+00 -0.10000000000E+04  0.10000000000E+04  0.00000000000E+00 0.  1.
    9000005    2    1    2  501    0 -0.59295469228E-01 -0.52653372045E-01 -0.89113487265E+03  0.11088555158E+04  0.65987816098E+03 0.  0.
         13    1    3    3    0    0  0.22961259459E+03  0.10922740013E+03 -0.79876195520E+03  0.83825606446E+03  0.00000000000E+00 0.  1.
          3    1    3    3  501    0 -0.22967189006E+03 -0.10928005350E+03 -0.92372917450E+02  0.27059945132E+03  0.00000000000E+00 0.  1.
         21    1    1    2  502  501  0.59295469228E-01  0.52653372045E-01  0.32231714672E+00  0.33192871724E+00  0.00000000000E+00 0. -1.
<mgrwt>
<rscale>  1 0.65987817E+03</rscale>
<asrwt>0</asrwt>
<pdfrwt beam="1">  1        1 0.39704609E+00 0.65987817E+03</pdfrwt>
<pdfrwt beam="2">0</pdfrwt>
<totfact> 0.13764622E+00</totfact>
</mgrwt>
</event>
<event>
 6    1  0.4693694E-003  0.6483877E+03  0.7818608E-02  0.9809809E-01
          1   -1    0    0  502    0  0.00000000000E+00  0.00000000000E+00  0.11052093446E+03  0.11052093446E+03  0.00000000000E+00 0.  1.
         13   -1    0    0    0    0 -0.00000000000E+00 -0.00000000000E+00 -0.10000000000E+04  0.10000000000E+04  0.00000000000E+00 0.  1.
    9000005    2    1    2  501    0 -0.46380827528E+01 -0.34678187176E+00 -0.89377321410E+03  0.11041907069E+04  0.64837097936E+03 0.  0.
         13    1    3    3    0    0 -0.21857567692E+03 -0.23992543986E+03 -0.39951483680E+03  0.51473454135E+03  0.00000000000E+00 0.  1.
          3    1    3    3  501    0  0.21393759417E+03  0.23957865799E+03 -0.49425837729E+03  0.58945616554E+03  0.00000000000E+00 0.  1.
         21    1    1    2  502  501  0.46380827528E+01  0.34678187176E+00  0.42941485587E+01  0.63302275735E+01  0.00000000000E+00 0.  1.
<mgrwt>
<rscale>  1 0.64838766E+03</rscale>
<asrwt>0</asrwt>
<pdfrwt beam="1">  1        1 0.40189515E+00 0.64838766E+03</pdfrwt>
<pdfrwt beam="2">0</pdfrwt>
<totfact> 0.13124936E+00</totfact>
</mgrwt>
</event>
<event>
 6    1  0.4693694E-003  0.6536654E+03  0.7818608E-02  0.9799925E-01
          1   -1    0    0  502    0  0.00000000000E+00  0.00000000000E+00  0.10681964840E+03  0.10681964840E+03  0.00000000000E+00 0.  1.
         13   -1    0    0    0    0 -0.00000000000E+00 -0.00000000000E+00 -0.10000000000E+04  0.10000000000E+04  0.00000000000E+00 0.  1.
    9000005    2    1    2  501    0  0.34928915170E-04  0.36650306598E-04 -0.89318033369E+03  0.11068195947E+04  0.65366543944E+03 0.  0.
         13    1    3    3    0    0  0.30670746050E+03  0.11132702523E+03 -0.41462098403E+03  0.52761134680E+03  0.00000000000E+00 0.  1.
          3    1    3    3  501    0 -0.30670742557E+03 -0.11132698858E+03 -0.47855934965E+03  0.57920824789E+03  0.00000000000E+00 0.  1.
         21    1    1    2  502  501 -0.34928915188E-04 -0.36650306597E-04 -0.17914488546E-04  0.53704776228E-04  0.00000000000E+00 0. -1.
<mgrwt>
<rscale>  1 0.65366544E+03</rscale>
<asrwt>0</asrwt>
<pdfrwt beam="1">  1        1 0.38843590E+00 0.65366544E+03</pdfrwt>
<pdfrwt beam="2">0</pdfrwt>
<totfact> 0.15048965E+00</totfact>
</mgrwt>
</event>
<event>
 6    1  0.4693694E-003  0.6334679E+03  0.7818608E-02  0.9838305E-01
          1   -1    0    0  502    0  0.00000000000E+00  0.00000000000E+00  0.10061714975E+03  0.10061714975E+03  0.00000000000E+00 0.  1.
         13   -1    0    0    0    0 -0.00000000000E+00 -0.00000000000E+00 -0.10000000000E+04  0.10000000000E+04  0.00000000000E+00 0.  1.
    9000005    2    1    2  501    0 -0.73461534556E-01 -0.13275514854E+00 -0.89965814028E+03  0.11003028169E+04  0.63346783386E+03 0.  0.
         13    1    3    3    0    0 -0.33001063588E+02 -0.23135641911E+03 -0.82137808825E+03  0.85397706452E+03  0.00000000000E+00 0.  1.
          3    1    3    3  501    0  0.32927602053E+02  0.23122366396E+03 -0.78280052024E+02  0.24632575240E+03  0.00000000000E+00 0.  1.
         21    1    1    2  502  501  0.73461534556E-01  0.13275514854E+00  0.27529002592E+00  0.31433282503E+00  0.00000000000E+00 0.  1.
<mgrwt>
<rscale>  1 0.63346785E+03</rscale>
<asrwt>0</asrwt>
<pdfrwt beam="1">  1        1 0.36588132E+00 0.63346785E+03</pdfrwt>
<pdfrwt beam="2">0</pdfrwt>
<totfact> 0.18989125E+00</totfact>
</mgrwt>
</event>
<event>
 6    1  0.4693694E-003  0.6576157E+03  0.7818608E-02  0.9792593E-01
          1   -1    0    0  502    0  0.00000000000E+00  0.00000000000E+00  0.12206522462E+03  0.12206522462E+03  0.00000000000E+00 0.  1.
         13   -1    0    0    0    0 -0.00000000000E+00 -0.00000000000E+00 -0.10000000000E+04  0.10000000000E+04  0.00000000000E+00 0.  1.
    9000005    2    1    2  501    0 -0.12708910938E+02 -0.15078098161E+02 -0.88368421541E+03  0.11015244962E+04  0.65731998130E+03 0.  0.
         13    1    3    3    0    0  0.14250385770E+03  0.15896086644E+03 -0.28816730550E+02  0.21542123962E+03  0.00000000000E+00 0.  1.
          3    1    3    3  501    0 -0.15521276863E+03 -0.17403896460E+03 -0.85486748486E+03  0.88610325663E+03  0.00000000000E+00 0.  1.
         21    1    1    2  502  501  0.12708910938E+02  0.15078098161E+02  0.57494400274E+01  0.20540728371E+02  0.00000000000E+00 0. -1.
<mgrwt>
<rscale>  1 0.65761571E+03</rscale>
<asrwt>0</asrwt>
<pdfrwt beam="1">  1        1 0.44387448E+00 0.65761571E+03</pdfrwt>
<pdfrwt beam="2">0</pdfrwt>
<totfact> 0.84634038E-01</totfact>
</mgrwt>
</event>
<event>
 6    1  0.4693694E-003  0.6564322E+03  0.7818608E-02  0.9794784E-01
          1   -1    0    0  502    0  0.00000000000E+00  0.00000000000E+00  0.10781016991E+03  0.10781016991E+03  0.00000000000E+00 0.  1.
         13   -1    0    0    0    0 -0.00000000000E+00 -0.00000000000E+00 -0.10000000000E+04  0.10000000000E+04  0.00000000000E+00 0.  1.
    9000005    2    1    2  501    0 -0.51999387055E-02  0.18090658877E-02 -0.89227409462E+03  0.11077257257E+04  0.65643219255E+03 0.  0.
         13    1    3    3    0    0  0.23998275402E+03 -0.54246177209E+02 -0.81271342072E+03  0.84913925489E+03  0.00000000000E+00 0.  1.
          3    1    3    3  501    0 -0.23998795395E+03  0.54247986275E+02 -0.79560673902E+02  0.25858647082E+03  0.00000000000E+00 0.  1.
         21    1    1    2  502  501  0.51999387055E-02 -0.18090658877E-02  0.84264539064E-01  0.84444210137E-01  0.00000000000E+00 0.  1.
<mgrwt>
<rscale>  1 0.65643219E+03</rscale>
<asrwt>0</asrwt>
<pdfrwt beam="1">  1        1 0.39203781E+00 0.65643219E+03</pdfrwt>
<pdfrwt beam="2">0</pdfrwt>
<totfact> 0.14497999E+00</totfact>
</mgrwt>
</event>
<event>
 6    1  0.4693694E-003  0.6401996E+03  0.7818608E-02  0.9825345E-01
          1   -1    0    0  502    0  0.00000000000E+00  0.00000000000E+00  0.10274728443E+03  0.10274728443E+03  0.00000000000E+00 0.  1.
         13   -1    0    0    0    0 -0.00000000000E+00 -0.00000000000E+00 -0.10000000000E+04  0.10000000000E+04  0.00000000000E+00 0.  1.
    9000005    2    1    2  501    0 -0.51228086352E-02 -0.24999937676E-01 -0.89753549497E+03  0.11024633559E+04  0.64019956706E+03 0.  0.
         13    1    3    3    0    0 -0.32936896068E+02  0.28121703452E+03 -0.70584885131E+03  0.76051986202E+03  0.00000000000E+00 0.  1.
          3    1    3    3  501    0  0.32931773260E+02 -0.28124203445E+03 -0.19168664365E+03  0.34194349385E+03  0.00000000000E+00 0.  1.
         21    1    1    2  502  501  0.51228086352E-02  0.24999937676E-01  0.28277939836E+00  0.28392856177E+00  0.00000000000E+00 0. -1.
<mgrwt>
<rscale>  1 0.64019957E+03</rscale>
<asrwt>0</asrwt>
<pdfrwt beam="1">  1        1 0.37362728E+00 0.64019957E+03</pdfrwt>
<pdfrwt beam="2">0</pdfrwt>
<totfact> 0.17537082E+00</totfact>
</mgrwt>
</event>
<event>
 6    1  0.4693694E-003  0.6559727E+03  0.7818608E-02  0.9795636E-01
          1   -1    0    0  502    0  0.00000000000E+00  0.00000000000E+00  0.10759834070E+03  0.10759834070E+03  0.00000000000E+00 0.  1.
         13   -1    0    0    0    0 -0.00000000000E+00 -0.00000000000E+00 -0.10000000000E+04  0.10000000000E+04  0.00000000000E+00 0.  1.
    9000005    2    1    2  501    0  0.46980875231E-02 -0.50065996770E-02 -0.89242440038E+03  0.11075745858E+04  0.65597267678E+03 0.  0.
         13    1    3    3    0    0  0.27788908645E+03 -0.17136869525E+03 -0.49927871499E+03  0.59654740744E+03  0.00000000000E+00 0.  1.
          1    1    3    3  501    0 -0.27788438837E+03  0.17136368865E+03 -0.39314568539E+03  0.51102717836E+03  0.00000000000E+00 0.  1.
         21    1    1    2  502  501 -0.46980875231E-02  0.50065996770E-02  0.22741086022E-01  0.23754895499E-01  0.00000000000E+00 0. -1.
<mgrwt>
<rscale>  1 0.65597268E+03</rscale>
<asrwt>0</asrwt>
<pdfrwt beam="1">  1        1 0.39126752E+00 0.65597268E+03</pdfrwt>
<pdfrwt beam="2">0</pdfrwt>
<totfact> 0.14613836E+00</totfact>
</mgrwt>
</event>
<event>
 6    1  0.4693694E-003  0.5209485E+03  0.7818608E-02  0.1008451E+00
          1   -1    0    0  502    0  0.00000000000E+00  0.00000000000E+00  0.67846874729E+02  0.67846874729E+02  0.00000000000E+00 0.  1.
         13   -1    0    0    0    0 -0.00000000000E+00 -0.00000000000E+00 -0.10000000000E+04  0.10000000000E+04  0.00000000000E+00 0.  1.
    9000005    2    1    2  501    0  0.17742182990E-04  0.42249171344E-04 -0.93215316297E+03  0.10678468154E+04  0.52094846377E+03 0.  0.
         13    1    3    3    0    0 -0.16895216491E+03 -0.19466844164E+03 -0.54294255568E+03  0.60102184234E+03  0.00000000000E+00 0.  1.
          3    1    3    3  501    0  0.16895218265E+03  0.19466848389E+03 -0.38921060729E+03  0.46682497305E+03  0.00000000000E+00 0.  1.
         21    1    1    2  502  501 -0.17742182993E-04 -0.42249171340E-04  0.37700614676E-04  0.59338974404E-04  0.00000000000E+00 0.  1.
<mgrwt>
<rscale>  1 0.52094846E+03</rscale>
<asrwt>0</asrwt>
<pdfrwt beam="1">  1        1 0.24671643E+00 0.52094846E+03</pdfrwt>
<pdfrwt beam="2">0</pdfrwt>
<totfact> 0.63601838E+00</totfact>
</mgrwt>
</event>
<event>
 6    1  0.4693694E-003  0.6565145E+03  0.7818608E-02  0.9794631E-01
          1   -1    0    0  502    0  0.00000000000E+00  0.00000000000E+00  0.10780899071E+03  0.10780899071E+03  0.00000000000E+00 0.  1.
         13   -1    0    0    0    0 -0.00000000000E+00 -0.00000000000E+00 -0.10000000000E+04  0.10000000000E+04  0.00000000000E+00 0.  1.
    9000005    2    1    2  501    0 -0.25759966609E-02  0.12039567784E-02 -0.89224712927E+03  0.11077527987E+04  0.65651452643E+03 0.  0.
         13    1    3    3    0    0 -0.25523925305E+03 -0.14717570803E+03 -0.20192529133E+03  0.35718565007E+03  0.00000000000E+00 0.  1.
          3    1    3    3  501    0  0.25523667706E+03  0.14717691199E+03 -0.69032183794E+03  0.75056714867E+03  0.00000000000E+00 0.  1.
         21    1    1    2  502  501  0.25759966609E-02 -0.12039567784E-02  0.56119978429E-01  0.56191967838E-01  0.00000000000E+00 0.  1.
<mgrwt>
<rscale>  1 0.65651453E+03</rscale>
<asrwt>0</asrwt>
<pdfrwt beam="1">  1        1 0.39203352E+00 0.65651453E+03</pdfrwt>
<pdfrwt beam="2">0</pdfrwt>
<totfact> 0.14498413E+00</totfact>
</mgrwt>
</event>
<event>
 6    1  0.4693694E-003  0.6484197E+03  0.7818608E-02  0.9809749E-01
          1   -1    0    0  502    0  0.00000000000E+00  0.00000000000E+00  0.10657312070E+03  0.10657312070E+03  0.00000000000E+00 0.  1.
         13   -1    0    0    0    0 -0.00000000000E+00 -0.00000000000E+00 -0.10000000000E+04  0.10000000000E+04  0.00000000000E+00 0.  1.
    9000005    2    1    2  501    0  0.19383179973E-01 -0.40524774694E-01 -0.89488758363E+03  0.11051117258E+04  0.64841972294E+03 0.  0.
         13    1    3    3    0    0  0.69059763952E+02 -0.22874787953E+03 -0.73961461203E+02  0.25013024833E+03  0.00000000000E+00 0.  1.
          3    1    3    3  501    0 -0.69040380772E+02  0.22870735475E+03 -0.82092612243E+03  0.85498147745E+03  0.00000000000E+00 0.  1.
         21    1    1    2  502  501 -0.19383179973E-01  0.40524774694E-01  0.14607043369E+01  0.14613949243E+01  0.00000000000E+00 0.  1.
<mgrwt>
<rscale>  1 0.64841972E+03</rscale>
<asrwt>0</asrwt>
<pdfrwt beam="1">  1        1 0.38753944E+00 0.64841972E+03</pdfrwt>
<pdfrwt beam="2">0</pdfrwt>
<totfact> 0.15201995E+00</totfact>
</mgrwt>
</event>
<event>
 6    1  0.4693694E-003  0.6229767E+03  0.7818608E-02  0.9858851E-01
          1   -1    0    0  502    0  0.00000000000E+00  0.00000000000E+00  0.97033099163E+02  0.97033099163E+02  0.00000000000E+00 0.  1.
         13   -1    0    0    0    0 -0.00000000000E+00 -0.00000000000E+00 -0.10000000000E+04  0.10000000000E+04  0.00000000000E+00 0.  1.
    9000005    2    1    2  501    0 -0.70681309938E-03  0.33378024608E-03 -0.90297498737E+03  0.10970249749E+04  0.62297669926E+03 0.  0.
         13    1    3    3    0    0 -0.26342023041E+03 -0.16093720764E+03 -0.37815732409E+03  0.48815362782E+03  0.00000000000E+00 0.  1.
          1    1    3    3  501    0  0.26341952359E+03  0.16093754142E+03 -0.52481766328E+03  0.60887134712E+03  0.00000000000E+00 0.  1.
         21    1    1    2  502  501  0.70681309940E-03 -0.33378024606E-03  0.80865336736E-02  0.81242243239E-02  0.00000000000E+00 0.  1.
<mgrwt>
<rscale>  1 0.62297670E+03</rscale>
<asrwt>0</asrwt>
<pdfrwt beam="1">  1        1 0.35284838E+00 0.62297670E+03</pdfrwt>
<pdfrwt beam="2">0</pdfrwt>
<totfact> 0.21692690E+00</totfact>
</mgrwt>
</event>
<event>
 6    1  0.4693694E-003  0.6420404E+03  0.7818608E-02  0.9821831E-01
          1   -1    0    0  502    0  0.00000000000E+00  0.00000000000E+00  0.10355186868E+03  0.10355186868E+03  0.00000000000E+00 0.  1.
         13   -1    0    0    0    0 -0.00000000000E+00 -0.00000000000E+00 -0.10000000000E+04  0.10000000000E+04  0.00000000000E+00 0.  1.
    9000005    2    1    2  501    0  0.37445474400E-01 -0.27574818358E-02 -0.89694525696E+03  0.11030533271E+04  0.64204037811E+03 0.  0.
         13    1    3    3    0    0  0.83645619569E+02  0.18707126537E+03 -0.87302745800E+03  0.89675481065E+03  0.00000000000E+00 0.  1.
          1    1    3    3  501    0 -0.83608174095E+02 -0.18707402285E+03 -0.23917798957E+02  0.20629851649E+03  0.00000000000E+00 0.  1.
         21    1    1    2  502  501 -0.37445474400E-01  0.27574818358E-02  0.49712563763E+00  0.49854153974E+00  0.00000000000E+00 0. -1.
<mgrwt>
<rscale>  1 0.64204038E+03</rscale>
<asrwt>0</asrwt>
<pdfrwt beam="1">  1        1 0.37655304E+00 0.64204038E+03</pdfrwt>
<pdfrwt beam="2">0</pdfrwt>
<totfact> 0.17018927E+00</totfact>
</mgrwt>
</event>
<event>
 6    1  0.4693694E-003  0.6723799E+03  0.7818608E-02  0.9765668E-01
          1   -1    0    0  502    0  0.00000000000E+00  0.00000000000E+00  0.11311843363E+03  0.11311843363E+03  0.00000000000E+00 0.  1.
         13   -1    0    0    0    0 -0.00000000000E+00 -0.00000000000E+00 -0.10000000000E+04  0.10000000000E+04  0.00000000000E+00 0.  1.
    9000005    2    1    2  501    0 -0.30552079575E-02 -0.15537012020E-01 -0.88697556753E+03  0.11130231081E+04  0.67237993843E+03 0.  0.
         13    1    3    3    0    0 -0.28683665404E+03 -0.13532235994E+03 -0.25887019197E+03  0.40939123524E+03  0.00000000000E+00 0.  1.
          3    1    3    3  501    0  0.28683359883E+03  0.13530682293E+03 -0.62810537556E+03  0.70363187290E+03  0.00000000000E+00 0.  1.
         21    1    1    2  502  501  0.30552079575E-02  0.15537012020E-01  0.94001153874E-01  0.95325494847E-01  0.00000000000E+00 0.  1.
<mgrwt>
<rscale>  1 0.67237994E+03</rscale>
<asrwt>0</asrwt>
<pdfrwt beam="1">  1        1 0.41134063E+00 0.67237994E+03</pdfrwt>
<pdfrwt beam="2">0</pdfrwt>
<totfact> 0.11853407E+00</totfact>
</mgrwt>
</event>
<event>
 6    1  0.4693694E-003  0.6558386E+03  0.7818608E-02  0.9795885E-01
          1   -1    0    0  502    0  0.00000000000E+00  0.00000000000E+00  0.10753128382E+03  0.10753128382E+03  0.00000000000E+00 0.  1.
         13   -1    0    0    0    0 -0.00000000000E+00 -0.00000000000E+00 -0.10000000000E+04  0.10000000000E+04  0.00000000000E+00 0.  1.
    9000005    2    1    2  501    0  0.10775098659E-04 -0.18089478033E-04 -0.89246893643E+03  0.11075310626E+04  0.65583858689E+03 0.  0.
         13    1    3    3    0    0  0.16138129756E+02  0.31119775683E+03 -0.61867118556E+03  0.69271821033E+03  0.00000000000E+00 0.  1.
          1    1    3    3  501    0 -0.16138118981E+02 -0.31119777491E+03 -0.27379775087E+03  0.41481285223E+03  0.00000000000E+00 0.  1.
         21    1    1    2  502  501 -0.10775098660E-04  0.18089478057E-04  0.22024836527E-03  0.22125251269E-03  0.00000000000E+00 0.  1.
<mgrwt>
<rscale>  1 0.65583859E+03</rscale>
<asrwt>0</asrwt>
<pdfrwt beam="1">  1        1 0.39102367E+00 0.65583859E+03</pdfrwt>
<pdfrwt beam="2">0</pdfrwt>
<totfact> 0.14650657E+00</totfact>
</mgrwt>
</event>
<event>
 6    1  0.4693694E-003  0.6541855E+03  0.7818608E-02  0.9798957E-01
          1   -1    0    0  502    0  0.00000000000E+00  0.00000000000E+00  0.10698972143E+03  0.10698972143E+03  0.00000000000E+00 0.  1.
         13   -1    0    0    0    0 -0.00000000000E+00 -0.00000000000E+00 -0.10000000000E+04  0.10000000000E+04  0.00000000000E+00 0.  1.
    9000005    2    1    2  501    0  0.11746062796E-04 -0.26238302837E-05 -0.89301034402E+03  0.11069896549E+04  0.65418546414E+03 0.  0.
         13    1    3    3    0    0  0.31327162759E+03  0.90671367089E+02 -0.40405748913E+03  0.51925221616E+03  0.00000000000E+00 0.  1.
          3    1    3    3  501    0 -0.31327161584E+03 -0.90671369713E+02 -0.48895285489E+03  0.58773743873E+03  0.00000000000E+00 0.  1.
         21    1    1    2  502  501 -0.11746062804E-04  0.26238302799E-05  0.65443953111E-04  0.66541456819E-04  0.00000000000E+00 0. -1.
<mgrwt>
<rscale>  1 0.65418546E+03</rscale>
<asrwt>0</asrwt>
<pdfrwt beam="1">  1        1 0.38905435E+00 0.65418546E+03</pdfrwt>
<pdfrwt beam="2">0</pdfrwt>
<totfact> 0.14952849E+00</totfact>
</mgrwt>
</event>
<event>
 6    1  0.4693694E-003  0.6436945E+03  0.7818608E-02  0.9818683E-01
          1   -1    0    0  502    0  0.00000000000E+00  0.00000000000E+00  0.10358582412E+03  0.10358582412E+03  0.00000000000E+00 0.  1.
         13   -1    0    0    0    0 -0.00000000000E+00 -0.00000000000E+00 -0.10000000000E+04  0.10000000000E+04  0.00000000000E+00 0.  1.
    9000005    2    1    2  501    0 -0.98953960332E-05  0.29241794266E-05 -0.89641434771E+03  0.11035856520E+04  0.64369449933E+03 0.  0.
         13    1    3    3    0    0 -0.22564879394E+03  0.14497075927E+03 -0.14318940450E+03  0.30403470988E+03  0.00000000000E+00 0.  1.
          1    1    3    3  501    0  0.22564878405E+03 -0.14497075635E+03 -0.75322494321E+03  0.79955094210E+03  0.00000000000E+00 0.  1.
         21    1    1    2  502  501  0.98953960425E-05 -0.29241794154E-05  0.17183091628E-03  0.17214044695E-03  0.00000000000E+00 0.  1.
<mgrwt>
<rscale>  1 0.64369450E+03</rscale>
<asrwt>0</asrwt>
<pdfrwt beam="1">  1        1 0.37667652E+00 0.64369450E+03</pdfrwt>
<pdfrwt beam="2">0</pdfrwt>
<totfact> 0.16992470E+00</totfact>
</mgrwt>
</event>
<event>
 6    1  0.4693694E-003  0.5597783E+03  0.7818608E-02  0.9992556E-01
          1   -1    0    0  502    0  0.00000000000E+00  0.00000000000E+00  0.78345948744E+02  0.78345948744E+02  0.00000000000E+00 0.  1.
         13   -1    0    0    0    0 -0.00000000000E+00 -0.00000000000E+00 -0.10000000000E+04  0.10000000000E+04  0.00000000000E+00 0.  1.
    9000005    2    1    2  501    0  0.57588177498E-04  0.43573433168E-03 -0.92166206713E+03  0.10783379208E+04  0.55977826459E+03 0.  0.
         13    1    3    3    0    0  0.23257472139E+03 -0.22472609899E+02 -0.75765344977E+03  0.79286491231E+03  0.00000000000E+00 0.  1.
          3    1    3    3  501    0 -0.23257466380E+03  0.22473045634E+02 -0.16400861736E+03  0.28547300852E+03  0.00000000000E+00 0.  1.
         21    1    1    2  502  501 -0.57588177495E-04 -0.43573433169E-03  0.80158746352E-02  0.80279154812E-02  0.00000000000E+00 0.  1.
<mgrwt>
<rscale>  1 0.55977826E+03</rscale>
<asrwt>0</asrwt>
<pdfrwt beam="1">  1        1 0.28489496E+00 0.55977826E+03</pdfrwt>
<pdfrwt beam="2">0</pdfrwt>
<totfact> 0.43176196E+00</totfact>
</mgrwt>
</event>
<event>
 6    1  0.4693694E-003  0.6545323E+03  0.7818608E-02  0.9798312E-01
          1   -1    0    0  502    0  0.00000000000E+00  0.00000000000E+00  0.10730263048E+03  0.10730263048E+03  0.00000000000E+00 0.  1.
         13   -1    0    0    0    0 -0.00000000000E+00 -0.00000000000E+00 -0.10000000000E+04  0.10000000000E+04  0.00000000000E+00 0.  1.
    9000005    2    1    2  501    0  0.34259186294E-01 -0.85874893784E-01 -0.89288494831E+03  0.11070935037E+04  0.65453226548E+03 0.  0.
         13    1    3    3    0    0 -0.29677968973E+03 -0.70134050884E+02 -0.64729392876E+03  0.71553224913E+03  0.00000000000E+00 0.  1.
          3    1    3    3  501    0  0.29681394891E+03  0.70048175990E+02 -0.24559101955E+03  0.39156125461E+03  0.00000000000E+00 0.  1.
         21    1    1    2  502  501 -0.34259186294E-01  0.85874893784E-01  0.18757879070E+00  0.20912673657E+00  0.00000000000E+00 0.  1.
<mgrwt>
<rscale>  1 0.65453227E+03</rscale>
<asrwt>0</asrwt>
<pdfrwt beam="1">  1        1 0.39019221E+00 0.65453227E+03</pdfrwt>
<pdfrwt beam="2">0</pdfrwt>
<totfact> 0.14779199E+00</totfact>
</mgrwt>
</event>
<event>
 6    1  0.4693694E-003  0.6447256E+03  0.7818608E-02  0.9816727E-01
          1   -1    0    0  502    0  0.00000000000E+00  0.00000000000E+00  0.12514225929E+03  0.12514225929E+03  0.00000000000E+00 0.  1.
         13   -1    0    0    0    0 -0.00000000000E+00 -0.00000000000E+00 -0.10000000000E+04  0.10000000000E+04  0.00000000000E+00 0.  1.
    9000005    2    1    2  501    0 -0.81377851076E+01 -0.70990191791E+01 -0.89455527877E+03  0.11026786749E+04  0.64463516318E+03 0.  0.
         13    1    3    3    0    0 -0.27124796643E+03  0.11892668689E+03 -0.67638737411E+03  0.73838939321E+03  0.00000000000E+00 0.  1.
          1    1    3    3  501    0  0.26311018132E+03 -0.12602570607E+03 -0.21816790465E+03  0.36428928165E+03  0.00000000000E+00 0.  1.
         21    1    1    2  502  501  0.81377851076E+01  0.70990191791E+01  0.19697538055E+02  0.22463584424E+02  0.00000000000E+00 0. -1.
<mgrwt>
<rscale>  1 0.64472561E+03</rscale>
<asrwt>0</asrwt>
<pdfrwt beam="1">  1        1 0.45506372E+00 0.64472561E+03</pdfrwt>
<pdfrwt beam="2">0</pdfrwt>
<totfact> 0.75370609E-01</totfact>
</mgrwt>
</event>
<event>
 6    1  0.4693694E-003  0.6494676E+03  0.7818608E-02  0.9807779E-01
          3   -1    0    0  502    0  0.00000000000E+00  0.00000000000E+00  0.10545247563E+03  0.10545247563E+03  0.00000000000E+00 0.  1.
         13   -1    0    0    0    0 -0.00000000000E+00 -0.00000000000E+00 -0.10000000000E+04  0.10000000000E+04  0.00000000000E+00 0.  1.
    9000005    2    1    2  501    0 -0.91905624357E-03  0.19595650403E-03 -0.89454725939E+03  0.11054514993E+04  0.64946764197E+03 0.  0.
         13    1    3    3    0    0 -0.76467237247E+02  0.51732594885E+02 -0.97719125332E+03  0.98154278832E+03  0.00000000000E+00 0.  1.
          3    1    3    3  501    0  0.76466318191E+02 -0.51732398928E+02  0.82643993932E+02  0.12390871095E+03  0.00000000000E+00 0.  1.
         21    1    1    2  502  501  0.91905624358E-03 -0.19595650403E-03 -0.26497723743E-03  0.97635867727E-03  0.00000000000E+00 0.  1.
<mgrwt>
<rscale>  1 0.64946764E+03</rscale>
<asrwt>0</asrwt>
<pdfrwt beam="1">  1        3 0.38346436E+00 0.64946764E+03</pdfrwt>
<pdfrwt beam="2">0</pdfrwt>
<totfact> 0.72373167E-02</totfact>
</mgrwt>
</event>
<event>
 6    1  0.4693694E-003  0.6551538E+03  0.7818608E-02  0.9797156E-01
          1   -1    0    0  502    0  0.00000000000E+00  0.00000000000E+00  0.10734532775E+03  0.10734532775E+03  0.00000000000E+00 0.  1.
         13   -1    0    0    0    0 -0.00000000000E+00 -0.00000000000E+00 -0.10000000000E+04  0.10000000000E+04  0.00000000000E+00 0.  1.
    9000005    2    1    2  501    0  0.28948175696E-02 -0.23502529575E-02 -0.89269327012E+03  0.11073065502E+04  0.65515381519E+03 0.  0.
         13    1    3    3    0    0  0.76324798445E+02  0.94945567015E+02  0.67598537027E+02  0.13931869136E+03  0.00000000000E+00 0.  1.
          3    1    3    3  501    0 -0.76321903627E+02 -0.94947917268E+02 -0.96029180715E+03  0.96798785883E+03  0.00000000000E+00 0.  1.
         21    1    1    2  502  501 -0.28948175696E-02  0.23502529575E-02  0.38597867888E-01  0.38777558758E-01  0.00000000000E+00 0. -1.
<mgrwt>
<rscale>  1 0.65515382E+03</rscale>
<asrwt>0</asrwt>
<pdfrwt beam="1">  1        1 0.39034747E+00 0.65515382E+03</pdfrwt>
<pdfrwt beam="2">0</pdfrwt>
<totfact> 0.14754082E+00</totfact>
</mgrwt>
</event>
<event>
 6    1  0.4693694E-003  0.6504301E+03  0.7818608E-02  0.9805972E-01
          3   -1    0    0  502    0  0.00000000000E+00  0.00000000000E+00  0.10576510695E+03  0.10576510695E+03  0.00000000000E+00 0.  1.
         13   -1    0    0    0    0 -0.00000000000E+00 -0.00000000000E+00 -0.10000000000E+04  0.10000000000E+04  0.00000000000E+00 0.  1.
    9000005    2    1    2  501    0  0.67857450858E-06 -0.72472706165E-05 -0.89423515936E+03  0.11057648405E+04  0.65043013639E+03 0.  0.
         13    1    3    3    0    0  0.26627732880E+03  0.17796064425E+03 -0.35107996352E+03  0.47521652699E+03  0.00000000000E+00 0.  1.
          3    1    3    3  501    0 -0.26627732812E+03 -0.17796065150E+03 -0.54315519584E+03  0.63054831355E+03  0.00000000000E+00 0.  1.
         21    1    1    2  502  501 -0.67857451091E-06  0.72472706284E-05  0.26630807475E-03  0.26640753382E-03  0.00000000000E+00 0.  1.
<mgrwt>
<rscale>  1 0.65043014E+03</rscale>
<asrwt>0</asrwt>
<pdfrwt beam="1">  1        3 0.38460120E+00 0.65043014E+03</pdfrwt>
<pdfrwt beam="2">0</pdfrwt>
<totfact> 0.71369426E-02</totfact>
</mgrwt>
</event>
<event>
 6    1  0.4693694E-003  0.6377079E+03  0.7818608E-02  0.9830122E-01
          1   -1    0    0  502    0  0.00000000000E+00  0.00000000000E+00  0.10167032608E+03  0.10167032608E+03  0.00000000000E+00 0.  1.
         13   -1    0    0    0    0 -0.00000000000E+00 -0.00000000000E+00 -0.10000000000E+04  0.10000000000E+04  0.00000000000E+00 0.  1.
    9000005    2    1    2  501    0  0.23986611755E-02  0.52791610501E-03 -0.89833147317E+03  0.11016672815E+04  0.63770789818E+03 0.  0.
         13    1    3    3    0    0  0.52444900521E+02 -0.25317540842E+02 -0.99073463150E+03  0.99244473676E+03  0.00000000000E+00 0.  1.
          3    1    3    3  501    0 -0.52442501859E+02  0.25318068758E+02  0.92403158333E+02  0.10922254473E+03  0.00000000000E+00 0.  1.
         21    1    1    2  502  501 -0.23986611755E-02 -0.52791610501E-03  0.17992478180E-02  0.30445957957E-02  0.00000000000E+00 0. -1.
<mgrwt>
<rscale>  1 0.63770790E+03</rscale>
<asrwt>0</asrwt>
<pdfrwt beam="1">  1        1 0.36971106E+00 0.63770790E+03</pdfrwt>
<pdfrwt beam="2">0</pdfrwt>
<totfact> 0.18254372E+00</totfact>
</mgrwt>
</event>
<event>
 6    1  0.4693694E-003  0.6538941E+03  0.7818608E-02  0.9799499E-01
          1   -1    0    0  502    0  0.00000000000E+00  0.00000000000E+00  0.10691638660E+03  0.10691638660E+03  0.00000000000E+00 0.  1.
         13   -1    0    0    0    0 -0.00000000000E+00 -0.00000000000E+00 -0.10000000000E+04  0.10000000000E+04  0.00000000000E+00 0.  1.
    9000005    2    1    2  501    0 -0.59837162354E-04  0.16320169847E-02 -0.89310559020E+03  0.11068943492E+04  0.65389410845E+03 0.  0.
         13    1    3    3    0    0 -0.22744014314E+03  0.20573501150E+03 -0.63835907292E+03  0.70820775176E+03  0.00000000000E+00 0.  1.
          1    1    3    3  501    0  0.22744008330E+03 -0.20573337948E+03 -0.25474651728E+03  0.39868659745E+03  0.00000000000E+00 0.  1.
         21    1    1    2  502  501  0.59837162371E-04 -0.16320169847E-02  0.21976801064E-01  0.22037396510E-01  0.00000000000E+00 0. -1.
<mgrwt>
<rscale>  1 0.65389411E+03</rscale>
<asrwt>0</asrwt>
<pdfrwt beam="1">  1        1 0.38878768E+00 0.65389411E+03</pdfrwt>
<pdfrwt beam="2">0</pdfrwt>
<totfact> 0.14994408E+00</totfact>
</mgrwt>
</event>
<event>
 6    1  0.4693694E-003  0.6429434E+03  0.7818608E-02  0.9820111E-01
          1   -1    0    0  502    0  0.00000000000E+00  0.00000000000E+00  0.10334407251E+03  0.10334407251E+03  0.00000000000E+00 0.  1.
         13   -1    0    0    0    0 -0.00000000000E+00 -0.00000000000E+00 -0.10000000000E+04  0.10000000000E+04  0.00000000000E+00 0.  1.
    9000005    2    1    2  501    0 -0.23202618422E-05 -0.67573089950E-05 -0.89665593268E+03  0.11033440637E+04  0.64294343549E+03 0.  0.
         13    1    3    3    0    0  0.28772164757E+03  0.13268817359E+03 -0.35505503001E+03  0.47587180231E+03  0.00000000000E+00 0.  1.
          1    1    3    3  501    0 -0.28772164989E+03 -0.13268818034E+03 -0.54160090267E+03  0.62747226137E+03  0.00000000000E+00 0.  1.
         21    1    1    2  502  501  0.23202618771E-05  0.67573090011E-05  0.51961952710E-05  0.88343242757E-05  0.00000000000E+00 0.  1.
<mgrwt>
<rscale>  1 0.64294344E+03</rscale>
<asrwt>0</asrwt>
<pdfrwt beam="1">  1        1 0.37579742E+00 0.64294344E+03</pdfrwt>
<pdfrwt beam="2">0</pdfrwt>
<totfact> 0.17146997E+00</totfact>
</mgrwt>
</event>
<event>
 6    1  0.4693694E-003  0.6253196E+03  0.7818608E-02  0.9854225E-01
          1   -1    0    0  502    0  0.00000000000E+00  0.00000000000E+00  0.10688337886E+03  0.10688337886E+03  0.00000000000E+00 0.  1.
         13   -1    0    0    0    0 -0.00000000000E+00 -0.00000000000E+00 -0.10000000000E+04  0.10000000000E+04  0.00000000000E+00 0.  1.
    9000005    2    1    2  501    0 -0.93798092055E-01  0.70621582951E+00 -0.90222859101E+03  0.10977436013E+04  0.62531917949E+03 0.  0.
         13    1    3    3    0    0 -0.19358928215E+03 -0.14392631415E+03 -0.79973357185E+03  0.83532351817E+03  0.00000000000E+00 0.  1.
          1    1    3    3  501    0  0.19349548406E+03  0.14463252998E+03 -0.10249501916E+03  0.26242008313E+03  0.00000000000E+00 0.  1.
         21    1    1    2  502  501  0.93798092055E-01 -0.70621582951E+00  0.91119698657E+01  0.91397775528E+01  0.00000000000E+00 0.  1.
<mgrwt>
<rscale>  1 0.62531959E+03</rscale>
<asrwt>0</asrwt>
<pdfrwt beam="1">  1        1 0.38866765E+00 0.62531959E+03</pdfrwt>
<pdfrwt beam="2">0</pdfrwt>
<totfact> 0.15093994E+00</totfact>
</mgrwt>
</event>
<event>
 6    1  0.4693694E-003  0.6574941E+03  0.7818608E-02  0.9792818E-01
          1   -1    0    0  502    0  0.00000000000E+00  0.00000000000E+00  0.10808013021E+03  0.10808013021E+03  0.00000000000E+00 0.  1.
         13   -1    0    0    0    0 -0.00000000000E+00 -0.00000000000E+00 -0.10000000000E+04  0.10000000000E+04  0.00000000000E+00 0.  1.
    9000005    2    1    2  501    0  0.16662160678E-03  0.11502045271E-03 -0.89192538900E+03  0.11080746073E+04  0.65749405760E+03 0.  0.
         13    1    3    3    0    0 -0.11136496495E+03  0.30862034012E+03 -0.41118032442E+03  0.52603985490E+03  0.00000000000E+00 0.  1.
          3    1    3    3  501    0  0.11136513157E+03 -0.30862022510E+03 -0.48074506458E+03  0.58203475239E+03  0.00000000000E+00 0.  1.
         21    1    1    2  502  501 -0.16662160678E-03 -0.11502045273E-03  0.55192070663E-02  0.55229194368E-02  0.00000000000E+00 0. -1.
<mgrwt>
<rscale>  1 0.65749406E+03</rscale>
<asrwt>0</asrwt>
<pdfrwt beam="1">  1        1 0.39301948E+00 0.65749406E+03</pdfrwt>
<pdfrwt beam="2">0</pdfrwt>
<totfact> 0.14350365E+00</totfact>
</mgrwt>
</event>
<event>
 6    1  0.4693694E-003  0.6520188E+03  0.7818608E-02  0.9802998E-01
          1   -1    0    0  502    0  0.00000000000E+00  0.00000000000E+00  0.10892629318E+03  0.10892629318E+03  0.00000000000E+00 0.  1.
         13   -1    0    0    0    0 -0.00000000000E+00 -0.00000000000E+00 -0.10000000000E+04  0.10000000000E+04  0.00000000000E+00 0.  1.
    9000005    2    1    2  501    0 -0.11313013881E+01  0.53271691801E+00 -0.89355333396E+03  0.11061492118E+04  0.65201760294E+03 0.  0.
         13    1    3    3    0    0  0.46347066618E+01 -0.13365649534E+03  0.57560985863E+02  0.14559809870E+03  0.00000000000E+00 0.  1.
          3    1    3    3  501    0 -0.57660080499E+01  0.13418921226E+03 -0.95111431982E+03  0.96055111311E+03  0.00000000000E+00 0.  1.
         21    1    1    2  502  501  0.11313013881E+01 -0.53271691801E+00  0.24796271423E+01  0.27770813655E+01  0.00000000000E+00 0.  1.
<mgrwt>
<rscale>  1 0.65201880E+03</rscale>
<asrwt>0</asrwt>
<pdfrwt beam="1">  1        1 0.39609645E+00 0.65201880E+03</pdfrwt>
<pdfrwt beam="2">0</pdfrwt>
<totfact> 0.13919715E+00</totfact>
</mgrwt>
</event>
<event>
 6    1  0.4693694E-003  0.6640036E+03  0.7818608E-02  0.9780851E-01
          1   -1    0    0  502    0  0.00000000000E+00  0.00000000000E+00  0.11167098642E+03  0.11167098642E+03  0.00000000000E+00 0.  1.
         13   -1    0    0    0    0 -0.00000000000E+00 -0.00000000000E+00 -0.10000000000E+04  0.10000000000E+04  0.00000000000E+00 0.  1.
    9000005    2    1    2  501    0 -0.27130111266E+01 -0.13897511700E+01 -0.88769234923E+03  0.11085569570E+04  0.66399663268E+03 0.  0.
         13    1    3    3    0    0  0.44820719135E+02  0.12100500705E+02 -0.99202747479E+03  0.99311320086E+03  0.00000000000E+00 0.  1.
          3    1    3    3  501    0 -0.47533730261E+02 -0.13490251875E+02  0.10433512556E+03  0.11544375615E+03  0.00000000000E+00 0.  1.
         21    1    1    2  502  501  0.27130111266E+01  0.13897511700E+01 -0.63666434583E+00  0.31140294117E+01  0.00000000000E+00 0. -1.
<mgrwt>
<rscale>  1 0.66400363E+03</rscale>
<asrwt>0</asrwt>
<pdfrwt beam="1">  1        1 0.40607717E+00 0.66400363E+03</pdfrwt>
<pdfrwt beam="2">0</pdfrwt>
<totfact> 0.12534921E+00</totfact>
</mgrwt>
</event>
<event>
 6    1  0.4693694E-003  0.6545291E+03  0.7818608E-02  0.9798318E-01
          3   -1    0    0  502    0  0.00000000000E+00  0.00000000000E+00  0.10710963830E+03  0.10710963830E+03  0.00000000000E+00 0.  1.
         13   -1    0    0    0    0 -0.00000000000E+00 -0.00000000000E+00 -0.10000000000E+04  0.10000000000E+04  0.00000000000E+00 0.  1.
    9000005    2    1    2  501    0  0.12933733911E-01  0.57404716732E-02 -0.89288971262E+03  0.11070954730E+04  0.65452910343E+03 0.  0.
         13    1    3    3    0    0 -0.18744705343E+03  0.16827881884E+03 -0.93071005268E+02  0.26854491381E+03  0.00000000000E+00 0.  1.
          3    1    3    3  501    0  0.18745998717E+03 -0.16827307837E+03 -0.79981870735E+03  0.83855055919E+03  0.00000000000E+00 0.  1.
         21    1    1    2  502  501 -0.12933733911E-01 -0.57404716732E-02 -0.64907559342E-03  0.14165302222E-01  0.00000000000E+00 0. -1.
<mgrwt>
<rscale>  1 0.65452910E+03</rscale>
<asrwt>0</asrwt>
<pdfrwt beam="1">  1        3 0.38949042E+00 0.65452910E+03</pdfrwt>
<pdfrwt beam="2">0</pdfrwt>
<totfact> 0.67213939E-02</totfact>
</mgrwt>
</event>
<event>
 6    1  0.4693694E-003  0.6487888E+03  0.7818608E-02  0.9809055E-01
          3   -1    0    0  502    0  0.00000000000E+00  0.00000000000E+00  0.10982807783E+03  0.10982807783E+03  0.00000000000E+00 0.  1.
         13   -1    0    0    0    0 -0.00000000000E+00 -0.00000000000E+00 -0.10000000000E+04  0.10000000000E+04  0.00000000000E+00 0.  1.
    9000005    2    1    2  501    0 -0.10567618314E+00  0.27936111800E+00 -0.89476291775E+03  0.11052273767E+04  0.64878870682E+03 0.  0.
         13    1    3    3    0    0  0.50274344804E+02  0.29076778043E+03 -0.21750898208E+03  0.36658364553E+03  0.00000000000E+00 0.  1.
          3    1    3    3  501    0 -0.50380020987E+02 -0.29048841931E+03 -0.67725393568E+03  0.73864373121E+03  0.00000000000E+00 0.  1.
         21    1    1    2  502  501  0.10567618314E+00 -0.27936111800E+00  0.45909955794E+01  0.46007010878E+01  0.00000000000E+00 0. -1.
<mgrwt>
<rscale>  1 0.64878878E+03</rscale>
<asrwt>0</asrwt>
<pdfrwt beam="1">  1        3 0.39937567E+00 0.64878878E+03</pdfrwt>
<pdfrwt beam="2">0</pdfrwt>
<totfact> 0.59699174E-02</totfact>
</mgrwt>
</event>
<event>
 6    1  0.4693694E-003  0.6500696E+03  0.7818608E-02  0.9806649E-01
          1   -1    0    0  502    0  0.00000000000E+00  0.00000000000E+00  0.10564771554E+03  0.10564771554E+03  0.00000000000E+00 0.  1.
         13   -1    0    0    0    0 -0.00000000000E+00 -0.00000000000E+00 -0.10000000000E+04  0.10000000000E+04  0.00000000000E+00 0.  1.
    9000005    2    1    2  501    0  0.60391280840E-04  0.32081472213E-04 -0.89435235654E+03  0.11056476162E+04  0.65006962205E+03 0.  0.
         13    1    3    3    0    0 -0.10022334042E+03  0.80808364181E+02  0.60433275171E+02  0.14222127279E+03  0.00000000000E+00 0.  1.
          3    1    3    3  501    0  0.10022340082E+03 -0.80808332100E+02 -0.95478563171E+03  0.96342634339E+03  0.00000000000E+00 0.  1.
         21    1    1    2  502  501 -0.60391280837E-04 -0.32081472217E-04  0.72078297629E-04  0.99355969372E-04  0.00000000000E+00 0. -1.
<mgrwt>
<rscale>  1 0.65006962E+03</rscale>
<asrwt>0</asrwt>
<pdfrwt beam="1">  1        1 0.38417432E+00 0.65006962E+03</pdfrwt>
<pdfrwt beam="2">0</pdfrwt>
<totfact> 0.15727441E+00</totfact>
</mgrwt>
</event>
<event>
 6    1  0.4693694E-003  0.6408709E+03  0.7818608E-02  0.9824062E-01
          1   -1    0    0  502    0  0.00000000000E+00  0.00000000000E+00  0.10267894367E+03  0.10267894367E+03  0.00000000000E+00 0.  1.
         13   -1    0    0    0    0 -0.00000000000E+00 -0.00000000000E+00 -0.10000000000E+04  0.10000000000E+04  0.00000000000E+00 0.  1.
    9000005    2    1    2  501    0  0.32418311605E-04  0.40001929094E-04 -0.89732111250E+03  0.11026788675E+04  0.64087089637E+03 0.  0.
         13    1    3    3    0    0 -0.19972430185E+03 -0.83827150482E+02 -0.42359452165E+02  0.22070593806E+03  0.00000000000E+00 0.  1.
          1    1    3    3  501    0  0.19972433427E+03  0.83827190484E+02 -0.85496166034E+03  0.88197292941E+03  0.00000000000E+00 0.  1.
         21    1    1    2  502  501 -0.32418311608E-04 -0.40001929093E-04  0.56174073941E-04  0.76201232548E-04  0.00000000000E+00 0.  1.
<mgrwt>
<rscale>  1 0.64087090E+03</rscale>
<asrwt>0</asrwt>
<pdfrwt beam="1">  1        1 0.37337876E+00 0.64087090E+03</pdfrwt>
<pdfrwt beam="2">0</pdfrwt>
<totfact> 0.17579122E+00</totfact>
</mgrwt>
</event>
<event>
 6    1  0.4693694E-003  0.6408225E+03  0.7818608E-02  0.9824154E-01
          1   -1    0    0  502    0  0.00000000000E+00  0.00000000000E+00  0.10266389503E+03  0.10266389503E+03  0.00000000000E+00 0.  1.
         13   -1    0    0    0    0 -0.00000000000E+00 -0.00000000000E+00 -0.10000000000E+04  0.10000000000E+04  0.00000000000E+00 0.  1.
    9000005    2    1    2  501    0  0.38264868010E-03  0.62118893759E-03 -0.89733634925E+03  0.11026631256E+04  0.64082247538E+03 0.  0.
         13    1    3    3    0    0 -0.26498596432E+03 -0.48266961838E+01 -0.75850095664E+03  0.80347032273E+03  0.00000000000E+00 0.  1.
          3    1    3    3  501    0  0.26498634696E+03  0.48273173728E+01 -0.13883539261E+03  0.29919280291E+03  0.00000000000E+00 0.  1.
         21    1    1    2  502  501 -0.38264868009E-03 -0.62118893759E-03  0.24427954799E-03  0.76939470113E-03  0.00000000000E+00 0. -1.
<mgrwt>
<rscale>  1 0.64082248E+03</rscale>
<asrwt>0</asrwt>
<pdfrwt beam="1">  1        1 0.37332404E+00 0.64082248E+03</pdfrwt>
<pdfrwt beam="2">0</pdfrwt>
<totfact> 0.17589023E+00</totfact>
</mgrwt>
</event>
<event>
 6    1  0.4693694E-003  0.6400023E+03  0.7818608E-02  0.9825722E-01
          1   -1    0    0  502    0  0.00000000000E+00  0.00000000000E+00  0.10240072786E+03  0.10240072786E+03  0.00000000000E+00 0.  1.
         13   -1    0    0    0    0 -0.00000000000E+00 -0.00000000000E+00 -0.10000000000E+04  0.10000000000E+04  0.00000000000E+00 0.  1.
    9000005    2    1    2  501    0  0.54328643273E-06 -0.20276912380E-05 -0.89759927580E+03  0.11024007236E+04  0.64000226217E+03 0.  0.
         13    1    3    3    0    0  0.22946660421E+03 -0.12461869971E+03 -0.76741923417E+03  0.81062754933E+03  0.00000000000E+00 0.  1.
          3    1    3    3  501    0 -0.22946660366E+03  0.12461869768E+03 -0.13018004163E+03  0.29177317431E+03  0.00000000000E+00 0.  1.
         21    1    1    2  502  501 -0.54328644671E-06  0.20276912384E-05  0.36516518609E-05  0.42120367086E-05  0.00000000000E+00 0. -1.
<mgrwt>
<rscale>  1 0.64000226E+03</rscale>
<asrwt>0</asrwt>
<pdfrwt beam="1">  1        1 0.37236707E+00 0.64000226E+03</pdfrwt>
<pdfrwt beam="2">0</pdfrwt>
<totfact> 0.17762947E+00</totfact>
</mgrwt>
</event>
<event>
 6    1  0.4693694E-003  0.6285152E+03  0.7818608E-02  0.9847951E-01
          1   -1    0    0  502    0  0.00000000000E+00  0.00000000000E+00  0.10508803176E+03  0.10508803176E+03  0.00000000000E+00 0.  1.
         13   -1    0    0    0    0 -0.00000000000E+00 -0.00000000000E+00 -0.10000000000E+04  0.10000000000E+04  0.00000000000E+00 0.  1.
    9000005    2    1    2  501    0 -0.91940091715E+00  0.93780108533E-01 -0.90120508099E+03  0.10987274217E+04  0.62851451455E+03 0.  0.
         13    1    3    3    0    0 -0.68693803045E+02 -0.17842460186E+03 -0.88686431379E+03  0.90723893666E+03  0.00000000000E+00 0.  1.
          3    1    3    3  501    0  0.67774402128E+02  0.17851838196E+03 -0.14340767208E+02  0.19148848500E+03  0.00000000000E+00 0.  1.
         21    1    1    2  502  501  0.91940091715E+00 -0.93780108533E-01  0.62931127514E+01  0.63606101010E+01  0.00000000000E+00 0. -1.
<mgrwt>
<rscale>  1 0.62851519E+03</rscale>
<asrwt>0</asrwt>
<pdfrwt beam="1">  1        1 0.38213910E+00 0.62851519E+03</pdfrwt>
<pdfrwt beam="2">0</pdfrwt>
<totfact> 0.16121194E+00</totfact>
</mgrwt>
</event>
<event>
 6    1  0.4693694E-003  0.7008993E+03  0.7818608E-02  0.9715696E-01
          1   -1    0    0  502    0  0.00000000000E+00  0.00000000000E+00  0.12281500917E+03  0.12281500917E+03  0.00000000000E+00 0.  1.
         13   -1    0    0    0    0 -0.00000000000E+00 -0.00000000000E+00 -0.10000000000E+04  0.10000000000E+04  0.00000000000E+00 0.  1.
    9000005    2    1    2  501    0  0.76485267755E-05 -0.14572045956E-04 -0.87718505490E+03  0.11228149430E+04  0.70089926219E+03 0.  0.
         13    1    3    3    0    0  0.17995053947E+03  0.17669689352E+03 -0.48781956468E+02  0.25687286371E+03  0.00000000000E+00 0.  1.
          1    1    3    3  501    0 -0.17995053182E+03 -0.17669690810E+03 -0.82840309843E+03  0.86594207931E+03  0.00000000000E+00 0.  1.
         21    1    1    2  502  501 -0.76485267637E-05  0.14572045949E-04  0.64064116753E-04  0.66144202619E-04  0.00000000000E+00 0. -1.
<mgrwt>
<rscale>  1 0.70089926E+03</rscale>
<asrwt>0</asrwt>
<pdfrwt beam="1">  1        1 0.44660098E+00 0.70089926E+03</pdfrwt>
<pdfrwt beam="2">0</pdfrwt>
<totfact> 0.81522483E-01</totfact>
</mgrwt>
</event>
<event>
 6    1  0.4693694E-003  0.6381964E+03  0.7818608E-02  0.9829183E-01
          1   -1    0    0  502    0  0.00000000000E+00  0.00000000000E+00  0.10317554659E+03  0.10317554659E+03  0.00000000000E+00 0.  1.
         13   -1    0    0    0    0 -0.00000000000E+00 -0.00000000000E+00 -0.10000000000E+04  0.10000000000E+04  0.00000000000E+00 0.  1.
    9000005    2    1    2  501    0 -0.30776115264E+01  0.77065677409E+00 -0.89570750212E+03  0.10998120388E+04  0.63818847191E+03 0.  0.
         13    1    3    3    0    0  0.87455348586E+02 -0.29174118322E+03 -0.28727877936E+03  0.41867702714E+03  0.00000000000E+00 0.  1.
          3    1    3    3  501    0 -0.90532960112E+02  0.29251183999E+03 -0.60842872276E+03  0.68113501164E+03  0.00000000000E+00 0.  1.
         21    1    1    2  502  501  0.30776115264E+01 -0.77065677409E+00 -0.11169512901E+01  0.33635078052E+01  0.00000000000E+00 0. -1.
<mgrwt>
<rscale>  1 0.63819636E+03</rscale>
<asrwt>0</asrwt>
<pdfrwt beam="1">  1        1 0.37518460E+00 0.63819636E+03</pdfrwt>
<pdfrwt beam="2">0</pdfrwt>
<totfact> 0.17268890E+00</totfact>
</mgrwt>
</event>
<event>
 6    1  0.4693694E-003  0.6524682E+03  0.7818608E-02  0.9802159E-01
          1   -1    0    0  502    0  0.00000000000E+00  0.00000000000E+00  0.10797587315E+03  0.10797587315E+03  0.00000000000E+00 0.  1.
         13   -1    0    0    0    0 -0.00000000000E+00 -0.00000000000E+00 -0.10000000000E+04  0.10000000000E+04  0.00000000000E+00 0.  1.
    9000005    2    1    2  501    0 -0.14688720234E+00 -0.59288368576E-01 -0.89356683349E+03  0.11064250557E+04  0.65246815469E+03 0.  0.
         13    1    3    3    0    0  0.16651301259E+03  0.26890016152E+03 -0.31152259303E+03  0.44393716469E+03  0.00000000000E+00 0.  1.
          3    1    3    3  501    0 -0.16665989980E+03 -0.26895944989E+03 -0.58204424047E+03  0.66248789102E+03  0.00000000000E+00 0.  1.
         21    1    1    2  502  501  0.14688720234E+00  0.59288368576E-01  0.15427066373E+01  0.15508174391E+01  0.00000000000E+00 0.  1.
<mgrwt>
<rscale>  1 0.65246817E+03</rscale>
<asrwt>0</asrwt>
<pdfrwt beam="1">  1        1 0.39264037E+00 0.65246817E+03</pdfrwt>
<pdfrwt beam="2">0</pdfrwt>
<totfact> 0.14419611E+00</totfact>
</mgrwt>
</event>
