<event>
 6    1  0.2161909E-002  0.6370986E+03  0.7818608E-02  0.9831294E-01
          1   -1    0    0  502    0  0.00000000000E+00  0.00000000000E+00  0.10147364362E+03  0.10147364362E+03  0.00000000000E+00 0.  1.
         13   -1    0    0    0    0 -0.00000000000E+00 -0.00000000000E+00 -0.10000000000E+04  0.10000000000E+04  0.00000000000E+00 0.  1.
    9000005    2    1    2  501    0 -0.24842978519E-06  0.44503798335E-06 -0.89852635591E+03  0.11014736429E+04  0.63709855893E+03 0.  0.
         13    1    3    3    0    0  0.13992871796E+03 -0.24061558670E+03 -0.18143724367E+03  0.33225800226E+03  0.00000000000E+00 0.  1.
          1    1    3    3  501    0 -0.13992871821E+03  0.24061558714E+03 -0.71708911224E+03  0.76921564067E+03  0.00000000000E+00 0.  1.
         21    1    1    2  502  501  0.24842975973E-06 -0.44503799814E-06 -0.46916862952E-06  0.69274480744E-06  0.00000000000E+00 0. -1.
<mgrwt>
<rscale>  1 0.63709856E+03</rscale>
<asrwt>0</asrwt>
<pdfrwt beam="1">  1        1 0.36899585E+00 0.63709856E+03</pdfrwt>
<pdfrwt beam="2">0</pdfrwt>
<totfact> 0.18388879E+00</totfact>
</mgrwt>
</event>
<event>
 6    1  0.2161909E-002  0.6390314E+03  0.7818608E-02  0.9827581E-01
          1   -1    0    0  502    0  0.00000000000E+00  0.00000000000E+00  0.10209287134E+03  0.10209287134E+03  0.00000000000E+00 0.  1.
         13   -1    0    0    0    0 -0.00000000000E+00 -0.00000000000E+00 -0.10000000000E+04  0.10000000000E+04  0.00000000000E+00 0.  1.
    9000005    2    1    2  501    0  0.55717336693E-04  0.32831033576E-03 -0.89790970231E+03  0.11020902762E+04  0.63903141038E+03 0.  0.
         13    1    3    3    0    0  0.29056915016E+03  0.12993641474E+03 -0.40089878097E+03  0.51189230848E+03  0.00000000000E+00 0.  1.
          1    1    3    3  501    0 -0.29056909444E+03 -0.12993608643E+03 -0.49701092134E+03  0.59019796775E+03  0.00000000000E+00 0.  1.
         21    1    1    2  502  501 -0.55717336714E-04 -0.32831033578E-03  0.25736565418E-02  0.25951108056E-02  0.00000000000E+00 0. -1.
<mgrwt>
<rscale>  1 0.63903141E+03</rscale>
<asrwt>0</asrwt>
<pdfrwt beam="1">  1        1 0.37124759E+00 0.63903141E+03</pdfrwt>
<pdfrwt beam="2">0</pdfrwt>
<totfact> 0.17968528E+00</totfact>
</mgrwt>
</event>
<event>
 6    1  0.2161909E-002  0.6553538E+03  0.7818608E-02  0.9796785E-01
          1   -1    0    0  502    0  0.00000000000E+00  0.00000000000E+00  0.11716495573E+03  0.11716495573E+03  0.00000000000E+00 0.  1.
         13   -1    0    0    0    0 -0.00000000000E+00 -0.00000000000E+00 -0.10000000000E+04  0.10000000000E+04  0.00000000000E+00 0.  1.
    9000005    2    1    2  501    0  0.30098672921E+00  0.24977407692E+00 -0.89262350812E+03  0.11073686807E+04  0.65535373254E+03 0.  0.
         13    1    3    3    0    0 -0.94183130706E+02  0.55077900105E+02 -0.96833142173E+03  0.97445871103E+03  0.00000000000E+00 0.  1.
          1    1    3    3  501    0  0.94484117435E+02 -0.54828126028E+02  0.75707913615E+02  0.13290996966E+03  0.00000000000E+00 0.  1.
         21    1    1    2  502  501 -0.30098672921E+00 -0.24977407692E+00  0.97884638479E+01  0.97962750371E+01  0.00000000000E+00 0. -1.
<mgrwt>
<rscale>  1 0.65535385E+03</rscale>
<asrwt>0</asrwt>
<pdfrwt beam="1">  1        1 0.42605528E+00 0.65535385E+03</pdfrwt>
<pdfrwt beam="2">0</pdfrwt>
<totfact> 0.10207777E+00</totfact>
</mgrwt>
</event>
<event>
 6    1  0.2161909E-002  0.6880832E+03  0.7818608E-02  0.9737831E-01
          1   -1    0    0  502    0  0.00000000000E+00  0.00000000000E+00  0.12214141554E+03  0.12214141554E+03  0.00000000000E+00 0.  1.
         13   -1    0    0    0    0 -0.00000000000E+00 -0.00000000000E+00 -0.10000000000E+04  0.10000000000E+04  0.00000000000E+00 0.  1.
    9000005    2    1    2  501    0  0.61531604689E-01  0.41122729574E-01 -0.88163496027E+03  0.11183643146E+04  0.68808323009E+03 0.  0.
         13    1    3    3    0    0 -0.25455507756E+03  0.31816919314E+02 -0.68239508402E+02  0.26545665253E+03  0.00000000000E+00 0.  1.
          3    1    3    3  501    0  0.25461660916E+03 -0.31775796585E+02 -0.81339545187E+03  0.85290766208E+03  0.00000000000E+00 0.  1.
         21    1    1    2  502  501 -0.61531604689E-01 -0.41122729574E-01  0.37763758067E+01  0.37771009321E+01  0.00000000000E+00 0. -1.
<mgrwt>
<rscale>  1 0.68808323E+03</rscale>
<asrwt>0</asrwt>
<pdfrwt beam="1">  1        1 0.44415154E+00 0.68808323E+03</pdfrwt>
<pdfrwt beam="2">0</pdfrwt>
<totfact> 0.83873021E-01</totfact>
</mgrwt>
</event>
<event>
 6    1  0.2161909E-002  0.6417449E+03  0.7818608E-02  0.9822394E-01
          1   -1    0    0  502    0  0.00000000000E+00  0.00000000000E+00  0.10295960992E+03  0.10295960992E+03  0.00000000000E+00 0.  1.
         13   -1    0    0    0    0 -0.00000000000E+00 -0.00000000000E+00 -0.10000000000E+04  0.10000000000E+04  0.00000000000E+00 0.  1.
    9000005    2    1    2  501    0 -0.11060529026E-04 -0.18054489459E-04 -0.89704086133E+03  0.11029591382E+04  0.64174492880E+03 0.  0.
         13    1    3    3    0    0  0.57590987319E+02 -0.22113566624E+03 -0.61371244206E+02  0.23660966658E+03  0.00000000000E+00 0.  1.
          1    1    3    3  501    0 -0.57590998380E+02  0.22113564818E+03 -0.83566961712E+03  0.86634947162E+03  0.00000000000E+00 0.  1.
         21    1    1    2  502  501  0.11060529025E-04  0.18054489468E-04  0.47125100267E-03  0.47172641161E-03  0.00000000000E+00 0. -1.
<mgrwt>
<rscale>  1 0.64174493E+03</rscale>
<asrwt>0</asrwt>
<pdfrwt beam="1">  1        1 0.37439937E+00 0.64174493E+03</pdfrwt>
<pdfrwt beam="2">0</pdfrwt>
<totfact> 0.17395526E+00</totfact>
</mgrwt>
</event>
<event>
 6    1  0.2161909E-002  0.6458198E+03  0.7818608E-02  0.9814655E-01
          1   -1    0    0  502    0  0.00000000000E+00  0.00000000000E+00  0.10427093591E+03  0.10427093591E+03  0.00000000000E+00 0.  1.
         13   -1    0    0    0    0 -0.00000000000E+00 -0.00000000000E+00 -0.10000000000E+04  0.10000000000E+04  0.00000000000E+00 0.  1.
    9000005    2    1    2  501    0  0.43840800146E-05 -0.39246149711E-04 -0.89572919435E+03  0.11042707998E+04  0.64581979659E+03 0.  0.
         13    1    3    3    0    0  0.92619198307E+02 -0.47526543683E+02 -0.97052072996E+03  0.97608789334E+03  0.00000000000E+00 0.  1.
          1    1    3    3  501    0 -0.92619193923E+02  0.47526504437E+02  0.74791535611E+02  0.12818290645E+03  0.00000000000E+00 0.  1.
         21    1    1    2  502  501 -0.43840800082E-05  0.39246149707E-04  0.13026233915E-03  0.13611670516E-03  0.00000000000E+00 0. -1.
<mgrwt>
<rscale>  1 0.64581980E+03</rscale>
<asrwt>0</asrwt>
<pdfrwt beam="1">  1        1 0.37916784E+00 0.64581980E+03</pdfrwt>
<pdfrwt beam="2">0</pdfrwt>
<totfact> 0.16561737E+00</totfact>
</mgrwt>
</event>
<event>
 6    1  0.2161909E-002  0.6386460E+03  0.7818608E-02  0.9828321E-01
          1   -1    0    0  502    0  0.00000000000E+00  0.00000000000E+00  0.10196717877E+03  0.10196717877E+03  0.00000000000E+00 0.  1.
         13   -1    0    0    0    0 -0.00000000000E+00 -0.00000000000E+00 -0.10000000000E+04  0.10000000000E+04  0.00000000000E+00 0.  1.
    9000005    2    1    2  501    0  0.69053379548E-06  0.51028951020E-06 -0.89803282295E+03  0.11019671768E+04  0.63864599564E+03 0.  0.
         13    1    3    3    0    0 -0.17462502062E+03  0.22422735313E+03 -0.70022182796E+03  0.75569994844E+03  0.00000000000E+00 0.  1.
          1    1    3    3  501    0  0.17462502131E+03 -0.22422735262E+03 -0.19781099499E+03  0.34626722841E+03  0.00000000000E+00 0.  1.
         21    1    1    2  502  501 -0.69053379500E-06 -0.51028951492E-06  0.17261303220E-05  0.19278895714E-05  0.00000000000E+00 0.  1.
<mgrwt>
<rscale>  1 0.63864600E+03</rscale>
<asrwt>0</asrwt>
<pdfrwt beam="1">  1        1 0.37079052E+00 0.63864600E+03</pdfrwt>
<pdfrwt beam="2">0</pdfrwt>
<totfact> 0.18053079E+00</totfact>
</mgrwt>
</event>
<event>
 6    1  0.2161909E-002  0.6327320E+03  0.7818608E-02  0.9839732E-01
          1   -1    0    0  502    0  0.00000000000E+00  0.00000000000E+00  0.10008743904E+03  0.10008743904E+03  0.00000000000E+00 0.  1.
         13   -1    0    0    0    0 -0.00000000000E+00 -0.00000000000E+00 -0.10000000000E+04  0.10000000000E+04  0.00000000000E+00 0.  1.
    9000005    2    1    2  501    0 -0.38060930194E-05 -0.80982091077E-06 -0.89991256237E+03  0.11000874349E+04  0.63273196894E+03 0.  0.
         13    1    3    3    0    0  0.18835996962E+03  0.59458517296E+02 -0.87962207303E+03  0.90152636389E+03  0.00000000000E+00 0.  1.
          3    1    3    3  501    0 -0.18835997342E+03 -0.59458518105E+02 -0.20290489341E+02  0.19856107101E+03  0.00000000000E+00 0.  1.
         21    1    1    2  502  501  0.38060930007E-05  0.80982091140E-06  0.14114802443E-05  0.41393755953E-05  0.00000000000E+00 0.  1.
<mgrwt>
<rscale>  1 0.63273197E+03</rscale>
<asrwt>0</asrwt>
<pdfrwt beam="1">  1        1 0.36395509E+00 0.63273197E+03</pdfrwt>
<pdfrwt beam="2">0</pdfrwt>
<totfact> 0.19364396E+00</totfact>
</mgrwt>
</event>
<event>
 6    1  0.2161909E-002  0.6541435E+03  0.7818608E-02  0.9799035E-01
          1   -1    0    0  502    0  0.00000000000E+00  0.00000000000E+00  0.10697597359E+03  0.10697597359E+03  0.00000000000E+00 0.  1.
         13   -1    0    0    0    0 -0.00000000000E+00 -0.00000000000E+00 -0.10000000000E+04  0.10000000000E+04  0.00000000000E+00 0.  1.
    9000005    2    1    2  501    0  0.79028535254E-04 -0.12809261534E-03 -0.89302392352E+03  0.11069757913E+04  0.65414346628E+03 0.  0.
         13    1    3    3    0    0 -0.28882571194E+03  0.13094004035E+03 -0.58200088457E+03  0.66279002383E+03  0.00000000000E+00 0.  1.
          3    1    3    3  501    0  0.28882579097E+03 -0.13094016844E+03 -0.31102303895E+03  0.44418576744E+03  0.00000000000E+00 0.  1.
         21    1    1    2  502  501 -0.79028535287E-04  0.12809261534E-03 -0.10288985781E-03  0.18231716961E-03  0.00000000000E+00 0.  1.
<mgrwt>
<rscale>  1 0.65414347E+03</rscale>
<asrwt>0</asrwt>
<pdfrwt beam="1">  1        1 0.38900436E+00 0.65414347E+03</pdfrwt>
<pdfrwt beam="2">0</pdfrwt>
<totfact> 0.14960596E+00</totfact>
</mgrwt>
</event>
<event>
 6    1  0.2161909E-002  0.6639638E+03  0.7818608E-02  0.9780924E-01
          1   -1    0    0  502    0  0.00000000000E+00  0.00000000000E+00  0.11021333464E+03  0.11021333464E+03  0.00000000000E+00 0.  1.
         13   -1    0    0    0    0 -0.00000000000E+00 -0.00000000000E+00 -0.10000000000E+04  0.10000000000E+04  0.00000000000E+00 0.  1.
    9000005    2    1    2  501    0  0.26648971954E-04  0.29779151191E-04 -0.88978802704E+03  0.11102119724E+04  0.66396377201E+03 0.  0.
         13    1    3    3    0    0 -0.10427777530E+03  0.31315467671E+03 -0.50453596035E+03  0.60290649462E+03  0.00000000000E+00 0.  1.
          1    1    3    3  501    0  0.10427780195E+03 -0.31315464693E+03 -0.38525206669E+03  0.50730547775E+03  0.00000000000E+00 0.  1.
         21    1    1    2  502  501 -0.26648971951E-04 -0.29779151174E-04  0.13616771452E-02  0.13622634155E-02  0.00000000000E+00 0. -1.
<mgrwt>
<rscale>  1 0.66396377E+03</rscale>
<asrwt>0</asrwt>
<pdfrwt beam="1">  1        1 0.40077661E+00 0.66396377E+03</pdfrwt>
<pdfrwt beam="2">0</pdfrwt>
<totfact> 0.13237545E+00</totfact>
</mgrwt>
</event>
<event>
 6    1  0.2161909E-002  0.6627893E+03  0.7818608E-02  0.9783073E-01
          1   -1    0    0  502    0  0.00000000000E+00  0.00000000000E+00  0.11169794217E+03  0.11169794217E+03  0.00000000000E+00 0.  1.
         13   -1    0    0    0    0 -0.00000000000E+00 -0.00000000000E+00 -0.10000000000E+04  0.10000000000E+04  0.00000000000E+00 0.  1.
    9000005    2    1    2  501    0 -0.66610524862E-01  0.13547722085E+00 -0.89017421379E+03  0.11098197092E+04  0.66278928272E+03 0.  0.
         13    1    3    3    0    0 -0.32074055368E+03  0.78412512507E+02 -0.49343260407E+03  0.59371605979E+03  0.00000000000E+00 0.  1.
          1    1    3    3  501    0  0.32067394316E+03 -0.78277035286E+02 -0.39674160972E+03  0.51610364943E+03  0.00000000000E+00 0.  1.
         21    1    1    2  502  501  0.66610524862E-01 -0.13547722085E+00  0.18721559601E+01  0.18782329403E+01  0.00000000000E+00 0. -1.
<mgrwt>
<rscale>  1 0.66278930E+03</rscale>
<asrwt>0</asrwt>
<pdfrwt beam="1">  1        1 0.40617519E+00 0.66278930E+03</pdfrwt>
<pdfrwt beam="2">0</pdfrwt>
<totfact> 0.12525145E+00</totfact>
</mgrwt>
</event>
<event>
 6    1  0.2161909E-002  0.6934360E+03  0.7818608E-02  0.9728524E-01
          1   -1    0    0  502    0  0.00000000000E+00  0.00000000000E+00  0.12023733640E+03  0.12023733640E+03  0.00000000000E+00 0.  1.
         13   -1    0    0    0    0 -0.00000000000E+00 -0.00000000000E+00 -0.10000000000E+04  0.10000000000E+04  0.00000000000E+00 0.  1.
    9000005    2    1    2  501    0 -0.84433786078E-02  0.25507099044E-02 -0.87978572732E+03  0.11202126437E+04  0.69343596743E+03 0.  0.
         13    1    3    3    0    0  0.27226089087E+03  0.13038659794E+03 -0.71539248156E+03  0.77647476475E+03  0.00000000000E+00 0.  1.
          3    1    3    3  501    0 -0.27226933425E+03 -0.13038404723E+03 -0.16439324576E+03  0.34373787891E+03  0.00000000000E+00 0.  1.
         21    1    1    2  502  501  0.84433786078E-02 -0.25507099044E-02  0.23063714982E-01  0.24692746144E-01  0.00000000000E+00 0.  1.
<mgrwt>
<rscale>  1 0.69343597E+03</rscale>
<asrwt>0</asrwt>
<pdfrwt beam="1">  1        1 0.43722760E+00 0.69343597E+03</pdfrwt>
<pdfrwt beam="2">0</pdfrwt>
<totfact> 0.90132053E-01</totfact>
</mgrwt>
</event>
<event>
 6    1  0.2161909E-002  0.6470280E+03  0.7818608E-02  0.9812372E-01
          1   -1    0    0  502    0  0.00000000000E+00  0.00000000000E+00  0.10466924872E+03  0.10466924872E+03  0.00000000000E+00 0.  1.
         13   -1    0    0    0    0 -0.00000000000E+00 -0.00000000000E+00 -0.10000000000E+04  0.10000000000E+04  0.00000000000E+00 0.  1.
    9000005    2    1    2  501    0  0.23864699758E-02  0.18890210666E-03 -0.89533849928E+03  0.11046611393E+04  0.64702797807E+03 0.  0.
         13    1    3    3    0    0  0.10442549052E+03  0.24193833468E+03 -0.12725131036E+03  0.29262900889E+03  0.00000000000E+00 0.  1.
          1    1    3    3  501    0 -0.10442310405E+03 -0.24193814578E+03 -0.76808718892E+03  0.81203213042E+03  0.00000000000E+00 0.  1.
         21    1    1    2  502  501 -0.23864699758E-02 -0.18890210666E-03  0.77479988198E-02  0.81094024849E-02  0.00000000000E+00 0.  1.
<mgrwt>
<rscale>  1 0.64702798E+03</rscale>
<asrwt>0</asrwt>
<pdfrwt beam="1">  1        1 0.38061625E+00 0.64702798E+03</pdfrwt>
<pdfrwt beam="2">0</pdfrwt>
<totfact> 0.16316200E+00</totfact>
</mgrwt>
</event>
<event>
 6    1  0.2161909E-002  0.6778980E+03  0.7818608E-02  0.9755794E-01
          1   -1    0    0  502    0  0.00000000000E+00  0.00000000000E+00  0.11488806988E+03  0.11488806988E+03  0.00000000000E+00 0.  1.
         13   -1    0    0    0    0 -0.00000000000E+00 -0.00000000000E+00 -0.10000000000E+04  0.10000000000E+04  0.00000000000E+00 0.  1.
    9000005    2    1    2  501    0  0.59754145750E-03  0.10817801679E-03 -0.88511352057E+03  0.11148863674E+04  0.67789797760E+03 0.  0.
         13    1    3    3    0    0  0.20128048012E+02 -0.91587401494E+02  0.93128488460E+02  0.13216015206E+03  0.00000000000E+00 0.  1.
          3    1    3    3  501    0 -0.20127450470E+02  0.91587509672E+02 -0.97824200903E+03  0.98272621539E+03  0.00000000000E+00 0.  1.
         21    1    1    2  502  501 -0.59754145750E-03 -0.10817801680E-03  0.15904429001E-02  0.17024297035E-02  0.00000000000E+00 0.  1.
<mgrwt>
<rscale>  1 0.67789798E+03</rscale>
<asrwt>0</asrwt>
<pdfrwt beam="1">  1        1 0.41777568E+00 0.67789798E+03</pdfrwt>
<pdfrwt beam="2">0</pdfrwt>
<totfact> 0.11077438E+00</totfact>
</mgrwt>
</event>
<event>
 6    1  0.2161909E-002  0.6545424E+03  0.7818608E-02  0.9798293E-01
          1   -1    0    0  502    0  0.00000000000E+00  0.00000000000E+00  0.10748831022E+03  0.10748831022E+03  0.00000000000E+00 0.  1.
         13   -1    0    0    0    0 -0.00000000000E+00 -0.00000000000E+00 -0.10000000000E+04  0.10000000000E+04  0.00000000000E+00 0.  1.
    9000005    2    1    2  501    0 -0.19866363693E+00 -0.10020735460E+00 -0.89285735399E+03  0.11070772232E+04  0.65454233946E+03 0.  0.
         13    1    3    3    0    0 -0.21265480223E+03 -0.63278949783E+02 -0.39443036529E+02  0.22534871539E+03  0.00000000000E+00 0.  1.
          3    1    3    3  501    0  0.21245613859E+03  0.63178742429E+02 -0.85341431746E+03  0.88172850786E+03  0.00000000000E+00 0.  1.
         21    1    1    2  502  501  0.19866363693E+00  0.10020735460E+00  0.34566421179E+00  0.41108697604E+00  0.00000000000E+00 0. -1.
<mgrwt>
<rscale>  1 0.65454238E+03</rscale>
<asrwt>0</asrwt>
<pdfrwt beam="1">  1        1 0.39086741E+00 0.65454238E+03</pdfrwt>
<pdfrwt beam="2">0</pdfrwt>
<totfact> 0.14677597E+00</totfact>
</mgrwt>
</event>
<event>
 6    1  0.2161909E-002  0.6502104E+03  0.7818608E-02  0.9806384E-01
          1   -1    0    0  502    0  0.00000000000E+00  0.00000000000E+00  0.10571862736E+03  0.10571862736E+03  0.00000000000E+00 0.  1.
         13   -1    0    0    0    0 -0.00000000000E+00 -0.00000000000E+00 -0.10000000000E+04  0.10000000000E+04  0.00000000000E+00 0.  1.
    9000005    2    1    2  501    0  0.19923802846E-02  0.87016981199E-03 -0.89430655745E+03  0.11056933489E+04  0.65021039908E+03 0.  0.
         13    1    3    3    0    0 -0.30001785508E+03  0.12522608355E+03 -0.44848757716E+03  0.55392543923E+03  0.00000000000E+00 0.  1.
          1    1    3    3  501    0  0.30001984746E+03 -0.12522521338E+03 -0.44581898029E+03  0.55176790965E+03  0.00000000000E+00 0.  1.
         21    1    1    2  502  501 -0.19923802846E-02 -0.87016981199E-03  0.25184804935E-01  0.25278472547E-01  0.00000000000E+00 0.  1.
<mgrwt>
<rscale>  1 0.65021040E+03</rscale>
<asrwt>0</asrwt>
<pdfrwt beam="1">  1        1 0.38443218E+00 0.65021040E+03</pdfrwt>
<pdfrwt beam="2">0</pdfrwt>
<totfact> 0.15685797E+00</totfact>
</mgrwt>
</event>
<event>
 6    1  0.2161909E-002  0.6545611E+03  0.7818608E-02  0.9798258E-01
          1   -1    0    0  502    0  0.00000000000E+00  0.00000000000E+00  0.10711466544E+03  0.10711466544E+03  0.00000000000E+00 0.  1.
         13   -1    0    0    0    0 -0.00000000000E+00 -0.00000000000E+00 -0.10000000000E+04  0.10000000000E+04  0.00000000000E+00 0.  1.
    9000005    2    1    2  501    0 -0.41925675174E-03 -0.46521019297E-03 -0.89288738395E+03  0.11071125225E+04  0.65456111788E+03 0.  0.
         13    1    3    3    0    0 -0.23841938110E+03 -0.13576053989E+03 -0.14464734948E+03  0.31015734908E+03  0.00000000000E+00 0.  1.
          1    1    3    3  501    0  0.23841896184E+03  0.13576007468E+03 -0.74824003447E+03  0.79695517342E+03  0.00000000000E+00 0.  1.
         21    1    1    2  502  501  0.41925675173E-03  0.46521019297E-03  0.20493952033E-02  0.21429459738E-02  0.00000000000E+00 0. -1.
<mgrwt>
<rscale>  1 0.65456112E+03</rscale>
<asrwt>0</asrwt>
<pdfrwt beam="1">  1        1 0.38950870E+00 0.65456112E+03</pdfrwt>
<pdfrwt beam="2">0</pdfrwt>
<totfact> 0.14882626E+00</totfact>
</mgrwt>
</event>
<event>
 6    1  0.2161909E-002  0.6767603E+03  0.7818608E-02  0.9757822E-01
          1   -1    0    0  502    0  0.00000000000E+00  0.00000000000E+00  0.11488778057E+03  0.11488778057E+03  0.00000000000E+00 0.  1.
         13   -1    0    0    0    0 -0.00000000000E+00 -0.00000000000E+00 -0.10000000000E+04  0.10000000000E+04  0.00000000000E+00 0.  1.
    9000005    2    1    2  501    0  0.87136012002E-02 -0.11219093427E-01 -0.88549872797E+03  0.11145010111E+04  0.67676030192E+03 0.  0.
         13    1    3    3    0    0 -0.33292401039E+03  0.54968723689E+02 -0.48432762129E+03  0.59028230705E+03  0.00000000000E+00 0.  1.
          3    1    3    3  501    0  0.33293272399E+03 -0.54979942782E+02 -0.40117110668E+03  0.52421870402E+03  0.00000000000E+00 0.  1.
         21    1    1    2  502  501 -0.87136012002E-02  0.11219093427E-01  0.38650853434E+00  0.38676949468E+00  0.00000000000E+00 0.  1.
<mgrwt>
<rscale>  1 0.67676030E+03</rscale>
<asrwt>0</asrwt>
<pdfrwt beam="1">  1        1 0.41777463E+00 0.67676030E+03</pdfrwt>
<pdfrwt beam="2">0</pdfrwt>
<totfact> 0.11079952E+00</totfact>
</mgrwt>
</event>
<event>
 6    1  0.2161909E-002  0.6434943E+03  0.7818608E-02  0.9819064E-01
          1   -1    0    0  502    0  0.00000000000E+00  0.00000000000E+00  0.10765661650E+03  0.10765661650E+03  0.00000000000E+00 0.  1.
         13   -1    0    0    0    0 -0.00000000000E+00 -0.00000000000E+00 -0.10000000000E+04  0.10000000000E+04  0.00000000000E+00 0.  1.
    9000005    2    1    2  501    0 -0.26897455864E+00  0.47363104627E+00 -0.89645897207E+03  0.11035051417E+04  0.64349406563E+03 0.  0.
         13    1    3    3    0    0  0.99813656738E+02 -0.29082918012E+03 -0.60885255766E+03  0.68208930137E+03  0.00000000000E+00 0.  1.
          3    1    3    3  501    0 -0.10008263130E+03  0.29130281116E+03 -0.28760641441E+03  0.42141584034E+03  0.00000000000E+00 0.  1.
         21    1    1    2  502  501  0.26897455864E+00 -0.47363104627E+00  0.41155885666E+01  0.41514747898E+01  0.00000000000E+00 0. -1.
<mgrwt>
<rscale>  1 0.64349430E+03</rscale>
<asrwt>0</asrwt>
<pdfrwt beam="1">  1        1 0.39147943E+00 0.64349430E+03</pdfrwt>
<pdfrwt beam="2">0</pdfrwt>
<totfact> 0.14616332E+00</totfact>
</mgrwt>
</event>
<event>
 6    1  0.2161909E-002  0.6610060E+03  0.7818608E-02  0.9786344E-01
          1   -1    0    0  502    0  0.00000000000E+00  0.00000000000E+00  0.10923225648E+03  0.10923225648E+03  0.00000000000E+00 0.  1.
         13   -1    0    0    0    0 -0.00000000000E+00 -0.00000000000E+00 -0.10000000000E+04  0.10000000000E+04  0.00000000000E+00 0.  1.
    9000005    2    1    2  501    0  0.79710223275E-05 -0.52804176676E-06 -0.89076776994E+03  0.11092322289E+04  0.66100598908E+03 0.  0.
         13    1    3    3    0    0  0.11287235891E+03 -0.29211629245E+03 -0.26810714372E+03  0.41225421555E+03  0.00000000000E+00 0.  1.
          1    1    3    3  501    0 -0.11287235094E+03  0.29211629192E+03 -0.62266062622E+03  0.69697801333E+03  0.00000000000E+00 0.  1.
         21    1    1    2  502  501 -0.79710223250E-05  0.52804176028E-06  0.26422430324E-04  0.27603638333E-04  0.00000000000E+00 0. -1.
<mgrwt>
<rscale>  1 0.66100599E+03</rscale>
<asrwt>0</asrwt>
<pdfrwt beam="1">  1        1 0.39720904E+00 0.66100599E+03</pdfrwt>
<pdfrwt beam="2">0</pdfrwt>
<totfact> 0.13738756E+00</totfact>
</mgrwt>
</event>
<event>
 6    1  0.2161909E-002  0.6483327E+03  0.7818608E-02  0.9809913E-01
          1   -1    0    0  502    0  0.00000000000E+00  0.00000000000E+00  0.10512657465E+03  0.10512657465E+03  0.00000000000E+00 0.  1.
         13   -1    0    0    0    0 -0.00000000000E+00 -0.00000000000E+00 -0.10000000000E+04  0.10000000000E+04  0.00000000000E+00 0.  1.
    9000005    2    1    2  501    0 -0.36146310890E-02 -0.14621954679E-02 -0.89491607068E+03  0.11050837514E+04  0.64833272640E+03 0.  0.
         13    1    3    3    0    0  0.23779540529E+03 -0.21161358756E+03 -0.55192366391E+03  0.63713946354E+03  0.00000000000E+00 0.  1.
          1    1    3    3  501    0 -0.23779901992E+03  0.21161212536E+03 -0.34299240677E+03  0.46794428790E+03  0.00000000000E+00 0.  1.
         21    1    1    2  502  501  0.36146310890E-02  0.14621954679E-02  0.42645327877E-01  0.42823212902E-01  0.00000000000E+00 0. -1.
<mgrwt>
<rscale>  1 0.64833273E+03</rscale>
<asrwt>0</asrwt>
<pdfrwt beam="1">  1        1 0.38227926E+00 0.64833273E+03</pdfrwt>
<pdfrwt beam="2">0</pdfrwt>
<totfact> 0.16038802E+00</totfact>
</mgrwt>
</event>
<event>
 6    1  0.2161909E-002  0.6579126E+03  0.7818608E-02  0.9792044E-01
          1   -1    0    0  502    0  0.00000000000E+00  0.00000000000E+00  0.11204943209E+03  0.11204943209E+03  0.00000000000E+00 0.  1.
         13   -1    0    0    0    0 -0.00000000000E+00 -0.00000000000E+00 -0.10000000000E+04  0.10000000000E+04  0.00000000000E+00 0.  1.
    9000005    2    1    2  501    0 -0.23914660753E+01 -0.57412860858E+00 -0.89134604080E+03  0.11078568231E+04  0.65790799312E+03 0.  0.
         13    1    3    3    0    0  0.29818743438E+02  0.81516159225E+01  0.10576371515E+03  0.11018879138E+03  0.00000000000E+00 0.  1.
          1    1    3    3  501    0 -0.32210209513E+02 -0.87257445311E+01 -0.99710975595E+03  0.99766803177E+03  0.00000000000E+00 0.  1.
         21    1    1    2  502  501  0.23914660753E+01  0.57412860858E+00  0.33954728890E+01  0.41926089477E+01  0.00000000000E+00 0. -1.
<mgrwt>
<rscale>  1 0.65791259E+03</rscale>
<asrwt>0</asrwt>
<pdfrwt beam="1">  1        1 0.40745334E+00 0.65791259E+03</pdfrwt>
<pdfrwt beam="2">0</pdfrwt>
<totfact> 0.12372705E+00</totfact>
</mgrwt>
</event>
<event>
 6    1  0.2161909E-002  0.6311846E+03  0.7818608E-02  0.9842740E-01
          1   -1    0    0  502    0  0.00000000000E+00  0.00000000000E+00  0.10235556465E+03  0.10235556465E+03  0.00000000000E+00 0.  1.
         13   -1    0    0    0    0 -0.00000000000E+00 -0.00000000000E+00 -0.10000000000E+04  0.10000000000E+04  0.00000000000E+00 0.  1.
    9000005    2    1    2  501    0 -0.83776483372E-01  0.38333999550E-02 -0.90040080854E+03  0.10995979160E+04  0.63118456392E+03 0.  0.
         13    1    3    3    0    0  0.20271980046E+03 -0.21351694449E+03 -0.25232518815E+03  0.38775353468E+03  0.00000000000E+00 0.  1.
          1    1    3    3  501    0 -0.20280357695E+03  0.21352077789E+03 -0.64807562038E+03  0.71184438127E+03  0.00000000000E+00 0.  1.
         21    1    1    2  502  501  0.83776483372E-01 -0.38333999550E-02  0.27563731896E+01  0.27576487004E+01  0.00000000000E+00 0. -1.
<mgrwt>
<rscale>  1 0.63118457E+03</rscale>
<asrwt>0</asrwt>
<pdfrwt beam="1">  1        1 0.37220284E+00 0.63118457E+03</pdfrwt>
<pdfrwt beam="2">0</pdfrwt>
<totfact> 0.17821324E+00</totfact>
</mgrwt>
</event>
<event>
 6    1  0.2161909E-002  0.6786471E+03  0.7818608E-02  0.9754462E-01
          1   -1    0    0  502    0  0.00000000000E+00  0.00000000000E+00  0.11514548295E+03  0.11514548295E+03  0.00000000000E+00 0.  1.
         13   -1    0    0    0    0 -0.00000000000E+00 -0.00000000000E+00 -0.10000000000E+04  0.10000000000E+04  0.00000000000E+00 0.  1.
    9000005    2    1    2  501    0  0.15095095998E-03 -0.24614797164E-02 -0.88485917733E+03  0.11151402104E+04  0.67864712859E+03 0.  0.
         13    1    3    3    0    0 -0.13026758361E+03  0.30635539253E+03 -0.33447175102E+03  0.47190531053E+03  0.00000000000E+00 0.  1.
          1    1    3    3  501    0  0.13026773456E+03 -0.30635785401E+03 -0.55038742630E+03  0.64323489987E+03  0.00000000000E+00 0.  1.
         21    1    1    2  502  501 -0.15095095999E-03  0.24614797164E-02  0.46602727363E-02  0.52725525663E-02  0.00000000000E+00 0.  1.
<mgrwt>
<rscale>  1 0.67864713E+03</rscale>
<asrwt>0</asrwt>
<pdfrwt beam="1">  1        1 0.41871173E+00 0.67864713E+03</pdfrwt>
<pdfrwt beam="2">0</pdfrwt>
<totfact> 0.10968733E+00</totfact>
</mgrwt>
</event>
<event>
 6    1  0.2161909E-002  0.6735070E+03  0.7818608E-02  0.9763643E-01
          1   -1    0    0  502    0  0.00000000000E+00  0.00000000000E+00  0.11340326358E+03  0.11340326358E+03  0.00000000000E+00 0.  1.
         13   -1    0    0    0    0 -0.00000000000E+00 -0.00000000000E+00 -0.10000000000E+04  0.10000000000E+04  0.00000000000E+00 0.  1.
    9000005    2    1    2  501    0  0.16225312351E-03  0.19298254713E-03 -0.88659701031E+03  0.11134028913E+04  0.67350704502E+03 0.  0.
         13    1    3    3    0    0 -0.31000075724E+03 -0.10663024749E+03 -0.31597008987E+03  0.45531041814E+03  0.00000000000E+00 0.  1.
          3    1    3    3  501    0  0.31000091950E+03  0.10663044047E+03 -0.57062692043E+03  0.65809247317E+03  0.00000000000E+00 0.  1.
         21    1    1    2  502  501 -0.16225312346E-03 -0.19298254713E-03  0.27389289461E-03  0.37227094607E-03  0.00000000000E+00 0.  1.
<mgrwt>
<rscale>  1 0.67350705E+03</rscale>
<asrwt>0</asrwt>
<pdfrwt beam="1">  1        1 0.41237637E+00 0.67350705E+03</pdfrwt>
<pdfrwt beam="2">0</pdfrwt>
<totfact> 0.11724628E+00</totfact>
</mgrwt>
</event>
<event>
 6    1  0.2161909E-002  0.6556136E+03  0.7818608E-02  0.9796302E-01
          1   -1    0    0  502    0  0.00000000000E+00  0.00000000000E+00  0.10745753369E+03  0.10745753369E+03  0.00000000000E+00 0.  1.
         13   -1    0    0    0    0 -0.00000000000E+00 -0.00000000000E+00 -0.10000000000E+04  0.10000000000E+04  0.00000000000E+00 0.  1.
    9000005    2    1    2  501    0 -0.29333130527E-04  0.88359298047E-04 -0.89254267819E+03  0.11074573023E+04  0.65561363923E+03 0.  0.
         13    1    3    3    0    0  0.14895181720E+03 -0.27772549620E+03 -0.29387669805E+03  0.43090788893E+03  0.00000000000E+00 0.  1.
          1    1    3    3  501    0 -0.14895184653E+03  0.27772558456E+03 -0.59866598013E+03  0.67654941333E+03  0.00000000000E+00 0.  1.
         21    1    1    2  502  501  0.29333130543E-04 -0.88359298042E-04  0.21187563054E-03  0.23142834942E-03  0.00000000000E+00 0.  1.
<mgrwt>
<rscale>  1 0.65561364E+03</rscale>
<asrwt>0</asrwt>
<pdfrwt beam="1">  1        1 0.39075549E+00 0.65561364E+03</pdfrwt>
<pdfrwt beam="2">0</pdfrwt>
<totfact> 0.14691465E+00</totfact>
</mgrwt>
</event>
<event>
 6    1  0.2161909E-002  0.6274435E+03  0.7818608E-02  0.9850050E-01
          1   -1    0    0  502    0  0.00000000000E+00  0.00000000000E+00  0.11076003811E+03  0.11076003811E+03  0.00000000000E+00 0.  1.
         13   -1    0    0    0    0 -0.00000000000E+00 -0.00000000000E+00 -0.10000000000E+04  0.10000000000E+04  0.00000000000E+00 0.  1.
    9000005    2    1    2  501    0  0.54403022715E+00 -0.16167961322E+01 -0.90151388411E+03  0.10983681389E+04  0.62744113300E+03 0.  0.
         13    1    3    3    0    0 -0.12570242458E+03 -0.35195716473E+02 -0.95007336487E+03  0.95899908062E+03  0.00000000000E+00 0.  1.
          1    1    3    3  501    0  0.12624645480E+03  0.33578920341E+02  0.48559480764E+02  0.13936905831E+03  0.00000000000E+00 0.  1.
         21    1    1    2  502  501 -0.54403022715E+00  0.16167961322E+01  0.12273922218E+02  0.12391899178E+02  0.00000000000E+00 0. -1.
<mgrwt>
<rscale>  1 0.62744345E+03</rscale>
<asrwt>0</asrwt>
<pdfrwt beam="1">  1        1 0.40276462E+00 0.62744345E+03</pdfrwt>
<pdfrwt beam="2">0</pdfrwt>
<totfact> 0.13061298E+00</totfact>
</mgrwt>
</event>
