<event>
 6    1  0.4510314E-003  0.6562226E+03  0.7818608E-02  0.9795172E-01
          1   -1    0    0  502    0  0.00000000000E+00  0.00000000000E+00  0.10769139296E+03  0.10769139296E+03  0.00000000000E+00 0.  1.
         13   -1    0    0    0    0 -0.00000000000E+00 -0.00000000000E+00 -0.10000000000E+04  0.10000000000E+04  0.00000000000E+00 0.  1.
    9000005    2    1    2  501    0  0.70093114908E-03 -0.43231608530E-02 -0.89234280790E+03  0.11076569128E+04  0.65622263731E+03 0.  0.
         13    1    3    3    0    0  0.20633659109E+03  0.22804004888E+03 -0.63920805949E+03  0.70934053602E+03  0.00000000000E+00 0.  1.
          1    1    3    3  501    0 -0.20633589016E+03 -0.22804437204E+03 -0.25313474840E+03  0.39831637681E+03  0.00000000000E+00 0.  1.
         21    1    1    2  502  501 -0.70093114907E-03  0.43231608530E-02  0.34200856184E-01  0.34480133236E-01  0.00000000000E+00 0.  1.
<mgrwt>
<rscale>  1 0.65622264E+03</rscale>
<asrwt>0</asrwt>
<pdfrwt beam="1">  1        1 0.39160589E+00 0.65622264E+03</pdfrwt>
<pdfrwt beam="2">0</pdfrwt>
<totfact> 0.14562713E+00</totfact>
</mgrwt>
</event>
<event>
 6    1  0.4510314E-003  0.5342850E+03  0.7818608E-02  0.1005198E+00
          1   -1    0    0  502    0  0.00000000000E+00  0.00000000000E+00  0.72198031113E+02  0.72198031113E+02  0.00000000000E+00 0.  1.
         13   -1    0    0    0    0 -0.00000000000E+00 -0.00000000000E+00 -0.10000000000E+04  0.10000000000E+04  0.00000000000E+00 0.  1.
    9000005    2    1    2  501    0 -0.20264439126E-01 -0.11902469054E+00 -0.92863019266E+03  0.10713610531E+04  0.53428499592E+03 0.  0.
         13    1    3    3    0    0 -0.78144627107E+02  0.20766358591E+03 -0.76241351295E+03  0.79404352046E+03  0.00000000000E+00 0.  1.
          3    1    3    3  501    0  0.78124362668E+02 -0.20778261060E+03 -0.16621667971E+03  0.27731753267E+03  0.00000000000E+00 0.  1.
         21    1    1    2  502  501  0.20264439126E-01  0.11902469054E+00  0.82822377253E+00  0.83697798169E+00  0.00000000000E+00 0. -1.
<mgrwt>
<rscale>  1 0.53428501E+03</rscale>
<asrwt>0</asrwt>
<pdfrwt beam="1">  1        1 0.26253885E+00 0.53428501E+03</pdfrwt>
<pdfrwt beam="2">0</pdfrwt>
<totfact> 0.54170116E+00</totfact>
</mgrwt>
</event>
<event>
 6    1  0.4510314E-003  0.6488400E+03  0.7818608E-02  0.9808958E-01
          3   -1    0    0  502    0  0.00000000000E+00  0.00000000000E+00  0.10568358710E+03  0.10568358710E+03  0.00000000000E+00 0.  1.
         13   -1    0    0    0    0 -0.00000000000E+00 -0.00000000000E+00 -0.10000000000E+04  0.10000000000E+04  0.00000000000E+00 0.  1.
    9000005    2    1    2  501    0  0.15584231370E-01 -0.93436370391E-01 -0.89474595128E+03  0.11052437275E+04  0.64884001952E+03 0.  0.
         13    1    3    3    0    0  0.13520441615E+03 -0.29024845948E+03 -0.35805583373E+03  0.48034194325E+03  0.00000000000E+00 0.  1.
          3    1    3    3  501    0 -0.13518883192E+03  0.29015502311E+03 -0.53669011755E+03  0.62490178428E+03  0.00000000000E+00 0.  1.
         21    1    1    2  502  501 -0.15584231370E-01  0.93436370391E-01  0.42953838539E+00  0.43985957771E+00  0.00000000000E+00 0. -1.
<mgrwt>
<rscale>  1 0.64884003E+03</rscale>
<asrwt>0</asrwt>
<pdfrwt beam="1">  1        3 0.38430476E+00 0.64884003E+03</pdfrwt>
<pdfrwt beam="2">0</pdfrwt>
<totfact> 0.71645713E-02</totfact>
</mgrwt>
</event>
<event>
 6    1  0.4510314E-003  0.6654842E+03  0.7818608E-02  0.9778150E-01
          1   -1    0    0  502    0  0.00000000000E+00  0.00000000000E+00  0.11075402212E+03  0.11075402212E+03  0.00000000000E+00 0.  1.
         13   -1    0    0    0    0 -0.00000000000E+00 -0.00000000000E+00 -0.10000000000E+04  0.10000000000E+04  0.00000000000E+00 0.  1.
    9000005    2    1    2  501    0  0.51342060648E-02 -0.13272121326E-01 -0.88928115631E+03  0.11107160744E+04  0.66548420170E+03 0.  0.
         13    1    3    3    0    0  0.27292727106E+03  0.18077443404E+03 -0.34522775984E+03  0.47576348899E+03  0.00000000000E+00 0.  1.
          3    1    3    3  501    0 -0.27292213685E+03 -0.18078770616E+03 -0.54405339647E+03  0.63495258539E+03  0.00000000000E+00 0.  1.
         21    1    1    2  502  501 -0.51342060648E-02  0.13272121326E-01  0.35178425169E-01  0.37947738718E-01  0.00000000000E+00 0.  1.
<mgrwt>
<rscale>  1 0.66548420E+03</rscale>
<asrwt>0</asrwt>
<pdfrwt beam="1">  1        1 0.40274275E+00 0.66548420E+03</pdfrwt>
<pdfrwt beam="2">0</pdfrwt>
<totfact> 0.12969019E+00</totfact>
</mgrwt>
</event>
<event>
 6    1  0.4510314E-003  0.6317997E+03  0.7818608E-02  0.9841543E-01
          1   -1    0    0  502    0  0.00000000000E+00  0.00000000000E+00  0.99998308126E+02  0.99998308126E+02  0.00000000000E+00 0.  1.
         13   -1    0    0    0    0 -0.00000000000E+00 -0.00000000000E+00 -0.10000000000E+04  0.10000000000E+04  0.00000000000E+00 0.  1.
    9000005    2    1    2  501    0  0.41632673321E-01 -0.86366166992E-01 -0.90019491034E+03  0.10997826098E+04  0.63179973331E+03 0.  0.
         13    1    3    3    0    0  0.21838617785E+03  0.22781849764E+03 -0.42618394212E+03  0.53030797002E+03  0.00000000000E+00 0.  1.
          1    1    3    3  501    0 -0.21834454518E+03 -0.22790486381E+03 -0.47401096822E+03  0.56947463978E+03  0.00000000000E+00 0.  1.
         21    1    1    2  502  501 -0.41632673321E-01  0.86366166992E-01  0.19321846655E+00  0.21569833125E+00  0.00000000000E+00 0.  1.
<mgrwt>
<rscale>  1 0.63179974E+03</rscale>
<asrwt>0</asrwt>
<pdfrwt beam="1">  1        1 0.36363098E+00 0.63179974E+03</pdfrwt>
<pdfrwt beam="2">0</pdfrwt>
<totfact> 0.19431081E+00</totfact>
</mgrwt>
</event>
<event>
 6    1  0.4510314E-003  0.6388212E+03  0.7818608E-02  0.9827984E-01
          3   -1    0    0  502    0  0.00000000000E+00  0.00000000000E+00  0.10202342917E+03  0.10202342917E+03  0.00000000000E+00 0.  1.
         13   -1    0    0    0    0 -0.00000000000E+00 -0.00000000000E+00 -0.10000000000E+04  0.10000000000E+04  0.00000000000E+00 0.  1.
    9000005    2    1    2  501    0  0.29068929901E-03 -0.19151248013E-04 -0.89797678732E+03  0.11020230662E+04  0.63882120183E+03 0.  0.
         13    1    3    3    0    0  0.11689721683E+03  0.79522584273E+01  0.63612403391E+02  0.13332192461E+03  0.00000000000E+00 0.  1.
          1    1    3    3  501    0 -0.11689692614E+03 -0.79522775785E+01 -0.96158919071E+03  0.96870114161E+03  0.00000000000E+00 0.  1.
         21    1    1    2  502  501 -0.29068929901E-03  0.19151248013E-04  0.21649216752E-03  0.36295440135E-03  0.00000000000E+00 0.  1.
<mgrwt>
<rscale>  1 0.63882120E+03</rscale>
<asrwt>0</asrwt>
<pdfrwt beam="1">  1        3 0.37099507E+00 0.63882120E+03</pdfrwt>
<pdfrwt beam="2">0</pdfrwt>
<totfact> 0.84382976E-02</totfact>
</mgrwt>
</event>
<event>
 6    1  0.4510314E-003  0.6444537E+03  0.7818608E-02  0.9817242E-01
          1   -1    0    0  502    0  0.00000000000E+00  0.00000000000E+00  0.10583545101E+03  0.10583545101E+03  0.00000000000E+00 0.  1.
         13   -1    0    0    0    0 -0.00000000000E+00 -0.00000000000E+00 -0.10000000000E+04  0.10000000000E+04  0.00000000000E+00 0.  1.
    9000005    2    1    2  501    0 -0.24561354603E+00 -0.38414832025E+00 -0.89614121451E+03  0.11038068795E+04  0.64445352268E+03 0.  0.
         13    1    3    3    0    0 -0.49036740192E+02  0.80296677671E+02  0.79770473298E+02  0.12335107111E+03  0.00000000000E+00 0.  1.
          1    1    3    3  501    0  0.48791126646E+02 -0.80680825991E+02 -0.97591168781E+03  0.98045580835E+03  0.00000000000E+00 0.  1.
         21    1    1    2  502  501  0.24561354603E+00  0.38414832025E+00  0.19766655261E+01  0.20285715536E+01  0.00000000000E+00 0. -1.
<mgrwt>
<rscale>  1 0.64445368E+03</rscale>
<asrwt>0</asrwt>
<pdfrwt beam="1">  1        1 0.38485700E+00 0.64445368E+03</pdfrwt>
<pdfrwt beam="2">0</pdfrwt>
<totfact> 0.15634763E+00</totfact>
</mgrwt>
</event>
<event>
 6    1  0.4510314E-003  0.6430324E+03  0.7818608E-02  0.9819942E-01
          1   -1    0    0  502    0  0.00000000000E+00  0.00000000000E+00  0.10340901126E+03  0.10340901126E+03  0.00000000000E+00 0.  1.
         13   -1    0    0    0    0 -0.00000000000E+00 -0.00000000000E+00 -0.10000000000E+04  0.10000000000E+04  0.00000000000E+00 0.  1.
    9000005    2    1    2  501    0 -0.25647160687E-02  0.38925565107E-03 -0.89662729791E+03  0.11033726095E+04  0.64303235076E+03 0.  0.
         13    1    3    3    0    0  0.18891223289E+03  0.15893929756E+03 -0.94894858343E+02  0.26448925533E+03  0.00000000000E+00 0.  1.
          3    1    3    3  501    0 -0.18891479760E+03 -0.15893890831E+03 -0.80173243957E+03  0.83888335421E+03  0.00000000000E+00 0.  1.
         21    1    1    2  502  501  0.25647160687E-02 -0.38925565106E-03  0.36309166310E-01  0.36401714886E-01  0.00000000000E+00 0. -1.
<mgrwt>
<rscale>  1 0.64303235E+03</rscale>
<asrwt>0</asrwt>
<pdfrwt beam="1">  1        1 0.37603356E+00 0.64303235E+03</pdfrwt>
<pdfrwt beam="2">0</pdfrwt>
<totfact> 0.17105711E+00</totfact>
</mgrwt>
</event>
<event>
 6    1  0.4510314E-003  0.6556261E+03  0.7818608E-02  0.9796279E-01
          1   -1    0    0  502    0  0.00000000000E+00  0.00000000000E+00  0.10747283706E+03  0.10747283706E+03  0.00000000000E+00 0.  1.
         13   -1    0    0    0    0 -0.00000000000E+00 -0.00000000000E+00 -0.10000000000E+04  0.10000000000E+04  0.00000000000E+00 0.  1.
    9000005    2    1    2  501    0 -0.29590320921E-02 -0.45504625056E-02 -0.89253790138E+03  0.11074608047E+04  0.65562605853E+03 0.  0.
         13    1    3    3    0    0  0.81780388339E+02 -0.30449821033E+03 -0.59787646589E+03  0.67591675559E+03  0.00000000000E+00 0.  1.
          3    1    3    3  501    0 -0.81783347371E+02  0.30449365987E+03 -0.29466143548E+03  0.43154404916E+03  0.00000000000E+00 0.  1.
         21    1    1    2  502  501  0.29590320920E-02  0.45504625056E-02  0.10738438552E-01  0.12032316588E-01  0.00000000000E+00 0.  1.
<mgrwt>
<rscale>  1 0.65562606E+03</rscale>
<asrwt>0</asrwt>
<pdfrwt beam="1">  1        1 0.39081114E+00 0.65562606E+03</pdfrwt>
<pdfrwt beam="2">0</pdfrwt>
<totfact> 0.14683082E+00</totfact>
</mgrwt>
</event>
<event>
 6    1  0.4510314E-003  0.6525936E+03  0.7818608E-02  0.9801925E-01
          1   -1    0    0  502    0  0.00000000000E+00  0.00000000000E+00  0.10647225103E+03  0.10647225103E+03  0.00000000000E+00 0.  1.
         13   -1    0    0    0    0 -0.00000000000E+00 -0.00000000000E+00 -0.10000000000E+04  0.10000000000E+04  0.00000000000E+00 0.  1.
    9000005    2    1    2  501    0 -0.10085781763E-02 -0.55941238568E-02 -0.89352642437E+03  0.11064664144E+04  0.65259363708E+03 0.  0.
         13    1    3    3    0    0  0.10666682497E+03 -0.30103031583E+03 -0.56017605836E+03  0.64482112167E+03  0.00000000000E+00 0.  1.
          1    1    3    3  501    0 -0.10666783355E+03  0.30102472171E+03 -0.33335036601E+03  0.46164529275E+03  0.00000000000E+00 0.  1.
         21    1    1    2  502  501  0.10085781763E-02  0.55941238568E-02 -0.13245960780E-02  0.58366091554E-02  0.00000000000E+00 0. -1.
<mgrwt>
<rscale>  1 0.65259364E+03</rscale>
<asrwt>0</asrwt>
<pdfrwt beam="1">  1        1 0.38717264E+00 0.65259364E+03</pdfrwt>
<pdfrwt beam="2">0</pdfrwt>
<totfact> 0.15247149E+00</totfact>
</mgrwt>
</event>
<event>
 6    1  0.4510314E-003  0.6524799E+03  0.7818608E-02  0.9802137E-01
          1   -1    0    0  502    0  0.00000000000E+00  0.00000000000E+00  0.10643726780E+03  0.10643726780E+03  0.00000000000E+00 0.  1.
         13   -1    0    0    0    0 -0.00000000000E+00 -0.00000000000E+00 -0.10000000000E+04  0.10000000000E+04  0.00000000000E+00 0.  1.
    9000005    2    1    2  501    0 -0.14079171469E-01  0.18807522517E-02 -0.89354868399E+03  0.11064172900E+04  0.65247986079E+03 0.  0.
         13    1    3    3    0    0  0.16318614353E+03 -0.17743500875E+03 -0.74032554845E+02  0.25217795095E+03  0.00000000000E+00 0.  1.
          3    1    3    3  501    0 -0.16320022270E+03  0.17743688950E+03 -0.81951612914E+03  0.85423933904E+03  0.00000000000E+00 0.  1.
         21    1    1    2  502  501  0.14079171469E-01 -0.18807522517E-02 -0.14048217567E-01  0.19977805562E-01  0.00000000000E+00 0.  1.
<mgrwt>
<rscale>  1 0.65247986E+03</rscale>
<asrwt>0</asrwt>
<pdfrwt beam="1">  1        1 0.38704543E+00 0.65247986E+03</pdfrwt>
<pdfrwt beam="2">0</pdfrwt>
<totfact> 0.15267259E+00</totfact>
</mgrwt>
</event>
<event>
 6    1  0.4510314E-003  0.6421379E+03  0.7818608E-02  0.9821645E-01
          1   -1    0    0  502    0  0.00000000000E+00  0.00000000000E+00  0.10403314075E+03  0.10403314075E+03  0.00000000000E+00 0.  1.
         13   -1    0    0    0    0 -0.00000000000E+00 -0.00000000000E+00 -0.10000000000E+04  0.10000000000E+04  0.00000000000E+00 0.  1.
    9000005    2    1    2  501    0 -0.17845929265E-01 -0.43847981683E-01 -0.89691406886E+03  0.11030847489E+04  0.64213792444E+03 0.  0.
         13    1    3    3    0    0  0.21263505462E+03  0.21243743422E+03 -0.25461906467E+03  0.39392156326E+03  0.00000000000E+00 0.  1.
          3    1    3    3  501    0 -0.21265290055E+03 -0.21248128220E+03 -0.64229500420E+03  0.70916318560E+03  0.00000000000E+00 0.  1.
         21    1    1    2  502  501  0.17845929265E-01  0.43847981683E-01  0.94720961588E+00  0.94839189110E+00  0.00000000000E+00 0. -1.
<mgrwt>
<rscale>  1 0.64213793E+03</rscale>
<asrwt>0</asrwt>
<pdfrwt beam="1">  1        1 0.37830313E+00 0.64213793E+03</pdfrwt>
<pdfrwt beam="2">0</pdfrwt>
<totfact> 0.16719094E+00</totfact>
</mgrwt>
</event>
<event>
 6    1  0.4510314E-003  0.6327507E+03  0.7818608E-02  0.9839696E-01
          1   -1    0    0  502    0  0.00000000000E+00  0.00000000000E+00  0.10015156384E+03  0.10015156384E+03  0.00000000000E+00 0.  1.
         13   -1    0    0    0    0 -0.00000000000E+00 -0.00000000000E+00 -0.10000000000E+04  0.10000000000E+04  0.00000000000E+00 0.  1.
    9000005    2    1    2  501    0  0.16862330872E-02  0.17119403662E-03 -0.89990662744E+03  0.11000933479E+04  0.63275069020E+03 0.  0.
         13    1    3    3    0    0 -0.50098252190E+02  0.31056771134E+03 -0.50842748373E+03  0.59788012545E+03  0.00000000000E+00 0.  1.
          1    1    3    3  501    0  0.50099938423E+02 -0.31056754015E+03 -0.39147914371E+03  0.50221322243E+03  0.00000000000E+00 0.  1.
         21    1    1    2  502  501 -0.16862330872E-02 -0.17119403662E-03  0.58191276892E-01  0.58215954821E-01  0.00000000000E+00 0. -1.
<mgrwt>
<rscale>  1 0.63275069E+03</rscale>
<asrwt>0</asrwt>
<pdfrwt beam="1">  1        1 0.36418827E+00 0.63275069E+03</pdfrwt>
<pdfrwt beam="2">0</pdfrwt>
<totfact> 0.19318837E+00</totfact>
</mgrwt>
</event>
<event>
 6    1  0.4510314E-003  0.6318223E+03  0.7818608E-02  0.9841499E-01
          1   -1    0    0  502    0  0.00000000000E+00  0.00000000000E+00  0.99799918500E+02  0.99799918500E+02  0.00000000000E+00 0.  1.
         13   -1    0    0    0    0 -0.00000000000E+00 -0.00000000000E+00 -0.10000000000E+04  0.10000000000E+04  0.00000000000E+00 0.  1.
    9000005    2    1    2  501    0  0.39308662849E-05  0.12373026919E-04 -0.90020013557E+03  0.10997998629E+04  0.63182232816E+03 0.  0.
         13    1    3    3    0    0  0.36827910612E+02  0.14452212883E+03  0.34662389308E+02  0.15311571427E+03  0.00000000000E+00 0.  1.
          3    1    3    3  501    0 -0.36827906681E+02 -0.14452211646E+03 -0.93486252487E+03  0.94668414863E+03  0.00000000000E+00 0.  1.
         21    1    1    2  502  501 -0.39308662854E-05 -0.12373026926E-04  0.54065135555E-04  0.55601999853E-04  0.00000000000E+00 0.  1.
<mgrwt>
<rscale>  1 0.63182233E+03</rscale>
<asrwt>0</asrwt>
<pdfrwt beam="1">  1        1 0.36290956E+00 0.63182233E+03</pdfrwt>
<pdfrwt beam="2">0</pdfrwt>
<totfact> 0.19572865E+00</totfact>
</mgrwt>
</event>
<event>
 6    1  0.4510314E-003  0.6492622E+03  0.7818608E-02  0.9808165E-01
          3   -1    0    0  502    0  0.00000000000E+00  0.00000000000E+00  0.10538535866E+03  0.10538535866E+03  0.00000000000E+00 0.  1.
         13   -1    0    0    0    0 -0.00000000000E+00 -0.00000000000E+00 -0.10000000000E+04  0.10000000000E+04  0.00000000000E+00 0.  1.
    9000005    2    1    2  501    0  0.51335206592E-05  0.49320186690E-06 -0.89461464609E+03  0.11053853517E+04  0.64926220485E+03 0.  0.
         13    1    3    3    0    0 -0.15232614450E+03 -0.22281428809E+03 -0.75440386705E+03  0.80123320943E+03  0.00000000000E+00 0.  1.
          3    1    3    3  501    0  0.15232614963E+03  0.22281428858E+03 -0.14021077904E+03  0.30415214222E+03  0.00000000000E+00 0.  1.
         21    1    1    2  502  501 -0.51335206715E-05 -0.49320187187E-06  0.47504413888E-05  0.70116314763E-05  0.00000000000E+00 0. -1.
<mgrwt>
<rscale>  1 0.64926220E+03</rscale>
<asrwt>0</asrwt>
<pdfrwt beam="1">  1        3 0.38322029E+00 0.64926220E+03</pdfrwt>
<pdfrwt beam="2">0</pdfrwt>
<totfact> 0.72590528E-02</totfact>
</mgrwt>
</event>
<event>
 6    1  0.4510314E-003  0.6467886E+03  0.7818608E-02  0.9812824E-01
          1   -1    0    0  502    0  0.00000000000E+00  0.00000000000E+00  0.10458388324E+03  0.10458388324E+03  0.00000000000E+00 0.  1.
         13   -1    0    0    0    0 -0.00000000000E+00 -0.00000000000E+00 -0.10000000000E+04  0.10000000000E+04  0.00000000000E+00 0.  1.
    9000005    2    1    2  501    0  0.18369758337E-04 -0.44476686298E-05 -0.89541611504E+03  0.11045838643E+04  0.64678860080E+03 0.  0.
         13    1    3    3    0    0  0.10327557411E+03  0.28253437758E+03 -0.65044277907E+03  0.71663611936E+03  0.00000000000E+00 0.  1.
          3    1    3    3  501    0 -0.10327555574E+03 -0.28253438203E+03 -0.24497333596E+03  0.38794774490E+03  0.00000000000E+00 0.  1.
         21    1    1    2  502  501 -0.18369758339E-04  0.44476686365E-05 -0.17186902118E-05  0.18978505573E-04  0.00000000000E+00 0.  1.
<mgrwt>
<rscale>  1 0.64678860E+03</rscale>
<asrwt>0</asrwt>
<pdfrwt beam="1">  1        1 0.38030583E+00 0.64678860E+03</pdfrwt>
<pdfrwt beam="2">0</pdfrwt>
<totfact> 0.16368471E+00</totfact>
</mgrwt>
</event>
<event>
 6    1  0.4510314E-003  0.6448446E+03  0.7818608E-02  0.9816501E-01
          1   -1    0    0  502    0  0.00000000000E+00  0.00000000000E+00  0.10396031581E+03  0.10396031581E+03  0.00000000000E+00 0.  1.
         13   -1    0    0    0    0 -0.00000000000E+00 -0.00000000000E+00 -0.10000000000E+04  0.10000000000E+04  0.00000000000E+00 0.  1.
    9000005    2    1    2  501    0  0.19483300769E-02 -0.27078683985E-04 -0.89604361964E+03  0.11039559244E+04  0.64484456634E+03 0.  0.
         13    1    3    3    0    0 -0.25496138937E+03  0.17964347619E+03 -0.30811438567E+03  0.43841939198E+03  0.00000000000E+00 0.  1.
          1    1    3    3  501    0  0.25496333770E+03 -0.17964350326E+03 -0.58792923396E+03  0.66553653242E+03  0.00000000000E+00 0.  1.
         21    1    1    2  502  501 -0.19483300769E-02  0.27078684001E-04  0.39354438925E-02  0.43914054669E-02  0.00000000000E+00 0. -1.
<mgrwt>
<rscale>  1 0.64484457E+03</rscale>
<asrwt>0</asrwt>
<pdfrwt beam="1">  1        1 0.37803831E+00 0.64484457E+03</pdfrwt>
<pdfrwt beam="2">0</pdfrwt>
<totfact> 0.16755756E+00</totfact>
</mgrwt>
</event>
<event>
 6    1  0.4510314E-003  0.5865540E+03  0.7818608E-02  0.9933702E-01
          1   -1    0    0  502    0  0.00000000000E+00  0.00000000000E+00  0.86421761225E+02  0.86421761225E+02  0.00000000000E+00 0.  1.
         13   -1    0    0    0    0 -0.00000000000E+00 -0.00000000000E+00 -0.10000000000E+04  0.10000000000E+04  0.00000000000E+00 0.  1.
    9000005    2    1    2  501    0  0.10193036222E+00 -0.10400337247E-01 -0.91398165205E+03  0.10860055398E+04  0.58655397178E+03 0.  0.
         13    1    3    3    0    0  0.28432557879E+02 -0.14258164156E+03 -0.92860074466E+03  0.93991344168E+03  0.00000000000E+00 0.  1.
          1    1    3    3  501    0 -0.28330627517E+02  0.14257124122E+03  0.14619092617E+02  0.14609209817E+03  0.00000000000E+00 0.  1.
         21    1    1    2  502  501 -0.10193036222E+00  0.10400337247E-01  0.40341327109E+00  0.41622137505E+00  0.00000000000E+00 0. -1.
<mgrwt>
<rscale>  1 0.58655398E+03</rscale>
<asrwt>0</asrwt>
<pdfrwt beam="1">  1        1 0.31426161E+00 0.58655398E+03</pdfrwt>
<pdfrwt beam="2">0</pdfrwt>
<totfact> 0.32098701E+00</totfact>
</mgrwt>
</event>
<event>
 6    1  0.4510314E-003  0.6540323E+03  0.7818608E-02  0.9799242E-01
          1   -1    0    0  502    0  0.00000000000E+00  0.00000000000E+00  0.10694118632E+03  0.10694118632E+03  0.00000000000E+00 0.  1.
         13   -1    0    0    0    0 -0.00000000000E+00 -0.00000000000E+00 -0.10000000000E+04  0.10000000000E+04  0.00000000000E+00 0.  1.
    9000005    2    1    2  501    0 -0.14522239167E-04  0.23470408493E-04 -0.89306043712E+03  0.11069395626E+04  0.65403230119E+03 0.  0.
         13    1    3    3    0    0  0.65046210651E+01 -0.82355674175E+02  0.88987498357E+02  0.12142298805E+03  0.00000000000E+00 0.  1.
          3    1    3    3  501    0 -0.65046355873E+01  0.82355697646E+02 -0.98204793548E+03  0.98551657459E+03  0.00000000000E+00 0.  1.
         21    1    1    2  502  501  0.14522239167E-04 -0.23470408492E-04  0.16234365996E-02  0.16236711946E-02  0.00000000000E+00 0.  1.
<mgrwt>
<rscale>  1 0.65403230E+03</rscale>
<asrwt>0</asrwt>
<pdfrwt beam="1">  1        1 0.38887786E+00 0.65403230E+03</pdfrwt>
<pdfrwt beam="2">0</pdfrwt>
<totfact> 0.14980232E+00</totfact>
</mgrwt>
</event>
<event>
 6    1  0.4510314E-003  0.6565902E+03  0.7818608E-02  0.9794491E-01
          1   -1    0    0  502    0  0.00000000000E+00  0.00000000000E+00  0.11118115328E+03  0.11118115328E+03  0.00000000000E+00 0.  1.
         13   -1    0    0    0    0 -0.00000000000E+00 -0.00000000000E+00 -0.10000000000E+04  0.10000000000E+04  0.00000000000E+00 0.  1.
    9000005    2    1    2  501    0 -0.15949858028E+00 -0.48418398942E+00 -0.89220117728E+03  0.11077606220E+04  0.65658997488E+03 0.  0.
         13    1    3    3    0    0 -0.16718179996E+02 -0.31764380041E+03 -0.58510854344E+03  0.66597979631E+03  0.00000000000E+00 0.  1.
          3    1    3    3  501    0  0.16558681415E+02  0.31715961643E+03 -0.30709263385E+03  0.44178082573E+03  0.00000000000E+00 0.  1.
         21    1    1    2  502  501  0.15949858028E+00  0.48418398942E+00  0.33823305614E+01  0.34205312394E+01  0.00000000000E+00 0. -1.
<mgrwt>
<rscale>  1 0.65659017E+03</rscale>
<asrwt>0</asrwt>
<pdfrwt beam="1">  1        1 0.40429596E+00 0.65659017E+03</pdfrwt>
<pdfrwt beam="2">0</pdfrwt>
<totfact> 0.12784896E+00</totfact>
</mgrwt>
</event>
<event>
 6    1  0.4510314E-003  0.6426745E+03  0.7818608E-02  0.9820623E-01
          1   -1    0    0  502    0  0.00000000000E+00  0.00000000000E+00  0.10325972823E+03  0.10325972823E+03  0.00000000000E+00 0.  1.
         13   -1    0    0    0    0 -0.00000000000E+00 -0.00000000000E+00 -0.10000000000E+04  0.10000000000E+04  0.00000000000E+00 0.  1.
    9000005    2    1    2  501    0  0.37334978316E-04  0.11165209798E-04 -0.89674238424E+03  0.11032576154E+04  0.64267446054E+03 0.  0.
         13    1    3    3    0    0 -0.18659694516E+03  0.50460709794E+02 -0.88903279420E+03  0.90980438136E+03  0.00000000000E+00 0.  1.
          3    1    3    3  501    0  0.18659698249E+03 -0.50460698628E+02 -0.77095900415E+01  0.19345323404E+03  0.00000000000E+00 0.  1.
         21    1    1    2  502  501 -0.37334978299E-04 -0.11165209796E-04  0.21124697925E-02  0.21128291902E-02  0.00000000000E+00 0.  1.
<mgrwt>
<rscale>  1 0.64267446E+03</rscale>
<asrwt>0</asrwt>
<pdfrwt beam="1">  1        1 0.37549071E+00 0.64267446E+03</pdfrwt>
<pdfrwt beam="2">0</pdfrwt>
<totfact> 0.17201247E+00</totfact>
</mgrwt>
</event>
<event>
 6    1  0.4510314E-003  0.4945137E+03  0.7818608E-02  0.1015221E+00
          1   -1    0    0  502    0  0.00000000000E+00  0.00000000000E+00  0.61303344080E+02  0.61303344080E+02  0.00000000000E+00 0.  1.
         13   -1    0    0    0    0 -0.00000000000E+00 -0.00000000000E+00 -0.10000000000E+04  0.10000000000E+04  0.00000000000E+00 0.  1.
    9000005    2    1    2  501    0 -0.62188240167E-03 -0.25590327830E-02 -0.93886405020E+03  0.10611359291E+04  0.49451365523E+03 0.  0.
         13    1    3    3    0    0 -0.12366468732E+03  0.17826770299E+03 -0.21496133543E+03  0.30541890012E+03  0.00000000000E+00 0.  1.
          1    1    3    3  501    0  0.12366406544E+03 -0.17827026202E+03 -0.72390271478E+03  0.75571702896E+03  0.00000000000E+00 0.  1.
         21    1    1    2  502  501  0.62188240167E-03  0.25590327830E-02  0.16739428457E+00  0.16741499901E+00  0.00000000000E+00 0. -1.
<mgrwt>
<rscale>  1 0.49451366E+03</rscale>
<asrwt>0</asrwt>
<pdfrwt beam="1">  1        1 0.22292172E+00 0.49451366E+03</pdfrwt>
<pdfrwt beam="2">0</pdfrwt>
<totfact> 0.81241282E+00</totfact>
</mgrwt>
</event>
<event>
 6    1  0.4510314E-003  0.6583885E+03  0.7818608E-02  0.9791165E-01
          1   -1    0    0  502    0  0.00000000000E+00  0.00000000000E+00  0.10987417530E+03  0.10987417530E+03  0.00000000000E+00 0.  1.
         13   -1    0    0    0    0 -0.00000000000E+00 -0.00000000000E+00 -0.10000000000E+04  0.10000000000E+04  0.00000000000E+00 0.  1.
    9000005    2    1    2  501    0 -0.21128427906E+00  0.17001393191E+01 -0.89107041634E+03  0.11079178092E+04  0.65838624686E+03 0.  0.
         13    1    3    3    0    0 -0.10735159631E+03 -0.18757901301E+03 -0.86176566476E+03  0.88845388868E+03  0.00000000000E+00 0.  1.
          1    1    3    3  501    0  0.10714031203E+03  0.18927915233E+03 -0.29304751581E+02  0.21946392057E+03  0.00000000000E+00 0.  1.
         21    1    1    2  502  501  0.21128427906E+00 -0.17001393191E+01  0.94459163809E+00  0.19563660480E+01  0.00000000000E+00 0. -1.
<mgrwt>
<rscale>  1 0.65838848E+03</rscale>
<asrwt>0</asrwt>
<pdfrwt beam="1">  1        1 0.39954330E+00 0.65838848E+03</pdfrwt>
<pdfrwt beam="2">0</pdfrwt>
<totfact> 0.13420275E+00</totfact>
</mgrwt>
</event>
<event>
 6    1  0.4510314E-003  0.6489935E+03  0.7818608E-02  0.9808670E-01
          1   -1    0    0  502    0  0.00000000000E+00  0.00000000000E+00  0.10531199361E+03  0.10531199361E+03  0.00000000000E+00 0.  1.
         13   -1    0    0    0    0 -0.00000000000E+00 -0.00000000000E+00 -0.10000000000E+04  0.10000000000E+04  0.00000000000E+00 0.  1.
    9000005    2    1    2  501    0  0.20933910461E-02  0.49687563117E-02 -0.89470127494E+03  0.11052976714E+04  0.64899350615E+03 0.  0.
         13    1    3    3    0    0  0.16019633794E+03  0.87405651611E+02 -0.90432889757E+03  0.92255805757E+03  0.00000000000E+00 0.  1.
          1    1    3    3  501    0 -0.16019424455E+03 -0.87400682855E+02  0.96276226224E+01  0.18273961384E+03  0.00000000000E+00 0.  1.
         21    1    1    2  502  501 -0.20933910462E-02 -0.49687563117E-02  0.13268555418E-01  0.14322199142E-01  0.00000000000E+00 0.  1.
<mgrwt>
<rscale>  1 0.64899351E+03</rscale>
<asrwt>0</asrwt>
<pdfrwt beam="1">  1        1 0.38295351E+00 0.64899351E+03</pdfrwt>
<pdfrwt beam="2">0</pdfrwt>
<totfact> 0.15927230E+00</totfact>
</mgrwt>
</event>
<event>
 6    1  0.4510314E-003  0.6437809E+03  0.7818608E-02  0.9818519E-01
          1   -1    0    0  502    0  0.00000000000E+00  0.00000000000E+00  0.10365629107E+03  0.10365629107E+03  0.00000000000E+00 0.  1.
         13   -1    0    0    0    0 -0.00000000000E+00 -0.00000000000E+00 -0.10000000000E+04  0.10000000000E+04  0.00000000000E+00 0.  1.
    9000005    2    1    2  501    0  0.64315649627E-03  0.88748097224E-03 -0.89638653691E+03  0.11036134491E+04  0.64378087997E+03 0.  0.
         13    1    3    3    0    0 -0.26096390013E+03  0.11495314719E+03 -0.19221539310E+03  0.34389408335E+03  0.00000000000E+00 0.  1.
          1    1    3    3  501    0  0.26096454329E+03 -0.11495225971E+03 -0.70417114381E+03  0.75971936571E+03  0.00000000000E+00 0.  1.
         21    1    1    2  502  501 -0.64315649624E-03 -0.88748097224E-03  0.42827982680E-01  0.42842004776E-01  0.00000000000E+00 0. -1.
<mgrwt>
<rscale>  1 0.64378088E+03</rscale>
<asrwt>0</asrwt>
<pdfrwt beam="1">  1        1 0.37693276E+00 0.64378088E+03</pdfrwt>
<pdfrwt beam="2">0</pdfrwt>
<totfact> 0.16948090E+00</totfact>
</mgrwt>
</event>
<event>
 6    1  0.4510314E-003  0.6767494E+03  0.7818608E-02  0.9757841E-01
          1   -1    0    0  502    0  0.00000000000E+00  0.00000000000E+00  0.11450113907E+03  0.11450113907E+03  0.00000000000E+00 0.  1.
         13   -1    0    0    0    0 -0.00000000000E+00 -0.00000000000E+00 -0.10000000000E+04  0.10000000000E+04  0.00000000000E+00 0.  1.
    9000005    2    1    2  501    0  0.18654852170E-05  0.64555548249E-04 -0.88550256855E+03  0.11144974309E+04  0.67674938090E+03 0.  0.
         13    1    3    3    0    0  0.11256301388E+03 -0.26825122772E+03 -0.15813730840E+03  0.33111412168E+03  0.00000000000E+00 0.  1.
          1    1    3    3  501    0 -0.11256301202E+03  0.26825129227E+03 -0.72736526015E+03  0.78338330921E+03  0.00000000000E+00 0.  1.
         21    1    1    2  502  501 -0.18654852250E-05 -0.64555548265E-04  0.37076216882E-02  0.37081841219E-02  0.00000000000E+00 0.  1.
<mgrwt>
<rscale>  1 0.67674938E+03</rscale>
<asrwt>0</asrwt>
<pdfrwt beam="1">  1        1 0.41636866E+00 0.67674938E+03</pdfrwt>
<pdfrwt beam="2">0</pdfrwt>
<totfact> 0.11242789E+00</totfact>
</mgrwt>
</event>
<event>
 6    1  0.4510314E-003  0.6427475E+03  0.7818608E-02  0.9820484E-01
          1   -1    0    0  502    0  0.00000000000E+00  0.00000000000E+00  0.10328383482E+03  0.10328383482E+03  0.00000000000E+00 0.  1.
         13   -1    0    0    0    0 -0.00000000000E+00 -0.00000000000E+00 -0.10000000000E+04  0.10000000000E+04  0.00000000000E+00 0.  1.
    9000005    2    1    2  501    0 -0.36188580077E-03 -0.66367189760E-04 -0.89671890787E+03  0.11032810676E+04  0.64274747321E+03 0.  0.
         13    1    3    3    0    0 -0.22856229399E+03  0.21363085765E+03 -0.57452329617E+03  0.65418337140E+03  0.00000000000E+00 0.  1.
          3    1    3    3  501    0  0.22856193210E+03 -0.21363092402E+03 -0.32219561170E+03  0.44909769616E+03  0.00000000000E+00 0.  1.
         21    1    1    2  502  501  0.36188580076E-03  0.66367189741E-04  0.27426922696E-02  0.27672598040E-02  0.00000000000E+00 0.  1.
<mgrwt>
<rscale>  1 0.64274747E+03</rscale>
<asrwt>0</asrwt>
<pdfrwt beam="1">  1        1 0.37557837E+00 0.64274747E+03</pdfrwt>
<pdfrwt beam="2">0</pdfrwt>
<totfact> 0.17185737E+00</totfact>
</mgrwt>
</event>
<event>
 6    1  0.4510314E-003  0.6524395E+03  0.7818608E-02  0.9802212E-01
          1   -1    0    0  502    0  0.00000000000E+00  0.00000000000E+00  0.10655870493E+03  0.10655870493E+03  0.00000000000E+00 0.  1.
         13   -1    0    0    0    0 -0.00000000000E+00 -0.00000000000E+00 -0.10000000000E+04  0.10000000000E+04  0.00000000000E+00 0.  1.
    9000005    2    1    2  501    0  0.67712135257E-03 -0.19261802121E-01 -0.89357994935E+03  0.11064187175E+04  0.65243946245E+03 0.  0.
         13    1    3    3    0    0 -0.26267324592E+03 -0.33494115947E+02 -0.12369112133E+03  0.29226457777E+03  0.00000000000E+00 0.  1.
          1    1    3    3  501    0  0.26267392304E+03  0.33474854145E+02 -0.76988882802E+03  0.81415413972E+03  0.00000000000E+00 0.  1.
         21    1    1    2  502  501 -0.67712135257E-03  0.19261802121E-01  0.13865427170E+00  0.13998743720E+00  0.00000000000E+00 0.  1.
<mgrwt>
<rscale>  1 0.65243946E+03</rscale>
<asrwt>0</asrwt>
<pdfrwt beam="1">  1        1 0.38748702E+00 0.65243946E+03</pdfrwt>
<pdfrwt beam="2">0</pdfrwt>
<totfact> 0.15198782E+00</totfact>
</mgrwt>
</event>
<event>
 6    1  0.4510314E-003  0.6557447E+03  0.7818608E-02  0.9796059E-01
          1   -1    0    0  502    0  0.00000000000E+00  0.00000000000E+00  0.10750113625E+03  0.10750113625E+03  0.00000000000E+00 0.  1.
         13   -1    0    0    0    0 -0.00000000000E+00 -0.00000000000E+00 -0.10000000000E+04  0.10000000000E+04  0.00000000000E+00 0.  1.
    9000005    2    1    2  501    0  0.15801113068E-02  0.20459310111E-02 -0.89249422532E+03  0.11074958261E+04  0.65574466265E+03 0.  0.
         13    1    3    3    0    0 -0.19796868826E+03  0.47862928052E+02 -0.12299192647E+02  0.20404345506E+03  0.00000000000E+00 0.  1.
          3    1    3    3  501    0  0.19797026837E+03 -0.47860882121E+02 -0.88019503267E+03  0.90345237104E+03  0.00000000000E+00 0.  1.
         21    1    1    2  502  501 -0.15801113068E-02 -0.20459310111E-02 -0.46384347032E-02  0.53101470733E-02  0.00000000000E+00 0.  1.
<mgrwt>
<rscale>  1 0.65574466E+03</rscale>
<asrwt>0</asrwt>
<pdfrwt beam="1">  1        1 0.39091405E+00 0.65574466E+03</pdfrwt>
<pdfrwt beam="2">0</pdfrwt>
<totfact> 0.14667331E+00</totfact>
</mgrwt>
</event>
<event>
 6    1  0.4510314E-003  0.6437006E+03  0.7818608E-02  0.9818672E-01
          1   -1    0    0  502    0  0.00000000000E+00  0.00000000000E+00  0.10429203453E+03  0.10429203453E+03  0.00000000000E+00 0.  1.
         13   -1    0    0    0    0 -0.00000000000E+00 -0.00000000000E+00 -0.10000000000E+04  0.10000000000E+04  0.00000000000E+00 0.  1.
    9000005    2    1    2  501    0 -0.24718992864E-01  0.10373986456E-01 -0.89641209586E+03  0.11035873940E+04  0.64370062132E+03 0.  0.
         13    1    3    3    0    0  0.56699436850E+01  0.33005706548E+01  0.10347294518E+03  0.10368072343E+03  0.00000000000E+00 0.  1.
          3    1    3    3  501    0 -0.56946626779E+01 -0.32901966683E+01 -0.99988504104E+03  0.99990667058E+03  0.00000000000E+00 0.  1.
         21    1    1    2  502  501  0.24718992864E-01 -0.10373986456E-01  0.70413039567E+00  0.70464051991E+00  0.00000000000E+00 0.  1.
<mgrwt>
<rscale>  1 0.64370062E+03</rscale>
<asrwt>0</asrwt>
<pdfrwt beam="1">  1        1 0.37924456E+00 0.64370062E+03</pdfrwt>
<pdfrwt beam="2">0</pdfrwt>
<totfact> 0.16555288E+00</totfact>
</mgrwt>
</event>
<event>
 6    1  0.4510314E-003  0.6456210E+03  0.7818608E-02  0.9815031E-01
          1   -1    0    0  502    0  0.00000000000E+00  0.00000000000E+00  0.10420843814E+03  0.10420843814E+03  0.00000000000E+00 0.  1.
         13   -1    0    0    0    0 -0.00000000000E+00 -0.00000000000E+00 -0.10000000000E+04  0.10000000000E+04  0.00000000000E+00 0.  1.
    9000005    2    1    2  501    0 -0.56360986781E-03 -0.35123157221E-03 -0.89579331256E+03  0.11042065657E+04  0.64562100410E+03 0.  0.
         13    1    3    3    0    0  0.11849181089E+03 -0.29671709653E+03 -0.52674354689E+03  0.61606826636E+03  0.00000000000E+00 0.  1.
          1    1    3    3  501    0 -0.11849237450E+03  0.29671674530E+03 -0.36904976567E+03  0.48813829935E+03  0.00000000000E+00 0.  1.
         21    1    1    2  502  501  0.56360986782E-03  0.35123157220E-03  0.17507081820E-02  0.18724312642E-02  0.00000000000E+00 0. -1.
<mgrwt>
<rscale>  1 0.64562100E+03</rscale>
<asrwt>0</asrwt>
<pdfrwt beam="1">  1        1 0.37894057E+00 0.64562100E+03</pdfrwt>
<pdfrwt beam="2">0</pdfrwt>
<totfact> 0.16600609E+00</totfact>
</mgrwt>
</event>
<event>
 6    1  0.4510314E-003  0.6505450E+03  0.7818608E-02  0.9805757E-01
          1   -1    0    0  502    0  0.00000000000E+00  0.00000000000E+00  0.10581080976E+03  0.10581080976E+03  0.00000000000E+00 0.  1.
         13   -1    0    0    0    0 -0.00000000000E+00 -0.00000000000E+00 -0.10000000000E+04  0.10000000000E+04  0.00000000000E+00 0.  1.
    9000005    2    1    2  501    0 -0.15390756081E-02 -0.13424401309E-02 -0.89419765753E+03  0.11058020997E+04  0.65054502754E+03 0.  0.
         13    1    3    3    0    0  0.99394791694E+02  0.23079828371E+03 -0.79815906305E+03  0.83678256573E+03  0.00000000000E+00 0.  1.
          3    1    3    3  501    0 -0.99396330769E+02 -0.23079962615E+03 -0.96038594485E+02  0.26901953392E+03  0.00000000000E+00 0.  1.
         21    1    1    2  502  501  0.15390756081E-02  0.13424401309E-02  0.84672966346E-02  0.87101097313E-02  0.00000000000E+00 0.  1.
<mgrwt>
<rscale>  1 0.65054503E+03</rscale>
<asrwt>0</asrwt>
<pdfrwt beam="1">  1        1 0.38476739E+00 0.65054503E+03</pdfrwt>
<pdfrwt beam="2">0</pdfrwt>
<totfact> 0.15631381E+00</totfact>
</mgrwt>
</event>
<event>
 6    1  0.4510314E-003  0.6255160E+03  0.7818608E-02  0.9853838E-01
          1   -1    0    0  502    0  0.00000000000E+00  0.00000000000E+00  0.99379633925E+02  0.99379633925E+02  0.00000000000E+00 0.  1.
         13   -1    0    0    0    0 -0.00000000000E+00 -0.00000000000E+00 -0.10000000000E+04  0.10000000000E+04  0.00000000000E+00 0.  1.
    9000005    2    1    2  501    0  0.20940354191E+00  0.80270376705E+00 -0.90206067130E+03  0.10977175081E+04  0.62551545518E+03 0.  0.
         13    1    3    3    0    0 -0.12207666504E+03 -0.20691039148E+03 -0.80117704325E+03  0.83642051438E+03  0.00000000000E+00 0.  1.
          1    1    3    3  501    0  0.12228606858E+03  0.20771309525E+03 -0.10088362805E+03  0.26129699370E+03  0.00000000000E+00 0.  1.
         21    1    1    2  502  501 -0.20940354191E+00 -0.80270376705E+00  0.14403052236E+01  0.16621258430E+01  0.00000000000E+00 0.  1.
<mgrwt>
<rscale>  1 0.62551601E+03</rscale>
<asrwt>0</asrwt>
<pdfrwt beam="1">  1        1 0.36138125E+00 0.62551601E+03</pdfrwt>
<pdfrwt beam="2">0</pdfrwt>
<totfact> 0.19899421E+00</totfact>
</mgrwt>
</event>
<event>
 6    1  0.4510314E-003  0.6470311E+03  0.7818608E-02  0.9812366E-01
          1   -1    0    0  502    0  0.00000000000E+00  0.00000000000E+00  0.10466242621E+03  0.10466242621E+03  0.00000000000E+00 0.  1.
         13   -1    0    0    0    0 -0.00000000000E+00 -0.00000000000E+00 -0.10000000000E+04  0.10000000000E+04  0.00000000000E+00 0.  1.
    9000005    2    1    2  501    0 -0.16061596042E-03 -0.53741759530E-04 -0.89533760567E+03  0.11046622539E+04  0.64703111749E+03 0.  0.
         13    1    3    3    0    0 -0.61726235331E+02 -0.26269098638E+03 -0.75233869287E+03  0.79926853512E+03  0.00000000000E+00 0.  1.
          3    1    3    3  501    0  0.61726074715E+02  0.26269093264E+03 -0.14299891280E+03  0.30539371875E+03  0.00000000000E+00 0.  1.
         21    1    1    2  502  501  0.16061596042E-03  0.53741759521E-04  0.31881056987E-04  0.17234287120E-03  0.00000000000E+00 0. -1.
<mgrwt>
<rscale>  1 0.64703112E+03</rscale>
<asrwt>0</asrwt>
<pdfrwt beam="1">  1        1 0.38059144E+00 0.64703112E+03</pdfrwt>
<pdfrwt beam="2">0</pdfrwt>
<totfact> 0.16320305E+00</totfact>
</mgrwt>
</event>
<event>
 6    1  0.4510314E-003  0.6369676E+03  0.7818608E-02  0.9831546E-01
          1   -1    0    0  502    0  0.00000000000E+00  0.00000000000E+00  0.10192484499E+03  0.10192484499E+03  0.00000000000E+00 0.  1.
         13   -1    0    0    0    0 -0.00000000000E+00 -0.00000000000E+00 -0.10000000000E+04  0.10000000000E+04  0.00000000000E+00 0.  1.
    9000005    2    1    2  501    0  0.73577966561E-01 -0.13219349117E+00 -0.89855525203E+03  0.11014214744E+04  0.63696758188E+03 0.  0.
         13    1    3    3    0    0 -0.19599347845E+03  0.85446850424E+02 -0.41154062894E+02  0.21773439033E+03  0.00000000000E+00 0.  1.
          3    1    3    3  501    0  0.19606705641E+03 -0.85579043915E+02 -0.85740118913E+03  0.88368708404E+03  0.00000000000E+00 0.  1.
         21    1    1    2  502  501 -0.73577966561E-01  0.13219349117E+00  0.48009701785E+00  0.50337062173E+00  0.00000000000E+00 0. -1.
<mgrwt>
<rscale>  1 0.63696760E+03</rscale>
<asrwt>0</asrwt>
<pdfrwt beam="1">  1        1 0.37063658E+00 0.63696760E+03</pdfrwt>
<pdfrwt beam="2">0</pdfrwt>
<totfact> 0.18086750E+00</totfact>
</mgrwt>
</event>
<event>
 6    1  0.4510314E-003  0.5587853E+03  0.7818608E-02  0.9994807E-01
          1   -1    0    0  502    0  0.00000000000E+00  0.00000000000E+00  0.78120789673E+02  0.78120789673E+02  0.00000000000E+00 0.  1.
         13   -1    0    0    0    0 -0.00000000000E+00 -0.00000000000E+00 -0.10000000000E+04  0.10000000000E+04  0.00000000000E+00 0.  1.
    9000005    2    1    2  501    0  0.87137880489E-01  0.36541271587E-01 -0.92189791590E+03  0.10780244664E+04  0.55878526634E+03 0.  0.
         13    1    3    3    0    0  0.26392682584E+03 -0.91095259359E+02 -0.43950706016E+03  0.52069393275E+03  0.00000000000E+00 0.  1.
          3    1    3    3  501    0 -0.26383968796E+03  0.91131800630E+02 -0.48239085574E+03  0.55733053365E+03  0.00000000000E+00 0.  1.
         21    1    1    2  502  501 -0.87137880489E-01 -0.36541271587E-01  0.18705576841E-01  0.96323275226E-01  0.00000000000E+00 0. -1.
<mgrwt>
<rscale>  1 0.55878527E+03</rscale>
<asrwt>0</asrwt>
<pdfrwt beam="1">  1        1 0.28407620E+00 0.55878527E+03</pdfrwt>
<pdfrwt beam="2">0</pdfrwt>
<totfact> 0.43536345E+00</totfact>
</mgrwt>
</event>
<event>
 6    1  0.4510314E-003  0.6541432E+03  0.7818608E-02  0.9799036E-01
          1   -1    0    0  502    0  0.00000000000E+00  0.00000000000E+00  0.10698045993E+03  0.10698045993E+03  0.00000000000E+00 0.  1.
         13   -1    0    0    0    0 -0.00000000000E+00 -0.00000000000E+00 -0.10000000000E+04  0.10000000000E+04  0.00000000000E+00 0.  1.
    9000005    2    1    2  501    0  0.11584384854E-02  0.67836441025E-03 -0.89302407655E+03  0.11069757290E+04  0.65414315197E+03 0.  0.
         13    1    3    3    0    0 -0.24962594739E+03 -0.21118530315E+03 -0.43307529638E+03  0.54264772939E+03  0.00000000000E+00 0.  1.
          3    1    3    3  501    0  0.24962710583E+03  0.21118598151E+03 -0.45994878017E+03  0.56432799960E+03  0.00000000000E+00 0.  1.
         21    1    1    2  502  501 -0.11584384853E-02 -0.67836441025E-03  0.45364754369E-02  0.47309372631E-02  0.00000000000E+00 0.  1.
<mgrwt>
<rscale>  1 0.65414315E+03</rscale>
<asrwt>0</asrwt>
<pdfrwt beam="1">  1        1 0.38902067E+00 0.65414315E+03</pdfrwt>
<pdfrwt beam="2">0</pdfrwt>
<totfact> 0.14958106E+00</totfact>
</mgrwt>
</event>
<event>
 6    1  0.4510314E-003  0.6572185E+03  0.7818608E-02  0.9793328E-01
          1   -1    0    0  502    0  0.00000000000E+00  0.00000000000E+00  0.10798481904E+03  0.10798481904E+03  0.00000000000E+00 0.  1.
         13   -1    0    0    0    0 -0.00000000000E+00 -0.00000000000E+00 -0.10000000000E+04  0.10000000000E+04  0.00000000000E+00 0.  1.
    9000005    2    1    2  501    0  0.81908325456E-05  0.30758587855E-04 -0.89201595743E+03  0.11079840419E+04  0.65721850921E+03 0.  0.
         13    1    3    3    0    0 -0.21045267868E+03 -0.20369184107E+03 -0.69721560941E+03  0.75623429047E+03  0.00000000000E+00 0.  1.
          1    1    3    3  501    0  0.21045268687E+03  0.20369187183E+03 -0.19480034802E+03  0.35174975145E+03  0.00000000000E+00 0.  1.
         21    1    1    2  502  501 -0.81908325571E-05 -0.30758587843E-04  0.77646590629E-03  0.77711806316E-03  0.00000000000E+00 0.  1.
<mgrwt>
<rscale>  1 0.65721851E+03</rscale>
<asrwt>0</asrwt>
<pdfrwt beam="1">  1        1 0.39267290E+00 0.65721851E+03</pdfrwt>
<pdfrwt beam="2">0</pdfrwt>
<totfact> 0.14402059E+00</totfact>
</mgrwt>
</event>
<event>
 6    1  0.4510314E-003  0.6423180E+03  0.7818608E-02  0.9821302E-01
          1   -1    0    0  502    0  0.00000000000E+00  0.00000000000E+00  0.10314336416E+03  0.10314336416E+03  0.00000000000E+00 0.  1.
         13   -1    0    0    0    0 -0.00000000000E+00 -0.00000000000E+00 -0.10000000000E+04  0.10000000000E+04  0.00000000000E+00 0.  1.
    9000005    2    1    2  501    0  0.35604023884E-03 -0.26597676484E-03 -0.89685667790E+03  0.11031429178E+04  0.64231798689E+03 0.  0.
         13    1    3    3    0    0 -0.29529434656E+03  0.69107086784E+02 -0.26692755706E+03  0.40401096678E+03  0.00000000000E+00 0.  1.
          1    1    3    3  501    0  0.29529470260E+03 -0.69107352761E+02 -0.62992912084E+03  0.69913195098E+03  0.00000000000E+00 0.  1.
         21    1    1    2  502  501 -0.35604023887E-03  0.26597676484E-03  0.42059597747E-04  0.44640486209E-03  0.00000000000E+00 0. -1.
<mgrwt>
<rscale>  1 0.64231799E+03</rscale>
<asrwt>0</asrwt>
<pdfrwt beam="1">  1        1 0.37506757E+00 0.64231799E+03</pdfrwt>
<pdfrwt beam="2">0</pdfrwt>
<totfact> 0.17276315E+00</totfact>
</mgrwt>
</event>
<event>
 6    1  0.4510314E-003  0.6504645E+03  0.7818608E-02  0.9805908E-01
          1   -1    0    0  502    0  0.00000000000E+00  0.00000000000E+00  0.10704914548E+03  0.10704914548E+03  0.00000000000E+00 0.  1.
         13   -1    0    0    0    0 -0.00000000000E+00 -0.00000000000E+00 -0.10000000000E+04  0.10000000000E+04  0.00000000000E+00 0.  1.
    9000005    2    1    2  501    0 -0.17080793412E+00  0.16242210917E+00 -0.89421190297E+03  0.11057662583E+04  0.65046447641E+03 0.  0.
         13    1    3    3    0    0  0.26131178785E+03  0.19317473492E+03 -0.46874213291E+03  0.57036787765E+03  0.00000000000E+00 0.  1.
          3    1    3    3  501    0 -0.26148259578E+03 -0.19301231282E+03 -0.42546977005E+03  0.53539838067E+03  0.00000000000E+00 0.  1.
         21    1    1    2  502  501  0.17080793412E+00 -0.16242210917E+00  0.12610484431E+01  0.12828871609E+01  0.00000000000E+00 0.  1.
<mgrwt>
<rscale>  1 0.65046452E+03</rscale>
<asrwt>0</asrwt>
<pdfrwt beam="1">  1        1 0.38927044E+00 0.65046452E+03</pdfrwt>
<pdfrwt beam="2">0</pdfrwt>
<totfact> 0.14930221E+00</totfact>
</mgrwt>
</event>
<event>
 6    1  0.4510314E-003  0.6555332E+03  0.7818608E-02  0.9796452E-01
          1   -1    0    0  502    0  0.00000000000E+00  0.00000000000E+00  0.10743247451E+03  0.10743247451E+03  0.00000000000E+00 0.  1.
         13   -1    0    0    0    0 -0.00000000000E+00 -0.00000000000E+00 -0.10000000000E+04  0.10000000000E+04  0.00000000000E+00 0.  1.
    9000005    2    1    2  501    0  0.13118751211E-02 -0.10050039265E-02 -0.89256855587E+03  0.11074305270E+04  0.65553317631E+03 0.  0.
         13    1    3    3    0    0 -0.68574862359E+02  0.20935365841E+03 -0.85627661635E+03  0.88416124647E+03  0.00000000000E+00 0.  1.
          3    1    3    3  501    0  0.68576174234E+02 -0.20935466341E+03 -0.36291939516E+02  0.22326928055E+03  0.00000000000E+00 0.  1.
         21    1    1    2  502  501 -0.13118751212E-02  0.10050039265E-02  0.10303848267E-02  0.19474963715E-02  0.00000000000E+00 0. -1.
<mgrwt>
<rscale>  1 0.65553318E+03</rscale>
<asrwt>0</asrwt>
<pdfrwt beam="1">  1        1 0.39066437E+00 0.65553318E+03</pdfrwt>
<pdfrwt beam="2">0</pdfrwt>
<totfact> 0.14705367E+00</totfact>
</mgrwt>
</event>
<event>
 6    1  0.4510314E-003  0.6636903E+03  0.7818608E-02  0.9781424E-01
          1   -1    0    0  502    0  0.00000000000E+00  0.00000000000E+00  0.11012179270E+03  0.11012179270E+03  0.00000000000E+00 0.  1.
         13   -1    0    0    0    0 -0.00000000000E+00 -0.00000000000E+00 -0.10000000000E+04  0.10000000000E+04  0.00000000000E+00 0.  1.
    9000005    2    1    2  501    0 -0.13182508810E-02 -0.22388641268E-03 -0.88987781805E+03  0.11101204001E+04  0.66369026781E+03 0.  0.
         13    1    3    3    0    0  0.26132620531E+03 -0.54420091036E+02 -0.77470002845E+03  0.81939798998E+03  0.00000000000E+00 0.  1.
          3    1    3    3  501    0 -0.26132752356E+03  0.54419867149E+02 -0.11517778960E+03  0.29072241009E+03  0.00000000000E+00 0.  1.
         21    1    1    2  502  501  0.13182508810E-02  0.22388641268E-03 -0.38924835975E-03  0.13926323265E-02  0.00000000000E+00 0.  1.
<mgrwt>
<rscale>  1 0.66369027E+03</rscale>
<asrwt>0</asrwt>
<pdfrwt beam="1">  1        1 0.40044373E+00 0.66369027E+03</pdfrwt>
<pdfrwt beam="2">0</pdfrwt>
<totfact> 0.13283565E+00</totfact>
</mgrwt>
</event>
<event>
 6    1  0.4510314E-003  0.6581333E+03  0.7818608E-02  0.9791636E-01
          1   -1    0    0  502    0  0.00000000000E+00  0.00000000000E+00  0.10831933485E+03  0.10831933485E+03  0.00000000000E+00 0.  1.
         13   -1    0    0    0    0 -0.00000000000E+00 -0.00000000000E+00 -0.10000000000E+04  0.10000000000E+04  0.00000000000E+00 0.  1.
    9000005    2    1    2  501    0 -0.11728508635E-01  0.26833965884E-01 -0.89170812465E+03  0.11082791896E+04  0.65813325520E+03 0.  0.
         13    1    3    3    0    0  0.32336986854E+03  0.42248566968E+02 -0.37188449626E+03  0.49462217080E+03  0.00000000000E+00 0.  1.
          3    1    3    3  501    0 -0.32338159705E+03 -0.42221733002E+02 -0.51982362839E+03  0.61365701876E+03  0.00000000000E+00 0.  1.
         21    1    1    2  502  501  0.11728508635E-01 -0.26833965884E-01  0.27459495291E-01  0.40145280190E-01  0.00000000000E+00 0. -1.
<mgrwt>
<rscale>  1 0.65813326E+03</rscale>
<asrwt>0</asrwt>
<pdfrwt beam="1">  1        1 0.39388932E+00 0.65813326E+03</pdfrwt>
<pdfrwt beam="2">0</pdfrwt>
<totfact> 0.14221539E+00</totfact>
</mgrwt>
</event>
<event>
 6    1  0.4510314E-003  0.6525460E+03  0.7818608E-02  0.9802013E-01
          1   -1    0    0  502    0  0.00000000000E+00  0.00000000000E+00  0.10645418770E+03  0.10645418770E+03  0.00000000000E+00 0.  1.
         13   -1    0    0    0    0 -0.00000000000E+00 -0.00000000000E+00 -0.10000000000E+04  0.10000000000E+04  0.00000000000E+00 0.  1.
    9000005    2    1    2  501    0 -0.49009389016E-04 -0.31702240335E-05 -0.89354591912E+03  0.11064540701E+04  0.65254601351E+03 0.  0.
         13    1    3    3    0    0  0.16811446529E+03 -0.24137168403E+03 -0.68615418166E+03  0.74654559426E+03  0.00000000000E+00 0.  1.
          1    1    3    3  501    0 -0.16811451430E+03  0.24137168086E+03 -0.20739173745E+03  0.35990847587E+03  0.00000000000E+00 0.  1.
         21    1    1    2  502  501  0.49009389021E-04  0.31702240263E-05  0.10682073955E-03  0.11756972795E-03  0.00000000000E+00 0. -1.
<mgrwt>
<rscale>  1 0.65254601E+03</rscale>
<asrwt>0</asrwt>
<pdfrwt beam="1">  1        1 0.38710695E+00 0.65254601E+03</pdfrwt>
<pdfrwt beam="2">0</pdfrwt>
<totfact> 0.15257498E+00</totfact>
</mgrwt>
</event>
<event>
 6    1  0.4510314E-003  0.6566084E+03  0.7818608E-02  0.9794457E-01
          1   -1    0    0  502    0  0.00000000000E+00  0.00000000000E+00  0.10778389633E+03  0.10778389633E+03  0.00000000000E+00 0.  1.
         13   -1    0    0    0    0 -0.00000000000E+00 -0.00000000000E+00 -0.10000000000E+04  0.10000000000E+04  0.00000000000E+00 0.  1.
    9000005    2    1    2  501    0  0.80772336730E-04  0.32193080528E-03 -0.89221622696E+03  0.11077835423E+04  0.65660839232E+03 0.  0.
         13    1    3    3    0    0  0.13707432788E+03 -0.29159755002E+03 -0.33987154003E+03  0.46832805411E+03  0.00000000000E+00 0.  1.
          3    1    3    3  501    0 -0.13707424711E+03  0.29159787195E+03 -0.55234468693E+03  0.63945548815E+03  0.00000000000E+00 0.  1.
         21    1    1    2  502  501 -0.80772336725E-04 -0.32193080533E-03  0.12329343016E-03  0.35406903807E-03  0.00000000000E+00 0.  1.
<mgrwt>
<rscale>  1 0.65660839E+03</rscale>
<asrwt>0</asrwt>
<pdfrwt beam="1">  1        1 0.39194227E+00 0.65660839E+03</pdfrwt>
<pdfrwt beam="2">0</pdfrwt>
<totfact> 0.14511691E+00</totfact>
</mgrwt>
</event>
<event>
 6    1  0.4510314E-003  0.6523857E+03  0.7818608E-02  0.9802313E-01
          1   -1    0    0  502    0  0.00000000000E+00  0.00000000000E+00  0.11443663749E+03  0.11443663749E+03  0.00000000000E+00 0.  1.
         13   -1    0    0    0    0 -0.00000000000E+00 -0.00000000000E+00 -0.10000000000E+04  0.10000000000E+04  0.00000000000E+00 0.  1.
    9000005    2    1    2  501    0  0.20960368116E+02  0.21806859381E+00 -0.87355962745E+03  0.10902814260E+04  0.65204890971E+03 0.  0.
         13    1    3    3    0    0 -0.21185040520E+03 -0.23099536143E+03 -0.32818487579E+03  0.45381137478E+03  0.00000000000E+00 0.  1.
          1    1    3    3  501    0  0.23281077332E+03  0.23121343002E+03 -0.54537475165E+03  0.63647005125E+03  0.00000000000E+00 0.  1.
         21    1    1    2  502  501 -0.20960368116E+02 -0.21806859381E+00 -0.12003735060E+02  0.24155211464E+02  0.00000000000E+00 0.  1.
<mgrwt>
<rscale>  1 0.65238575E+03</rscale>
<asrwt>0</asrwt>
<pdfrwt beam="1">  1        1 0.41613410E+00 0.65238575E+03</pdfrwt>
<pdfrwt beam="2">0</pdfrwt>
<totfact> 0.11323154E+00</totfact>
</mgrwt>
</event>
<event>
 6    1  0.5555888E-003  0.5867067E+03  0.7818608E-02  0.9933376E-01
          1   -1    0    0  502    0  0.00000000000E+00  0.00000000000E+00  0.86056213005E+02  0.86056213005E+02  0.00000000000E+00 0.  1.
         13   -1    0    0    0    0 -0.00000000000E+00 -0.00000000000E+00 -0.10000000000E+04  0.10000000000E+04  0.00000000000E+00 0.  1.
    9000005    2    1    2  501    0 -0.73709065873E-06  0.53869831859E-04 -0.91394376295E+03  0.10860561540E+04  0.58670671363E+03 0.  0.
         13    1    3    3    0    0 -0.25860193981E+03  0.55101211400E+02 -0.22176424364E+03  0.34509489496E+03  0.00000000000E+00 0.  1.
          3    1    3    3  501    0  0.25860193907E+03 -0.55101157530E+02 -0.69217951931E+03  0.74096125905E+03  0.00000000000E+00 0.  1.
         21    1    1    2  502  501  0.73709065917E-06 -0.53869831863E-04 -0.24045150365E-04  0.58997214711E-04  0.00000000000E+00 0. -1.
<mgrwt>
<rscale>  1 0.58670671E+03</rscale>
<asrwt>0</asrwt>
<pdfrwt beam="1">  1        1 0.31293234E+00 0.58670671E+03</pdfrwt>
<pdfrwt beam="2">0</pdfrwt>
<totfact> 0.32524933E+00</totfact>
</mgrwt>
</event>
<event>
 6    1  0.4510314E-003  0.6467156E+03  0.7818608E-02  0.9812962E-01
          3   -1    0    0  502    0  0.00000000000E+00  0.00000000000E+00  0.10484251825E+03  0.10484251825E+03  0.00000000000E+00 0.  1.
         13   -1    0    0    0    0 -0.00000000000E+00 -0.00000000000E+00 -0.10000000000E+04  0.10000000000E+04  0.00000000000E+00 0.  1.
    9000005    2    1    2  501    0 -0.26623719205E-01  0.19621481223E-02 -0.89543904961E+03  0.11045596877E+04  0.64671555676E+03 0.  0.
         13    1    3    3    0    0  0.21767228638E+03  0.23209035739E+03 -0.54593772500E+03  0.63189805969E+03  0.00000000000E+00 0.  1.
          1    1    3    3  501    0 -0.21769891010E+03 -0.23208839525E+03 -0.34950132461E+03  0.47266162799E+03  0.00000000000E+00 0.  1.
         21    1    1    2  502  501  0.26623719205E-01 -0.19621481223E-02  0.28156786740E+00  0.28283057897E+00  0.00000000000E+00 0. -1.
<mgrwt>
<rscale>  1 0.64671556E+03</rscale>
<asrwt>0</asrwt>
<pdfrwt beam="1">  1        3 0.38124632E+00 0.64671556E+03</pdfrwt>
<pdfrwt beam="2">0</pdfrwt>
<totfact> 0.74384316E-02</totfact>
</mgrwt>
</event>
<event>
 6    1  0.4510314E-003  0.6531068E+03  0.7818608E-02  0.9800967E-01
          1   -1    0    0  502    0  0.00000000000E+00  0.00000000000E+00  0.10663714433E+03  0.10663714433E+03  0.00000000000E+00 0.  1.
         13   -1    0    0    0    0 -0.00000000000E+00 -0.00000000000E+00 -0.10000000000E+04  0.10000000000E+04  0.00000000000E+00 0.  1.
    9000005    2    1    2  501    0  0.31914713588E-04  0.32836542516E-05 -0.89336284090E+03  0.11066371090E+04  0.65310682551E+03 0.  0.
         13    1    3    3    0    0 -0.19159764844E+03 -0.22922061793E+03 -0.67009676460E+03  0.73367664846E+03  0.00000000000E+00 0.  1.
          3    1    3    3  501    0  0.19159768036E+03  0.22922062121E+03 -0.22326607630E+03  0.37296046055E+03  0.00000000000E+00 0.  1.
         21    1    1    2  502  501 -0.31914713595E-04 -0.32836542457E-05 -0.14767146302E-04  0.35318549503E-04  0.00000000000E+00 0. -1.
<mgrwt>
<rscale>  1 0.65310683E+03</rscale>
<asrwt>0</asrwt>
<pdfrwt beam="1">  1        1 0.38777225E+00 0.65310683E+03</pdfrwt>
<pdfrwt beam="2">0</pdfrwt>
<totfact> 0.15152761E+00</totfact>
</mgrwt>
</event>
<event>
 6    1  0.4510314E-003  0.4813721E+03  0.7818608E-02  0.1018759E+00
          1   -1    0    0  502    0  0.00000000000E+00  0.00000000000E+00  0.59265269133E+02  0.59265269133E+02  0.00000000000E+00 0.  1.
         13   -1    0    0    0    0 -0.00000000000E+00 -0.00000000000E+00 -0.10000000000E+04  0.10000000000E+04  0.00000000000E+00 0.  1.
    9000005    2    1    2  501    0 -0.19390330818E+01 -0.32601782408E-01 -0.94130112210E+03  0.10572449446E+04  0.48136816420E+03 0.  0.
         13    1    3    3    0    0 -0.73603288315E+02  0.22825046401E+03 -0.41980038892E+03  0.48347500960E+03  0.00000000000E+00 0.  1.
          3    1    3    3  501    0  0.71664255233E+02 -0.22828306579E+03 -0.52150073318E+03  0.57376993500E+03  0.00000000000E+00 0.  1.
         21    1    1    2  502  501  0.19390330818E+01  0.32601782408E-01  0.56639123669E+00  0.20203245288E+01  0.00000000000E+00 0. -1.
<mgrwt>
<rscale>  1 0.48137207E+03</rscale>
<asrwt>0</asrwt>
<pdfrwt beam="1">  1        1 0.21551052E+00 0.48137207E+03</pdfrwt>
<pdfrwt beam="2">0</pdfrwt>
<totfact> 0.87823326E+00</totfact>
</mgrwt>
</event>
<event>
 6    1  0.4510314E-003  0.6520439E+03  0.7818608E-02  0.9802951E-01
          1   -1    0    0  502    0  0.00000000000E+00  0.00000000000E+00  0.10629033302E+03  0.10629033302E+03  0.00000000000E+00 0.  1.
         13   -1    0    0    0    0 -0.00000000000E+00 -0.00000000000E+00 -0.10000000000E+04  0.10000000000E+04  0.00000000000E+00 0.  1.
    9000005    2    1    2  501    0  0.76003658691E-05 -0.53189869220E-05 -0.89370967371E+03  0.11062903216E+04  0.65204393617E+03 0.  0.
         13    1    3    3    0    0  0.20957422531E+02  0.22245547702E+03 -0.84966065407E+03  0.87854930419E+03  0.00000000000E+00 0.  1.
          1    1    3    3  501    0 -0.20957414930E+02 -0.22245548234E+03 -0.44049019638E+02  0.22774101737E+03  0.00000000000E+00 0.  1.
         21    1    1    2  502  501 -0.76003658693E-05  0.53189869246E-05  0.67248917069E-05  0.11457807457E-04  0.00000000000E+00 0. -1.
<mgrwt>
<rscale>  1 0.65204394E+03</rscale>
<asrwt>0</asrwt>
<pdfrwt beam="1">  1        1 0.38651112E+00 0.65204394E+03</pdfrwt>
<pdfrwt beam="2">0</pdfrwt>
<totfact> 0.15351882E+00</totfact>
</mgrwt>
</event>
<event>
 6    1  0.4510314E-003  0.6417111E+03  0.7818608E-02  0.9822458E-01
          1   -1    0    0  502    0  0.00000000000E+00  0.00000000000E+00  0.10297251300E+03  0.10297251300E+03  0.00000000000E+00 0.  1.
         13   -1    0    0    0    0 -0.00000000000E+00 -0.00000000000E+00 -0.10000000000E+04  0.10000000000E+04  0.00000000000E+00 0.  1.
    9000005    2    1    2  501    0  0.10089442356E-02 -0.63487679945E-04 -0.89705169522E+03  0.11029482837E+04  0.64171112860E+03 0.  0.
         13    1    3    3    0    0  0.12296368595E+02  0.32361362580E+02 -0.99678068766E+03  0.99738167106E+03  0.00000000000E+00 0.  1.
          3    1    3    3  501    0 -0.12295359651E+02 -0.32361426068E+02  0.99728992442E+02  0.10556661262E+03  0.00000000000E+00 0.  1.
         21    1    1    2  502  501 -0.10089442356E-02  0.63487679942E-04  0.24208217706E-01  0.24229317028E-01  0.00000000000E+00 0.  1.
<mgrwt>
<rscale>  1 0.64171113E+03</rscale>
<asrwt>0</asrwt>
<pdfrwt beam="1">  1        1 0.37444629E+00 0.64171113E+03</pdfrwt>
<pdfrwt beam="2">0</pdfrwt>
<totfact> 0.17387365E+00</totfact>
</mgrwt>
</event>
<event>
 6    1  0.4510314E-003  0.6063693E+03  0.7818608E-02  0.9892279E-01
          1   -1    0    0  502    0  0.00000000000E+00  0.00000000000E+00  0.92226174447E+02  0.92226174447E+02  0.00000000000E+00 0.  1.
         13   -1    0    0    0    0 -0.00000000000E+00 -0.00000000000E+00 -0.10000000000E+04  0.10000000000E+04  0.00000000000E+00 0.  1.
    9000005    2    1    2  501    0  0.29025270327E+00 -0.57451455682E-01 -0.90799901195E+03  0.10918543462E+04  0.60636921108E+03 0.  0.
         13    1    3    3    0    0  0.21807420630E+03 -0.12167184241E+03 -0.14421764459E+03  0.28837324027E+03  0.00000000000E+00 0.  1.
          1    1    3    3  501    0 -0.21778395360E+03  0.12161439096E+03 -0.76378136736E+03  0.80348110597E+03  0.00000000000E+00 0.  1.
         21    1    1    2  502  501 -0.29025270327E+00  0.57451455682E-01  0.22518639825E+00  0.37182820694E+00  0.00000000000E+00 0.  1.
<mgrwt>
<rscale>  1 0.60636928E+03</rscale>
<asrwt>0</asrwt>
<pdfrwt beam="1">  1        1 0.33536861E+00 0.60636928E+03</pdfrwt>
<pdfrwt beam="2">0</pdfrwt>
<totfact> 0.25918974E+00</totfact>
</mgrwt>
</event>
<event>
 6    1  0.4510314E-003  0.6467376E+03  0.7818608E-02  0.9812920E-01
          1   -1    0    0  502    0  0.00000000000E+00  0.00000000000E+00  0.10456827227E+03  0.10456827227E+03  0.00000000000E+00 0.  1.
         13   -1    0    0    0    0 -0.00000000000E+00 -0.00000000000E+00 -0.10000000000E+04  0.10000000000E+04  0.00000000000E+00 0.  1.
    9000005    2    1    2  501    0 -0.13823216456E-04  0.21039972296E-04 -0.89543263317E+03  0.11045673665E+04  0.64673755616E+03 0.  0.
         13    1    3    3    0    0  0.52560932274E+02  0.17848660689E+03 -0.89941565365E+03  0.91845992753E+03  0.00000000000E+00 0.  1.
          1    1    3    3  501    0 -0.52560946098E+02 -0.17848658585E+03  0.39830204793E+01  0.18610743895E+03  0.00000000000E+00 0.  1.
         21    1    1    2  502  501  0.13823216455E-04 -0.21039972309E-04  0.90543919030E-03  0.90578909747E-03  0.00000000000E+00 0. -1.
<mgrwt>
<rscale>  1 0.64673756E+03</rscale>
<asrwt>0</asrwt>
<pdfrwt beam="1">  1        1 0.38024906E+00 0.64673756E+03</pdfrwt>
<pdfrwt beam="2">0</pdfrwt>
<totfact> 0.16378069E+00</totfact>
</mgrwt>
</event>
<event>
 6    1  0.4510314E-003  0.5834054E+03  0.7818608E-02  0.9940445E-01
          1   -1    0    0  502    0  0.00000000000E+00  0.00000000000E+00  0.85259102219E+02  0.85259102219E+02  0.00000000000E+00 0.  1.
         13   -1    0    0    0    0 -0.00000000000E+00 -0.00000000000E+00 -0.10000000000E+04  0.10000000000E+04  0.00000000000E+00 0.  1.
    9000005    2    1    2  501    0 -0.39943121926E+00 -0.21579206368E-01 -0.91461056429E+03  0.10848383912E+04  0.58340525422E+03 0.  0.
         13    1    3    3    0    0 -0.11640750207E+03 -0.25537755435E+03 -0.60590176422E+03  0.66774647112E+03  0.00000000000E+00 0.  1.
          1    1    3    3  501    0  0.11600807085E+03  0.25535597514E+03 -0.30870880006E+03  0.41709192006E+03  0.00000000000E+00 0.  1.
         21    1    1    2  502  501  0.39943121926E+00  0.21579206368E-01 -0.13033349565E+00  0.42071104235E+00  0.00000000000E+00 0. -1.
<mgrwt>
<rscale>  1 0.58340539E+03</rscale>
<asrwt>0</asrwt>
<pdfrwt beam="1">  1        1 0.31003375E+00 0.58340539E+03</pdfrwt>
<pdfrwt beam="2">0</pdfrwt>
<totfact> 0.33495578E+00</totfact>
</mgrwt>
</event>
<event>
 6    1  0.4510314E-003  0.6309001E+03  0.7818608E-02  0.9843294E-01
          1   -1    0    0  502    0  0.00000000000E+00  0.00000000000E+00  0.99512778523E+02  0.99512778523E+02  0.00000000000E+00 0.  1.
         13   -1    0    0    0    0 -0.00000000000E+00 -0.00000000000E+00 -0.10000000000E+04  0.10000000000E+04  0.00000000000E+00 0.  1.
    9000005    2    1    2  501    0 -0.22061408293E-03  0.44306676750E-03 -0.90049126426E+03  0.10995087056E+04  0.63090005276E+03 0.  0.
         13    1    3    3    0    0  0.15786189124E+03 -0.62850597869E+02 -0.91343376634E+03  0.92910269608E+03  0.00000000000E+00 0.  1.
          3    1    3    3  501    0 -0.15786211185E+03  0.62851040936E+02  0.12942502083E+02  0.17040600948E+03  0.00000000000E+00 0.  1.
         21    1    1    2  502  501  0.22061408293E-03 -0.44306676750E-03  0.40427848767E-02  0.40729704508E-02  0.00000000000E+00 0. -1.
<mgrwt>
<rscale>  1 0.63090005E+03</rscale>
<asrwt>0</asrwt>
<pdfrwt beam="1">  1        1 0.36186541E+00 0.63090005E+03</pdfrwt>
<pdfrwt beam="2">0</pdfrwt>
<totfact> 0.19783255E+00</totfact>
</mgrwt>
</event>
<event>
 6    1  0.4510314E-003  0.6560348E+03  0.7818608E-02  0.9795521E-01
          1   -1    0    0  502    0  0.00000000000E+00  0.00000000000E+00  0.11617542163E+03  0.11617542163E+03  0.00000000000E+00 0.  1.
         13   -1    0    0    0    0 -0.00000000000E+00 -0.00000000000E+00 -0.10000000000E+04  0.10000000000E+04  0.00000000000E+00 0.  1.
    9000005    2    1    2  501    0 -0.88492083962E-01 -0.98486067114E-01 -0.89240400441E+03  0.11075949740E+04  0.65603483276E+03 0.  0.
         13    1    3    3    0    0 -0.26388740647E+03  0.18196344275E+03 -0.56383450075E+03  0.64858045147E+03  0.00000000000E+00 0.  1.
          3    1    3    3  501    0  0.26379891438E+03 -0.18206192882E+03 -0.32856950366E+03  0.45901452253E+03  0.00000000000E+00 0.  1.
         21    1    1    2  502  501  0.88492083962E-01  0.98486067114E-01  0.85794260397E+01  0.85804476296E+01  0.00000000000E+00 0.  1.
<mgrwt>
<rscale>  1 0.65603485E+03</rscale>
<asrwt>0</asrwt>
<pdfrwt beam="1">  1        1 0.42245697E+00 0.65603485E+03</pdfrwt>
<pdfrwt beam="2">0</pdfrwt>
<totfact> 0.10596158E+00</totfact>
</mgrwt>
</event>
<event>
 6    1  0.4510314E-003  0.6317640E+03  0.7818608E-02  0.9841612E-01
          1   -1    0    0  502    0  0.00000000000E+00  0.00000000000E+00  0.99848119986E+02  0.99848119986E+02  0.00000000000E+00 0.  1.
         13   -1    0    0    0    0 -0.00000000000E+00 -0.00000000000E+00 -0.10000000000E+04  0.10000000000E+04  0.00000000000E+00 0.  1.
    9000005    2    1    2  501    0 -0.36720215259E-01 -0.33129874007E-02 -0.90021290737E+03  0.10997768200E+04  0.63176401753E+03 0.  0.
         13    1    3    3    0    0 -0.23884598868E+03  0.19653361627E+03 -0.56181725389E+03  0.64133571193E+03  0.00000000000E+00 0.  1.
          1    1    3    3  501    0  0.23880926846E+03 -0.19653692926E+03 -0.33839565348E+03  0.45844110806E+03  0.00000000000E+00 0.  1.
         21    1    1    2  502  501  0.36720215259E-01  0.33129874007E-02  0.61027356937E-01  0.71299988702E-01  0.00000000000E+00 0.  1.
<mgrwt>
<rscale>  1 0.63176402E+03</rscale>
<asrwt>0</asrwt>
<pdfrwt beam="1">  1        1 0.36308484E+00 0.63176402E+03</pdfrwt>
<pdfrwt beam="2">0</pdfrwt>
<totfact> 0.19538512E+00</totfact>
</mgrwt>
</event>
<event>
 6    1  0.4510314E-003  0.6433099E+03  0.7818608E-02  0.9819414E-01
          1   -1    0    0  502    0  0.00000000000E+00  0.00000000000E+00  0.10644319835E+03  0.10644319835E+03  0.00000000000E+00 0.  1.
         13   -1    0    0    0    0 -0.00000000000E+00 -0.00000000000E+00 -0.10000000000E+04  0.10000000000E+04  0.00000000000E+00 0.  1.
    9000005    2    1    2  501    0  0.21317888478E-01  0.40879516807E-01 -0.89653790813E+03  0.11034617354E+04  0.64330986204E+03 0.  0.
         13    1    3    3    0    0  0.41129441920E+01 -0.89976483739E+02  0.81386952908E+02  0.12139406921E+03  0.00000000000E+00 0.  1.
          3    1    3    3  501    0 -0.40916263035E+01  0.90017363256E+02 -0.97792486104E+03  0.98206766617E+03  0.00000000000E+00 0.  1.
         21    1    1    2  502  501 -0.21317888478E-01 -0.40879516807E-01  0.29811064814E+01  0.29814629698E+01  0.00000000000E+00 0. -1.
<mgrwt>
<rscale>  1 0.64330986E+03</rscale>
<asrwt>0</asrwt>
<pdfrwt beam="1">  1        1 0.38706699E+00 0.64330986E+03</pdfrwt>
<pdfrwt beam="2">0</pdfrwt>
<totfact> 0.15289966E+00</totfact>
</mgrwt>
</event>
<event>
 6    1  0.4510314E-003  0.6531441E+03  0.7818608E-02  0.9800897E-01
          1   -1    0    0  502    0  0.00000000000E+00  0.00000000000E+00  0.13163844850E+03  0.13163844850E+03  0.00000000000E+00 0.  1.
         13   -1    0    0    0    0 -0.00000000000E+00 -0.00000000000E+00 -0.10000000000E+04  0.10000000000E+04  0.00000000000E+00 0.  1.
    9000005    2    1    2  501    0  0.24244490898E+02  0.45466834014E+01 -0.88642401270E+03  0.11010652548E+04  0.65267809627E+03 0.  0.
         13    1    3    3    0    0  0.14699417073E+03  0.18579395153E+03 -0.57587766143E+02  0.24380941217E+03  0.00000000000E+00 0.  1.
          1    1    3    3  501    0 -0.12274967983E+03 -0.18124726813E+03 -0.82883624656E+03  0.85725584262E+03  0.00000000000E+00 0.  1.
         21    1    1    2  502  501 -0.24244490898E+02 -0.45466834014E+01  0.18062461196E+02  0.30573193705E+02  0.00000000000E+00 0.  1.
<mgrwt>
<rscale>  1 0.65314406E+03</rscale>
<asrwt>0</asrwt>
<pdfrwt beam="1">  1        1 0.47868628E+00 0.65314406E+03</pdfrwt>
<pdfrwt beam="2">0</pdfrwt>
<totfact> 0.58365898E-01</totfact>
</mgrwt>
</event>
<event>
 6    1  0.4510314E-003  0.6463259E+03  0.7818608E-02  0.9813698E-01
          3   -1    0    0  502    0  0.00000000000E+00  0.00000000000E+00  0.10444498318E+03  0.10444498318E+03  0.00000000000E+00 0.  1.
         13   -1    0    0    0    0 -0.00000000000E+00 -0.00000000000E+00 -0.10000000000E+04  0.10000000000E+04  0.00000000000E+00 0.  1.
    9000005    2    1    2  501    0 -0.17212914347E-02 -0.55340311967E-04 -0.89556563492E+03  0.11044342263E+04  0.64632588825E+03 0.  0.
         13    1    3    3    0    0  0.92843340610E+02  0.18100336935E+02 -0.97581364822E+03  0.98038756833E+03  0.00000000000E+00 0.  1.
          3    1    3    3  501    0 -0.92845061901E+02 -0.18100392276E+02  0.80248013301E+02  0.12404665799E+03  0.00000000000E+00 0.  1.
         21    1    1    2  502  501  0.17212914347E-02  0.55340311966E-04  0.10618095244E-01  0.10756851461E-01  0.00000000000E+00 0.  1.
<mgrwt>
<rscale>  1 0.64632589E+03</rscale>
<asrwt>0</asrwt>
<pdfrwt beam="1">  1        3 0.37980074E+00 0.64632589E+03</pdfrwt>
<pdfrwt beam="2">0</pdfrwt>
<totfact> 0.75708309E-02</totfact>
</mgrwt>
</event>
<event>
 6    1  0.4510314E-003  0.6314496E+03  0.7818608E-02  0.9842224E-01
          1   -1    0    0  502    0  0.00000000000E+00  0.00000000000E+00  0.99682406166E+02  0.99682406166E+02  0.00000000000E+00 0.  1.
         13   -1    0    0    0    0 -0.00000000000E+00 -0.00000000000E+00 -0.10000000000E+04  0.10000000000E+04  0.00000000000E+00 0.  1.
    9000005    2    1    2  501    0  0.17177755467E-04  0.44624509599E-06 -0.90031784289E+03  0.10996821565E+04  0.63144962359E+03 0.  0.
         13    1    3    3    0    0 -0.10796940963E+03 -0.85487341712E+02 -0.94493660149E+03  0.95491919022E+03  0.00000000000E+00 0.  1.
          1    1    3    3  501    0  0.10796942680E+03  0.85487342158E+02  0.44618758598E+02  0.14476296630E+03  0.00000000000E+00 0.  1.
         21    1    1    2  502  501 -0.17177755459E-04 -0.44624510110E-06  0.24905777406E-03  0.24964985327E-03  0.00000000000E+00 0. -1.
<mgrwt>
<rscale>  1 0.63144962E+03</rscale>
<asrwt>0</asrwt>
<pdfrwt beam="1">  1        1 0.36248224E+00 0.63144962E+03</pdfrwt>
<pdfrwt beam="2">0</pdfrwt>
<totfact> 0.19658689E+00</totfact>
</mgrwt>
</event>
<event>
 6    1  0.4510314E-003  0.6461916E+03  0.7818608E-02  0.9813952E-01
          1   -1    0    0  502    0  0.00000000000E+00  0.00000000000E+00  0.10439092208E+03  0.10439092208E+03  0.00000000000E+00 0.  1.
         13   -1    0    0    0    0 -0.00000000000E+00 -0.00000000000E+00 -0.10000000000E+04  0.10000000000E+04  0.00000000000E+00 0.  1.
    9000005    2    1    2  501    0 -0.66332609867E-04  0.41234365540E-05 -0.89560906977E+03  0.11043908551E+04  0.64619157764E+03 0.  0.
         13    1    3    3    0    0  0.99744128326E+01  0.31703909853E+03 -0.55284825701E+03  0.63738094903E+03  0.00000000000E+00 0.  1.
          3    1    3    3  501    0 -0.99744791652E+01 -0.31703909441E+03 -0.34276081277E+03  0.46700990609E+03  0.00000000000E+00 0.  1.
         21    1    1    2  502  501  0.66332609868E-04 -0.41234365100E-05 -0.81477503607E-05  0.66958223517E-04  0.00000000000E+00 0.  1.
<mgrwt>
<rscale>  1 0.64619158E+03</rscale>
<asrwt>0</asrwt>
<pdfrwt beam="1">  1        1 0.37960415E+00 0.64619158E+03</pdfrwt>
<pdfrwt beam="2">0</pdfrwt>
<totfact> 0.16487381E+00</totfact>
</mgrwt>
</event>
<event>
 6    1  0.4510314E-003  0.6407082E+03  0.7818608E-02  0.9824372E-01
          1   -1    0    0  502    0  0.00000000000E+00  0.00000000000E+00  0.10264172956E+03  0.10264172956E+03  0.00000000000E+00 0.  1.
         13   -1    0    0    0    0 -0.00000000000E+00 -0.00000000000E+00 -0.10000000000E+04  0.10000000000E+04  0.00000000000E+00 0.  1.
    9000005    2    1    2  501    0 -0.45591897227E-02 -0.50566220961E-02 -0.89737239171E+03  0.11026260526E+04  0.64070820387E+03 0.  0.
         13    1    3    3    0    0 -0.23174204896E+03  0.11199457012E+03 -0.12044100572E+03  0.28417106970E+03  0.00000000000E+00 0.  1.
          1    1    3    3  501    0  0.23173748977E+03 -0.11199962674E+03 -0.77693138599E+03  0.81845498294E+03  0.00000000000E+00 0.  1.
         21    1    1    2  502  501  0.45591897227E-02  0.50566220961E-02  0.14121267053E-01  0.15676920014E-01  0.00000000000E+00 0. -1.
<mgrwt>
<rscale>  1 0.64070820E+03</rscale>
<asrwt>0</asrwt>
<pdfrwt beam="1">  1        1 0.37324344E+00 0.64070820E+03</pdfrwt>
<pdfrwt beam="2">0</pdfrwt>
<totfact> 0.17603754E+00</totfact>
</mgrwt>
</event>
<event>
 6    1  0.4510314E-003  0.6506769E+03  0.7818608E-02  0.9805510E-01
          1   -1    0    0  502    0  0.00000000000E+00  0.00000000000E+00  0.10670329016E+03  0.10670329016E+03  0.00000000000E+00 0.  1.
         13   -1    0    0    0    0 -0.00000000000E+00 -0.00000000000E+00 -0.10000000000E+04  0.10000000000E+04  0.00000000000E+00 0.  1.
    9000005    2    1    2  501    0  0.10791394833E+00  0.12913700138E+00 -0.89414575547E+03  0.11058377266E+04  0.65067689159E+03 0.  0.
         13    1    3    3    0    0  0.66104346005E+02  0.14520250350E+03 -0.92907653696E+03  0.94267532222E+03  0.00000000000E+00 0.  1.
          1    1    3    3  501    0 -0.65996432056E+02 -0.14507336650E+03  0.34930781497E+02  0.16316240439E+03  0.00000000000E+00 0.  1.
         21    1    1    2  502  501 -0.10791394833E+00 -0.12913700138E+00  0.84904562566E+00  0.86556355042E+00  0.00000000000E+00 0. -1.
<mgrwt>
<rscale>  1 0.65067691E+03</rscale>
<asrwt>0</asrwt>
<pdfrwt beam="1">  1        1 0.38801278E+00 0.65067691E+03</pdfrwt>
<pdfrwt beam="2">0</pdfrwt>
<totfact> 0.15122441E+00</totfact>
</mgrwt>
</event>
<event>
 6    1  0.4510314E-003  0.6419085E+03  0.7818608E-02  0.9822082E-01
          1   -1    0    0  502    0  0.00000000000E+00  0.00000000000E+00  0.10301165028E+03  0.10301165028E+03  0.00000000000E+00 0.  1.
         13   -1    0    0    0    0 -0.00000000000E+00 -0.00000000000E+00 -0.10000000000E+04  0.10000000000E+04  0.00000000000E+00 0.  1.
    9000005    2    1    2  501    0  0.56049888322E-05  0.44810600741E-05 -0.89698835017E+03  0.11030116431E+04  0.64190854835E+03 0.  0.
         13    1    3    3    0    0 -0.20727689983E+02 -0.22708272482E+03 -0.83660679974E+03  0.86712579157E+03  0.00000000000E+00 0.  1.
          3    1    3    3  501    0  0.20727695588E+02  0.22708272930E+03 -0.60381550430E+02  0.23588585151E+03  0.00000000000E+00 0.  1.
         21    1    1    2  502  501 -0.56049888319E-05 -0.44810600687E-05  0.44191524115E-06  0.71896514675E-05  0.00000000000E+00 0.  1.
<mgrwt>
<rscale>  1 0.64190855E+03</rscale>
<asrwt>0</asrwt>
<pdfrwt beam="1">  1        1 0.37458861E+00 0.64190855E+03</pdfrwt>
<pdfrwt beam="2">0</pdfrwt>
<totfact> 0.17361681E+00</totfact>
</mgrwt>
</event>
<event>
 6    1  0.4510314E-003  0.6457632E+03  0.7818608E-02  0.9814762E-01
          1   -1    0    0  502    0  0.00000000000E+00  0.00000000000E+00  0.10431994522E+03  0.10431994522E+03  0.00000000000E+00 0.  1.
         13   -1    0    0    0    0 -0.00000000000E+00 -0.00000000000E+00 -0.10000000000E+04  0.10000000000E+04  0.00000000000E+00 0.  1.
    9000005    2    1    2  501    0 -0.65717327340E-03  0.81143761622E-03 -0.89574748291E+03  0.11042525090E+04  0.64576315357E+03 0.  0.
         13    1    3    3    0    0 -0.13507965045E+03 -0.27935951914E+03 -0.29527009058E+03  0.42833710940E+03  0.00000000000E+00 0.  1.
          1    1    3    3  501    0  0.13507899327E+03  0.27936033058E+03 -0.60047739233E+03  0.67591539961E+03  0.00000000000E+00 0.  1.
         21    1    1    2  502  501  0.65717327340E-03 -0.81143761625E-03  0.67428131385E-01  0.67436215862E-01  0.00000000000E+00 0.  1.
<mgrwt>
<rscale>  1 0.64576315E+03</rscale>
<asrwt>0</asrwt>
<pdfrwt beam="1">  1        1 0.37934606E+00 0.64576315E+03</pdfrwt>
<pdfrwt beam="2">0</pdfrwt>
<totfact> 0.16531960E+00</totfact>
</mgrwt>
</event>
<event>
 6    1  0.4510314E-003  0.6678976E+03  0.7818608E-02  0.9773763E-01
          1   -1    0    0  502    0  0.00000000000E+00  0.00000000000E+00  0.11152207567E+03  0.11152207567E+03  0.00000000000E+00 0.  1.
         13   -1    0    0    0    0 -0.00000000000E+00 -0.00000000000E+00 -0.10000000000E+04  0.10000000000E+04  0.00000000000E+00 0.  1.
    9000005    2    1    2  501    0  0.18690902408E-04  0.91242764846E-05 -0.88847821478E+03  0.11115217845E+04  0.66789755144E+03 0.  0.
         13    1    3    3    0    0 -0.24606537547E+03  0.29334187448E+02 -0.71689727092E+02  0.25796914647E+03  0.00000000000E+00 0.  1.
          1    1    3    3  501    0  0.24606539416E+03 -0.29334178323E+02 -0.81678848769E+03  0.85355263801E+03  0.00000000000E+00 0.  1.
         21    1    1    2  502  501 -0.18690902411E-04 -0.91242764865E-05  0.29045211250E-03  0.29119586520E-03  0.00000000000E+00 0. -1.
<mgrwt>
<rscale>  1 0.66789755E+03</rscale>
<asrwt>0</asrwt>
<pdfrwt beam="1">  1        1 0.40553568E+00 0.66789755E+03</pdfrwt>
<pdfrwt beam="2">0</pdfrwt>
<totfact> 0.12595799E+00</totfact>
</mgrwt>
</event>
<event>
 6    1  0.4510314E-003  0.6449462E+03  0.7818608E-02  0.9816309E-01
          1   -1    0    0  502    0  0.00000000000E+00  0.00000000000E+00  0.10398914934E+03  0.10398914934E+03  0.00000000000E+00 0.  1.
         13   -1    0    0    0    0 -0.00000000000E+00 -0.00000000000E+00 -0.10000000000E+04  0.10000000000E+04  0.00000000000E+00 0.  1.
    9000005    2    1    2  501    0 -0.45390435494E-03  0.68443387647E-04 -0.89601081918E+03  0.11039886892E+04  0.64494622865E+03 0.  0.
         13    1    3    3    0    0 -0.21561928834E+03  0.14908358556E+03 -0.76948464818E+03  0.81291095255E+03  0.00000000000E+00 0.  1.
          1    1    3    3  501    0  0.21561883444E+03 -0.14908351712E+03 -0.12652617100E+03  0.29107773667E+03  0.00000000000E+00 0.  1.
         21    1    1    2  502  501  0.45390435494E-03 -0.68443387662E-04 -0.31484233107E-04  0.46011402683E-03  0.00000000000E+00 0.  1.
<mgrwt>
<rscale>  1 0.64494623E+03</rscale>
<asrwt>0</asrwt>
<pdfrwt beam="1">  1        1 0.37814316E+00 0.64494623E+03</pdfrwt>
<pdfrwt beam="2">0</pdfrwt>
<totfact> 0.16737621E+00</totfact>
</mgrwt>
</event>
<event>
 6    1  0.4510314E-003  0.6428719E+03  0.7818608E-02  0.9820247E-01
          1   -1    0    0  502    0  0.00000000000E+00  0.00000000000E+00  0.10384951132E+03  0.10384951132E+03  0.00000000000E+00 0.  1.
         13   -1    0    0    0    0 -0.00000000000E+00 -0.00000000000E+00 -0.10000000000E+04  0.10000000000E+04  0.00000000000E+00 0.  1.
    9000005    2    1    2  501    0  0.11283176348E+01 -0.14640381666E+00 -0.89589386033E+03  0.11026831525E+04  0.64287092897E+03 0.  0.
         13    1    3    3    0    0 -0.98680912433E+02 -0.19540918578E+03 -0.85117733399E+03  0.87887742391E+03  0.00000000000E+00 0.  1.
          1    1    3    3  501    0  0.99809230068E+02  0.19526278196E+03 -0.44716526344E+02  0.22380572860E+03  0.00000000000E+00 0.  1.
         21    1    1    2  502  501 -0.11283176348E+01  0.14640381666E+00 -0.25662834604E+00  0.11663588087E+01  0.00000000000E+00 0. -1.
<mgrwt>
<rscale>  1 0.64287194E+03</rscale>
<asrwt>0</asrwt>
<pdfrwt beam="1">  1        1 0.37763538E+00 0.64287194E+03</pdfrwt>
<pdfrwt beam="2">0</pdfrwt>
<totfact> 0.16830508E+00</totfact>
</mgrwt>
</event>
<event>
 6    1  0.4510314E-003  0.6488893E+03  0.7818608E-02  0.9808866E-01
          1   -1    0    0  502    0  0.00000000000E+00  0.00000000000E+00  0.10603284448E+03  0.10603284448E+03  0.00000000000E+00 0.  1.
         13   -1    0    0    0    0 -0.00000000000E+00 -0.00000000000E+00 -0.10000000000E+04  0.10000000000E+04  0.00000000000E+00 0.  1.
    9000005    2    1    2  501    0 -0.28757089847E+00  0.73655285027E-02 -0.89470579634E+03  0.11052401645E+04  0.64888926367E+03 0.  0.
         13    1    3    3    0    0  0.12824949579E+02 -0.12509209000E+03  0.62069195370E+02  0.14023229060E+03  0.00000000000E+00 0.  1.
          3    1    3    3  501    0 -0.13112520477E+02  0.12509945553E+03 -0.95677499171E+03  0.96500787392E+03  0.00000000000E+00 0.  1.
         21    1    1    2  502  501  0.28757089847E+00 -0.73655285027E-02  0.73864081745E+00  0.79267996686E+00  0.00000000000E+00 0. -1.
<mgrwt>
<rscale>  1 0.64888933E+03</rscale>
<asrwt>0</asrwt>
<pdfrwt beam="1">  1        1 0.38557479E+00 0.64888933E+03</pdfrwt>
<pdfrwt beam="2">0</pdfrwt>
<totfact> 0.15508107E+00</totfact>
</mgrwt>
</event>
<event>
 6    1  0.4510314E-003  0.6517688E+03  0.7818608E-02  0.9803466E-01
          3   -1    0    0  502    0  0.00000000000E+00  0.00000000000E+00  0.10620064130E+03  0.10620064130E+03  0.00000000000E+00 0.  1.
         13   -1    0    0    0    0 -0.00000000000E+00 -0.00000000000E+00 -0.10000000000E+04  0.10000000000E+04  0.00000000000E+00 0.  1.
    9000005    2    1    2  501    0  0.20939224044E-06 -0.34157013715E-05 -0.89379936904E+03  0.11062006304E+04  0.65176876469E+03 0.  0.
         13    1    3    3    0    0 -0.61856502782E+02  0.28352343787E+03 -0.19522371657E+03  0.34974857579E+03  0.00000000000E+00 0.  1.
          1    1    3    3  501    0  0.61856502991E+02 -0.28352344128E+03 -0.69857565247E+03  0.75645205462E+03  0.00000000000E+00 0.  1.
         21    1    1    2  502  501 -0.20939224326E-06  0.34157013815E-05  0.10333828422E-04  0.10885718667E-04  0.00000000000E+00 0.  1.
<mgrwt>
<rscale>  1 0.65176876E+03</rscale>
<asrwt>0</asrwt>
<pdfrwt beam="1">  1        3 0.38618496E+00 0.65176876E+03</pdfrwt>
<pdfrwt beam="2">0</pdfrwt>
<totfact> 0.69994964E-02</totfact>
</mgrwt>
</event>
<event>
 6    1  0.4510314E-003  0.6715405E+03  0.7818608E-02  0.9767179E-01
          1   -1    0    0  502    0  0.00000000000E+00  0.00000000000E+00  0.11274207523E+03  0.11274207523E+03  0.00000000000E+00 0.  1.
         13   -1    0    0    0    0 -0.00000000000E+00 -0.00000000000E+00 -0.10000000000E+04  0.10000000000E+04  0.00000000000E+00 0.  1.
    9000005    2    1    2  501    0 -0.18349970901E-04  0.11641522690E-04 -0.88725833092E+03  0.11127416685E+04  0.67154052375E+03 0.  0.
         13    1    3    3    0    0  0.20356302860E+03  0.25148588758E+03 -0.59237752414E+03  0.67497717693E+03  0.00000000000E+00 0.  1.
          1    1    3    3  501    0 -0.20356304695E+03 -0.25148587594E+03 -0.29488080677E+03  0.43776449157E+03  0.00000000000E+00 0.  1.
         21    1    1    2  502  501  0.18349970887E-04 -0.11641522688E-04  0.40615105055E-03  0.40673200310E-03  0.00000000000E+00 0.  1.
<mgrwt>
<rscale>  1 0.67154052E+03</rscale>
<asrwt>0</asrwt>
<pdfrwt beam="1">  1        1 0.40997205E+00 0.67154052E+03</pdfrwt>
<pdfrwt beam="2">0</pdfrwt>
<totfact> 0.12024134E+00</totfact>
</mgrwt>
</event>
<event>
 6    1  0.4510314E-003  0.6235167E+03  0.7818608E-02  0.9857783E-01
          1   -1    0    0  502    0  0.00000000000E+00  0.00000000000E+00  0.97195077024E+02  0.97195077024E+02  0.00000000000E+00 0.  1.
         13   -1    0    0    0    0 -0.00000000000E+00 -0.00000000000E+00 -0.10000000000E+04  0.10000000000E+04  0.00000000000E+00 0.  1.
    9000005    2    1    2  501    0 -0.12350782151E-03  0.22400904327E-03 -0.90280672468E+03  0.10971932573E+04  0.62351668914E+03 0.  0.
         13    1    3    3    0    0 -0.14905114791E+03  0.14370514118E+01  0.30425899312E+02  0.15213167046E+03  0.00000000000E+00 0.  1.
          3    1    3    3  501    0  0.14905102440E+03 -0.14368274028E+01 -0.93323262399E+03  0.94506158679E+03  0.00000000000E+00 0.  1.
         21    1    1    2  502  501  0.12350782151E-03 -0.22400904327E-03  0.18017019864E-02  0.18197703925E-02  0.00000000000E+00 0. -1.
<mgrwt>
<rscale>  1 0.62351669E+03</rscale>
<asrwt>0</asrwt>
<pdfrwt beam="1">  1        1 0.35343739E+00 0.62351669E+03</pdfrwt>
<pdfrwt beam="2">0</pdfrwt>
<totfact> 0.21562641E+00</totfact>
</mgrwt>
</event>
<event>
 6    1  0.4510314E-003  0.6575767E+03  0.7818608E-02  0.9792665E-01
          1   -1    0    0  502    0  0.00000000000E+00  0.00000000000E+00  0.10810190614E+03  0.10810190614E+03  0.00000000000E+00 0.  1.
         13   -1    0    0    0    0 -0.00000000000E+00 -0.00000000000E+00 -0.10000000000E+04  0.10000000000E+04  0.00000000000E+00 0.  1.
    9000005    2    1    2  501    0 -0.24299321581E-04 -0.89065721625E-05 -0.89189823006E+03  0.11081017675E+04  0.65757666804E+03 0.  0.
         13    1    3    3    0    0  0.58033556862E+02 -0.25477367902E+03 -0.78223376781E+03  0.82472249196E+03  0.00000000000E+00 0.  1.
          3    1    3    3  501    0 -0.58033581161E+02  0.25477367011E+03 -0.10966446225E+03  0.28337927554E+03  0.00000000000E+00 0.  1.
         21    1    1    2  502  501  0.24299321578E-04  0.89065721427E-05  0.13619848079E-03  0.13863553017E-03  0.00000000000E+00 0. -1.
<mgrwt>
<rscale>  1 0.65757667E+03</rscale>
<asrwt>0</asrwt>
<pdfrwt beam="1">  1        1 0.39309867E+00 0.65757667E+03</pdfrwt>
<pdfrwt beam="2">0</pdfrwt>
<totfact> 0.14338527E+00</totfact>
</mgrwt>
</event>
<event>
 6    1  0.4510314E-003  0.6380200E+03  0.7818608E-02  0.9829522E-01
          1   -1    0    0  502    0  0.00000000000E+00  0.00000000000E+00  0.10176744569E+03  0.10176744569E+03  0.00000000000E+00 0.  1.
         13   -1    0    0    0    0 -0.00000000000E+00 -0.00000000000E+00 -0.10000000000E+04  0.10000000000E+04  0.00000000000E+00 0.  1.
    9000005    2    1    2  501    0  0.53923630503E-05 -0.54770409861E-05 -0.89823261362E+03  0.11017673859E+04  0.63802001884E+03 0.  0.
         13    1    3    3    0    0 -0.16631576566E+03 -0.97470499271E+02 -0.10189729734E+02  0.19304212682E+03  0.00000000000E+00 0.  1.
          1    1    3    3  501    0  0.16631577105E+03  0.97470493794E+02 -0.88804288388E+03  0.90872525907E+03  0.00000000000E+00 0.  1.
         21    1    1    2  502  501 -0.53923630681E-05  0.54770409840E-05  0.59305168196E-04  0.59801158285E-04  0.00000000000E+00 0. -1.
<mgrwt>
<rscale>  1 0.63802002E+03</rscale>
<asrwt>0</asrwt>
<pdfrwt beam="1">  1        1 0.37006422E+00 0.63802002E+03</pdfrwt>
<pdfrwt beam="2">0</pdfrwt>
<totfact> 0.18188264E+00</totfact>
</mgrwt>
</event>
<event>
 6    1  0.4510314E-003  0.5998414E+03  0.7818608E-02  0.9905735E-01
          1   -1    0    0  502    0  0.00000000000E+00  0.00000000000E+00  0.89952792607E+02  0.89952792607E+02  0.00000000000E+00 0.  1.
         13   -1    0    0    0    0 -0.00000000000E+00 -0.00000000000E+00 -0.10000000000E+04  0.10000000000E+04  0.00000000000E+00 0.  1.
    9000005    2    1    2  501    0  0.46312552331E-03 -0.82023744182E-03 -0.91004670026E+03  0.10899517228E+04  0.59984144689E+03 0.  0.
         13    1    3    3    0    0 -0.26796791509E+03 -0.14293689496E+02 -0.21163643688E+03  0.34176175106E+03  0.00000000000E+00 0.  1.
          1    1    3    3  501    0  0.26796837821E+03  0.14292869258E+02 -0.69841026338E+03  0.74818997175E+03  0.00000000000E+00 0.  1.
         21    1    1    2  502  501 -0.46312552333E-03  0.82023744182E-03 -0.50713611516E-03  0.10697951910E-02  0.00000000000E+00 0.  1.
<mgrwt>
<rscale>  1 0.59984145E+03</rscale>
<asrwt>0</asrwt>
<pdfrwt beam="1">  1        1 0.32710175E+00 0.59984145E+03</pdfrwt>
<pdfrwt beam="2">0</pdfrwt>
<totfact> 0.28179858E+00</totfact>
</mgrwt>
</event>
<event>
 6    1  0.4510314E-003  0.6500980E+03  0.7818608E-02  0.9806595E-01
          1   -1    0    0  502    0  0.00000000000E+00  0.00000000000E+00  0.10640844595E+03  0.10640844595E+03  0.00000000000E+00 0.  1.
         13   -1    0    0    0    0 -0.00000000000E+00 -0.00000000000E+00 -0.10000000000E+04  0.10000000000E+04  0.00000000000E+00 0.  1.
    9000005    2    1    2  501    0 -0.46305223130E-01  0.38993546125E+00 -0.89428601897E+03  0.11056106519E+04  0.65009789698E+03 0.  0.
         13    1    3    3    0    0 -0.17276354519E+03  0.24062381656E+03 -0.21911443329E+03  0.36845379428E+03  0.00000000000E+00 0.  1.
          1    1    3    3  501    0  0.17271723997E+03 -0.24023388110E+03 -0.67517158568E+03  0.73715685761E+03  0.00000000000E+00 0.  1.
         21    1    1    2  502  501  0.46305223130E-01 -0.38993546125E+00  0.69446491865E+00  0.79779405918E+00  0.00000000000E+00 0.  1.
<mgrwt>
<rscale>  1 0.65009802E+03</rscale>
<asrwt>0</asrwt>
<pdfrwt beam="1">  1        1 0.38694062E+00 0.65009802E+03</pdfrwt>
<pdfrwt beam="2">0</pdfrwt>
<totfact> 0.15290323E+00</totfact>
</mgrwt>
</event>
<event>
 6    1  0.4510314E-003  0.6527036E+03  0.7818608E-02  0.9801719E-01
          1   -1    0    0  502    0  0.00000000000E+00  0.00000000000E+00  0.10652206040E+03  0.10652206040E+03  0.00000000000E+00 0.  1.
         13   -1    0    0    0    0 -0.00000000000E+00 -0.00000000000E+00 -0.10000000000E+04  0.10000000000E+04  0.00000000000E+00 0.  1.
    9000005    2    1    2  501    0  0.11048508429E-03  0.48950045618E-03 -0.89349449900E+03  0.11065054934E+04  0.65270359826E+03 0.  0.
         13    1    3    3    0    0 -0.20141060772E+03 -0.18727144156E+03 -0.14889829432E+03  0.31274195079E+03  0.00000000000E+00 0.  1.
          3    1    3    3  501    0  0.20141071821E+03  0.18727193106E+03 -0.74459620467E+03  0.79376354262E+03  0.00000000000E+00 0.  1.
         21    1    1    2  502  501 -0.11048508430E-03 -0.48950045620E-03  0.16559400361E-01  0.16567002081E-01  0.00000000000E+00 0. -1.
<mgrwt>
<rscale>  1 0.65270360E+03</rscale>
<asrwt>0</asrwt>
<pdfrwt beam="1">  1        1 0.38735376E+00 0.65270360E+03</pdfrwt>
<pdfrwt beam="2">0</pdfrwt>
<totfact> 0.15218705E+00</totfact>
</mgrwt>
</event>
<event>
 6    1  0.6522931E-003  0.6629655E+03  0.7818608E-02  0.9782750E-01
          3   -1    0    0  502    0  0.00000000000E+00  0.00000000000E+00  0.10988081565E+03  0.10988081565E+03  0.00000000000E+00 0.  1.
         13   -1    0    0    0    0 -0.00000000000E+00 -0.00000000000E+00 -0.10000000000E+04  0.10000000000E+04  0.00000000000E+00 0.  1.
    9000005    2    1    2  501    0  0.48814001730E-05 -0.40471330305E-05 -0.89011918865E+03  0.11098808080E+04  0.66296548775E+03 0.  0.
         13    1    3    3    0    0 -0.31246357916E+03  0.12180276798E+02 -0.26091479526E+03  0.40725713970E+03  0.00000000000E+00 0.  1.
          3    1    3    3  501    0  0.31246358404E+03 -0.12180280846E+02 -0.62920439338E+03  0.70262366829E+03  0.00000000000E+00 0.  1.
         21    1    1    2  502  501 -0.48814001951E-05  0.40471330302E-05  0.42962559589E-05  0.76593190881E-05  0.00000000000E+00 0.  1.
<mgrwt>
<rscale>  1 0.66296549E+03</rscale>
<asrwt>0</asrwt>
<pdfrwt beam="1">  1        3 0.39956744E+00 0.66296549E+03</pdfrwt>
<pdfrwt beam="2">0</pdfrwt>
<totfact> 0.59417407E-02</totfact>
</mgrwt>
</event>
<event>
 6    1  0.4510315E-003  0.6436655E+03  0.7818608E-02  0.9818739E-01
          1   -1    0    0  502    0  0.00000000000E+00  0.00000000000E+00  0.10357632452E+03  0.10357632452E+03  0.00000000000E+00 0.  1.
         13   -1    0    0    0    0 -0.00000000000E+00 -0.00000000000E+00 -0.10000000000E+04  0.10000000000E+04  0.00000000000E+00 0.  1.
    9000005    2    1    2  501    0 -0.11901852915E-04 -0.28930428925E-04 -0.89642366279E+03  0.11035762908E+04  0.64366547702E+03 0.  0.
         13    1    3    3    0    0  0.10607347756E+03 -0.30001439067E+03 -0.36569911637E+03  0.48476392292E+03  0.00000000000E+00 0.  1.
          3    1    3    3  501    0 -0.10607348946E+03  0.30001436174E+03 -0.53072454642E+03  0.61881236784E+03  0.00000000000E+00 0.  1.
         21    1    1    2  502  501  0.11901852921E-04  0.28930428908E-04 -0.12696255374E-04  0.33761201404E-04  0.00000000000E+00 0.  1.
<mgrwt>
<rscale>  1 0.64366548E+03</rscale>
<asrwt>0</asrwt>
<pdfrwt beam="1">  1        1 0.37664197E+00 0.64366548E+03</pdfrwt>
<pdfrwt beam="2">0</pdfrwt>
<totfact> 0.16998516E+00</totfact>
</mgrwt>
</event>
<event>
 6    1  0.4510314E-003  0.6516974E+03  0.7818608E-02  0.9803599E-01
          1   -1    0    0  502    0  0.00000000000E+00  0.00000000000E+00  0.10618032850E+03  0.10618032850E+03  0.00000000000E+00 0.  1.
         13   -1    0    0    0    0 -0.00000000000E+00 -0.00000000000E+00 -0.10000000000E+04  0.10000000000E+04  0.00000000000E+00 0.  1.
    9000005    2    1    2  501    0  0.44987658232E-02  0.52854741032E-02 -0.89381716285E+03  0.11061729482E+04  0.65169737665E+03 0.  0.
         13    1    3    3    0    0  0.11129939144E+03 -0.28831568747E+03 -0.62217893504E+03  0.69470865648E+03  0.00000000000E+00 0.  1.
          3    1    3    3  501    0 -0.11129489268E+03  0.28832097295E+03 -0.27163822781E+03  0.41146429175E+03  0.00000000000E+00 0.  1.
         21    1    1    2  502  501 -0.44987658232E-02 -0.52854741032E-02 -0.25086461363E-02  0.73802734275E-02  0.00000000000E+00 0. -1.
<mgrwt>
<rscale>  1 0.65169738E+03</rscale>
<asrwt>0</asrwt>
<pdfrwt beam="1">  1        1 0.38611110E+00 0.65169738E+03</pdfrwt>
<pdfrwt beam="2">0</pdfrwt>
<totfact> 0.15415585E+00</totfact>
</mgrwt>
</event>
<event>
 6    1  0.4510314E-003  0.6077597E+03  0.7818608E-02  0.9889437E-01
          3   -1    0    0  502    0  0.00000000000E+00  0.00000000000E+00  0.92438890899E+02  0.92438890899E+02  0.00000000000E+00 0.  1.
         13   -1    0    0    0    0 -0.00000000000E+00 -0.00000000000E+00 -0.10000000000E+04  0.10000000000E+04  0.00000000000E+00 0.  1.
    9000005    2    1    2  501    0 -0.23440075026E+00  0.60266721502E-01 -0.90745391035E+03  0.10921741885E+04  0.60775965647E+03 0.  0.
         13    1    3    3    0    0  0.16684984536E+03 -0.93648857290E+02 -0.29539146565E+02  0.19360149934E+03  0.00000000000E+00 0.  1.
          3    1    3    3  501    0 -0.16708424611E+03  0.93709124012E+02 -0.87791476379E+03  0.89857268915E+03  0.00000000000E+00 0.  1.
         21    1    1    2  502  501  0.23440075026E+00 -0.60266721502E-01 -0.10719874931E+00  0.26470240138E+00  0.00000000000E+00 0. -1.
<mgrwt>
<rscale>  1 0.60775970E+03</rscale>
<asrwt>0</asrwt>
<pdfrwt beam="1">  1        3 0.33614213E+00 0.60775970E+03</pdfrwt>
<pdfrwt beam="2">0</pdfrwt>
<totfact> 0.12997198E-01</totfact>
</mgrwt>
</event>
<event>
 6    1  0.4510314E-003  0.6436791E+03  0.7818608E-02  0.9818713E-01
          1   -1    0    0  502    0  0.00000000000E+00  0.00000000000E+00  0.10478068189E+03  0.10478068189E+03  0.00000000000E+00 0.  1.
         13   -1    0    0    0    0 -0.00000000000E+00 -0.00000000000E+00 -0.10000000000E+04  0.10000000000E+04  0.00000000000E+00 0.  1.
    9000005    2    1    2  501    0 -0.12619318470E+01 -0.65799807952E+00 -0.89593526067E+03  0.11031875695E+04  0.64367755644E+03 0.  0.
         13    1    3    3    0    0  0.17035955936E+03  0.24947011259E+03 -0.25984458122E+03  0.39846822073E+03  0.00000000000E+00 0.  1.
          3    1    3    3  501    0 -0.17162149121E+03 -0.25012811067E+03 -0.63609067946E+03  0.70471934874E+03  0.00000000000E+00 0.  1.
         21    1    1    2  502  501  0.12619318470E+01  0.65799807952E+00  0.71594256711E+00  0.15931124313E+01  0.00000000000E+00 0. -1.
<mgrwt>
<rscale>  1 0.64367913E+03</rscale>
<asrwt>0</asrwt>
<pdfrwt beam="1">  1        1 0.38102146E+00 0.64367913E+03</pdfrwt>
<pdfrwt beam="2">0</pdfrwt>
<totfact> 0.16259180E+00</totfact>
</mgrwt>
</event>
<event>
 6    1  0.4510314E-003  0.6249627E+03  0.7818608E-02  0.9854928E-01
          1   -1    0    0  502    0  0.00000000000E+00  0.00000000000E+00  0.97660568057E+02  0.97660568057E+02  0.00000000000E+00 0.  1.
         13   -1    0    0    0    0 -0.00000000000E+00 -0.00000000000E+00 -0.10000000000E+04  0.10000000000E+04  0.00000000000E+00 0.  1.
    9000005    2    1    2  501    0 -0.28333535286E-03  0.15783601867E-03 -0.90235539463E+03  0.10976446021E+04  0.62496273030E+03 0.  0.
         13    1    3    3    0    0 -0.92396449696E+02  0.20850482009E+03 -0.82636550527E+03  0.85725801962E+03  0.00000000000E+00 0.  1.
          1    1    3    3  501    0  0.92396166361E+02 -0.20850466225E+03 -0.75989889361E+02  0.24038658245E+03  0.00000000000E+00 0.  1.
         21    1    1    2  502  501  0.28333535287E-03 -0.15783601866E-03  0.15962684601E-01  0.15965979168E-01  0.00000000000E+00 0.  1.
<mgrwt>
<rscale>  1 0.62496273E+03</rscale>
<asrwt>0</asrwt>
<pdfrwt beam="1">  1        1 0.35513009E+00 0.62496273E+03</pdfrwt>
<pdfrwt beam="2">0</pdfrwt>
<totfact> 0.21193477E+00</totfact>
</mgrwt>
</event>
<event>
 6    1  0.4510314E-003  0.6483384E+03  0.7818608E-02  0.9809902E-01
          1   -1    0    0  502    0  0.00000000000E+00  0.00000000000E+00  0.10509504388E+03  0.10509504388E+03  0.00000000000E+00 0.  1.
         13   -1    0    0    0    0 -0.00000000000E+00 -0.00000000000E+00 -0.10000000000E+04  0.10000000000E+04  0.00000000000E+00 0.  1.
    9000005    2    1    2  501    0 -0.98432936966E-04  0.74994389769E-03 -0.89491431207E+03  0.11050856574E+04  0.64833840258E+03 0.  0.
         13    1    3    3    0    0 -0.24374478737E+03  0.12355254184E+03 -0.15022543410E+03  0.31184039670E+03  0.00000000000E+00 0.  1.
          1    1    3    3  501    0  0.24374468893E+03 -0.12355179189E+03 -0.74468887797E+03  0.79324526071E+03  0.00000000000E+00 0.  1.
         21    1    1    2  502  501  0.98432936958E-04 -0.74994389768E-03  0.93559485243E-02  0.93864731226E-02  0.00000000000E+00 0. -1.
<mgrwt>
<rscale>  1 0.64833840E+03</rscale>
<asrwt>0</asrwt>
<pdfrwt beam="1">  1        1 0.38216460E+00 0.64833840E+03</pdfrwt>
<pdfrwt beam="2">0</pdfrwt>
<totfact> 0.16057500E+00</totfact>
</mgrwt>
</event>
<event>
 6    1  0.4510314E-003  0.6491418E+03  0.7818608E-02  0.9808391E-01
          1   -1    0    0  502    0  0.00000000000E+00  0.00000000000E+00  0.10543097569E+03  0.10543097569E+03  0.00000000000E+00 0.  1.
         13   -1    0    0    0    0 -0.00000000000E+00 -0.00000000000E+00 -0.10000000000E+04  0.10000000000E+04  0.00000000000E+00 0.  1.
    9000005    2    1    2  501    0  0.40914780131E-01 -0.13623726956E-01 -0.89464762485E+03  0.11053413226E+04  0.64914179114E+03 0.  0.
         13    1    3    3    0    0  0.40969955511E+02  0.28651270775E+03 -0.19720278063E+03  0.35022422196E+03  0.00000000000E+00 0.  1.
          1    1    3    3  501    0 -0.40929040731E+02 -0.28652633147E+03 -0.69744484422E+03  0.75511710068E+03  0.00000000000E+00 0.  1.
         21    1    1    2  502  501 -0.40914780131E-01  0.13623726956E-01  0.78600539965E-01  0.89653053781E-01  0.00000000000E+00 0.  1.
<mgrwt>
<rscale>  1 0.64914179E+03</rscale>
<asrwt>0</asrwt>
<pdfrwt beam="1">  1        1 0.38338617E+00 0.64914179E+03</pdfrwt>
<pdfrwt beam="2">0</pdfrwt>
<totfact> 0.15856831E+00</totfact>
</mgrwt>
</event>
<event>
 6    1  0.4510314E-003  0.6158673E+03  0.7818608E-02  0.9873022E-01
          1   -1    0    0  502    0  0.00000000000E+00  0.00000000000E+00  0.94825338759E+02  0.94825338759E+02  0.00000000000E+00 0.  1.
         13   -1    0    0    0    0 -0.00000000000E+00 -0.00000000000E+00 -0.10000000000E+04  0.10000000000E+04  0.00000000000E+00 0.  1.
    9000005    2    1    2  501    0 -0.50671145867E-03  0.46713099697E-03 -0.90517679995E+03  0.10948230918E+04  0.61586732587E+03 0.  0.
         13    1    3    3    0    0  0.24093564492E+02  0.27361310117E+02  0.90973058103E+02  0.98006318377E+02  0.00000000000E+00 0.  1.
          1    1    3    3  501    0 -0.24094071203E+02 -0.27360842986E+02 -0.99614985805E+03  0.99681677338E+03  0.00000000000E+00 0.  1.
         21    1    1    2  502  501  0.50671145867E-03 -0.46713099697E-03  0.21387059291E-02  0.22470048781E-02  0.00000000000E+00 0.  1.
<mgrwt>
<rscale>  1 0.61586733E+03</rscale>
<asrwt>0</asrwt>
<pdfrwt beam="1">  1        1 0.34482014E+00 0.61586733E+03</pdfrwt>
<pdfrwt beam="2">0</pdfrwt>
<totfact> 0.23541449E+00</totfact>
</mgrwt>
</event>
<event>
 6    1  0.4510314E-003  0.6609089E+03  0.7818608E-02  0.9786522E-01
          1   -1    0    0  502    0  0.00000000000E+00  0.00000000000E+00  0.10920239780E+03  0.10920239780E+03  0.00000000000E+00 0.  1.
         13   -1    0    0    0    0 -0.00000000000E+00 -0.00000000000E+00 -0.10000000000E+04  0.10000000000E+04  0.00000000000E+00 0.  1.
    9000005    2    1    2  501    0  0.63111447760E-03 -0.58336487672E-03 -0.89079977399E+03  0.11092000621E+04  0.66090887459E+03 0.  0.
         13    1    3    3    0    0 -0.10426105489E+03  0.18159129475E+03 -0.87444670980E+03  0.89916784539E+03  0.00000000000E+00 0.  1.
          1    1    3    3  501    0  0.10426168601E+03 -0.18159187811E+03 -0.16353064191E+02  0.21003221675E+03  0.00000000000E+00 0.  1.
         21    1    1    2  502  501 -0.63111447760E-03  0.58336487672E-03  0.21717890354E-02  0.23356557275E-02  0.00000000000E+00 0. -1.
<mgrwt>
<rscale>  1 0.66090887E+03</rscale>
<asrwt>0</asrwt>
<pdfrwt beam="1">  1        1 0.39710047E+00 0.66090887E+03</pdfrwt>
<pdfrwt beam="2">0</pdfrwt>
<totfact> 0.13754306E+00</totfact>
</mgrwt>
</event>
<event>
 6    1  0.4510314E-003  0.6422315E+03  0.7818608E-02  0.9821466E-01
          1   -1    0    0  502    0  0.00000000000E+00  0.00000000000E+00  0.10311997125E+03  0.10311997125E+03  0.00000000000E+00 0.  1.
         13   -1    0    0    0    0 -0.00000000000E+00 -0.00000000000E+00 -0.10000000000E+04  0.10000000000E+04  0.00000000000E+00 0.  1.
    9000005    2    1    2  501    0 -0.42138558317E-02 -0.94302165849E-04 -0.89688359975E+03  0.11031144470E+04  0.64223149380E+03 0.  0.
         13    1    3    3    0    0 -0.48735690539E+02 -0.30628433908E+03 -0.30545260108E+03  0.43530053458E+03  0.00000000000E+00 0.  1.
          1    1    3    3  501    0  0.48731476683E+02  0.30628424478E+03 -0.59143099866E+03  0.66781391240E+03  0.00000000000E+00 0.  1.
         21    1    1    2  502  501  0.42138558317E-02  0.94302165841E-04  0.35709952345E-02  0.55242629222E-02  0.00000000000E+00 0.  1.
<mgrwt>
<rscale>  1 0.64223149E+03</rscale>
<asrwt>0</asrwt>
<pdfrwt beam="1">  1        1 0.37498250E+00 0.64223149E+03</pdfrwt>
<pdfrwt beam="2">0</pdfrwt>
<totfact> 0.17291490E+00</totfact>
</mgrwt>
</event>
<event>
 6    1  0.6833855E-003  0.6481163E+03  0.7818608E-02  0.9810320E-01
          1   -1    0    0  502    0  0.00000000000E+00  0.00000000000E+00  0.10501367511E+03  0.10501367511E+03  0.00000000000E+00 0.  1.
         13   -1    0    0    0    0 -0.00000000000E+00 -0.00000000000E+00 -0.10000000000E+04  0.10000000000E+04  0.00000000000E+00 0.  1.
    9000005    2    1    2  501    0  0.62091129394E-06 -0.15782109131E-06 -0.89498632622E+03  0.11050136736E+04  0.64811626643E+03 0.  0.
         13    1    3    3    0    0 -0.21481241069E+03 -0.21941668576E+03 -0.62406682738E+03  0.69551956034E+03  0.00000000000E+00 0.  1.
          3    1    3    3  501    0  0.21481241131E+03  0.21941668560E+03 -0.27091949884E+03  0.40949411330E+03  0.00000000000E+00 0.  1.
         21    1    1    2  502  501 -0.62091128510E-06  0.15782108100E-06  0.13292277747E-05  0.14755625350E-05  0.00000000000E+00 0. -1.
<mgrwt>
<rscale>  1 0.64811627E+03</rscale>
<asrwt>0</asrwt>
<pdfrwt beam="1">  1        1 0.38186871E+00 0.64811627E+03</pdfrwt>
<pdfrwt beam="2">0</pdfrwt>
<totfact> 0.16106550E+00</totfact>
</mgrwt>
</event>
<event>
 6    1  0.4510314E-003  0.6639627E+03  0.7818608E-02  0.9780926E-01
          1   -1    0    0  502    0  0.00000000000E+00  0.00000000000E+00  0.11232166121E+03  0.11232166121E+03  0.00000000000E+00 0.  1.
         13   -1    0    0    0    0 -0.00000000000E+00 -0.00000000000E+00 -0.10000000000E+04  0.10000000000E+04  0.00000000000E+00 0.  1.
    9000005    2    1    2  501    0  0.28419866663E-02  0.97083098631E-01 -0.88978713903E+03  0.11102106255E+04  0.66396270288E+03 0.  0.
         13    1    3    3    0    0  0.18131027381E+03 -0.14326956309E+03 -0.46364389322E+02  0.23568886205E+03  0.00000000000E+00 0.  1.
          3    1    3    3  501    0 -0.18130743182E+03  0.14336664619E+03 -0.84342274971E+03  0.87452176348E+03  0.00000000000E+00 0.  1.
         21    1    1    2  502  501 -0.28419866663E-02 -0.97083098631E-01  0.21088002414E+01  0.21110356849E+01  0.00000000000E+00 0. -1.
<mgrwt>
<rscale>  1 0.66396271E+03</rscale>
<asrwt>0</asrwt>
<pdfrwt beam="1">  1        1 0.40844327E+00 0.66396271E+03</pdfrwt>
<pdfrwt beam="2">0</pdfrwt>
<totfact> 0.12232928E+00</totfact>
</mgrwt>
</event>
<event>
 6    1  0.4510314E-003  0.6519046E+03  0.7818608E-02  0.9803212E-01
          1   -1    0    0  502    0  0.00000000000E+00  0.00000000000E+00  0.10624766778E+03  0.10624766778E+03  0.00000000000E+00 0.  1.
         13   -1    0    0    0    0 -0.00000000000E+00 -0.00000000000E+00 -0.10000000000E+04  0.10000000000E+04  0.00000000000E+00 0.  1.
    9000005    2    1    2  501    0  0.73384723493E-04  0.48890435193E-03 -0.89375508734E+03  0.11062448687E+04  0.65190455840E+03 0.  0.
         13    1    3    3    0    0 -0.10992630101E+03 -0.24898791019E+03 -0.75122193727E+03  0.79900761580E+03  0.00000000000E+00 0.  1.
          1    1    3    3  501    0  0.10992637440E+03  0.24898839909E+03 -0.14253315008E+03  0.30723725285E+03  0.00000000000E+00 0.  1.
         21    1    1    2  502  501 -0.73384723495E-04 -0.48890435191E-03  0.27551271310E-02  0.27991317031E-02  0.00000000000E+00 0.  1.
<mgrwt>
<rscale>  1 0.65190456E+03</rscale>
<asrwt>0</asrwt>
<pdfrwt beam="1">  1        1 0.38635597E+00 0.65190456E+03</pdfrwt>
<pdfrwt beam="2">0</pdfrwt>
<totfact> 0.15376574E+00</totfact>
</mgrwt>
</event>
<event>
 6    1  0.4510314E-003  0.4672907E+03  0.7818608E-02  0.1022688E+00
          3   -1    0    0  502    0  0.00000000000E+00  0.00000000000E+00  0.54706984071E+02  0.54706984071E+02  0.00000000000E+00 0.  1.
         13   -1    0    0    0    0 -0.00000000000E+00 -0.00000000000E+00 -0.10000000000E+04  0.10000000000E+04  0.00000000000E+00 0.  1.
    9000005    2    1    2  501    0  0.67895446637E-01  0.69551099262E-01 -0.94538832484E+03  0.10545708557E+04  0.46729069698E+03 0.  0.
         13    1    3    3    0    0  0.33426415260E+01 -0.97247934558E+02 -0.95201330015E+03  0.95697317501E+03  0.00000000000E+00 0.  1.
          1    1    3    3  501    0 -0.32747460794E+01  0.97317485657E+02  0.66249753089E+01  0.97597680682E+02  0.00000000000E+00 0.  1.
         21    1    1    2  502  501 -0.67895446637E-01 -0.69551099262E-01  0.95308910979E-01  0.13612837909E+00  0.00000000000E+00 0. -1.
<mgrwt>
<rscale>  1 0.46729071E+03</rscale>
<asrwt>0</asrwt>
<pdfrwt beam="1">  1        3 0.19893491E+00 0.46729071E+03</pdfrwt>
<pdfrwt beam="2">0</pdfrwt>
<totfact> 0.77926981E-01</totfact>
</mgrwt>
</event>
<event>
 6    1  0.4510314E-003  0.6442113E+03  0.7818608E-02  0.9817702E-01
          1   -1    0    0  502    0  0.00000000000E+00  0.00000000000E+00  0.10383348016E+03  0.10383348016E+03  0.00000000000E+00 0.  1.
         13   -1    0    0    0    0 -0.00000000000E+00 -0.00000000000E+00 -0.10000000000E+04  0.10000000000E+04  0.00000000000E+00 0.  1.
    9000005    2    1    2  501    0 -0.14042463440E+00  0.77086059930E-01 -0.89614991993E+03  0.11036724308E+04  0.64421124630E+03 0.  0.
         13    1    3    3    0    0  0.81281276623E+02 -0.31158983783E+03 -0.44001348008E+03  0.54525841178E+03  0.00000000000E+00 0.  1.
          3    1    3    3  501    0 -0.81421701257E+02  0.31166692389E+03 -0.45613643985E+03  0.55841401902E+03  0.00000000000E+00 0.  1.
         21    1    1    2  502  501  0.14042463440E+00 -0.77086059930E-01 -0.16599904197E-01  0.16104935704E+00  0.00000000000E+00 0. -1.
<mgrwt>
<rscale>  1 0.64421127E+03</rscale>
<asrwt>0</asrwt>
<pdfrwt beam="1">  1        1 0.37757709E+00 0.64421127E+03</pdfrwt>
<pdfrwt beam="2">0</pdfrwt>
<totfact> 0.16836327E+00</totfact>
</mgrwt>
</event>
<event>
 6    1  0.4510314E-003  0.6577520E+03  0.7818608E-02  0.9792341E-01
          1   -1    0    0  502    0  0.00000000000E+00  0.00000000000E+00  0.10816517085E+03  0.10816517085E+03  0.00000000000E+00 0.  1.
         13   -1    0    0    0    0 -0.00000000000E+00 -0.00000000000E+00 -0.10000000000E+04  0.10000000000E+04  0.00000000000E+00 0.  1.
    9000005    2    1    2  501    0  0.28118197539E-02 -0.28021830990E-02 -0.89183982540E+03  0.11081587895E+04  0.65775195072E+03 0.  0.
         13    1    3    3    0    0 -0.28351861302E+03 -0.14543414399E+03 -0.58305048554E+03  0.66444094008E+03  0.00000000000E+00 0.  1.
          1    1    3    3  501    0  0.28352142484E+03  0.14543134181E+03 -0.30878933986E+03  0.44371784947E+03  0.00000000000E+00 0.  1.
         21    1    1    2  502  501 -0.28118197539E-02  0.28021830990E-02  0.49962458672E-02  0.63813034102E-02  0.00000000000E+00 0.  1.
<mgrwt>
<rscale>  1 0.65775195E+03</rscale>
<asrwt>0</asrwt>
<pdfrwt beam="1">  1        1 0.39332872E+00 0.65775195E+03</pdfrwt>
<pdfrwt beam="2">0</pdfrwt>
<totfact> 0.14304358E+00</totfact>
</mgrwt>
</event>
<event>
 6    1  0.4510314E-003  0.6515570E+03  0.7818608E-02  0.9803862E-01
          1   -1    0    0  502    0  0.00000000000E+00  0.00000000000E+00  0.10618512769E+03  0.10618512769E+03  0.00000000000E+00 0.  1.
         13   -1    0    0    0    0 -0.00000000000E+00 -0.00000000000E+00 -0.10000000000E+04  0.10000000000E+04  0.00000000000E+00 0.  1.
    9000005    2    1    2  501    0 -0.18059553097E-02  0.89822067414E-02 -0.89386792044E+03  0.11061312942E+04  0.65155704334E+03 0.  0.
         13    1    3    3    0    0  0.17342047310E+03 -0.26527420953E+02 -0.91295191166E+03  0.92965561234E+03  0.00000000000E+00 0.  1.
          1    1    3    3  501    0 -0.17342227906E+03  0.26536403160E+02  0.19083991219E+02  0.17647568186E+03  0.00000000000E+00 0.  1.
         21    1    1    2  502  501  0.18059553097E-02 -0.89822067414E-02  0.53048126352E-01  0.53833495353E-01  0.00000000000E+00 0.  1.
<mgrwt>
<rscale>  1 0.65155704E+03</rscale>
<asrwt>0</asrwt>
<pdfrwt beam="1">  1        1 0.38612855E+00 0.65155704E+03</pdfrwt>
<pdfrwt beam="2">0</pdfrwt>
<totfact> 0.15413244E+00</totfact>
</mgrwt>
</event>
<event>
 6    1  0.4510314E-003  0.6470811E+03  0.7818608E-02  0.9812272E-01
          1   -1    0    0  502    0  0.00000000000E+00  0.00000000000E+00  0.10467950326E+03  0.10467950326E+03  0.00000000000E+00 0.  1.
         13   -1    0    0    0    0 -0.00000000000E+00 -0.00000000000E+00 -0.10000000000E+04  0.10000000000E+04  0.00000000000E+00 0.  1.
    9000005    2    1    2  501    0  0.22312687648E-03  0.27965595550E-04 -0.89532150759E+03  0.11046784677E+04  0.64708107300E+03 0.  0.
         13    1    3    3    0    0 -0.99578424117E+02  0.12395219307E+03 -0.92870294750E+03  0.94221503565E+03  0.00000000000E+00 0.  1.
          1    1    3    3  501    0  0.99578647244E+02 -0.12395216510E+03  0.33381439907E+02  0.16246343204E+03  0.00000000000E+00 0.  1.
         21    1    1    2  502  501 -0.22312687648E-03 -0.27965595545E-04  0.10108508582E-02  0.10355612657E-02  0.00000000000E+00 0. -1.
<mgrwt>
<rscale>  1 0.64708107E+03</rscale>
<asrwt>0</asrwt>
<pdfrwt beam="1">  1        1 0.38065354E+00 0.64708107E+03</pdfrwt>
<pdfrwt beam="2">0</pdfrwt>
<totfact> 0.16309859E+00</totfact>
</mgrwt>
</event>
<event>
 6    1  0.4510314E-003  0.6334799E+03  0.7818608E-02  0.9838281E-01
          1   -1    0    0  502    0  0.00000000000E+00  0.00000000000E+00  0.10297699981E+03  0.10297699981E+03  0.00000000000E+00 0.  1.
         13   -1    0    0    0    0 -0.00000000000E+00 -0.00000000000E+00 -0.10000000000E+04  0.10000000000E+04  0.00000000000E+00 0.  1.
    9000005    2    1    2  501    0 -0.32307933253E-01  0.55279741350E-01 -0.89967538029E+03  0.11003238470E+04  0.63347989255E+03 0.  0.
         13    1    3    3    0    0  0.13023573041E+03 -0.66655257824E+02 -0.93775199090E+03  0.94909591997E+03  0.00000000000E+00 0.  1.
          1    1    3    3  501    0 -0.13026803835E+03  0.66710537566E+02  0.38076610606E+02  0.15122792702E+03  0.00000000000E+00 0.  1.
         21    1    1    2  502  501  0.32307933253E-01 -0.55279741350E-01  0.26523801027E+01  0.26531528153E+01  0.00000000000E+00 0. -1.
<mgrwt>
<rscale>  1 0.63347990E+03</rscale>
<asrwt>0</asrwt>
<pdfrwt beam="1">  1        1 0.37446261E+00 0.63347990E+03</pdfrwt>
<pdfrwt beam="2">0</pdfrwt>
<totfact> 0.17410827E+00</totfact>
</mgrwt>
</event>
<event>
 6    1  0.4510314E-003  0.6415989E+03  0.7818608E-02  0.9822672E-01
          1   -1    0    0  502    0  0.00000000000E+00  0.00000000000E+00  0.10327434700E+03  0.10327434700E+03  0.00000000000E+00 0.  1.
         13   -1    0    0    0    0 -0.00000000000E+00 -0.00000000000E+00 -0.10000000000E+04  0.10000000000E+04  0.00000000000E+00 0.  1.
    9000005    2    1    2  501    0 -0.29260679057E-01  0.18279076946E-01 -0.89708681868E+03  0.11029115372E+04  0.64159886021E+03 0.  0.
         13    1    3    3    0    0 -0.13874655895E+03 -0.14727816547E+03 -0.20613693811E+02  0.20338729069E+03  0.00000000000E+00 0.  1.
          3    1    3    3  501    0  0.13871729827E+03  0.14729644454E+03 -0.87647312487E+03  0.89952424649E+03  0.00000000000E+00 0.  1.
         21    1    1    2  502  501  0.29260679057E-01 -0.18279076946E-01  0.36116568079E+00  0.36280981378E+00  0.00000000000E+00 0. -1.
<mgrwt>
<rscale>  1 0.64159886E+03</rscale>
<asrwt>0</asrwt>
<pdfrwt beam="1">  1        1 0.37554387E+00 0.64159886E+03</pdfrwt>
<pdfrwt beam="2">0</pdfrwt>
<totfact> 0.17195366E+00</totfact>
</mgrwt>
</event>
<event>
 6    1  0.4510314E-003  0.6475723E+03  0.7818608E-02  0.9811345E-01
          1   -1    0    0  502    0  0.00000000000E+00  0.00000000000E+00  0.10483836852E+03  0.10483836852E+03  0.00000000000E+00 0.  1.
         13   -1    0    0    0    0 -0.00000000000E+00 -0.00000000000E+00 -0.10000000000E+04  0.10000000000E+04  0.00000000000E+00 0.  1.
    9000005    2    1    2  501    0  0.45157209496E-03 -0.85956206550E-03 -0.89516224617E+03  0.11048372193E+04  0.64757226181E+03 0.  0.
         13    1    3    3    0    0 -0.13140385237E+03 -0.29582705665E+03 -0.46046627805E+03  0.56285860844E+03  0.00000000000E+00 0.  1.
          3    1    3    3  501    0  0.13140430394E+03  0.29582619709E+03 -0.43469596812E+03  0.54197861090E+03  0.00000000000E+00 0.  1.
         21    1    1    2  502  501 -0.45157209496E-03  0.85956206551E-03  0.61469032734E-03  0.11491773144E-02  0.00000000000E+00 0.  1.
<mgrwt>
<rscale>  1 0.64757226E+03</rscale>
<asrwt>0</asrwt>
<pdfrwt beam="1">  1        1 0.38123123E+00 0.64757226E+03</pdfrwt>
<pdfrwt beam="2">0</pdfrwt>
<totfact> 0.16212906E+00</totfact>
</mgrwt>
</event>
<event>
 6    1  0.4510314E-003  0.6455962E+03  0.7818608E-02  0.9815078E-01
          1   -1    0    0  502    0  0.00000000000E+00  0.00000000000E+00  0.11505047246E+03  0.11505047246E+03  0.00000000000E+00 0.  1.
         13   -1    0    0    0    0 -0.00000000000E+00 -0.00000000000E+00 -0.10000000000E+04  0.10000000000E+04  0.00000000000E+00 0.  1.
    9000005    2    1    2  501    0  0.25912237586E+01 -0.35979884261E+00 -0.89562703035E+03  0.11040571580E+04  0.64559088194E+03 0.  0.
         13    1    3    3    0    0  0.14371711770E+03  0.46865716756E+02 -0.93738196619E+03  0.94949247278E+03  0.00000000000E+00 0.  1.
          1    1    3    3  501    0 -0.14112589394E+03 -0.47225515598E+02  0.41754935841E+02  0.15456468526E+03  0.00000000000E+00 0.  1.
         21    1    1    2  502  501 -0.25912237586E+01  0.35979884261E+00  0.10677502806E+02  0.10993314420E+02  0.00000000000E+00 0. -1.
<mgrwt>
<rscale>  1 0.64559618E+03</rscale>
<asrwt>0</asrwt>
<pdfrwt beam="1">  1        1 0.41836624E+00 0.64559618E+03</pdfrwt>
<pdfrwt beam="2">0</pdfrwt>
<totfact> 0.11078955E+00</totfact>
</mgrwt>
</event>
<event>
 6    1  0.4510314E-003  0.6530611E+03  0.7818608E-02  0.9801052E-01
          1   -1    0    0  502    0  0.00000000000E+00  0.00000000000E+00  0.10674472665E+03  0.10674472665E+03  0.00000000000E+00 0.  1.
         13   -1    0    0    0    0 -0.00000000000E+00 -0.00000000000E+00 -0.10000000000E+04  0.10000000000E+04  0.00000000000E+00 0.  1.
    9000005    2    1    2  501    0  0.51403591941E-02  0.41947743317E-02 -0.89337771634E+03  0.11066221040E+04  0.65306105153E+03 0.  0.
         13    1    3    3    0    0 -0.18082881928E+03 -0.25456336001E+03 -0.60849645378E+03  0.68393676638E+03  0.00000000000E+00 0.  1.
          3    1    3    3  501    0  0.18083395964E+03  0.25456755478E+03 -0.28488126256E+03  0.42268533765E+03  0.00000000000E+00 0.  1.
         21    1    1    2  502  501 -0.51403591942E-02 -0.41947743317E-02  0.12244299529E+00  0.12262261831E+00  0.00000000000E+00 0. -1.
<mgrwt>
<rscale>  1 0.65306105E+03</rscale>
<asrwt>0</asrwt>
<pdfrwt beam="1">  1        1 0.38816346E+00 0.65306105E+03</pdfrwt>
<pdfrwt beam="2">0</pdfrwt>
<totfact> 0.15092541E+00</totfact>
</mgrwt>
</event>
<event>
 6    1  0.4510314E-003  0.6258795E+03  0.7818608E-02  0.9853123E-01
          1   -1    0    0  502    0  0.00000000000E+00  0.00000000000E+00  0.12441803751E+03  0.12441803751E+03  0.00000000000E+00 0.  1.
         13   -1    0    0    0    0 -0.00000000000E+00 -0.00000000000E+00 -0.10000000000E+04  0.10000000000E+04  0.00000000000E+00 0.  1.
    9000005    2    1    2  501    0 -0.40303506371E+02  0.89609043106E+01 -0.88315124279E+03  0.10824422774E+04  0.62451620944E+03 0.  0.
         13    1    3    3    0    0 -0.27532840938E+03 -0.12526508604E+03 -0.67931580097E+03  0.74361753089E+03  0.00000000000E+00 0.  1.
          1    1    3    3  501    0  0.23502490301E+03  0.13422599035E+03 -0.20383544181E+03  0.33882474652E+03  0.00000000000E+00 0.  1.
         21    1    1    2  502  501  0.40303506371E+02 -0.89609043106E+01  0.75692802996E+01  0.41975760102E+02  0.00000000000E+00 0.  1.
<mgrwt>
<rscale>  1 0.62587951E+03</rscale>
<asrwt>0</asrwt>
<pdfrwt beam="1">  1        1 0.45243018E+00 0.62587951E+03</pdfrwt>
<pdfrwt beam="2">0</pdfrwt>
<totfact> 0.77823607E-01</totfact>
</mgrwt>
</event>
<event>
 6    1  0.4510314E-003  0.6495528E+03  0.7818608E-02  0.9807619E-01
          1   -1    0    0  502    0  0.00000000000E+00  0.00000000000E+00  0.10709350867E+03  0.10709350867E+03  0.00000000000E+00 0.  1.
         13   -1    0    0    0    0 -0.00000000000E+00 -0.00000000000E+00 -0.10000000000E+04  0.10000000000E+04  0.00000000000E+00 0.  1.
    9000005    2    1    2  501    0  0.21798915043E+01 -0.62908807573E-01 -0.89366218904E+03  0.11047854871E+04  0.64954915790E+03 0.  0.
         13    1    3    3    0    0  0.84448005087E+02  0.31032509359E+03 -0.36723809453E+03  0.48815668319E+03  0.00000000000E+00 0.  1.
          1    1    3    3  501    0 -0.82268113583E+02 -0.31038800239E+03 -0.52642409451E+03  0.61662880392E+03  0.00000000000E+00 0.  1.
         21    1    1    2  502  501 -0.21798915043E+01  0.62908807573E-01  0.75569771395E+00  0.23080215605E+01  0.00000000000E+00 0. -1.
<mgrwt>
<rscale>  1 0.64955282E+03</rscale>
<asrwt>0</asrwt>
<pdfrwt beam="1">  1        1 0.38943176E+00 0.64955282E+03</pdfrwt>
<pdfrwt beam="2">0</pdfrwt>
<totfact> 0.14908191E+00</totfact>
</mgrwt>
</event>
<event>
 6    1  0.4510314E-003  0.6431597E+03  0.7818608E-02  0.9819700E-01
          1   -1    0    0  502    0  0.00000000000E+00  0.00000000000E+00  0.10341410582E+03  0.10341410582E+03  0.00000000000E+00 0.  1.
         13   -1    0    0    0    0 -0.00000000000E+00 -0.00000000000E+00 -0.10000000000E+04  0.10000000000E+04  0.00000000000E+00 0.  1.
    9000005    2    1    2  501    0 -0.51293126859E-04 -0.21555617207E-03 -0.89658636775E+03  0.11034135830E+04  0.64315971598E+03 0.  0.
         13    1    3    3    0    0  0.14919090986E+03 -0.23718401348E+03 -0.17757692160E+03  0.33173445241E+03  0.00000000000E+00 0.  1.
          1    1    3    3  501    0 -0.14919096115E+03  0.23718379792E+03 -0.71900944616E+03  0.77167913056E+03  0.00000000000E+00 0.  1.
         21    1    1    2  502  501  0.51293126849E-04  0.21555617205E-03  0.47357763005E-03  0.52284913680E-03  0.00000000000E+00 0.  1.
<mgrwt>
<rscale>  1 0.64315972E+03</rscale>
<asrwt>0</asrwt>
<pdfrwt beam="1">  1        1 0.37605209E+00 0.64315972E+03</pdfrwt>
<pdfrwt beam="2">0</pdfrwt>
<totfact> 0.17102099E+00</totfact>
</mgrwt>
</event>
<event>
 6    1  0.4510314E-003  0.6119609E+03  0.7818608E-02  0.9880897E-01
          1   -1    0    0  502    0  0.00000000000E+00  0.00000000000E+00  0.93728829377E+02  0.93728829377E+02  0.00000000000E+00 0.  1.
         13   -1    0    0    0    0 -0.00000000000E+00 -0.00000000000E+00 -0.10000000000E+04  0.10000000000E+04  0.00000000000E+00 0.  1.
    9000005    2    1    2  501    0 -0.14589113161E+00  0.37790452329E-01 -0.90631352422E+03  0.10935722849E+04  0.61196087737E+03 0.  0.
         13    1    3    3    0    0  0.10100357101E+03 -0.52421386602E+02  0.54395852994E+02  0.12612942540E+03  0.00000000000E+00 0.  1.
          1    1    3    3  501    0 -0.10114946214E+03  0.52459177054E+02 -0.96070937722E+03  0.96744285951E+03  0.00000000000E+00 0.  1.
         21    1    1    2  502  501  0.14589113161E+00 -0.37790452329E-01  0.42353601660E-01  0.15654446060E+00  0.00000000000E+00 0. -1.
<mgrwt>
<rscale>  1 0.61196090E+03</rscale>
<asrwt>0</asrwt>
<pdfrwt beam="1">  1        1 0.34083283E+00 0.61196090E+03</pdfrwt>
<pdfrwt beam="2">0</pdfrwt>
<totfact> 0.24517023E+00</totfact>
</mgrwt>
</event>
<event>
 6    1  0.4510314E-003  0.6395951E+03  0.7818608E-02  0.9826502E-01
          1   -1    0    0  502    0  0.00000000000E+00  0.00000000000E+00  0.10227158585E+03  0.10227158585E+03  0.00000000000E+00 0.  1.
         13   -1    0    0    0    0 -0.00000000000E+00 -0.00000000000E+00 -0.10000000000E+04  0.10000000000E+04  0.00000000000E+00 0.  1.
    9000005    2    1    2  501    0 -0.30656300737E-04 -0.10503709831E-04 -0.89772953688E+03  0.11022704626E+04  0.63959506833E+03 0.  0.
         13    1    3    3    0    0 -0.14247793639E+03 -0.13751833528E+03 -0.16094590069E+02  0.19867131329E+03  0.00000000000E+00 0.  1.
          3    1    3    3  501    0  0.14247790573E+03  0.13751832478E+03 -0.88163494682E+03  0.90359914936E+03  0.00000000000E+00 0.  1.
         21    1    1    2  502  501  0.30656300728E-04  0.10503709837E-04  0.11227316266E-02  0.11231991997E-02  0.00000000000E+00 0. -1.
<mgrwt>
<rscale>  1 0.63959507E+03</rscale>
<asrwt>0</asrwt>
<pdfrwt beam="1">  1        1 0.37189746E+00 0.63959507E+03</pdfrwt>
<pdfrwt beam="2">0</pdfrwt>
<totfact> 0.17848911E+00</totfact>
</mgrwt>
</event>
<event>
 6    1  0.4510314E-003  0.6406274E+03  0.7818608E-02  0.9824527E-01
          1   -1    0    0  502    0  0.00000000000E+00  0.00000000000E+00  0.10260085861E+03  0.10260085861E+03  0.00000000000E+00 0.  1.
         13   -1    0    0    0    0 -0.00000000000E+00 -0.00000000000E+00 -0.10000000000E+04  0.10000000000E+04  0.00000000000E+00 0.  1.
    9000005    2    1    2  501    0 -0.28220434274E-05 -0.29647515021E-06 -0.89739914169E+03  0.11026008558E+04  0.64062737032E+03 0.  0.
         13    1    3    3    0    0  0.14598373626E+03  0.27322996952E+03 -0.30850443697E+03  0.43719658636E+03  0.00000000000E+00 0.  1.
          3    1    3    3  501    0 -0.14598373908E+03 -0.27322996982E+03 -0.58889470472E+03  0.66540426940E+03  0.00000000000E+00 0.  1.
         21    1    1    2  502  501  0.28220434390E-05  0.29647519224E-06  0.30386842856E-06  0.28537979489E-05  0.00000000000E+00 0. -1.
<mgrwt>
<rscale>  1 0.64062737E+03</rscale>
<asrwt>0</asrwt>
<pdfrwt beam="1">  1        1 0.37309482E+00 0.64062737E+03</pdfrwt>
<pdfrwt beam="2">0</pdfrwt>
<totfact> 0.17630530E+00</totfact>
</mgrwt>
</event>
<event>
 6    1  0.4510314E-003  0.6391143E+03  0.7818608E-02  0.9827423E-01
          1   -1    0    0  502    0  0.00000000000E+00  0.00000000000E+00  0.10238999441E+03  0.10238999441E+03  0.00000000000E+00 0.  1.
         13   -1    0    0    0    0 -0.00000000000E+00 -0.00000000000E+00 -0.10000000000E+04  0.10000000000E+04  0.00000000000E+00 0.  1.
    9000005    2    1    2  501    0 -0.39214621525E-01 -0.14872336508E+00 -0.89785917956E+03  0.11020971735E+04  0.63911426978E+03 0.  0.
         13    1    3    3    0    0 -0.67742371965E+02  0.30587884847E+03 -0.34082837700E+03  0.46294155297E+03  0.00000000000E+00 0.  1.
          1    1    3    3  501    0  0.67703157344E+02 -0.30602757184E+03 -0.55703080256E+03  0.63915562052E+03  0.00000000000E+00 0.  1.
         21    1    1    2  502  501  0.39214621525E-01  0.14872336508E+00  0.24917396668E+00  0.29282092059E+00  0.00000000000E+00 0. -1.
<mgrwt>
<rscale>  1 0.63911429E+03</rscale>
<asrwt>0</asrwt>
<pdfrwt beam="1">  1        1 0.37232804E+00 0.63911429E+03</pdfrwt>
<pdfrwt beam="2">0</pdfrwt>
<totfact> 0.17772849E+00</totfact>
</mgrwt>
</event>
<event>
 6    1  0.4510314E-003  0.6389522E+03  0.7818608E-02  0.9827733E-01
          1   -1    0    0  502    0  0.00000000000E+00  0.00000000000E+00  0.10206548316E+03  0.10206548316E+03  0.00000000000E+00 0.  1.
         13   -1    0    0    0    0 -0.00000000000E+00 -0.00000000000E+00 -0.10000000000E+04  0.10000000000E+04  0.00000000000E+00 0.  1.
    9000005    2    1    2  501    0  0.30022751691E-03  0.90889152341E-03 -0.89793447009E+03  0.11020645248E+04  0.63895219250E+03 0.  0.
         13    1    3    3    0    0 -0.50838415440E+02  0.31457162941E+03 -0.40943294608E+03  0.51882096320E+03  0.00000000000E+00 0.  1.
          3    1    3    3  501    0  0.50838715668E+02 -0.31457072052E+03 -0.48850152401E+03  0.58324356163E+03  0.00000000000E+00 0.  1.
         21    1    1    2  502  501 -0.30022751691E-03 -0.90889152342E-03 -0.46749665701E-04  0.95833495945E-03  0.00000000000E+00 0. -1.
<mgrwt>
<rscale>  1 0.63895219E+03</rscale>
<asrwt>0</asrwt>
<pdfrwt beam="1">  1        1 0.37114799E+00 0.63895219E+03</pdfrwt>
<pdfrwt beam="2">0</pdfrwt>
<totfact> 0.17986904E+00</totfact>
</mgrwt>
</event>
<event>
 6    1  0.4510314E-003  0.6530701E+03  0.7818608E-02  0.9801035E-01
          1   -1    0    0  502    0  0.00000000000E+00  0.00000000000E+00  0.10663860774E+03  0.10663860774E+03  0.00000000000E+00 0.  1.
         13   -1    0    0    0    0 -0.00000000000E+00 -0.00000000000E+00 -0.10000000000E+04  0.10000000000E+04  0.00000000000E+00 0.  1.
    9000005    2    1    2  501    0 -0.10810739011E-01  0.74776861384E-02 -0.89337120571E+03  0.11066222037E+04  0.65307012672E+03 0.  0.
         13    1    3    3    0    0  0.21932414868E+03 -0.66148374112E+02 -0.52392022122E+02  0.23499705013E+03  0.00000000000E+00 0.  1.
          3    1    3    3  501    0 -0.21933495941E+03  0.66155851798E+02 -0.84097918359E+03  0.87162515359E+03  0.00000000000E+00 0.  1.
         21    1    1    2  502  501  0.10810739011E-01 -0.74776861384E-02  0.98134541541E-02  0.16404016288E-01  0.00000000000E+00 0. -1.
<mgrwt>
<rscale>  1 0.65307013E+03</rscale>
<asrwt>0</asrwt>
<pdfrwt beam="1">  1        1 0.38777757E+00 0.65307013E+03</pdfrwt>
<pdfrwt beam="2">0</pdfrwt>
<totfact> 0.15152041E+00</totfact>
</mgrwt>
</event>
<event>
 6    1  0.4510314E-003  0.6409043E+03  0.7818608E-02  0.9823998E-01
          3   -1    0    0  502    0  0.00000000000E+00  0.00000000000E+00  0.10309484894E+03  0.10309484894E+03  0.00000000000E+00 0.  1.
         13   -1    0    0    0    0 -0.00000000000E+00 -0.00000000000E+00 -0.10000000000E+04  0.10000000000E+04  0.00000000000E+00 0.  1.
    9000005    2    1    2  501    0 -0.98728652966E-02 -0.28441596253E-01 -0.89730981842E+03  0.11026890632E+04  0.64090425101E+03 0.  0.
         13    1    3    3    0    0  0.23132865012E+03  0.59972730474E+02 -0.81340591209E+02  0.25244002167E+03  0.00000000000E+00 0.  1.
          3    1    3    3  501    0 -0.23133852298E+03 -0.60001172071E+02 -0.81596922721E+03  0.85024904152E+03  0.00000000000E+00 0.  1.
         21    1    1    2  502  501  0.98728652966E-02  0.28441596253E-01  0.40466735772E+00  0.40578574183E+00  0.00000000000E+00 0.  1.
<mgrwt>
<rscale>  1 0.64090425E+03</rscale>
<asrwt>0</asrwt>
<pdfrwt beam="1">  1        3 0.37489115E+00 0.64090425E+03</pdfrwt>
<pdfrwt beam="2">0</pdfrwt>
<totfact> 0.80442665E-02</totfact>
</mgrwt>
</event>
<event>
 6    1  0.4510314E-003  0.6396622E+03  0.7818608E-02  0.9826373E-01
          1   -1    0    0  502    0  0.00000000000E+00  0.00000000000E+00  0.10229193276E+03  0.10229193276E+03  0.00000000000E+00 0.  1.
         13   -1    0    0    0    0 -0.00000000000E+00 -0.00000000000E+00 -0.10000000000E+04  0.10000000000E+04  0.00000000000E+00 0.  1.
    9000005    2    1    2  501    0  0.19393530408E-05  0.88648914698E-06 -0.89770806953E+03  0.11022919296E+04  0.63966219213E+03 0.  0.
         13    1    3    3    0    0 -0.20249903807E+02 -0.30809715833E+03 -0.30511042785E+03  0.43408097259E+03  0.00000000000E+00 0.  1.
          3    1    3    3  501    0  0.20249905746E+02  0.30809715922E+03 -0.59259764167E+03  0.66821095705E+03  0.00000000000E+00 0.  1.
         21    1    1    2  502  501 -0.19393530414E-05 -0.88648918992E-06  0.22845629164E-05  0.31250889623E-05  0.00000000000E+00 0.  1.
<mgrwt>
<rscale>  1 0.63966219E+03</rscale>
<asrwt>0</asrwt>
<pdfrwt beam="1">  1        1 0.37197145E+00 0.63966219E+03</pdfrwt>
<pdfrwt beam="2">0</pdfrwt>
<totfact> 0.17835331E+00</totfact>
</mgrwt>
</event>
<event>
 6    1  0.4510314E-003  0.6168921E+03  0.7818608E-02  0.9870967E-01
          1   -1    0    0  502    0  0.00000000000E+00  0.00000000000E+00  0.95141556406E+02  0.95141556406E+02  0.00000000000E+00 0.  1.
         13   -1    0    0    0    0 -0.00000000000E+00 -0.00000000000E+00 -0.10000000000E+04  0.10000000000E+04  0.00000000000E+00 0.  1.
    9000005    2    1    2  501    0  0.25579964756E-04  0.91474812861E-04 -0.90486102401E+03  0.10951389742E+04  0.61689213005E+03 0.  0.
         13    1    3    3    0    0 -0.25885853616E+03  0.73783241054E+01 -0.15496697695E+03  0.30178957132E+03  0.00000000000E+00 0.  1.
          1    1    3    3  501    0  0.25885856174E+03 -0.73782326305E+01 -0.74989404706E+03  0.79334940292E+03  0.00000000000E+00 0.  1.
         21    1    1    2  502  501 -0.25579964771E-04 -0.91474812861E-04  0.25804183749E-02  0.25821659446E-02  0.00000000000E+00 0. -1.
<mgrwt>
<rscale>  1 0.61689213E+03</rscale>
<asrwt>0</asrwt>
<pdfrwt beam="1">  1        1 0.34597003E+00 0.61689213E+03</pdfrwt>
<pdfrwt beam="2">0</pdfrwt>
<totfact> 0.23267581E+00</totfact>
</mgrwt>
</event>
<event>
 6    1  0.4510314E-003  0.6465022E+03  0.7818608E-02  0.9813365E-01
          1   -1    0    0  502    0  0.00000000000E+00  0.00000000000E+00  0.10457412584E+03  0.10457412584E+03  0.00000000000E+00 0.  1.
         13   -1    0    0    0    0 -0.00000000000E+00 -0.00000000000E+00 -0.10000000000E+04  0.10000000000E+04  0.00000000000E+00 0.  1.
    9000005    2    1    2  501    0 -0.16945716455E-02  0.38880088152E-02 -0.89550866057E+03  0.11044912309E+04  0.64650221799E+03 0.  0.
         13    1    3    3    0    0 -0.21143571034E+03  0.50384736443E+01 -0.30115272163E+02  0.21362906038E+03  0.00000000000E+00 0.  1.
          1    1    3    3  501    0  0.21143401577E+03 -0.50345856355E+01 -0.86539338841E+03  0.89086217047E+03  0.00000000000E+00 0.  1.
         21    1    1    2  502  501  0.16945716455E-02 -0.38880088152E-02  0.82786410613E-01  0.82894981560E-01  0.00000000000E+00 0. -1.
<mgrwt>
<rscale>  1 0.64650222E+03</rscale>
<asrwt>0</asrwt>
<pdfrwt beam="1">  1        1 0.38027035E+00 0.64650222E+03</pdfrwt>
<pdfrwt beam="2">0</pdfrwt>
<totfact> 0.16375235E+00</totfact>
</mgrwt>
</event>
<event>
 6    1  0.4510314E-003  0.6375777E+03  0.7818608E-02  0.9830372E-01
          1   -1    0    0  502    0  0.00000000000E+00  0.00000000000E+00  0.10307022454E+03  0.10307022454E+03  0.00000000000E+00 0.  1.
         13   -1    0    0    0    0 -0.00000000000E+00 -0.00000000000E+00 -0.10000000000E+04  0.10000000000E+04  0.00000000000E+00 0.  1.
    9000005    2    1    2  501    0  0.51297879081E-01 -0.61173739042E+00 -0.89830144673E+03  0.11015674484E+04  0.63757742848E+03 0.  0.
         13    1    3    3    0    0  0.33755799187E+02  0.31425129658E+03 -0.38087515071E+03  0.49493354282E+03  0.00000000000E+00 0.  1.
          1    1    3    3  501    0 -0.33704501308E+02 -0.31486303397E+03 -0.51742629602E+03  0.60663390556E+03  0.00000000000E+00 0.  1.
         21    1    1    2  502  501 -0.51297879081E-01  0.61173739042E+00  0.13716712686E+01  0.15027761564E+01  0.00000000000E+00 0. -1.
<mgrwt>
<rscale>  1 0.63757772E+03</rscale>
<asrwt>0</asrwt>
<pdfrwt beam="1">  1        1 0.37480161E+00 0.63757772E+03</pdfrwt>
<pdfrwt beam="2">0</pdfrwt>
<totfact> 0.17338018E+00</totfact>
</mgrwt>
</event>
<event>
 6    1  0.4510314E-003  0.6914558E+03  0.7818608E-02  0.9731956E-01
          1   -1    0    0  502    0  0.00000000000E+00  0.00000000000E+00  0.11958328935E+03  0.11958328935E+03  0.00000000000E+00 0.  1.
         13   -1    0    0    0    0 -0.00000000000E+00 -0.00000000000E+00 -0.10000000000E+04  0.10000000000E+04  0.00000000000E+00 0.  1.
    9000005    2    1    2  501    0 -0.15467113055E-01  0.21475762793E-02 -0.88047097916E+03  0.11195268189E+04  0.69145582127E+03 0.  0.
         13    1    3    3    0    0  0.29676057087E+03 -0.76610339854E+02 -0.18123840128E+03  0.35606648072E+03  0.00000000000E+00 0.  1.
          1    1    3    3  501    0 -0.29677603798E+03  0.76612487430E+02 -0.69923257788E+03  0.76346033815E+03  0.00000000000E+00 0.  1.
         21    1    1    2  502  501  0.15467113055E-01 -0.21475762793E-02  0.54268514526E-01  0.56470482014E-01  0.00000000000E+00 0. -1.
<mgrwt>
<rscale>  1 0.69145582E+03</rscale>
<asrwt>0</asrwt>
<pdfrwt beam="1">  1        1 0.43484924E+00 0.69145582E+03</pdfrwt>
<pdfrwt beam="2">0</pdfrwt>
<totfact> 0.92448965E-01</totfact>
</mgrwt>
</event>
<event>
 6    1  0.4510314E-003  0.6578733E+03  0.7818608E-02  0.9792117E-01
          1   -1    0    0  502    0  0.00000000000E+00  0.00000000000E+00  0.10919041807E+03  0.10919041807E+03  0.00000000000E+00 0.  1.
         13   -1    0    0    0    0 -0.00000000000E+00 -0.00000000000E+00 -0.10000000000E+04  0.10000000000E+04  0.00000000000E+00 0.  1.
    9000005    2    1    2  501    0 -0.56497255254E+00 -0.15479116219E+01 -0.89097427309E+03  0.11075344146E+04  0.65787127081E+03 0.  0.
         13    1    3    3    0    0 -0.15909424087E+03 -0.28882279458E+03 -0.45071627231E+03  0.55845746684E+03  0.00000000000E+00 0.  1.
          3    1    3    3  501    0  0.15852926832E+03  0.28727488295E+03 -0.44025800078E+03  0.54907694775E+03  0.00000000000E+00 0.  1.
         21    1    1    2  502  501  0.56497255254E+00  0.15479116219E+01  0.16469116343E+00  0.16560034884E+01  0.00000000000E+00 0. -1.
<mgrwt>
<rscale>  1 0.65787333E+03</rscale>
<asrwt>0</asrwt>
<pdfrwt beam="1">  1        1 0.39705690E+00 0.65787333E+03</pdfrwt>
<pdfrwt beam="2">0</pdfrwt>
<totfact> 0.13768257E+00</totfact>
</mgrwt>
</event>
<event>
 6    1  0.4510314E-003  0.6438087E+03  0.7818608E-02  0.9818467E-01
          1   -1    0    0  502    0  0.00000000000E+00  0.00000000000E+00  0.10715416063E+03  0.10715416063E+03  0.00000000000E+00 0.  1.
         13   -1    0    0    0    0 -0.00000000000E+00 -0.00000000000E+00 -0.10000000000E+04  0.10000000000E+04  0.00000000000E+00 0.  1.
    9000005    2    1    2  501    0 -0.20536045214E-01 -0.21257458089E+00 -0.89637401515E+03  0.11036195271E+04  0.64380869829E+03 0.  0.
         13    1    3    3    0    0 -0.19036930891E+03  0.18431182070E+03 -0.13494193178E+03  0.29735609289E+03  0.00000000000E+00 0.  1.
          1    1    3    3  501    0  0.19034877287E+03 -0.18452439529E+03 -0.76143208337E+03  0.80626343423E+03  0.00000000000E+00 0.  1.
         21    1    1    2  502  501  0.20536045214E-01  0.21257458089E+00  0.35281757834E+01  0.35346335086E+01  0.00000000000E+00 0.  1.
<mgrwt>
<rscale>  1 0.64380873E+03</rscale>
<asrwt>0</asrwt>
<pdfrwt beam="1">  1        1 0.38965231E+00 0.64380873E+03</pdfrwt>
<pdfrwt beam="2">0</pdfrwt>
<totfact> 0.14890680E+00</totfact>
</mgrwt>
</event>
<event>
 6    1  0.4510314E-003  0.6552281E+03  0.7818608E-02  0.9797018E-01
          1   -1    0    0  502    0  0.00000000000E+00  0.00000000000E+00  0.10733095776E+03  0.10733095776E+03  0.00000000000E+00 0.  1.
         13   -1    0    0    0    0 -0.00000000000E+00 -0.00000000000E+00 -0.10000000000E+04  0.10000000000E+04  0.00000000000E+00 0.  1.
    9000005    2    1    2  501    0  0.92880986813E-06  0.69474033744E-05 -0.89266904499E+03  0.11073309502E+04  0.65522805913E+03 0.  0.
         13    1    3    3    0    0  0.32498905026E+03  0.30682530295E+02 -0.39938882403E+03  0.51582044669E+03  0.00000000000E+00 0.  1.
          3    1    3    3  501    0 -0.32498904933E+03 -0.30682523348E+02 -0.49328022095E+03  0.59151050355E+03  0.00000000000E+00 0.  1.
         21    1    1    2  502  501 -0.92880985764E-06 -0.69474033741E-05  0.27510748837E-05  0.75297751898E-05  0.00000000000E+00 0.  1.
<mgrwt>
<rscale>  1 0.65522806E+03</rscale>
<asrwt>0</asrwt>
<pdfrwt beam="1">  1        1 0.39029521E+00 0.65522806E+03</pdfrwt>
<pdfrwt beam="2">0</pdfrwt>
<totfact> 0.14761755E+00</totfact>
</mgrwt>
</event>
<event>
 6    1  0.4510314E-003  0.6551978E+03  0.7818608E-02  0.9797075E-01
          1   -1    0    0  502    0  0.00000000000E+00  0.00000000000E+00  0.10787886994E+03  0.10787886994E+03  0.00000000000E+00 0.  1.
         13   -1    0    0    0    0 -0.00000000000E+00 -0.00000000000E+00 -0.10000000000E+04  0.10000000000E+04  0.00000000000E+00 0.  1.
    9000005    2    1    2  501    0  0.39726400211E-01  0.32035201777E+00 -0.89262678277E+03  0.11072789631E+04  0.65519769881E+03 0.  0.
         13    1    3    3    0    0 -0.31221036411E+03 -0.78703708888E+02 -0.54782849682E+03  0.63544130113E+03  0.00000000000E+00 0.  1.
          1    1    3    3  501    0  0.31225009051E+03  0.79024060906E+02 -0.34479828595E+03  0.47183766194E+03  0.00000000000E+00 0.  1.
         21    1    1    2  502  501 -0.39726400211E-01 -0.32035201777E+00  0.50565270428E+00  0.59990687570E+00  0.00000000000E+00 0.  1.
<mgrwt>
<rscale>  1 0.65519778E+03</rscale>
<asrwt>0</asrwt>
<pdfrwt beam="1">  1        1 0.39228763E+00 0.65519778E+03</pdfrwt>
<pdfrwt beam="2">0</pdfrwt>
<totfact> 0.14464340E+00</totfact>
</mgrwt>
</event>
<event>
 6    1  0.4510314E-003  0.6527438E+03  0.7818608E-02  0.9801644E-01
          1   -1    0    0  502    0  0.00000000000E+00  0.00000000000E+00  0.10668823777E+03  0.10668823777E+03  0.00000000000E+00 0.  1.
         13   -1    0    0    0    0 -0.00000000000E+00 -0.00000000000E+00 -0.10000000000E+04  0.10000000000E+04  0.00000000000E+00 0.  1.
    9000005    2    1    2  501    0 -0.39928445913E+00 -0.73455964156E-01 -0.89315039039E+03  0.11062513571E+04  0.65274365595E+03 0.  0.
         13    1    3    3    0    0 -0.29583033464E+02  0.16575005247E+02 -0.99675670705E+03  0.99733335436E+03  0.00000000000E+00 0.  1.
          3    1    3    3  501    0  0.29183749005E+02 -0.16648461211E+02  0.10360631666E+03  0.10891800273E+03  0.00000000000E+00 0.  1.
         21    1    1    2  502  501  0.39928445913E+00  0.73455964156E-01 -0.16137184214E+00  0.43688068097E+00  0.00000000000E+00 0. -1.
<mgrwt>
<rscale>  1 0.65274378E+03</rscale>
<asrwt>0</asrwt>
<pdfrwt beam="1">  1        1 0.38795805E+00 0.65274378E+03</pdfrwt>
<pdfrwt beam="2">0</pdfrwt>
<totfact> 0.15125088E+00</totfact>
</mgrwt>
</event>
<event>
 6    1  0.4510314E-003  0.6470506E+03  0.7818608E-02  0.9812329E-01
          1   -1    0    0  502    0  0.00000000000E+00  0.00000000000E+00  0.10466867529E+03  0.10466867529E+03  0.00000000000E+00 0.  1.
         13   -1    0    0    0    0 -0.00000000000E+00 -0.00000000000E+00 -0.10000000000E+04  0.10000000000E+04  0.00000000000E+00 0.  1.
    9000005    2    1    2  501    0  0.13232246715E-04  0.67127679131E-05 -0.89533137031E+03  0.11046686273E+04  0.64705062674E+03 0.  0.
         13    1    3    3    0    0  0.11320924561E+03 -0.26381208155E+03 -0.19297547831E+03  0.34590848919E+03  0.00000000000E+00 0.  1.
          1    1    3    3  501    0 -0.11320923238E+03  0.26381208827E+03 -0.70235589200E+03  0.75876013815E+03  0.00000000000E+00 0.  1.
         21    1    1    2  502  501 -0.13232246712E-04 -0.67127678772E-05  0.45601840676E-04  0.47954994303E-04  0.00000000000E+00 0.  1.
<mgrwt>
<rscale>  1 0.64705063E+03</rscale>
<asrwt>0</asrwt>
<pdfrwt beam="1">  1        1 0.38061417E+00 0.64705063E+03</pdfrwt>
<pdfrwt beam="2">0</pdfrwt>
<totfact> 0.16316478E+00</totfact>
</mgrwt>
</event>
<event>
 6    1  0.4510314E-003  0.6534015E+03  0.7818608E-02  0.9800417E-01
          1   -1    0    0  502    0  0.00000000000E+00  0.00000000000E+00  0.10673365879E+03  0.10673365879E+03  0.00000000000E+00 0.  1.
         13   -1    0    0    0    0 -0.00000000000E+00 -0.00000000000E+00 -0.10000000000E+04  0.10000000000E+04  0.00000000000E+00 0.  1.
    9000005    2    1    2  501    0  0.41573682893E-04  0.18477579061E-04 -0.89326662696E+03  0.11067333694E+04  0.65340147245E+03 0.  0.
         13    1    3    3    0    0 -0.21793202846E+03 -0.24308350531E+03 -0.42593019553E+03  0.53665677211E+03  0.00000000000E+00 0.  1.
          1    1    3    3  501    0  0.21793207004E+03  0.24308352379E+03 -0.46733643143E+03  0.57007659733E+03  0.00000000000E+00 0.  1.
         21    1    1    2  502  501 -0.41573682900E-04 -0.18477579054E-04  0.28575002072E-03  0.28934903902E-03  0.00000000000E+00 0. -1.
<mgrwt>
<rscale>  1 0.65340147E+03</rscale>
<asrwt>0</asrwt>
<pdfrwt beam="1">  1        1 0.38812321E+00 0.65340147E+03</pdfrwt>
<pdfrwt beam="2">0</pdfrwt>
<totfact> 0.15097788E+00</totfact>
</mgrwt>
</event>
<event>
 6    1  0.4510314E-003  0.6253033E+03  0.7818608E-02  0.9854257E-01
          1   -1    0    0  502    0  0.00000000000E+00  0.00000000000E+00  0.99970469588E+02  0.99970469588E+02  0.00000000000E+00 0.  1.
         13   -1    0    0    0    0 -0.00000000000E+00 -0.00000000000E+00 -0.10000000000E+04  0.10000000000E+04  0.00000000000E+00 0.  1.
    9000005    2    1    2  501    0 -0.13643976085E+01  0.26481863716E+01 -0.90109833893E+03  0.10968055330E+04  0.62529615890E+03 0.  0.
         13    1    3    3    0    0  0.18383292269E+03  0.25029370944E+03 -0.52418153740E+03  0.60926822386E+03  0.00000000000E+00 0.  1.
          1    1    3    3  501    0 -0.18519732030E+03 -0.24764552307E+03 -0.37691680153E+03  0.48753730915E+03  0.00000000000E+00 0.  1.
         21    1    1    2  502  501  0.13643976085E+01 -0.26481863716E+01  0.10688085211E+01  0.31649365788E+01  0.00000000000E+00 0.  1.
<mgrwt>
<rscale>  1 0.62530326E+03</rscale>
<asrwt>0</asrwt>
<pdfrwt beam="1">  1        1 0.36352975E+00 0.62530326E+03</pdfrwt>
<pdfrwt beam="2">0</pdfrwt>
<totfact> 0.19473941E+00</totfact>
</mgrwt>
</event>
<event>
 6    1  0.4510314E-003  0.6592832E+03  0.7818608E-02  0.9789514E-01
          1   -1    0    0  502    0  0.00000000000E+00  0.00000000000E+00  0.10897318046E+03  0.10897318046E+03  0.00000000000E+00 0.  1.
         13   -1    0    0    0    0 -0.00000000000E+00 -0.00000000000E+00 -0.10000000000E+04  0.10000000000E+04  0.00000000000E+00 0.  1.
    9000005    2    1    2  501    0  0.23340339177E-01  0.58960511502E-02 -0.89133589007E+03  0.11086631738E+04  0.65928321945E+03 0.  0.
         13    1    3    3    0    0  0.17641649206E+03 -0.36941697583E+02  0.18463151125E+02  0.18118596977E+03  0.00000000000E+00 0.  1.
          3    1    3    3  501    0 -0.17639315172E+03  0.36947593634E+02 -0.90979904119E+03  0.92747720404E+03  0.00000000000E+00 0.  1.
         21    1    1    2  502  501 -0.23340339177E-01 -0.58960511502E-02  0.30907052756E+00  0.31000665454E+00  0.00000000000E+00 0.  1.
<mgrwt>
<rscale>  1 0.65928322E+03</rscale>
<asrwt>0</asrwt>
<pdfrwt beam="1">  1        1 0.39626695E+00 0.65928322E+03</pdfrwt>
<pdfrwt beam="2">0</pdfrwt>
<totfact> 0.13876513E+00</totfact>
</mgrwt>
</event>
<event>
 6    1  0.4510314E-003  0.6395476E+03  0.7818608E-02  0.9826592E-01
          1   -1    0    0  502    0  0.00000000000E+00  0.00000000000E+00  0.10248621590E+03  0.10248621590E+03  0.00000000000E+00 0.  1.
         13   -1    0    0    0    0 -0.00000000000E+00 -0.00000000000E+00 -0.10000000000E+04  0.10000000000E+04  0.00000000000E+00 0.  1.
    9000005    2    1    2  501    0 -0.65134578526E-01 -0.17109788055E-01 -0.89773927791E+03  0.11022508806E+04  0.63954764332E+03 0.  0.
         13    1    3    3    0    0  0.21482634816E+03  0.12152391293E+03 -0.98492582528E+02  0.26574275172E+03  0.00000000000E+00 0.  1.
          3    1    3    3  501    0 -0.21489148274E+03 -0.12154102272E+03 -0.79924669538E+03  0.83650812885E+03  0.00000000000E+00 0.  1.
         21    1    1    2  502  501  0.65134578526E-01  0.17109788055E-01  0.22549381326E+00  0.23533533094E+00  0.00000000000E+00 0.  1.
<mgrwt>
<rscale>  1 0.63954765E+03</rscale>
<asrwt>0</asrwt>
<pdfrwt beam="1">  1        1 0.37267793E+00 0.63954765E+03</pdfrwt>
<pdfrwt beam="2">0</pdfrwt>
<totfact> 0.17708602E+00</totfact>
</mgrwt>
</event>
