<event>
 6    1  0.2470755E-002  0.6479109E+03  0.7818608E-02  0.9810707E-01
          1   -1    0    0  502    0  0.00000000000E+00  0.00000000000E+00  0.10530670889E+03  0.10530670889E+03  0.00000000000E+00 0.  1.
         13   -1    0    0    0    0 -0.00000000000E+00 -0.00000000000E+00 -0.10000000000E+04  0.10000000000E+04  0.00000000000E+00 0.  1.
    9000005    2    1    2  501    0 -0.25807915398E+00 -0.33569777913E+00 -0.89490971513E+03  0.11048311700E+04  0.64791074751E+03 0.  0.
         13    1    3    3    0    0  0.30932664711E+03 -0.93497768573E+02 -0.48446860648E+03  0.58235267493E+03  0.00000000000E+00 0.  1.
          1    1    3    3  501    0 -0.30958472626E+03  0.93162070794E+02 -0.41044110865E+03  0.52247849510E+03  0.00000000000E+00 0.  1.
         21    1    1    2  502  501  0.25807915398E+00  0.33569777913E+00  0.21642401805E+00  0.47553885669E+00  0.00000000000E+00 0.  1.
<mgrwt>
<rscale>  1 0.64791089E+03</rscale>
<asrwt>0</asrwt>
<pdfrwt beam="1">  1        1 0.38293429E+00 0.64791089E+03</pdfrwt>
<pdfrwt beam="2">0</pdfrwt>
<totfact> 0.15933525E+00</totfact>
</mgrwt>
</event>
<event>
 6    1  0.2470755E-002  0.6507478E+03  0.7818608E-02  0.9805377E-01
          1   -1    0    0  502    0  0.00000000000E+00  0.00000000000E+00  0.11223628111E+03  0.11223628111E+03  0.00000000000E+00 0.  1.
         13   -1    0    0    0    0 -0.00000000000E+00 -0.00000000000E+00 -0.10000000000E+04  0.10000000000E+04  0.00000000000E+00 0.  1.
    9000005    2    1    2  501    0  0.13580233568E+02  0.26793475372E+01 -0.88435921190E+03  0.10979817269E+04  0.65060053441E+03 0.  0.
         13    1    3    3    0    0 -0.77985064004E+02 -0.24991769578E+03 -0.12041565082E+03  0.28816740592E+03  0.00000000000E+00 0.  1.
          1    1    3    3  501    0  0.91565297571E+02  0.25259704332E+03 -0.76394356108E+03  0.80981432102E+03  0.00000000000E+00 0.  1.
         21    1    1    2  502  501 -0.13580233568E+02 -0.26793475372E+01 -0.34045069862E+01  0.14254554177E+02  0.00000000000E+00 0. -1.
<mgrwt>
<rscale>  1 0.65074777E+03</rscale>
<asrwt>0</asrwt>
<pdfrwt beam="1">  1        1 0.40813279E+00 0.65074777E+03</pdfrwt>
<pdfrwt beam="2">0</pdfrwt>
<totfact> 0.12303256E+00</totfact>
</mgrwt>
</event>
<event>
 6    1  0.2470755E-002  0.6538531E+03  0.7818608E-02  0.9799576E-01
          1   -1    0    0  502    0  0.00000000000E+00  0.00000000000E+00  0.10688848677E+03  0.10688848677E+03  0.00000000000E+00 0.  1.
         13   -1    0    0    0    0 -0.00000000000E+00 -0.00000000000E+00 -0.10000000000E+04  0.10000000000E+04  0.00000000000E+00 0.  1.
    9000005    2    1    2  501    0  0.16621171779E-02 -0.22975219810E-01 -0.89307918838E+03  0.11068487939E+04  0.65385305339E+03 0.  0.
         13    1    3    3    0    0  0.31175283052E+03 -0.73633735014E+02 -0.33590890478E+03  0.46416219857E+03  0.00000000000E+00 0.  1.
          1    1    3    3  501    0 -0.31175116840E+03  0.73610759794E+02 -0.55717028359E+03  0.64268659538E+03  0.00000000000E+00 0.  1.
         21    1    1    2  502  501 -0.16621171779E-02  0.22975219810E-01 -0.32324858054E-01  0.39692818079E-01  0.00000000000E+00 0.  1.
<mgrwt>
<rscale>  1 0.65385305E+03</rscale>
<asrwt>0</asrwt>
<pdfrwt beam="1">  1        1 0.38868623E+00 0.65385305E+03</pdfrwt>
<pdfrwt beam="2">0</pdfrwt>
<totfact> 0.15010054E+00</totfact>
</mgrwt>
</event>
<event>
 6    1  0.2470755E-002  0.6453803E+03  0.7818608E-02  0.9815487E-01
          1   -1    0    0  502    0  0.00000000000E+00  0.00000000000E+00  0.10413616996E+03  0.10413616996E+03  0.00000000000E+00 0.  1.
         13   -1    0    0    0    0 -0.00000000000E+00 -0.00000000000E+00 -0.10000000000E+04  0.10000000000E+04  0.00000000000E+00 0.  1.
    9000005    2    1    2  501    0 -0.30375717063E-03  0.15824425802E-03 -0.89587105873E+03  0.11041289332E+04  0.64538031204E+03 0.  0.
         13    1    3    3    0    0  0.27991965886E+03 -0.15259637050E+03 -0.53327344414E+03  0.62130607106E+03  0.00000000000E+00 0.  1.
          3    1    3    3  501    0 -0.27991996262E+03  0.15259652875E+03 -0.36259761459E+03  0.48282286210E+03  0.00000000000E+00 0.  1.
         21    1    1    2  502  501  0.30375717064E-03 -0.15824425803E-03  0.72286917880E-02  0.72368014087E-02  0.00000000000E+00 0.  1.
<mgrwt>
<rscale>  1 0.64538031E+03</rscale>
<asrwt>0</asrwt>
<pdfrwt beam="1">  1        1 0.37867778E+00 0.64538031E+03</pdfrwt>
<pdfrwt beam="2">0</pdfrwt>
<totfact> 0.16645700E+00</totfact>
</mgrwt>
</event>
<event>
 6    1  0.2470755E-002  0.6498939E+03  0.7818608E-02  0.9806978E-01
          1   -1    0    0  502    0  0.00000000000E+00  0.00000000000E+00  0.10559104837E+03  0.10559104837E+03  0.00000000000E+00 0.  1.
         13   -1    0    0    0    0 -0.00000000000E+00 -0.00000000000E+00 -0.10000000000E+04  0.10000000000E+04  0.00000000000E+00 0.  1.
    9000005    2    1    2  501    0 -0.76830072697E-03 -0.14537449959E-02 -0.89440657540E+03  0.11055881587E+04  0.64989387946E+03 0.  0.
         13    1    3    3    0    0  0.31448349169E+03  0.70368440175E+02 -0.51813566863E+03  0.61017715052E+03  0.00000000000E+00 0.  1.
          1    1    3    3  501    0 -0.31448425999E+03 -0.70369893920E+02 -0.37627090677E+03  0.49541100819E+03  0.00000000000E+00 0.  1.
         21    1    1    2  502  501  0.76830072699E-03  0.14537449959E-02 -0.23762310347E-02  0.28896599195E-02  0.00000000000E+00 0.  1.
<mgrwt>
<rscale>  1 0.64989388E+03</rscale>
<asrwt>0</asrwt>
<pdfrwt beam="1">  1        1 0.38396826E+00 0.64989388E+03</pdfrwt>
<pdfrwt beam="2">0</pdfrwt>
<totfact> 0.15760979E+00</totfact>
</mgrwt>
</event>
<event>
 6    1  0.2470755E-002  0.6483479E+03  0.7818608E-02  0.9809884E-01
          1   -1    0    0  502    0  0.00000000000E+00  0.00000000000E+00  0.10508944943E+03  0.10508944943E+03  0.00000000000E+00 0.  1.
         13   -1    0    0    0    0 -0.00000000000E+00 -0.00000000000E+00 -0.10000000000E+04  0.10000000000E+04  0.00000000000E+00 0.  1.
    9000005    2    1    2  501    0  0.26890658432E-04  0.31863453103E-04 -0.89491124974E+03  0.11050887490E+04  0.64834789911E+03 0.  0.
         13    1    3    3    0    0 -0.29837384011E+03 -0.12444622091E+03 -0.40658646075E+03  0.51944813064E+03  0.00000000000E+00 0.  1.
          3    1    3    3  501    0  0.29837386700E+03  0.12444625277E+03 -0.48832478899E+03  0.58564061837E+03  0.00000000000E+00 0.  1.
         21    1    1    2  502  501 -0.26890658434E-04 -0.31863453097E-04  0.69917261433E-03  0.70041468559E-03  0.00000000000E+00 0. -1.
<mgrwt>
<rscale>  1 0.64834790E+03</rscale>
<asrwt>0</asrwt>
<pdfrwt beam="1">  1        1 0.38214426E+00 0.64834790E+03</pdfrwt>
<pdfrwt beam="2">0</pdfrwt>
<totfact> 0.16060795E+00</totfact>
</mgrwt>
</event>
<event>
 6    1  0.2470755E-002  0.6261626E+03  0.7818608E-02  0.9852566E-01
          1   -1    0    0  502    0  0.00000000000E+00  0.00000000000E+00  0.98050279223E+02  0.98050279223E+02  0.00000000000E+00 0.  1.
         13   -1    0    0    0    0 -0.00000000000E+00 -0.00000000000E+00 -0.10000000000E+04  0.10000000000E+04  0.00000000000E+00 0.  1.
    9000005    2    1    2  501    0 -0.65708280316E-02 -0.13317101634E-02 -0.90197970511E+03  0.10980195545E+04  0.62616256160E+03 0.  0.
         13    1    3    3    0    0 -0.20659947380E+03 -0.50353362005E+02 -0.85394229270E+03  0.88002059232E+03  0.00000000000E+00 0.  1.
          3    1    3    3  501    0  0.20659290297E+03  0.50352030294E+02 -0.48037412409E+02  0.21799896216E+03  0.00000000000E+00 0.  1.
         21    1    1    2  502  501  0.65708280316E-02  0.13317101634E-02  0.29984336835E-01  0.30724740656E-01  0.00000000000E+00 0.  1.
<mgrwt>
<rscale>  1 0.62616256E+03</rscale>
<asrwt>0</asrwt>
<pdfrwt beam="1">  1        1 0.35654722E+00 0.62616256E+03</pdfrwt>
<pdfrwt beam="2">0</pdfrwt>
<totfact> 0.20889138E+00</totfact>
</mgrwt>
</event>
<event>
 6    1  0.2470755E-002  0.6767842E+03  0.7818608E-02  0.9757779E-01
          1   -1    0    0  502    0  0.00000000000E+00  0.00000000000E+00  0.11492879218E+03  0.11492879218E+03  0.00000000000E+00 0.  1.
         13   -1    0    0    0    0 -0.00000000000E+00 -0.00000000000E+00 -0.10000000000E+04  0.10000000000E+04  0.00000000000E+00 0.  1.
    9000005    2    1    2  501    0  0.17678968500E+00  0.22244621624E+00 -0.88543643103E+03  0.11144660559E+04  0.67678418682E+03 0.  0.
         13    1    3    3    0    0 -0.32447379807E+03  0.90393236049E+02 -0.39011244077E+03  0.51540459758E+03  0.00000000000E+00 0.  1.
          3    1    3    3  501    0  0.32465058776E+03 -0.90170789833E+02 -0.49532399026E+03  0.59906145828E+03  0.00000000000E+00 0.  1.
         21    1    1    2  502  501 -0.17678968500E+00 -0.22244621624E+00  0.36522320937E+00  0.46273632287E+00  0.00000000000E+00 0. -1.
<mgrwt>
<rscale>  1 0.67678425E+03</rscale>
<asrwt>0</asrwt>
<pdfrwt beam="1">  1        1 0.41792376E+00 0.67678425E+03</pdfrwt>
<pdfrwt beam="2">0</pdfrwt>
<totfact> 0.11062763E+00</totfact>
</mgrwt>
</event>
<event>
 6    1  0.2470755E-002  0.6501807E+03  0.7818608E-02  0.9806440E-01
          1   -1    0    0  502    0  0.00000000000E+00  0.00000000000E+00  0.10570732694E+03  0.10570732694E+03  0.00000000000E+00 0.  1.
         13   -1    0    0    0    0 -0.00000000000E+00 -0.00000000000E+00 -0.10000000000E+04  0.10000000000E+04  0.00000000000E+00 0.  1.
    9000005    2    1    2  501    0  0.31874917167E-03 -0.37115295726E-03 -0.89431626540E+03  0.11056837295E+04  0.65018068812E+03 0.  0.
         13    1    3    3    0    0  0.18414790113E+03 -0.73758714880E+02 -0.91707912952E+01  0.19858222712E+03  0.00000000000E+00 0.  1.
          1    1    3    3  501    0 -0.18414758239E+03  0.73758343727E+02 -0.88514547410E+03  0.90710150242E+03  0.00000000000E+00 0.  1.
         21    1    1    2  502  501 -0.31874917167E-03  0.37115295726E-03  0.23592337110E-01  0.23597409304E-01  0.00000000000E+00 0. -1.
<mgrwt>
<rscale>  1 0.65018069E+03</rscale>
<asrwt>0</asrwt>
<pdfrwt beam="1">  1        1 0.38439109E+00 0.65018069E+03</pdfrwt>
<pdfrwt beam="2">0</pdfrwt>
<totfact> 0.15692447E+00</totfact>
</mgrwt>
</event>
<event>
 6    1  0.2470755E-002  0.6629704E+03  0.7818608E-02  0.9782741E-01
          1   -1    0    0  502    0  0.00000000000E+00  0.00000000000E+00  0.10992063665E+03  0.10992063665E+03  0.00000000000E+00 0.  1.
         13   -1    0    0    0    0 -0.00000000000E+00 -0.00000000000E+00 -0.10000000000E+04  0.10000000000E+04  0.00000000000E+00 0.  1.
    9000005    2    1    2  501    0  0.55117534053E-02  0.89456919721E-02 -0.89011677053E+03  0.11098817818E+04  0.66297036451E+03 0.  0.
         13    1    3    3    0    0 -0.11133834138E+02  0.53805739700E+02 -0.99232460479E+03  0.99384462627E+03  0.00000000000E+00 0.  1.
          3    1    3    3  501    0  0.11139345891E+02 -0.53796794008E+02  0.10220783426E+03  0.11603715550E+03  0.00000000000E+00 0.  1.
         21    1    1    2  502  501 -0.55117534053E-02 -0.89456919721E-02  0.37407174413E-01  0.38854877789E-01  0.00000000000E+00 0.  1.
<mgrwt>
<rscale>  1 0.66297036E+03</rscale>
<asrwt>0</asrwt>
<pdfrwt beam="1">  1        1 0.39971225E+00 0.66297036E+03</pdfrwt>
<pdfrwt beam="2">0</pdfrwt>
<totfact> 0.13385518E+00</totfact>
</mgrwt>
</event>
<event>
 6    1  0.2470755E-002  0.6861095E+03  0.7818608E-02  0.9741286E-01
          1   -1    0    0  502    0  0.00000000000E+00  0.00000000000E+00  0.11768656862E+03  0.11768656862E+03  0.00000000000E+00 0.  1.
         13   -1    0    0    0    0 -0.00000000000E+00 -0.00000000000E+00 -0.10000000000E+04  0.10000000000E+04  0.00000000000E+00 0.  1.
    9000005    2    1    2  501    0  0.40338935889E-05 -0.79583173829E-06 -0.88231343370E+03  0.11176865639E+04  0.68610951009E+03 0.  0.
         13    1    3    3    0    0 -0.15661799471E+03  0.29060436688E+03 -0.28915529717E+03  0.43885177474E+03  0.00000000000E+00 0.  1.
          3    1    3    3  501    0  0.15661799874E+03 -0.29060436767E+03 -0.59315813653E+03  0.67883478916E+03  0.00000000000E+00 0.  1.
         21    1    1    2  502  501 -0.40338935919E-05  0.79583171014E-06  0.23179757899E-05  0.47200272652E-05  0.00000000000E+00 0. -1.
<mgrwt>
<rscale>  1 0.68610951E+03</rscale>
<asrwt>0</asrwt>
<pdfrwt beam="1">  1        1 0.42795206E+00 0.68610951E+03</pdfrwt>
<pdfrwt beam="2">0</pdfrwt>
<totfact> 0.99478446E-01</totfact>
</mgrwt>
</event>
<event>
 6    1  0.2470755E-002  0.6534257E+03  0.7818608E-02  0.9800372E-01
          1   -1    0    0  502    0  0.00000000000E+00  0.00000000000E+00  0.10674166479E+03  0.10674166479E+03  0.00000000000E+00 0.  1.
         13   -1    0    0    0    0 -0.00000000000E+00 -0.00000000000E+00 -0.10000000000E+04  0.10000000000E+04  0.00000000000E+00 0.  1.
    9000005    2    1    2  501    0 -0.22597561150E-03  0.65084917029E-04 -0.89325868333E+03  0.11067412447E+04  0.65342567086E+03 0.  0.
         13    1    3    3    0    0  0.27609955540E+03  0.22661507493E+02 -0.15327880610E+03  0.31660527604E+03  0.00000000000E+00 0.  1.
          3    1    3    3  501    0 -0.27609978138E+03 -0.22661442408E+02 -0.73997987723E+03  0.79013596865E+03  0.00000000000E+00 0.  1.
         21    1    1    2  502  501  0.22597561151E-03 -0.65084917030E-04  0.34812299724E-03  0.42010789641E-03  0.00000000000E+00 0. -1.
<mgrwt>
<rscale>  1 0.65342567E+03</rscale>
<asrwt>0</asrwt>
<pdfrwt beam="1">  1        1 0.38815233E+00 0.65342567E+03</pdfrwt>
<pdfrwt beam="2">0</pdfrwt>
<totfact> 0.15093237E+00</totfact>
</mgrwt>
</event>
<event>
 6    1  0.2470755E-002  0.6592516E+03  0.7818608E-02  0.9789572E-01
          1   -1    0    0  502    0  0.00000000000E+00  0.00000000000E+00  0.10962678577E+03  0.10962678577E+03  0.00000000000E+00 0.  1.
         13   -1    0    0    0    0 -0.00000000000E+00 -0.00000000000E+00 -0.10000000000E+04  0.10000000000E+04  0.00000000000E+00 0.  1.
    9000005    2    1    2  501    0  0.16286594205E+01 -0.11185595108E+01 -0.89007151766E+03  0.11076281043E+04  0.65924866867E+03 0.  0.
         13    1    3    3    0    0 -0.30983015675E+03 -0.44534654093E+02 -0.27425887004E+03  0.41616822229E+03  0.00000000000E+00 0.  1.
          3    1    3    3  501    0  0.31145881617E+03  0.43416094582E+02 -0.61581264762E+03  0.69145988199E+03  0.00000000000E+00 0.  1.
         21    1    1    2  502  501 -0.16286594205E+01  0.11185595108E+01 -0.30169656318E+00  0.19986814912E+01  0.00000000000E+00 0.  1.
<mgrwt>
<rscale>  1 0.65925163E+03</rscale>
<asrwt>0</asrwt>
<pdfrwt beam="1">  1        1 0.39864370E+00 0.65925163E+03</pdfrwt>
<pdfrwt beam="2">0</pdfrwt>
<totfact> 0.13542539E+00</totfact>
</mgrwt>
</event>
<event>
 6    1  0.2470755E-002  0.6421305E+03  0.7818608E-02  0.9821659E-01
          1   -1    0    0  502    0  0.00000000000E+00  0.00000000000E+00  0.10311817212E+03  0.10311817212E+03  0.00000000000E+00 0.  1.
         13   -1    0    0    0    0 -0.00000000000E+00 -0.00000000000E+00 -0.10000000000E+04  0.10000000000E+04  0.00000000000E+00 0.  1.
    9000005    2    1    2  501    0 -0.62930373429E-02  0.34812336632E-02 -0.89691669623E+03  0.11030825698E+04  0.64213051309E+03 0.  0.
         13    1    3    3    0    0  0.19906205276E+03  0.24850862587E+03 -0.37762312575E+03  0.49394479760E+03  0.00000000000E+00 0.  1.
          3    1    3    3  501    0 -0.19906834580E+03 -0.24850514464E+03 -0.51929357048E+03  0.60913777223E+03  0.00000000000E+00 0.  1.
         21    1    1    2  502  501  0.62930373429E-02 -0.34812336632E-02  0.34868346023E-01  0.35602287303E-01  0.00000000000E+00 0. -1.
<mgrwt>
<rscale>  1 0.64213051E+03</rscale>
<asrwt>0</asrwt>
<pdfrwt beam="1">  1        1 0.37497596E+00 0.64213051E+03</pdfrwt>
<pdfrwt beam="2">0</pdfrwt>
<totfact> 0.17292956E+00</totfact>
</mgrwt>
</event>
<event>
 6    1  0.2470755E-002  0.6593131E+03  0.7818608E-02  0.9789459E-01
          1   -1    0    0  502    0  0.00000000000E+00  0.00000000000E+00  0.10867474261E+03  0.10867474261E+03  0.00000000000E+00 0.  1.
         13   -1    0    0    0    0 -0.00000000000E+00 -0.00000000000E+00 -0.10000000000E+04  0.10000000000E+04  0.00000000000E+00 0.  1.
    9000005    2    1    2  501    0  0.23093317424E-04 -0.27469725467E-04 -0.89132655212E+03  0.11086734474E+04  0.65931312017E+03 0.  0.
         13    1    3    3    0    0  0.16581527450E+03 -0.27152098937E+03 -0.59085401245E+03  0.67106394401E+03  0.00000000000E+00 0.  1.
          3    1    3    3  501    0 -0.16581525141E+03  0.27152096190E+03 -0.30047253967E+03  0.43760950338E+03  0.00000000000E+00 0.  1.
         21    1    1    2  502  501 -0.23093317398E-04  0.27469725448E-04  0.12947318569E-02  0.12952291181E-02  0.00000000000E+00 0.  1.
<mgrwt>
<rscale>  1 0.65931312E+03</rscale>
<asrwt>0</asrwt>
<pdfrwt beam="1">  1        1 0.39518172E+00 0.65931312E+03</pdfrwt>
<pdfrwt beam="2">0</pdfrwt>
<totfact> 0.14031549E+00</totfact>
</mgrwt>
</event>
<event>
 6    1  0.2470755E-002  0.6509588E+03  0.7818608E-02  0.9804982E-01
          1   -1    0    0  502    0  0.00000000000E+00  0.00000000000E+00  0.10595716440E+03  0.10595716440E+03  0.00000000000E+00 0.  1.
         13   -1    0    0    0    0 -0.00000000000E+00 -0.00000000000E+00 -0.10000000000E+04  0.10000000000E+04  0.00000000000E+00 0.  1.
    9000005    2    1    2  501    0 -0.25172974414E-02 -0.31542593499E-02 -0.89406292935E+03  0.11059366694E+04  0.65095882749E+03 0.  0.
         13    1    3    3    0    0  0.65308075234E+02  0.25333188062E+03 -0.77599911829E+03  0.81891197208E+03  0.00000000000E+00 0.  1.
          3    1    3    3  501    0 -0.65310592532E+02 -0.25333503488E+03 -0.11806381106E+03  0.28702469733E+03  0.00000000000E+00 0.  1.
         21    1    1    2  502  501  0.25172974414E-02  0.31542593499E-02  0.20093747838E-01  0.20494995502E-01  0.00000000000E+00 0.  1.
<mgrwt>
<rscale>  1 0.65095883E+03</rscale>
<asrwt>0</asrwt>
<pdfrwt beam="1">  1        1 0.38529959E+00 0.65095883E+03</pdfrwt>
<pdfrwt beam="2">0</pdfrwt>
<totfact> 0.15545693E+00</totfact>
</mgrwt>
</event>
<event>
 6    1  0.2470755E-002  0.6462050E+03  0.7818608E-02  0.9813926E-01
          1   -1    0    0  502    0  0.00000000000E+00  0.00000000000E+00  0.10439523706E+03  0.10439523706E+03  0.00000000000E+00 0.  1.
         13   -1    0    0    0    0 -0.00000000000E+00 -0.00000000000E+00 -0.10000000000E+04  0.10000000000E+04  0.00000000000E+00 0.  1.
    9000005    2    1    2  501    0  0.20562118763E-05 -0.12493389434E-05 -0.89560478003E+03  0.11043952198E+04  0.64620498257E+03 0.  0.
         13    1    3    3    0    0  0.49135060032E+02  0.38628977326E+02 -0.98956992495E+03  0.99154177339E+03  0.00000000000E+00 0.  1.
          3    1    3    3  501    0 -0.49135057976E+02 -0.38628978576E+02  0.93965144915E+02  0.11285344641E+03  0.00000000000E+00 0.  1.
         21    1    1    2  502  501 -0.20562118777E-05  0.12493389434E-05  0.17089631033E-04  0.17258167456E-04  0.00000000000E+00 0.  1.
<mgrwt>
<rscale>  1 0.64620498E+03</rscale>
<asrwt>0</asrwt>
<pdfrwt beam="1">  1        1 0.37961984E+00 0.64620498E+03</pdfrwt>
<pdfrwt beam="2">0</pdfrwt>
<totfact> 0.16484713E+00</totfact>
</mgrwt>
</event>
<event>
 6    1  0.2470755E-002  0.6590106E+03  0.7818608E-02  0.9790017E-01
          1   -1    0    0  502    0  0.00000000000E+00  0.00000000000E+00  0.10860162735E+03  0.10860162735E+03  0.00000000000E+00 0.  1.
         13   -1    0    0    0    0 -0.00000000000E+00 -0.00000000000E+00 -0.10000000000E+04  0.10000000000E+04  0.00000000000E+00 0.  1.
    9000005    2    1    2  501    0  0.10492837789E-02 -0.33686594691E-03 -0.89142623418E+03  0.11085737440E+04  0.65901063343E+03 0.  0.
         13    1    3    3    0    0 -0.75704525913E+01  0.23837339932E+03 -0.63245701185E+02  0.24673712322E+03  0.00000000000E+00 0.  1.
          3    1    3    3  501    0  0.75715018751E+01 -0.23837373619E+03 -0.82818053300E+03  0.86183662081E+03  0.00000000000E+00 0.  1.
         21    1    1    2  502  501 -0.10492837789E-02  0.33686594690E-03  0.27861531954E-01  0.27883318274E-01  0.00000000000E+00 0. -1.
<mgrwt>
<rscale>  1 0.65901063E+03</rscale>
<asrwt>0</asrwt>
<pdfrwt beam="1">  1        1 0.39491584E+00 0.65901063E+03</pdfrwt>
<pdfrwt beam="2">0</pdfrwt>
<totfact> 0.14070594E+00</totfact>
</mgrwt>
</event>
<event>
 6    1  0.2470755E-002  0.6302944E+03  0.7818608E-02  0.9844474E-01
          1   -1    0    0  502    0  0.00000000000E+00  0.00000000000E+00  0.99318116764E+02  0.99318116764E+02  0.00000000000E+00 0.  1.
         13   -1    0    0    0    0 -0.00000000000E+00 -0.00000000000E+00 -0.10000000000E+04  0.10000000000E+04  0.00000000000E+00 0.  1.
    9000005    2    1    2  501    0  0.39530872115E-04  0.17039773923E-04 -0.90068223658E+03  0.10993177608E+04  0.63029441368E+03 0.  0.
         13    1    3    3    0    0 -0.86827136785E+02 -0.12508057775E+03  0.30905991669E+02  0.15536821726E+03  0.00000000000E+00 0.  1.
          3    1    3    3  501    0  0.86827176315E+02  0.12508059479E+03 -0.93158822825E+03  0.94394954355E+03  0.00000000000E+00 0.  1.
         21    1    1    2  502  501 -0.39530872115E-04 -0.17039773930E-04  0.35334818772E-03  0.35596065163E-03  0.00000000000E+00 0. -1.
<mgrwt>
<rscale>  1 0.63029441E+03</rscale>
<asrwt>0</asrwt>
<pdfrwt beam="1">  1        1 0.36115755E+00 0.63029441E+03</pdfrwt>
<pdfrwt beam="2">0</pdfrwt>
<totfact> 0.19927047E+00</totfact>
</mgrwt>
</event>
<event>
 6    1  0.2470755E-002  0.6391494E+03  0.7818608E-02  0.9827355E-01
          1   -1    0    0  502    0  0.00000000000E+00  0.00000000000E+00  0.10213126804E+03  0.10213126804E+03  0.00000000000E+00 0.  1.
         13   -1    0    0    0    0 -0.00000000000E+00 -0.00000000000E+00 -0.10000000000E+04  0.10000000000E+04  0.00000000000E+00 0.  1.
    9000005    2    1    2  501    0  0.53068742062E-04 -0.11296761755E-04 -0.89787201497E+03  0.11021279846E+04  0.63914938718E+03 0.  0.
         13    1    3    3    0    0 -0.18498078128E+03 -0.25407878382E+03 -0.34907058738E+03  0.46970649645E+03  0.00000000000E+00 0.  1.
          1    1    3    3  501    0  0.18498083435E+03  0.25407877253E+03 -0.54880142759E+03  0.63242148813E+03  0.00000000000E+00 0.  1.
         21    1    1    2  502  501 -0.53068742081E-04  0.11296761756E-04  0.32830133352E-02  0.32834616592E-02  0.00000000000E+00 0. -1.
<mgrwt>
<rscale>  1 0.63914939E+03</rscale>
<asrwt>0</asrwt>
<pdfrwt beam="1">  1        1 0.37138721E+00 0.63914939E+03</pdfrwt>
<pdfrwt beam="2">0</pdfrwt>
<totfact> 0.17942774E+00</totfact>
</mgrwt>
</event>
<event>
 6    1  0.2470755E-002  0.6483449E+03  0.7818608E-02  0.9809890E-01
          1   -1    0    0  502    0  0.00000000000E+00  0.00000000000E+00  0.10559596845E+03  0.10559596845E+03  0.00000000000E+00 0.  1.
         13   -1    0    0    0    0 -0.00000000000E+00 -0.00000000000E+00 -0.10000000000E+04  0.10000000000E+04  0.00000000000E+00 0.  1.
    9000005    2    1    2  501    0 -0.91755780016E-01  0.79394662054E-01 -0.89490420052E+03  0.11050812922E+04  0.64834490786E+03 0.  0.
         13    1    3    3    0    0  0.51083589049E+02  0.12168305574E+03 -0.95215836327E+03  0.96126055150E+03  0.00000000000E+00 0.  1.
          1    1    3    3  501    0 -0.51175344829E+02 -0.12160366108E+03  0.57254162748E+02  0.14382074071E+03  0.00000000000E+00 0.  1.
         21    1    1    2  502  501  0.91755780016E-01 -0.79394662054E-01  0.50016897630E+00  0.51467624812E+00  0.00000000000E+00 0. -1.
<mgrwt>
<rscale>  1 0.64834492E+03</rscale>
<asrwt>0</asrwt>
<pdfrwt beam="1">  1        1 0.38398615E+00 0.64834492E+03</pdfrwt>
<pdfrwt beam="2">0</pdfrwt>
<totfact> 0.15762615E+00</totfact>
</mgrwt>
</event>
<event>
 6    1  0.2470755E-002  0.6478804E+03  0.7818608E-02  0.9810765E-01
          1   -1    0    0  502    0  0.00000000000E+00  0.00000000000E+00  0.11222739145E+03  0.11222739145E+03  0.00000000000E+00 0.  1.
         13   -1    0    0    0    0 -0.00000000000E+00 -0.00000000000E+00 -0.10000000000E+04  0.10000000000E+04  0.00000000000E+00 0.  1.
    9000005    2    1    2  501    0  0.22620181694E+00 -0.31925136289E+01 -0.89467263182E+03  0.11046212340E+04  0.64787244816E+03 0.  0.
         13    1    3    3    0    0  0.19160517756E+03 -0.21738491574E+03 -0.19772664878E+03  0.35080560614E+03  0.00000000000E+00 0.  1.
          1    1    3    3  501    0 -0.19137897574E+03  0.21419240212E+03 -0.69694598304E+03  0.75381562783E+03  0.00000000000E+00 0.  1.
         21    1    1    2  502  501 -0.22620181694E+00  0.31925136289E+01  0.69000232741E+01  0.76061574869E+01  0.00000000000E+00 0. -1.
<mgrwt>
<rscale>  1 0.64788035E+03</rscale>
<asrwt>0</asrwt>
<pdfrwt beam="1">  1        1 0.40810047E+00 0.64788035E+03</pdfrwt>
<pdfrwt beam="2">0</pdfrwt>
<totfact> 0.12314188E+00</totfact>
</mgrwt>
</event>
<event>
 6    1  0.2470755E-002  0.6525797E+03  0.7818608E-02  0.9801951E-01
          1   -1    0    0  502    0  0.00000000000E+00  0.00000000000E+00  0.10646643971E+03  0.10646643971E+03  0.00000000000E+00 0.  1.
         13   -1    0    0    0    0 -0.00000000000E+00 -0.00000000000E+00 -0.10000000000E+04  0.10000000000E+04  0.00000000000E+00 0.  1.
    9000005    2    1    2  501    0  0.45086506708E-03 -0.33231089844E-03 -0.89353486948E+03  0.11064650157E+04  0.65257970249E+03 0.  0.
         13    1    3    3    0    0  0.13153854253E+03  0.27303752171E+03 -0.65173070555E+03  0.71875224451E+03  0.00000000000E+00 0.  1.
          3    1    3    3  501    0 -0.13153809167E+03 -0.27303785402E+03 -0.24180416393E+03  0.38771277124E+03  0.00000000000E+00 0.  1.
         21    1    1    2  502  501 -0.45086506706E-03  0.33231089845E-03  0.13091899303E-02  0.14239691414E-02  0.00000000000E+00 0. -1.
<mgrwt>
<rscale>  1 0.65257970E+03</rscale>
<asrwt>0</asrwt>
<pdfrwt beam="1">  1        1 0.38715151E+00 0.65257970E+03</pdfrwt>
<pdfrwt beam="2">0</pdfrwt>
<totfact> 0.15250474E+00</totfact>
</mgrwt>
</event>
