<event>
 6    1  0.2104555E-002  0.6502874E+03  0.7818608E-02  0.9806240E-01
          1   -1    0    0  502    0  0.00000000000E+00  0.00000000000E+00  0.10572050296E+03  0.10572050296E+03  0.00000000000E+00 0.  1.
         13   -1    0    0    0    0 -0.00000000000E+00 -0.00000000000E+00 -0.10000000000E+04  0.10000000000E+04  0.00000000000E+00 0.  1.
    9000005    2    1    2  501    0 -0.18598408701E-04 -0.63035487216E-04 -0.89428157204E+03  0.11057184269E+04  0.65028740532E+03 0.  0.
         13    1    3    3    0    0  0.31927008297E+03 -0.39570715606E+02 -0.52724162162E+03  0.61764306439E+03  0.00000000000E+00 0.  1.
          1    1    3    3  501    0 -0.31927010157E+03  0.39570652571E+02 -0.36703995042E+03  0.48807536253E+03  0.00000000000E+00 0.  1.
         21    1    1    2  502  501  0.18598408688E-04  0.63035487213E-04  0.20750003893E-02  0.20760409411E-02  0.00000000000E+00 0.  1.
<mgrwt>
<rscale>  1 0.65028741E+03</rscale>
<asrwt>0</asrwt>
<pdfrwt beam="1">  1        1 0.38443900E+00 0.65028741E+03</pdfrwt>
<pdfrwt beam="2">0</pdfrwt>
<totfact> 0.15684485E+00</totfact>
</mgrwt>
</event>
<event>
 6    1  0.2104555E-002  0.6419815E+03  0.7818608E-02  0.9821943E-01
          1   -1    0    0  502    0  0.00000000000E+00  0.00000000000E+00  0.10991491838E+03  0.10991491838E+03  0.00000000000E+00 0.  1.
         13   -1    0    0    0    0 -0.00000000000E+00 -0.00000000000E+00 -0.10000000000E+04  0.10000000000E+04  0.00000000000E+00 0.  1.
    9000005    2    1    2  501    0 -0.12552364992E+02 -0.15317919330E+02 -0.87376125318E+03  0.10842503924E+04  0.64167591922E+03 0.  0.
         13    1    3    3    0    0 -0.23299072257E+03  0.17185190011E+03 -0.67179686272E+03  0.73152496686E+03  0.00000000000E+00 0.  1.
          1    1    3    3  501    0  0.22043835757E+03 -0.18716981944E+03 -0.20196439046E+03  0.35272542553E+03  0.00000000000E+00 0.  1.
         21    1    1    2  502  501  0.12552364992E+02  0.15317919330E+02 -0.16323828444E+02  0.25664525995E+02  0.00000000000E+00 0. -1.
<mgrwt>
<rscale>  1 0.64198145E+03</rscale>
<asrwt>0</asrwt>
<pdfrwt beam="1">  1        1 0.39969146E+00 0.64198145E+03</pdfrwt>
<pdfrwt beam="2">0</pdfrwt>
<totfact> 0.13441755E+00</totfact>
</mgrwt>
</event>
<event>
 6    1  0.2104555E-002  0.6013297E+03  0.7818608E-02  0.9902651E-01
          1   -1    0    0  502    0  0.00000000000E+00  0.00000000000E+00  0.90399986776E+02  0.90399986776E+02  0.00000000000E+00 0.  1.
         13   -1    0    0    0    0 -0.00000000000E+00 -0.00000000000E+00 -0.10000000000E+04  0.10000000000E+04  0.00000000000E+00 0.  1.
    9000005    2    1    2  501    0 -0.59322692914E-03  0.16238219388E-04 -0.90960049768E+03  0.10903992207E+04  0.60132968919E+03 0.  0.
         13    1    3    3    0    0  0.10826603816E+03 -0.10436522518E+03 -0.92690851880E+03  0.93902770857E+03  0.00000000000E+00 0.  1.
          3    1    3    3  501    0 -0.10826663139E+03  0.10436524142E+03  0.17308021113E+02  0.15137151212E+03  0.00000000000E+00 0.  1.
         21    1    1    2  502  501  0.59322692913E-03 -0.16238219378E-04  0.48445888384E-03  0.76608242334E-03  0.00000000000E+00 0. -1.
<mgrwt>
<rscale>  1 0.60132969E+03</rscale>
<asrwt>0</asrwt>
<pdfrwt beam="1">  1        1 0.32872792E+00 0.60132969E+03</pdfrwt>
<pdfrwt beam="2">0</pdfrwt>
<totfact> 0.27719443E+00</totfact>
</mgrwt>
</event>
<event>
 6    1  0.2104555E-002  0.6462564E+03  0.7818608E-02  0.9813829E-01
          1   -1    0    0  502    0  0.00000000000E+00  0.00000000000E+00  0.10441183532E+03  0.10441183532E+03  0.00000000000E+00 0.  1.
         13   -1    0    0    0    0 -0.00000000000E+00 -0.00000000000E+00 -0.10000000000E+04  0.10000000000E+04  0.00000000000E+00 0.  1.
    9000005    2    1    2  501    0 -0.31907547182E-06 -0.92820641839E-07 -0.89558816560E+03  0.11044118343E+04  0.64625640226E+03 0.  0.
         13    1    3    3    0    0  0.13443372267E+02 -0.20632172434E+03 -0.87215619572E+03  0.89632907346E+03  0.00000000000E+00 0.  1.
          1    1    3    3  501    0 -0.13443372586E+02  0.20632172425E+03 -0.23431969879E+02  0.20808276088E+03  0.00000000000E+00 0.  1.
         21    1    1    2  502  501  0.31907547223E-06  0.92820629741E-07  0.92065125777E-06  0.97878678205E-06  0.00000000000E+00 0.  1.
<mgrwt>
<rscale>  1 0.64625640E+03</rscale>
<asrwt>0</asrwt>
<pdfrwt beam="1">  1        1 0.37968020E+00 0.64625640E+03</pdfrwt>
<pdfrwt beam="2">0</pdfrwt>
<totfact> 0.16474453E+00</totfact>
</mgrwt>
</event>
<event>
 6    1  0.2104555E-002  0.6095254E+03  0.7818608E-02  0.9885839E-01
          1   -1    0    0  502    0  0.00000000000E+00  0.00000000000E+00  0.95351109318E+02  0.95351109318E+02  0.00000000000E+00 0.  1.
         13   -1    0    0    0    0 -0.00000000000E+00 -0.00000000000E+00 -0.10000000000E+04  0.10000000000E+04  0.00000000000E+00 0.  1.
    9000005    2    1    2  501    0  0.23259272726E+01  0.26069265757E+01 -0.90570045903E+03  0.10917025754E+04  0.60951536947E+03 0.  0.
         13    1    3    3    0    0  0.15488643555E+03  0.26145040773E+03 -0.52640627486E+03  0.60782373253E+03  0.00000000000E+00 0.  1.
          3    1    3    3  501    0 -0.15256050828E+03 -0.25884348115E+03 -0.37929418417E+03  0.48387884286E+03  0.00000000000E+00 0.  1.
         21    1    1    2  502  501 -0.23259272726E+01 -0.26069265757E+01  0.10515683480E+01  0.36485339301E+01  0.00000000000E+00 0. -1.
<mgrwt>
<rscale>  1 0.60952538E+03</rscale>
<asrwt>0</asrwt>
<pdfrwt beam="1">  1        1 0.34673204E+00 0.60952538E+03</pdfrwt>
<pdfrwt beam="2">0</pdfrwt>
<totfact> 0.23121116E+00</totfact>
</mgrwt>
</event>
<event>
 6    1  0.2104555E-002  0.6579888E+03  0.7818608E-02  0.9791903E-01
          1   -1    0    0  502    0  0.00000000000E+00  0.00000000000E+00  0.10825026377E+03  0.10825026377E+03  0.00000000000E+00 0.  1.
         13   -1    0    0    0    0 -0.00000000000E+00 -0.00000000000E+00 -0.10000000000E+04  0.10000000000E+04  0.00000000000E+00 0.  1.
    9000005    2    1    2  501    0  0.15672322019E-03  0.33945533253E-03 -0.89176268955E+03  0.11082373051E+04  0.65798877637E+03 0.  0.
         13    1    3    3    0    0  0.29651394501E+03 -0.30216603818E+02 -0.68049733006E+03  0.74290657485E+03  0.00000000000E+00 0.  1.
          3    1    3    3  501    0 -0.29651378829E+03  0.30216943273E+02 -0.21126535949E+03  0.36533073020E+03  0.00000000000E+00 0.  1.
         21    1    1    2  502  501 -0.15672322020E-03 -0.33945533253E-03  0.12953327659E-01  0.12958722527E-01  0.00000000000E+00 0.  1.
<mgrwt>
<rscale>  1 0.65798878E+03</rscale>
<asrwt>0</asrwt>
<pdfrwt beam="1">  1        1 0.39363815E+00 0.65798878E+03</pdfrwt>
<pdfrwt beam="2">0</pdfrwt>
<totfact> 0.14258519E+00</totfact>
</mgrwt>
</event>
<event>
 6    1  0.2104555E-002  0.6647353E+03  0.7818608E-02  0.9779516E-01
          1   -1    0    0  502    0  0.00000000000E+00  0.00000000000E+00  0.11046826239E+03  0.11046826239E+03  0.00000000000E+00 0.  1.
         13   -1    0    0    0    0 -0.00000000000E+00 -0.00000000000E+00 -0.10000000000E+04  0.10000000000E+04  0.00000000000E+00 0.  1.
    9000005    2    1    2  501    0  0.67632145431E-05 -0.10068387155E-05 -0.88953174116E+03  0.11104682547E+04  0.66473530532E+03 0.  0.
         13    1    3    3    0    0  0.20908503471E+03  0.25835631494E+03 -0.44154364247E+03  0.55265298824E+03  0.00000000000E+00 0.  1.
          3    1    3    3  501    0 -0.20908502795E+03 -0.25835631595E+03 -0.44798809869E+03  0.55781526644E+03  0.00000000000E+00 0.  1.
         21    1    1    2  502  501 -0.67632145379E-05  0.10068387144E-05  0.35484991229E-05  0.77036771160E-05  0.00000000000E+00 0. -1.
<mgrwt>
<rscale>  1 0.66473531E+03</rscale>
<asrwt>0</asrwt>
<pdfrwt beam="1">  1        1 0.40170362E+00 0.66473531E+03</pdfrwt>
<pdfrwt beam="2">0</pdfrwt>
<totfact> 0.13110157E+00</totfact>
</mgrwt>
</event>
<event>
 6    1  0.2104555E-002  0.6849635E+03  0.7818608E-02  0.9743298E-01
          1   -1    0    0  502    0  0.00000000000E+00  0.00000000000E+00  0.11729374221E+03  0.11729374221E+03  0.00000000000E+00 0.  1.
         13   -1    0    0    0    0 -0.00000000000E+00 -0.00000000000E+00 -0.10000000000E+04  0.10000000000E+04  0.00000000000E+00 0.  1.
    9000005    2    1    2  501    0 -0.52069711387E-06  0.12439822683E-05 -0.88270626035E+03  0.11172937393E+04  0.68496347191E+03 0.  0.
         13    1    3    3    0    0 -0.72550290657E+02  0.25318620386E+03 -0.79845309785E+03  0.84076997327E+03  0.00000000000E+00 0.  1.
          1    1    3    3  501    0  0.72550290136E+02 -0.25318620261E+03 -0.84253162507E+02  0.27652376604E+03  0.00000000000E+00 0.  1.
         21    1    1    2  502  501  0.52069711548E-06 -0.12439822643E-05  0.25638709673E-05  0.28969038122E-05  0.00000000000E+00 0.  1.
<mgrwt>
<rscale>  1 0.68496347E+03</rscale>
<asrwt>0</asrwt>
<pdfrwt beam="1">  1        1 0.42652360E+00 0.68496347E+03</pdfrwt>
<pdfrwt beam="2">0</pdfrwt>
<totfact> 0.10099609E+00</totfact>
</mgrwt>
</event>
<event>
 6    1  0.2104555E-002  0.6448108E+03  0.7818608E-02  0.9816565E-01
          1   -1    0    0  502    0  0.00000000000E+00  0.00000000000E+00  0.10394524334E+03  0.10394524334E+03  0.00000000000E+00 0.  1.
         13   -1    0    0    0    0 -0.00000000000E+00 -0.00000000000E+00 -0.10000000000E+04  0.10000000000E+04  0.00000000000E+00 0.  1.
    9000005    2    1    2  501    0 -0.12834289009E-05 -0.31577519053E-05 -0.89605475891E+03  0.11039452393E+04  0.64481079418E+03 0.  0.
         13    1    3    3    0    0 -0.25220919111E+03  0.16007766150E+03 -0.65567881739E+03  0.72051998263E+03  0.00000000000E+00 0.  1.
          3    1    3    3  501    0  0.25220918982E+03 -0.16007766466E+03 -0.24037594152E+03  0.38342525662E+03  0.00000000000E+00 0.  1.
         21    1    1    2  502  501  0.12834289017E-05  0.31577518998E-05  0.22499823564E-05  0.40842389022E-05  0.00000000000E+00 0. -1.
<mgrwt>
<rscale>  1 0.64481079E+03</rscale>
<asrwt>0</asrwt>
<pdfrwt beam="1">  1        1 0.37798350E+00 0.64481079E+03</pdfrwt>
<pdfrwt beam="2">0</pdfrwt>
<totfact> 0.16765184E+00</totfact>
</mgrwt>
</event>
<event>
 6    1  0.2419239E-002  0.5863950E+03  0.7818608E-02  0.9934041E-01
          3   -1    0    0  502    0  0.00000000000E+00  0.00000000000E+00  0.85964789513E+02  0.85964789513E+02  0.00000000000E+00 0.  1.
         13   -1    0    0    0    0 -0.00000000000E+00 -0.00000000000E+00 -0.10000000000E+04  0.10000000000E+04  0.00000000000E+00 0.  1.
    9000005    2    1    2  501    0  0.14224400533E-05  0.16607002351E-05 -0.91403521171E+03  0.10859647870E+04  0.58639504634E+03 0.  0.
         13    1    3    3    0    0  0.24640700148E+01  0.24763742478E+03 -0.74768521764E+03  0.78763160835E+03  0.00000000000E+00 0.  1.
          3    1    3    3  501    0 -0.24640685924E+01 -0.24763742312E+03 -0.16634999407E+03  0.29833317866E+03  0.00000000000E+00 0.  1.
         21    1    1    2  502  501 -0.14224400533E-05 -0.16607002547E-05  0.12244024358E-05  0.25060770870E-05  0.00000000000E+00 0. -1.
<mgrwt>
<rscale>  1 0.58639505E+03</rscale>
<asrwt>0</asrwt>
<pdfrwt beam="1">  1        3 0.31259989E+00 0.58639505E+03</pdfrwt>
<pdfrwt beam="2">0</pdfrwt>
<totfact> 0.17437707E-01</totfact>
</mgrwt>
</event>
<event>
 6    1  0.2104555E-002  0.6589736E+03  0.7818608E-02  0.9790085E-01
          1   -1    0    0  502    0  0.00000000000E+00  0.00000000000E+00  0.10879822480E+03  0.10879822480E+03  0.00000000000E+00 0.  1.
         13   -1    0    0    0    0 -0.00000000000E+00 -0.00000000000E+00 -0.10000000000E+04  0.10000000000E+04  0.00000000000E+00 0.  1.
    9000005    2    1    2  501    0  0.12937543294E-01 -0.92815669311E-01 -0.89142810776E+03  0.11085532584E+04  0.65897363115E+03 0.  0.
         13    1    3    3    0    0  0.17573459737E+03 -0.26924745095E+03 -0.32432206930E+03  0.45668549702E+03  0.00000000000E+00 0.  1.
          3    1    3    3  501    0 -0.17572165983E+03  0.26915463528E+03 -0.56710603846E+03  0.65186776135E+03  0.00000000000E+00 0.  1.
         21    1    1    2  502  501 -0.12937543294E-01  0.92815669311E-01  0.22633255391E+00  0.24496643333E+00  0.00000000000E+00 0. -1.
<mgrwt>
<rscale>  1 0.65897364E+03</rscale>
<asrwt>0</asrwt>
<pdfrwt beam="1">  1        1 0.39563074E+00 0.65897364E+03</pdfrwt>
<pdfrwt beam="2">0</pdfrwt>
<totfact> 0.13968055E+00</totfact>
</mgrwt>
</event>
<event>
 6    1  0.2104555E-002  0.6483795E+03  0.7818608E-02  0.9809825E-01
          1   -1    0    0  502    0  0.00000000000E+00  0.00000000000E+00  0.10513108725E+03  0.10513108725E+03  0.00000000000E+00 0.  1.
         13   -1    0    0    0    0 -0.00000000000E+00 -0.00000000000E+00 -0.10000000000E+04  0.10000000000E+04  0.00000000000E+00 0.  1.
    9000005    2    1    2  501    0  0.82152122988E-03 -0.21588843674E-02 -0.89490094570E+03  0.11050989711E+04  0.64837954421E+03 0.  0.
         13    1    3    3    0    0 -0.10045138572E+03  0.46050165586E+02  0.72008632443E+02  0.13189519244E+03  0.00000000000E+00 0.  1.
          3    1    3    3  501    0  0.10045220724E+03 -0.46052324470E+02 -0.96690957814E+03  0.97320377868E+03  0.00000000000E+00 0.  1.
         21    1    1    2  502  501 -0.82152122988E-03  0.21588843674E-02  0.32032955388E-01  0.32116131612E-01  0.00000000000E+00 0.  1.
<mgrwt>
<rscale>  1 0.64837954E+03</rscale>
<asrwt>0</asrwt>
<pdfrwt beam="1">  1        1 0.38229567E+00 0.64837954E+03</pdfrwt>
<pdfrwt beam="2">0</pdfrwt>
<totfact> 0.16035987E+00</totfact>
</mgrwt>
</event>
<event>
 6    1  0.2104555E-002  0.6506931E+03  0.7818608E-02  0.9805480E-01
          1   -1    0    0  502    0  0.00000000000E+00  0.00000000000E+00  0.10748937089E+03  0.10748937089E+03  0.00000000000E+00 0.  1.
         13   -1    0    0    0    0 -0.00000000000E+00 -0.00000000000E+00 -0.10000000000E+04  0.10000000000E+04  0.00000000000E+00 0.  1.
    9000005    2    1    2  501    0 -0.20895915274E+01  0.40842488630E+01 -0.88910624870E+03  0.11017764655E+04  0.65067688684E+03 0.  0.
         13    1    3    3    0    0 -0.27722018014E+03 -0.33642863762E+02 -0.73030156562E+03  0.78187163096E+03  0.00000000000E+00 0.  1.
          1    1    3    3  501    0  0.27513058862E+03  0.37727112625E+02 -0.15880468308E+03  0.31990483458E+03  0.00000000000E+00 0.  1.
         21    1    1    2  502  501  0.20895915274E+01 -0.40842488630E+01 -0.34043804137E+01  0.57129053491E+01  0.00000000000E+00 0.  1.
<mgrwt>
<rscale>  1 0.65069306E+03</rscale>
<asrwt>0</asrwt>
<pdfrwt beam="1">  1        1 0.39087126E+00 0.65069306E+03</pdfrwt>
<pdfrwt beam="2">0</pdfrwt>
<totfact> 0.14687546E+00</totfact>
</mgrwt>
</event>
<event>
 6    1  0.2104555E-002  0.6513281E+03  0.7818608E-02  0.9804290E-01
          1   -1    0    0  502    0  0.00000000000E+00  0.00000000000E+00  0.10605708876E+03  0.10605708876E+03  0.00000000000E+00 0.  1.
         13   -1    0    0    0    0 -0.00000000000E+00 -0.00000000000E+00 -0.10000000000E+04  0.10000000000E+04  0.00000000000E+00 0.  1.
    9000005    2    1    2  501    0 -0.61136327929E-05 -0.98654768976E-06 -0.89394292233E+03  0.11060570761E+04  0.65132811020E+03 0.  0.
         13    1    3    3    0    0  0.19039347835E+03  0.21351448850E+03 -0.18269682457E+03  0.33943518248E+03  0.00000000000E+00 0.  1.
          3    1    3    3  501    0 -0.19039348446E+03 -0.21351448949E+03 -0.71124609775E+03  0.76662189358E+03  0.00000000000E+00 0.  1.
         21    1    1    2  502  501  0.61136327900E-05  0.98654769442E-06  0.11084228152E-04  0.12696845907E-04  0.00000000000E+00 0. -1.
<mgrwt>
<rscale>  1 0.65132811E+03</rscale>
<asrwt>0</asrwt>
<pdfrwt beam="1">  1        1 0.38566295E+00 0.65132811E+03</pdfrwt>
<pdfrwt beam="2">0</pdfrwt>
<totfact> 0.15487197E+00</totfact>
</mgrwt>
</event>
<event>
 6    1  0.2104555E-002  0.6480775E+03  0.7818608E-02  0.9810393E-01
          1   -1    0    0  502    0  0.00000000000E+00  0.00000000000E+00  0.12830785018E+03  0.12830785018E+03  0.00000000000E+00 0.  1.
         13   -1    0    0    0    0 -0.00000000000E+00 -0.00000000000E+00 -0.10000000000E+04  0.10000000000E+04  0.00000000000E+00 0.  1.
    9000005    2    1    2  501    0 -0.55562555135E+01 -0.38415480936E+02 -0.87554252953E+03  0.10893021253E+04  0.64691404219E+03 0.  0.
         13    1    3    3    0    0 -0.15581558469E+03  0.25756577784E+03 -0.53417213716E+03  0.61315454697E+03  0.00000000000E+00 0.  1.
          1    1    3    3  501    0  0.15025932917E+03 -0.29598125878E+03 -0.34137039237E+03  0.47614757832E+03  0.00000000000E+00 0.  1.
         21    1    1    2  502  501  0.55562555135E+01  0.38415480936E+02  0.38503797108E+01  0.39005724898E+02  0.00000000000E+00 0.  1.
<mgrwt>
<rscale>  1 0.64807746E+03</rscale>
<asrwt>0</asrwt>
<pdfrwt beam="1">  1        1 0.46657498E+00 0.64807746E+03</pdfrwt>
<pdfrwt beam="2">0</pdfrwt>
<totfact> 0.66594559E-01</totfact>
</mgrwt>
</event>
<event>
 6    1  0.2104555E-002  0.6417861E+03  0.7818608E-02  0.9822315E-01
          1   -1    0    0  502    0  0.00000000000E+00  0.00000000000E+00  0.10297236422E+03  0.10297236422E+03  0.00000000000E+00 0.  1.
         13   -1    0    0    0    0 -0.00000000000E+00 -0.00000000000E+00 -0.10000000000E+04  0.10000000000E+04  0.00000000000E+00 0.  1.
    9000005    2    1    2  501    0 -0.32610477660E-05  0.26781835345E-05 -0.89702764970E+03  0.11029723497E+04  0.64178610130E+03 0.  0.
         13    1    3    3    0    0  0.20436731086E+03  0.19161293352E+03 -0.17956099320E+03  0.33275165563E+03  0.00000000000E+00 0.  1.
          1    1    3    3  501    0 -0.20436731412E+03 -0.19161293085E+03 -0.71746665650E+03  0.77022069405E+03  0.00000000000E+00 0.  1.
         21    1    1    2  502  501  0.32610477663E-05 -0.26781835440E-05  0.13916610736E-04  0.14542322854E-04  0.00000000000E+00 0.  1.
<mgrwt>
<rscale>  1 0.64178610E+03</rscale>
<asrwt>0</asrwt>
<pdfrwt beam="1">  1        1 0.37444575E+00 0.64178610E+03</pdfrwt>
<pdfrwt beam="2">0</pdfrwt>
<totfact> 0.17387222E+00</totfact>
</mgrwt>
</event>
<event>
 6    1  0.2104555E-002  0.6520433E+03  0.7818608E-02  0.9802953E-01
          1   -1    0    0  502    0  0.00000000000E+00  0.00000000000E+00  0.10642118981E+03  0.10642118981E+03  0.00000000000E+00 0.  1.
         13   -1    0    0    0    0 -0.00000000000E+00 -0.00000000000E+00 -0.10000000000E+04  0.10000000000E+04  0.00000000000E+00 0.  1.
    9000005    2    1    2  501    0  0.61686811806E-02  0.44067910489E-02 -0.89370975674E+03  0.11062900240E+04  0.65204331745E+03 0.  0.
         13    1    3    3    0    0 -0.23395198747E+03  0.21961968019E+03 -0.54466269226E+03  0.63215803776E+03  0.00000000000E+00 0.  1.
          3    1    3    3  501    0  0.23395815616E+03 -0.21961527340E+03 -0.34904706448E+03  0.47413198623E+03  0.00000000000E+00 0.  1.
         21    1    1    2  502  501 -0.61686811806E-02 -0.44067910489E-02  0.13094655535E+00  0.13116582174E+00  0.00000000000E+00 0.  1.
<mgrwt>
<rscale>  1 0.65204332E+03</rscale>
<asrwt>0</asrwt>
<pdfrwt beam="1">  1        1 0.38698696E+00 0.65204332E+03</pdfrwt>
<pdfrwt beam="2">0</pdfrwt>
<totfact> 0.15277596E+00</totfact>
</mgrwt>
</event>
<event>
 6    1  0.2104555E-002  0.6681285E+03  0.7818608E-02  0.9773345E-01
          1   -1    0    0  502    0  0.00000000000E+00  0.00000000000E+00  0.11164596240E+03  0.11164596240E+03  0.00000000000E+00 0.  1.
         13   -1    0    0    0    0 -0.00000000000E+00 -0.00000000000E+00 -0.10000000000E+04  0.10000000000E+04  0.00000000000E+00 0.  1.
    9000005    2    1    2  501    0  0.61943089904E-02  0.48831509272E-02 -0.88840069818E+03  0.11115986398E+04  0.66812853218E+03 0.  0.
         13    1    3    3    0    0  0.31561021128E+02  0.23956669179E+03 -0.82799229762E+03  0.86253089382E+03  0.00000000000E+00 0.  1.
          3    1    3    3  501    0 -0.31554826819E+02 -0.23956180864E+03 -0.60408400560E+02  0.24906774603E+03  0.00000000000E+00 0.  1.
         21    1    1    2  502  501 -0.61943089904E-02 -0.48831509272E-02  0.46660581258E-01  0.47322557731E-01  0.00000000000E+00 0.  1.
<mgrwt>
<rscale>  1 0.66812853E+03</rscale>
<asrwt>0</asrwt>
<pdfrwt beam="1">  1        1 0.40598617E+00 0.66812853E+03</pdfrwt>
<pdfrwt beam="2">0</pdfrwt>
<totfact> 0.12536929E+00</totfact>
</mgrwt>
</event>
<event>
 6    1  0.2104555E-002  0.6486821E+03  0.7818608E-02  0.9809255E-01
          3   -1    0    0  502    0  0.00000000000E+00  0.00000000000E+00  0.10701041516E+03  0.10701041516E+03  0.00000000000E+00 0.  1.
         13   -1    0    0    0    0 -0.00000000000E+00 -0.00000000000E+00 -0.10000000000E+04  0.10000000000E+04  0.00000000000E+00 0.  1.
    9000005    2    1    2  501    0 -0.31960347358E-01 -0.30070927984E-01 -0.89480259721E+03  0.11051968718E+04  0.64868207581E+03 0.  0.
         13    1    3    3    0    0 -0.25761875229E+03 -0.12116757041E+03 -0.18260332722E+03  0.33822030803E+03  0.00000000000E+00 0.  1.
          3    1    3    3  501    0  0.25758679194E+03  0.12113749948E+03 -0.71219926999E+03  0.76697656375E+03  0.00000000000E+00 0.  1.
         21    1    1    2  502  501  0.31960347358E-01  0.30070927984E-01  0.18130123747E+01  0.18135433812E+01  0.00000000000E+00 0.  1.
<mgrwt>
<rscale>  1 0.64868208E+03</rscale>
<asrwt>0</asrwt>
<pdfrwt beam="1">  1        3 0.38912960E+00 0.64868208E+03</pdfrwt>
<pdfrwt beam="2">0</pdfrwt>
<totfact> 0.67574678E-02</totfact>
</mgrwt>
</event>
<event>
 6    1  0.2104555E-002  0.6720498E+03  0.7818608E-02  0.9766262E-01
          1   -1    0    0  502    0  0.00000000000E+00  0.00000000000E+00  0.11297724653E+03  0.11297724653E+03  0.00000000000E+00 0.  1.
         13   -1    0    0    0    0 -0.00000000000E+00 -0.00000000000E+00 -0.10000000000E+04  0.10000000000E+04  0.00000000000E+00 0.  1.
    9000005    2    1    2  501    0 -0.17665633933E-01  0.15345514708E-01 -0.88708488136E+03  0.11129108580E+04  0.67204984237E+03 0.  0.
         13    1    3    3    0    0 -0.28819771337E+03 -0.33569451269E+02 -0.72425345889E+03  0.78021016577E+03  0.00000000000E+00 0.  1.
          1    1    3    3  501    0  0.28818004773E+03  0.33584796784E+02 -0.16283142246E+03  0.33270069226E+03  0.00000000000E+00 0.  1.
         21    1    1    2  502  501  0.17665633933E-01 -0.15345514708E-01  0.62127885955E-01  0.66388505459E-01  0.00000000000E+00 0.  1.
<mgrwt>
<rscale>  1 0.67204984E+03</rscale>
<asrwt>0</asrwt>
<pdfrwt beam="1">  1        1 0.41082722E+00 0.67204984E+03</pdfrwt>
<pdfrwt beam="2">0</pdfrwt>
<totfact> 0.11917219E+00</totfact>
</mgrwt>
</event>
<event>
 6    1  0.2104555E-002  0.6398953E+03  0.7818608E-02  0.9825927E-01
          1   -1    0    0  502    0  0.00000000000E+00  0.00000000000E+00  0.10236674082E+03  0.10236674082E+03  0.00000000000E+00 0.  1.
         13   -1    0    0    0    0 -0.00000000000E+00 -0.00000000000E+00 -0.10000000000E+04  0.10000000000E+04  0.00000000000E+00 0.  1.
    9000005    2    1    2  501    0  0.13227983243E-03  0.31032846883E-03 -0.89763338871E+03  0.11023663795E+04  0.63989525239E+03 0.  0.
         13    1    3    3    0    0  0.23614426802E+03  0.17941941348E+03 -0.65562428595E+03  0.71958227159E+03  0.00000000000E+00 0.  1.
          1    1    3    3  501    0 -0.23614413574E+03 -0.17941910315E+03 -0.24200910276E+03  0.38278410787E+03  0.00000000000E+00 0.  1.
         21    1    1    2  502  501 -0.13227983243E-03 -0.31032846883E-03  0.12953939166E-03  0.36136154558E-03  0.00000000000E+00 0. -1.
<mgrwt>
<rscale>  1 0.63989525E+03</rscale>
<asrwt>0</asrwt>
<pdfrwt beam="1">  1        1 0.37224348E+00 0.63989525E+03</pdfrwt>
<pdfrwt beam="2">0</pdfrwt>
<totfact> 0.17785532E+00</totfact>
</mgrwt>
</event>
<event>
 6    1  0.2104555E-002  0.6464628E+03  0.7818608E-02  0.9813439E-01
          1   -1    0    0  502    0  0.00000000000E+00  0.00000000000E+00  0.10448007195E+03  0.10448007195E+03  0.00000000000E+00 0.  1.
         13   -1    0    0    0    0 -0.00000000000E+00 -0.00000000000E+00 -0.10000000000E+04  0.10000000000E+04  0.00000000000E+00 0.  1.
    9000005    2    1    2  501    0 -0.21369070931E-03  0.40897132692E-03 -0.89552141662E+03  0.11044785135E+04  0.64646282116E+03 0.  0.
         13    1    3    3    0    0 -0.62814610901E+02 -0.30274722577E+03 -0.28679089458E+03  0.42172333973E+03  0.00000000000E+00 0.  1.
          1    1    3    3  501    0  0.62814397211E+02  0.30274763475E+03 -0.60873052205E+03  0.68275517377E+03  0.00000000000E+00 0.  1.
         21    1    1    2  502  501  0.21369070931E-03 -0.40897132694E-03  0.14885705252E-02  0.15584490605E-02  0.00000000000E+00 0. -1.
<mgrwt>
<rscale>  1 0.64646282E+03</rscale>
<asrwt>0</asrwt>
<pdfrwt beam="1">  1        1 0.37992834E+00 0.64646282E+03</pdfrwt>
<pdfrwt beam="2">0</pdfrwt>
<totfact> 0.16432355E+00</totfact>
</mgrwt>
</event>
<event>
 6    1  0.2104555E-002  0.6485962E+03  0.7818608E-02  0.9809417E-01
          1   -1    0    0  502    0  0.00000000000E+00  0.00000000000E+00  0.10516979211E+03  0.10516979211E+03  0.00000000000E+00 0.  1.
         13   -1    0    0    0    0 -0.00000000000E+00 -0.00000000000E+00 -0.10000000000E+04  0.10000000000E+04  0.00000000000E+00 0.  1.
    9000005    2    1    2  501    0 -0.15448301994E-04 -0.37463190381E-04 -0.89483072816E+03  0.11051692703E+04  0.64859624103E+03 0.  0.
         13    1    3    3    0    0  0.81441717882E+02 -0.13980635504E+03  0.31481904002E+02  0.16483228021E+03  0.00000000000E+00 0.  1.
          3    1    3    3  501    0 -0.81441733330E+02  0.13980631757E+03 -0.92631263216E+03  0.94033699005E+03  0.00000000000E+00 0.  1.
         21    1    1    2  502  501  0.15448301988E-04  0.37463190376E-04  0.52026681538E-03  0.52184260065E-03  0.00000000000E+00 0. -1.
<mgrwt>
<rscale>  1 0.64859624E+03</rscale>
<asrwt>0</asrwt>
<pdfrwt beam="1">  1        1 0.38243641E+00 0.64859624E+03</pdfrwt>
<pdfrwt beam="2">0</pdfrwt>
<totfact> 0.16012408E+00</totfact>
</mgrwt>
</event>
<event>
 6    1  0.2104555E-002  0.6721940E+03  0.7818608E-02  0.9766002E-01
          1   -1    0    0  502    0  0.00000000000E+00  0.00000000000E+00  0.11296138429E+03  0.11296138429E+03  0.00000000000E+00 0.  1.
         13   -1    0    0    0    0 -0.00000000000E+00 -0.00000000000E+00 -0.10000000000E+04  0.10000000000E+04  0.00000000000E+00 0.  1.
    9000005    2    1    2  501    0 -0.18025854800E-04  0.66575050070E-04 -0.88703878949E+03  0.11129611973E+04  0.67219402905E+03 0.  0.
         13    1    3    3    0    0 -0.75776794003E+02 -0.37754692425E+02  0.95017176844E+02  0.12726273298E+03  0.00000000000E+00 0.  1.
          1    1    3    3  501    0  0.75776775977E+02  0.37754759000E+02 -0.98205596633E+03  0.98569846435E+03  0.00000000000E+00 0.  1.
         21    1    1    2  502  501  0.18025854796E-04 -0.66575050072E-04  0.17377404222E-03  0.18696145721E-03  0.00000000000E+00 0.  1.
<mgrwt>
<rscale>  1 0.67219403E+03</rscale>
<asrwt>0</asrwt>
<pdfrwt beam="1">  1        1 0.41076954E+00 0.67219403E+03</pdfrwt>
<pdfrwt beam="2">0</pdfrwt>
<totfact> 0.11924000E+00</totfact>
</mgrwt>
</event>
<event>
 6    1  0.2104555E-002  0.6643141E+03  0.7818608E-02  0.9780284E-01
          1   -1    0    0  502    0  0.00000000000E+00  0.00000000000E+00  0.11032942357E+03  0.11032942357E+03  0.00000000000E+00 0.  1.
         13   -1    0    0    0    0 -0.00000000000E+00 -0.00000000000E+00 -0.10000000000E+04  0.10000000000E+04  0.00000000000E+00 0.  1.
    9000005    2    1    2  501    0  0.24745719872E-03 -0.95567689698E-04 -0.88967166421E+03  0.11103283039E+04  0.66431413682E+03 0.  0.
         13    1    3    3    0    0  0.20024184259E+03 -0.18774169545E+03 -0.75745589513E+03  0.80565698210E+03  0.00000000000E+00 0.  1.
          1    1    3    3  501    0 -0.20024159513E+03  0.18774159988E+03 -0.13221576908E+03  0.30467132182E+03  0.00000000000E+00 0.  1.
         21    1    1    2  502  501 -0.24745719875E-03  0.95567689699E-04  0.10877799466E-02  0.11196577427E-02  0.00000000000E+00 0. -1.
<mgrwt>
<rscale>  1 0.66431414E+03</rscale>
<asrwt>0</asrwt>
<pdfrwt beam="1">  1        1 0.40119875E+00 0.66431414E+03</pdfrwt>
<pdfrwt beam="2">0</pdfrwt>
<totfact> 0.13179393E+00</totfact>
</mgrwt>
</event>
<event>
 6    1  0.2104555E-002  0.6602709E+03  0.7818608E-02  0.9787695E-01
          1   -1    0    0  502    0  0.00000000000E+00  0.00000000000E+00  0.10901636851E+03  0.10901636851E+03  0.00000000000E+00 0.  1.
         13   -1    0    0    0    0 -0.00000000000E+00 -0.00000000000E+00 -0.10000000000E+04  0.10000000000E+04  0.00000000000E+00 0.  1.
    9000005    2    1    2  501    0 -0.48225671019E-02 -0.26850822189E-02 -0.89101028478E+03  0.11089891497E+04  0.66027085844E+03 0.  0.
         13    1    3    3    0    0 -0.26899309602E+03  0.17767059011E+03 -0.32595892205E+03  0.45844666338E+03  0.00000000000E+00 0.  1.
          1    1    3    3  501    0  0.26898827345E+03 -0.17767327519E+03 -0.56505136272E+03  0.65054248631E+03  0.00000000000E+00 0.  1.
         21    1    1    2  502  501  0.48225671018E-02  0.26850822189E-02  0.26653283099E-01  0.27218822897E-01  0.00000000000E+00 0.  1.
<mgrwt>
<rscale>  1 0.66027086E+03</rscale>
<asrwt>0</asrwt>
<pdfrwt beam="1">  1        1 0.39642399E+00 0.66027086E+03</pdfrwt>
<pdfrwt beam="2">0</pdfrwt>
<totfact> 0.13851649E+00</totfact>
</mgrwt>
</event>
<event>
 6    1  0.2104555E-002  0.5483922E+03  0.7818608E-02  0.1001867E+00
          1   -1    0    0  502    0  0.00000000000E+00  0.00000000000E+00  0.75183493557E+02  0.75183493557E+02  0.00000000000E+00 0.  1.
         13   -1    0    0    0    0 -0.00000000000E+00 -0.00000000000E+00 -0.10000000000E+04  0.10000000000E+04  0.00000000000E+00 0.  1.
    9000005    2    1    2  501    0  0.90354836857E-06  0.69311204243E-06 -0.92481650890E+03  0.10751834909E+04  0.54839216248E+03 0.  0.
         13    1    3    3    0    0 -0.22935425093E+03 -0.11357964143E+03 -0.65530467276E+03  0.70351113816E+03  0.00000000000E+00 0.  1.
          3    1    3    3  501    0  0.22935425184E+03  0.11357964212E+03 -0.26951183613E+03  0.37167235269E+03  0.00000000000E+00 0.  1.
         21    1    1    2  502  501 -0.90354836874E-06 -0.69311204038E-06  0.24546247407E-05  0.27059169560E-05  0.00000000000E+00 0. -1.
<mgrwt>
<rscale>  1 0.54839216E+03</rscale>
<asrwt>0</asrwt>
<pdfrwt beam="1">  1        1 0.27339510E+00 0.54839216E+03</pdfrwt>
<pdfrwt beam="2">0</pdfrwt>
<totfact> 0.48500971E+00</totfact>
</mgrwt>
</event>
<event>
 6    1  0.2104555E-002  0.6414304E+03  0.7818608E-02  0.9822994E-01
          1   -1    0    0  502    0  0.00000000000E+00  0.00000000000E+00  0.10309549415E+03  0.10309549415E+03  0.00000000000E+00 0.  1.
         13   -1    0    0    0    0 -0.00000000000E+00 -0.00000000000E+00 -0.10000000000E+04  0.10000000000E+04  0.00000000000E+00 0.  1.
    9000005    2    1    2  501    0 -0.36789405623E-02  0.33117203971E-02 -0.89714172804E+03  0.11028582203E+04  0.64143041236E+03 0.  0.
         13    1    3    3    0    0  0.21107851611E+03 -0.93245294750E+02 -0.83152324208E+03  0.86294827602E+03  0.00000000000E+00 0.  1.
          1    1    3    3  501    0 -0.21108219505E+03  0.93248606470E+02 -0.65618485961E+02  0.23990994430E+03  0.00000000000E+00 0.  1.
         21    1    1    2  502  501  0.36789405623E-02 -0.33117203971E-02  0.23722219638E+00  0.23727383453E+00  0.00000000000E+00 0.  1.
<mgrwt>
<rscale>  1 0.64143041E+03</rscale>
<asrwt>0</asrwt>
<pdfrwt beam="1">  1        1 0.37489350E+00 0.64143041E+03</pdfrwt>
<pdfrwt beam="2">0</pdfrwt>
<totfact> 0.17309634E+00</totfact>
</mgrwt>
</event>
<event>
 6    1  0.2104555E-002  0.6587806E+03  0.7818608E-02  0.9790441E-01
          1   -1    0    0  502    0  0.00000000000E+00  0.00000000000E+00  0.10849874998E+03  0.10849874998E+03  0.00000000000E+00 0.  1.
         13   -1    0    0    0    0 -0.00000000000E+00 -0.00000000000E+00 -0.10000000000E+04  0.10000000000E+04  0.00000000000E+00 0.  1.
    9000005    2    1    2  501    0  0.11400134415E-02  0.11557445071E-02 -0.89150092950E+03  0.11084970953E+04  0.65878061817E+03 0.  0.
         13    1    3    3    0    0 -0.29172134622E+03 -0.14933598854E+02 -0.18960384901E+03  0.34824413243E+03  0.00000000000E+00 0.  1.
          3    1    3    3  501    0  0.29172248623E+03  0.14934754599E+02 -0.70189708050E+03  0.76025296282E+03  0.00000000000E+00 0.  1.
         21    1    1    2  502  501 -0.11400134415E-02 -0.11557445071E-02 -0.32052260389E-03  0.16547237691E-02  0.00000000000E+00 0. -1.
<mgrwt>
<rscale>  1 0.65878062E+03</rscale>
<asrwt>0</asrwt>
<pdfrwt beam="1">  1        1 0.39454174E+00 0.65878062E+03</pdfrwt>
<pdfrwt beam="2">0</pdfrwt>
<totfact> 0.14125191E+00</totfact>
</mgrwt>
</event>
