<event>
 6    1  0.5715586E-003  0.6199963E+03  0.7818608E-02  0.9864767E-01
          1   -1    0    0  502    0  0.00000000000E+00  0.00000000000E+00  0.96100014129E+02  0.96100014129E+02  0.00000000000E+00 0.  1.
         13   -1    0    0    0    0 -0.00000000000E+00 -0.00000000000E+00 -0.10000000000E+04  0.10000000000E+04  0.00000000000E+00 0.  1.
    9000005    2    1    2  501    0  0.46425846332E-03 -0.18998444305E-02 -0.90390015021E+03  0.10960980515E+04  0.61999633623E+03 0.  0.
         13    1    3    3    0    0 -0.22393044098E+03 -0.97442041002E+02 -0.11438048486E+03  0.26967144652E+03  0.00000000000E+00 0.  1.
          1    1    3    3  501    0  0.22393090524E+03  0.97440141158E+02 -0.78951966535E+03  0.82642660497E+03  0.00000000000E+00 0.  1.
         21    1    1    2  502  501 -0.46425846331E-03  0.18998444305E-02  0.16433439125E-03  0.19626386761E-02  0.00000000000E+00 0.  1.
<mgrwt>
<rscale>  1 0.61999634E+03</rscale>
<asrwt>0</asrwt>
<pdfrwt beam="1">  1        1 0.34945533E+00 0.61999634E+03</pdfrwt>
<pdfrwt beam="2">0</pdfrwt>
<totfact> 0.22456176E+00</totfact>
</mgrwt>
</event>
<event>
 6    1  0.5715586E-003  0.6847769E+03  0.7818608E-02  0.9743626E-01
          1   -1    0    0  502    0  0.00000000000E+00  0.00000000000E+00  0.12262614365E+03  0.12262614365E+03  0.00000000000E+00 0.  1.
         13   -1    0    0    0    0 -0.00000000000E+00 -0.00000000000E+00 -0.10000000000E+04  0.10000000000E+04  0.00000000000E+00 0.  1.
    9000005    2    1    2  501    0 -0.83672681049E+00 -0.56203301530E+00 -0.88271749126E+03  0.11171882739E+04  0.68477620728E+03 0.  0.
         13    1    3    3    0    0  0.33028380355E+03  0.56902790391E+02 -0.55137931183E+03  0.64524759896E+03  0.00000000000E+00 0.  1.
          3    1    3    3  501    0 -0.33112053036E+03 -0.57464823406E+02 -0.33133817943E+03  0.47194067498E+03  0.00000000000E+00 0.  1.
         21    1    1    2  502  501  0.83672681049E+00  0.56203301530E+00  0.53436349112E+01  0.54378697051E+01  0.00000000000E+00 0.  1.
<mgrwt>
<rscale>  1 0.68477695E+03</rscale>
<asrwt>0</asrwt>
<pdfrwt beam="1">  1        1 0.44591419E+00 0.68477695E+03</pdfrwt>
<pdfrwt beam="2">0</pdfrwt>
<totfact> 0.82377575E-01</totfact>
</mgrwt>
</event>
<event>
 6    1  0.5715586E-003  0.6519385E+03  0.7818608E-02  0.9803148E-01
          1   -1    0    0  502    0  0.00000000000E+00  0.00000000000E+00  0.10630387727E+03  0.10630387727E+03  0.00000000000E+00 0.  1.
         13   -1    0    0    0    0 -0.00000000000E+00 -0.00000000000E+00 -0.10000000000E+04  0.10000000000E+04  0.00000000000E+00 0.  1.
    9000005    2    1    2  501    0  0.39104622076E-03 -0.18955460088E-02 -0.89374402071E+03  0.11062559402E+04  0.65193851754E+03 0.  0.
         13    1    3    3    0    0  0.24222441838E+03 -0.21742100363E+03 -0.41690501562E+03  0.52891809737E+03  0.00000000000E+00 0.  1.
          3    1    3    3  501    0 -0.24222402733E+03  0.21741910809E+03 -0.47683900510E+03  0.57733784283E+03  0.00000000000E+00 0.  1.
         21    1    1    2  502  501 -0.39104622075E-03  0.18955460088E-02  0.47897988713E-01  0.47937076826E-01  0.00000000000E+00 0. -1.
<mgrwt>
<rscale>  1 0.65193852E+03</rscale>
<asrwt>0</asrwt>
<pdfrwt beam="1">  1        1 0.38656037E+00 0.65193852E+03</pdfrwt>
<pdfrwt beam="2">0</pdfrwt>
<totfact> 0.15344476E+00</totfact>
</mgrwt>
</event>
<event>
 6    1  0.5715586E-003  0.6323014E+03  0.7818608E-02  0.9840568E-01
          3   -1    0    0  502    0  0.00000000000E+00  0.00000000000E+00  0.10043130535E+03  0.10043130535E+03  0.00000000000E+00 0.  1.
         13   -1    0    0    0    0 -0.00000000000E+00 -0.00000000000E+00 -0.10000000000E+04  0.10000000000E+04  0.00000000000E+00 0.  1.
    9000005    2    1    2  501    0  0.28927263732E+00  0.14141122237E+00 -0.89998866044E+03  0.10999021106E+04  0.63230132087E+03 0.  0.
         13    1    3    3    0    0  0.82355711248E+02 -0.25792704931E+03 -0.16609976268E+03  0.31764438780E+03  0.00000000000E+00 0.  1.
          1    1    3    3  501    0 -0.82066438610E+02  0.25806846053E+03 -0.73388889776E+03  0.78225772282E+03  0.00000000000E+00 0.  1.
         21    1    1    2  502  501 -0.28927263732E+00 -0.14141122237E+00  0.41996578406E+00  0.52919472059E+00  0.00000000000E+00 0.  1.
<mgrwt>
<rscale>  1 0.63230140E+03</rscale>
<asrwt>0</asrwt>
<pdfrwt beam="1">  1        3 0.36520552E+00 0.63230140E+03</pdfrwt>
<pdfrwt beam="2">0</pdfrwt>
<totfact> 0.90657640E-02</totfact>
</mgrwt>
</event>
<event>
 6    1  0.5715586E-003  0.6253678E+03  0.7818608E-02  0.9854130E-01
          1   -1    0    0  502    0  0.00000000000E+00  0.00000000000E+00  0.97772732652E+02  0.97772732652E+02  0.00000000000E+00 0.  1.
         13   -1    0    0    0    0 -0.00000000000E+00 -0.00000000000E+00 -0.10000000000E+04  0.10000000000E+04  0.00000000000E+00 0.  1.
    9000005    2    1    2  501    0 -0.18509823605E-04  0.24121881320E-03 -0.90222876200E+03  0.10977712185E+04  0.62536781920E+03 0.  0.
         13    1    3    3    0    0 -0.21104315948E+03 -0.12188631049E+03 -0.10723620089E+03  0.26626132019E+03  0.00000000000E+00 0.  1.
          3    1    3    3  501    0  0.21104314097E+03  0.12188655171E+03 -0.79499256111E+03  0.83150989835E+03  0.00000000000E+00 0.  1.
         21    1    1    2  502  501  0.18509823578E-04 -0.24121881320E-03  0.14946511011E-02  0.15141040398E-02  0.00000000000E+00 0.  1.
<mgrwt>
<rscale>  1 0.62536782E+03</rscale>
<asrwt>0</asrwt>
<pdfrwt beam="1">  1        1 0.35553796E+00 0.62536782E+03</pdfrwt>
<pdfrwt beam="2">0</pdfrwt>
<totfact> 0.21105222E+00</totfact>
</mgrwt>
</event>
<event>
 6    1  0.5715586E-003  0.6365134E+03  0.7818608E-02  0.9832420E-01
          3   -1    0    0  502    0  0.00000000000E+00  0.00000000000E+00  0.10128828423E+03  0.10128828423E+03  0.00000000000E+00 0.  1.
         13   -1    0    0    0    0 -0.00000000000E+00 -0.00000000000E+00 -0.10000000000E+04  0.10000000000E+04  0.00000000000E+00 0.  1.
    9000005    2    1    2  501    0  0.46339536297E-06  0.53337259317E-04 -0.89871265646E+03  0.11012873420E+04  0.63651344906E+03 0.  0.
         13    1    3    3    0    0  0.11129133641E+02 -0.27905949998E+03 -0.18531554331E+03  0.33517146767E+03  0.00000000000E+00 0.  1.
          3    1    3    3  501    0 -0.11129133178E+02  0.27905955332E+03 -0.71339711315E+03  0.76611587436E+03  0.00000000000E+00 0.  1.
         21    1    1    2  502  501 -0.46339536350E-06 -0.53337259322E-04  0.94069098186E-03  0.94220199602E-03  0.00000000000E+00 0.  1.
<mgrwt>
<rscale>  1 0.63651345E+03</rscale>
<asrwt>0</asrwt>
<pdfrwt beam="1">  1        3 0.36832181E+00 0.63651345E+03</pdfrwt>
<pdfrwt beam="2">0</pdfrwt>
<totfact> 0.87213111E-02</totfact>
</mgrwt>
</event>
<event>
 6    1  0.5715586E-003  0.6529796E+03  0.7818608E-02  0.9801204E-01
          1   -1    0    0  502    0  0.00000000000E+00  0.00000000000E+00  0.10660904041E+03  0.10660904041E+03  0.00000000000E+00 0.  1.
         13   -1    0    0    0    0 -0.00000000000E+00 -0.00000000000E+00 -0.10000000000E+04  0.10000000000E+04  0.00000000000E+00 0.  1.
    9000005    2    1    2  501    0 -0.49579513077E-03  0.49164232192E-03 -0.89340440332E+03  0.11065955786E+04  0.65297959127E+03 0.  0.
         13    1    3    3    0    0  0.93824452283E+01 -0.22978242713E+02  0.10499447257E+03  0.10788822543E+03  0.00000000000E+00 0.  1.
          3    1    3    3  501    0 -0.93829410234E+01  0.22978734355E+02 -0.99839887589E+03  0.99870735313E+03  0.00000000000E+00 0.  1.
         21    1    1    2  502  501  0.49579513077E-03 -0.49164232192E-03  0.13443730074E-01  0.13461849920E-01  0.00000000000E+00 0.  1.
<mgrwt>
<rscale>  1 0.65297959E+03</rscale>
<asrwt>0</asrwt>
<pdfrwt beam="1">  1        1 0.38767006E+00 0.65297959E+03</pdfrwt>
<pdfrwt beam="2">0</pdfrwt>
<totfact> 0.15168920E+00</totfact>
</mgrwt>
</event>
<event>
 6    1  0.5715586E-003  0.6546656E+03  0.7818608E-02  0.9798064E-01
          1   -1    0    0  502    0  0.00000000000E+00  0.00000000000E+00  0.14572591572E+03  0.14572591572E+03  0.00000000000E+00 0.  1.
         13   -1    0    0    0    0 -0.00000000000E+00 -0.00000000000E+00 -0.10000000000E+04  0.10000000000E+04  0.00000000000E+00 0.  1.
    9000005    2    1    2  501    0  0.17055442081E+02 -0.57087767877E+02 -0.86538605015E+03  0.10851175241E+04  0.65194871273E+03 0.  0.
         13    1    3    3    0    0  0.64292615325E+01 -0.13783893309E+03  0.64043222725E+02  0.15212639895E+03  0.00000000000E+00 0.  1.
          1    1    3    3  501    0  0.10626180548E+02  0.80751165214E+02 -0.92942927287E+03  0.93299112518E+03  0.00000000000E+00 0.  1.
         21    1    1    2  502  501 -0.17055442081E+02  0.57087767877E+02  0.11111965871E+02  0.60608391592E+02  0.00000000000E+00 0.  1.
<mgrwt>
<rscale>  1 0.65466558E+03</rscale>
<asrwt>0</asrwt>
<pdfrwt beam="1">  1        1 0.52991354E+00 0.65466558E+03</pdfrwt>
<pdfrwt beam="2">0</pdfrwt>
<totfact> 0.32991756E-01</totfact>
</mgrwt>
</event>
<event>
 6    1  0.5715586E-003  0.6245387E+03  0.7818608E-02  0.9855764E-01
          1   -1    0    0  502    0  0.00000000000E+00  0.00000000000E+00  0.97513782197E+02  0.97513782197E+02  0.00000000000E+00 0.  1.
         13   -1    0    0    0    0 -0.00000000000E+00 -0.00000000000E+00 -0.10000000000E+04  0.10000000000E+04  0.00000000000E+00 0.  1.
    9000005    2    1    2  501    0 -0.88697785117E-04 -0.39534450468E-03 -0.90248781152E+03  0.10975121378E+04  0.62453874391E+03 0.  0.
         13    1    3    3    0    0  0.15111752467E+03  0.26905356746E+03 -0.36722787171E+03  0.47966930086E+03  0.00000000000E+00 0.  1.
          1    1    3    3  501    0 -0.15111761337E+03 -0.26905396281E+03 -0.53525993981E+03  0.61784283692E+03  0.00000000000E+00 0.  1.
         21    1    1    2  502  501  0.88697785129E-04  0.39534450469E-03  0.15937148300E-02  0.16444122153E-02  0.00000000000E+00 0. -1.
<mgrwt>
<rscale>  1 0.62453874E+03</rscale>
<asrwt>0</asrwt>
<pdfrwt beam="1">  1        1 0.35459632E+00 0.62453874E+03</pdfrwt>
<pdfrwt beam="2">0</pdfrwt>
<totfact> 0.21309103E+00</totfact>
</mgrwt>
</event>
<event>
 6    1  0.5715586E-003  0.6657482E+03  0.7818608E-02  0.9777669E-01
          1   -1    0    0  502    0  0.00000000000E+00  0.00000000000E+00  0.12677726102E+03  0.12677726102E+03  0.00000000000E+00 0.  1.
         13   -1    0    0    0    0 -0.00000000000E+00 -0.00000000000E+00 -0.10000000000E+04  0.10000000000E+04  0.00000000000E+00 0.  1.
    9000005    2    1    2  501    0  0.10761784616E+02 -0.37265663803E+01 -0.88690649138E+03  0.11089742168E+04  0.66565079861E+03 0.  0.
         13    1    3    3    0    0 -0.29321167781E+03  0.10965661608E+03 -0.59603681832E+03  0.67324404954E+03  0.00000000000E+00 0.  1.
          3    1    3    3  501    0  0.30397346242E+03 -0.11338318246E+03 -0.29086967306E+03  0.43573016722E+03  0.00000000000E+00 0.  1.
         21    1    1    2  502  501 -0.10761784616E+02  0.37265663803E+01  0.13683752399E+02  0.17803044258E+02  0.00000000000E+00 0. -1.
<mgrwt>
<rscale>  1 0.66574822E+03</rscale>
<asrwt>0</asrwt>
<pdfrwt beam="1">  1        1 0.46100919E+00 0.66574822E+03</pdfrwt>
<pdfrwt beam="2">0</pdfrwt>
<totfact> 0.70425363E-01</totfact>
</mgrwt>
</event>
<event>
 6    1  0.5715586E-003  0.6554143E+03  0.7818608E-02  0.9796672E-01
          1   -1    0    0  502    0  0.00000000000E+00  0.00000000000E+00  0.11049907097E+03  0.11049907097E+03  0.00000000000E+00 0.  1.
         13   -1    0    0    0    0 -0.00000000000E+00 -0.00000000000E+00 -0.10000000000E+04  0.10000000000E+04  0.00000000000E+00 0.  1.
    9000005    2    1    2  501    0 -0.16421598747E+01  0.11430009931E+01 -0.89224725168E+03  0.11071012145E+04  0.65541127387E+03 0.  0.
         13    1    3    3    0    0  0.46732898112E+02 -0.13576748478E+03 -0.94255420342E+03  0.95342813053E+03  0.00000000000E+00 0.  1.
          1    1    3    3  501    0 -0.48375057987E+02  0.13691048578E+03  0.50306951740E+02  0.15367308400E+03  0.00000000000E+00 0.  1.
         21    1    1    2  502  501  0.16421598747E+01 -0.11430009931E+01  0.27463226489E+01  0.33978564443E+01  0.00000000000E+00 0. -1.
<mgrwt>
<rscale>  1 0.65541433E+03</rscale>
<asrwt>0</asrwt>
<pdfrwt beam="1">  1        1 0.40181565E+00 0.65541433E+03</pdfrwt>
<pdfrwt beam="2">0</pdfrwt>
<totfact> 0.13118089E+00</totfact>
</mgrwt>
</event>
<event>
 6    1  0.5715586E-003  0.6472865E+03  0.7818608E-02  0.9811884E-01
          1   -1    0    0  502    0  0.00000000000E+00  0.00000000000E+00  0.10717299348E+03  0.10717299348E+03  0.00000000000E+00 0.  1.
         13   -1    0    0    0    0 -0.00000000000E+00 -0.00000000000E+00 -0.10000000000E+04  0.10000000000E+04  0.00000000000E+00 0.  1.
    9000005    2    1    2  501    0  0.18262788288E-01 -0.82474799583E-01 -0.89525423115E+03  0.11047442994E+04  0.64728650649E+03 0.  0.
         13    1    3    3    0    0 -0.23916613181E+03 -0.12638626782E+02 -0.76110944517E+02  0.25130270466E+03  0.00000000000E+00 0.  1.
          3    1    3    3  501    0  0.23918439460E+03  0.12556151982E+02 -0.81914328663E+03  0.85344159473E+03  0.00000000000E+00 0.  1.
         21    1    1    2  502  501 -0.18262788288E-01  0.82474799583E-01  0.24272246327E+01  0.24286941017E+01  0.00000000000E+00 0.  1.
<mgrwt>
<rscale>  1 0.64728651E+03</rscale>
<asrwt>0</asrwt>
<pdfrwt beam="1">  1        1 0.38972080E+00 0.64728651E+03</pdfrwt>
<pdfrwt beam="2">0</pdfrwt>
<totfact> 0.14870570E+00</totfact>
</mgrwt>
</event>
<event>
 6    1  0.5715586E-003  0.6640933E+03  0.7818608E-02  0.9780688E-01
          1   -1    0    0  502    0  0.00000000000E+00  0.00000000000E+00  0.11077879344E+03  0.11077879344E+03  0.00000000000E+00 0.  1.
         13   -1    0    0    0    0 -0.00000000000E+00 -0.00000000000E+00 -0.10000000000E+04  0.10000000000E+04  0.00000000000E+00 0.  1.
    9000005    2    1    2  501    0 -0.12253550894E+01 -0.78547608924E+00 -0.88812261792E+03  0.11089552352E+04  0.66409171856E+03 0.  0.
         13    1    3    3    0    0  0.11204790477E+03 -0.21062462429E+03 -0.82987083005E+03  0.86348309763E+03  0.00000000000E+00 0.  1.
          1    1    3    3  501    0 -0.11327325986E+03  0.20983914820E+03 -0.58251787873E+02  0.24547213754E+03  0.00000000000E+00 0.  1.
         21    1    1    2  502  501  0.12253550894E+01  0.78547608924E+00 -0.10985886383E+01  0.18235582739E+01  0.00000000000E+00 0.  1.
<mgrwt>
<rscale>  1 0.66409331E+03</rscale>
<asrwt>0</asrwt>
<pdfrwt beam="1">  1        1 0.40283283E+00 0.66409331E+03</pdfrwt>
<pdfrwt beam="2">0</pdfrwt>
<totfact> 0.12960392E+00</totfact>
</mgrwt>
</event>
<event>
 6    1  0.5715586E-003  0.6618440E+03  0.7818608E-02  0.9784805E-01
          1   -1    0    0  502    0  0.00000000000E+00  0.00000000000E+00  0.11003189993E+03  0.11003189993E+03  0.00000000000E+00 0.  1.
         13   -1    0    0    0    0 -0.00000000000E+00 -0.00000000000E+00 -0.10000000000E+04  0.10000000000E+04  0.00000000000E+00 0.  1.
    9000005    2    1    2  501    0 -0.25956402841E+00 -0.10297787096E+00 -0.89044891935E+03  0.11094758738E+04  0.66184390794E+03 0.  0.
         13    1    3    3    0    0 -0.15924339119E+03 -0.15307832591E+03 -0.32079176080E+02  0.22320507395E+03  0.00000000000E+00 0.  1.
          3    1    3    3  501    0  0.15898382716E+03  0.15297534804E+03 -0.85836974328E+03  0.88627079980E+03  0.00000000000E+00 0.  1.
         21    1    1    2  502  501  0.25956402841E+00  0.10297787096E+00  0.48081928909E+00  0.55602618239E+00  0.00000000000E+00 0. -1.
<mgrwt>
<rscale>  1 0.66184397E+03</rscale>
<asrwt>0</asrwt>
<pdfrwt beam="1">  1        1 0.40011684E+00 0.66184397E+03</pdfrwt>
<pdfrwt beam="2">0</pdfrwt>
<totfact> 0.13332839E+00</totfact>
</mgrwt>
</event>
<event>
 6    1  0.5715586E-003  0.6529251E+03  0.7818608E-02  0.9801306E-01
          1   -1    0    0  502    0  0.00000000000E+00  0.00000000000E+00  0.10657782399E+03  0.10657782399E+03  0.00000000000E+00 0.  1.
         13   -1    0    0    0    0 -0.00000000000E+00 -0.00000000000E+00 -0.10000000000E+04  0.10000000000E+04  0.00000000000E+00 0.  1.
    9000005    2    1    2  501    0 -0.39979109374E-05  0.24429671726E-04 -0.89342217193E+03  0.11065777989E+04  0.65292514710E+03 0.  0.
         13    1    3    3    0    0 -0.21705975753E+03  0.14941995186E+03 -0.12010869644E+03  0.28959861759E+03  0.00000000000E+00 0.  1.
          1    1    3    3  501    0  0.21705975353E+03 -0.14941992743E+03 -0.77331347549E+03  0.81697918130E+03  0.00000000000E+00 0.  1.
         21    1    1    2  502  501  0.39979109465E-05 -0.24429671715E-04 -0.40857510146E-05  0.25089549884E-04  0.00000000000E+00 0.  1.
<mgrwt>
<rscale>  1 0.65292515E+03</rscale>
<asrwt>0</asrwt>
<pdfrwt beam="1">  1        1 0.38755654E+00 0.65292515E+03</pdfrwt>
<pdfrwt beam="2">0</pdfrwt>
<totfact> 0.15186645E+00</totfact>
</mgrwt>
</event>
<event>
 6    1  0.5715586E-003  0.6485470E+03  0.7818608E-02  0.9809509E-01
          1   -1    0    0  502    0  0.00000000000E+00  0.00000000000E+00  0.10515342412E+03  0.10515342412E+03  0.00000000000E+00 0.  1.
         13   -1    0    0    0    0 -0.00000000000E+00 -0.00000000000E+00 -0.10000000000E+04  0.10000000000E+04  0.00000000000E+00 0.  1.
    9000005    2    1    2  501    0 -0.72857054505E-04  0.73229325551E-04 -0.89484667377E+03  0.11051532818E+04  0.64854699655E+03 0.  0.
         13    1    3    3    0    0  0.79668148554E+02 -0.27167799521E+03 -0.71684206419E+03  0.77072595127E+03  0.00000000000E+00 0.  1.
          1    1    3    3  501    0 -0.79668221411E+02  0.27167806844E+03 -0.17800460958E+03  0.33442733053E+03  0.00000000000E+00 0.  1.
         21    1    1    2  502  501  0.72857054502E-04 -0.73229325514E-04  0.97892217964E-04  0.14231504082E-03  0.00000000000E+00 0. -1.
<mgrwt>
<rscale>  1 0.64854700E+03</rscale>
<asrwt>0</asrwt>
<pdfrwt beam="1">  1        1 0.38237689E+00 0.64854700E+03</pdfrwt>
<pdfrwt beam="2">0</pdfrwt>
<totfact> 0.16022251E+00</totfact>
</mgrwt>
</event>
<event>
 6    1  0.5715586E-003  0.6546473E+03  0.7818608E-02  0.9798098E-01
          1   -1    0    0  502    0  0.00000000000E+00  0.00000000000E+00  0.10715756550E+03  0.10715756550E+03  0.00000000000E+00 0.  1.
         13   -1    0    0    0    0 -0.00000000000E+00 -0.00000000000E+00 -0.10000000000E+04  0.10000000000E+04  0.00000000000E+00 0.  1.
    9000005    2    1    2  501    0  0.84384217034E-02 -0.15386157473E-01 -0.89285400439E+03  0.11071365464E+04  0.65464727821E+03 0.  0.
         13    1    3    3    0    0  0.13514883485E+02  0.52461404494E+02 -0.99235756696E+03  0.99383519345E+03  0.00000000000E+00 0.  1.
          1    1    3    3  501    0 -0.13506445063E+02 -0.52476790652E+02  0.99503562561E+02  0.11330135294E+03  0.00000000000E+00 0.  1.
         21    1    1    2  502  501 -0.84384217034E-02  0.15386157473E-01  0.11569898425E-01  0.21019118731E-01  0.00000000000E+00 0.  1.
<mgrwt>
<rscale>  1 0.65464728E+03</rscale>
<asrwt>0</asrwt>
<pdfrwt beam="1">  1        1 0.38966470E+00 0.65464728E+03</pdfrwt>
<pdfrwt beam="2">0</pdfrwt>
<totfact> 0.14858704E+00</totfact>
</mgrwt>
</event>
<event>
 6    1  0.5715586E-003  0.6496533E+03  0.7818608E-02  0.9807430E-01
          1   -1    0    0  502    0  0.00000000000E+00  0.00000000000E+00  0.10551247974E+03  0.10551247974E+03  0.00000000000E+00 0.  1.
         13   -1    0    0    0    0 -0.00000000000E+00 -0.00000000000E+00 -0.10000000000E+04  0.10000000000E+04  0.00000000000E+00 0.  1.
    9000005    2    1    2  501    0  0.18202776772E-04  0.69166160216E-04 -0.89448762753E+03  0.11055123508E+04  0.64965332446E+03 0.  0.
         13    1    3    3    0    0 -0.22353549698E+03  0.12622652192E+03 -0.10856312231E+03  0.27872424504E+03  0.00000000000E+00 0.  1.
          3    1    3    3  501    0  0.22353551519E+03 -0.12622645275E+03 -0.78592450523E+03  0.82678810577E+03  0.00000000000E+00 0.  1.
         21    1    1    2  502  501 -0.18202776769E-04 -0.69166160219E-04  0.10727442467E-03  0.12893060533E-03  0.00000000000E+00 0.  1.
<mgrwt>
<rscale>  1 0.64965332E+03</rscale>
<asrwt>0</asrwt>
<pdfrwt beam="1">  1        1 0.38368255E+00 0.64965332E+03</pdfrwt>
<pdfrwt beam="2">0</pdfrwt>
<totfact> 0.15807582E+00</totfact>
</mgrwt>
</event>
<event>
 6    1  0.5715586E-003  0.4997529E+03  0.7818608E-02  0.1013843E+00
          1   -1    0    0  502    0  0.00000000000E+00  0.00000000000E+00  0.62707879926E+02  0.62707879926E+02  0.00000000000E+00 0.  1.
         13   -1    0    0    0    0 -0.00000000000E+00 -0.00000000000E+00 -0.10000000000E+04  0.10000000000E+04  0.00000000000E+00 0.  1.
    9000005    2    1    2  501    0  0.37810382515E-01  0.14380190539E+00 -0.93753988474E+03  0.10624189233E+04  0.49975284989E+03 0.  0.
         13    1    3    3    0    0 -0.84697908555E+02  0.18143825701E+03 -0.78679904578E+03  0.81187826382E+03  0.00000000000E+00 0.  1.
          1    1    3    3  501    0  0.84735718937E+02 -0.18129445511E+03 -0.15074083896E+03  0.25054065947E+03  0.00000000000E+00 0.  1.
         21    1    1    2  502  501 -0.37810382515E-01 -0.14380190539E+00  0.24776466178E+00  0.28895664146E+00  0.00000000000E+00 0. -1.
<mgrwt>
<rscale>  1 0.49975287E+03</rscale>
<asrwt>0</asrwt>
<pdfrwt beam="1">  1        1 0.22802914E+00 0.49975287E+03</pdfrwt>
<pdfrwt beam="2">0</pdfrwt>
<totfact> 0.77064248E+00</totfact>
</mgrwt>
</event>
<event>
 6    1  0.5715586E-003  0.6299406E+03  0.7818608E-02  0.9845165E-01
          1   -1    0    0  502    0  0.00000000000E+00  0.00000000000E+00  0.99208364199E+02  0.99208364199E+02  0.00000000000E+00 0.  1.
         13   -1    0    0    0    0 -0.00000000000E+00 -0.00000000000E+00 -0.10000000000E+04  0.10000000000E+04  0.00000000000E+00 0.  1.
    9000005    2    1    2  501    0  0.88635250626E-03  0.38999264028E-03 -0.90079359160E+03  0.10992061818E+04  0.62994058088E+03 0.  0.
         13    1    3    3    0    0  0.12615621086E+03  0.30262155913E+02 -0.95121270018E+03  0.96001916054E+03  0.00000000000E+00 0.  1.
          3    1    3    3  501    0 -0.12615532451E+03 -0.30261765920E+02  0.50419108576E+02  0.13918702126E+03  0.00000000000E+00 0.  1.
         21    1    1    2  502  501 -0.88635250625E-03 -0.38999264029E-03  0.19557988862E-02  0.21823987509E-02  0.00000000000E+00 0. -1.
<mgrwt>
<rscale>  1 0.62994058E+03</rscale>
<asrwt>0</asrwt>
<pdfrwt beam="1">  1        1 0.36075845E+00 0.62994058E+03</pdfrwt>
<pdfrwt beam="2">0</pdfrwt>
<totfact> 0.20008605E+00</totfact>
</mgrwt>
</event>
<event>
 6    1  0.5715586E-003  0.6601968E+03  0.7818608E-02  0.9787832E-01
          1   -1    0    0  502    0  0.00000000000E+00  0.00000000000E+00  0.10910770688E+03  0.10910770688E+03  0.00000000000E+00 0.  1.
         13   -1    0    0    0    0 -0.00000000000E+00 -0.00000000000E+00 -0.10000000000E+04  0.10000000000E+04  0.00000000000E+00 0.  1.
    9000005    2    1    2  501    0 -0.12109228361E-01  0.80647848955E-03 -0.89103476969E+03  0.11089647144E+04  0.66019677126E+03 0.  0.
         13    1    3    3    0    0 -0.21448565434E+03 -0.21359201282E+03 -0.22431961190E+03  0.37675579908E+03  0.00000000000E+00 0.  1.
          3    1    3    3  501    0  0.21447354512E+03  0.21359281929E+03 -0.66671515779E+03  0.73220891529E+03  0.00000000000E+00 0.  1.
         21    1    1    2  502  501  0.12109228361E-01 -0.80647848957E-03  0.14247657102E+00  0.14299250718E+00  0.00000000000E+00 0. -1.
<mgrwt>
<rscale>  1 0.66019677E+03</rscale>
<asrwt>0</asrwt>
<pdfrwt beam="1">  1        1 0.39675613E+00 0.66019677E+03</pdfrwt>
<pdfrwt beam="2">0</pdfrwt>
<totfact> 0.13804771E+00</totfact>
</mgrwt>
</event>
<event>
 6    1  0.5715586E-003  0.6483344E+03  0.7818608E-02  0.9809910E-01
          3   -1    0    0  502    0  0.00000000000E+00  0.00000000000E+00  0.10508462183E+03  0.10508462183E+03  0.00000000000E+00 0.  1.
         13   -1    0    0    0    0 -0.00000000000E+00 -0.00000000000E+00 -0.10000000000E+04  0.10000000000E+04  0.00000000000E+00 0.  1.
    9000005    2    1    2  501    0  0.51453482271E-04  0.38997300635E-04 -0.89491562648E+03  0.11050843653E+04  0.64833438581E+03 0.  0.
         13    1    3    3    0    0 -0.59572434332E+02 -0.63209975235E+02  0.84880514574E+02  0.12144578072E+03  0.00000000000E+00 0.  1.
          1    1    3    3  501    0  0.59572485786E+02  0.63210014232E+02 -0.97979614106E+03  0.98363858454E+03  0.00000000000E+00 0.  1.
         21    1    1    2  502  501 -0.51453482274E-04 -0.38997300635E-04  0.24831444026E-03  0.25657028576E-03  0.00000000000E+00 0. -1.
<mgrwt>
<rscale>  1 0.64833439E+03</rscale>
<asrwt>0</asrwt>
<pdfrwt beam="1">  1        3 0.38212670E+00 0.64833439E+03</pdfrwt>
<pdfrwt beam="2">0</pdfrwt>
<totfact> 0.73572847E-02</totfact>
</mgrwt>
</event>
<event>
 6    1  0.5715586E-003  0.6519395E+03  0.7818608E-02  0.9803147E-01
          1   -1    0    0  502    0  0.00000000000E+00  0.00000000000E+00  0.10625840779E+03  0.10625840779E+03  0.00000000000E+00 0.  1.
         13   -1    0    0    0    0 -0.00000000000E+00 -0.00000000000E+00 -0.10000000000E+04  0.10000000000E+04  0.00000000000E+00 0.  1.
    9000005    2    1    2  501    0  0.30153702141E-04  0.23323683756E-04 -0.89374371008E+03  0.11062562896E+04  0.65193953623E+03 0.  0.
         13    1    3    3    0    0 -0.32282274563E+03  0.16761491250E+02 -0.37566783439E+03  0.49560245609E+03  0.00000000000E+00 0.  1.
          1    1    3    3  501    0  0.32282277579E+03 -0.16761467927E+02 -0.51807587570E+03  0.61065383349E+03  0.00000000000E+00 0.  1.
         21    1    1    2  502  501 -0.30153702135E-04 -0.23323683755E-04  0.21178777199E-02  0.21182207808E-02  0.00000000000E+00 0.  1.
<mgrwt>
<rscale>  1 0.65193954E+03</rscale>
<asrwt>0</asrwt>
<pdfrwt beam="1">  1        1 0.38639502E+00 0.65193954E+03</pdfrwt>
<pdfrwt beam="2">0</pdfrwt>
<totfact> 0.15370355E+00</totfact>
</mgrwt>
</event>
<event>
 6    1  0.5715586E-003  0.6417908E+03  0.7818608E-02  0.9822306E-01
          1   -1    0    0  502    0  0.00000000000E+00  0.00000000000E+00  0.10297694861E+03  0.10297694861E+03  0.00000000000E+00 0.  1.
         13   -1    0    0    0    0 -0.00000000000E+00 -0.00000000000E+00 -0.10000000000E+04  0.10000000000E+04  0.00000000000E+00 0.  1.
    9000005    2    1    2  501    0 -0.36637562498E-02 -0.11936170608E-04 -0.89702492050E+03  0.11029728356E+04  0.64179075100E+03 0.  0.
         13    1    3    3    0    0  0.63965106446E+02 -0.29658106731E+03 -0.62811654123E+03  0.69755448080E+03  0.00000000000E+00 0.  1.
          3    1    3    3  501    0 -0.63968770203E+02  0.29658105537E+03 -0.26890837927E+03  0.40541835480E+03  0.00000000000E+00 0.  1.
         21    1    1    2  502  501  0.36637562498E-02  0.11936170633E-04  0.18691066994E-02  0.41130052497E-02  0.00000000000E+00 0.  1.
<mgrwt>
<rscale>  1 0.64179075E+03</rscale>
<asrwt>0</asrwt>
<pdfrwt beam="1">  1        1 0.37446242E+00 0.64179075E+03</pdfrwt>
<pdfrwt beam="2">0</pdfrwt>
<totfact> 0.17384270E+00</totfact>
</mgrwt>
</event>
<event>
 6    1  0.5715586E-003  0.6485738E+03  0.7818608E-02  0.9809459E-01
          1   -1    0    0  502    0  0.00000000000E+00  0.00000000000E+00  0.10518740622E+03  0.10518740622E+03  0.00000000000E+00 0.  1.
         13   -1    0    0    0    0 -0.00000000000E+00 -0.00000000000E+00 -0.10000000000E+04  0.10000000000E+04  0.00000000000E+00 0.  1.
    9000005    2    1    2  501    0 -0.15588137602E-02 -0.44194570779E-02 -0.89483776212E+03  0.11051618053E+04  0.64857381645E+03 0.  0.
         13    1    3    3    0    0 -0.93237372079E+02  0.28971445534E+03 -0.63818084316E+03  0.70703780787E+03  0.00000000000E+00 0.  1.
          3    1    3    3  501    0  0.93235813266E+02 -0.28971887479E+03 -0.25665691895E+03  0.39812399744E+03  0.00000000000E+00 0.  1.
         21    1    1    2  502  501  0.15588137602E-02  0.44194570779E-02  0.25168336956E-01  0.25600911827E-01  0.00000000000E+00 0.  1.
<mgrwt>
<rscale>  1 0.64857382E+03</rscale>
<asrwt>0</asrwt>
<pdfrwt beam="1">  1        1 0.38250047E+00 0.64857382E+03</pdfrwt>
<pdfrwt beam="2">0</pdfrwt>
<totfact> 0.16002045E+00</totfact>
</mgrwt>
</event>
<event>
 6    1  0.5715586E-003  0.6269789E+03  0.7818608E-02  0.9850962E-01
          1   -1    0    0  502    0  0.00000000000E+00  0.00000000000E+00  0.98281678138E+02  0.98281678138E+02  0.00000000000E+00 0.  1.
         13   -1    0    0    0    0 -0.00000000000E+00 -0.00000000000E+00 -0.10000000000E+04  0.10000000000E+04  0.00000000000E+00 0.  1.
    9000005    2    1    2  501    0 -0.10206927590E-03 -0.10440121248E-03 -0.90172436144E+03  0.10982756368E+04  0.62697890743E+03 0.  0.
         13    1    3    3    0    0  0.25726355472E+03  0.58591626500E+02 -0.15432295562E+03  0.30566826776E+03  0.00000000000E+00 0.  1.
          3    1    3    3  501    0 -0.25726365679E+03 -0.58591730901E+02 -0.74740140582E+03  0.79260736904E+03  0.00000000000E+00 0.  1.
         21    1    1    2  502  501  0.10206927595E-03  0.10440121248E-03  0.60395789988E-02  0.60413435785E-02  0.00000000000E+00 0.  1.
<mgrwt>
<rscale>  1 0.62697891E+03</rscale>
<asrwt>0</asrwt>
<pdfrwt beam="1">  1        1 0.35738867E+00 0.62697891E+03</pdfrwt>
<pdfrwt beam="2">0</pdfrwt>
<totfact> 0.20710039E+00</totfact>
</mgrwt>
</event>
<event>
 6    1  0.5715586E-003  0.6378701E+03  0.7818608E-02  0.9829810E-01
          1   -1    0    0  502    0  0.00000000000E+00  0.00000000000E+00  0.10173993389E+03  0.10173993389E+03  0.00000000000E+00 0.  1.
         13   -1    0    0    0    0 -0.00000000000E+00 -0.00000000000E+00 -0.10000000000E+04  0.10000000000E+04  0.00000000000E+00 0.  1.
    9000005    2    1    2  501    0  0.27313900798E-01  0.39199947363E-01 -0.89824331461E+03  0.11016893049E+04  0.63787010429E+03 0.  0.
         13    1    3    3    0    0  0.44679033363E+02 -0.29191642366E+03 -0.24113905088E+03  0.38126035237E+03  0.00000000000E+00 0.  1.
          3    1    3    3  501    0 -0.44651719463E+02  0.29195562361E+03 -0.65710426372E+03  0.72042895251E+03  0.00000000000E+00 0.  1.
         21    1    1    2  502  501 -0.27313900798E-01 -0.39199947363E-01 -0.16751499158E-01  0.50629021067E-01  0.00000000000E+00 0.  1.
<mgrwt>
<rscale>  1 0.63787011E+03</rscale>
<asrwt>0</asrwt>
<pdfrwt beam="1">  1        1 0.36996418E+00 0.63787011E+03</pdfrwt>
<pdfrwt beam="2">0</pdfrwt>
<totfact> 0.18207171E+00</totfact>
</mgrwt>
</event>
<event>
 6    1  0.5715586E-003  0.6310795E+03  0.7818608E-02  0.9842944E-01
          3   -1    0    0  502    0  0.00000000000E+00  0.00000000000E+00  0.99565506384E+02  0.99565506384E+02  0.00000000000E+00 0.  1.
         13   -1    0    0    0    0 -0.00000000000E+00 -0.00000000000E+00 -0.10000000000E+04  0.10000000000E+04  0.00000000000E+00 0.  1.
    9000005    2    1    2  501    0  0.33869814307E-03 -0.16894309300E-03 -0.90043436695E+03  0.10995651073E+04  0.63107953216E+03 0.  0.
         13    1    3    3    0    0 -0.17509451622E+01 -0.26823557366E+03 -0.73974209548E+03  0.78687467656E+03  0.00000000000E+00 0.  1.
          3    1    3    3  501    0  0.17512838604E+01  0.26823540472E+03 -0.16069227147E+03  0.31269043070E+03  0.00000000000E+00 0.  1.
         21    1    1    2  502  501 -0.33869814307E-03  0.16894309300E-03 -0.12666885115E-03  0.39912804793E-03  0.00000000000E+00 0.  1.
<mgrwt>
<rscale>  1 0.63107953E+03</rscale>
<asrwt>0</asrwt>
<pdfrwt beam="1">  1        3 0.36205715E+00 0.63107953E+03</pdfrwt>
<pdfrwt beam="2">0</pdfrwt>
<totfact> 0.94232632E-02</totfact>
</mgrwt>
</event>
<event>
 6    1  0.5715586E-003  0.6673339E+03  0.7818608E-02  0.9774786E-01
          1   -1    0    0  502    0  0.00000000000E+00  0.00000000000E+00  0.11224042339E+03  0.11224042339E+03  0.00000000000E+00 0.  1.
         13   -1    0    0    0    0 -0.00000000000E+00 -0.00000000000E+00 -0.10000000000E+04  0.10000000000E+04  0.00000000000E+00 0.  1.
    9000005    2    1    2  501    0  0.90580265932E-02 -0.82982576144E-02 -0.88866630484E+03  0.11113336120E+04  0.66733394605E+03 0.  0.
         13    1    3    3    0    0  0.77651913336E+02  0.17610648106E+01 -0.98473825834E+03  0.98779671918E+03  0.00000000000E+00 0.  1.
          1    1    3    3  501    0 -0.77642855310E+02 -0.17693630682E+01  0.96071953501E+02  0.12353689277E+03  0.00000000000E+00 0.  1.
         21    1    1    2  502  501 -0.90580265932E-02  0.82982576144E-02  0.90672822864E+00  0.90681144101E+00  0.00000000000E+00 0.  1.
<mgrwt>
<rscale>  1 0.66733395E+03</rscale>
<asrwt>0</asrwt>
<pdfrwt beam="1">  1        1 0.40814785E+00 0.66733395E+03</pdfrwt>
<pdfrwt beam="2">0</pdfrwt>
<totfact> 0.12262436E+00</totfact>
</mgrwt>
</event>
<event>
 6    1  0.5715586E-003  0.6451014E+03  0.7818608E-02  0.9816015E-01
          1   -1    0    0  502    0  0.00000000000E+00  0.00000000000E+00  0.10439176007E+03  0.10439176007E+03  0.00000000000E+00 0.  1.
         13   -1    0    0    0    0 -0.00000000000E+00 -0.00000000000E+00 -0.10000000000E+04  0.10000000000E+04  0.00000000000E+00 0.  1.
    9000005    2    1    2  501    0  0.12395069837E+00 -0.15699810362E+00 -0.89592948252E+03  0.11040133304E+04  0.64510135338E+03 0.  0.
         13    1    3    3    0    0 -0.67474567637E+02 -0.31403097848E+03 -0.39638166561E+03  0.51018300398E+03  0.00000000000E+00 0.  1.
          3    1    3    3  501    0  0.67598518335E+02  0.31387398038E+03 -0.49954781692E+03  0.59383032646E+03  0.00000000000E+00 0.  1.
         21    1    1    2  502  501 -0.12395069837E+00  0.15699810362E+00  0.32124259066E+00  0.37842962651E+00  0.00000000000E+00 0.  1.
<mgrwt>
<rscale>  1 0.64510138E+03</rscale>
<asrwt>0</asrwt>
<pdfrwt beam="1">  1        1 0.37960720E+00 0.64510138E+03</pdfrwt>
<pdfrwt beam="2">0</pdfrwt>
<totfact> 0.16490175E+00</totfact>
</mgrwt>
</event>
<event>
 6    1  0.5715586E-003  0.6287447E+03  0.7818608E-02  0.9847502E-01
          1   -1    0    0  502    0  0.00000000000E+00  0.00000000000E+00  0.98830083868E+02  0.98830083868E+02  0.00000000000E+00 0.  1.
         13   -1    0    0    0    0 -0.00000000000E+00 -0.00000000000E+00 -0.10000000000E+04  0.10000000000E+04  0.00000000000E+00 0.  1.
    9000005    2    1    2  501    0  0.15266189166E-05 -0.18883645538E-04 -0.90117002898E+03  0.10988299694E+04  0.62874468635E+03 0.  0.
         13    1    3    3    0    0 -0.24556645224E+03  0.19586317198E+03 -0.47301374718E+03  0.56780918416E+03  0.00000000000E+00 0.  1.
          1    1    3    3  501    0  0.24556645377E+03 -0.19586319086E+03 -0.42815628180E+03  0.53102078528E+03  0.00000000000E+00 0.  1.
         21    1    1    2  502  501 -0.15266189194E-05  0.18883645559E-04  0.11284742366E-03  0.11442667373E-03  0.00000000000E+00 0.  1.
<mgrwt>
<rscale>  1 0.62874469E+03</rscale>
<asrwt>0</asrwt>
<pdfrwt beam="1">  1        1 0.35938288E+00 0.62874469E+03</pdfrwt>
<pdfrwt beam="2">0</pdfrwt>
<totfact> 0.20292086E+00</totfact>
</mgrwt>
</event>
<event>
 6    1  0.5715586E-003  0.5537330E+03  0.7818608E-02  0.1000634E+00
          1   -1    0    0  502    0  0.00000000000E+00  0.00000000000E+00  0.76688462472E+02  0.76688462472E+02  0.00000000000E+00 0.  1.
         13   -1    0    0    0    0 -0.00000000000E+00 -0.00000000000E+00 -0.10000000000E+04  0.10000000000E+04  0.00000000000E+00 0.  1.
    9000005    2    1    2  501    0  0.40535167905E-02 -0.33059366949E-02 -0.92334472896E+03  0.10766548614E+04  0.55373296999E+03 0.  0.
         13    1    3    3    0    0 -0.68931420254E+02 -0.20386045084E+03 -0.12297104460E+03  0.24785580874E+03  0.00000000000E+00 0.  1.
          1    1    3    3  501    0  0.68935473771E+02  0.20385714491E+03 -0.80037368437E+03  0.82879905267E+03  0.00000000000E+00 0.  1.
         21    1    1    2  502  501 -0.40535167905E-02  0.33059366949E-02  0.33191436507E-01  0.33601066548E-01  0.00000000000E+00 0. -1.
<mgrwt>
<rscale>  1 0.55373297E+03</rscale>
<asrwt>0</asrwt>
<pdfrwt beam="1">  1        1 0.27886772E+00 0.55373297E+03</pdfrwt>
<pdfrwt beam="2">0</pdfrwt>
<totfact> 0.45889488E+00</totfact>
</mgrwt>
</event>
<event>
 6    1  0.5715586E-003  0.6729820E+03  0.7818608E-02  0.9764586E-01
          1   -1    0    0  502    0  0.00000000000E+00  0.00000000000E+00  0.11433789727E+03  0.11433789727E+03  0.00000000000E+00 0.  1.
         13   -1    0    0    0    0 -0.00000000000E+00 -0.00000000000E+00 -0.10000000000E+04  0.10000000000E+04  0.00000000000E+00 0.  1.
    9000005    2    1    2  501    0  0.13486248863E-02  0.41740851346E-01 -0.88677337513E+03  0.11132258404E+04  0.67298198427E+03 0.  0.
         13    1    3    3    0    0  0.16682235071E+03 -0.14781291583E+03 -0.86034992970E+03  0.88875213436E+03  0.00000000000E+00 0.  1.
          1    1    3    3  501    0 -0.16682100209E+03  0.14785465668E+03 -0.26423445431E+02  0.22447370605E+03  0.00000000000E+00 0.  1.
         21    1    1    2  502  501 -0.13486248863E-02 -0.41740851346E-01  0.11112723985E+01  0.11120568606E+01  0.00000000000E+00 0. -1.
<mgrwt>
<rscale>  1 0.67298199E+03</rscale>
<asrwt>0</asrwt>
<pdfrwt beam="1">  1        1 0.41577505E+00 0.67298199E+03</pdfrwt>
<pdfrwt beam="2">0</pdfrwt>
<totfact> 0.11320295E+00</totfact>
</mgrwt>
</event>
<event>
 6    1  0.5715586E-003  0.6598641E+03  0.7818608E-02  0.9788444E-01
          1   -1    0    0  502    0  0.00000000000E+00  0.00000000000E+00  0.10886289688E+03  0.10886289688E+03  0.00000000000E+00 0.  1.
         13   -1    0    0    0    0 -0.00000000000E+00 -0.00000000000E+00 -0.10000000000E+04  0.10000000000E+04  0.00000000000E+00 0.  1.
    9000005    2    1    2  501    0  0.61909990672E-02  0.21661327180E-01 -0.89109408693E+03  0.11088143383E+04  0.65986405008E+03 0.  0.
         13    1    3    3    0    0 -0.14830702377E+02 -0.29002139466E+03 -0.18242676708E+03  0.34294589142E+03  0.00000000000E+00 0.  1.
          3    1    3    3  501    0  0.14836893376E+02  0.29004305599E+03 -0.70866731986E+03  0.76586844690E+03  0.00000000000E+00 0.  1.
         21    1    1    2  502  501 -0.61909990672E-02 -0.21661327180E-01 -0.43016185967E-01  0.48558560726E-01  0.00000000000E+00 0. -1.
<mgrwt>
<rscale>  1 0.65986405E+03</rscale>
<asrwt>0</asrwt>
<pdfrwt beam="1">  1        1 0.39586591E+00 0.65986405E+03</pdfrwt>
<pdfrwt beam="2">0</pdfrwt>
<totfact> 0.13932135E+00</totfact>
</mgrwt>
</event>
<event>
 6    1  0.7945097E-003  0.5720080E+03  0.7818608E-02  0.9965245E-01
          1   -1    0    0  502    0  0.00000000000E+00  0.00000000000E+00  0.81798816112E+02  0.81798816112E+02  0.00000000000E+00 0.  1.
         13   -1    0    0    0    0 -0.00000000000E+00 -0.00000000000E+00 -0.10000000000E+04  0.10000000000E+04  0.00000000000E+00 0.  1.
    9000005    2    1    2  501    0 -0.96636393010E-03  0.95463115554E-03 -0.91820062534E+03  0.10817973474E+04  0.57200796536E+03 0.  0.
         13    1    3    3    0    0 -0.35740631360E+01  0.26540842840E+03 -0.66053345705E+03  0.71186997104E+03  0.00000000000E+00 0.  1.
          3    1    3    3  501    0  0.35730967720E+01 -0.26540747377E+03 -0.25766716829E+03  0.36992737634E+03  0.00000000000E+00 0.  1.
         21    1    1    2  502  501  0.96636393010E-03 -0.95463115552E-03 -0.55854434691E-03  0.14687245065E-02  0.00000000000E+00 0.  1.
<mgrwt>
<rscale>  1 0.57200797E+03</rscale>
<asrwt>0</asrwt>
<pdfrwt beam="1">  1        1 0.29745087E+00 0.57200797E+03</pdfrwt>
<pdfrwt beam="2">0</pdfrwt>
<totfact> 0.38032530E+00</totfact>
</mgrwt>
</event>
<event>
 6    1  0.5715586E-003  0.6526946E+03  0.7818608E-02  0.9801736E-01
          1   -1    0    0  502    0  0.00000000000E+00  0.00000000000E+00  0.10650258607E+03  0.10650258607E+03  0.00000000000E+00 0.  1.
         13   -1    0    0    0    0 -0.00000000000E+00 -0.00000000000E+00 -0.10000000000E+04  0.10000000000E+04  0.00000000000E+00 0.  1.
    9000005    2    1    2  501    0 -0.26492088523E-05 -0.21682404565E-05 -0.89349744853E+03  0.11065025513E+04  0.65269457291E+03 0.  0.
         13    1    3    3    0    0 -0.29123089526E+03 -0.97317273329E+02 -0.25937218470E+03  0.40194529010E+03  0.00000000000E+00 0.  1.
          3    1    3    3  501    0  0.29123089261E+03  0.97317271161E+02 -0.63412526383E+03  0.70455726120E+03  0.00000000000E+00 0.  1.
         21    1    1    2  502  501  0.26492088104E-05  0.21682404652E-05  0.34594660727E-04  0.34763632216E-04  0.00000000000E+00 0.  1.
<mgrwt>
<rscale>  1 0.65269457E+03</rscale>
<asrwt>0</asrwt>
<pdfrwt beam="1">  1        1 0.38728295E+00 0.65269457E+03</pdfrwt>
<pdfrwt beam="2">0</pdfrwt>
<totfact> 0.15229724E+00</totfact>
</mgrwt>
</event>
<event>
 6    1  0.5715586E-003  0.6561590E+03  0.7818608E-02  0.9795290E-01
          1   -1    0    0  502    0  0.00000000000E+00  0.00000000000E+00  0.10936270792E+03  0.10936270792E+03  0.00000000000E+00 0.  1.
         13   -1    0    0    0    0 -0.00000000000E+00 -0.00000000000E+00 -0.10000000000E+04  0.10000000000E+04  0.00000000000E+00 0.  1.
    9000005    2    1    2  501    0  0.45253175620E+01  0.18433289133E+01 -0.88675161960E+03  0.11031197270E+04  0.65614085439E+03 0.  0.
         13    1    3    3    0    0 -0.27541838567E+03  0.67226297477E+02 -0.71279867113E+03  0.76710925415E+03  0.00000000000E+00 0.  1.
          1    1    3    3  501    0  0.27994370324E+03 -0.65382968564E+02 -0.17395294847E+03  0.33601047281E+03  0.00000000000E+00 0.  1.
         21    1    1    2  502  501 -0.45253175620E+01 -0.18433289133E+01 -0.38856724820E+01  0.62429809512E+01  0.00000000000E+00 0. -1.
<mgrwt>
<rscale>  1 0.65615905E+03</rscale>
<asrwt>0</asrwt>
<pdfrwt beam="1">  1        1 0.39768341E+00 0.65615905E+03</pdfrwt>
<pdfrwt beam="2">0</pdfrwt>
<totfact> 0.13684513E+00</totfact>
</mgrwt>
</event>
<event>
 6    1  0.5715586E-003  0.6466031E+03  0.7818608E-02  0.9813174E-01
          1   -1    0    0  502    0  0.00000000000E+00  0.00000000000E+00  0.10452389258E+03  0.10452389258E+03  0.00000000000E+00 0.  1.
         13   -1    0    0    0    0 -0.00000000000E+00 -0.00000000000E+00 -0.10000000000E+04  0.10000000000E+04  0.00000000000E+00 0.  1.
    9000005    2    1    2  501    0 -0.71523754741E-06 -0.15124959702E-05 -0.89547611044E+03  0.11045238891E+04  0.64660309100E+03 0.  0.
         13    1    3    3    0    0 -0.50040340680E+02 -0.68999798256E+02 -0.98046169961E+03  0.98415961727E+03  0.00000000000E+00 0.  1.
          1    1    3    3  501    0  0.50040339965E+02  0.68999796744E+02  0.84985589170E+02  0.12036427186E+03  0.00000000000E+00 0.  1.
         21    1    1    2  502  501  0.71523755300E-06  0.15124959692E-05  0.30210232100E-05  0.34533737199E-05  0.00000000000E+00 0. -1.
<mgrwt>
<rscale>  1 0.64660309E+03</rscale>
<asrwt>0</asrwt>
<pdfrwt beam="1">  1        1 0.38008768E+00 0.64660309E+03</pdfrwt>
<pdfrwt beam="2">0</pdfrwt>
<totfact> 0.16405351E+00</totfact>
</mgrwt>
</event>
<event>
 6    1  0.5715586E-003  0.6467474E+03  0.7818608E-02  0.9812902E-01
          1   -1    0    0  502    0  0.00000000000E+00  0.00000000000E+00  0.12105622155E+03  0.12105622155E+03  0.00000000000E+00 0.  1.
         13   -1    0    0    0    0 -0.00000000000E+00 -0.00000000000E+00 -0.10000000000E+04  0.10000000000E+04  0.00000000000E+00 0.  1.
    9000005    2    1    2  501    0 -0.33471120865E+00  0.12767957375E+01 -0.89540026551E+03  0.11045468846E+04  0.64674604186E+03 0.  0.
         13    1    3    3    0    0  0.31485580504E+03  0.59115502345E+02 -0.52229185418E+03  0.61271331104E+03  0.00000000000E+00 0.  1.
          1    1    3    3  501    0 -0.31519051625E+03 -0.57838706607E+02 -0.37310841133E+03  0.49183357360E+03  0.00000000000E+00 0.  1.
         21    1    1    2  502  501  0.33471120865E+00 -0.12767957375E+01  0.16456487060E+02  0.16509336913E+02  0.00000000000E+00 0.  1.
<mgrwt>
<rscale>  1 0.64674739E+03</rscale>
<asrwt>0</asrwt>
<pdfrwt beam="1">  1        1 0.44020537E+00 0.64674739E+03</pdfrwt>
<pdfrwt beam="2">0</pdfrwt>
<totfact> 0.88168007E-01</totfact>
</mgrwt>
</event>
<event>
 6    1  0.5715586E-003  0.6026235E+03  0.7818608E-02  0.9899978E-01
          1   -1    0    0  502    0  0.00000000000E+00  0.00000000000E+00  0.90873598189E+02  0.90873598189E+02  0.00000000000E+00 0.  1.
         13   -1    0    0    0    0 -0.00000000000E+00 -0.00000000000E+00 -0.10000000000E+04  0.10000000000E+04  0.00000000000E+00 0.  1.
    9000005    2    1    2  501    0  0.37799007313E-01 -0.83471675085E-01 -0.90918347837E+03  0.10907656444E+04  0.60262350209E+03 0.  0.
         13    1    3    3    0    0  0.26620457647E+03 -0.14039921560E+03 -0.48231873963E+03  0.56851401291E+03  0.00000000000E+00 0.  1.
          3    1    3    3  501    0 -0.26616677746E+03  0.14031574393E+03 -0.42686473874E+03  0.52225163149E+03  0.00000000000E+00 0.  1.
         21    1    1    2  502  501 -0.37799007313E-01  0.83471675085E-01  0.57076560966E-01  0.10795378320E+00  0.00000000000E+00 0. -1.
<mgrwt>
<rscale>  1 0.60262351E+03</rscale>
<asrwt>0</asrwt>
<pdfrwt beam="1">  1        1 0.33045014E+00 0.60262351E+03</pdfrwt>
<pdfrwt beam="2">0</pdfrwt>
<totfact> 0.27241186E+00</totfact>
</mgrwt>
</event>
<event>
 6    1  0.5715586E-003  0.6515416E+03  0.7818608E-02  0.9803891E-01
          1   -1    0    0  502    0  0.00000000000E+00  0.00000000000E+00  0.16039559026E+03  0.16039559026E+03  0.00000000000E+00 0.  1.
         13   -1    0    0    0    0 -0.00000000000E+00 -0.00000000000E+00 -0.10000000000E+04  0.10000000000E+04  0.00000000000E+00 0.  1.
    9000005    2    1    2  501    0 -0.17884873032E+01  0.21652053461E+01 -0.89383320457E+03  0.11060941263E+04  0.65153551847E+03 0.  0.
         13    1    3    3    0    0 -0.14032621926E+03 -0.65148887126E+02 -0.93415362871E+03  0.94687846493E+03  0.00000000000E+00 0.  1.
          1    1    3    3  501    0  0.13853773195E+03  0.67314092472E+02  0.40320424148E+02  0.15921566136E+03  0.00000000000E+00 0.  1.
         21    1    1    2  502  501  0.17884873032E+01 -0.21652053461E+01  0.54228794830E+02  0.54301463974E+02  0.00000000000E+00 0. -1.
<mgrwt>
<rscale>  1 0.65154157E+03</rscale>
<asrwt>0</asrwt>
<pdfrwt beam="1">  1        1 0.58325792E+00 0.65154157E+03</pdfrwt>
<pdfrwt beam="2">0</pdfrwt>
<totfact> 0.17581443E-01</totfact>
</mgrwt>
</event>
<event>
 6    1  0.5715586E-003  0.6769901E+03  0.7818608E-02  0.9757412E-01
          1   -1    0    0  502    0  0.00000000000E+00  0.00000000000E+00  0.11589263886E+03  0.11589263886E+03  0.00000000000E+00 0.  1.
         13   -1    0    0    0    0 -0.00000000000E+00 -0.00000000000E+00 -0.10000000000E+04  0.10000000000E+04  0.00000000000E+00 0.  1.
    9000005    2    1    2  501    0 -0.16196107704E+01  0.62279320104E+00 -0.88474684373E+03  0.11140433286E+04  0.67698785034E+03 0.  0.
         13    1    3    3    0    0  0.79792920545E+02 -0.19509730668E+03 -0.68268513411E+01  0.21089446447E+03  0.00000000000E+00 0.  1.
          1    1    3    3  501    0 -0.81412531315E+02  0.19572009988E+03 -0.87791999239E+03  0.90314886414E+03  0.00000000000E+00 0.  1.
         21    1    1    2  502  501  0.16196107704E+01 -0.62279320104E+00  0.63948259066E+00  0.18493102505E+01  0.00000000000E+00 0. -1.
<mgrwt>
<rscale>  1 0.67699007E+03</rscale>
<asrwt>0</asrwt>
<pdfrwt beam="1">  1        1 0.42142867E+00 0.67699007E+03</pdfrwt>
<pdfrwt beam="2">0</pdfrwt>
<totfact> 0.10666646E+00</totfact>
</mgrwt>
</event>
<event>
 6    1  0.5715587E-003  0.6998867E+03  0.7818608E-02  0.9717426E-01
          1   -1    0    0  502    0  0.00000000000E+00  0.00000000000E+00  0.12246050189E+03  0.12246050189E+03  0.00000000000E+00 0.  1.
         13   -1    0    0    0    0 -0.00000000000E+00 -0.00000000000E+00 -0.10000000000E+04  0.10000000000E+04  0.00000000000E+00 0.  1.
    9000005    2    1    2  501    0  0.64587761784E-04 -0.75724828093E-04 -0.87753962865E+03  0.11224603377E+04  0.69988671221E+03 0.  0.
         13    1    3    3    0    0 -0.11598603216E+03 -0.28944689067E+03 -0.18403663008E+03  0.36207974727E+03  0.00000000000E+00 0.  1.
          3    1    3    3  501    0  0.11598609675E+03  0.28944681494E+03 -0.69350299858E+03  0.76038059046E+03  0.00000000000E+00 0.  1.
         21    1    1    2  502  501 -0.64587761774E-04  0.75724828055E-04  0.13054940631E-03  0.16416143287E-03  0.00000000000E+00 0.  1.
<mgrwt>
<rscale>  1 0.69988671E+03</rscale>
<asrwt>0</asrwt>
<pdfrwt beam="1">  1        1 0.44531186E+00 0.69988671E+03</pdfrwt>
<pdfrwt beam="2">0</pdfrwt>
<totfact> 0.82659161E-01</totfact>
</mgrwt>
</event>
<event>
 6    1  0.5715586E-003  0.6039831E+03  0.7818608E-02  0.9897177E-01
          1   -1    0    0  502    0  0.00000000000E+00  0.00000000000E+00  0.91300837512E+02  0.91300837512E+02  0.00000000000E+00 0.  1.
         13   -1    0    0    0    0 -0.00000000000E+00 -0.00000000000E+00 -0.10000000000E+04  0.10000000000E+04  0.00000000000E+00 0.  1.
    9000005    2    1    2  501    0 -0.11738827220E+00 -0.13381634779E-01 -0.90876252957E+03  0.10911667686E+04  0.60398308576E+03 0.  0.
         13    1    3    3    0    0  0.12348434062E+03 -0.27557143640E+03 -0.45383747128E+03  0.54512058232E+03  0.00000000000E+00 0.  1.
          3    1    3    3  501    0 -0.12360172889E+03  0.27555805477E+03 -0.45492505829E+03  0.54604618632E+03  0.00000000000E+00 0.  1.
         21    1    1    2  502  501  0.11738827220E+00  0.13381634779E-01  0.63367081354E-01  0.13406886887E+00  0.00000000000E+00 0.  1.
<mgrwt>
<rscale>  1 0.60398310E+03</rscale>
<asrwt>0</asrwt>
<pdfrwt beam="1">  1        1 0.33200375E+00 0.60398310E+03</pdfrwt>
<pdfrwt beam="2">0</pdfrwt>
<totfact> 0.26815761E+00</totfact>
</mgrwt>
</event>
<event>
 6    1  0.5715586E-003  0.6587257E+03  0.7818608E-02  0.9790542E-01
          1   -1    0    0  502    0  0.00000000000E+00  0.00000000000E+00  0.10848006821E+03  0.10848006821E+03  0.00000000000E+00 0.  1.
         13   -1    0    0    0    0 -0.00000000000E+00 -0.00000000000E+00 -0.10000000000E+04  0.10000000000E+04  0.00000000000E+00 0.  1.
    9000005    2    1    2  501    0  0.10312513587E-03  0.79741955517E-04 -0.89152007094E+03  0.11084798775E+04  0.65872574111E+03 0.  0.
         13    1    3    3    0    0 -0.29593970473E+02 -0.31750292805E+03 -0.30703694367E+03  0.44266872172E+03  0.00000000000E+00 0.  1.
          3    1    3    3  501    0  0.29594073598E+02  0.31750300779E+03 -0.58448312727E+03  0.66581115582E+03  0.00000000000E+00 0.  1.
         21    1    1    2  502  501 -0.10312513586E-03 -0.79741955563E-04  0.13915524627E-03  0.19067709796E-03  0.00000000000E+00 0.  1.
<mgrwt>
<rscale>  1 0.65872574E+03</rscale>
<asrwt>0</asrwt>
<pdfrwt beam="1">  1        1 0.39447381E+00 0.65872574E+03</pdfrwt>
<pdfrwt beam="2">0</pdfrwt>
<totfact> 0.14135161E+00</totfact>
</mgrwt>
</event>
<event>
 6    1  0.5715586E-003  0.5997278E+03  0.7818608E-02  0.9905971E-01
          1   -1    0    0  502    0  0.00000000000E+00  0.00000000000E+00  0.89919212061E+02  0.89919212061E+02  0.00000000000E+00 0.  1.
         13   -1    0    0    0    0 -0.00000000000E+00 -0.00000000000E+00 -0.10000000000E+04  0.10000000000E+04  0.00000000000E+00 0.  1.
    9000005    2    1    2  501    0 -0.18706814482E-02  0.13389928238E-02 -0.91007952552E+03  0.10899165879E+04  0.59972779315E+03 0.  0.
         13    1    3    3    0    0 -0.58327464148E+02 -0.27552199893E+03 -0.26789920076E+03  0.38869582804E+03  0.00000000000E+00 0.  1.
          1    1    3    3  501    0  0.58325593467E+02  0.27552333793E+03 -0.64218032475E+03  0.70122075989E+03  0.00000000000E+00 0.  1.
         21    1    1    2  502  501  0.18706814482E-02 -0.13389928237E-02 -0.12624227095E-02  0.26241307056E-02  0.00000000000E+00 0. -1.
<mgrwt>
<rscale>  1 0.59972779E+03</rscale>
<asrwt>0</asrwt>
<pdfrwt beam="1">  1        1 0.32697964E+00 0.59972779E+03</pdfrwt>
<pdfrwt beam="2">0</pdfrwt>
<totfact> 0.28214741E+00</totfact>
</mgrwt>
</event>
<event>
 6    1  0.5715586E-003  0.6504920E+03  0.7818608E-02  0.9805856E-01
          1   -1    0    0  502    0  0.00000000000E+00  0.00000000000E+00  0.10587737387E+03  0.10587737387E+03  0.00000000000E+00 0.  1.
         13   -1    0    0    0    0 -0.00000000000E+00 -0.00000000000E+00 -0.10000000000E+04  0.10000000000E+04  0.00000000000E+00 0.  1.
    9000005    2    1    2  501    0  0.84132387253E-02  0.27347739672E-03 -0.89421484050E+03  0.11057847761E+04  0.65049195998E+03 0.  0.
         13    1    3    3    0    0 -0.30220404977E+03 -0.11973680732E+03 -0.42862191523E+03  0.53794138802E+03  0.00000000000E+00 0.  1.
          3    1    3    3  501    0  0.30221246301E+03  0.11973708080E+03 -0.46559292527E+03  0.56784338808E+03  0.00000000000E+00 0.  1.
         21    1    1    2  502  501 -0.84132387253E-02 -0.27347739672E-03  0.92214369474E-01  0.92597771643E-01  0.00000000000E+00 0. -1.
<mgrwt>
<rscale>  1 0.65049196E+03</rscale>
<asrwt>0</asrwt>
<pdfrwt beam="1">  1        1 0.38500944E+00 0.65049196E+03</pdfrwt>
<pdfrwt beam="2">0</pdfrwt>
<totfact> 0.15593048E+00</totfact>
</mgrwt>
</event>
<event>
 6    1  0.5715586E-003  0.6491289E+03  0.7818608E-02  0.9808415E-01
          1   -1    0    0  502    0  0.00000000000E+00  0.00000000000E+00  0.10534240940E+03  0.10534240940E+03  0.00000000000E+00 0.  1.
         13   -1    0    0    0    0 -0.00000000000E+00 -0.00000000000E+00 -0.10000000000E+04  0.10000000000E+04  0.00000000000E+00 0.  1.
    9000005    2    1    2  501    0 -0.13856040368E-04  0.33675120122E-04 -0.89465792063E+03  0.11053420774E+04  0.64912888786E+03 0.  0.
         13    1    3    3    0    0  0.24783798939E+03 -0.71255285506E+02 -0.11173705729E+03  0.28104475563E+03  0.00000000000E+00 0.  1.
          1    1    3    3  501    0 -0.24783800325E+03  0.71255319181E+02 -0.78292086334E+03  0.82429732173E+03  0.00000000000E+00 0.  1.
         21    1    1    2  502  501  0.13856040366E-04 -0.33675120116E-04  0.33002671483E-03  0.33202957108E-03  0.00000000000E+00 0.  1.
<mgrwt>
<rscale>  1 0.64912889E+03</rscale>
<asrwt>0</asrwt>
<pdfrwt beam="1">  1        1 0.38306411E+00 0.64912889E+03</pdfrwt>
<pdfrwt beam="2">0</pdfrwt>
<totfact> 0.15908920E+00</totfact>
</mgrwt>
</event>
<event>
 6    1  0.5715586E-003  0.4985185E+03  0.7818608E-02  0.1014166E+00
          1   -1    0    0  502    0  0.00000000000E+00  0.00000000000E+00  0.62160839368E+02  0.62160839368E+02  0.00000000000E+00 0.  1.
         13   -1    0    0    0    0 -0.00000000000E+00 -0.00000000000E+00 -0.10000000000E+04  0.10000000000E+04  0.00000000000E+00 0.  1.
    9000005    2    1    2  501    0 -0.37454475281E-03 -0.19892969209E-03 -0.93786981508E+03  0.10621301820E+04  0.49851853873E+03 0.  0.
         13    1    3    3    0    0  0.30171638964E+02  0.24594117770E+03 -0.52660722964E+03  0.58199017603E+03  0.00000000000E+00 0.  1.
          3    1    3    3  501    0 -0.30172013509E+02 -0.24594137663E+03 -0.41126258544E+03  0.48014000596E+03  0.00000000000E+00 0.  1.
         21    1    1    2  502  501  0.37454475281E-03  0.19892969208E-03  0.30654446203E-01  0.30657379679E-01  0.00000000000E+00 0.  1.
<mgrwt>
<rscale>  1 0.49851854E+03</rscale>
<asrwt>0</asrwt>
<pdfrwt beam="1">  1        1 0.22603989E+00 0.49851854E+03</pdfrwt>
<pdfrwt beam="2">0</pdfrwt>
<totfact> 0.78653035E+00</totfact>
</mgrwt>
</event>
<event>
 6    1  0.5715586E-003  0.6099029E+03  0.7818608E-02  0.9885071E-01
          1   -1    0    0  502    0  0.00000000000E+00  0.00000000000E+00  0.93019837762E+02  0.93019837762E+02  0.00000000000E+00 0.  1.
         13   -1    0    0    0    0 -0.00000000000E+00 -0.00000000000E+00 -0.10000000000E+04  0.10000000000E+04  0.00000000000E+00 0.  1.
    9000005    2    1    2  501    0 -0.11922214970E-02 -0.37126452912E-02 -0.90700444836E+03  0.10929952406E+04  0.60990288291E+03 0.  0.
         13    1    3    3    0    0  0.20680091024E+03  0.21545149265E+03 -0.56409259272E+03  0.63826829415E+03  0.00000000000E+00 0.  1.
          1    1    3    3  501    0 -0.20680210246E+03 -0.21545520530E+03 -0.34291185565E+03  0.45472694644E+03  0.00000000000E+00 0.  1.
         21    1    1    2  502  501  0.11922214970E-02  0.37126452912E-02  0.24286126361E-01  0.24597175870E-01  0.00000000000E+00 0.  1.
<mgrwt>
<rscale>  1 0.60990288E+03</rscale>
<asrwt>0</asrwt>
<pdfrwt beam="1">  1        1 0.33825467E+00 0.60990288E+03</pdfrwt>
<pdfrwt beam="2">0</pdfrwt>
<totfact> 0.25166481E+00</totfact>
</mgrwt>
</event>
<event>
 6    1  0.5715586E-003  0.6704361E+03  0.7818608E-02  0.9769170E-01
          1   -1    0    0  502    0  0.00000000000E+00  0.00000000000E+00  0.11237164633E+03  0.11237164633E+03  0.00000000000E+00 0.  1.
         13   -1    0    0    0    0 -0.00000000000E+00 -0.00000000000E+00 -0.10000000000E+04  0.10000000000E+04  0.00000000000E+00 0.  1.
    9000005    2    1    2  501    0 -0.13936313613E-03  0.23023489996E-03 -0.88762882781E+03  0.11123711011E+04  0.67043607503E+03 0.  0.
         13    1    3    3    0    0 -0.17256904402E+03 -0.28494642005E+03 -0.50581854038E+03  0.60566239197E+03  0.00000000000E+00 0.  1.
          1    1    3    3  501    0  0.17256890465E+03  0.28494665029E+03 -0.38181028742E+03  0.50670870916E+03  0.00000000000E+00 0.  1.
         21    1    1    2  502  501  0.13936313612E-03 -0.23023489995E-03  0.47413755380E-03  0.54519410561E-03  0.00000000000E+00 0.  1.
<mgrwt>
<rscale>  1 0.67043608E+03</rscale>
<asrwt>0</asrwt>
<pdfrwt beam="1">  1        1 0.40862503E+00 0.67043608E+03</pdfrwt>
<pdfrwt beam="2">0</pdfrwt>
<totfact> 0.12195069E+00</totfact>
</mgrwt>
</event>
<event>
 6    1  0.5715586E-003  0.6517513E+03  0.7818608E-02  0.9803499E-01
          3   -1    0    0  502    0  0.00000000000E+00  0.00000000000E+00  0.10704131316E+03  0.10704131316E+03  0.00000000000E+00 0.  1.
         13   -1    0    0    0    0 -0.00000000000E+00 -0.00000000000E+00 -0.10000000000E+04  0.10000000000E+04  0.00000000000E+00 0.  1.
    9000005    2    1    2  501    0 -0.20933475946E+01 -0.15117621651E+01 -0.88980440335E+03  0.11029649136E+04  0.65174615986E+03 0.  0.
         13    1    3    3    0    0 -0.28500774080E+03 -0.12314445035E+03 -0.27245029156E+03  0.41306552669E+03  0.00000000000E+00 0.  1.
          1    1    3    3  501    0  0.28291439321E+03  0.12163268819E+03 -0.61735411178E+03  0.68989938691E+03  0.00000000000E+00 0.  1.
         21    1    1    2  502  501  0.20933475946E+01  0.15117621651E+01 -0.31542834945E+01  0.40763995584E+01  0.00000000000E+00 0. -1.
<mgrwt>
<rscale>  1 0.65175127E+03</rscale>
<asrwt>0</asrwt>
<pdfrwt beam="1">  1        3 0.38924196E+00 0.65175127E+03</pdfrwt>
<pdfrwt beam="2">0</pdfrwt>
<totfact> 0.67447960E-02</totfact>
</mgrwt>
</event>
<event>
 6    1  0.5715586E-003  0.5017151E+03  0.7818608E-02  0.1013332E+00
          1   -1    0    0  502    0  0.00000000000E+00  0.00000000000E+00  0.62929506466E+02  0.62929506466E+02  0.00000000000E+00 0.  1.
         13   -1    0    0    0    0 -0.00000000000E+00 -0.00000000000E+00 -0.10000000000E+04  0.10000000000E+04  0.00000000000E+00 0.  1.
    9000005    2    1    2  501    0  0.10414593490E-05  0.23056997591E-05 -0.93707049388E+03  0.10629295039E+04  0.50171507830E+03 0.  0.
         13    1    3    3    0    0 -0.43538871872E+02  0.39659727042E+02 -0.98514586930E+03  0.98690471228E+03  0.00000000000E+00 0.  1.
          1    1    3    3  501    0  0.43538872914E+02 -0.39659724737E+02  0.48075375425E+02  0.76024791634E+02  0.00000000000E+00 0.  1.
         21    1    1    2  502  501 -0.10414593456E-05 -0.23056997622E-05  0.34358412846E-06  0.25532213016E-05  0.00000000000E+00 0.  1.
<mgrwt>
<rscale>  1 0.50171508E+03</rscale>
<asrwt>0</asrwt>
<pdfrwt beam="1">  1        1 0.22883505E+00 0.50171508E+03</pdfrwt>
<pdfrwt beam="2">0</pdfrwt>
<totfact> 0.76412583E+00</totfact>
</mgrwt>
</event>
<event>
 6    1  0.5715586E-003  0.6469950E+03  0.7818608E-02  0.9812434E-01
          1   -1    0    0  502    0  0.00000000000E+00  0.00000000000E+00  0.10465091852E+03  0.10465091852E+03  0.00000000000E+00 0.  1.
         13   -1    0    0    0    0 -0.00000000000E+00 -0.00000000000E+00 -0.10000000000E+04  0.10000000000E+04  0.00000000000E+00 0.  1.
    9000005    2    1    2  501    0  0.18922608831E-05 -0.10689486999E-04 -0.89534937873E+03  0.11046506211E+04  0.64699496493E+03 0.  0.
         13    1    3    3    0    0  0.18661463318E+03 -0.26146418027E+03 -0.38239014618E+03  0.49941041517E+03  0.00000000000E+00 0.  1.
          1    1    3    3  501    0 -0.18661463129E+03  0.26146416958E+03 -0.51295923255E+03  0.60524020590E+03  0.00000000000E+00 0.  1.
         21    1    1    2  502  501 -0.18922608705E-05  0.10689487024E-04  0.29724649308E-03  0.29744465608E-03  0.00000000000E+00 0. -1.
<mgrwt>
<rscale>  1 0.64699496E+03</rscale>
<asrwt>0</asrwt>
<pdfrwt beam="1">  1        1 0.38054960E+00 0.64699496E+03</pdfrwt>
<pdfrwt beam="2">0</pdfrwt>
<totfact> 0.16327356E+00</totfact>
</mgrwt>
</event>
<event>
 6    1  0.5715586E-003  0.6594574E+03  0.7818608E-02  0.9789193E-01
          1   -1    0    0  502    0  0.00000000000E+00  0.00000000000E+00  0.11026317318E+03  0.11026317318E+03  0.00000000000E+00 0.  1.
         13   -1    0    0    0    0 -0.00000000000E+00 -0.00000000000E+00 -0.10000000000E+04  0.10000000000E+04  0.00000000000E+00 0.  1.
    9000005    2    1    2  501    0  0.28242295023E+01  0.11493690505E+00 -0.88967997053E+03  0.11074360341E+04  0.65945138574E+03 0.  0.
         13    1    3    3    0    0 -0.21462445542E+03 -0.18471483767E+03 -0.72408596443E+03  0.77748550598E+03  0.00000000000E+00 0.  1.
          1    1    3    3  501    0  0.21744868493E+03  0.18482977457E+03 -0.16559400610E+03  0.32995052811E+03  0.00000000000E+00 0.  1.
         21    1    1    2  502  501 -0.28242295023E+01 -0.11493690505E+00 -0.56856292274E-01  0.28271390860E+01  0.00000000000E+00 0. -1.
<mgrwt>
<rscale>  1 0.65945744E+03</rscale>
<asrwt>0</asrwt>
<pdfrwt beam="1">  1        1 0.40095784E+00 0.65945744E+03</pdfrwt>
<pdfrwt beam="2">0</pdfrwt>
<totfact> 0.13224103E+00</totfact>
</mgrwt>
</event>
<event>
 6    1  0.5715586E-003  0.6584614E+03  0.7818608E-02  0.9791030E-01
          1   -1    0    0  502    0  0.00000000000E+00  0.00000000000E+00  0.10851966844E+03  0.10851966844E+03  0.00000000000E+00 0.  1.
         13   -1    0    0    0    0 -0.00000000000E+00 -0.00000000000E+00 -0.10000000000E+04  0.10000000000E+04  0.00000000000E+00 0.  1.
    9000005    2    1    2  501    0  0.10937437174E-01 -0.35592195070E-02 -0.89160684239E+03  0.11083926358E+04  0.65846144429E+03 0.  0.
         13    1    3    3    0    0  0.25246750620E+03 -0.75081173841E+02 -0.11330276602E+03  0.28673078164E+03  0.00000000000E+00 0.  1.
          1    1    3    3  501    0 -0.25245656876E+03  0.75077614621E+02 -0.77830407637E+03  0.82166185418E+03  0.00000000000E+00 0.  1.
         21    1    1    2  502  501 -0.10937437174E-01  0.35592195070E-02  0.12651083439E+00  0.12703262098E+00  0.00000000000E+00 0.  1.
<mgrwt>
<rscale>  1 0.65846144E+03</rscale>
<asrwt>0</asrwt>
<pdfrwt beam="1">  1        1 0.39461781E+00 0.65846144E+03</pdfrwt>
<pdfrwt beam="2">0</pdfrwt>
<totfact> 0.14115035E+00</totfact>
</mgrwt>
</event>
<event>
 6    1  0.5715586E-003  0.6391743E+03  0.7818608E-02  0.9827308E-01
          1   -1    0    0  502    0  0.00000000000E+00  0.00000000000E+00  0.10228765247E+03  0.10228765247E+03  0.00000000000E+00 0.  1.
         13   -1    0    0    0    0 -0.00000000000E+00 -0.00000000000E+00 -0.10000000000E+04  0.10000000000E+04  0.00000000000E+00 0.  1.
    9000005    2    1    2  501    0 -0.10226742668E-02 -0.21217007989E-02 -0.89786405477E+03  0.11021359269E+04  0.63917426467E+03 0.  0.
         13    1    3    3    0    0 -0.93813144697E+02  0.24918138003E+03 -0.14414586910E+03  0.30277103205E+03  0.00000000000E+00 0.  1.
          1    1    3    3  501    0  0.93812122023E+02 -0.24918350173E+03 -0.75371818567E+03  0.79936489489E+03  0.00000000000E+00 0.  1.
         21    1    1    2  502  501  0.10226742668E-02  0.21217007989E-02  0.15170724393E+00  0.15172552633E+00  0.00000000000E+00 0.  1.
<mgrwt>
<rscale>  1 0.63917426E+03</rscale>
<asrwt>0</asrwt>
<pdfrwt beam="1">  1        1 0.37195588E+00 0.63917426E+03</pdfrwt>
<pdfrwt beam="2">0</pdfrwt>
<totfact> 0.17839729E+00</totfact>
</mgrwt>
</event>
<event>
 6    1  0.5715586E-003  0.6127613E+03  0.7818608E-02  0.9879278E-01
          1   -1    0    0  502    0  0.00000000000E+00  0.00000000000E+00  0.96496423868E+02  0.96496423868E+02  0.00000000000E+00 0.  1.
         13   -1    0    0    0    0 -0.00000000000E+00 -0.00000000000E+00 -0.10000000000E+04  0.10000000000E+04  0.00000000000E+00 0.  1.
    9000005    2    1    2  501    0  0.64253730731E+00  0.84541220162E+01 -0.88971816200E+03  0.10803123985E+04  0.61270268940E+03 0.  0.
         13    1    3    3    0    0  0.27063272172E+03 -0.13986318548E+03 -0.45097984857E+03  0.54423028630E+03  0.00000000000E+00 0.  1.
          3    1    3    3  501    0 -0.26999018441E+03  0.14831730749E+03 -0.43873831343E+03  0.53608211223E+03  0.00000000000E+00 0.  1.
         21    1    1    2  502  501 -0.64253730731E+00 -0.84541220162E+01 -0.13785414136E+02  0.16184025338E+02  0.00000000000E+00 0. -1.
<mgrwt>
<rscale>  1 0.61276135E+03</rscale>
<asrwt>0</asrwt>
<pdfrwt beam="1">  1        1 0.35089683E+00 0.61276135E+03</pdfrwt>
<pdfrwt beam="2">0</pdfrwt>
<totfact> 0.22162596E+00</totfact>
</mgrwt>
</event>
<event>
 6    1  0.5715586E-003  0.6530640E+03  0.7818608E-02  0.9801047E-01
          1   -1    0    0  502    0  0.00000000000E+00  0.00000000000E+00  0.10686277813E+03  0.10686277813E+03  0.00000000000E+00 0.  1.
         13   -1    0    0    0    0 -0.00000000000E+00 -0.00000000000E+00 -0.10000000000E+04  0.10000000000E+04  0.00000000000E+00 0.  1.
    9000005    2    1    2  501    0 -0.48115190936E+00 -0.28292087439E+00 -0.89294056288E+03  0.11062709791E+04  0.65306379375E+03 0.  0.
         13    1    3    3    0    0  0.69909268655E+01 -0.18622996156E+03 -0.90092955924E+03  0.92000246867E+03  0.00000000000E+00 0.  1.
          1    1    3    3  501    0 -0.74720787748E+01  0.18594704068E+03  0.79889963578E+01  0.18626851039E+03  0.00000000000E+00 0.  1.
         21    1    1    2  502  501  0.48115190936E+00  0.28292087439E+00 -0.19665899374E+00  0.59179907136E+00  0.00000000000E+00 0.  1.
<mgrwt>
<rscale>  1 0.65306403E+03</rscale>
<asrwt>0</asrwt>
<pdfrwt beam="1">  1        1 0.38859274E+00 0.65306403E+03</pdfrwt>
<pdfrwt beam="2">0</pdfrwt>
<totfact> 0.15026576E+00</totfact>
</mgrwt>
</event>
<event>
 6    1  0.5715586E-003  0.6694549E+03  0.7818608E-02  0.9770943E-01
          1   -1    0    0  502    0  0.00000000000E+00  0.00000000000E+00  0.13145487994E+03  0.13145487994E+03  0.00000000000E+00 0.  1.
         13   -1    0    0    0    0 -0.00000000000E+00 -0.00000000000E+00 -0.10000000000E+04  0.10000000000E+04  0.00000000000E+00 0.  1.
    9000005    2    1    2  501    0 -0.22714542547E-01  0.30392845532E+00 -0.88795620010E+03  0.11120414074E+04  0.66945484204E+03 0.  0.
         13    1    3    3    0    0  0.29594130319E+03  0.29702152349E+02 -0.18889865138E+03  0.35234382821E+03  0.00000000000E+00 0.  1.
          1    1    3    3  501    0 -0.29596401773E+03 -0.29398223893E+02 -0.69905754873E+03  0.75969757917E+03  0.00000000000E+00 0.  1.
         21    1    1    2  502  501  0.22714542547E-01 -0.30392845532E+00  0.19411080038E+02  0.19413472557E+02  0.00000000000E+00 0. -1.
<mgrwt>
<rscale>  1 0.66945491E+03</rscale>
<asrwt>0</asrwt>
<pdfrwt beam="1">  1        1 0.47801875E+00 0.66945491E+03</pdfrwt>
<pdfrwt beam="2">0</pdfrwt>
<totfact> 0.58583848E-01</totfact>
</mgrwt>
</event>
<event>
 6    1  0.5715586E-003  0.6448572E+03  0.7818608E-02  0.9816477E-01
          1   -1    0    0  502    0  0.00000000000E+00  0.00000000000E+00  0.10396133306E+03  0.10396133306E+03  0.00000000000E+00 0.  1.
         13   -1    0    0    0    0 -0.00000000000E+00 -0.00000000000E+00 -0.10000000000E+04  0.10000000000E+04  0.00000000000E+00 0.  1.
    9000005    2    1    2  501    0  0.36344906249E-03 -0.39416348942E-03 -0.89603972179E+03  0.11039601498E+04  0.64485721618E+03 0.  0.
         13    1    3    3    0    0 -0.26259218525E+03  0.96510458797E+02 -0.72241798936E+03  0.77469779641E+03  0.00000000000E+00 0.  1.
          1    1    3    3  501    0  0.26259254870E+03 -0.96510852960E+02 -0.17362173243E+03  0.32926235336E+03  0.00000000000E+00 0.  1.
         21    1    1    2  502  501 -0.36344906249E-03  0.39416348941E-03  0.10548488016E-02  0.11832861326E-02  0.00000000000E+00 0. -1.
<mgrwt>
<rscale>  1 0.64485722E+03</rscale>
<asrwt>0</asrwt>
<pdfrwt beam="1">  1        1 0.37804201E+00 0.64485722E+03</pdfrwt>
<pdfrwt beam="2">0</pdfrwt>
<totfact> 0.16755088E+00</totfact>
</mgrwt>
</event>
<event>
 6    1  0.5715586E-003  0.6266629E+03  0.7818608E-02  0.9851583E-01
          1   -1    0    0  502    0  0.00000000000E+00  0.00000000000E+00  0.98176697931E+02  0.98176697931E+02  0.00000000000E+00 0.  1.
         13   -1    0    0    0    0 -0.00000000000E+00 -0.00000000000E+00 -0.10000000000E+04  0.10000000000E+04  0.00000000000E+00 0.  1.
    9000005    2    1    2  501    0 -0.20837699779E-03  0.19086547590E-03 -0.90182299277E+03  0.10981762790E+04  0.62666293128E+03 0.  0.
         13    1    3    3    0    0 -0.14958453944E+03  0.16704166594E+03 -0.83444021897E+03  0.86404220478E+03  0.00000000000E+00 0.  1.
          3    1    3    3  501    0  0.14958433107E+03 -0.16704147508E+03 -0.67382773793E+02  0.23413407420E+03  0.00000000000E+00 0.  1.
         21    1    1    2  502  501  0.20837699780E-03 -0.19086547591E-03 -0.30930308097E-03  0.41894987648E-03  0.00000000000E+00 0. -1.
<mgrwt>
<rscale>  1 0.62666293E+03</rscale>
<asrwt>0</asrwt>
<pdfrwt beam="1">  1        1 0.35700693E+00 0.62666293E+03</pdfrwt>
<pdfrwt beam="2">0</pdfrwt>
<totfact> 0.20790904E+00</totfact>
</mgrwt>
</event>
<event>
 6    1  0.5715586E-003  0.6546368E+03  0.7818608E-02  0.9798117E-01
          1   -1    0    0  502    0  0.00000000000E+00  0.00000000000E+00  0.10713733175E+03  0.10713733175E+03  0.00000000000E+00 0.  1.
         13   -1    0    0    0    0 -0.00000000000E+00 -0.00000000000E+00 -0.10000000000E+04  0.10000000000E+04  0.00000000000E+00 0.  1.
    9000005    2    1    2  501    0 -0.13659623335E-05 -0.14220630966E-05 -0.89286267587E+03  0.11071373239E+04  0.65463676642E+03 0.  0.
         13    1    3    3    0    0  0.22794887389E+03  0.25791131331E+02 -0.84129300403E+03  0.87200905396E+03  0.00000000000E+00 0.  1.
          3    1    3    3  501    0 -0.22794887526E+03 -0.25791132753E+02 -0.51569671846E+02  0.23512826991E+03  0.00000000000E+00 0.  1.
         21    1    1    2  502  501  0.13659623502E-05  0.14220630978E-05  0.76191542887E-05  0.78701733571E-05  0.00000000000E+00 0.  1.
<mgrwt>
<rscale>  1 0.65463677E+03</rscale>
<asrwt>0</asrwt>
<pdfrwt beam="1">  1        1 0.38959112E+00 0.65463677E+03</pdfrwt>
<pdfrwt beam="2">0</pdfrwt>
<totfact> 0.14869899E+00</totfact>
</mgrwt>
</event>
<event>
 6    1  0.5715586E-003  0.6445986E+03  0.7818608E-02  0.9816968E-01
          1   -1    0    0  502    0  0.00000000000E+00  0.00000000000E+00  0.10388051403E+03  0.10388051403E+03  0.00000000000E+00 0.  1.
         13   -1    0    0    0    0 -0.00000000000E+00 -0.00000000000E+00 -0.10000000000E+04  0.10000000000E+04  0.00000000000E+00 0.  1.
    9000005    2    1    2  501    0  0.10910602559E-03  0.14119303552E-03 -0.89612316834E+03  0.11038768273E+04  0.64459857050E+03 0.  0.
         13    1    3    3    0    0 -0.68681985093E+02  0.13768399533E+03 -0.93304391247E+03  0.94564530361E+03  0.00000000000E+00 0.  1.
          3    1    3    3  501    0  0.68682094199E+02 -0.13768385413E+03  0.36920744129E+02  0.15823152372E+03  0.00000000000E+00 0.  1.
         21    1    1    2  502  501 -0.10910602560E-03 -0.14119303549E-03  0.36823763604E-02  0.36866970661E-02  0.00000000000E+00 0.  1.
<mgrwt>
<rscale>  1 0.64459857E+03</rscale>
<asrwt>0</asrwt>
<pdfrwt beam="1">  1        1 0.37774812E+00 0.64459857E+03</pdfrwt>
<pdfrwt beam="2">0</pdfrwt>
<totfact> 0.16805936E+00</totfact>
</mgrwt>
</event>
<event>
 6    1  0.5715586E-003  0.6359676E+03  0.7818608E-02  0.9833472E-01
          1   -1    0    0  502    0  0.00000000000E+00  0.00000000000E+00  0.10114609394E+03  0.10114609394E+03  0.00000000000E+00 0.  1.
         13   -1    0    0    0    0 -0.00000000000E+00 -0.00000000000E+00 -0.10000000000E+04  0.10000000000E+04  0.00000000000E+00 0.  1.
    9000005    2    1    2  501    0 -0.80777391824E-03 -0.15223431677E-03 -0.89888631019E+03  0.11011136794E+04  0.63596755916E+03 0.  0.
         13    1    3    3    0    0 -0.22075648001E+03  0.78707141292E+02 -0.82153571148E+03  0.85431209917E+03  0.00000000000E+00 0.  1.
          1    1    3    3  501    0  0.22075567223E+03 -0.78707293527E+02 -0.77350598705E+02  0.24680158022E+03  0.00000000000E+00 0.  1.
         21    1    1    2  502  501  0.80777391824E-03  0.15223431678E-03  0.32404122970E-01  0.32414547034E-01  0.00000000000E+00 0. -1.
<mgrwt>
<rscale>  1 0.63596756E+03</rscale>
<asrwt>0</asrwt>
<pdfrwt beam="1">  1        1 0.36780475E+00 0.63596756E+03</pdfrwt>
<pdfrwt beam="2">0</pdfrwt>
<totfact> 0.18615384E+00</totfact>
</mgrwt>
</event>
<event>
 6    1  0.5715586E-003  0.6547930E+03  0.7818608E-02  0.9797827E-01
          1   -1    0    0  502    0  0.00000000000E+00  0.00000000000E+00  0.10724147756E+03  0.10724147756E+03  0.00000000000E+00 0.  1.
         13   -1    0    0    0    0 -0.00000000000E+00 -0.00000000000E+00 -0.10000000000E+04  0.10000000000E+04  0.00000000000E+00 0.  1.
    9000005    2    1    2  501    0 -0.18655395998E-01 -0.18804661056E-01 -0.89280785944E+03  0.11071854795E+04  0.65479295317E+03 0.  0.
         13    1    3    3    0    0 -0.18830525018E+03  0.25792319376E+03 -0.32442362851E+03  0.45522953755E+03  0.00000000000E+00 0.  1.
          3    1    3    3  501    0  0.18828659478E+03 -0.25794199842E+03 -0.56838423093E+03  0.65195594199E+03  0.00000000000E+00 0.  1.
         21    1    1    2  502  501  0.18655395998E-01  0.18804661056E-01  0.49336996354E-01  0.55998020380E-01  0.00000000000E+00 0. -1.
<mgrwt>
<rscale>  1 0.65479295E+03</rscale>
<asrwt>0</asrwt>
<pdfrwt beam="1">  1        1 0.38996983E+00 0.65479295E+03</pdfrwt>
<pdfrwt beam="2">0</pdfrwt>
<totfact> 0.14812083E+00</totfact>
</mgrwt>
</event>
<event>
 6    1  0.5715586E-003  0.6529987E+03  0.7818608E-02  0.9801169E-01
          1   -1    0    0  502    0  0.00000000000E+00  0.00000000000E+00  0.10660506792E+03  0.10660506792E+03  0.00000000000E+00 0.  1.
         13   -1    0    0    0    0 -0.00000000000E+00 -0.00000000000E+00 -0.10000000000E+04  0.10000000000E+04  0.00000000000E+00 0.  1.
    9000005    2    1    2  501    0  0.70088134758E-03 -0.81170961678E-03 -0.89339808509E+03  0.11066017375E+04  0.65299867307E+03 0.  0.
         13    1    3    3    0    0 -0.24845927443E+01 -0.21186881892E+03 -0.86766609072E+03  0.89316236744E+03  0.00000000000E+00 0.  1.
          1    1    3    3  501    0  0.24852936256E+01  0.21186800721E+03 -0.25731994374E+02  0.21343937008E+03  0.00000000000E+00 0.  1.
         21    1    1    2  502  501 -0.70088134758E-03  0.81170961679E-03  0.31530137619E-02  0.33304058233E-02  0.00000000000E+00 0.  1.
<mgrwt>
<rscale>  1 0.65299867E+03</rscale>
<asrwt>0</asrwt>
<pdfrwt beam="1">  1        1 0.38765561E+00 0.65299867E+03</pdfrwt>
<pdfrwt beam="2">0</pdfrwt>
<totfact> 0.15171102E+00</totfact>
</mgrwt>
</event>
<event>
 6    1  0.5715586E-003  0.6689535E+03  0.7818608E-02  0.9771850E-01
          1   -1    0    0  502    0  0.00000000000E+00  0.00000000000E+00  0.11189486704E+03  0.11189486704E+03  0.00000000000E+00 0.  1.
         13   -1    0    0    0    0 -0.00000000000E+00 -0.00000000000E+00 -0.10000000000E+04  0.10000000000E+04  0.00000000000E+00 0.  1.
    9000005    2    1    2  501    0 -0.26986027012E-03  0.66327599512E-04 -0.88812530759E+03  0.11118746905E+04  0.66895348521E+03 0.  0.
         13    1    3    3    0    0  0.31568492247E+01  0.99541612537E+02 -0.97478423831E+03  0.97985856611E+03  0.00000000000E+00 0.  1.
          1    1    3    3  501    0 -0.31571190850E+01 -0.99541546209E+02  0.86658930721E+02  0.13201612438E+03  0.00000000000E+00 0.  1.
         21    1    1    2  502  501  0.26986027012E-03 -0.66327599509E-04  0.20174628132E-01  0.20176541928E-01  0.00000000000E+00 0. -1.
<mgrwt>
<rscale>  1 0.66895349E+03</rscale>
<asrwt>0</asrwt>
<pdfrwt beam="1">  1        1 0.40689128E+00 0.66895349E+03</pdfrwt>
<pdfrwt beam="2">0</pdfrwt>
<totfact> 0.12418590E+00</totfact>
</mgrwt>
</event>
<event>
 6    1  0.5715586E-003  0.6630274E+03  0.7818608E-02  0.9782637E-01
          1   -1    0    0  502    0  0.00000000000E+00  0.00000000000E+00  0.10990342996E+03  0.10990342996E+03  0.00000000000E+00 0.  1.
         13   -1    0    0    0    0 -0.00000000000E+00 -0.00000000000E+00 -0.10000000000E+04  0.10000000000E+04  0.00000000000E+00 0.  1.
    9000005    2    1    2  501    0 -0.16703236862E-02 -0.10789691866E-02 -0.89009812576E+03  0.11099009052E+04  0.66302740960E+03 0.  0.
         13    1    3    3    0    0  0.14769501206E+03 -0.84239667840E+02  0.31350665346E+02  0.17289592951E+03  0.00000000000E+00 0.  1.
          1    1    3    3  501    0 -0.14769668238E+03  0.84238588871E+02 -0.92144879110E+03  0.93700497569E+03  0.00000000000E+00 0.  1.
         21    1    1    2  502  501  0.16703236862E-02  0.10789691866E-02  0.15557170624E-02  0.25247596520E-02  0.00000000000E+00 0. -1.
<mgrwt>
<rscale>  1 0.66302741E+03</rscale>
<asrwt>0</asrwt>
<pdfrwt beam="1">  1        1 0.39964968E+00 0.66302741E+03</pdfrwt>
<pdfrwt beam="2">0</pdfrwt>
<totfact> 0.13393976E+00</totfact>
</mgrwt>
</event>
<event>
 6    1  0.5715586E-003  0.6658629E+03  0.7818608E-02  0.9777461E-01
          1   -1    0    0  502    0  0.00000000000E+00  0.00000000000E+00  0.11099205675E+03  0.11099205675E+03  0.00000000000E+00 0.  1.
         13   -1    0    0    0    0 -0.00000000000E+00 -0.00000000000E+00 -0.10000000000E+04  0.10000000000E+04  0.00000000000E+00 0.  1.
    9000005    2    1    2  501    0  0.40299922071E-03  0.13406629995E-01 -0.88915630700E+03  0.11108430880E+04  0.66586291953E+03 0.  0.
         13    1    3    3    0    0  0.20934122749E+03 -0.25887455660E+03 -0.44385375490E+03  0.55483866243E+03  0.00000000000E+00 0.  1.
          1    1    3    3  501    0 -0.20934082449E+03  0.25888796323E+03 -0.44530255210E+03  0.55600442553E+03  0.00000000000E+00 0.  1.
         21    1    1    2  502  501 -0.40299922070E-03 -0.13406629995E-01  0.14836375060E+00  0.14896879750E+00  0.00000000000E+00 0. -1.
<mgrwt>
<rscale>  1 0.66586292E+03</rscale>
<asrwt>0</asrwt>
<pdfrwt beam="1">  1        1 0.40360833E+00 0.66586292E+03</pdfrwt>
<pdfrwt beam="2">0</pdfrwt>
<totfact> 0.12853141E+00</totfact>
</mgrwt>
</event>
<event>
 6    1  0.5715586E-003  0.6454807E+03  0.7818608E-02  0.9815296E-01
          1   -1    0    0  502    0  0.00000000000E+00  0.00000000000E+00  0.10416396558E+03  0.10416396558E+03  0.00000000000E+00 0.  1.
         13   -1    0    0    0    0 -0.00000000000E+00 -0.00000000000E+00 -0.10000000000E+04  0.10000000000E+04  0.00000000000E+00 0.  1.
    9000005    2    1    2  501    0  0.13870812062E-04 -0.15647573413E-03 -0.89583865945E+03  0.11041613359E+04  0.64548071375E+03 0.  0.
         13    1    3    3    0    0 -0.44027341658E+02  0.37225665571E+02  0.95280481177E+02  0.11136663362E+03  0.00000000000E+00 0.  1.
          1    1    3    3  501    0  0.44027355529E+02 -0.37225822047E+02 -0.99111914063E+03  0.99279470223E+03  0.00000000000E+00 0.  1.
         21    1    1    2  502  501 -0.13870812064E-04  0.15647573413E-03  0.26250332306E-02  0.26297293618E-02  0.00000000000E+00 0. -1.
<mgrwt>
<rscale>  1 0.64548071E+03</rscale>
<asrwt>0</asrwt>
<pdfrwt beam="1">  1        1 0.37877886E+00 0.64548071E+03</pdfrwt>
<pdfrwt beam="2">0</pdfrwt>
<totfact> 0.16628319E+00</totfact>
</mgrwt>
</event>
<event>
 6    1  0.5715586E-003  0.6484880E+03  0.7818608E-02  0.9809621E-01
          1   -1    0    0  502    0  0.00000000000E+00  0.00000000000E+00  0.10568643688E+03  0.10568643688E+03  0.00000000000E+00 0.  1.
         13   -1    0    0    0    0 -0.00000000000E+00 -0.00000000000E+00 -0.10000000000E+04  0.10000000000E+04  0.00000000000E+00 0.  1.
    9000005    2    1    2  501    0  0.92156001450E+00 -0.12606576252E+01 -0.89082867598E+03  0.11018676715E+04  0.64848608084E+03 0.  0.
         13    1    3    3    0    0 -0.29587902780E+03  0.75185758531E+02 -0.26187963502E+03  0.40221665880E+03  0.00000000000E+00 0.  1.
          1    1    3    3  501    0  0.29680058781E+03 -0.76446416156E+02 -0.62894904096E+03  0.69965101272E+03  0.00000000000E+00 0.  1.
         21    1    1    2  502  501 -0.92156001450E+00  0.12606576252E+01 -0.34848871380E+01  0.38187653598E+01  0.00000000000E+00 0. -1.
<mgrwt>
<rscale>  1 0.64848796E+03</rscale>
<asrwt>0</asrwt>
<pdfrwt beam="1">  1        1 0.38431513E+00 0.64848796E+03</pdfrwt>
<pdfrwt beam="2">0</pdfrwt>
<totfact> 0.15709499E+00</totfact>
</mgrwt>
</event>
<event>
 6    1  0.9540158E-003  0.6569209E+03  0.7818608E-02  0.9793879E-01
          1   -1    0    0  502    0  0.00000000000E+00  0.00000000000E+00  0.10788625534E+03  0.10788625534E+03  0.00000000000E+00 0.  1.
         13   -1    0    0    0    0 -0.00000000000E+00 -0.00000000000E+00 -0.10000000000E+04  0.10000000000E+04  0.00000000000E+00 0.  1.
    9000005    2    1    2  501    0 -0.18234026342E-05 -0.75056854598E-05 -0.89211373829E+03  0.11078862453E+04  0.65692085562E+03 0.  0.
         13    1    3    3    0    0 -0.46337547952E+01 -0.21833020156E+03 -0.32277836937E+02  0.22075191359E+03  0.00000000000E+00 0.  1.
          1    1    3    3  501    0  0.46337529718E+01  0.21833019405E+03 -0.85983590135E+03  0.88713433174E+03  0.00000000000E+00 0.  1.
         21    1    1    2  502  501  0.18234026334E-05  0.75056854710E-05 -0.63660569982E-05  0.10009335305E-04  0.00000000000E+00 0.  1.
<mgrwt>
<rscale>  1 0.65692086E+03</rscale>
<asrwt>0</asrwt>
<pdfrwt beam="1">  1        1 0.39231448E+00 0.65692086E+03</pdfrwt>
<pdfrwt beam="2">0</pdfrwt>
<totfact> 0.14455737E+00</totfact>
</mgrwt>
</event>
<event>
 6    1  0.5715586E-003  0.6574212E+03  0.7818608E-02  0.9792953E-01
          1   -1    0    0  502    0  0.00000000000E+00  0.00000000000E+00  0.10806102990E+03  0.10806102990E+03  0.00000000000E+00 0.  1.
         13   -1    0    0    0    0 -0.00000000000E+00 -0.00000000000E+00 -0.10000000000E+04  0.10000000000E+04  0.00000000000E+00 0.  1.
    9000005    2    1    2  501    0 -0.57808924328E-03  0.58325388574E-03 -0.89194932660E+03  0.11080506409E+04  0.65742119037E+03 0.  0.
         13    1    3    3    0    0  0.46888263535E+02 -0.29844066229E+03 -0.22761173446E+03  0.37824917690E+03  0.00000000000E+00 0.  1.
          1    1    3    3  501    0 -0.46888841624E+02  0.29844124554E+03 -0.66433759214E+03  0.72980146399E+03  0.00000000000E+00 0.  1.
         21    1    1    2  502  501  0.57808924328E-03 -0.58325388577E-03  0.10356500716E-01  0.10389007621E-01  0.00000000000E+00 0.  1.
<mgrwt>
<rscale>  1 0.65742119E+03</rscale>
<asrwt>0</asrwt>
<pdfrwt beam="1">  1        1 0.39295003E+00 0.65742119E+03</pdfrwt>
<pdfrwt beam="2">0</pdfrwt>
<totfact> 0.14360757E+00</totfact>
</mgrwt>
</event>
<event>
 6    1  0.5715586E-003  0.6374217E+03  0.7818608E-02  0.9830672E-01
          1   -1    0    0  502    0  0.00000000000E+00  0.00000000000E+00  0.10157716160E+03  0.10157716160E+03  0.00000000000E+00 0.  1.
         13   -1    0    0    0    0 -0.00000000000E+00 -0.00000000000E+00 -0.10000000000E+04  0.10000000000E+04  0.00000000000E+00 0.  1.
    9000005    2    1    2  501    0 -0.47364562980E-03  0.19089407095E-03 -0.89842325846E+03  0.11015765004E+04  0.63742170879E+03 0.  0.
         13    1    3    3    0    0  0.11910268225E+03 -0.24287417858E+03 -0.74046505080E+03  0.78832848927E+03  0.00000000000E+00 0.  1.
          1    1    3    3  501    0 -0.11910315589E+03  0.24287436948E+03 -0.15795820766E+03  0.31324801110E+03  0.00000000000E+00 0.  1.
         21    1    1    2  502  501  0.47364562980E-03 -0.19089407094E-03  0.42005850370E-03  0.66123360129E-03  0.00000000000E+00 0. -1.
<mgrwt>
<rscale>  1 0.63742171E+03</rscale>
<asrwt>0</asrwt>
<pdfrwt beam="1">  1        1 0.36937228E+00 0.63742171E+03</pdfrwt>
<pdfrwt beam="2">0</pdfrwt>
<totfact> 0.18317959E+00</totfact>
</mgrwt>
</event>
<event>
 6    1  0.5715586E-003  0.6595964E+03  0.7818608E-02  0.9788937E-01
          1   -1    0    0  502    0  0.00000000000E+00  0.00000000000E+00  0.10877357319E+03  0.10877357319E+03  0.00000000000E+00 0.  1.
         13   -1    0    0    0    0 -0.00000000000E+00 -0.00000000000E+00 -0.10000000000E+04  0.10000000000E+04  0.00000000000E+00 0.  1.
    9000005    2    1    2  501    0 -0.81913048316E-02 -0.35799763137E-02 -0.89122969212E+03  0.11087640560E+04  0.65959636732E+03 0.  0.
         13    1    3    3    0    0 -0.11923918296E+03  0.28319902044E+03 -0.64696100076E+03  0.71622496776E+03  0.00000000000E+00 0.  1.
          1    1    3    3  501    0  0.11923099166E+03 -0.28320260042E+03 -0.24426869136E+03  0.39253908829E+03  0.00000000000E+00 0.  1.
         21    1    1    2  502  501  0.81913048316E-02  0.35799763138E-02  0.32653073491E-02  0.95171391361E-02  0.00000000000E+00 0.  1.
<mgrwt>
<rscale>  1 0.65959637E+03</rscale>
<asrwt>0</asrwt>
<pdfrwt beam="1">  1        1 0.39554110E+00 0.65959637E+03</pdfrwt>
<pdfrwt beam="2">0</pdfrwt>
<totfact> 0.13979263E+00</totfact>
</mgrwt>
</event>
<event>
 6    1  0.5715586E-003  0.6522874E+03  0.7818608E-02  0.9802496E-01
          1   -1    0    0  502    0  0.00000000000E+00  0.00000000000E+00  0.10638055224E+03  0.10638055224E+03  0.00000000000E+00 0.  1.
         13   -1    0    0    0    0 -0.00000000000E+00 -0.00000000000E+00 -0.10000000000E+04  0.10000000000E+04  0.00000000000E+00 0.  1.
    9000005    2    1    2  501    0  0.86835949668E-02 -0.65159801480E-03 -0.89362830093E+03  0.11063681342E+04  0.65228744281E+03 0.  0.
         13    1    3    3    0    0 -0.18517539935E+03  0.15639615775E+03 -0.81693496453E+03  0.85213404049E+03  0.00000000000E+00 0.  1.
          1    1    3    3  501    0  0.18518408294E+03 -0.15639680935E+03 -0.76693336397E+02  0.25423409370E+03  0.00000000000E+00 0.  1.
         21    1    1    2  502  501 -0.86835949667E-02  0.65159801480E-03  0.88531672474E-02  0.12418050243E-01  0.00000000000E+00 0. -1.
<mgrwt>
<rscale>  1 0.65228744E+03</rscale>
<asrwt>0</asrwt>
<pdfrwt beam="1">  1        1 0.38683919E+00 0.65228744E+03</pdfrwt>
<pdfrwt beam="2">0</pdfrwt>
<totfact> 0.15299939E+00</totfact>
</mgrwt>
</event>
<event>
 6    1  0.5715586E-003  0.6557106E+03  0.7818608E-02  0.9796122E-01
          1   -1    0    0  502    0  0.00000000000E+00  0.00000000000E+00  0.10748982362E+03  0.10748982362E+03  0.00000000000E+00 0.  1.
         13   -1    0    0    0    0 -0.00000000000E+00 -0.00000000000E+00 -0.10000000000E+04  0.10000000000E+04  0.00000000000E+00 0.  1.
    9000005    2    1    2  501    0 -0.25151973929E-04 -0.54245718957E-04 -0.89251089783E+03  0.11074890997E+04  0.65571060934E+03 0.  0.
         13    1    3    3    0    0  0.83769866255E+02 -0.19450544890E+03 -0.86897358988E+03  0.89440754695E+03  0.00000000000E+00 0.  1.
          3    1    3    3  501    0 -0.83769891407E+02  0.19450539465E+03 -0.23537307954E+02  0.21308155275E+03  0.00000000000E+00 0.  1.
         21    1    1    2  502  501  0.25151973928E-04  0.54245718955E-04  0.72144740685E-03  0.72392097681E-03  0.00000000000E+00 0.  1.
<mgrwt>
<rscale>  1 0.65571061E+03</rscale>
<asrwt>0</asrwt>
<pdfrwt beam="1">  1        1 0.39087291E+00 0.65571061E+03</pdfrwt>
<pdfrwt beam="2">0</pdfrwt>
<totfact> 0.14673589E+00</totfact>
</mgrwt>
</event>
<event>
 6    1  0.5715586E-003  0.6532201E+03  0.7818608E-02  0.9800756E-01
          1   -1    0    0  502    0  0.00000000000E+00  0.00000000000E+00  0.10667426728E+03  0.10667426728E+03  0.00000000000E+00 0.  1.
         13   -1    0    0    0    0 -0.00000000000E+00 -0.00000000000E+00 -0.10000000000E+04  0.10000000000E+04  0.00000000000E+00 0.  1.
    9000005    2    1    2  501    0  0.16916982588E-04 -0.54918834280E-06 -0.89332588567E+03  0.11066741134E+04  0.65322006648E+03 0.  0.
         13    1    3    3    0    0  0.18590754679E+03  0.14608467508E+03 -0.82840621102E+03  0.86148662132E+03  0.00000000000E+00 0.  1.
          3    1    3    3  501    0 -0.18590752987E+03 -0.14608467563E+03 -0.64919674647E+02  0.24518749208E+03  0.00000000000E+00 0.  1.
         21    1    1    2  502  501 -0.16916982601E-04  0.54918835751E-06  0.15294564221E-03  0.15387935332E-03  0.00000000000E+00 0.  1.
<mgrwt>
<rscale>  1 0.65322007E+03</rscale>
<asrwt>0</asrwt>
<pdfrwt beam="1">  1        1 0.38790724E+00 0.65322007E+03</pdfrwt>
<pdfrwt beam="2">0</pdfrwt>
<totfact> 0.15131594E+00</totfact>
</mgrwt>
</event>
<event>
 6    1  0.5715586E-003  0.6472158E+03  0.7818608E-02  0.9812018E-01
          1   -1    0    0  502    0  0.00000000000E+00  0.00000000000E+00  0.10476613309E+03  0.10476613309E+03  0.00000000000E+00 0.  1.
         13   -1    0    0    0    0 -0.00000000000E+00 -0.00000000000E+00 -0.10000000000E+04  0.10000000000E+04  0.00000000000E+00 0.  1.
    9000005    2    1    2  501    0  0.49388334684E-01 -0.66335017602E-01 -0.89523017234E+03  0.11046833491E+04  0.64721575494E+03 0.  0.
         13    1    3    3    0    0 -0.17831562233E+02 -0.15570371054E+03  0.35639786045E+02  0.16072275644E+03  0.00000000000E+00 0.  1.
          1    1    3    3  501    0  0.17880950568E+02  0.15563737552E+03 -0.93086995838E+03  0.94396059265E+03  0.00000000000E+00 0.  1.
         21    1    1    2  502  501 -0.49388334684E-01  0.66335017602E-01 -0.36945692572E-02  0.82784008149E-01  0.00000000000E+00 0.  1.
<mgrwt>
<rscale>  1 0.64721576E+03</rscale>
<asrwt>0</asrwt>
<pdfrwt beam="1">  1        1 0.38096856E+00 0.64721576E+03</pdfrwt>
<pdfrwt beam="2">0</pdfrwt>
<totfact> 0.16257320E+00</totfact>
</mgrwt>
</event>
<event>
 6    1  0.5715586E-003  0.6404838E+03  0.7818608E-02  0.9824801E-01
          1   -1    0    0  502    0  0.00000000000E+00  0.00000000000E+00  0.10255527814E+03  0.10255527814E+03  0.00000000000E+00 0.  1.
         13   -1    0    0    0    0 -0.00000000000E+00 -0.00000000000E+00 -0.10000000000E+04  0.10000000000E+04  0.00000000000E+00 0.  1.
    9000005    2    1    2  501    0 -0.30764439987E-03 -0.32079294232E-03 -0.89744496650E+03  0.11025547708E+04  0.64048384422E+03 0.  0.
         13    1    3    3    0    0 -0.66659184515E+02 -0.28849283653E+03 -0.65873449635E+03  0.72222067285E+03  0.00000000000E+00 0.  1.
          1    1    3    3  501    0  0.66658876870E+02  0.28849251574E+03 -0.23871047014E+03  0.38033409794E+03  0.00000000000E+00 0.  1.
         21    1    1    2  502  501  0.30764439987E-03  0.32079294235E-03  0.24463110244E-03  0.50734363592E-03  0.00000000000E+00 0. -1.
<mgrwt>
<rscale>  1 0.64048384E+03</rscale>
<asrwt>0</asrwt>
<pdfrwt beam="1">  1        1 0.37292907E+00 0.64048384E+03</pdfrwt>
<pdfrwt beam="2">0</pdfrwt>
<totfact> 0.17660609E+00</totfact>
</mgrwt>
</event>
<event>
 6    1  0.5715586E-003  0.6493923E+03  0.7818608E-02  0.9807920E-01
          1   -1    0    0  502    0  0.00000000000E+00  0.00000000000E+00  0.10543085296E+03  0.10543085296E+03  0.00000000000E+00 0.  1.
         13   -1    0    0    0    0 -0.00000000000E+00 -0.00000000000E+00 -0.10000000000E+04  0.10000000000E+04  0.00000000000E+00 0.  1.
    9000005    2    1    2  501    0 -0.32143094312E-03  0.15722204586E-03 -0.89457240927E+03  0.11054275712E+04  0.64939226948E+03 0.  0.
         13    1    3    3    0    0 -0.45016198396E+02  0.30966512294E+03 -0.29978177541E+03  0.43334519652E+03  0.00000000000E+00 0.  1.
          1    1    3    3  501    0  0.45015876965E+02 -0.30966496572E+03 -0.59479063386E+03  0.67208237464E+03  0.00000000000E+00 0.  1.
         21    1    1    2  502  501  0.32143094312E-03 -0.15722204585E-03  0.32622313080E-02  0.32817967228E-02  0.00000000000E+00 0.  1.
<mgrwt>
<rscale>  1 0.64939227E+03</rscale>
<asrwt>0</asrwt>
<pdfrwt beam="1">  1        1 0.38338573E+00 0.64939227E+03</pdfrwt>
<pdfrwt beam="2">0</pdfrwt>
<totfact> 0.15856170E+00</totfact>
</mgrwt>
</event>
<event>
 6    1  0.5715586E-003  0.6499927E+03  0.7818608E-02  0.9806793E-01
          1   -1    0    0  502    0  0.00000000000E+00  0.00000000000E+00  0.11077858020E+03  0.11077858020E+03  0.00000000000E+00 0.  1.
         13   -1    0    0    0    0 -0.00000000000E+00 -0.00000000000E+00 -0.10000000000E+04  0.10000000000E+04  0.00000000000E+00 0.  1.
    9000005    2    1    2  501    0 -0.97726408312E+00  0.21975558428E+01 -0.89406546254E+03  0.11053703414E+04  0.64998827378E+03 0.  0.
         13    1    3    3    0    0  0.28230464864E+03  0.96408596619E+02 -0.66576687076E+03  0.72954510371E+03  0.00000000000E+00 0.  1.
          1    1    3    3  501    0 -0.28328191272E+03 -0.94211040776E+02 -0.22829859178E+03  0.37582523769E+03  0.00000000000E+00 0.  1.
         21    1    1    2  502  501  0.97726408312E+00 -0.21975558428E+01  0.48440427382E+01  0.54082387909E+01  0.00000000000E+00 0. -1.
<mgrwt>
<rscale>  1 0.64999272E+03</rscale>
<asrwt>0</asrwt>
<pdfrwt beam="1">  1        1 0.40283205E+00 0.64999272E+03</pdfrwt>
<pdfrwt beam="2">0</pdfrwt>
<totfact> 0.12995185E+00</totfact>
</mgrwt>
</event>
<event>
 6    1  0.5715586E-003  0.6344564E+03  0.7818608E-02  0.9836391E-01
          1   -1    0    0  502    0  0.00000000000E+00  0.00000000000E+00  0.10063760422E+03  0.10063760422E+03  0.00000000000E+00 0.  1.
         13   -1    0    0    0    0 -0.00000000000E+00 -0.00000000000E+00 -0.10000000000E+04  0.10000000000E+04  0.00000000000E+00 0.  1.
    9000005    2    1    2  501    0  0.24367604659E-02 -0.10920230278E-02 -0.89936575116E+03  0.11006333160E+04  0.63445641450E+03 0.  0.
         13    1    3    3    0    0  0.26427857733E+03  0.97727033713E+02 -0.70251114458E+03  0.75691191549E+03  0.00000000000E+00 0.  1.
          3    1    3    3  501    0 -0.26427614057E+03 -0.97728125736E+02 -0.19685460658E+03  0.34372140051E+03  0.00000000000E+00 0.  1.
         21    1    1    2  502  501 -0.24367604658E-02  0.10920230278E-02  0.33553848406E-02  0.42882307878E-02  0.00000000000E+00 0.  1.
<mgrwt>
<rscale>  1 0.63445641E+03</rscale>
<asrwt>0</asrwt>
<pdfrwt beam="1">  1        1 0.36595570E+00 0.63445641E+03</pdfrwt>
<pdfrwt beam="2">0</pdfrwt>
<totfact> 0.18971468E+00</totfact>
</mgrwt>
</event>
<event>
 6    1  0.5715586E-003  0.6460893E+03  0.7818608E-02  0.9814145E-01
          1   -1    0    0  502    0  0.00000000000E+00  0.00000000000E+00  0.10443463496E+03  0.10443463496E+03  0.00000000000E+00 0.  1.
         13   -1    0    0    0    0 -0.00000000000E+00 -0.00000000000E+00 -0.10000000000E+04  0.10000000000E+04  0.00000000000E+00 0.  1.
    9000005    2    1    2  501    0 -0.10823388172E-02 -0.47779717656E-03 -0.89564215103E+03  0.11043578399E+04  0.64608929395E+03 0.  0.
         13    1    3    3    0    0 -0.95852799887E+02  0.21774803378E+03 -0.74286598965E+02  0.24923977260E+03  0.00000000000E+00 0.  1.
          1    1    3    3  501    0  0.95851717548E+02 -0.21774851157E+03 -0.82135555206E+03  0.85511806726E+03  0.00000000000E+00 0.  1.
         21    1    1    2  502  501  0.10823388171E-02  0.47779717656E-03  0.76785983359E-01  0.76795097420E-01  0.00000000000E+00 0.  1.
<mgrwt>
<rscale>  1 0.64608929E+03</rscale>
<asrwt>0</asrwt>
<pdfrwt beam="1">  1        1 0.37976311E+00 0.64608929E+03</pdfrwt>
<pdfrwt beam="2">0</pdfrwt>
<totfact> 0.16461090E+00</totfact>
</mgrwt>
</event>
<event>
 6    1  0.5715586E-003  0.6617968E+03  0.7818608E-02  0.9784892E-01
          1   -1    0    0  502    0  0.00000000000E+00  0.00000000000E+00  0.10977074377E+03  0.10977074377E+03  0.00000000000E+00 0.  1.
         13   -1    0    0    0    0 -0.00000000000E+00 -0.00000000000E+00 -0.10000000000E+04  0.10000000000E+04  0.00000000000E+00 0.  1.
    9000005    2    1    2  501    0 -0.98694584956E-02 -0.86921012468E-03 -0.89050614468E+03  0.11094936781E+04  0.66179681774E+03 0.  0.
         13    1    3    3    0    0 -0.11694078104E+03 -0.30905260974E+03 -0.41590461589E+03  0.53119234875E+03  0.00000000000E+00 0.  1.
          1    1    3    3  501    0  0.11693091158E+03  0.30905174053E+03 -0.47460152879E+03  0.57830132936E+03  0.00000000000E+00 0.  1.
         21    1    1    2  502  501  0.98694584956E-02  0.86921012469E-03  0.27688845522E+00  0.27706565715E+00  0.00000000000E+00 0.  1.
<mgrwt>
<rscale>  1 0.66179682E+03</rscale>
<asrwt>0</asrwt>
<pdfrwt beam="1">  1        1 0.39916718E+00 0.66179682E+03</pdfrwt>
<pdfrwt beam="2">0</pdfrwt>
<totfact> 0.13463572E+00</totfact>
</mgrwt>
</event>
<event>
 6    1  0.5715586E-003  0.6452708E+03  0.7818608E-02  0.9815694E-01
          1   -1    0    0  502    0  0.00000000000E+00  0.00000000000E+00  0.10412693538E+03  0.10412693538E+03  0.00000000000E+00 0.  1.
         13   -1    0    0    0    0 -0.00000000000E+00 -0.00000000000E+00 -0.10000000000E+04  0.10000000000E+04  0.00000000000E+00 0.  1.
    9000005    2    1    2  501    0 -0.11182077916E-02 -0.19658758856E-02 -0.89590635683E+03  0.11040935664E+04  0.64527079838E+03 0.  0.
         13    1    3    3    0    0  0.22339209623E+03 -0.49429228303E+02 -0.83717986618E+03  0.86788098585E+03  0.00000000000E+00 0.  1.
          1    1    3    3  501    0 -0.22339321443E+03  0.49427262427E+02 -0.58726490651E+02  0.23621258059E+03  0.00000000000E+00 0.  1.
         21    1    1    2  502  501  0.11182077917E-02  0.19658758856E-02  0.33292208891E-01  0.33368941091E-01  0.00000000000E+00 0. -1.
<mgrwt>
<rscale>  1 0.64527080E+03</rscale>
<asrwt>0</asrwt>
<pdfrwt beam="1">  1        1 0.37864420E+00 0.64527080E+03</pdfrwt>
<pdfrwt beam="2">0</pdfrwt>
<totfact> 0.16651711E+00</totfact>
</mgrwt>
</event>
<event>
 6    1  0.5715586E-003  0.6545600E+03  0.7818608E-02  0.9798260E-01
          1   -1    0    0  502    0  0.00000000000E+00  0.00000000000E+00  0.10711293338E+03  0.10711293338E+03  0.00000000000E+00 0.  1.
         13   -1    0    0    0    0 -0.00000000000E+00 -0.00000000000E+00 -0.10000000000E+04  0.10000000000E+04  0.00000000000E+00 0.  1.
    9000005    2    1    2  501    0 -0.20164277885E-04 -0.13171846092E-04 -0.89288779536E+03  0.11071122042E+04  0.65456001839E+03 0.  0.
         13    1    3    3    0    0  0.27920586917E+03  0.17074793428E+03 -0.44846088823E+03  0.55518280116E+03  0.00000000000E+00 0.  1.
          1    1    3    3  501    0 -0.27920588933E+03 -0.17074794745E+03 -0.44442690713E+03  0.55192940308E+03  0.00000000000E+00 0.  1.
         21    1    1    2  502  501  0.20164277899E-04  0.13171846094E-04  0.72874320302E-03  0.72914110540E-03  0.00000000000E+00 0. -1.
<mgrwt>
<rscale>  1 0.65456002E+03</rscale>
<asrwt>0</asrwt>
<pdfrwt beam="1">  1        1 0.38950240E+00 0.65456002E+03</pdfrwt>
<pdfrwt beam="2">0</pdfrwt>
<totfact> 0.14883586E+00</totfact>
</mgrwt>
</event>
<event>
 6    1  0.5715586E-003  0.5955991E+03  0.7818608E-02  0.9914579E-01
          1   -1    0    0  502    0  0.00000000000E+00  0.00000000000E+00  0.88880465646E+02  0.88880465646E+02  0.00000000000E+00 0.  1.
         13   -1    0    0    0    0 -0.00000000000E+00 -0.00000000000E+00 -0.10000000000E+04  0.10000000000E+04  0.00000000000E+00 0.  1.
    9000005    2    1    2  501    0 -0.65884191226E-01 -0.60676617961E-01 -0.91130423596E+03  0.10886751925E+04  0.59559907343E+03 0.  0.
         13    1    3    3    0    0  0.11500404045E+03  0.22523992710E+03 -0.16830048760E+03  0.30378283066E+03  0.00000000000E+00 0.  1.
          1    1    3    3  501    0 -0.11506992464E+03 -0.22530060372E+03 -0.74300374836E+03  0.78489236184E+03  0.00000000000E+00 0.  1.
         21    1    1    2  502  501  0.65884191226E-01  0.60676617961E-01  0.18470160763E+00  0.20527314116E+00  0.00000000000E+00 0. -1.
<mgrwt>
<rscale>  1 0.59559908E+03</rscale>
<asrwt>0</asrwt>
<pdfrwt beam="1">  1        1 0.32320237E+00 0.59559908E+03</pdfrwt>
<pdfrwt beam="2">0</pdfrwt>
<totfact> 0.29318143E+00</totfact>
</mgrwt>
</event>
<event>
 6    1  0.5715586E-003  0.6419974E+03  0.7818608E-02  0.9821912E-01
          1   -1    0    0  502    0  0.00000000000E+00  0.00000000000E+00  0.10305919030E+03  0.10305919030E+03  0.00000000000E+00 0.  1.
         13   -1    0    0    0    0 -0.00000000000E+00 -0.00000000000E+00 -0.10000000000E+04  0.10000000000E+04  0.00000000000E+00 0.  1.
    9000005    2    1    2  501    0 -0.27394110452E-03  0.18643319204E-03 -0.89695983662E+03  0.11030401605E+04  0.64199738875E+03 0.  0.
         13    1    3    3    0    0  0.19992492225E+03 -0.98187331810E+02 -0.51335711738E+02  0.22857401857E+03  0.00000000000E+00 0.  1.
          3    1    3    3  501    0 -0.19992519619E+03  0.98187518243E+02 -0.84562412488E+03  0.87446614193E+03  0.00000000000E+00 0.  1.
         21    1    1    2  502  501  0.27394110453E-03 -0.18643319205E-03  0.19026915930E-01  0.19029801126E-01  0.00000000000E+00 0.  1.
<mgrwt>
<rscale>  1 0.64199739E+03</rscale>
<asrwt>0</asrwt>
<pdfrwt beam="1">  1        1 0.37476148E+00 0.64199739E+03</pdfrwt>
<pdfrwt beam="2">0</pdfrwt>
<totfact> 0.17331010E+00</totfact>
</mgrwt>
</event>
<event>
 6    1  0.5715586E-003  0.6403589E+03  0.7818608E-02  0.9825040E-01
          1   -1    0    0  502    0  0.00000000000E+00  0.00000000000E+00  0.10254697720E+03  0.10254697720E+03  0.00000000000E+00 0.  1.
         13   -1    0    0    0    0 -0.00000000000E+00 -0.00000000000E+00 -0.10000000000E+04  0.10000000000E+04  0.00000000000E+00 0.  1.
    9000005    2    1    2  501    0  0.87901577120E-03  0.32929023719E-02 -0.89748502465E+03  0.11025147944E+04  0.64035888558E+03 0.  0.
         13    1    3    3    0    0  0.28654509461E+03  0.49640157397E+02 -0.67936990279E+03  0.73899641494E+03  0.00000000000E+00 0.  1.
          1    1    3    3  501    0 -0.28654421560E+03 -0.49636864495E+02 -0.21811512185E+03  0.36351837944E+03  0.00000000000E+00 0.  1.
         21    1    1    2  502  501 -0.87901577123E-03 -0.32929023719E-02  0.32001841745E-01  0.32182817618E-01  0.00000000000E+00 0.  1.
<mgrwt>
<rscale>  1 0.64035889E+03</rscale>
<asrwt>0</asrwt>
<pdfrwt beam="1">  1        1 0.37289889E+00 0.64035889E+03</pdfrwt>
<pdfrwt beam="2">0</pdfrwt>
<totfact> 0.17666411E+00</totfact>
</mgrwt>
</event>
<event>
 6    1  0.5715586E-003  0.6375230E+03  0.7818608E-02  0.9830477E-01
          1   -1    0    0  502    0  0.00000000000E+00  0.00000000000E+00  0.10161485139E+03  0.10161485139E+03  0.00000000000E+00 0.  1.
         13   -1    0    0    0    0 -0.00000000000E+00 -0.00000000000E+00 -0.10000000000E+04  0.10000000000E+04  0.00000000000E+00 0.  1.
    9000005    2    1    2  501    0  0.26718634691E-02  0.10803683763E-02 -0.89839072219E+03  0.11016085768E+04  0.63752299308E+03 0.  0.
         13    1    3    3    0    0 -0.31264042005E+03 -0.61573904091E+02 -0.46391769201E+03  0.56280991718E+03  0.00000000000E+00 0.  1.
          1    1    3    3  501    0  0.31264309191E+03  0.61574984459E+02 -0.43447303018E+03  0.53879865960E+03  0.00000000000E+00 0.  1.
         21    1    1    2  502  501 -0.26718634691E-02 -0.10803683763E-02  0.55735715035E-02  0.62746115043E-02  0.00000000000E+00 0. -1.
<mgrwt>
<rscale>  1 0.63752299E+03</rscale>
<asrwt>0</asrwt>
<pdfrwt beam="1">  1        1 0.36950933E+00 0.63752299E+03</pdfrwt>
<pdfrwt beam="2">0</pdfrwt>
<totfact> 0.18292258E+00</totfact>
</mgrwt>
</event>
<event>
 6    1  0.5715586E-003  0.6480940E+03  0.7818608E-02  0.9810362E-01
          1   -1    0    0  502    0  0.00000000000E+00  0.00000000000E+00  0.10500759320E+03  0.10500759320E+03  0.00000000000E+00 0.  1.
         13   -1    0    0    0    0 -0.00000000000E+00 -0.00000000000E+00 -0.10000000000E+04  0.10000000000E+04  0.00000000000E+00 0.  1.
    9000005    2    1    2  501    0 -0.42741445721E-04 -0.13389254036E-04 -0.89499355665E+03  0.11050064425E+04  0.64809395267E+03 0.  0.
         13    1    3    3    0    0  0.18657702189E+02  0.32334741180E+03 -0.46494953588E+03  0.56663897632E+03  0.00000000000E+00 0.  1.
          3    1    3    3  501    0 -0.18657744930E+02 -0.32334742519E+03 -0.43004402077E+03  0.53836746616E+03  0.00000000000E+00 0.  1.
         21    1    1    2  502  501  0.42741445721E-04  0.13389254051E-04  0.11498413078E-02  0.11507133164E-02  0.00000000000E+00 0.  1.
<mgrwt>
<rscale>  1 0.64809395E+03</rscale>
<asrwt>0</asrwt>
<pdfrwt beam="1">  1        1 0.38184660E+00 0.64809395E+03</pdfrwt>
<pdfrwt beam="2">0</pdfrwt>
<totfact> 0.16110239E+00</totfact>
</mgrwt>
</event>
<event>
 6    1  0.5715586E-003  0.6556148E+03  0.7818608E-02  0.9796300E-01
          1   -1    0    0  502    0  0.00000000000E+00  0.00000000000E+00  0.11098178053E+03  0.11098178053E+03  0.00000000000E+00 0.  1.
         13   -1    0    0    0    0 -0.00000000000E+00 -0.00000000000E+00 -0.10000000000E+04  0.10000000000E+04  0.00000000000E+00 0.  1.
    9000005    2    1    2  501    0  0.76118222155E+01  0.65599214520E+01 -0.88070686208E+03  0.10979414175E+04  0.65553779973E+03 0.  0.
         13    1    3    3    0    0  0.25964800824E+02 -0.31953378646E+03 -0.34867432236E+03  0.47365577653E+03  0.00000000000E+00 0.  1.
          1    1    3    3  501    0 -0.18352978608E+02  0.32609370791E+03 -0.53203253972E+03  0.62428564094E+03  0.00000000000E+00 0.  1.
         21    1    1    2  502  501 -0.76118222155E+01 -0.65599214520E+01 -0.83113573992E+01  0.13040363059E+02  0.00000000000E+00 0. -1.
<mgrwt>
<rscale>  1 0.65561481E+03</rscale>
<asrwt>0</asrwt>
<pdfrwt beam="1">  1        1 0.40357096E+00 0.65561481E+03</pdfrwt>
<pdfrwt beam="2">0</pdfrwt>
<totfact> 0.12883000E+00</totfact>
</mgrwt>
</event>
<event>
 6    1  0.5715586E-003  0.6549604E+03  0.7818608E-02  0.9797516E-01
          1   -1    0    0  502    0  0.00000000000E+00  0.00000000000E+00  0.12463878014E+03  0.12463878014E+03  0.00000000000E+00 0.  1.
         13   -1    0    0    0    0 -0.00000000000E+00 -0.00000000000E+00 -0.10000000000E+04  0.10000000000E+04  0.00000000000E+00 0.  1.
    9000005    2    1    2  501    0 -0.96922280100E+01  0.18680518399E+02 -0.88540134139E+03  0.11013212955E+04  0.65462215013E+03 0.  0.
         13    1    3    3    0    0 -0.18324091788E+03 -0.18187877766E+03 -0.76990631462E+03  0.81204239855E+03  0.00000000000E+00 0.  1.
          3    1    3    3  501    0  0.17354868987E+03  0.20055929606E+03 -0.11549502677E+03  0.28927889691E+03  0.00000000000E+00 0.  1.
         21    1    1    2  502  501  0.96922280100E+01 -0.18680518399E+02  0.10040121535E+02  0.23317484682E+02  0.00000000000E+00 0. -1.
<mgrwt>
<rscale>  1 0.65496035E+03</rscale>
<asrwt>0</asrwt>
<pdfrwt beam="1">  1        1 0.45323288E+00 0.65496035E+03</pdfrwt>
<pdfrwt beam="2">0</pdfrwt>
<totfact> 0.76687665E-01</totfact>
</mgrwt>
</event>
<event>
 6    1  0.5715586E-003  0.5959884E+03  0.7818608E-02  0.9913764E-01
          1   -1    0    0  502    0  0.00000000000E+00  0.00000000000E+00  0.88815361991E+02  0.88815361991E+02  0.00000000000E+00 0.  1.
         13   -1    0    0    0    0 -0.00000000000E+00 -0.00000000000E+00 -0.10000000000E+04  0.10000000000E+04  0.00000000000E+00 0.  1.
    9000005    2    1    2  501    0 -0.15139712742E-02  0.16937436167E-02 -0.91119937032E+03  0.10888004556E+04  0.59598837197E+03 0.  0.
         13    1    3    3    0    0  0.27482254585E+03  0.11295949455E+03 -0.41421988684E+03  0.50976994201E+03  0.00000000000E+00 0.  1.
          3    1    3    3  501    0 -0.27482405982E+03 -0.11295780081E+03 -0.49697948348E+03  0.57903051355E+03  0.00000000000E+00 0.  1.
         21    1    1    2  502  501  0.15139712742E-02 -0.16937436167E-02  0.14732313929E-01  0.14906439889E-01  0.00000000000E+00 0. -1.
<mgrwt>
<rscale>  1 0.59598837E+03</rscale>
<asrwt>0</asrwt>
<pdfrwt beam="1">  1        1 0.32296563E+00 0.59598837E+03</pdfrwt>
<pdfrwt beam="2">0</pdfrwt>
<totfact> 0.29385285E+00</totfact>
</mgrwt>
</event>
<event>
 6    1  0.5715586E-003  0.6655539E+03  0.7818608E-02  0.9778023E-01
          1   -1    0    0  502    0  0.00000000000E+00  0.00000000000E+00  0.11525039723E+03  0.11525039723E+03  0.00000000000E+00 0.  1.
         13   -1    0    0    0    0 -0.00000000000E+00 -0.00000000000E+00 -0.10000000000E+04  0.10000000000E+04  0.00000000000E+00 0.  1.
    9000005    2    1    2  501    0  0.13045389458E+01 -0.78708966124E+00 -0.88911613022E+03  0.11106256925E+04  0.66555211252E+03 0.  0.
         13    1    3    3    0    0  0.15009046249E+03 -0.19454329556E+03 -0.69462274680E+02  0.25534143491E+03  0.00000000000E+00 0.  1.
          3    1    3    3  501    0 -0.14878592354E+03  0.19375620590E+03 -0.81965385554E+03  0.85528425758E+03  0.00000000000E+00 0.  1.
         21    1    1    2  502  501 -0.13045389458E+01  0.78708966124E+00  0.43665274500E+01  0.46247047438E+01  0.00000000000E+00 0.  1.
<mgrwt>
<rscale>  1 0.66555386E+03</rscale>
<asrwt>0</asrwt>
<pdfrwt beam="1">  1        1 0.41909324E+00 0.66555386E+03</pdfrwt>
<pdfrwt beam="2">0</pdfrwt>
<totfact> 0.10952803E+00</totfact>
</mgrwt>
</event>
<event>
 6    1  0.5715586E-003  0.6532974E+03  0.7818608E-02  0.9800611E-01
          1   -1    0    0  502    0  0.00000000000E+00  0.00000000000E+00  0.12436219253E+03  0.12436219253E+03  0.00000000000E+00 0.  1.
         13   -1    0    0    0    0 -0.00000000000E+00 -0.00000000000E+00 -0.10000000000E+04  0.10000000000E+04  0.00000000000E+00 0.  1.
    9000005    2    1    2  501    0  0.28796634960E+01 -0.13410096247E+01 -0.89314242272E+03  0.11065716803E+04  0.65328967979E+03 0.  0.
         13    1    3    3    0    0 -0.17060293437E+03  0.17808642717E+03 -0.85138322860E+02  0.26089973318E+03  0.00000000000E+00 0.  1.
          3    1    3    3  501    0  0.17348259787E+03 -0.17942743679E+03 -0.80800409986E+03  0.84567194717E+03  0.00000000000E+00 0.  1.
         21    1    1    2  502  501 -0.28796634960E+01  0.13410096247E+01  0.17504615244E+02  0.17790512176E+02  0.00000000000E+00 0.  1.
<mgrwt>
<rscale>  1 0.65329740E+03</rscale>
<asrwt>0</asrwt>
<pdfrwt beam="1">  1        1 0.45222711E+00 0.65329740E+03</pdfrwt>
<pdfrwt beam="2">0</pdfrwt>
<totfact> 0.77538611E-01</totfact>
</mgrwt>
</event>
<event>
 6    1  0.5715586E-003  0.6500974E+03  0.7818608E-02  0.9806596E-01
          1   -1    0    0  502    0  0.00000000000E+00  0.00000000000E+00  0.10602426932E+03  0.10602426932E+03  0.00000000000E+00 0.  1.
         13   -1    0    0    0    0 -0.00000000000E+00 -0.00000000000E+00 -0.10000000000E+04  0.10000000000E+04  0.00000000000E+00 0.  1.
    9000005    2    1    2  501    0 -0.43517643970E-01 -0.40293829450E+00 -0.89421558046E+03  0.11055533331E+04  0.65009730320E+03 0.  0.
         13    1    3    3    0    0  0.21901383776E+03 -0.22820138938E+03 -0.31893388608E+03  0.44917898319E+03  0.00000000000E+00 0.  1.
          1    1    3    3  501    0 -0.21905735540E+03  0.22779845109E+03 -0.57528169438E+03  0.65637434987E+03  0.00000000000E+00 0.  1.
         21    1    1    2  502  501  0.43517643970E-01  0.40293829450E+00  0.23984978138E+00  0.47093627184E+00  0.00000000000E+00 0. -1.
<mgrwt>
<rscale>  1 0.65009743E+03</rscale>
<asrwt>0</asrwt>
<pdfrwt beam="1">  1        1 0.38554361E+00 0.65009743E+03</pdfrwt>
<pdfrwt beam="2">0</pdfrwt>
<totfact> 0.15509565E+00</totfact>
</mgrwt>
</event>
<event>
 6    1  0.5715586E-003  0.6485651E+03  0.7818608E-02  0.9809475E-01
          1   -1    0    0  502    0  0.00000000000E+00  0.00000000000E+00  0.10852543146E+03  0.10852543146E+03  0.00000000000E+00 0.  1.
         13   -1    0    0    0    0 -0.00000000000E+00 -0.00000000000E+00 -0.10000000000E+04  0.10000000000E+04  0.00000000000E+00 0.  1.
    9000005    2    1    2  501    0  0.28680709592E+01  0.58574395574E+00 -0.89412289826E+03  0.11045779541E+04  0.64855850207E+03 0.  0.
         13    1    3    3    0    0 -0.15321256634E+03 -0.26734219274E+03 -0.61277528245E+03  0.68588591274E+03  0.00000000000E+00 0.  1.
          3    1    3    3  501    0  0.15608063730E+03  0.26792793669E+03 -0.28134761581E+03  0.41869204139E+03  0.00000000000E+00 0.  1.
         21    1    1    2  502  501 -0.28680709592E+01 -0.58574395574E+00  0.26483297159E+01  0.39474773328E+01  0.00000000000E+00 0.  1.
<mgrwt>
<rscale>  1 0.64856511E+03</rscale>
<asrwt>0</asrwt>
<pdfrwt beam="1">  1        1 0.39463876E+00 0.64856511E+03</pdfrwt>
<pdfrwt beam="2">0</pdfrwt>
<totfact> 0.14138209E+00</totfact>
</mgrwt>
</event>
<event>
 6    1  0.5715586E-003  0.6526656E+03  0.7818608E-02  0.9801790E-01
          1   -1    0    0  502    0  0.00000000000E+00  0.00000000000E+00  0.10649317661E+03  0.10649317661E+03  0.00000000000E+00 0.  1.
         13   -1    0    0    0    0 -0.00000000000E+00 -0.00000000000E+00 -0.10000000000E+04  0.10000000000E+04  0.00000000000E+00 0.  1.
    9000005    2    1    2  501    0  0.66116823092E-05 -0.40600351667E-04 -0.89350688612E+03  0.11064931016E+04  0.65266563288E+03 0.  0.
         13    1    3    3    0    0 -0.64186261356E+02 -0.29847211044E+03 -0.64217927904E+03  0.71105534474E+03  0.00000000000E+00 0.  1.
          3    1    3    3  501    0  0.64186267968E+02  0.29847206984E+03 -0.25132760708E+03  0.39543775686E+03  0.00000000000E+00 0.  1.
         21    1    1    2  502  501 -0.66116823113E-05  0.40600351703E-04  0.62723632653E-04  0.75009046085E-04  0.00000000000E+00 0.  1.
<mgrwt>
<rscale>  1 0.65266563E+03</rscale>
<asrwt>0</asrwt>
<pdfrwt beam="1">  1        1 0.38724873E+00 0.65266563E+03</pdfrwt>
<pdfrwt beam="2">0</pdfrwt>
<totfact> 0.15235120E+00</totfact>
</mgrwt>
</event>
<event>
 6    1  0.5715586E-003  0.6501933E+03  0.7818608E-02  0.9806416E-01
          1   -1    0    0  502    0  0.00000000000E+00  0.00000000000E+00  0.10569553132E+03  0.10569553132E+03  0.00000000000E+00 0.  1.
         13   -1    0    0    0    0 -0.00000000000E+00 -0.00000000000E+00 -0.10000000000E+04  0.10000000000E+04  0.00000000000E+00 0.  1.
    9000005    2    1    2  501    0  0.29708640193E-03 -0.10079384137E-03 -0.89431215028E+03  0.11056878433E+04  0.65019334411E+03 0.  0.
         13    1    3    3    0    0  0.76571454627E+01 -0.18315940856E+03 -0.90372155035E+03  0.92212723709E+03  0.00000000000E+00 0.  1.
          3    1    3    3  501    0 -0.76568483763E+01  0.18315930776E+03  0.94094000727E+01  0.18356060622E+03  0.00000000000E+00 0.  1.
         21    1    1    2  502  501 -0.29708640193E-03  0.10079384138E-03  0.76815995124E-02  0.76880030435E-02  0.00000000000E+00 0.  1.
<mgrwt>
<rscale>  1 0.65019334E+03</rscale>
<asrwt>0</asrwt>
<pdfrwt beam="1">  1        1 0.38434820E+00 0.65019334E+03</pdfrwt>
<pdfrwt beam="2">0</pdfrwt>
<totfact> 0.15699266E+00</totfact>
</mgrwt>
</event>
