<event>
 6    1  0.4248415E-003  0.6429966E+03  0.7818608E-02  0.9820010E-01
          1   -1    0    0  502    0  0.00000000000E+00  0.00000000000E+00  0.11057232524E+03  0.11057232524E+03  0.00000000000E+00 0.  1.
         13   -1    0    0    0    0 -0.00000000000E+00 -0.00000000000E+00 -0.10000000000E+04  0.10000000000E+04  0.00000000000E+00 0.  1.
    9000005    2    1    2  501    0  0.73820486759E-02  0.15262183762E+00 -0.89663793673E+03  0.11033604444E+04  0.64299662307E+03 0.  0.
         13    1    3    3    0    0 -0.29953530322E+03  0.10968302902E+03 -0.51750033271E+03  0.60791311804E+03  0.00000000000E+00 0.  1.
          1    1    3    3  501    0  0.29954268527E+03 -0.10953040718E+03 -0.37913760402E+03  0.49544732634E+03  0.00000000000E+00 0.  1.
         21    1    1    2  502  501 -0.73820486759E-02 -0.15262183762E+00  0.72102619652E+01  0.72118808592E+01  0.00000000000E+00 0.  1.
<mgrwt>
<rscale>  1 0.64299664E+03</rscale>
<asrwt>0</asrwt>
<pdfrwt beam="1">  1        1 0.40208203E+00 0.64299664E+03</pdfrwt>
<pdfrwt beam="2">0</pdfrwt>
<totfact> 0.13113341E+00</totfact>
</mgrwt>
</event>
<event>
 6    1  0.4248415E-003  0.5587160E+03  0.7818608E-02  0.9994964E-01
          1   -1    0    0  502    0  0.00000000000E+00  0.00000000000E+00  0.78706020901E+02  0.78706020901E+02  0.00000000000E+00 0.  1.
         13   -1    0    0    0    0 -0.00000000000E+00 -0.00000000000E+00 -0.10000000000E+04  0.10000000000E+04  0.00000000000E+00 0.  1.
    9000005    2    1    2  501    0  0.14487937404E+00  0.32410609639E-01 -0.92195016623E+03  0.10780332490E+04  0.55871598769E+03 0.  0.
         13    1    3    3    0    0 -0.13416477584E+03 -0.17556868479E+03 -0.13124021907E+03  0.25699911529E+03  0.00000000000E+00 0.  1.
          3    1    3    3  501    0  0.13430965521E+03  0.17560109540E+03 -0.79070994715E+03  0.82103413371E+03  0.00000000000E+00 0.  1.
         21    1    1    2  502  501 -0.14487937404E+00 -0.32410609639E-01  0.65618713037E+00  0.67277190094E+00  0.00000000000E+00 0.  1.
<mgrwt>
<rscale>  1 0.55871601E+03</rscale>
<asrwt>0</asrwt>
<pdfrwt beam="1">  1        1 0.28620432E+00 0.55871601E+03</pdfrwt>
<pdfrwt beam="2">0</pdfrwt>
<totfact> 0.42626041E+00</totfact>
</mgrwt>
</event>
<event>
 6    1  0.4248415E-003  0.6465871E+03  0.7818608E-02  0.9813204E-01
          1   -1    0    0  502    0  0.00000000000E+00  0.00000000000E+00  0.10452051466E+03  0.10452051466E+03  0.00000000000E+00 0.  1.
         13   -1    0    0    0    0 -0.00000000000E+00 -0.00000000000E+00 -0.10000000000E+04  0.10000000000E+04  0.00000000000E+00 0.  1.
    9000005    2    1    2  501    0  0.92562500271E-04  0.17849199087E-03 -0.89548128401E+03  0.11045187048E+04  0.64658707011E+03 0.  0.
         13    1    3    3    0    0 -0.13303748115E+03  0.10501414189E+03  0.22539981314E+02  0.17098243227E+03  0.00000000000E+00 0.  1.
          3    1    3    3  501    0  0.13303757371E+03 -0.10501396340E+03 -0.91802126532E+03  0.93353627252E+03  0.00000000000E+00 0.  1.
         21    1    1    2  502  501 -0.92562500260E-04 -0.17849199087E-03  0.17986638802E-02  0.18098671115E-02  0.00000000000E+00 0. -1.
<mgrwt>
<rscale>  1 0.64658707E+03</rscale>
<asrwt>0</asrwt>
<pdfrwt beam="1">  1        1 0.38007540E+00 0.64658707E+03</pdfrwt>
<pdfrwt beam="2">0</pdfrwt>
<totfact> 0.16407447E+00</totfact>
</mgrwt>
</event>
<event>
 6    1  0.4248415E-003  0.6458436E+03  0.7818608E-02  0.9814610E-01
          1   -1    0    0  502    0  0.00000000000E+00  0.00000000000E+00  0.10427966700E+03  0.10427966700E+03  0.00000000000E+00 0.  1.
         13   -1    0    0    0    0 -0.00000000000E+00 -0.00000000000E+00 -0.10000000000E+04  0.10000000000E+04  0.00000000000E+00 0.  1.
    9000005    2    1    2  501    0 -0.17666295832E-03  0.75853547166E-04 -0.89572151853E+03  0.11042784660E+04  0.64584355045E+03 0.  0.
         13    1    3    3    0    0  0.13694571773E+03  0.51418221104E+02 -0.94010131422E+03  0.95141391836E+03  0.00000000000E+00 0.  1.
          3    1    3    3  501    0 -0.13694589439E+03 -0.51418145250E+02  0.44379795682E+02  0.15286454761E+03  0.00000000000E+00 0.  1.
         21    1    1    2  502  501  0.17666295834E-03 -0.75853547164E-04  0.11855369644E-02  0.12010251685E-02  0.00000000000E+00 0.  1.
<mgrwt>
<rscale>  1 0.64584355E+03</rscale>
<asrwt>0</asrwt>
<pdfrwt beam="1">  1        1 0.37919959E+00 0.64584355E+03</pdfrwt>
<pdfrwt beam="2">0</pdfrwt>
<totfact> 0.16556325E+00</totfact>
</mgrwt>
</event>
<event>
 6    1  0.4248415E-003  0.6530420E+03  0.7818608E-02  0.9801088E-01
          1   -1    0    0  502    0  0.00000000000E+00  0.00000000000E+00  0.10661622409E+03  0.10661622409E+03  0.00000000000E+00 0.  1.
         13   -1    0    0    0    0 -0.00000000000E+00 -0.00000000000E+00 -0.10000000000E+04  0.10000000000E+04  0.00000000000E+00 0.  1.
    9000005    2    1    2  501    0  0.20598565087E-04  0.43004173278E-04 -0.89338403319E+03  0.11066159624E+04  0.65304200290E+03 0.  0.
         13    1    3    3    0    0  0.93979084575E+02 -0.29979743708E+03 -0.59735868110E+03  0.67494293499E+03  0.00000000000E+00 0.  1.
          3    1    3    3  501    0 -0.93979063976E+02  0.29979748009E+03 -0.29602535209E+03  0.43167302744E+03  0.00000000000E+00 0.  1.
         21    1    1    2  502  501 -0.20598565081E-04 -0.43004173273E-04  0.25727706683E-03  0.26165845853E-03  0.00000000000E+00 0. -1.
<mgrwt>
<rscale>  1 0.65304200E+03</rscale>
<asrwt>0</asrwt>
<pdfrwt beam="1">  1        1 0.38769618E+00 0.65304200E+03</pdfrwt>
<pdfrwt beam="2">0</pdfrwt>
<totfact> 0.15164704E+00</totfact>
</mgrwt>
</event>
<event>
 6    1  0.4248415E-003  0.6739556E+03  0.7818608E-02  0.9762838E-01
          1   -1    0    0  502    0  0.00000000000E+00  0.00000000000E+00  0.11360938283E+03  0.11360938283E+03  0.00000000000E+00 0.  1.
         13   -1    0    0    0    0 -0.00000000000E+00 -0.00000000000E+00 -0.10000000000E+04  0.10000000000E+04  0.00000000000E+00 0.  1.
    9000005    2    1    2  501    0 -0.44980029351E-01 -0.16128618363E-01 -0.88643422765E+03  0.11135446896E+04  0.67395558724E+03 0.  0.
         13    1    3    3    0    0  0.26139236718E+03  0.20024033983E+03 -0.56137742280E+03  0.65082007817E+03  0.00000000000E+00 0.  1.
          3    1    3    3  501    0 -0.26143734721E+03 -0.20025646845E+03 -0.32505680485E+03  0.46272461146E+03  0.00000000000E+00 0.  1.
         21    1    1    2  502  501  0.44980029351E-01  0.16128618363E-01  0.43610478380E-01  0.64693192805E-01  0.00000000000E+00 0.  1.
<mgrwt>
<rscale>  1 0.67395559E+03</rscale>
<asrwt>0</asrwt>
<pdfrwt beam="1">  1        1 0.41312590E+00 0.67395559E+03</pdfrwt>
<pdfrwt beam="2">0</pdfrwt>
<totfact> 0.11633064E+00</totfact>
</mgrwt>
</event>
<event>
 6    1  0.4248415E-003  0.6562085E+03  0.7818608E-02  0.9795199E-01
          1   -1    0    0  502    0  0.00000000000E+00  0.00000000000E+00  0.10825197207E+03  0.10825197207E+03  0.00000000000E+00 0.  1.
         13   -1    0    0    0    0 -0.00000000000E+00 -0.00000000000E+00 -0.10000000000E+04  0.10000000000E+04  0.00000000000E+00 0.  1.
    9000005    2    1    2  501    0 -0.26397314032E-02 -0.14998807294E-01 -0.89234749894E+03  0.11076523076E+04  0.65620848480E+03 0.  0.
         13    1    3    3    0    0  0.13293092811E+03 -0.23764487360E+03 -0.75517303389E+03  0.80276523885E+03  0.00000000000E+00 0.  1.
          3    1    3    3  501    0 -0.13293356784E+03  0.23762987479E+03 -0.13717446505E+03  0.30488706879E+03  0.00000000000E+00 0.  1.
         21    1    1    2  502  501  0.26397314032E-02  0.14998807294E-01  0.59947101010E+00  0.59966442645E+00  0.00000000000E+00 0. -1.
<mgrwt>
<rscale>  1 0.65620848E+03</rscale>
<asrwt>0</asrwt>
<pdfrwt beam="1">  1        1 0.39364436E+00 0.65620848E+03</pdfrwt>
<pdfrwt beam="2">0</pdfrwt>
<totfact> 0.14262339E+00</totfact>
</mgrwt>
</event>
<event>
 6    1  0.4248415E-003  0.6174862E+03  0.7818608E-02  0.9869778E-01
          1   -1    0    0  502    0  0.00000000000E+00  0.00000000000E+00  0.95322364281E+02  0.95322364281E+02  0.00000000000E+00 0.  1.
         13   -1    0    0    0    0 -0.00000000000E+00 -0.00000000000E+00 -0.10000000000E+04  0.10000000000E+04  0.00000000000E+00 0.  1.
    9000005    2    1    2  501    0  0.12938676484E-03  0.95154669339E-04 -0.90467759099E+03  0.10953221976E+04  0.61748617217E+03 0.  0.
         13    1    3    3    0    0 -0.35584414009E+02  0.25971915883E+03 -0.74165452289E+03  0.78662044425E+03  0.00000000000E+00 0.  1.
          3    1    3    3  501    0  0.35584543396E+02 -0.25971906368E+03 -0.16302306810E+03  0.30870175331E+03  0.00000000000E+00 0.  1.
         21    1    1    2  502  501 -0.12938676484E-03 -0.95154669315E-04 -0.44726724112E-04  0.16672080211E-03  0.00000000000E+00 0. -1.
<mgrwt>
<rscale>  1 0.61748617E+03</rscale>
<asrwt>0</asrwt>
<pdfrwt beam="1">  1        1 0.34662751E+00 0.61748617E+03</pdfrwt>
<pdfrwt beam="2">0</pdfrwt>
<totfact> 0.23112342E+00</totfact>
</mgrwt>
</event>
<event>
 6    1  0.4248415E-003  0.6485156E+03  0.7818608E-02  0.9809569E-01
          1   -1    0    0  502    0  0.00000000000E+00  0.00000000000E+00  0.10514319373E+03  0.10514319373E+03  0.00000000000E+00 0.  1.
         13   -1    0    0    0    0 -0.00000000000E+00 -0.00000000000E+00 -0.10000000000E+04  0.10000000000E+04  0.00000000000E+00 0.  1.
    9000005    2    1    2  501    0  0.47228433075E-04 -0.17987179024E-03 -0.89485636509E+03  0.11051427150E+04  0.64851561762E+03 0.  0.
         13    1    3    3    0    0  0.28978296790E+02  0.30944992178E+03 -0.28990995778E+03  0.42502562204E+03  0.00000000000E+00 0.  1.
          1    1    3    3  501    0 -0.28978249562E+02 -0.30945010165E+03 -0.60494640731E+03  0.68011709292E+03  0.00000000000E+00 0.  1.
         21    1    1    2  502  501 -0.47228433075E-04  0.17987179024E-03 -0.44117805288E-03  0.47877182473E-03  0.00000000000E+00 0.  1.
<mgrwt>
<rscale>  1 0.64851562E+03</rscale>
<asrwt>0</asrwt>
<pdfrwt beam="1">  1        1 0.38233969E+00 0.64851562E+03</pdfrwt>
<pdfrwt beam="2">0</pdfrwt>
<totfact> 0.16028407E+00</totfact>
</mgrwt>
</event>
<event>
 6    1  0.4248415E-003  0.6312196E+03  0.7818608E-02  0.9842672E-01
          1   -1    0    0  502    0  0.00000000000E+00  0.00000000000E+00  0.99609987153E+02  0.99609987153E+02  0.00000000000E+00 0.  1.
         13   -1    0    0    0    0 -0.00000000000E+00 -0.00000000000E+00 -0.10000000000E+04  0.10000000000E+04  0.00000000000E+00 0.  1.
    9000005    2    1    2  501    0 -0.89459311624E-04  0.16428023628E-04 -0.90039045565E+03  0.10996095351E+04  0.63121957912E+03 0.  0.
         13    1    3    3    0    0 -0.19469870028E+03  0.24062417984E+03 -0.34278075496E+03  0.46185086964E+03  0.00000000000E+00 0.  1.
          1    1    3    3  501    0  0.19469861082E+03 -0.24062416341E+03 -0.55760970069E+03  0.63775866547E+03  0.00000000000E+00 0.  1.
         21    1    1    2  502  501  0.89459311625E-04 -0.16428023626E-04  0.44280300674E-03  0.45204795229E-03  0.00000000000E+00 0. -1.
<mgrwt>
<rscale>  1 0.63121958E+03</rscale>
<asrwt>0</asrwt>
<pdfrwt beam="1">  1        1 0.36221890E+00 0.63121958E+03</pdfrwt>
<pdfrwt beam="2">0</pdfrwt>
<totfact> 0.19711761E+00</totfact>
</mgrwt>
</event>
<event>
 6    1  0.8069720E-003  0.6482276E+03  0.7818608E-02  0.9810111E-01
          1   -1    0    0  502    0  0.00000000000E+00  0.00000000000E+00  0.10504976237E+03  0.10504976237E+03  0.00000000000E+00 0.  1.
         13   -1    0    0    0    0 -0.00000000000E+00 -0.00000000000E+00 -0.10000000000E+04  0.10000000000E+04  0.00000000000E+00 0.  1.
    9000005    2    1    2  501    0  0.11508940361E-05  0.89633005018E-06 -0.89495023875E+03  0.11050497605E+04  0.64822761698E+03 0.  0.
         13    1    3    3    0    0 -0.32874171205E+02  0.89922735922E+02  0.80392475117E+02  0.12501903705E+03  0.00000000000E+00 0.  1.
          1    1    3    3  501    0  0.32874172356E+02 -0.89922735026E+02 -0.97534271387E+03  0.98003072349E+03  0.00000000000E+00 0.  1.
         21    1    1    2  502  501 -0.11508940338E-05 -0.89633006216E-06  0.11177393507E-05  0.18377447901E-05  0.00000000000E+00 0.  1.
<mgrwt>
<rscale>  1 0.64822762E+03</rscale>
<asrwt>0</asrwt>
<pdfrwt beam="1">  1        1 0.38199994E+00 0.64822762E+03</pdfrwt>
<pdfrwt beam="2">0</pdfrwt>
<totfact> 0.16084741E+00</totfact>
</mgrwt>
</event>
<event>
 6    1  0.4248415E-003  0.6289903E+03  0.7818608E-02  0.9847021E-01
          1   -1    0    0  502    0  0.00000000000E+00  0.00000000000E+00  0.98954287638E+02  0.98954287638E+02  0.00000000000E+00 0.  1.
         13   -1    0    0    0    0 -0.00000000000E+00 -0.00000000000E+00 -0.10000000000E+04  0.10000000000E+04  0.00000000000E+00 0.  1.
    9000005    2    1    2  501    0  0.12652427761E-02  0.28521770928E-03 -0.90109279166E+03  0.10989071905E+04  0.62899029730E+03 0.  0.
         13    1    3    3    0    0  0.13167911321E+03  0.12025835338E+03  0.20354285775E+01  0.17834125541E+03  0.00000000000E+00 0.  1.
          3    1    3    3  501    0 -0.13167784796E+03 -0.12025806817E+03 -0.90312822024E+03  0.92056593506E+03  0.00000000000E+00 0.  1.
         21    1    1    2  502  501 -0.12652427761E-02 -0.28521770927E-03  0.47079300387E-01  0.47097162477E-01  0.00000000000E+00 0. -1.
<mgrwt>
<rscale>  1 0.62899030E+03</rscale>
<asrwt>0</asrwt>
<pdfrwt beam="1">  1        1 0.35983453E+00 0.62899030E+03</pdfrwt>
<pdfrwt beam="2">0</pdfrwt>
<totfact> 0.20199121E+00</totfact>
</mgrwt>
</event>
<event>
 6    1  0.4248415E-003  0.6588353E+03  0.7818608E-02  0.9790340E-01
          1   -1    0    0  502    0  0.00000000000E+00  0.00000000000E+00  0.10852838177E+03  0.10852838177E+03  0.00000000000E+00 0.  1.
         13   -1    0    0    0    0 -0.00000000000E+00 -0.00000000000E+00 -0.10000000000E+04  0.10000000000E+04  0.00000000000E+00 0.  1.
    9000005    2    1    2  501    0  0.11921366507E-01  0.13655381838E-01 -0.89147615739E+03  0.11085096951E+04  0.65883533949E+03 0.  0.
         13    1    3    3    0    0 -0.24041061426E+03  0.21980455129E+03 -0.52824805711E+03  0.62061043663E+03  0.00000000000E+00 0.  1.
          3    1    3    3  501    0  0.24042253563E+03 -0.21979089591E+03 -0.36322810028E+03  0.48789925845E+03  0.00000000000E+00 0.  1.
         21    1    1    2  502  501 -0.11921366507E-01 -0.13655381838E-01  0.45391538643E-02  0.18686689122E-01  0.00000000000E+00 0. -1.
<mgrwt>
<rscale>  1 0.65883534E+03</rscale>
<asrwt>0</asrwt>
<pdfrwt beam="1">  1        1 0.39464949E+00 0.65883534E+03</pdfrwt>
<pdfrwt beam="2">0</pdfrwt>
<totfact> 0.14109475E+00</totfact>
</mgrwt>
</event>
<event>
 6    1  0.4248415E-003  0.6601765E+03  0.7818608E-02  0.9787869E-01
          1   -1    0    0  502    0  0.00000000000E+00  0.00000000000E+00  0.10897098788E+03  0.10897098788E+03  0.00000000000E+00 0.  1.
         13   -1    0    0    0    0 -0.00000000000E+00 -0.00000000000E+00 -0.10000000000E+04  0.10000000000E+04  0.00000000000E+00 0.  1.
    9000005    2    1    2  501    0  0.37781986611E-02  0.10808933988E-01 -0.89103884738E+03  0.11089558935E+04  0.66017645071E+03 0.  0.
         13    1    3    3    0    0  0.25333889953E+03 -0.73499186594E+02 -0.77884501679E+03  0.82230303941E+03  0.00000000000E+00 0.  1.
          3    1    3    3  501    0 -0.25333512133E+03  0.73509995528E+02 -0.11219383059E+03  0.28665285410E+03  0.00000000000E+00 0.  1.
         21    1    1    2  502  501 -0.37781986611E-02 -0.10808933988E-01  0.98352601352E-02  0.15094375807E-01  0.00000000000E+00 0.  1.
<mgrwt>
<rscale>  1 0.66017645E+03</rscale>
<asrwt>0</asrwt>
<pdfrwt beam="1">  1        1 0.39625897E+00 0.66017645E+03</pdfrwt>
<pdfrwt beam="2">0</pdfrwt>
<totfact> 0.13875335E+00</totfact>
</mgrwt>
</event>
<event>
 6    1  0.4248415E-003  0.6817813E+03  0.7818608E-02  0.9748906E-01
          1   -1    0    0  502    0  0.00000000000E+00  0.00000000000E+00  0.11620820731E+03  0.11620820731E+03  0.00000000000E+00 0.  1.
         13   -1    0    0    0    0 -0.00000000000E+00 -0.00000000000E+00 -0.10000000000E+04  0.10000000000E+04  0.00000000000E+00 0.  1.
    9000005    2    1    2  501    0  0.42897394053E-04 -0.32969044213E-04 -0.88379355860E+03  0.11162064406E+04  0.68178131666E+03 0.  0.
         13    1    3    3    0    0 -0.28352599060E+03 -0.15254241483E+03 -0.62530792575E+03  0.70332508676E+03  0.00000000000E+00 0.  1.
          1    1    3    3  501    0  0.28352603349E+03  0.15254238186E+03 -0.25848563285E+03  0.41288135381E+03  0.00000000000E+00 0.  1.
         21    1    1    2  502  501 -0.42897394067E-04  0.32969044218E-04  0.17659118679E-02  0.17667404647E-02  0.00000000000E+00 0.  1.
<mgrwt>
<rscale>  1 0.68178132E+03</rscale>
<asrwt>0</asrwt>
<pdfrwt beam="1">  1        1 0.42257619E+00 0.68178132E+03</pdfrwt>
<pdfrwt beam="2">0</pdfrwt>
<totfact> 0.10530366E+00</totfact>
</mgrwt>
</event>
<event>
 6    1  0.4248415E-003  0.6554385E+03  0.7818608E-02  0.9796627E-01
          1   -1    0    0  502    0  0.00000000000E+00  0.00000000000E+00  0.10740073312E+03  0.10740073312E+03  0.00000000000E+00 0.  1.
         13   -1    0    0    0    0 -0.00000000000E+00 -0.00000000000E+00 -0.10000000000E+04  0.10000000000E+04  0.00000000000E+00 0.  1.
    9000005    2    1    2  501    0 -0.69674975231E-04  0.35657848400E-04 -0.89260009009E+03  0.11073999062E+04  0.65543850317E+03 0.  0.
         13    1    3    3    0    0  0.13418161394E+01  0.29340376275E+03 -0.69295408756E+03  0.75251108692E+03  0.00000000000E+00 0.  1.
          1    1    3    3  501    0 -0.13418858143E+01 -0.29340372709E+03 -0.19964600253E+03  0.35488881928E+03  0.00000000000E+00 0.  1.
         21    1    1    2  502  501  0.69674975231E-04 -0.35657848409E-04  0.82320498895E-03  0.82691749175E-03  0.00000000000E+00 0.  1.
<mgrwt>
<rscale>  1 0.65543850E+03</rscale>
<asrwt>0</asrwt>
<pdfrwt beam="1">  1        1 0.39054894E+00 0.65543850E+03</pdfrwt>
<pdfrwt beam="2">0</pdfrwt>
<totfact> 0.14722974E+00</totfact>
</mgrwt>
</event>
<event>
 6    1  0.4248415E-003  0.6522851E+03  0.7818608E-02  0.9802501E-01
          1   -1    0    0  502    0  0.00000000000E+00  0.00000000000E+00  0.11116546829E+03  0.11116546829E+03  0.00000000000E+00 0.  1.
         13   -1    0    0    0    0 -0.00000000000E+00 -0.00000000000E+00 -0.10000000000E+04  0.10000000000E+04  0.00000000000E+00 0.  1.
    9000005    2    1    2  501    0 -0.11178453123E-01  0.11757608206E+00 -0.89363021939E+03  0.11063683265E+04  0.65228513007E+03 0.  0.
         13    1    3    3    0    0  0.10301028451E+03 -0.73473186425E+02  0.63035869756E+02  0.14136105798E+03  0.00000000000E+00 0.  1.
          1    1    3    3  501    0 -0.10302146296E+03  0.73590762507E+02 -0.95666608915E+03  0.96500726851E+03  0.00000000000E+00 0.  1.
         21    1    1    2  502  501  0.11178453123E-01 -0.11757608206E+00  0.47956876790E+01  0.47971417956E+01  0.00000000000E+00 0. -1.
<mgrwt>
<rscale>  1 0.65228514E+03</rscale>
<asrwt>0</asrwt>
<pdfrwt beam="1">  1        1 0.40423892E+00 0.65228514E+03</pdfrwt>
<pdfrwt beam="2">0</pdfrwt>
<totfact> 0.12802911E+00</totfact>
</mgrwt>
</event>
<event>
 6    1  0.4248415E-003  0.6541045E+03  0.7818608E-02  0.9799108E-01
          1   -1    0    0  502    0  0.00000000000E+00  0.00000000000E+00  0.10696522931E+03  0.10696522931E+03  0.00000000000E+00 0.  1.
         13   -1    0    0    0    0 -0.00000000000E+00 -0.00000000000E+00 -0.10000000000E+04  0.10000000000E+04  0.00000000000E+00 0.  1.
    9000005    2    1    2  501    0  0.40280998473E-03 -0.12392038040E-02 -0.89303658239E+03  0.11069629977E+04  0.65410453352E+03 0.  0.
         13    1    3    3    0    0 -0.25650398438E+03  0.18697580111E+03 -0.57986451339E+03  0.66105756035E+03  0.00000000000E+00 0.  1.
          3    1    3    3  501    0  0.25650438719E+03 -0.18697704032E+03 -0.31317206899E+03  0.44590543734E+03  0.00000000000E+00 0.  1.
         21    1    1    2  502  501 -0.40280998476E-03  0.12392038040E-02  0.18116954565E-02  0.22316187799E-02  0.00000000000E+00 0.  1.
<mgrwt>
<rscale>  1 0.65410453E+03</rscale>
<asrwt>0</asrwt>
<pdfrwt beam="1">  1        1 0.38896529E+00 0.65410453E+03</pdfrwt>
<pdfrwt beam="2">0</pdfrwt>
<totfact> 0.14966671E+00</totfact>
</mgrwt>
</event>
<event>
 6    1  0.4248415E-003  0.6378939E+03  0.7818608E-02  0.9829764E-01
          1   -1    0    0  502    0  0.00000000000E+00  0.00000000000E+00  0.10172770412E+03  0.10172770412E+03  0.00000000000E+00 0.  1.
         13   -1    0    0    0    0 -0.00000000000E+00 -0.00000000000E+00 -0.10000000000E+04  0.10000000000E+04  0.00000000000E+00 0.  1.
    9000005    2    1    2  501    0  0.82388102896E-04  0.16120997444E-03 -0.89827282530E+03  0.11017271446E+04  0.63789390378E+03 0.  0.
         13    1    3    3    0    0 -0.27408198409E+03  0.15753055651E+03 -0.37605707267E+03  0.49127968830E+03  0.00000000000E+00 0.  1.
          1    1    3    3  501    0  0.27408206647E+03 -0.15753039530E+03 -0.52221575263E+03  0.61044745630E+03  0.00000000000E+00 0.  1.
         21    1    1    2  502  501 -0.82388102905E-04 -0.16120997445E-03  0.52942173615E-03  0.55952107205E-03  0.00000000000E+00 0.  1.
<mgrwt>
<rscale>  1 0.63789390E+03</rscale>
<asrwt>0</asrwt>
<pdfrwt beam="1">  1        1 0.36991970E+00 0.63789390E+03</pdfrwt>
<pdfrwt beam="2">0</pdfrwt>
<totfact> 0.18215282E+00</totfact>
</mgrwt>
</event>
<event>
 6    1  0.4248415E-003  0.6674811E+03  0.7818608E-02  0.9774519E-01
          1   -1    0    0  502    0  0.00000000000E+00  0.00000000000E+00  0.12191038322E+03  0.12191038322E+03  0.00000000000E+00 0.  1.
         13   -1    0    0    0    0 -0.00000000000E+00 -0.00000000000E+00 -0.10000000000E+04  0.10000000000E+04  0.00000000000E+00 0.  1.
    9000005    2    1    2  501    0 -0.14633415853E+01  0.28465263711E+01 -0.88834617829E+03  0.11111660296E+04  0.66747342175E+03 0.  0.
         13    1    3    3    0    0 -0.12167864639E+02 -0.67078301605E+02 -0.98723188913E+03  0.98958292143E+03  0.00000000000E+00 0.  1.
          1    1    3    3  501    0  0.10704523054E+02  0.69924827976E+02  0.98885710835E+02  0.12158310816E+03  0.00000000000E+00 0.  1.
         21    1    1    2  502  501  0.14633415853E+01 -0.28465263711E+01  0.10256561511E+02  0.10744353634E+02  0.00000000000E+00 0. -1.
<mgrwt>
<rscale>  1 0.66748110E+03</rscale>
<asrwt>0</asrwt>
<pdfrwt beam="1">  1        1 0.44331142E+00 0.66748110E+03</pdfrwt>
<pdfrwt beam="2">0</pdfrwt>
<totfact> 0.84968362E-01</totfact>
</mgrwt>
</event>
<event>
 6    1  0.4248415E-003  0.6695149E+03  0.7818608E-02  0.9770834E-01
          1   -1    0    0  502    0  0.00000000000E+00  0.00000000000E+00  0.11206303388E+03  0.11206303388E+03  0.00000000000E+00 0.  1.
         13   -1    0    0    0    0 -0.00000000000E+00 -0.00000000000E+00 -0.10000000000E+04  0.10000000000E+04  0.00000000000E+00 0.  1.
    9000005    2    1    2  501    0  0.15035581217E-03  0.72666142444E-04 -0.88793742263E+03  0.11120625478E+04  0.66951493163E+03 0.  0.
         13    1    3    3    0    0 -0.19239937322E+03 -0.26570915429E+03 -0.55469174263E+03  0.64443913819E+03  0.00000000000E+00 0.  1.
          3    1    3    3  501    0  0.19239952357E+03  0.26570922696E+03 -0.33324568000E+03  0.46762340960E+03  0.00000000000E+00 0.  1.
         21    1    1    2  502  501 -0.15035581218E-03 -0.72666142482E-04  0.45651342506E-03  0.48609849391E-03  0.00000000000E+00 0.  1.
<mgrwt>
<rscale>  1 0.66951493E+03</rscale>
<asrwt>0</asrwt>
<pdfrwt beam="1">  1        1 0.40750280E+00 0.66951493E+03</pdfrwt>
<pdfrwt beam="2">0</pdfrwt>
<totfact> 0.12339225E+00</totfact>
</mgrwt>
</event>
<event>
 6    1  0.4248415E-003  0.6915985E+03  0.7818608E-02  0.9731709E-01
          1   -1    0    0  502    0  0.00000000000E+00  0.00000000000E+00  0.11958880053E+03  0.11958880053E+03  0.00000000000E+00 0.  1.
         13   -1    0    0    0    0 -0.00000000000E+00 -0.00000000000E+00 -0.10000000000E+04  0.10000000000E+04  0.00000000000E+00 0.  1.
    9000005    2    1    2  501    0  0.16327650548E-03  0.90641791729E-04 -0.88042287998E+03  0.11195771185E+04  0.69159849389E+03 0.  0.
         13    1    3    3    0    0 -0.33594504333E+03  0.75526147703E+02 -0.38866758753E+03  0.51925500934E+03  0.00000000000E+00 0.  1.
          3    1    3    3  501    0  0.33594520661E+03 -0.75526057061E+02 -0.49175529245E+03  0.60032210920E+03  0.00000000000E+00 0.  1.
         21    1    1    2  502  501 -0.16327650552E-03 -0.90641791724E-04  0.11680501537E-01  0.11681994321E-01  0.00000000000E+00 0.  1.
<mgrwt>
<rscale>  1 0.69159849E+03</rscale>
<asrwt>0</asrwt>
<pdfrwt beam="1">  1        1 0.43486928E+00 0.69159849E+03</pdfrwt>
<pdfrwt beam="2">0</pdfrwt>
<totfact> 0.92426971E-01</totfact>
</mgrwt>
</event>
<event>
 6    1  0.4248415E-003  0.6420177E+03  0.7818608E-02  0.9821874E-01
          1   -1    0    0  502    0  0.00000000000E+00  0.00000000000E+00  0.10318684171E+03  0.10318684171E+03  0.00000000000E+00 0.  1.
         13   -1    0    0    0    0 -0.00000000000E+00 -0.00000000000E+00 -0.10000000000E+04  0.10000000000E+04  0.00000000000E+00 0.  1.
    9000005    2    1    2  501    0  0.80879935916E-03  0.22101750984E-02 -0.89695332154E+03  0.11030466587E+04  0.64201765572E+03 0.  0.
         13    1    3    3    0    0  0.13243311563E+03 -0.22663204951E+03 -0.13099705970E+03  0.29336128857E+03  0.00000000000E+00 0.  1.
          1    1    3    3  501    0 -0.13243230683E+03  0.22663425969E+03 -0.76595626184E+03  0.80968537013E+03  0.00000000000E+00 0.  1.
         21    1    1    2  502  501 -0.80879935915E-03 -0.22101750984E-02  0.14016325199E+00  0.14018300981E+00  0.00000000000E+00 0.  1.
<mgrwt>
<rscale>  1 0.64201766E+03</rscale>
<asrwt>0</asrwt>
<pdfrwt beam="1">  1        1 0.37522567E+00 0.64201766E+03</pdfrwt>
<pdfrwt beam="2">0</pdfrwt>
<totfact> 0.17249599E+00</totfact>
</mgrwt>
</event>
<event>
 6    1  0.4248415E-003  0.6319776E+03  0.7818608E-02  0.9841197E-01
          1   -1    0    0  502    0  0.00000000000E+00  0.00000000000E+00  0.99976998695E+02  0.99976998695E+02  0.00000000000E+00 0.  1.
         13   -1    0    0    0    0 -0.00000000000E+00 -0.00000000000E+00 -0.10000000000E+04  0.10000000000E+04  0.00000000000E+00 0.  1.
    9000005    2    1    2  501    0 -0.10061969868E+00  0.48734647104E-01 -0.90012373233E+03  0.10998265124E+04  0.63197754022E+03 0.  0.
         13    1    3    3    0    0  0.27068714906E+03 -0.14969228116E+03 -0.33807544211E+03  0.45822954538E+03  0.00000000000E+00 0.  1.
          3    1    3    3  501    0 -0.27078776876E+03  0.14974101581E+03 -0.56204829022E+03  0.64159696700E+03  0.00000000000E+00 0.  1.
         21    1    1    2  502  501  0.10061969868E+00 -0.48734647104E-01  0.10073102646E+00  0.15048630928E+00  0.00000000000E+00 0. -1.
<mgrwt>
<rscale>  1 0.63197755E+03</rscale>
<asrwt>0</asrwt>
<pdfrwt beam="1">  1        1 0.36355349E+00 0.63197755E+03</pdfrwt>
<pdfrwt beam="2">0</pdfrwt>
<totfact> 0.19445644E+00</totfact>
</mgrwt>
</event>
<event>
 6    1  0.4248415E-003  0.6585739E+03  0.7818608E-02  0.9790823E-01
          3   -1    0    0  502    0  0.00000000000E+00  0.00000000000E+00  0.10843791566E+03  0.10843791566E+03  0.00000000000E+00 0.  1.
         13   -1    0    0    0    0 -0.00000000000E+00 -0.00000000000E+00 -0.10000000000E+04  0.10000000000E+04  0.00000000000E+00 0.  1.
    9000005    2    1    2  501    0  0.91927240936E-03  0.39489891375E-03 -0.89157007969E+03  0.11084298580E+04  0.65857387057E+03 0.  0.
         13    1    3    3    0    0 -0.17456374911E+03  0.22324954583E+02  0.22639317874E+02  0.17743574841E+03  0.00000000000E+00 0.  1.
          3    1    3    3  501    0  0.17456466838E+03 -0.22324559685E+02 -0.91420939756E+03  0.93099410954E+03  0.00000000000E+00 0.  1.
         21    1    1    2  502  501 -0.91927240937E-03 -0.39489891375E-03  0.79953523746E-02  0.80577085147E-02  0.00000000000E+00 0.  1.
<mgrwt>
<rscale>  1 0.65857387E+03</rscale>
<asrwt>0</asrwt>
<pdfrwt beam="1">  1        3 0.39432052E+00 0.65857387E+03</pdfrwt>
<pdfrwt beam="2">0</pdfrwt>
<totfact> 0.63353445E-02</totfact>
</mgrwt>
</event>
<event>
 6    1  0.4248415E-003  0.6636745E+03  0.7818608E-02  0.9781453E-01
          1   -1    0    0  502    0  0.00000000000E+00  0.00000000000E+00  0.11123921566E+03  0.11123921566E+03  0.00000000000E+00 0.  1.
         13   -1    0    0    0    0 -0.00000000000E+00 -0.00000000000E+00 -0.10000000000E+04  0.10000000000E+04  0.00000000000E+00 0.  1.
    9000005    2    1    2  501    0 -0.10977518133E+00 -0.13874756484E+00 -0.88987630530E+03  0.11101097519E+04  0.66367446171E+03 0.  0.
         13    1    3    3    0    0  0.24992785608E+03  0.10795306992E+03 -0.76202444502E+03  0.80919654804E+03  0.00000000000E+00 0.  1.
          1    1    3    3  501    0 -0.25003763126E+03 -0.10809181748E+03 -0.12785186028E+03  0.30091320382E+03  0.00000000000E+00 0.  1.
         21    1    1    2  502  501  0.10977518133E+00  0.13874756484E+00  0.11155209576E+01  0.11294638037E+01  0.00000000000E+00 0. -1.
<mgrwt>
<rscale>  1 0.66367449E+03</rscale>
<asrwt>0</asrwt>
<pdfrwt beam="1">  1        1 0.40450709E+00 0.66367449E+03</pdfrwt>
<pdfrwt beam="2">0</pdfrwt>
<totfact> 0.12740043E+00</totfact>
</mgrwt>
</event>
<event>
 6    1  0.4248415E-003  0.6608620E+03  0.7818608E-02  0.9786608E-01
          1   -1    0    0  502    0  0.00000000000E+00  0.00000000000E+00  0.10918483215E+03  0.10918483215E+03  0.00000000000E+00 0.  1.
         13   -1    0    0    0    0 -0.00000000000E+00 -0.00000000000E+00 -0.10000000000E+04  0.10000000000E+04  0.00000000000E+00 0.  1.
    9000005    2    1    2  501    0  0.11102594735E-03 -0.29804467545E-04 -0.89081532119E+03  0.11091846405E+04  0.66086203574E+03 0.  0.
         13    1    3    3    0    0 -0.85808296263E+02 -0.31197798226E+03 -0.33292628078E+03  0.46425556923E+03  0.00000000000E+00 0.  1.
          3    1    3    3  501    0  0.85808407289E+02  0.31197795246E+03 -0.55788904040E+03  0.64492907128E+03  0.00000000000E+00 0.  1.
         21    1    1    2  502  501 -0.11102594736E-03  0.29804467554E-04  0.15334093417E-03  0.19164683499E-03  0.00000000000E+00 0. -1.
<mgrwt>
<rscale>  1 0.66086204E+03</rscale>
<asrwt>0</asrwt>
<pdfrwt beam="1">  1        1 0.39703659E+00 0.66086204E+03</pdfrwt>
<pdfrwt beam="2">0</pdfrwt>
<totfact> 0.13763436E+00</totfact>
</mgrwt>
</event>
<event>
 6    1  0.4248415E-003  0.5466706E+03  0.7818608E-02  0.1002267E+00
          1   -1    0    0  502    0  0.00000000000E+00  0.00000000000E+00  0.74715362002E+02  0.74715362002E+02  0.00000000000E+00 0.  1.
         13   -1    0    0    0    0 -0.00000000000E+00 -0.00000000000E+00 -0.10000000000E+04  0.10000000000E+04  0.00000000000E+00 0.  1.
    9000005    2    1    2  501    0 -0.39351411834E-03  0.16158236433E-03 -0.92528779772E+03  0.10747121738E+04  0.54667060267E+03 0.  0.
         13    1    3    3    0    0  0.23373793949E+03 -0.58795217474E+01 -0.18431379147E+03  0.29772397764E+03  0.00000000000E+00 0.  1.
          1    1    3    3  501    0 -0.23373833300E+03  0.58796833298E+01 -0.74097400625E+03  0.77698819613E+03  0.00000000000E+00 0.  1.
         21    1    1    2  502  501  0.39351411832E-03 -0.16158236433E-03  0.31597268427E-02  0.31882339849E-02  0.00000000000E+00 0.  1.
<mgrwt>
<rscale>  1 0.54667060E+03</rscale>
<asrwt>0</asrwt>
<pdfrwt beam="1">  1        1 0.27169280E+00 0.54667060E+03</pdfrwt>
<pdfrwt beam="2">0</pdfrwt>
<totfact> 0.49344159E+00</totfact>
</mgrwt>
</event>
<event>
 6    1  0.4248415E-003  0.5488209E+03  0.7818608E-02  0.1001767E+00
          1   -1    0    0  502    0  0.00000000000E+00  0.00000000000E+00  0.75317524231E+02  0.75317524231E+02  0.00000000000E+00 0.  1.
         13   -1    0    0    0    0 -0.00000000000E+00 -0.00000000000E+00 -0.10000000000E+04  0.10000000000E+04  0.00000000000E+00 0.  1.
    9000005    2    1    2  501    0 -0.12554683176E-02  0.47552915952E-02 -0.92469852138E+03  0.10753007418E+04  0.54882085401E+03 0.  0.
         13    1    3    3    0    0  0.20991300317E+03  0.11521017021E+03 -0.19974265910E+03  0.31182363939E+03  0.00000000000E+00 0.  1.
          1    1    3    3  501    0 -0.20991425864E+03 -0.11520541492E+03 -0.72495586229E+03  0.76347710239E+03  0.00000000000E+00 0.  1.
         21    1    1    2  502  501  0.12554683176E-02 -0.47552915952E-02  0.16045613516E-01  0.16782452501E-01  0.00000000000E+00 0.  1.
<mgrwt>
<rscale>  1 0.54882085E+03</rscale>
<asrwt>0</asrwt>
<pdfrwt beam="1">  1        1 0.27388248E+00 0.54882085E+03</pdfrwt>
<pdfrwt beam="2">0</pdfrwt>
<totfact> 0.48262792E+00</totfact>
</mgrwt>
</event>
<event>
 6    1  0.4248415E-003  0.6476448E+03  0.7818608E-02  0.9811209E-01
          1   -1    0    0  502    0  0.00000000000E+00  0.00000000000E+00  0.10491860764E+03  0.10491860764E+03  0.00000000000E+00 0.  1.
         13   -1    0    0    0    0 -0.00000000000E+00 -0.00000000000E+00 -0.10000000000E+04  0.10000000000E+04  0.00000000000E+00 0.  1.
    9000005    2    1    2  501    0 -0.19422741120E-02  0.31350810409E-02 -0.89513900074E+03  0.11048608813E+04  0.64764476098E+03 0.  0.
         13    1    3    3    0    0 -0.12383016327E+03 -0.29227755357E+03 -0.33833043642E+03  0.46392624615E+03  0.00000000000E+00 0.  1.
          3    1    3    3  501    0  0.12382822100E+03  0.29228068865E+03 -0.55680856432E+03  0.64093463518E+03  0.00000000000E+00 0.  1.
         21    1    1    2  502  501  0.19422741120E-02 -0.31350810409E-02  0.57608382929E-01  0.57726310687E-01  0.00000000000E+00 0.  1.
<mgrwt>
<rscale>  1 0.64764476E+03</rscale>
<asrwt>0</asrwt>
<pdfrwt beam="1">  1        1 0.38152301E+00 0.64764476E+03</pdfrwt>
<pdfrwt beam="2">0</pdfrwt>
<totfact> 0.16164668E+00</totfact>
</mgrwt>
</event>
<event>
 6    1  0.4248415E-003  0.6484200E+03  0.7818608E-02  0.9809748E-01
          1   -1    0    0  502    0  0.00000000000E+00  0.00000000000E+00  0.10511578656E+03  0.10511578656E+03  0.00000000000E+00 0.  1.
         13   -1    0    0    0    0 -0.00000000000E+00 -0.00000000000E+00 -0.10000000000E+04  0.10000000000E+04  0.00000000000E+00 0.  1.
    9000005    2    1    2  501    0 -0.32314023835E-03  0.37273815855E-03 -0.89488785009E+03  0.11051121166E+04  0.64842002285E+03 0.  0.
         13    1    3    3    0    0  0.13048857759E+03 -0.26635273240E+03 -0.22430883815E+03  0.37186758640E+03  0.00000000000E+00 0.  1.
          3    1    3    3  501    0 -0.13048890073E+03  0.26635310514E+03 -0.67057901194E+03  0.73324453021E+03  0.00000000000E+00 0.  1.
         21    1    1    2  502  501  0.32314023836E-03 -0.37273815852E-03  0.36366526848E-02  0.36699585962E-02  0.00000000000E+00 0. -1.
<mgrwt>
<rscale>  1 0.64842002E+03</rscale>
<asrwt>0</asrwt>
<pdfrwt beam="1">  1        1 0.38224003E+00 0.64842002E+03</pdfrwt>
<pdfrwt beam="2">0</pdfrwt>
<totfact> 0.16044945E+00</totfact>
</mgrwt>
</event>
<event>
 6    1  0.4248415E-003  0.6379865E+03  0.7818608E-02  0.9829586E-01
          1   -1    0    0  502    0  0.00000000000E+00  0.00000000000E+00  0.10384461962E+03  0.10384461962E+03  0.00000000000E+00 0.  1.
         13   -1    0    0    0    0 -0.00000000000E+00 -0.00000000000E+00 -0.10000000000E+04  0.10000000000E+04  0.00000000000E+00 0.  1.
    9000005    2    1    2  501    0  0.82734449695E-02  0.52707774985E-01 -0.89824292963E+03  0.11017563887E+04  0.63798650184E+03 0.  0.
         13    1    3    3    0    0 -0.96575268741E+01 -0.26734632298E+03 -0.74907492195E+03  0.79541219687E+03  0.00000000000E+00 0.  1.
          1    1    3    3  501    0  0.96658003191E+01  0.26739903076E+03 -0.14916800768E+03  0.30634419182E+03  0.00000000000E+00 0.  1.
         21    1    1    2  502  501 -0.82734449695E-02 -0.52707774985E-01  0.20875492511E+01  0.20882309343E+01  0.00000000000E+00 0.  1.
<mgrwt>
<rscale>  1 0.63798650E+03</rscale>
<asrwt>0</asrwt>
<pdfrwt beam="1">  1        1 0.37761759E+00 0.63798650E+03</pdfrwt>
<pdfrwt beam="2">0</pdfrwt>
<totfact> 0.16848717E+00</totfact>
</mgrwt>
</event>
<event>
 6    1  0.4248415E-003  0.6545023E+03  0.7818608E-02  0.9798367E-01
          1   -1    0    0  502    0  0.00000000000E+00  0.00000000000E+00  0.10709872101E+03  0.10709872101E+03  0.00000000000E+00 0.  1.
         13   -1    0    0    0    0 -0.00000000000E+00 -0.00000000000E+00 -0.10000000000E+04  0.10000000000E+04  0.00000000000E+00 0.  1.
    9000005    2    1    2  501    0 -0.87183470496E-02  0.61056835904E-02 -0.89285728392E+03  0.11070534567E+04  0.65450227388E+03 0.  0.
         13    1    3    3    0    0  0.16679233080E+03  0.23867408556E+03 -0.19379525350E+03  0.34977364254E+03  0.00000000000E+00 0.  1.
          1    1    3    3  501    0 -0.16680104915E+03 -0.23866797988E+03 -0.69906203042E+03  0.75727981420E+03  0.00000000000E+00 0.  1.
         21    1    1    2  502  501  0.87183470496E-02 -0.61056835904E-02 -0.43995065676E-01  0.45264276767E-01  0.00000000000E+00 0.  1.
<mgrwt>
<rscale>  1 0.65450227E+03</rscale>
<asrwt>0</asrwt>
<pdfrwt beam="1">  1        1 0.38945072E+00 0.65450227E+03</pdfrwt>
<pdfrwt beam="2">0</pdfrwt>
<totfact> 0.14891600E+00</totfact>
</mgrwt>
</event>
<event>
 6    1  0.4248415E-003  0.6456093E+03  0.7818608E-02  0.9815053E-01
          1   -1    0    0  502    0  0.00000000000E+00  0.00000000000E+00  0.10653828457E+03  0.10653828457E+03  0.00000000000E+00 0.  1.
         13   -1    0    0    0    0 -0.00000000000E+00 -0.00000000000E+00 -0.10000000000E+04  0.10000000000E+04  0.00000000000E+00 0.  1.
    9000005    2    1    2  501    0  0.13087495440E+00 -0.73462799303E-01 -0.89579449387E+03  0.11042006832E+04  0.64560928659E+03 0.  0.
         13    1    3    3    0    0  0.17215850306E+03  0.25866884435E+03 -0.59757754551E+03  0.67353325390E+03  0.00000000000E+00 0.  1.
          3    1    3    3  501    0 -0.17202762810E+03 -0.25874230715E+03 -0.29821694836E+03  0.43066742927E+03  0.00000000000E+00 0.  1.
         21    1    1    2  502  501 -0.13087495440E+00  0.73462799303E-01  0.23327784475E+01  0.23376014035E+01  0.00000000000E+00 0. -1.
<mgrwt>
<rscale>  1 0.64560930E+03</rscale>
<asrwt>0</asrwt>
<pdfrwt beam="1">  1        1 0.38741276E+00 0.64560930E+03</pdfrwt>
<pdfrwt beam="2">0</pdfrwt>
<totfact> 0.15229619E+00</totfact>
</mgrwt>
</event>
<event>
 6    1  0.4248415E-003  0.6458578E+03  0.7818608E-02  0.9814583E-01
          1   -1    0    0  502    0  0.00000000000E+00  0.00000000000E+00  0.10428480521E+03  0.10428480521E+03  0.00000000000E+00 0.  1.
         13   -1    0    0    0    0 -0.00000000000E+00 -0.00000000000E+00 -0.10000000000E+04  0.10000000000E+04  0.00000000000E+00 0.  1.
    9000005    2    1    2  501    0 -0.10829311900E-02  0.19754251264E-03 -0.89571672245E+03  0.11042829223E+04  0.64585782144E+03 0.  0.
         13    1    3    3    0    0  0.23199424673E+03 -0.27181997819E+02 -0.82911715106E+03  0.86139157280E+03  0.00000000000E+00 0.  1.
          1    1    3    3  501    0 -0.23199532966E+03  0.27182195362E+02 -0.66599571394E+02  0.24289134945E+03  0.00000000000E+00 0.  1.
         21    1    1    2  502  501  0.10829311900E-02 -0.19754251264E-03  0.15276560051E-02  0.18829487185E-02  0.00000000000E+00 0.  1.
<mgrwt>
<rscale>  1 0.64585782E+03</rscale>
<asrwt>0</asrwt>
<pdfrwt beam="1">  1        1 0.37921827E+00 0.64585782E+03</pdfrwt>
<pdfrwt beam="2">0</pdfrwt>
<totfact> 0.16553141E+00</totfact>
</mgrwt>
</event>
<event>
 6    1  0.4248415E-003  0.6656773E+03  0.7818608E-02  0.9777798E-01
          1   -1    0    0  502    0  0.00000000000E+00  0.00000000000E+00  0.11078567979E+03  0.11078567979E+03  0.00000000000E+00 0.  1.
         13   -1    0    0    0    0 -0.00000000000E+00 -0.00000000000E+00 -0.10000000000E+04  0.10000000000E+04  0.00000000000E+00 0.  1.
    9000005    2    1    2  501    0  0.11964633839E-02 -0.22033992535E-02 -0.88921799063E+03  0.11107812347E+04  0.66567733670E+03 0.  0.
         13    1    3    3    0    0 -0.43103288171E+02 -0.10948901038E+03 -0.96413548950E+03  0.97128933843E+03  0.00000000000E+00 0.  1.
          3    1    3    3  501    0  0.43104484634E+02  0.10948680698E+03  0.74917498870E+02  0.13949189631E+03  0.00000000000E+00 0.  1.
         21    1    1    2  502  501 -0.11964633839E-02  0.22033992535E-02  0.36704188905E-02  0.44450498007E-02  0.00000000000E+00 0.  1.
<mgrwt>
<rscale>  1 0.66567734E+03</rscale>
<asrwt>0</asrwt>
<pdfrwt beam="1">  1        1 0.40285787E+00 0.66567734E+03</pdfrwt>
<pdfrwt beam="2">0</pdfrwt>
<totfact> 0.12953205E+00</totfact>
</mgrwt>
</event>
<event>
 6    1  0.4248415E-003  0.6473481E+03  0.7818608E-02  0.9811768E-01
          1   -1    0    0  502    0  0.00000000000E+00  0.00000000000E+00  0.10476731749E+03  0.10476731749E+03  0.00000000000E+00 0.  1.
         13   -1    0    0    0    0 -0.00000000000E+00 -0.00000000000E+00 -0.10000000000E+04  0.10000000000E+04  0.00000000000E+00 0.  1.
    9000005    2    1    2  501    0 -0.52478812370E-03  0.51805597491E-03 -0.89523504036E+03  0.11047648470E+04  0.64734812096E+03 0.  0.
         13    1    3    3    0    0  0.18505289942E+03 -0.35307939475E+02  0.15578494130E+01  0.18839759305E+03  0.00000000000E+00 0.  1.
          1    1    3    3  501    0 -0.18505342421E+03  0.35308457531E+02 -0.89679288977E+03  0.91636725396E+03  0.00000000000E+00 0.  1.
         21    1    1    2  502  501  0.52478812370E-03 -0.51805597491E-03  0.23578530098E-02  0.24704767523E-02  0.00000000000E+00 0.  1.
<mgrwt>
<rscale>  1 0.64734812E+03</rscale>
<asrwt>0</asrwt>
<pdfrwt beam="1">  1        1 0.38097287E+00 0.64734812E+03</pdfrwt>
<pdfrwt beam="2">0</pdfrwt>
<totfact> 0.16256213E+00</totfact>
</mgrwt>
</event>
<event>
 6    1  0.4248415E-003  0.6173044E+03  0.7818608E-02  0.9870141E-01
          1   -1    0    0  502    0  0.00000000000E+00  0.00000000000E+00  0.95270479998E+02  0.95270479998E+02  0.00000000000E+00 0.  1.
         13   -1    0    0    0    0 -0.00000000000E+00 -0.00000000000E+00 -0.10000000000E+04  0.10000000000E+04  0.00000000000E+00 0.  1.
    9000005    2    1    2  501    0 -0.26372929426E-04  0.77922182817E-03 -0.90473376532E+03  0.10952661637E+04  0.61730444935E+03 0.  0.
         13    1    3    3    0    0  0.29129218167E+03 -0.86131373895E+02 -0.54948882489E+03  0.62785963188E+03  0.00000000000E+00 0.  1.
          1    1    3    3  501    0 -0.29129220804E+03  0.86132153116E+02 -0.35524494043E+03  0.46740653180E+03  0.00000000000E+00 0.  1.
         21    1    1    2  502  501  0.26372929455E-04 -0.77922182816E-03  0.42453177716E-02  0.43163184742E-02  0.00000000000E+00 0. -1.
<mgrwt>
<rscale>  1 0.61730445E+03</rscale>
<asrwt>0</asrwt>
<pdfrwt beam="1">  1        1 0.34643884E+00 0.61730445E+03</pdfrwt>
<pdfrwt beam="2">0</pdfrwt>
<totfact> 0.23156833E+00</totfact>
</mgrwt>
</event>
<event>
 6    1  0.4248415E-003  0.6493346E+03  0.7818608E-02  0.9808029E-01
          1   -1    0    0  502    0  0.00000000000E+00  0.00000000000E+00  0.10541029646E+03  0.10541029646E+03  0.00000000000E+00 0.  1.
         13   -1    0    0    0    0 -0.00000000000E+00 -0.00000000000E+00 -0.10000000000E+04  0.10000000000E+04  0.00000000000E+00 0.  1.
    9000005    2    1    2  501    0 -0.10322910600E-03  0.55573698674E-04 -0.89459115466E+03  0.11054088406E+04  0.64933456008E+03 0.  0.
         13    1    3    3    0    0 -0.29148970643E+03  0.12095633008E+03 -0.57708067616E+03  0.65773762971E+03  0.00000000000E+00 0.  1.
          3    1    3    3  501    0  0.29148960320E+03 -0.12095627451E+03 -0.31751047850E+03  0.44767121090E+03  0.00000000000E+00 0.  1.
         21    1    1    2  502  501  0.10322910599E-03 -0.55573698670E-04  0.14511145968E-02  0.14558427997E-02  0.00000000000E+00 0.  1.
<mgrwt>
<rscale>  1 0.64933456E+03</rscale>
<asrwt>0</asrwt>
<pdfrwt beam="1">  1        1 0.38331098E+00 0.64933456E+03</pdfrwt>
<pdfrwt beam="2">0</pdfrwt>
<totfact> 0.15868406E+00</totfact>
</mgrwt>
</event>
<event>
 6    1  0.4248415E-003  0.5844877E+03  0.7818608E-02  0.9938122E-01
          1   -1    0    0  502    0  0.00000000000E+00  0.00000000000E+00  0.85410903745E+02  0.85410903745E+02  0.00000000000E+00 0.  1.
         13   -1    0    0    0    0 -0.00000000000E+00 -0.00000000000E+00 -0.10000000000E+04  0.10000000000E+04  0.00000000000E+00 0.  1.
    9000005    2    1    2  501    0 -0.52413178684E-02  0.97710357610E-02 -0.91458457776E+03  0.10853989304E+04  0.58448771423E+03 0.  0.
         13    1    3    3    0    0  0.10343263220E+03 -0.18112241673E+02 -0.96374471749E+03  0.96944842214E+03  0.00000000000E+00 0.  1.
          3    1    3    3  501    0 -0.10343787352E+03  0.18122012709E+02  0.49160139734E+02  0.11595050824E+03  0.00000000000E+00 0.  1.
         21    1    1    2  502  501  0.52413178684E-02 -0.97710357610E-02 -0.45184962654E-02  0.11973360487E-01  0.00000000000E+00 0. -1.
<mgrwt>
<rscale>  1 0.58448771E+03</rscale>
<asrwt>0</asrwt>
<pdfrwt beam="1">  1        1 0.31058576E+00 0.58448771E+03</pdfrwt>
<pdfrwt beam="2">0</pdfrwt>
<totfact> 0.33305860E+00</totfact>
</mgrwt>
</event>
<event>
 6    1  0.4248415E-003  0.6522167E+03  0.7818608E-02  0.9802629E-01
          1   -1    0    0  502    0  0.00000000000E+00  0.00000000000E+00  0.10635555436E+03  0.10635555436E+03  0.00000000000E+00 0.  1.
         13   -1    0    0    0    0 -0.00000000000E+00 -0.00000000000E+00 -0.10000000000E+04  0.10000000000E+04  0.00000000000E+00 0.  1.
    9000005    2    1    2  501    0  0.75039416021E-03 -0.59128592133E-03 -0.89365330898E+03  0.11063466397E+04  0.65221672049E+03 0.  0.
         13    1    3    3    0    0 -0.11486018531E+03  0.20634161433E+03 -0.65343674876E+02  0.24502963049E+03  0.00000000000E+00 0.  1.
          1    1    3    3  501    0  0.11486093571E+03 -0.20634220561E+03 -0.82830963410E+03  0.86131700919E+03  0.00000000000E+00 0.  1.
         21    1    1    2  502  501 -0.75039416020E-03  0.59128592131E-03  0.88633432182E-02  0.89146824643E-02  0.00000000000E+00 0. -1.
<mgrwt>
<rscale>  1 0.65221672E+03</rscale>
<asrwt>0</asrwt>
<pdfrwt beam="1">  1        1 0.38674829E+00 0.65221672E+03</pdfrwt>
<pdfrwt beam="2">0</pdfrwt>
<totfact> 0.15314324E+00</totfact>
</mgrwt>
</event>
<event>
 6    1  0.4248415E-003  0.6387335E+03  0.7818608E-02  0.9828153E-01
          1   -1    0    0  502    0  0.00000000000E+00  0.00000000000E+00  0.10205799410E+03  0.10205799410E+03  0.00000000000E+00 0.  1.
         13   -1    0    0    0    0 -0.00000000000E+00 -0.00000000000E+00 -0.10000000000E+04  0.10000000000E+04  0.00000000000E+00 0.  1.
    9000005    2    1    2  501    0 -0.44522334372E-02  0.17661393601E-01 -0.89800342982E+03  0.11019939266E+04  0.63873347648E+03 0.  0.
         13    1    3    3    0    0 -0.13663969876E+03  0.17199487596E+03 -0.84898493609E+03  0.87694245326E+03  0.00000000000E+00 0.  1.
          1    1    3    3  501    0  0.13663524652E+03 -0.17197721457E+03 -0.49018493728E+02  0.22505147334E+03  0.00000000000E+00 0.  1.
         21    1    1    2  502  501  0.44522334372E-02 -0.17661393601E-01  0.61423916296E-01  0.64067501119E-01  0.00000000000E+00 0. -1.
<mgrwt>
<rscale>  1 0.63873348E+03</rscale>
<asrwt>0</asrwt>
<pdfrwt beam="1">  1        1 0.37112076E+00 0.63873348E+03</pdfrwt>
<pdfrwt beam="2">0</pdfrwt>
<totfact> 0.17992578E+00</totfact>
</mgrwt>
</event>
<event>
 6    1  0.4248415E-003  0.6857593E+03  0.7818608E-02  0.9741900E-01
          1   -1    0    0  502    0  0.00000000000E+00  0.00000000000E+00  0.11965321649E+03  0.11965321649E+03  0.00000000000E+00 0.  1.
         13   -1    0    0    0    0 -0.00000000000E+00 -0.00000000000E+00 -0.10000000000E+04  0.10000000000E+04  0.00000000000E+00 0.  1.
    9000005    2    1    2  501    0  0.14150716847E+00  0.19723516423E+00 -0.88242566211E+03  0.11175602133E+04  0.68575923060E+03 0.  0.
         13    1    3    3    0    0  0.86056344242E+02  0.31255244546E+03 -0.25881734153E+03  0.41482664068E+03  0.00000000000E+00 0.  1.
          1    1    3    3  501    0 -0.85914837074E+02 -0.31235521029E+03 -0.62360832058E+03  0.70273357265E+03  0.00000000000E+00 0.  1.
         21    1    1    2  502  501 -0.14150716847E+00 -0.19723516423E+00  0.20788786041E+01  0.20930031628E+01  0.00000000000E+00 0. -1.
<mgrwt>
<rscale>  1 0.68575927E+03</rscale>
<asrwt>0</asrwt>
<pdfrwt beam="1">  1        1 0.43510352E+00 0.68575927E+03</pdfrwt>
<pdfrwt beam="2">0</pdfrwt>
<totfact> 0.92303962E-01</totfact>
</mgrwt>
</event>
<event>
 6    1  0.4248415E-003  0.6604497E+03  0.7818608E-02  0.9787366E-01
          1   -1    0    0  502    0  0.00000000000E+00  0.00000000000E+00  0.10904847746E+03  0.10904847746E+03  0.00000000000E+00 0.  1.
         13   -1    0    0    0    0 -0.00000000000E+00 -0.00000000000E+00 -0.10000000000E+04  0.10000000000E+04  0.00000000000E+00 0.  1.
    9000005    2    1    2  501    0 -0.86835359951E-05  0.98989549144E-05 -0.89095154547E+03  0.11090484510E+04  0.66044970311E+03 0.  0.
         13    1    3    3    0    0  0.93808656323E+02  0.19365636280E+03 -0.86610788094E+03  0.89243807196E+03  0.00000000000E+00 0.  1.
          1    1    3    3  501    0 -0.93808665006E+02 -0.19365635290E+03 -0.24843664531E+02  0.21661037906E+03  0.00000000000E+00 0.  1.
         21    1    1    2  502  501  0.86835359840E-05 -0.98989549302E-05  0.22930378009E-04  0.26442302122E-04  0.00000000000E+00 0.  1.
<mgrwt>
<rscale>  1 0.66044970E+03</rscale>
<asrwt>0</asrwt>
<pdfrwt beam="1">  1        1 0.39654075E+00 0.66044970E+03</pdfrwt>
<pdfrwt beam="2">0</pdfrwt>
<totfact> 0.13834624E+00</totfact>
</mgrwt>
</event>
<event>
 6    1  0.4248415E-003  0.6471089E+03  0.7818608E-02  0.9812219E-01
          1   -1    0    0  502    0  0.00000000000E+00  0.00000000000E+00  0.10468757999E+03  0.10468757999E+03  0.00000000000E+00 0.  1.
         13   -1    0    0    0    0 -0.00000000000E+00 -0.00000000000E+00 -0.10000000000E+04  0.10000000000E+04  0.00000000000E+00 0.  1.
    9000005    2    1    2  501    0  0.45426241883E-04  0.25639936234E-03 -0.89531211215E+03  0.11046871768E+04  0.64710894011E+03 0.  0.
         13    1    3    3    0    0  0.90408415308E+02 -0.26878828965E+03 -0.71358535508E+03  0.76787035702E+03  0.00000000000E+00 0.  1.
          3    1    3    3  501    0 -0.90408369881E+02  0.26878854605E+03 -0.18172675707E+03  0.33681681976E+03  0.00000000000E+00 0.  1.
         21    1    1    2  502  501 -0.45426241880E-04 -0.25639936236E-03 -0.30785835549E-03  0.40321327299E-03  0.00000000000E+00 0. -1.
<mgrwt>
<rscale>  1 0.64710894E+03</rscale>
<asrwt>0</asrwt>
<pdfrwt beam="1">  1        1 0.38068291E+00 0.64710894E+03</pdfrwt>
<pdfrwt beam="2">0</pdfrwt>
<totfact> 0.16304908E+00</totfact>
</mgrwt>
</event>
<event>
 6    1  0.4248415E-003  0.6439975E+03  0.7818608E-02  0.9818108E-01
          1   -1    0    0  502    0  0.00000000000E+00  0.00000000000E+00  0.10760411633E+03  0.10760411633E+03  0.00000000000E+00 0.  1.
         13   -1    0    0    0    0 -0.00000000000E+00 -0.00000000000E+00 -0.10000000000E+04  0.10000000000E+04  0.00000000000E+00 0.  1.
    9000005    2    1    2  501    0  0.18270367642E+01 -0.21305979185E+01 -0.89575485595E+03  0.11032268791E+04  0.64399138764E+03 0.  0.
         13    1    3    3    0    0 -0.99917131019E+02 -0.16743452348E+03 -0.86918024719E+01  0.19517505003E+03  0.00000000000E+00 0.  1.
          3    1    3    3  501    0  0.10174416778E+03  0.16530392556E+03 -0.88706305347E+03  0.90805182909E+03  0.00000000000E+00 0.  1.
         21    1    1    2  502  501 -0.18270367642E+01  0.21305979185E+01  0.33589722770E+01  0.43772372092E+01  0.00000000000E+00 0.  1.
<mgrwt>
<rscale>  1 0.64399750E+03</rscale>
<asrwt>0</asrwt>
<pdfrwt beam="1">  1        1 0.39128852E+00 0.64399750E+03</pdfrwt>
<pdfrwt beam="2">0</pdfrwt>
<totfact> 0.14643471E+00</totfact>
</mgrwt>
</event>
<event>
 6    1  0.4248415E-003  0.5554306E+03  0.7818608E-02  0.1000245E+00
          1   -1    0    0  502    0  0.00000000000E+00  0.00000000000E+00  0.77129890601E+02  0.77129890601E+02  0.00000000000E+00 0.  1.
         13   -1    0    0    0    0 -0.00000000000E+00 -0.00000000000E+00 -0.10000000000E+04  0.10000000000E+04  0.00000000000E+00 0.  1.
    9000005    2    1    2  501    0  0.25330434443E-03  0.55316705553E-03 -0.92287418702E+03  0.10771257678E+04  0.55543060294E+03 0.  0.
         13    1    3    3    0    0 -0.10096517677E+03  0.14543212338E+03 -0.46501346797E+02  0.18304874948E+03  0.00000000000E+00 0.  1.
          1    1    3    3  501    0  0.10096543007E+03 -0.14543157022E+03 -0.87637284022E+03  0.89407701836E+03  0.00000000000E+00 0.  1.
         21    1    1    2  502  501 -0.25330434443E-03 -0.55316705551E-03  0.40776193190E-02  0.41227583234E-02  0.00000000000E+00 0.  1.
<mgrwt>
<rscale>  1 0.55543060E+03</rscale>
<asrwt>0</asrwt>
<pdfrwt beam="1">  1        1 0.28047292E+00 0.55543060E+03</pdfrwt>
<pdfrwt beam="2">0</pdfrwt>
<totfact> 0.45149813E+00</totfact>
</mgrwt>
</event>
<event>
 6    1  0.4248415E-003  0.6449159E+03  0.7818608E-02  0.9816366E-01
          1   -1    0    0  502    0  0.00000000000E+00  0.00000000000E+00  0.10412618045E+03  0.10412618045E+03  0.00000000000E+00 0.  1.
         13   -1    0    0    0    0 -0.00000000000E+00 -0.00000000000E+00 -0.10000000000E+04  0.10000000000E+04  0.00000000000E+00 0.  1.
    9000005    2    1    2  501    0  0.46909014079E-01  0.10129224587E+00 -0.89599710891E+03  0.11039598650E+04  0.64491592615E+03 0.  0.
         13    1    3    3    0    0 -0.11559130202E+03  0.30066415433E+03 -0.47478522837E+03  0.57374323166E+03  0.00000000000E+00 0.  1.
          1    1    3    3  501    0  0.11563821103E+03 -0.30056286208E+03 -0.42121188055E+03  0.53021663330E+03  0.00000000000E+00 0.  1.
         21    1    1    2  502  501 -0.46909014079E-01 -0.10129224587E+00  0.12328935957E+00  0.16631548593E+00  0.00000000000E+00 0.  1.
<mgrwt>
<rscale>  1 0.64491594E+03</rscale>
<asrwt>0</asrwt>
<pdfrwt beam="1">  1        1 0.37864145E+00 0.64491594E+03</pdfrwt>
<pdfrwt beam="2">0</pdfrwt>
<totfact> 0.16653260E+00</totfact>
</mgrwt>
</event>
<event>
 6    1  0.4248415E-003  0.6708334E+03  0.7818608E-02  0.9768453E-01
          1   -1    0    0  502    0  0.00000000000E+00  0.00000000000E+00  0.11252590711E+03  0.11252590711E+03  0.00000000000E+00 0.  1.
         13   -1    0    0    0    0 -0.00000000000E+00 -0.00000000000E+00 -0.10000000000E+04  0.10000000000E+04  0.00000000000E+00 0.  1.
    9000005    2    1    2  501    0  0.11569448849E-01  0.56613046661E-01 -0.88743551759E+03  0.11124564309E+04  0.67083344390E+03 0.  0.
         13    1    3    3    0    0 -0.16664948006E+02  0.28573073998E+03 -0.73383954421E+03  0.78768029867E+03  0.00000000000E+00 0.  1.
          1    1    3    3  501    0  0.16676517455E+02 -0.28567412694E+03 -0.15359597338E+03  0.32477613224E+03  0.00000000000E+00 0.  1.
         21    1    1    2  502  501 -0.11569448849E-01 -0.56613046661E-01 -0.38575297398E-01  0.69476202892E-01  0.00000000000E+00 0. -1.
<mgrwt>
<rscale>  1 0.67083345E+03</rscale>
<asrwt>0</asrwt>
<pdfrwt beam="1">  1        1 0.40918598E+00 0.67083345E+03</pdfrwt>
<pdfrwt beam="2">0</pdfrwt>
<totfact> 0.12123752E+00</totfact>
</mgrwt>
</event>
<event>
 6    1  0.4248415E-003  0.6534287E+03  0.7818608E-02  0.9800367E-01
          1   -1    0    0  502    0  0.00000000000E+00  0.00000000000E+00  0.10674232313E+03  0.10674232313E+03  0.00000000000E+00 0.  1.
         13   -1    0    0    0    0 -0.00000000000E+00 -0.00000000000E+00 -0.10000000000E+04  0.10000000000E+04  0.00000000000E+00 0.  1.
    9000005    2    1    2  501    0  0.10534246084E-03  0.17311805522E-04 -0.89325763015E+03  0.11067422066E+04  0.65342873984E+03 0.  0.
         13    1    3    3    0    0  0.14185390640E+03 -0.95207240523E+02 -0.91831605563E+03  0.93407244229E+03  0.00000000000E+00 0.  1.
          1    1    3    3  501    0 -0.14185380106E+03  0.95207257835E+02  0.25058425486E+02  0.17266976431E+03  0.00000000000E+00 0.  1.
         21    1    1    2  502  501 -0.10534246083E-03 -0.17311805531E-04 -0.46721038368E-04  0.11653148970E-03  0.00000000000E+00 0.  1.
<mgrwt>
<rscale>  1 0.65342874E+03</rscale>
<asrwt>0</asrwt>
<pdfrwt beam="1">  1        1 0.38815472E+00 0.65342874E+03</pdfrwt>
<pdfrwt beam="2">0</pdfrwt>
<totfact> 0.15092860E+00</totfact>
</mgrwt>
</event>
<event>
 6    1  0.4248415E-003  0.5999924E+03  0.7818608E-02  0.9905422E-01
          1   -1    0    0  502    0  0.00000000000E+00  0.00000000000E+00  0.89997855109E+02  0.89997855109E+02  0.00000000000E+00 0.  1.
         13   -1    0    0    0    0 -0.00000000000E+00 -0.00000000000E+00 -0.10000000000E+04  0.10000000000E+04  0.00000000000E+00 0.  1.
    9000005    2    1    2  501    0  0.21551756376E-04 -0.31878399341E-04 -0.91000227094E+03  0.10899977233E+04  0.59999241971E+03 0.  0.
         13    1    3    3    0    0 -0.89269450882E+02  0.14681592943E+03 -0.90174986217E+03  0.91797427301E+03  0.00000000000E+00 0.  1.
          3    1    3    3  501    0  0.89269472434E+02 -0.14681596131E+03 -0.82524087736E+01  0.17202345030E+03  0.00000000000E+00 0.  1.
         21    1    1    2  502  501 -0.21551756373E-04  0.31878399323E-04  0.12605085812E-03  0.13179351039E-03  0.00000000000E+00 0.  1.
<mgrwt>
<rscale>  1 0.59999242E+03</rscale>
<asrwt>0</asrwt>
<pdfrwt beam="1">  1        1 0.32726562E+00 0.59999242E+03</pdfrwt>
<pdfrwt beam="2">0</pdfrwt>
<totfact> 0.28133122E+00</totfact>
</mgrwt>
</event>
<event>
 6    1  0.4248415E-003  0.6440539E+03  0.7818608E-02  0.9818001E-01
          1   -1    0    0  502    0  0.00000000000E+00  0.00000000000E+00  0.10370833071E+03  0.10370833071E+03  0.00000000000E+00 0.  1.
         13   -1    0    0    0    0 -0.00000000000E+00 -0.00000000000E+00 -0.10000000000E+04  0.10000000000E+04  0.00000000000E+00 0.  1.
    9000005    2    1    2  501    0  0.66346847433E-03 -0.43564109283E-02 -0.89629786409E+03  0.11037007285E+04  0.64405390834E+03 0.  0.
         13    1    3    3    0    0 -0.30439182657E+03  0.25103989988E+02 -0.62304795300E+03  0.69388280432E+03  0.00000000000E+00 0.  1.
          3    1    3    3  501    0  0.30439249003E+03 -0.25108346399E+02 -0.27324991109E+03  0.40981792415E+03  0.00000000000E+00 0.  1.
         21    1    1    2  502  501 -0.66346847435E-03  0.43564109283E-02  0.61947928207E-02  0.76022341903E-02  0.00000000000E+00 0. -1.
<mgrwt>
<rscale>  1 0.64405391E+03</rscale>
<asrwt>0</asrwt>
<pdfrwt beam="1">  1        1 0.37712200E+00 0.64405391E+03</pdfrwt>
<pdfrwt beam="2">0</pdfrwt>
<totfact> 0.16914738E+00</totfact>
</mgrwt>
</event>
<event>
 6    1  0.4248415E-003  0.6519921E+03  0.7818608E-02  0.9803048E-01
          1   -1    0    0  502    0  0.00000000000E+00  0.00000000000E+00  0.10629142218E+03  0.10629142218E+03  0.00000000000E+00 0.  1.
         13   -1    0    0    0    0 -0.00000000000E+00 -0.00000000000E+00 -0.10000000000E+04  0.10000000000E+04  0.00000000000E+00 0.  1.
    9000005    2    1    2  501    0  0.19087665558E-02  0.11180659578E-02 -0.89372649249E+03  0.11062733715E+04  0.65199212342E+03 0.  0.
         13    1    3    3    0    0 -0.23809919307E+03  0.10896229380E+03 -0.11737185559E+03  0.28694975117E+03  0.00000000000E+00 0.  1.
          1    1    3    3  501    0  0.23810110184E+03 -0.10896117574E+03 -0.77635463690E+03  0.81932362028E+03  0.00000000000E+00 0.  1.
         21    1    1    2  502  501 -0.19087665558E-02 -0.11180659578E-02  0.17914668155E-01  0.18050728416E-01  0.00000000000E+00 0.  1.
<mgrwt>
<rscale>  1 0.65199212E+03</rscale>
<asrwt>0</asrwt>
<pdfrwt beam="1">  1        1 0.38651508E+00 0.65199212E+03</pdfrwt>
<pdfrwt beam="2">0</pdfrwt>
<totfact> 0.15351410E+00</totfact>
</mgrwt>
</event>
<event>
 6    1  0.4248415E-003  0.6500900E+03  0.7818608E-02  0.9806610E-01
          1   -1    0    0  502    0  0.00000000000E+00  0.00000000000E+00  0.13049426288E+03  0.13049426288E+03  0.00000000000E+00 0.  1.
         13   -1    0    0    0    0 -0.00000000000E+00 -0.00000000000E+00 -0.10000000000E+04  0.10000000000E+04  0.00000000000E+00 0.  1.
    9000005    2    1    2  501    0  0.17581103878E+01 -0.18918996484E+01 -0.89427149744E+03  0.11055942002E+04  0.65008488231E+03 0.  0.
         13    1    3    3    0    0  0.15403920616E+03 -0.98844985244E+02  0.10174137908E+02  0.18330826830E+03  0.00000000000E+00 0.  1.
          3    1    3    3  501    0 -0.15228109578E+03  0.96953085596E+02 -0.90444563534E+03  0.92228593193E+03  0.00000000000E+00 0.  1.
         21    1    1    2  502  501 -0.17581103878E+01  0.18918996484E+01  0.24765760318E+02  0.24900062661E+02  0.00000000000E+00 0.  1.
<mgrwt>
<rscale>  1 0.65009001E+03</rscale>
<asrwt>0</asrwt>
<pdfrwt beam="1">  1        1 0.47452559E+00 0.65009001E+03</pdfrwt>
<pdfrwt beam="2">0</pdfrwt>
<totfact> 0.61098289E-01</totfact>
</mgrwt>
</event>
<event>
 6    1  0.4248415E-003  0.6464763E+03  0.7818608E-02  0.9813414E-01
          1   -1    0    0  502    0  0.00000000000E+00  0.00000000000E+00  0.10448291008E+03  0.10448291008E+03  0.00000000000E+00 0.  1.
         13   -1    0    0    0    0 -0.00000000000E+00 -0.00000000000E+00 -0.10000000000E+04  0.10000000000E+04  0.00000000000E+00 0.  1.
    9000005    2    1    2  501    0  0.62753439067E-05  0.27111724421E-05 -0.89551709281E+03  0.11044829027E+04  0.64647630951E+03 0.  0.
         13    1    3    3    0    0  0.17689519573E+03 -0.26642556383E+03 -0.52804580103E+03  0.61733852894E+03  0.00000000000E+00 0.  1.
          1    1    3    3  501    0 -0.17689518946E+03  0.26642556654E+03 -0.36747129178E+03  0.48714437372E+03  0.00000000000E+00 0.  1.
         21    1    1    2  502  501 -0.62753439028E-05 -0.27111724016E-05  0.28904189140E-05  0.74219214754E-05  0.00000000000E+00 0. -1.
<mgrwt>
<rscale>  1 0.64647631E+03</rscale>
<asrwt>0</asrwt>
<pdfrwt beam="1">  1        1 0.37993866E+00 0.64647631E+03</pdfrwt>
<pdfrwt beam="2">0</pdfrwt>
<totfact> 0.16430592E+00</totfact>
</mgrwt>
</event>
<event>
 6    1  0.4248415E-003  0.6493361E+03  0.7818608E-02  0.9808026E-01
          1   -1    0    0  502    0  0.00000000000E+00  0.00000000000E+00  0.10777604126E+03  0.10777604126E+03  0.00000000000E+00 0.  1.
         13   -1    0    0    0    0 -0.00000000000E+00 -0.00000000000E+00 -0.10000000000E+04  0.10000000000E+04  0.00000000000E+00 0.  1.
    9000005    2    1    2  501    0  0.96672786415E-01  0.30863432391E-01 -0.89458946385E+03  0.11054083604E+04  0.64933606410E+03 0.  0.
         13    1    3    3    0    0 -0.42401218785E+02  0.16192984933E+03 -0.92088244791E+03  0.93597202006E+03  0.00000000000E+00 0.  1.
          3    1    3    3  501    0  0.42497891571E+02 -0.16189898589E+03  0.26292984062E+02  0.16943634035E+03  0.00000000000E+00 0.  1.
         21    1    1    2  502  501 -0.96672786415E-01 -0.30863432391E-01  0.23655051082E+01  0.23676808476E+01  0.00000000000E+00 0.  1.
<mgrwt>
<rscale>  1 0.64933607E+03</rscale>
<asrwt>0</asrwt>
<pdfrwt beam="1">  1        1 0.39191370E+00 0.64933607E+03</pdfrwt>
<pdfrwt beam="2">0</pdfrwt>
<totfact> 0.14535637E+00</totfact>
</mgrwt>
</event>
<event>
 6    1  0.4248415E-003  0.6502014E+03  0.7818608E-02  0.9806401E-01
          1   -1    0    0  502    0  0.00000000000E+00  0.00000000000E+00  0.10569049916E+03  0.10569049916E+03  0.00000000000E+00 0.  1.
         13   -1    0    0    0    0 -0.00000000000E+00 -0.00000000000E+00 -0.10000000000E+04  0.10000000000E+04  0.00000000000E+00 0.  1.
    9000005    2    1    2  501    0  0.54541067946E-05  0.41365340167E-05 -0.89430954527E+03  0.11056904542E+04  0.65020136708E+03 0.  0.
         13    1    3    3    0    0 -0.31418199150E+02 -0.25865538319E+03 -0.77777989104E+03  0.82026292699E+03  0.00000000000E+00 0.  1.
          1    1    3    3  501    0  0.31418204604E+02  0.25865538733E+03 -0.11652965423E+03  0.28542752721E+03  0.00000000000E+00 0.  1.
         21    1    1    2  502  501 -0.54541067954E-05 -0.41365339828E-05  0.44436003562E-04  0.44960166891E-04  0.00000000000E+00 0.  1.
<mgrwt>
<rscale>  1 0.65020137E+03</rscale>
<asrwt>0</asrwt>
<pdfrwt beam="1">  1        1 0.38432990E+00 0.65020137E+03</pdfrwt>
<pdfrwt beam="2">0</pdfrwt>
<totfact> 0.15702167E+00</totfact>
</mgrwt>
</event>
<event>
 6    1  0.4248415E-003  0.6525529E+03  0.7818608E-02  0.9802001E-01
          1   -1    0    0  502    0  0.00000000000E+00  0.00000000000E+00  0.10645820965E+03  0.10645820965E+03  0.00000000000E+00 0.  1.
         13   -1    0    0    0    0 -0.00000000000E+00 -0.00000000000E+00 -0.10000000000E+04  0.10000000000E+04  0.00000000000E+00 0.  1.
    9000005    2    1    2  501    0  0.25532718394E-02 -0.45325524417E-03 -0.89354263158E+03  0.11064554834E+04  0.65255291153E+03 0.  0.
         13    1    3    3    0    0 -0.20356125806E+03 -0.23849529909E+03 -0.29380396954E+03  0.42969520126E+03  0.00000000000E+00 0.  1.
          3    1    3    3  501    0  0.20356381133E+03  0.23849484583E+03 -0.59973866204E+03  0.67676028217E+03  0.00000000000E+00 0.  1.
         21    1    1    2  502  501 -0.25532718393E-02  0.45325524416E-03  0.84122438091E-03  0.27262237364E-02  0.00000000000E+00 0. -1.
<mgrwt>
<rscale>  1 0.65255291E+03</rscale>
<asrwt>0</asrwt>
<pdfrwt beam="1">  1        1 0.38712158E+00 0.65255291E+03</pdfrwt>
<pdfrwt beam="2">0</pdfrwt>
<totfact> 0.15255203E+00</totfact>
</mgrwt>
</event>
<event>
 6    1  0.4248415E-003  0.5765633E+03  0.7818608E-02  0.9955259E-01
          1   -1    0    0  502    0  0.00000000000E+00  0.00000000000E+00  0.83121066882E+02  0.83121066882E+02  0.00000000000E+00 0.  1.
         13   -1    0    0    0    0 -0.00000000000E+00 -0.00000000000E+00 -0.10000000000E+04  0.10000000000E+04  0.00000000000E+00 0.  1.
    9000005    2    1    2  501    0 -0.81150379643E-05 -0.20914538973E-03 -0.91689368933E+03  0.10831063092E+04  0.57656330049E+03 0.  0.
         13    1    3    3    0    0 -0.13646027322E+02 -0.23869314552E+03 -0.76103869009E+03  0.79770954588E+03  0.00000000000E+00 0.  1.
          3    1    3    3  501    0  0.13646019207E+02  0.23869293638E+03 -0.15585499924E+03  0.28539676330E+03  0.00000000000E+00 0.  1.
         21    1    1    2  502  501  0.81150379655E-05  0.20914538975E-03  0.14756210115E-01  0.14757694421E-01  0.00000000000E+00 0. -1.
<mgrwt>
<rscale>  1 0.57656330E+03</rscale>
<asrwt>0</asrwt>
<pdfrwt beam="1">  1        1 0.30225906E+00 0.57656330E+03</pdfrwt>
<pdfrwt beam="2">0</pdfrwt>
<totfact> 0.36229712E+00</totfact>
</mgrwt>
</event>
<event>
 6    1  0.4248415E-003  0.6323311E+03  0.7818608E-02  0.9840510E-01
          1   -1    0    0  502    0  0.00000000000E+00  0.00000000000E+00  0.10013137718E+03  0.10013137718E+03  0.00000000000E+00 0.  1.
         13   -1    0    0    0    0 -0.00000000000E+00 -0.00000000000E+00 -0.10000000000E+04  0.10000000000E+04  0.00000000000E+00 0.  1.
    9000005    2    1    2  501    0  0.18777332882E+00  0.43391966560E+00 -0.89955367211E+03  0.10995632759E+04  0.63233089850E+03 0.  0.
         13    1    3    3    0    0 -0.76189861347E+02  0.14264035835E+03 -0.92245938536E+03  0.93652681993E+03  0.00000000000E+00 0.  1.
          3    1    3    3  501    0  0.76377634676E+02 -0.14220643868E+03  0.22905713256E+02  0.16303645599E+03  0.00000000000E+00 0.  1.
         21    1    1    2  502  501 -0.18777332882E+00 -0.43391966560E+00 -0.31495071030E+00  0.56810126662E+00  0.00000000000E+00 0.  1.
<mgrwt>
<rscale>  1 0.63233108E+03</rscale>
<asrwt>0</asrwt>
<pdfrwt beam="1">  1        1 0.36411487E+00 0.63233108E+03</pdfrwt>
<pdfrwt beam="2">0</pdfrwt>
<totfact> 0.19334618E+00</totfact>
</mgrwt>
</event>
<event>
 6    1  0.4248415E-003  0.6426074E+03  0.7818608E-02  0.9820751E-01
          1   -1    0    0  502    0  0.00000000000E+00  0.00000000000E+00  0.10344443388E+03  0.10344443388E+03  0.00000000000E+00 0.  1.
         13   -1    0    0    0    0 -0.00000000000E+00 -0.00000000000E+00 -0.10000000000E+04  0.10000000000E+04  0.00000000000E+00 0.  1.
    9000005    2    1    2  501    0 -0.32654050677E+00  0.23476254412E+00 -0.89652394070E+03  0.11030410205E+04  0.64260731011E+03 0.  0.
         13    1    3    3    0    0  0.28912975648E+03  0.13341117832E+03 -0.37573868662E+03  0.49251814099E+03  0.00000000000E+00 0.  1.
          3    1    3    3  501    0 -0.28945629699E+03 -0.13317641578E+03 -0.52078525408E+03  0.61052287955E+03  0.00000000000E+00 0.  1.
         21    1    1    2  502  501  0.32654050677E+00 -0.23476254412E+00 -0.31625416035E-01  0.40341333842E+00  0.00000000000E+00 0. -1.
<mgrwt>
<rscale>  1 0.64260744E+03</rscale>
<asrwt>0</asrwt>
<pdfrwt beam="1">  1        1 0.37616237E+00 0.64260744E+03</pdfrwt>
<pdfrwt beam="2">0</pdfrwt>
<totfact> 0.17084712E+00</totfact>
</mgrwt>
</event>
<event>
 6    1  0.4248415E-003  0.6451465E+03  0.7818608E-02  0.9815929E-01
          1   -1    0    0  502    0  0.00000000000E+00  0.00000000000E+00  0.10405356818E+03  0.10405356818E+03  0.00000000000E+00 0.  1.
         13   -1    0    0    0    0 -0.00000000000E+00 -0.00000000000E+00 -0.10000000000E+04  0.10000000000E+04  0.00000000000E+00 0.  1.
    9000005    2    1    2  501    0 -0.79035934050E-04  0.68953333908E-04 -0.89594642342E+03  0.11040534630E+04  0.64514653795E+03 0.  0.
         13    1    3    3    0    0 -0.30779577928E+03  0.39546053311E+02 -0.29730491202E+03  0.42975847029E+03  0.00000000000E+00 0.  1.
          1    1    3    3  501    0  0.30779570024E+03 -0.39545984358E+02 -0.59864151140E+03  0.67429499267E+03  0.00000000000E+00 0.  1.
         21    1    1    2  502  501  0.79035934070E-04 -0.68953333912E-04 -0.83962325300E-05  0.10522232583E-03  0.00000000000E+00 0.  1.
<mgrwt>
<rscale>  1 0.64514654E+03</rscale>
<asrwt>0</asrwt>
<pdfrwt beam="1">  1        1 0.37837741E+00 0.64514654E+03</pdfrwt>
<pdfrwt beam="2">0</pdfrwt>
<totfact> 0.16697254E+00</totfact>
</mgrwt>
</event>
<event>
 6    1  0.4248415E-003  0.6627166E+03  0.7818608E-02  0.9783206E-01
          1   -1    0    0  502    0  0.00000000000E+00  0.00000000000E+00  0.10979837315E+03  0.10979837315E+03  0.00000000000E+00 0.  1.
         13   -1    0    0    0    0 -0.00000000000E+00 -0.00000000000E+00 -0.10000000000E+04  0.10000000000E+04  0.00000000000E+00 0.  1.
    9000005    2    1    2  501    0 -0.79670874555E-05 -0.12579817422E-04 -0.89020166458E+03  0.11097983326E+04  0.66271663280E+03 0.  0.
         13    1    3    3    0    0  0.53856432420E+02  0.22786122178E+03 -0.83775211464E+03  0.86985622794E+03  0.00000000000E+00 0.  1.
          3    1    3    3  501    0 -0.53856440387E+02 -0.22786123436E+03 -0.52449549944E+02  0.23994210465E+03  0.00000000000E+00 0.  1.
         21    1    1    2  502  501  0.79670874588E-05  0.12579817431E-04  0.37731641739E-04  0.40563568353E-04  0.00000000000E+00 0.  1.
<mgrwt>
<rscale>  1 0.66271663E+03</rscale>
<asrwt>0</asrwt>
<pdfrwt beam="1">  1        1 0.39926765E+00 0.66271663E+03</pdfrwt>
<pdfrwt beam="2">0</pdfrwt>
<totfact> 0.13447384E+00</totfact>
</mgrwt>
</event>
<event>
 6    1  0.4248415E-003  0.6466820E+03  0.7818608E-02  0.9813025E-01
          1   -1    0    0  502    0  0.00000000000E+00  0.00000000000E+00  0.10458526269E+03  0.10458526269E+03  0.00000000000E+00 0.  1.
         13   -1    0    0    0    0 -0.00000000000E+00 -0.00000000000E+00 -0.10000000000E+04  0.10000000000E+04  0.00000000000E+00 0.  1.
    9000005    2    1    2  501    0  0.59528957802E-01 -0.15498090100E-01 -0.89541877155E+03  0.11045236172E+04  0.64668202448E+03 0.  0.
         13    1    3    3    0    0  0.15581605162E+03 -0.19869379343E+03 -0.10272316254E+03  0.27259844756E+03  0.00000000000E+00 0.  1.
          3    1    3    3  501    0 -0.15575652266E+03  0.19867829534E+03 -0.79269560901E+03  0.83192516967E+03  0.00000000000E+00 0.  1.
         21    1    1    2  502  501 -0.59528957802E-01  0.15498090100E-01  0.40342363801E-02  0.61645459500E-01  0.00000000000E+00 0.  1.
<mgrwt>
<rscale>  1 0.64668203E+03</rscale>
<asrwt>0</asrwt>
<pdfrwt beam="1">  1        1 0.38031085E+00 0.64668203E+03</pdfrwt>
<pdfrwt beam="2">0</pdfrwt>
<totfact> 0.16367957E+00</totfact>
</mgrwt>
</event>
<event>
 6    1  0.4248415E-003  0.6544007E+03  0.7818608E-02  0.9798556E-01
          1   -1    0    0  502    0  0.00000000000E+00  0.00000000000E+00  0.10706169312E+03  0.10706169312E+03  0.00000000000E+00 0.  1.
         13   -1    0    0    0    0 -0.00000000000E+00 -0.00000000000E+00 -0.10000000000E+04  0.10000000000E+04  0.00000000000E+00 0.  1.
    9000005    2    1    2  501    0 -0.11606931480E-04  0.55613664927E-04 -0.89293991450E+03  0.11070600845E+04  0.65440074862E+03 0.  0.
         13    1    3    3    0    0  0.77297453342E+02  0.27268987368E+03 -0.72303026437E+03  0.77659991417E+03  0.00000000000E+00 0.  1.
          1    1    3    3  501    0 -0.77297464949E+02 -0.27268981807E+03 -0.16990965013E+03  0.33046017033E+03  0.00000000000E+00 0.  1.
         21    1    1    2  502  501  0.11606931484E-04 -0.55613664975E-04  0.16076201186E-02  0.16086236497E-02  0.00000000000E+00 0. -1.
<mgrwt>
<rscale>  1 0.65440075E+03</rscale>
<asrwt>0</asrwt>
<pdfrwt beam="1">  1        1 0.38931607E+00 0.65440075E+03</pdfrwt>
<pdfrwt beam="2">0</pdfrwt>
<totfact> 0.14912363E+00</totfact>
</mgrwt>
</event>
<event>
 6    1  0.4248415E-003  0.6438038E+03  0.7818608E-02  0.9818476E-01
          1   -1    0    0  502    0  0.00000000000E+00  0.00000000000E+00  0.10363646687E+03  0.10363646687E+03  0.00000000000E+00 0.  1.
         13   -1    0    0    0    0 -0.00000000000E+00 -0.00000000000E+00 -0.10000000000E+04  0.10000000000E+04  0.00000000000E+00 0.  1.
    9000005    2    1    2  501    0  0.38845640610E-02 -0.13535457290E-02 -0.89637885601E+03  0.11036206014E+04  0.64380383530E+03 0.  0.
         13    1    3    3    0    0 -0.15929247579E+03 -0.49819342039E+01 -0.92762208233E+03  0.94121285592E+03  0.00000000000E+00 0.  1.
          1    1    3    3  501    0  0.15929636036E+03  0.49805806581E+01  0.31243226322E+02  0.16240774550E+03  0.00000000000E+00 0.  1.
         21    1    1    2  502  501 -0.38845640610E-02  0.13535457290E-02  0.15322880763E-01  0.15865452999E-01  0.00000000000E+00 0.  1.
<mgrwt>
<rscale>  1 0.64380384E+03</rscale>
<asrwt>0</asrwt>
<pdfrwt beam="1">  1        1 0.37686067E+00 0.64380384E+03</pdfrwt>
<pdfrwt beam="2">0</pdfrwt>
<totfact> 0.16960417E+00</totfact>
</mgrwt>
</event>
<event>
 6    1  0.4248415E-003  0.6468469E+03  0.7818608E-02  0.9812714E-01
          1   -1    0    0  502    0  0.00000000000E+00  0.00000000000E+00  0.10460424576E+03  0.10460424576E+03  0.00000000000E+00 0.  1.
         13   -1    0    0    0    0 -0.00000000000E+00 -0.00000000000E+00 -0.10000000000E+04  0.10000000000E+04  0.00000000000E+00 0.  1.
    9000005    2    1    2  501    0  0.53377967504E-04 -0.29550529168E-02 -0.89539544961E+03  0.11046012746E+04  0.64684694061E+03 0.  0.
         13    1    3    3    0    0  0.24654649359E+03 -0.12984338363E+03 -0.16731461476E+03  0.32502101176E+03  0.00000000000E+00 0.  1.
          3    1    3    3  501    0 -0.24654644021E+03  0.12984042858E+03 -0.72808083485E+03  0.77958026280E+03  0.00000000000E+00 0.  1.
         21    1    1    2  502  501 -0.53377967502E-04  0.29550529168E-02 -0.30463487776E-03  0.29711932548E-02  0.00000000000E+00 0. -1.
<mgrwt>
<rscale>  1 0.64684694E+03</rscale>
<asrwt>0</asrwt>
<pdfrwt beam="1">  1        1 0.38037988E+00 0.64684694E+03</pdfrwt>
<pdfrwt beam="2">0</pdfrwt>
<totfact> 0.16355984E+00</totfact>
</mgrwt>
</event>
<event>
 6    1  0.4248415E-003  0.6261453E+03  0.7818608E-02  0.9852600E-01
          1   -1    0    0  502    0  0.00000000000E+00  0.00000000000E+00  0.98026356631E+02  0.98026356631E+02  0.00000000000E+00 0.  1.
         13   -1    0    0    0    0 -0.00000000000E+00 -0.00000000000E+00 -0.10000000000E+04  0.10000000000E+04  0.00000000000E+00 0.  1.
    9000005    2    1    2  501    0 -0.14848926384E-04 -0.26472512468E-03 -0.90198550208E+03  0.10980144950E+04  0.62614533870E+03 0.  0.
         13    1    3    3    0    0 -0.12490800161E+03 -0.26765179735E+03 -0.26896287070E+03  0.39947530500E+03  0.00000000000E+00 0.  1.
          1    1    3    3  501    0  0.12490798677E+03  0.26765153262E+03 -0.63302263138E+03  0.69853918996E+03  0.00000000000E+00 0.  1.
         21    1    1    2  502  501  0.14848926391E-04  0.26472512472E-03  0.11858708235E-01  0.11861671927E-01  0.00000000000E+00 0. -1.
<mgrwt>
<rscale>  1 0.62614534E+03</rscale>
<asrwt>0</asrwt>
<pdfrwt beam="1">  1        1 0.35646023E+00 0.62614534E+03</pdfrwt>
<pdfrwt beam="2">0</pdfrwt>
<totfact> 0.20907486E+00</totfact>
</mgrwt>
</event>
<event>
 6    1  0.4248415E-003  0.6541583E+03  0.7818608E-02  0.9799008E-01
          1   -1    0    0  502    0  0.00000000000E+00  0.00000000000E+00  0.10698229104E+03  0.10698229104E+03  0.00000000000E+00 0.  1.
         13   -1    0    0    0    0 -0.00000000000E+00 -0.00000000000E+00 -0.10000000000E+04  0.10000000000E+04  0.00000000000E+00 0.  1.
    9000005    2    1    2  501    0 -0.92578491342E-03 -0.24769074723E-02 -0.89301784640E+03  0.11069796432E+04  0.65415828090E+03 0.  0.
         13    1    3    3    0    0  0.30173149228E+03 -0.52125806724E+02 -0.25192818876E+03  0.39651835449E+03  0.00000000000E+00 0.  1.
          1    1    3    3  501    0 -0.30173241806E+03  0.52123329817E+02 -0.64108965764E+03  0.71046128871E+03  0.00000000000E+00 0.  1.
         21    1    1    2  502  501  0.92578491345E-03  0.24769074723E-02  0.13744100938E-03  0.26478365439E-02  0.00000000000E+00 0. -1.
<mgrwt>
<rscale>  1 0.65415828E+03</rscale>
<asrwt>0</asrwt>
<pdfrwt beam="1">  1        1 0.38902733E+00 0.65415828E+03</pdfrwt>
<pdfrwt beam="2">0</pdfrwt>
<totfact> 0.14957048E+00</totfact>
</mgrwt>
</event>
<event>
 6    1  0.4248415E-003  0.6498438E+03  0.7818608E-02  0.9807072E-01
          1   -1    0    0  502    0  0.00000000000E+00  0.00000000000E+00  0.10566596821E+03  0.10566596821E+03  0.00000000000E+00 0.  1.
         13   -1    0    0    0    0 -0.00000000000E+00 -0.00000000000E+00 -0.10000000000E+04  0.10000000000E+04  0.00000000000E+00 0.  1.
    9000005    2    1    2  501    0  0.26507431739E-01 -0.18642281611E+00 -0.89430330287E+03  0.11054751794E+04  0.64984378066E+03 0.  0.
         13    1    3    3    0    0  0.31017998306E+03 -0.96783610247E+02 -0.45515052461E+03  0.55923223186E+03  0.00000000000E+00 0.  1.
          3    1    3    3  501    0 -0.31015347563E+03  0.96597187431E+02 -0.43915277826E+03  0.54624294752E+03  0.00000000000E+00 0.  1.
         21    1    1    2  502  501 -0.26507431739E-01  0.18642281611E+00 -0.30728922606E-01  0.19078882826E+00  0.00000000000E+00 0.  1.
<mgrwt>
<rscale>  1 0.64984381E+03</rscale>
<asrwt>0</asrwt>
<pdfrwt beam="1">  1        1 0.38424069E+00 0.64984381E+03</pdfrwt>
<pdfrwt beam="2">0</pdfrwt>
<totfact> 0.15717471E+00</totfact>
</mgrwt>
</event>
<event>
 6    1  0.4248415E-003  0.6453761E+03  0.7818608E-02  0.9815495E-01
          1   -1    0    0  502    0  0.00000000000E+00  0.00000000000E+00  0.10412762202E+03  0.10412762202E+03  0.00000000000E+00 0.  1.
         13   -1    0    0    0    0 -0.00000000000E+00 -0.00000000000E+00 -0.10000000000E+04  0.10000000000E+04  0.00000000000E+00 0.  1.
    9000005    2    1    2  501    0 -0.35072648643E-05 -0.18045536123E-04 -0.89587242964E+03  0.11041275672E+04  0.64537607208E+03 0.  0.
         13    1    3    3    0    0  0.30562271257E+03  0.69916802824E+02 -0.31726248055E+03  0.44603708738E+03  0.00000000000E+00 0.  1.
          3    1    3    3  501    0 -0.30562271607E+03 -0.69916820870E+02 -0.57860994909E+03  0.65809047980E+03  0.00000000000E+00 0.  1.
         21    1    1    2  502  501  0.35072648323E-05  0.18045536130E-04  0.51662665953E-04  0.54835876341E-04  0.00000000000E+00 0. -1.
<mgrwt>
<rscale>  1 0.64537607E+03</rscale>
<asrwt>0</asrwt>
<pdfrwt beam="1">  1        1 0.37864670E+00 0.64537607E+03</pdfrwt>
<pdfrwt beam="2">0</pdfrwt>
<totfact> 0.16650967E+00</totfact>
</mgrwt>
</event>
<event>
 6    1  0.4248415E-003  0.6514366E+03  0.7818608E-02  0.9804087E-01
          1   -1    0    0  502    0  0.00000000000E+00  0.00000000000E+00  0.10609432562E+03  0.10609432562E+03  0.00000000000E+00 0.  1.
         13   -1    0    0    0    0 -0.00000000000E+00 -0.00000000000E+00 -0.10000000000E+04  0.10000000000E+04  0.00000000000E+00 0.  1.
    9000005    2    1    2  501    0  0.49328847840E-02 -0.28252471807E-02 -0.89389993257E+03  0.11060862458E+04  0.65143663822E+03 0.  0.
         13    1    3    3    0    0  0.20239224588E+03 -0.25434416553E+03 -0.48259226428E+03  0.58184952460E+03  0.00000000000E+00 0.  1.
          3    1    3    3  501    0 -0.20238731299E+03  0.25434134029E+03 -0.41130766829E+03  0.52423672118E+03  0.00000000000E+00 0.  1.
         21    1    1    2  502  501 -0.49328847840E-02  0.28252471807E-02 -0.57418183064E-02  0.80798422873E-02  0.00000000000E+00 0.  1.
<mgrwt>
<rscale>  1 0.65143664E+03</rscale>
<asrwt>0</asrwt>
<pdfrwt beam="1">  1        1 0.38579836E+00 0.65143664E+03</pdfrwt>
<pdfrwt beam="2">0</pdfrwt>
<totfact> 0.15465535E+00</totfact>
</mgrwt>
</event>
<event>
 6    1  0.4248415E-003  0.5548719E+03  0.7818608E-02  0.1000373E+00
          1   -1    0    0  502    0  0.00000000000E+00  0.00000000000E+00  0.81097766883E+02  0.81097766883E+02  0.00000000000E+00 0.  1.
         13   -1    0    0    0    0 -0.00000000000E+00 -0.00000000000E+00 -0.10000000000E+04  0.10000000000E+04  0.00000000000E+00 0.  1.
    9000005    2    1    2  501    0  0.21761938773E+00 -0.38395631448E+00 -0.92301658685E+03  0.10769598100E+04  0.55487171305E+03 0.  0.
         13    1    3    3    0    0 -0.16037876346E+03  0.53035248009E+01 -0.22285853747E+02  0.16200658759E+03  0.00000000000E+00 0.  1.
          1    1    3    3  501    0  0.16059638285E+03 -0.56874811154E+01 -0.90073073310E+03  0.91495322240E+03  0.00000000000E+00 0.  1.
         21    1    1    2  502  501 -0.21761938773E+00  0.38395631448E+00  0.41143537322E+01  0.41379568972E+01  0.00000000000E+00 0. -1.
<mgrwt>
<rscale>  1 0.55487189E+03</rscale>
<asrwt>0</asrwt>
<pdfrwt beam="1">  1        1 0.29490159E+00 0.55487189E+03</pdfrwt>
<pdfrwt beam="2">0</pdfrwt>
<totfact> 0.39126136E+00</totfact>
</mgrwt>
</event>
<event>
 6    1  0.4248415E-003  0.6516840E+03  0.7818608E-02  0.9803624E-01
          1   -1    0    0  502    0  0.00000000000E+00  0.00000000000E+00  0.13842636680E+03  0.13842636680E+03  0.00000000000E+00 0.  1.
         13   -1    0    0    0    0 -0.00000000000E+00 -0.00000000000E+00 -0.10000000000E+04  0.10000000000E+04  0.00000000000E+00 0.  1.
    9000005    2    1    2  501    0 -0.34706457376E+01 -0.11426196915E+02 -0.89259968825E+03  0.11051815259E+04  0.65157455312E+03 0.  0.
         13    1    3    3    0    0  0.81318111869E+02 -0.25963353522E+03 -0.13551963950E+03  0.30395358300E+03  0.00000000000E+00 0.  1.
          3    1    3    3  501    0 -0.84788757606E+02  0.24820733830E+03 -0.75708004874E+03  0.80122794285E+03  0.00000000000E+00 0.  1.
         21    1    1    2  502  501  0.34706457376E+01  0.11426196915E+02  0.31026055041E+02  0.33244840941E+02  0.00000000000E+00 0.  1.
<mgrwt>
<rscale>  1 0.65168397E+03</rscale>
<asrwt>0</asrwt>
<pdfrwt beam="1">  1        1 0.50336967E+00 0.65168397E+03</pdfrwt>
<pdfrwt beam="2">0</pdfrwt>
<totfact> 0.44523537E-01</totfact>
</mgrwt>
</event>
<event>
 6    1  0.4248415E-003  0.6461303E+03  0.7818608E-02  0.9814068E-01
          1   -1    0    0  502    0  0.00000000000E+00  0.00000000000E+00  0.10437228711E+03  0.10437228711E+03  0.00000000000E+00 0.  1.
         13   -1    0    0    0    0 -0.00000000000E+00 -0.00000000000E+00 -0.10000000000E+04  0.10000000000E+04  0.00000000000E+00 0.  1.
    9000005    2    1    2  501    0  0.38014445292E-03  0.27880582439E-02 -0.89562674558E+03  0.11043693116E+04  0.64613025705E+03 0.  0.
         13    1    3    3    0    0  0.11895683134E+03 -0.23390341271E+03 -0.12573257198E+03  0.29098146652E+03  0.00000000000E+00 0.  1.
          1    1    3    3  501    0 -0.11895645120E+03  0.23390620077E+03 -0.76989417360E+03  0.81338784511E+03  0.00000000000E+00 0.  1.
         21    1    1    2  502  501 -0.38014445292E-03 -0.27880582439E-02 -0.96730795431E-03  0.29754769794E-02  0.00000000000E+00 0. -1.
<mgrwt>
<rscale>  1 0.64613026E+03</rscale>
<asrwt>0</asrwt>
<pdfrwt beam="1">  1        1 0.37953639E+00 0.64613026E+03</pdfrwt>
<pdfrwt beam="2">0</pdfrwt>
<totfact> 0.16498919E+00</totfact>
</mgrwt>
</event>
<event>
 6    1  0.4248415E-003  0.5725442E+03  0.7818608E-02  0.9964064E-01
          1   -1    0    0  502    0  0.00000000000E+00  0.00000000000E+00  0.81958942355E+02  0.81958942355E+02  0.00000000000E+00 0.  1.
         13   -1    0    0    0    0 -0.00000000000E+00 -0.00000000000E+00 -0.10000000000E+04  0.10000000000E+04  0.00000000000E+00 0.  1.
    9000005    2    1    2  501    0  0.41214084581E-03  0.68850714570E-05 -0.91804826840E+03  0.10819517198E+04  0.57254423492E+03 0.  0.
         13    1    3    3    0    0 -0.24409558408E+03  0.13595202340E+03 -0.57682547992E+03  0.64093154168E+03  0.00000000000E+00 0.  1.
          3    1    3    3  501    0  0.24409599622E+03 -0.13595201652E+03 -0.34122278847E+03  0.44102017815E+03  0.00000000000E+00 0.  1.
         21    1    1    2  502  501 -0.41214084580E-03 -0.68850714456E-05  0.72107518460E-02  0.72225237739E-02  0.00000000000E+00 0. -1.
<mgrwt>
<rscale>  1 0.57254423E+03</rscale>
<asrwt>0</asrwt>
<pdfrwt beam="1">  1        1 0.29803315E+00 0.57254423E+03</pdfrwt>
<pdfrwt beam="2">0</pdfrwt>
<totfact> 0.37809646E+00</totfact>
</mgrwt>
</event>
<event>
 6    1  0.4248415E-003  0.6532332E+03  0.7818608E-02  0.9800731E-01
          1   -1    0    0  502    0  0.00000000000E+00  0.00000000000E+00  0.10729449066E+03  0.10729449066E+03  0.00000000000E+00 0.  1.
         13   -1    0    0    0    0 -0.00000000000E+00 -0.00000000000E+00 -0.10000000000E+04  0.10000000000E+04  0.00000000000E+00 0.  1.
    9000005    2    1    2  501    0 -0.27658302938E-01  0.28719846759E-01 -0.89332089605E+03  0.11066778136E+04  0.65323315760E+03 0.  0.
         13    1    3    3    0    0 -0.18306875559E+03 -0.40042774452E+02  0.65444436197E+01  0.18751112714E+03  0.00000000000E+00 0.  1.
          1    1    3    3  501    0  0.18304109728E+03  0.40071494299E+02 -0.89986533967E+03  0.91916668645E+03  0.00000000000E+00 0.  1.
         21    1    1    2  502  501  0.27658302938E-01 -0.28719846759E-01  0.61538670558E+00  0.61667707005E+00  0.00000000000E+00 0. -1.
<mgrwt>
<rscale>  1 0.65323316E+03</rscale>
<asrwt>0</asrwt>
<pdfrwt beam="1">  1        1 0.39016261E+00 0.65323316E+03</pdfrwt>
<pdfrwt beam="2">0</pdfrwt>
<totfact> 0.14787234E+00</totfact>
</mgrwt>
</event>
<event>
 6    1  0.4248415E-003  0.6514897E+03  0.7818608E-02  0.9803988E-01
          1   -1    0    0  502    0  0.00000000000E+00  0.00000000000E+00  0.10610976768E+03  0.10610976768E+03  0.00000000000E+00 0.  1.
         13   -1    0    0    0    0 -0.00000000000E+00 -0.00000000000E+00 -0.10000000000E+04  0.10000000000E+04  0.00000000000E+00 0.  1.
    9000005    2    1    2  501    0 -0.11299109113E-03 -0.14216508191E-04 -0.89389024704E+03  0.11061096529E+04  0.65148967019E+03 0.  0.
         13    1    3    3    0    0 -0.62229731815E+02 -0.26010906983E+03 -0.76266791977E+03  0.80820271193E+03  0.00000000000E+00 0.  1.
          3    1    3    3  501    0  0.62229618824E+02  0.26010905562E+03 -0.13122232728E+03  0.29790694092E+03  0.00000000000E+00 0.  1.
         21    1    1    2  502  501  0.11299109113E-03  0.14216508197E-04  0.14726635928E-04  0.11483017715E-03  0.00000000000E+00 0.  1.
<mgrwt>
<rscale>  1 0.65148967E+03</rscale>
<asrwt>0</asrwt>
<pdfrwt beam="1">  1        1 0.38585451E+00 0.65148967E+03</pdfrwt>
<pdfrwt beam="2">0</pdfrwt>
<totfact> 0.15456537E+00</totfact>
</mgrwt>
</event>
<event>
 6    1  0.4248415E-003  0.6338079E+03  0.7818608E-02  0.9837646E-01
          1   -1    0    0  502    0  0.00000000000E+00  0.00000000000E+00  0.10726041907E+03  0.10726041907E+03  0.00000000000E+00 0.  1.
         13   -1    0    0    0    0 -0.00000000000E+00 -0.00000000000E+00 -0.10000000000E+04  0.10000000000E+04  0.00000000000E+00 0.  1.
    9000005    2    1    2  501    0 -0.24686164462E+01  0.32606624408E+01 -0.89889219651E+03  0.10998725462E+04  0.63379469151E+03 0.  0.
         13    1    3    3    0    0 -0.25893413092E+03  0.39501940379E+02 -0.13790898709E+03  0.29601718897E+03  0.00000000000E+00 0.  1.
          3    1    3    3  501    0  0.25646551447E+03 -0.36241277938E+02 -0.76098320943E+03  0.80385535724E+03  0.00000000000E+00 0.  1.
         21    1    1    2  502  501  0.24686164462E+01 -0.32606624408E+01  0.61526155797E+01  0.73878728456E+01  0.00000000000E+00 0. -1.
<mgrwt>
<rscale>  1 0.63380789E+03</rscale>
<asrwt>0</asrwt>
<pdfrwt beam="1">  1        1 0.39003871E+00 0.63380789E+03</pdfrwt>
<pdfrwt beam="2">0</pdfrwt>
<totfact> 0.14860206E+00</totfact>
</mgrwt>
</event>
<event>
 6    1  0.4248415E-003  0.6385930E+03  0.7818608E-02  0.9828422E-01
          1   -1    0    0  502    0  0.00000000000E+00  0.00000000000E+00  0.10195031291E+03  0.10195031291E+03  0.00000000000E+00 0.  1.
         13   -1    0    0    0    0 -0.00000000000E+00 -0.00000000000E+00 -0.10000000000E+04  0.10000000000E+04  0.00000000000E+00 0.  1.
    9000005    2    1    2  501    0  0.43130705649E-04 -0.43264530674E-04 -0.89804973438E+03  0.11019502357E+04  0.63859298183E+03 0.  0.
         13    1    3    3    0    0 -0.29230497418E+03 -0.11529264695E+03 -0.54687740492E+03  0.63072140314E+03  0.00000000000E+00 0.  1.
          3    1    3    3  501    0  0.29230501731E+03  0.11529260368E+03 -0.35117232946E+03  0.47122883251E+03  0.00000000000E+00 0.  1.
         21    1    1    2  502  501 -0.43130705613E-04  0.43264530674E-04  0.47288556003E-04  0.77254675651E-04  0.00000000000E+00 0. -1.
<mgrwt>
<rscale>  1 0.63859298E+03</rscale>
<asrwt>0</asrwt>
<pdfrwt beam="1">  1        1 0.37072919E+00 0.63859298E+03</pdfrwt>
<pdfrwt beam="2">0</pdfrwt>
<totfact> 0.18064458E+00</totfact>
</mgrwt>
</event>
<event>
 6    1  0.4248415E-003  0.6373518E+03  0.7818608E-02  0.9830806E-01
          1   -1    0    0  502    0  0.00000000000E+00  0.00000000000E+00  0.10155833470E+03  0.10155833470E+03  0.00000000000E+00 0.  1.
         13   -1    0    0    0    0 -0.00000000000E+00 -0.00000000000E+00 -0.10000000000E+04  0.10000000000E+04  0.00000000000E+00 0.  1.
    9000005    2    1    2  501    0 -0.32961967193E-02  0.68297150333E-02 -0.89844130820E+03  0.11015507428E+04  0.63735175104E+03 0.  0.
         13    1    3    3    0    0  0.13085823845E+03 -0.26965488534E+02 -0.94924808377E+03  0.95860468426E+03  0.00000000000E+00 0.  1.
          3    1    3    3  501    0 -0.13086153464E+03  0.26972318249E+02  0.50806775564E+02  0.14294605851E+03  0.00000000000E+00 0.  1.
         21    1    1    2  502  501  0.32961967193E-02 -0.68297150333E-02 -0.35709597103E-03  0.75919324142E-02  0.00000000000E+00 0.  1.
<mgrwt>
<rscale>  1 0.63735175E+03</rscale>
<asrwt>0</asrwt>
<pdfrwt beam="1">  1        1 0.36930381E+00 0.63735175E+03</pdfrwt>
<pdfrwt beam="2">0</pdfrwt>
<totfact> 0.18330875E+00</totfact>
</mgrwt>
</event>
<event>
 6    1  0.4248415E-003  0.6333425E+03  0.7818608E-02  0.9838548E-01
          1   -1    0    0  502    0  0.00000000000E+00  0.00000000000E+00  0.10456783969E+03  0.10456783969E+03  0.00000000000E+00 0.  1.
         13   -1    0    0    0    0 -0.00000000000E+00 -0.00000000000E+00 -0.10000000000E+04  0.10000000000E+04  0.00000000000E+00 0.  1.
    9000005    2    1    2  501    0  0.12409240947E+00  0.28222101103E-01 -0.89971827796E+03  0.11002798332E+04  0.63334249453E+03 0.  0.
         13    1    3    3    0    0  0.26835305935E+03  0.11276076001E+03 -0.23303525243E+03  0.37287234054E+03  0.00000000000E+00 0.  1.
          3    1    3    3  501    0 -0.26822896694E+03 -0.11273253791E+03 -0.66668302553E+03  0.72740749263E+03  0.00000000000E+00 0.  1.
         21    1    1    2  502  501 -0.12409240947E+00 -0.28222101103E-01  0.42861176523E+01  0.42880065231E+01  0.00000000000E+00 0.  1.
<mgrwt>
<rscale>  1 0.63334251E+03</rscale>
<asrwt>0</asrwt>
<pdfrwt beam="1">  1        1 0.38024749E+00 0.63334251E+03</pdfrwt>
<pdfrwt beam="2">0</pdfrwt>
<totfact> 0.16419074E+00</totfact>
</mgrwt>
</event>
<event>
 6    1  0.4248415E-003  0.6388591E+03  0.7818608E-02  0.9827912E-01
          1   -1    0    0  502    0  0.00000000000E+00  0.00000000000E+00  0.10203739346E+03  0.10203739346E+03  0.00000000000E+00 0.  1.
         13   -1    0    0    0    0 -0.00000000000E+00 -0.00000000000E+00 -0.10000000000E+04  0.10000000000E+04  0.00000000000E+00 0.  1.
    9000005    2    1    2  501    0 -0.48987856758E-05  0.70939575203E-04 -0.89796475719E+03  0.11020352416E+04  0.63885911485E+03 0.  0.
         13    1    3    3    0    0 -0.25625804425E+03 -0.63198593580E+02 -0.75935384909E+03  0.80391573912E+03  0.00000000000E+00 0.  1.
          1    1    3    3  501    0  0.25625803936E+03  0.63198664520E+02 -0.13861090810E+03  0.29811950251E+03  0.00000000000E+00 0.  1.
         21    1    1    2  502  501  0.48987856944E-05 -0.70939575206E-04  0.21506522492E-02  0.21518274834E-02  0.00000000000E+00 0. -1.
<mgrwt>
<rscale>  1 0.63885911E+03</rscale>
<asrwt>0</asrwt>
<pdfrwt beam="1">  1        1 0.37104585E+00 0.63885911E+03</pdfrwt>
<pdfrwt beam="2">0</pdfrwt>
<totfact> 0.18005808E+00</totfact>
</mgrwt>
</event>
<event>
 6    1  0.4248415E-003  0.6604232E+03  0.7818608E-02  0.9787415E-01
          1   -1    0    0  502    0  0.00000000000E+00  0.00000000000E+00  0.10915769736E+03  0.10915769736E+03  0.00000000000E+00 0.  1.
         13   -1    0    0    0    0 -0.00000000000E+00 -0.00000000000E+00 -0.10000000000E+04  0.10000000000E+04  0.00000000000E+00 0.  1.
    9000005    2    1    2  501    0 -0.89473480993E-01  0.67717193712E-01 -0.89092995140E+03  0.11090153126E+04  0.66042317693E+03 0.  0.
         13    1    3    3    0    0 -0.72481849324E+02 -0.12693884687E+03  0.51751744359E+02  0.15506557442E+03  0.00000000000E+00 0.  1.
          1    1    3    3  501    0  0.72392375843E+02  0.12700656407E+03 -0.94268169576E+03  0.95394973815E+03  0.00000000000E+00 0.  1.
         21    1    1    2  502  501  0.89473480993E-01 -0.67717193712E-01  0.87648762277E-01  0.14238478730E+00  0.00000000000E+00 0. -1.
<mgrwt>
<rscale>  1 0.66042319E+03</rscale>
<asrwt>0</asrwt>
<pdfrwt beam="1">  1        1 0.39693792E+00 0.66042319E+03</pdfrwt>
<pdfrwt beam="2">0</pdfrwt>
<totfact> 0.13778491E+00</totfact>
</mgrwt>
</event>
<event>
 6    1  0.4248415E-003  0.6463316E+03  0.7818608E-02  0.9813687E-01
          1   -1    0    0  502    0  0.00000000000E+00  0.00000000000E+00  0.10487634721E+03  0.10487634721E+03  0.00000000000E+00 0.  1.
         13   -1    0    0    0    0 -0.00000000000E+00 -0.00000000000E+00 -0.10000000000E+04  0.10000000000E+04  0.00000000000E+00 0.  1.
    9000005    2    1    2  501    0  0.68277638288E-01 -0.13626299402E+00 -0.89554924115E+03  0.11044242909E+04  0.64633160825E+03 0.  0.
         13    1    3    3    0    0 -0.19579851853E+03  0.23677849685E+03 -0.61846186200E+03  0.69057670912E+03  0.00000000000E+00 0.  1.
          1    1    3    3  501    0  0.19586679617E+03 -0.23691475985E+03 -0.27708737915E+03  0.41384758179E+03  0.00000000000E+00 0.  1.
         21    1    1    2  502  501 -0.68277638288E-01  0.13626299402E+00  0.42558836088E+00  0.45205629334E+00  0.00000000000E+00 0.  1.
<mgrwt>
<rscale>  1 0.64633163E+03</rscale>
<asrwt>0</asrwt>
<pdfrwt beam="1">  1        1 0.38136934E+00 0.64633163E+03</pdfrwt>
<pdfrwt beam="2">0</pdfrwt>
<totfact> 0.16193859E+00</totfact>
</mgrwt>
</event>
<event>
 6    1  0.4248415E-003  0.6537420E+03  0.7818608E-02  0.9799783E-01
          1   -1    0    0  502    0  0.00000000000E+00  0.00000000000E+00  0.10692486213E+03  0.10692486213E+03  0.00000000000E+00 0.  1.
         13   -1    0    0    0    0 -0.00000000000E+00 -0.00000000000E+00 -0.10000000000E+04  0.10000000000E+04  0.00000000000E+00 0.  1.
    9000005    2    1    2  501    0  0.75598388664E-02 -0.29053104969E-02 -0.89315510831E+03  0.11068444826E+04  0.65374204483E+03 0.  0.
         13    1    3    3    0    0 -0.18106668751E+03  0.15152404170E+03 -0.63852251511E+02  0.24458493527E+03  0.00000000000E+00 0.  1.
          1    1    3    3  501    0  0.18107424735E+03 -0.15152694701E+03 -0.82930285680E+03  0.86225954736E+03  0.00000000000E+00 0.  1.
         21    1    1    2  502  501 -0.75598388664E-02  0.29053104969E-02  0.79970434824E-01  0.80379490162E-01  0.00000000000E+00 0. -1.
<mgrwt>
<rscale>  1 0.65374204E+03</rscale>
<asrwt>0</asrwt>
<pdfrwt beam="1">  1        1 0.38881850E+00 0.65374204E+03</pdfrwt>
<pdfrwt beam="2">0</pdfrwt>
<totfact> 0.14990115E+00</totfact>
</mgrwt>
</event>
<event>
 6    1  0.4248415E-003  0.6464625E+03  0.7818608E-02  0.9813440E-01
          1   -1    0    0  502    0  0.00000000000E+00  0.00000000000E+00  0.10455198821E+03  0.10455198821E+03  0.00000000000E+00 0.  1.
         13   -1    0    0    0    0 -0.00000000000E+00 -0.00000000000E+00 -0.10000000000E+04  0.10000000000E+04  0.00000000000E+00 0.  1.
    9000005    2    1    2  501    0 -0.16205611156E-02  0.11182435966E-02 -0.89552154111E+03  0.11044784325E+04  0.64646251039E+03 0.  0.
         13    1    3    3    0    0  0.23981711561E+03 -0.21536436340E+03 -0.48903849231E+03  0.58570701287E+03  0.00000000000E+00 0.  1.
          1    1    3    3  501    0 -0.23981873617E+03  0.21536548164E+03 -0.40648304879E+03  0.51877141966E+03  0.00000000000E+00 0.  1.
         21    1    1    2  502  501  0.16205611156E-02 -0.11182435966E-02  0.73529314987E-01  0.73555671770E-01  0.00000000000E+00 0. -1.
<mgrwt>
<rscale>  1 0.64646251E+03</rscale>
<asrwt>0</asrwt>
<pdfrwt beam="1">  1        1 0.38018985E+00 0.64646251E+03</pdfrwt>
<pdfrwt beam="2">0</pdfrwt>
<totfact> 0.16388754E+00</totfact>
</mgrwt>
</event>
<event>
 6    1  0.4248415E-003  0.6290441E+03  0.7818608E-02  0.9846916E-01
          1   -1    0    0  502    0  0.00000000000E+00  0.00000000000E+00  0.99813576589E+02  0.99813576589E+02  0.00000000000E+00 0.  1.
         13   -1    0    0    0    0 -0.00000000000E+00 -0.00000000000E+00 -0.10000000000E+04  0.10000000000E+04  0.00000000000E+00 0.  1.
    9000005    2    1    2  501    0  0.12669824980E+01  0.17139743848E+01 -0.89938151349E+03  0.10975352367E+04  0.62904049628E+03 0.  0.
         13    1    3    3    0    0  0.18288095125E+03 -0.24472718293E+03 -0.32107659750E+03  0.44320087754E+03  0.00000000000E+00 0.  1.
          3    1    3    3  501    0 -0.18161396875E+03  0.24644115731E+03 -0.57830491599E+03  0.65433435912E+03  0.00000000000E+00 0.  1.
         21    1    1    2  502  501 -0.12669824980E+01 -0.17139743848E+01 -0.80490992284E+00  0.22783399276E+01  0.00000000000E+00 0. -1.
<mgrwt>
<rscale>  1 0.62904411E+03</rscale>
<asrwt>0</asrwt>
<pdfrwt beam="1">  1        1 0.36295923E+00 0.62904411E+03</pdfrwt>
<pdfrwt beam="2">0</pdfrwt>
<totfact> 0.19572923E+00</totfact>
</mgrwt>
</event>
<event>
 6    1  0.4248415E-003  0.6523033E+03  0.7818608E-02  0.9802467E-01
          1   -1    0    0  502    0  0.00000000000E+00  0.00000000000E+00  0.11178737559E+03  0.11178737559E+03  0.00000000000E+00 0.  1.
         13   -1    0    0    0    0 -0.00000000000E+00 -0.00000000000E+00 -0.10000000000E+04  0.10000000000E+04  0.00000000000E+00 0.  1.
    9000005    2    1    2  501    0 -0.70719709662E+01 -0.21770660330E+01 -0.89067099041E+03  0.11039901996E+04  0.65226129373E+03 0.  0.
         13    1    3    3    0    0 -0.15844933657E+03  0.25760560216E+03 -0.23614256722E+03  0.38370581254E+03  0.00000000000E+00 0.  1.
          3    1    3    3  501    0  0.15137736560E+03 -0.25978266819E+03 -0.65452842318E+03  0.72028438707E+03  0.00000000000E+00 0.  1.
         21    1    1    2  502  501  0.70719709662E+01  0.21770660330E+01  0.24583660027E+01  0.77971759800E+01  0.00000000000E+00 0. -1.
<mgrwt>
<rscale>  1 0.65230326E+03</rscale>
<asrwt>0</asrwt>
<pdfrwt beam="1">  1        1 0.40650040E+00 0.65230326E+03</pdfrwt>
<pdfrwt beam="2">0</pdfrwt>
<totfact> 0.12508240E+00</totfact>
</mgrwt>
</event>
<event>
 6    1  0.4248415E-003  0.6517182E+03  0.7818608E-02  0.9803561E-01
          1   -1    0    0  502    0  0.00000000000E+00  0.00000000000E+00  0.10618415009E+03  0.10618415009E+03  0.00000000000E+00 0.  1.
         13   -1    0    0    0    0 -0.00000000000E+00 -0.00000000000E+00 -0.10000000000E+04  0.10000000000E+04  0.00000000000E+00 0.  1.
    9000005    2    1    2  501    0  0.34383606362E-05 -0.34515285563E-05 -0.89381586090E+03  0.11061841381E+04  0.65171815542E+03 0.  0.
         13    1    3    3    0    0 -0.11758049363E+03  0.18840791829E+03 -0.85164824069E+03  0.88012921894E+03  0.00000000000E+00 0.  1.
          3    1    3    3  501    0  0.11758049707E+03 -0.18840792174E+03 -0.42167620211E+02  0.22605491913E+03  0.00000000000E+00 0.  1.
         21    1    1    2  502  501 -0.34383606393E-05  0.34515285569E-05  0.10994213874E-04  0.12025311305E-04  0.00000000000E+00 0. -1.
<mgrwt>
<rscale>  1 0.65171816E+03</rscale>
<asrwt>0</asrwt>
<pdfrwt beam="1">  1        1 0.38612500E+00 0.65171816E+03</pdfrwt>
<pdfrwt beam="2">0</pdfrwt>
<totfact> 0.15413343E+00</totfact>
</mgrwt>
</event>
<event>
 6    1  0.4537261E-003  0.5986042E+03  0.7818608E-02  0.9908306E-01
          1   -1    0    0  502    0  0.00000000000E+00  0.00000000000E+00  0.89581786942E+02  0.89581786942E+02  0.00000000000E+00 0.  1.
         13   -1    0    0    0    0 -0.00000000000E+00 -0.00000000000E+00 -0.10000000000E+04  0.10000000000E+04  0.00000000000E+00 0.  1.
    9000005    2    1    2  501    0  0.19399676745E-04 -0.53171691548E-04 -0.91041822036E+03  0.10895817299E+04  0.59860421825E+03 0.  0.
         13    1    3    3    0    0  0.70278371755E+02  0.28286522014E+03 -0.57906263619E+03  0.64827873553E+03  0.00000000000E+00 0.  1.
          1    1    3    3  501    0 -0.70278352356E+02 -0.28286527331E+03 -0.33135558417E+03  0.44130299435E+03  0.00000000000E+00 0.  1.
         21    1    1    2  502  501 -0.19399676738E-04  0.53171691597E-04  0.73050005018E-05  0.57069600289E-04  0.00000000000E+00 0.  1.
<mgrwt>
<rscale>  1 0.59860422E+03</rscale>
<asrwt>0</asrwt>
<pdfrwt beam="1">  1        1 0.32575264E+00 0.59860422E+03</pdfrwt>
<pdfrwt beam="2">0</pdfrwt>
<totfact> 0.28567508E+00</totfact>
</mgrwt>
</event>
<event>
 6    1  0.4248415E-003  0.6196433E+03  0.7818608E-02  0.9865470E-01
          1   -1    0    0  502    0  0.00000000000E+00  0.00000000000E+00  0.95990622147E+02  0.95990622147E+02  0.00000000000E+00 0.  1.
         13   -1    0    0    0    0 -0.00000000000E+00 -0.00000000000E+00 -0.10000000000E+04  0.10000000000E+04  0.00000000000E+00 0.  1.
    9000005    2    1    2  501    0 -0.26038744028E-03 -0.17572367375E-03 -0.90401051277E+03  0.10959894446E+04  0.61964332918E+03 0.  0.
         13    1    3    3    0    0  0.15113663755E+03 -0.25918812206E+03 -0.31535684873E+03  0.43528233121E+03  0.00000000000E+00 0.  1.
          1    1    3    3  501    0 -0.15113689794E+03  0.25918794633E+03 -0.58865366404E+03  0.66070711335E+03  0.00000000000E+00 0.  1.
         21    1    1    2  502  501  0.26038744027E-03  0.17572367376E-03  0.11349143643E-02  0.11775869577E-02  0.00000000000E+00 0. -1.
<mgrwt>
<rscale>  1 0.61964333E+03</rscale>
<asrwt>0</asrwt>
<pdfrwt beam="1">  1        1 0.34905754E+00 0.61964333E+03</pdfrwt>
<pdfrwt beam="2">0</pdfrwt>
<totfact> 0.22547379E+00</totfact>
</mgrwt>
</event>
<event>
 6    1  0.4248415E-003  0.6519802E+03  0.7818608E-02  0.9803071E-01
          1   -1    0    0  502    0  0.00000000000E+00  0.00000000000E+00  0.10626996448E+03  0.10626996448E+03  0.00000000000E+00 0.  1.
         13   -1    0    0    0    0 -0.00000000000E+00 -0.00000000000E+00 -0.10000000000E+04  0.10000000000E+04  0.00000000000E+00 0.  1.
    9000005    2    1    2  501    0  0.10519427298E-03  0.27062615308E-03 -0.89373039267E+03  0.11062695042E+04  0.65198021530E+03 0.  0.
         13    1    3    3    0    0 -0.22989673210E+03 -0.22704051492E+03 -0.52023128603E+03  0.61240549786E+03  0.00000000000E+00 0.  1.
          1    1    3    3  501    0  0.22989683729E+03  0.22704078555E+03 -0.37349910664E+03  0.49386400634E+03  0.00000000000E+00 0.  1.
         21    1    1    2  502  501 -0.10519427296E-03 -0.27062615308E-03  0.35714779040E-03  0.46028132048E-03  0.00000000000E+00 0.  1.
<mgrwt>
<rscale>  1 0.65198022E+03</rscale>
<asrwt>0</asrwt>
<pdfrwt beam="1">  1        1 0.38643705E+00 0.65198022E+03</pdfrwt>
<pdfrwt beam="2">0</pdfrwt>
<totfact> 0.15363657E+00</totfact>
</mgrwt>
</event>
<event>
 6    1  0.4248415E-003  0.6497734E+03  0.7818608E-02  0.9807204E-01
          1   -1    0    0  502    0  0.00000000000E+00  0.00000000000E+00  0.11875652928E+03  0.11875652928E+03  0.00000000000E+00 0.  1.
         13   -1    0    0    0    0 -0.00000000000E+00 -0.00000000000E+00 -0.10000000000E+04  0.10000000000E+04  0.00000000000E+00 0.  1.
    9000005    2    1    2  501    0  0.32753968278E+00  0.85667934432E+00 -0.89443101838E+03  0.11055371271E+04  0.64977276910E+03 0.  0.
         13    1    3    3    0    0  0.29803815945E+03  0.10625642073E+03 -0.32003602658E+03  0.45004469749E+03  0.00000000000E+00 0.  1.
          1    1    3    3  501    0 -0.29771061976E+03 -0.10539974139E+03 -0.57439499181E+03  0.65549242956E+03  0.00000000000E+00 0.  1.
         21    1    1    2  502  501 -0.32753968278E+00 -0.85667934432E+00  0.13187547664E+02  0.13219402223E+02  0.00000000000E+00 0.  1.
<mgrwt>
<rscale>  1 0.64977342E+03</rscale>
<asrwt>0</asrwt>
<pdfrwt beam="1">  1        1 0.43184284E+00 0.64977342E+03</pdfrwt>
<pdfrwt beam="2">0</pdfrwt>
<totfact> 0.96196715E-01</totfact>
</mgrwt>
</event>
<event>
 6    1  0.4248415E-003  0.6500499E+03  0.7818608E-02  0.9806685E-01
          1   -1    0    0  502    0  0.00000000000E+00  0.00000000000E+00  0.10622609092E+03  0.10622609092E+03  0.00000000000E+00 0.  1.
         13   -1    0    0    0    0 -0.00000000000E+00 -0.00000000000E+00 -0.10000000000E+04  0.10000000000E+04  0.00000000000E+00 0.  1.
    9000005    2    1    2  501    0 -0.16326449774E-01  0.97776260924E-02 -0.89435860023E+03  0.11056410902E+04  0.65004993199E+03 0.  0.
         13    1    3    3    0    0  0.31414008269E+03  0.62731445361E+02 -0.54060056611E+03  0.62838538961E+03  0.00000000000E+00 0.  1.
          1    1    3    3  501    0 -0.31415640914E+03 -0.62721667735E+02 -0.35375803412E+03  0.47725570055E+03  0.00000000000E+00 0.  1.
         21    1    1    2  502  501  0.16326449774E-01 -0.97776260924E-02  0.58469114338E+00  0.58500075905E+00  0.00000000000E+00 0. -1.
<mgrwt>
<rscale>  1 0.65004993E+03</rscale>
<asrwt>0</asrwt>
<pdfrwt beam="1">  1        1 0.38627751E+00 0.65004993E+03</pdfrwt>
<pdfrwt beam="2">0</pdfrwt>
<totfact> 0.15394155E+00</totfact>
</mgrwt>
</event>
<event>
 6    1  0.5072081E-003  0.5225164E+03  0.7818608E-02  0.1008063E+00
          1   -1    0    0  502    0  0.00000000000E+00  0.00000000000E+00  0.68255847899E+02  0.68255847899E+02  0.00000000000E+00 0.  1.
         13   -1    0    0    0    0 -0.00000000000E+00 -0.00000000000E+00 -0.10000000000E+04  0.10000000000E+04  0.00000000000E+00 0.  1.
    9000005    2    1    2  501    0  0.40931413992E-05  0.86032048614E-05 -0.93174415345E+03  0.10682558383E+04  0.52251638111E+03 0.  0.
         13    1    3    3    0    0 -0.20862120387E+03  0.57890666289E+02 -0.16692346457E+03  0.27338174586E+03  0.00000000000E+00 0.  1.
          3    1    3    3  501    0  0.20862120796E+03 -0.57890657686E+02 -0.76482068888E+03  0.79487409242E+03  0.00000000000E+00 0.  1.
         21    1    1    2  502  501 -0.40931414177E-05 -0.86032048652E-05  0.13464451838E-05  0.96219465417E-05  0.00000000000E+00 0.  1.
<mgrwt>
<rscale>  1 0.52251638E+03</rscale>
<asrwt>0</asrwt>
<pdfrwt beam="1">  1        1 0.24820361E+00 0.52251638E+03</pdfrwt>
<pdfrwt beam="2">0</pdfrwt>
<totfact> 0.62643627E+00</totfact>
</mgrwt>
</event>
<event>
 6    1  0.4248415E-003  0.6465347E+03  0.7818608E-02  0.9813303E-01
          1   -1    0    0  502    0  0.00000000000E+00  0.00000000000E+00  0.10528769796E+03  0.10528769796E+03  0.00000000000E+00 0.  1.
         13   -1    0    0    0    0 -0.00000000000E+00 -0.00000000000E+00 -0.10000000000E+04  0.10000000000E+04  0.00000000000E+00 0.  1.
    9000005    2    1    2  501    0 -0.14914602937E-01  0.20022903479E-01 -0.89549800201E+03  0.11045016014E+04  0.64653469765E+03 0.  0.
         13    1    3    3    0    0 -0.29791125738E+03 -0.11975903107E+03 -0.38359429718E+03  0.50023787104E+03  0.00000000000E+00 0.  1.
          3    1    3    3  501    0  0.29789634277E+03  0.11977905397E+03 -0.51190370483E+03  0.60426373036E+03  0.00000000000E+00 0.  1.
         21    1    1    2  502  501  0.14914602937E-01 -0.20022903479E-01  0.78569997101E+00  0.78609656308E+00  0.00000000000E+00 0.  1.
<mgrwt>
<rscale>  1 0.64653470E+03</rscale>
<asrwt>0</asrwt>
<pdfrwt beam="1">  1        1 0.38286516E+00 0.64653470E+03</pdfrwt>
<pdfrwt beam="2">0</pdfrwt>
<totfact> 0.15948787E+00</totfact>
</mgrwt>
</event>
<event>
 6    1  0.4248415E-003  0.6369406E+03  0.7818608E-02  0.9831598E-01
          1   -1    0    0  502    0  0.00000000000E+00  0.00000000000E+00  0.10517055750E+03  0.10517055750E+03  0.00000000000E+00 0.  1.
         13   -1    0    0    0    0 -0.00000000000E+00 -0.00000000000E+00 -0.10000000000E+04  0.10000000000E+04  0.00000000000E+00 0.  1.
    9000005    2    1    2  501    0 -0.22713917850E+00 -0.48561693349E+00 -0.89855555251E+03  0.11014060772E+04  0.63694032575E+03 0.  0.
         13    1    3    3    0    0 -0.18836892261E+03 -0.22452001975E+03 -0.66616587613E+03  0.72778366620E+03  0.00000000000E+00 0.  1.
          1    1    3    3  501    0  0.18814178343E+03  0.22403440282E+03 -0.23238967638E+03  0.37362241101E+03  0.00000000000E+00 0.  1.
         21    1    1    2  502  501  0.22713917850E+00  0.48561693349E+00  0.37261100140E+01  0.37644802894E+01  0.00000000000E+00 0. -1.
<mgrwt>
<rscale>  1 0.63694055E+03</rscale>
<asrwt>0</asrwt>
<pdfrwt beam="1">  1        1 0.38243920E+00 0.63694055E+03</pdfrwt>
<pdfrwt beam="2">0</pdfrwt>
<totfact> 0.16046634E+00</totfact>
</mgrwt>
</event>
<event>
 6    1  0.4248415E-003  0.6488733E+03  0.7818608E-02  0.9808896E-01
          3   -1    0    0  502    0  0.00000000000E+00  0.00000000000E+00  0.10526144245E+03  0.10526144245E+03  0.00000000000E+00 0.  1.
         13   -1    0    0    0    0 -0.00000000000E+00 -0.00000000000E+00 -0.10000000000E+04  0.10000000000E+04  0.00000000000E+00 0.  1.
    9000005    2    1    2  501    0 -0.76458527398E-03 -0.11260025769E-03 -0.89474080313E+03  0.11052590676E+04  0.64887325553E+03 0.  0.
         13    1    3    3    0    0  0.48240852163E+02 -0.29168320723E+03 -0.21977788146E+03  0.36838646878E+03  0.00000000000E+00 0.  1.
          3    1    3    3  501    0 -0.48241616748E+02  0.29168309463E+03 -0.67496292167E+03  0.73687259883E+03  0.00000000000E+00 0.  1.
         21    1    1    2  502  501  0.76458527399E-03  0.11260025770E-03  0.22455762476E-02  0.23748436039E-02  0.00000000000E+00 0.  1.
<mgrwt>
<rscale>  1 0.64887326E+03</rscale>
<asrwt>0</asrwt>
<pdfrwt beam="1">  1        3 0.38276969E+00 0.64887326E+03</pdfrwt>
<pdfrwt beam="2">0</pdfrwt>
<totfact> 0.72993720E-02</totfact>
</mgrwt>
</event>
<event>
 6    1  0.4248415E-003  0.6213765E+03  0.7818608E-02  0.9862023E-01
          1   -1    0    0  502    0  0.00000000000E+00  0.00000000000E+00  0.96527212944E+02  0.96527212944E+02  0.00000000000E+00 0.  1.
         13   -1    0    0    0    0 -0.00000000000E+00 -0.00000000000E+00 -0.10000000000E+04  0.10000000000E+04  0.00000000000E+00 0.  1.
    9000005    2    1    2  501    0 -0.12585296190E-04  0.27073385382E-04 -0.90347279128E+03  0.10965271828E+04  0.62137651873E+03 0.  0.
         13    1    3    3    0    0  0.27572850124E+03 -0.12948401588E+03 -0.34389079838E+03  0.45940526550E+03  0.00000000000E+00 0.  1.
          3    1    3    3  501    0 -0.27572851382E+03  0.12948404295E+03 -0.55958199290E+03  0.63712191729E+03  0.00000000000E+00 0.  1.
         21    1    1    2  502  501  0.12585296194E-04 -0.27073385407E-04  0.42202133760E-05  0.30152414142E-04  0.00000000000E+00 0. -1.
<mgrwt>
<rscale>  1 0.62137652E+03</rscale>
<asrwt>0</asrwt>
<pdfrwt beam="1">  1        1 0.35100879E+00 0.62137652E+03</pdfrwt>
<pdfrwt beam="2">0</pdfrwt>
<totfact> 0.22103401E+00</totfact>
</mgrwt>
</event>
<event>
 6    1  0.4248415E-003  0.6540062E+03  0.7818608E-02  0.9799291E-01
          1   -1    0    0  502    0  0.00000000000E+00  0.00000000000E+00  0.10693106710E+03  0.10693106710E+03  0.00000000000E+00 0.  1.
         13   -1    0    0    0    0 -0.00000000000E+00 -0.00000000000E+00 -0.10000000000E+04  0.10000000000E+04  0.00000000000E+00 0.  1.
    9000005    2    1    2  501    0  0.18680233200E-04  0.13172275715E-06 -0.89306897262E+03  0.11069310232E+04  0.65400619285E+03 0.  0.
         13    1    3    3    0    0 -0.27412723044E+02  0.11058674085E+03 -0.96531948969E+03  0.97201985670E+03  0.00000000000E+00 0.  1.
          1    1    3    3  501    0  0.27412741724E+02 -0.11058674072E+03  0.72250517073E+02  0.13491116651E+03  0.00000000000E+00 0.  1.
         21    1    1    2  502  501 -0.18680233200E-04 -0.13172276842E-06  0.39720515721E-04  0.43894052359E-04  0.00000000000E+00 0.  1.
<mgrwt>
<rscale>  1 0.65400619E+03</rscale>
<asrwt>0</asrwt>
<pdfrwt beam="1">  1        1 0.38884106E+00 0.65400619E+03</pdfrwt>
<pdfrwt beam="2">0</pdfrwt>
<totfact> 0.14985931E+00</totfact>
</mgrwt>
</event>
<event>
 6    1  0.4248415E-003  0.6363548E+03  0.7818608E-02  0.9832726E-01
          1   -1    0    0  502    0  0.00000000000E+00  0.00000000000E+00  0.15459455976E+03  0.15459455976E+03  0.00000000000E+00 0.  1.
         13   -1    0    0    0    0 -0.00000000000E+00 -0.00000000000E+00 -0.10000000000E+04  0.10000000000E+04  0.00000000000E+00 0.  1.
    9000005    2    1    2  501    0  0.21306394306E+02 -0.85931847360E+01 -0.89602627044E+03  0.10990043294E+04  0.63593996058E+03 0.  0.
         13    1    3    3    0    0  0.69547707571E+02 -0.26388174349E+03 -0.75625808442E+03  0.80398802754E+03  0.00000000000E+00 0.  1.
          1    1    3    3  501    0 -0.48241313266E+02  0.25528855876E+03 -0.13976818602E+03  0.29501630186E+03  0.00000000000E+00 0.  1.
         21    1    1    2  502  501 -0.21306394306E+02  0.85931847360E+01  0.50620830196E+02  0.55590230364E+02  0.00000000000E+00 0.  1.
<mgrwt>
<rscale>  1 0.63635481E+03</rscale>
<asrwt>0</asrwt>
<pdfrwt beam="1">  1        1 0.56216322E+00 0.63635481E+03</pdfrwt>
<pdfrwt beam="2">0</pdfrwt>
<totfact> 0.22761361E-01</totfact>
</mgrwt>
</event>
<event>
 6    1  0.4248415E-003  0.6342317E+03  0.7818608E-02  0.9836826E-01
          1   -1    0    0  502    0  0.00000000000E+00  0.00000000000E+00  0.10056257521E+03  0.10056257521E+03  0.00000000000E+00 0.  1.
         13   -1    0    0    0    0 -0.00000000000E+00 -0.00000000000E+00 -0.10000000000E+04  0.10000000000E+04  0.00000000000E+00 0.  1.
    9000005    2    1    2  501    0 -0.42014213534E-04 -0.12974324605E-04 -0.89943753483E+03  0.11005624567E+04  0.63423169430E+03 0.  0.
         13    1    3    3    0    0  0.16052819873E+03  0.11237624886E+03 -0.88237080613E+03  0.90386722665E+03  0.00000000000E+00 0.  1.
          1    1    3    3  501    0 -0.16052824074E+03 -0.11237626183E+03 -0.17066728699E+02  0.19669523006E+03  0.00000000000E+00 0.  1.
         21    1    1    2  502  501  0.42014213527E-04  0.12974324601E-04  0.11004645344E-03  0.11850632536E-03  0.00000000000E+00 0. -1.
<mgrwt>
<rscale>  1 0.63423169E+03</rscale>
<asrwt>0</asrwt>
<pdfrwt beam="1">  1        1 0.36568286E+00 0.63423169E+03</pdfrwt>
<pdfrwt beam="2">0</pdfrwt>
<totfact> 0.19024564E+00</totfact>
</mgrwt>
</event>
<event>
 6    1  0.4248415E-003  0.6500357E+03  0.7818608E-02  0.9806712E-01
          1   -1    0    0  502    0  0.00000000000E+00  0.00000000000E+00  0.12256849868E+03  0.12256849868E+03  0.00000000000E+00 0.  1.
         13   -1    0    0    0    0 -0.00000000000E+00 -0.00000000000E+00 -0.10000000000E+04  0.10000000000E+04  0.00000000000E+00 0.  1.
    9000005    2    1    2  501    0 -0.32008987519E+01 -0.45463636129E+01 -0.89385725442E+03  0.11052272029E+04  0.65001189491E+03 0.  0.
         13    1    3    3    0    0  0.59712756740E+02  0.29396183621E+02 -0.98620255915E+03  0.98844586933E+03  0.00000000000E+00 0.  1.
          1    1    3    3  501    0 -0.62913655492E+02 -0.33942547234E+02  0.92345304726E+02  0.11678133355E+03  0.00000000000E+00 0.  1.
         21    1    1    2  502  501  0.32008987519E+01  0.45463636129E+01  0.16425753100E+02  0.17341295794E+02  0.00000000000E+00 0.  1.
<mgrwt>
<rscale>  1 0.65003567E+03</rscale>
<asrwt>0</asrwt>
<pdfrwt beam="1">  1        1 0.44570457E+00 0.65003567E+03</pdfrwt>
<pdfrwt beam="2">0</pdfrwt>
<totfact> 0.83143169E-01</totfact>
</mgrwt>
</event>
<event>
 6    1  0.4248415E-003  0.6530652E+03  0.7818608E-02  0.9801044E-01
          1   -1    0    0  502    0  0.00000000000E+00  0.00000000000E+00  0.10686895420E+03  0.10686895420E+03  0.00000000000E+00 0.  1.
         13   -1    0    0    0    0 -0.00000000000E+00 -0.00000000000E+00 -0.10000000000E+04  0.10000000000E+04  0.00000000000E+00 0.  1.
    9000005    2    1    2  501    0 -0.56405986788E+00  0.42696910498E+00 -0.89167788168E+03  0.11052527388E+04  0.65306482953E+03 0.  0.
         13    1    3    3    0    0  0.17576374184E+03  0.21565006836E+03 -0.15653383673E+03  0.31921887002E+03  0.00000000000E+00 0.  1.
          3    1    3    3  501    0 -0.17632780171E+03 -0.21522309926E+03 -0.73514404495E+03  0.78603386883E+03  0.00000000000E+00 0.  1.
         21    1    1    2  502  501  0.56405986788E+00 -0.42696910498E+00 -0.14531641154E+01  0.16162153624E+01  0.00000000000E+00 0. -1.
<mgrwt>
<rscale>  1 0.65306521E+03</rscale>
<asrwt>0</asrwt>
<pdfrwt beam="1">  1        1 0.38861520E+00 0.65306521E+03</pdfrwt>
<pdfrwt beam="2">0</pdfrwt>
<totfact> 0.15023130E+00</totfact>
</mgrwt>
</event>
<event>
 6    1  0.4248416E-003  0.7492513E+03  0.7818608E-02  0.9636526E-01
          1   -1    0    0  502    0  0.00000000000E+00  0.00000000000E+00  0.14034460244E+03  0.14034460244E+03  0.00000000000E+00 0.  1.
         13   -1    0    0    0    0 -0.00000000000E+00 -0.00000000000E+00 -0.10000000000E+04  0.10000000000E+04  0.00000000000E+00 0.  1.
    9000005    2    1    2  501    0 -0.59154254124E-04 -0.13295665070E-03 -0.85965559007E+03  0.11403443611E+04  0.74925131191E+03 0.  0.
         13    1    3    3    0    0 -0.41902972230E+02 -0.34970832517E+03 -0.62409731317E+03  0.71662349116E+03  0.00000000000E+00 0.  1.
          3    1    3    3  501    0  0.41902913076E+02  0.34970819221E+03 -0.23555827690E+03  0.42372086996E+03  0.00000000000E+00 0.  1.
         21    1    1    2  502  501  0.59154254121E-04  0.13295665076E-03  0.19250778030E-03  0.24132124282E-03  0.00000000000E+00 0. -1.
<mgrwt>
<rscale>  1 0.74925131E+03</rscale>
<asrwt>0</asrwt>
<pdfrwt beam="1">  1        1 0.51034509E+00 0.74925131E+03</pdfrwt>
<pdfrwt beam="2">0</pdfrwt>
<totfact> 0.40340755E-01</totfact>
</mgrwt>
</event>
<event>
 6    1  0.4248415E-003  0.6555362E+03  0.7818608E-02  0.9796446E-01
          1   -1    0    0  502    0  0.00000000000E+00  0.00000000000E+00  0.10779466453E+03  0.10779466453E+03  0.00000000000E+00 0.  1.
         13   -1    0    0    0    0 -0.00000000000E+00 -0.00000000000E+00 -0.10000000000E+04  0.10000000000E+04  0.00000000000E+00 0.  1.
    9000005    2    1    2  501    0 -0.83550808306E-01 -0.62134717130E-01 -0.89255979099E+03  0.11074252323E+04  0.65553615751E+03 0.  0.
         13    1    3    3    0    0 -0.17733223706E+03 -0.27370574603E+03 -0.50243058835E+03  0.59899754074E+03  0.00000000000E+00 0.  1.
          3    1    3    3  501    0  0.17724868625E+03  0.27364361131E+03 -0.39012920264E+03  0.50842769155E+03  0.00000000000E+00 0.  1.
         21    1    1    2  502  501  0.83550808306E-01  0.62134717130E-01  0.35445552198E+00  0.36943223696E+00  0.00000000000E+00 0. -1.
<mgrwt>
<rscale>  1 0.65553617E+03</rscale>
<asrwt>0</asrwt>
<pdfrwt beam="1">  1        1 0.39198142E+00 0.65553617E+03</pdfrwt>
<pdfrwt beam="2">0</pdfrwt>
<totfact> 0.14508774E+00</totfact>
</mgrwt>
</event>
<event>
 6    1  0.4248415E-003  0.6610510E+03  0.7818608E-02  0.9786261E-01
          1   -1    0    0  502    0  0.00000000000E+00  0.00000000000E+00  0.11229192685E+03  0.11229192685E+03  0.00000000000E+00 0.  1.
         13   -1    0    0    0    0 -0.00000000000E+00 -0.00000000000E+00 -0.10000000000E+04  0.10000000000E+04  0.00000000000E+00 0.  1.
    9000005    2    1    2  501    0 -0.93078746496E+00  0.19354356502E+01 -0.89032693326E+03  0.11089050840E+04  0.66104752088E+03 0.  0.
         13    1    3    3    0    0 -0.24080258816E+03  0.45584143700E+02 -0.81898848984E+03  0.85487188930E+03  0.00000000000E+00 0.  1.
          1    1    3    3  501    0  0.23987180069E+03 -0.43648708050E+02 -0.71338443425E+02  0.25403319466E+03  0.00000000000E+00 0.  1.
         21    1    1    2  502  501  0.93078746496E+00 -0.19354356502E+01  0.26188601179E+01  0.33868428924E+01  0.00000000000E+00 0. -1.
<mgrwt>
<rscale>  1 0.66105101E+03</rscale>
<asrwt>0</asrwt>
<pdfrwt beam="1">  1        1 0.40833514E+00 0.66105101E+03</pdfrwt>
<pdfrwt beam="2">0</pdfrwt>
<totfact> 0.12253366E+00</totfact>
</mgrwt>
</event>
<event>
 6    1  0.4248415E-003  0.6481581E+03  0.7818608E-02  0.9810242E-01
          1   -1    0    0  502    0  0.00000000000E+00  0.00000000000E+00  0.11219292474E+03  0.11219292474E+03  0.00000000000E+00 0.  1.
         13   -1    0    0    0    0 -0.00000000000E+00 -0.00000000000E+00 -0.10000000000E+04  0.10000000000E+04  0.00000000000E+00 0.  1.
    9000005    2    1    2  501    0 -0.19395467832E-01  0.19176014817E+00 -0.89497134729E+03  0.11050260606E+04  0.64815804011E+03 0.  0.
         13    1    3    3    0    0  0.17866194319E+03  0.44652378802E+02 -0.90215204554E+03  0.92075634027E+03  0.00000000000E+00 0.  1.
          1    1    3    3  501    0 -0.17868133866E+03 -0.44460618654E+02  0.71806982509E+01  0.18426972031E+03  0.00000000000E+00 0.  1.
         21    1    1    2  502  501  0.19395467832E-01 -0.19176014817E+00  0.71642720272E+01  0.71668641551E+01  0.00000000000E+00 0. -1.
<mgrwt>
<rscale>  1 0.64815807E+03</rscale>
<asrwt>0</asrwt>
<pdfrwt beam="1">  1        1 0.40797513E+00 0.64815807E+03</pdfrwt>
<pdfrwt beam="2">0</pdfrwt>
<totfact> 0.12329445E+00</totfact>
</mgrwt>
</event>
<event>
 6    1  0.4248415E-003  0.6543595E+03  0.7818608E-02  0.9798633E-01
          1   -1    0    0  502    0  0.00000000000E+00  0.00000000000E+00  0.10717452383E+03  0.10717452383E+03  0.00000000000E+00 0.  1.
         13   -1    0    0    0    0 -0.00000000000E+00 -0.00000000000E+00 -0.10000000000E+04  0.10000000000E+04  0.00000000000E+00 0.  1.
    9000005    2    1    2  501    0 -0.25266856541E+00 -0.19350344587E+00 -0.89267615147E+03  0.11068229803E+04  0.65435945553E+03 0.  0.
         13    1    3    3    0    0 -0.30557317365E+03 -0.82489770086E+02 -0.30541726638E+03  0.43984000867E+03  0.00000000000E+00 0.  1.
          3    1    3    3  501    0  0.30532050509E+03  0.82296266640E+02 -0.58725888509E+03  0.66698297164E+03  0.00000000000E+00 0.  1.
         21    1    1    2  502  501  0.25266856541E+00  0.19350344587E+00 -0.14932469392E+00  0.35154352750E+00  0.00000000000E+00 0. -1.
<mgrwt>
<rscale>  1 0.65435953E+03</rscale>
<asrwt>0</asrwt>
<pdfrwt beam="1">  1        1 0.38972636E+00 0.65435953E+03</pdfrwt>
<pdfrwt beam="2">0</pdfrwt>
<totfact> 0.14850144E+00</totfact>
</mgrwt>
</event>
<event>
 6    1  0.4248415E-003  0.6489208E+03  0.7818608E-02  0.9808806E-01
          1   -1    0    0  502    0  0.00000000000E+00  0.00000000000E+00  0.11104877875E+03  0.11104877875E+03  0.00000000000E+00 0.  1.
         13   -1    0    0    0    0 -0.00000000000E+00 -0.00000000000E+00 -0.10000000000E+04  0.10000000000E+04  0.00000000000E+00 0.  1.
    9000005    2    1    2  501    0 -0.55233758763E+00  0.64075710923E-02 -0.89471084536E+03  0.11052627276E+04  0.64892056151E+03 0.  0.
         13    1    3    3    0    0 -0.53187749705E+02  0.30982874026E+03 -0.58456077210E+03  0.66372741490E+03  0.00000000000E+00 0.  1.
          3    1    3    3  501    0  0.52635412117E+02 -0.30982233268E+03 -0.31015007325E+03  0.44153531272E+03  0.00000000000E+00 0.  1.
         21    1    1    2  502  501  0.55233758763E+00 -0.64075710923E-02  0.57596241091E+01  0.57860511358E+01  0.00000000000E+00 0.  1.
<mgrwt>
<rscale>  1 0.64892080E+03</rscale>
<asrwt>0</asrwt>
<pdfrwt beam="1">  1        1 0.40381459E+00 0.64892080E+03</pdfrwt>
<pdfrwt beam="2">0</pdfrwt>
<totfact> 0.12867208E+00</totfact>
</mgrwt>
</event>
<event>
 6    1  0.4248415E-003  0.6476820E+03  0.7818608E-02  0.9811139E-01
          1   -1    0    0  502    0  0.00000000000E+00  0.00000000000E+00  0.11950780058E+03  0.11950780058E+03  0.00000000000E+00 0.  1.
         13   -1    0    0    0    0 -0.00000000000E+00 -0.00000000000E+00 -0.10000000000E+04  0.10000000000E+04  0.00000000000E+00 0.  1.
    9000005    2    1    2  501    0  0.44264306395E+00 -0.99153389722E+01 -0.89324441955E+03  0.11033483143E+04  0.64760589841E+03 0.  0.
         13    1    3    3    0    0  0.22130230509E+03 -0.19313606018E+03 -0.20648076449E+03  0.35904115932E+03  0.00000000000E+00 0.  1.
          3    1    3    3  501    0 -0.22085966203E+03  0.18322072121E+03 -0.68676365506E+03  0.74430715494E+03  0.00000000000E+00 0.  1.
         21    1    1    2  502  501 -0.44264306395E+00  0.99153389722E+01  0.12752220131E+02  0.16159486318E+02  0.00000000000E+00 0.  1.
<mgrwt>
<rscale>  1 0.64768195E+03</rscale>
<asrwt>0</asrwt>
<pdfrwt beam="1">  1        1 0.43457474E+00 0.64768195E+03</pdfrwt>
<pdfrwt beam="2">0</pdfrwt>
<totfact> 0.93522546E-01</totfact>
</mgrwt>
</event>
<event>
 6    1  0.4248415E-003  0.6484728E+03  0.7818608E-02  0.9809649E-01
          1   -1    0    0  502    0  0.00000000000E+00  0.00000000000E+00  0.10517842109E+03  0.10517842109E+03  0.00000000000E+00 0.  1.
         13   -1    0    0    0    0 -0.00000000000E+00 -0.00000000000E+00 -0.10000000000E+04  0.10000000000E+04  0.00000000000E+00 0.  1.
    9000005    2    1    2  501    0  0.25302767332E-02  0.47562951972E-02 -0.89487059868E+03  0.11051291062E+04  0.64847278499E+03 0.  0.
         13    1    3    3    0    0 -0.29562187035E+03  0.83078536108E+02 -0.27004552567E+03  0.40892409971E+03  0.00000000000E+00 0.  1.
          1    1    3    3  501    0  0.29562440063E+03 -0.83073779812E+02 -0.62482507301E+03  0.69620500645E+03  0.00000000000E+00 0.  1.
         21    1    1    2  502  501 -0.25302767332E-02 -0.47562951972E-02  0.49019774805E-01  0.49314936543E-01  0.00000000000E+00 0. -1.
<mgrwt>
<rscale>  1 0.64847279E+03</rscale>
<asrwt>0</asrwt>
<pdfrwt beam="1">  1        1 0.38246779E+00 0.64847279E+03</pdfrwt>
<pdfrwt beam="2">0</pdfrwt>
<totfact> 0.16007662E+00</totfact>
</mgrwt>
</event>
<event>
 6    1  0.4248415E-003  0.6498737E+03  0.7818608E-02  0.9807016E-01
          1   -1    0    0  502    0  0.00000000000E+00  0.00000000000E+00  0.10562628651E+03  0.10562628651E+03  0.00000000000E+00 0.  1.
         13   -1    0    0    0    0 -0.00000000000E+00 -0.00000000000E+00 -0.10000000000E+04  0.10000000000E+04  0.00000000000E+00 0.  1.
    9000005    2    1    2  501    0 -0.17658819542E-02 -0.13884186888E-02 -0.89441599994E+03  0.11055839404E+04  0.64987373266E+03 0.  0.
         13    1    3    3    0    0 -0.55143553945E+02 -0.86504178499E+02  0.77312148829E+02  0.12845603449E+03  0.00000000000E+00 0.  1.
          1    1    3    3  501    0  0.55141788063E+02  0.86502790080E+02 -0.97172814877E+03  0.97712790595E+03  0.00000000000E+00 0.  1.
         21    1    1    2  502  501  0.17658819542E-02  0.13884186888E-02  0.42286449322E-01  0.42346072331E-01  0.00000000000E+00 0.  1.
<mgrwt>
<rscale>  1 0.64987373E+03</rscale>
<asrwt>0</asrwt>
<pdfrwt beam="1">  1        1 0.38409640E+00 0.64987373E+03</pdfrwt>
<pdfrwt beam="2">0</pdfrwt>
<totfact> 0.15740491E+00</totfact>
</mgrwt>
</event>
<event>
 6    1  0.4248415E-003  0.6412431E+03  0.7818608E-02  0.9823351E-01
          1   -1    0    0  502    0  0.00000000000E+00  0.00000000000E+00  0.10280466605E+03  0.10280466605E+03  0.00000000000E+00 0.  1.
         13   -1    0    0    0    0 -0.00000000000E+00 -0.00000000000E+00 -0.10000000000E+04  0.10000000000E+04  0.00000000000E+00 0.  1.
    9000005    2    1    2  501    0 -0.51575530764E-02  0.18386032160E-01 -0.89717863047E+03  0.11027792957E+04  0.64124307385E+03 0.  0.
         13    1    3    3    0    0  0.24268228291E+03  0.93495804103E+02 -0.12610818949E+03  0.28903188627E+03  0.00000000000E+00 0.  1.
          1    1    3    3  501    0 -0.24268744046E+03 -0.93477418071E+02 -0.77107044098E+03  0.81374740946E+03  0.00000000000E+00 0.  1.
         21    1    1    2  502  501  0.51575530764E-02 -0.18386032160E-01 -0.16703482940E-01  0.25370314831E-01  0.00000000000E+00 0. -1.
<mgrwt>
<rscale>  1 0.64124307E+03</rscale>
<asrwt>0</asrwt>
<pdfrwt beam="1">  1        1 0.37383594E+00 0.64124307E+03</pdfrwt>
<pdfrwt beam="2">0</pdfrwt>
<totfact> 0.17496716E+00</totfact>
</mgrwt>
</event>
<event>
 6    1  0.4248415E-003  0.6502830E+03  0.7818608E-02  0.9806248E-01
          1   -1    0    0  502    0  0.00000000000E+00  0.00000000000E+00  0.10706181977E+03  0.10706181977E+03  0.00000000000E+00 0.  1.
         13   -1    0    0    0    0 -0.00000000000E+00 -0.00000000000E+00 -0.10000000000E+04  0.10000000000E+04  0.00000000000E+00 0.  1.
    9000005    2    1    2  501    0 -0.27375460018E-01  0.15018725002E+00 -0.89427821998E+03  0.11057131122E+04  0.65028296028E+03 0.  0.
         13    1    3    3    0    0 -0.18893853302E+03  0.12087532856E+03 -0.84751933245E+03  0.87669700193E+03  0.00000000000E+00 0.  1.
          1    1    3    3  501    0  0.18891115756E+03 -0.12072514131E+03 -0.46758887527E+02  0.22901611026E+03  0.00000000000E+00 0.  1.
         21    1    1    2  502  501  0.27375460018E-01 -0.15018725002E+00  0.13400397437E+01  0.13487075815E+01  0.00000000000E+00 0.  1.
<mgrwt>
<rscale>  1 0.65028298E+03</rscale>
<asrwt>0</asrwt>
<pdfrwt beam="1">  1        1 0.38931653E+00 0.65028298E+03</pdfrwt>
<pdfrwt beam="2">0</pdfrwt>
<totfact> 0.14923704E+00</totfact>
</mgrwt>
</event>
<event>
 6    1  0.4248415E-003  0.6583355E+03  0.7818608E-02  0.9791263E-01
          1   -1    0    0  502    0  0.00000000000E+00  0.00000000000E+00  0.10835818239E+03  0.10835818239E+03  0.00000000000E+00 0.  1.
         13   -1    0    0    0    0 -0.00000000000E+00 -0.00000000000E+00 -0.10000000000E+04  0.10000000000E+04  0.00000000000E+00 0.  1.
    9000005    2    1    2  501    0 -0.26286662727E-02  0.13400362210E-01 -0.89163989664E+03  0.11083443922E+04  0.65833546633E+03 0.  0.
         13    1    3    3    0    0  0.25379151789E+02  0.32167919646E+03 -0.33628063450E+03  0.46605393670E+03  0.00000000000E+00 0.  1.
          3    1    3    3  501    0 -0.25381780456E+02 -0.32166579610E+03 -0.55535926214E+03  0.64229045548E+03  0.00000000000E+00 0.  1.
         21    1    1    2  502  501  0.26286662727E-02 -0.13400362210E-01 -0.19209718196E-02  0.13790204004E-01  0.00000000000E+00 0.  1.
<mgrwt>
<rscale>  1 0.65833547E+03</rscale>
<asrwt>0</asrwt>
<pdfrwt beam="1">  1        1 0.39403059E+00 0.65833547E+03</pdfrwt>
<pdfrwt beam="2">0</pdfrwt>
<totfact> 0.14200461E+00</totfact>
</mgrwt>
</event>
<event>
 6    1  0.4248415E-003  0.6529991E+03  0.7818608E-02  0.9801168E-01
          3   -1    0    0  502    0  0.00000000000E+00  0.00000000000E+00  0.10660198119E+03  0.10660198119E+03  0.00000000000E+00 0.  1.
         13   -1    0    0    0    0 -0.00000000000E+00 -0.00000000000E+00 -0.10000000000E+04  0.10000000000E+04  0.00000000000E+00 0.  1.
    9000005    2    1    2  501    0  0.82399357950E-04  0.68965326250E-06 -0.89339777254E+03  0.11066017215E+04  0.65299907355E+03 0.  0.
         13    1    3    3    0    0 -0.27925947542E+03  0.14809936862E+03 -0.30816590275E+03  0.44145837993E+03  0.00000000000E+00 0.  1.
          1    1    3    3  501    0  0.27925955782E+03 -0.14809936793E+03 -0.58523186979E+03  0.66514334157E+03  0.00000000000E+00 0.  1.
         21    1    1    2  502  501 -0.82399357987E-04 -0.68965325782E-06 -0.24627031844E-03  0.25969058428E-03  0.00000000000E+00 0.  1.
<mgrwt>
<rscale>  1 0.65299907E+03</rscale>
<asrwt>0</asrwt>
<pdfrwt beam="1">  1        3 0.38764439E+00 0.65299907E+03</pdfrwt>
<pdfrwt beam="2">0</pdfrwt>
<totfact> 0.68752604E-02</totfact>
</mgrwt>
</event>
<event>
 6    1  0.4248415E-003  0.6496345E+03  0.7818608E-02  0.9807465E-01
          1   -1    0    0  502    0  0.00000000000E+00  0.00000000000E+00  0.11644107769E+03  0.11644107769E+03  0.00000000000E+00 0.  1.
         13   -1    0    0    0    0 -0.00000000000E+00 -0.00000000000E+00 -0.10000000000E+04  0.10000000000E+04  0.00000000000E+00 0.  1.
    9000005    2    1    2  501    0 -0.40323136876E+00  0.10885686098E+00 -0.89448935199E+03  0.11055026711E+04  0.64963434375E+03 0.  0.
         13    1    3    3    0    0  0.94973981770E+02 -0.24851154987E+03 -0.76393309199E+03  0.80893251676E+03  0.00000000000E+00 0.  1.
          3    1    3    3  501    0 -0.95377213138E+02  0.24862040673E+03 -0.13055626000E+03  0.29657015436E+03  0.00000000000E+00 0.  1.
         21    1    1    2  502  501  0.40323136876E+00 -0.10885686098E+00  0.10930429677E+02  0.10938406569E+02  0.00000000000E+00 0.  1.
<mgrwt>
<rscale>  1 0.64963448E+03</rscale>
<asrwt>0</asrwt>
<pdfrwt beam="1">  1        1 0.42342299E+00 0.64963448E+03</pdfrwt>
<pdfrwt beam="2">0</pdfrwt>
<totfact> 0.10503486E+00</totfact>
</mgrwt>
</event>
<event>
 6    1  0.4248415E-003  0.6465147E+03  0.7818608E-02  0.9813341E-01
          1   -1    0    0  502    0  0.00000000000E+00  0.00000000000E+00  0.10449757331E+03  0.10449757331E+03  0.00000000000E+00 0.  1.
         13   -1    0    0    0    0 -0.00000000000E+00 -0.00000000000E+00 -0.10000000000E+04  0.10000000000E+04  0.00000000000E+00 0.  1.
    9000005    2    1    2  501    0 -0.97940882483E-04  0.47080289079E-04 -0.89550467991E+03  0.11044953175E+04  0.64651471335E+03 0.  0.
         13    1    3    3    0    0  0.20949929890E+03 -0.23975400580E+03 -0.35227596635E+03  0.47483712576E+03  0.00000000000E+00 0.  1.
          1    1    3    3  501    0 -0.20949939684E+03  0.23975405288E+03 -0.54322871356E+03  0.62965819171E+03  0.00000000000E+00 0.  1.
         21    1    1    2  502  501  0.97940882474E-04 -0.47080289077E-04  0.22532203985E-02  0.22558393414E-02  0.00000000000E+00 0. -1.
<mgrwt>
<rscale>  1 0.64651471E+03</rscale>
<asrwt>0</asrwt>
<pdfrwt beam="1">  1        1 0.37999198E+00 0.64651471E+03</pdfrwt>
<pdfrwt beam="2">0</pdfrwt>
<totfact> 0.16421578E+00</totfact>
</mgrwt>
</event>
<event>
 6    1  0.4248415E-003  0.6479932E+03  0.7818608E-02  0.9810552E-01
          1   -1    0    0  502    0  0.00000000000E+00  0.00000000000E+00  0.10600713702E+03  0.10600713702E+03  0.00000000000E+00 0.  1.
         13   -1    0    0    0    0 -0.00000000000E+00 -0.00000000000E+00 -0.10000000000E+04  0.10000000000E+04  0.00000000000E+00 0.  1.
    9000005    2    1    2  501    0 -0.51171099394E-01  0.82099060921E-02 -0.89502547154E+03  0.11049732287E+04  0.64799323983E+03 0.  0.
         13    1    3    3    0    0 -0.26660517537E+03 -0.45273262648E+01 -0.76145385351E+03  0.80679042337E+03  0.00000000000E+00 0.  1.
          1    1    3    3  501    0  0.26655400427E+03  0.45355361709E+01 -0.13357161803E+03  0.29818280538E+03  0.00000000000E+00 0.  1.
         21    1    1    2  502  501  0.51171099394E-01 -0.82099060921E-02  0.10326085586E+01  0.10339082741E+01  0.00000000000E+00 0. -1.
<mgrwt>
<rscale>  1 0.64799324E+03</rscale>
<asrwt>0</asrwt>
<pdfrwt beam="1">  1        1 0.38548131E+00 0.64799324E+03</pdfrwt>
<pdfrwt beam="2">0</pdfrwt>
<totfact> 0.15525460E+00</totfact>
</mgrwt>
</event>
<event>
 6    1  0.4248415E-003  0.6475460E+03  0.7818608E-02  0.9811395E-01
          1   -1    0    0  502    0  0.00000000000E+00  0.00000000000E+00  0.10483548027E+03  0.10483548027E+03  0.00000000000E+00 0.  1.
         13   -1    0    0    0    0 -0.00000000000E+00 -0.00000000000E+00 -0.10000000000E+04  0.10000000000E+04  0.00000000000E+00 0.  1.
    9000005    2    1    2  501    0 -0.86602582636E-02  0.46055287092E-02 -0.89516670890E+03  0.11048254302E+04  0.64754597864E+03 0.  0.
         13    1    3    3    0    0  0.70897095477E+02 -0.31515332594E+03 -0.48491514617E+03  0.58265831838E+03  0.00000000000E+00 0.  1.
          3    1    3    3  501    0 -0.70905755736E+02  0.31515793147E+03 -0.41025156273E+03  0.52216711184E+03  0.00000000000E+00 0.  1.
         21    1    1    2  502  501  0.86602582636E-02 -0.46055287092E-02  0.21891673522E-02  0.10050045850E-01  0.00000000000E+00 0. -1.
<mgrwt>
<rscale>  1 0.64754598E+03</rscale>
<asrwt>0</asrwt>
<pdfrwt beam="1">  1        1 0.38122073E+00 0.64754598E+03</pdfrwt>
<pdfrwt beam="2">0</pdfrwt>
<totfact> 0.16214716E+00</totfact>
</mgrwt>
</event>
<event>
 6    1  0.4248415E-003  0.6416694E+03  0.7818608E-02  0.9822538E-01
          1   -1    0    0  502    0  0.00000000000E+00  0.00000000000E+00  0.10293619336E+03  0.10293619336E+03  0.00000000000E+00 0.  1.
         13   -1    0    0    0    0 -0.00000000000E+00 -0.00000000000E+00 -0.10000000000E+04  0.10000000000E+04  0.00000000000E+00 0.  1.
    9000005    2    1    2  501    0 -0.59864289571E-03  0.22560255913E-03 -0.89706502354E+03  0.11029348185E+04  0.64166935216E+03 0.  0.
         13    1    3    3    0    0  0.25291021633E+03  0.10367204942E+03 -0.73729578109E+03  0.78633106270E+03  0.00000000000E+00 0.  1.
          3    1    3    3  501    0 -0.25291081497E+03 -0.10367182381E+03 -0.15976924245E+03  0.31660375584E+03  0.00000000000E+00 0.  1.
         21    1    1    2  502  501  0.59864289573E-03 -0.22560255913E-03  0.12169006867E-02  0.13748153012E-02  0.00000000000E+00 0. -1.
<mgrwt>
<rscale>  1 0.64166935E+03</rscale>
<asrwt>0</asrwt>
<pdfrwt beam="1">  1        1 0.37431422E+00 0.64166935E+03</pdfrwt>
<pdfrwt beam="2">0</pdfrwt>
<totfact> 0.17410782E+00</totfact>
</mgrwt>
</event>
<event>
 6    1  0.4248415E-003  0.6450461E+03  0.7818608E-02  0.9816120E-01
          1   -1    0    0  502    0  0.00000000000E+00  0.00000000000E+00  0.13085746063E+03  0.13085746063E+03  0.00000000000E+00 0.  1.
         13   -1    0    0    0    0 -0.00000000000E+00 -0.00000000000E+00 -0.10000000000E+04  0.10000000000E+04  0.00000000000E+00 0.  1.
    9000005    2    1    2  501    0 -0.53532240245E-01 -0.49809447476E+00 -0.89597631288E+03  0.11040190113E+04  0.64504586893E+03 0.  0.
         13    1    3    3    0    0 -0.86984443041E+02 -0.26018057342E+03 -0.73921303553E+03  0.78847709923E+03  0.00000000000E+00 0.  1.
          1    1    3    3  501    0  0.86930910801E+02  0.25968247894E+03 -0.15676327735E+03  0.31554191203E+03  0.00000000000E+00 0.  1.
         21    1    1    2  502  501  0.53532240245E-01  0.49809447476E+00  0.26833773513E+02  0.26838449373E+02  0.00000000000E+00 0.  1.
<mgrwt>
<rscale>  1 0.64504606E+03</rscale>
<asrwt>0</asrwt>
<pdfrwt beam="1">  1        1 0.47584631E+00 0.64504606E+03</pdfrwt>
<pdfrwt beam="2">0</pdfrwt>
<totfact> 0.60297695E-01</totfact>
</mgrwt>
</event>
<event>
 6    1  0.4248415E-003  0.6126028E+03  0.7818608E-02  0.9879599E-01
          1   -1    0    0  502    0  0.00000000000E+00  0.00000000000E+00  0.10123372593E+03  0.10123372593E+03  0.00000000000E+00 0.  1.
         13   -1    0    0    0    0 -0.00000000000E+00 -0.00000000000E+00 -0.10000000000E+04  0.10000000000E+04  0.00000000000E+00 0.  1.
    9000005    2    1    2  501    0 -0.15922176458E+00 -0.18122893445E+00 -0.90617730121E+03  0.10938187736E+04  0.61260276684E+03 0.  0.
         13    1    3    3    0    0  0.26347926595E+03 -0.88010704564E+02 -0.22278755702E+03  0.35609198709E+03  0.00000000000E+00 0.  1.
          3    1    3    3  501    0 -0.26363848772E+03  0.87829475629E+02 -0.68338974420E+03  0.73772678647E+03  0.00000000000E+00 0.  1.
         21    1    1    2  502  501  0.15922176458E+00  0.18122893445E+00  0.74110271389E+01  0.74149523768E+01  0.00000000000E+00 0.  1.
<mgrwt>
<rscale>  1 0.61260281E+03</rscale>
<asrwt>0</asrwt>
<pdfrwt beam="1">  1        1 0.36812342E+00 0.61260281E+03</pdfrwt>
<pdfrwt beam="2">0</pdfrwt>
<totfact> 0.18635892E+00</totfact>
</mgrwt>
</event>
<event>
 6    1  0.4248415E-003  0.6399809E+03  0.7818608E-02  0.9825763E-01
          1   -1    0    0  502    0  0.00000000000E+00  0.00000000000E+00  0.10239808267E+03  0.10239808267E+03  0.00000000000E+00 0.  1.
         13   -1    0    0    0    0 -0.00000000000E+00 -0.00000000000E+00 -0.10000000000E+04  0.10000000000E+04  0.00000000000E+00 0.  1.
    9000005    2    1    2  501    0  0.16774960251E-02  0.39940870207E-02 -0.89760483403E+03  0.11023928602E+04  0.63998092175E+03 0.  0.
         13    1    3    3    0    0  0.22367423994E+03 -0.77417934894E+02 -0.77874983395E+02  0.24917506957E+03  0.00000000000E+00 0.  1.
          1    1    3    3  501    0 -0.22367256245E+03  0.77421928981E+02 -0.81972985063E+03  0.85321779066E+03  0.00000000000E+00 0.  1.
         21    1    1    2  502  501 -0.16774960251E-02 -0.39940870207E-02  0.29166924924E-02  0.52224342158E-02  0.00000000000E+00 0. -1.
<mgrwt>
<rscale>  1 0.63998092E+03</rscale>
<asrwt>0</asrwt>
<pdfrwt beam="1">  1        1 0.37235745E+00 0.63998092E+03</pdfrwt>
<pdfrwt beam="2">0</pdfrwt>
<totfact> 0.17764746E+00</totfact>
</mgrwt>
</event>
<event>
 6    1  0.4248415E-003  0.6515807E+03  0.7818608E-02  0.9803818E-01
          1   -1    0    0  502    0  0.00000000000E+00  0.00000000000E+00  0.10651710126E+03  0.10651710126E+03  0.00000000000E+00 0.  1.
         13   -1    0    0    0    0 -0.00000000000E+00 -0.00000000000E+00 -0.10000000000E+04  0.10000000000E+04  0.00000000000E+00 0.  1.
    9000005    2    1    2  501    0 -0.94999706821E+00  0.34269755410E+00 -0.89285865732E+03  0.11053298298E+04  0.65157994971E+03 0.  0.
         13    1    3    3    0    0 -0.85571096839E+02 -0.17469055427E+03 -0.30678823311E+01  0.19454720319E+03  0.00000000000E+00 0.  1.
          1    1    3    3  501    0  0.84621099771E+02  0.17503325183E+03 -0.88979077499E+03  0.91078262666E+03  0.00000000000E+00 0.  1.
         21    1    1    2  502  501  0.94999706821E+00 -0.34269755410E+00 -0.62424142632E+00  0.11872714102E+01  0.00000000000E+00 0.  1.
<mgrwt>
<rscale>  1 0.65158073E+03</rscale>
<asrwt>0</asrwt>
<pdfrwt beam="1">  1        1 0.38733573E+00 0.65158073E+03</pdfrwt>
<pdfrwt beam="2">0</pdfrwt>
<totfact> 0.15224668E+00</totfact>
</mgrwt>
</event>
