<event>
 6    1  0.3289769E-002  0.6466101E+03  0.7818608E-02  0.9813161E-01
          1   -1    0    0  502    0  0.00000000000E+00  0.00000000000E+00  0.10452620082E+03  0.10452620082E+03  0.00000000000E+00 0.  1.
         13   -1    0    0    0    0 -0.00000000000E+00 -0.00000000000E+00 -0.10000000000E+04  0.10000000000E+04  0.00000000000E+00 0.  1.
    9000005    2    1    2  501    0  0.61437017962E-06  0.51017022002E-05 -0.89547383540E+03  0.11045261642E+04  0.64661012798E+03 0.  0.
         13    1    3    3    0    0 -0.22258664880E+03 -0.84294260927E+02 -0.73977931686E+02  0.24924500602E+03  0.00000000000E+00 0.  1.
          1    1    3    3  501    0  0.22258664942E+03  0.84294266029E+02 -0.82149590371E+03  0.85528115822E+03  0.00000000000E+00 0.  1.
         21    1    1    2  502  501 -0.61437017101E-06 -0.51017021968E-05  0.36217105651E-04  0.36579824463E-04  0.00000000000E+00 0. -1.
<mgrwt>
<rscale>  1 0.64661013E+03</rscale>
<asrwt>0</asrwt>
<pdfrwt beam="1">  1        1 0.38009608E+00 0.64661013E+03</pdfrwt>
<pdfrwt beam="2">0</pdfrwt>
<totfact> 0.16403931E+00</totfact>
</mgrwt>
</event>
<event>
 6    1  0.3289769E-002  0.6471834E+03  0.7818608E-02  0.9812079E-01
          1   -1    0    0  502    0  0.00000000000E+00  0.00000000000E+00  0.10473433266E+03  0.10473433266E+03  0.00000000000E+00 0.  1.
         13   -1    0    0    0    0 -0.00000000000E+00 -0.00000000000E+00 -0.10000000000E+04  0.10000000000E+04  0.00000000000E+00 0.  1.
    9000005    2    1    2  501    0  0.59595004779E-02  0.34240846197E-02 -0.89528783914E+03  0.11047111200E+04  0.64718339258E+03 0.  0.
         13    1    3    3    0    0 -0.18044635974E+02  0.31296326724E+03 -0.58463816779E+03  0.66338028518E+03  0.00000000000E+00 0.  1.
          3    1    3    3  501    0  0.18050595474E+02 -0.31295984316E+03 -0.31064967135E+03  0.44133083479E+03  0.00000000000E+00 0.  1.
         21    1    1    2  502  501 -0.59595004779E-02 -0.34240846197E-02  0.22171800353E-01  0.23212684729E-01  0.00000000000E+00 0. -1.
<mgrwt>
<rscale>  1 0.64718339E+03</rscale>
<asrwt>0</asrwt>
<pdfrwt beam="1">  1        1 0.38085292E+00 0.64718339E+03</pdfrwt>
<pdfrwt beam="2">0</pdfrwt>
<totfact> 0.16276536E+00</totfact>
</mgrwt>
</event>
<event>
 6    1  0.3289769E-002  0.6517668E+03  0.7818608E-02  0.9803470E-01
          1   -1    0    0  502    0  0.00000000000E+00  0.00000000000E+00  0.10620291255E+03  0.10620291255E+03  0.00000000000E+00 0.  1.
         13   -1    0    0    0    0 -0.00000000000E+00 -0.00000000000E+00 -0.10000000000E+04  0.10000000000E+04  0.00000000000E+00 0.  1.
    9000005    2    1    2  501    0 -0.91839741321E-03 -0.44815776533E-04 -0.89379992799E+03  0.11061999269E+04  0.65176680415E+03 0.  0.
         13    1    3    3    0    0 -0.49520189861E+02  0.19908931413E+03 -0.17157425291E+02  0.20587175971E+03  0.00000000000E+00 0.  1.
          1    1    3    3  501    0  0.49519271463E+02 -0.19908935895E+03 -0.87664250270E+03  0.90032816719E+03  0.00000000000E+00 0.  1.
         21    1    1    2  502  501  0.91839741321E-03  0.44815776548E-04  0.28405410632E-02  0.29856550026E-02  0.00000000000E+00 0. -1.
<mgrwt>
<rscale>  1 0.65176680E+03</rscale>
<asrwt>0</asrwt>
<pdfrwt beam="1">  1        1 0.38619322E+00 0.65176680E+03</pdfrwt>
<pdfrwt beam="2">0</pdfrwt>
<totfact> 0.15402492E+00</totfact>
</mgrwt>
</event>
<event>
 6    1  0.3289769E-002  0.6325002E+03  0.7818608E-02  0.9840182E-01
          1   -1    0    0  502    0  0.00000000000E+00  0.00000000000E+00  0.10001413188E+03  0.10001413188E+03  0.00000000000E+00 0.  1.
         13   -1    0    0    0    0 -0.00000000000E+00 -0.00000000000E+00 -0.10000000000E+04  0.10000000000E+04  0.00000000000E+00 0.  1.
    9000005    2    1    2  501    0 -0.10895446820E-05 -0.27028345073E-05 -0.89998586993E+03  0.11000141284E+04  0.63250021084E+03 0.  0.
         13    1    3    3    0    0  0.39825600513E+02  0.24206806269E+03 -0.10289761546E+03  0.26602809005E+03  0.00000000000E+00 0.  1.
          3    1    3    3  501    0 -0.39825601603E+02 -0.24206806539E+03 -0.79708825447E+03  0.83398603840E+03  0.00000000000E+00 0.  1.
         21    1    1    2  502  501  0.10895446854E-05  0.27028344935E-05  0.18090519887E-05  0.34300278451E-05  0.00000000000E+00 0.  1.
<mgrwt>
<rscale>  1 0.63250021E+03</rscale>
<asrwt>0</asrwt>
<pdfrwt beam="1">  1        1 0.36368852E+00 0.63250021E+03</pdfrwt>
<pdfrwt beam="2">0</pdfrwt>
<totfact> 0.19417344E+00</totfact>
</mgrwt>
</event>
<event>
 6    1  0.3289769E-002  0.6523032E+03  0.7818608E-02  0.9802467E-01
          1   -1    0    0  502    0  0.00000000000E+00  0.00000000000E+00  0.10683536686E+03  0.10683536686E+03  0.00000000000E+00 0.  1.
         13   -1    0    0    0    0 -0.00000000000E+00 -0.00000000000E+00 -0.10000000000E+04  0.10000000000E+04  0.00000000000E+00 0.  1.
    9000005    2    1    2  501    0  0.41616529683E-01 -0.32995849713E-01 -0.89362343370E+03  0.11063735026E+04  0.65230321409E+03 0.  0.
         13    1    3    3    0    0 -0.17895162270E+02 -0.31049215061E+03 -0.61352294945E+03  0.68784883653E+03  0.00000000000E+00 0.  1.
          3    1    3    3  501    0  0.17936778800E+02  0.31045915476E+03 -0.28010048426E+03  0.41852466604E+03  0.00000000000E+00 0.  1.
         21    1    1    2  502  501 -0.41616529683E-01  0.32995849713E-01  0.45880056245E+00  0.46186428498E+00  0.00000000000E+00 0.  1.
<mgrwt>
<rscale>  1 0.65230322E+03</rscale>
<asrwt>0</asrwt>
<pdfrwt beam="1">  1        1 0.38849306E+00 0.65230322E+03</pdfrwt>
<pdfrwt beam="2">0</pdfrwt>
<totfact> 0.15043988E+00</totfact>
</mgrwt>
</event>
<event>
 6    1  0.3289769E-002  0.6510065E+03  0.7818608E-02  0.9804892E-01
          1   -1    0    0  502    0  0.00000000000E+00  0.00000000000E+00  0.10649011146E+03  0.10649011146E+03  0.00000000000E+00 0.  1.
         13   -1    0    0    0    0 -0.00000000000E+00 -0.00000000000E+00 -0.10000000000E+04  0.10000000000E+04  0.00000000000E+00 0.  1.
    9000005    2    1    2  501    0 -0.38062846188E-01 -0.15208818188E-03 -0.89404690348E+03  0.11059517493E+04  0.65100645513E+03 0.  0.
         13    1    3    3    0    0 -0.30316296211E+03 -0.11300899994E+02 -0.24655374052E+03  0.39092740874E+03  0.00000000000E+00 0.  1.
          3    1    3    3  501    0  0.30312489927E+03  0.11300747906E+02 -0.64749316296E+03  0.71502434053E+03  0.00000000000E+00 0.  1.
         21    1    1    2  502  501  0.38062846188E-01  0.15208818188E-03  0.53701494545E+00  0.53836219688E+00  0.00000000000E+00 0.  1.
<mgrwt>
<rscale>  1 0.65100646E+03</rscale>
<asrwt>0</asrwt>
<pdfrwt beam="1">  1        1 0.38723759E+00 0.65100646E+03</pdfrwt>
<pdfrwt beam="2">0</pdfrwt>
<totfact> 0.15241533E+00</totfact>
</mgrwt>
</event>
<event>
 6    1  0.3289769E-002  0.6441654E+03  0.7818608E-02  0.9817789E-01
          1   -1    0    0  502    0  0.00000000000E+00  0.00000000000E+00  0.10374489146E+03  0.10374489146E+03  0.00000000000E+00 0.  1.
         13   -1    0    0    0    0 -0.00000000000E+00 -0.00000000000E+00 -0.10000000000E+04  0.10000000000E+04  0.00000000000E+00 0.  1.
    9000005    2    1    2  501    0  0.18106572643E-01  0.59736683651E-02 -0.89624623864E+03  0.11037238627E+04  0.64416538599E+03 0.  0.
         13    1    3    3    0    0  0.25887696640E+03  0.15412762742E+03 -0.64327122684E+03  0.71033124706E+03  0.00000000000E+00 0.  1.
          1    1    3    3  501    0 -0.25885885983E+03 -0.15412165375E+03 -0.25297501180E+03  0.39339261567E+03  0.00000000000E+00 0.  1.
         21    1    1    2  502  501 -0.18106572643E-01 -0.59736683651E-02 -0.88698981140E-02  0.21028736984E-01  0.00000000000E+00 0.  1.
<mgrwt>
<rscale>  1 0.64416539E+03</rscale>
<asrwt>0</asrwt>
<pdfrwt beam="1">  1        1 0.37725495E+00 0.64416539E+03</pdfrwt>
<pdfrwt beam="2">0</pdfrwt>
<totfact> 0.16891592E+00</totfact>
</mgrwt>
</event>
<event>
 6    1  0.3289769E-002  0.6552939E+03  0.7818608E-02  0.9796896E-01
          1   -1    0    0  502    0  0.00000000000E+00  0.00000000000E+00  0.10735300860E+03  0.10735300860E+03  0.00000000000E+00 0.  1.
         13   -1    0    0    0    0 -0.00000000000E+00 -0.00000000000E+00 -0.10000000000E+04  0.10000000000E+04  0.00000000000E+00 0.  1.
    9000005    2    1    2  501    0  0.82746304963E-03 -0.99119823250E-03 -0.89264629076E+03  0.11073515396E+04  0.65529385145E+03 0.  0.
         13    1    3    3    0    0 -0.24517863039E+03  0.10159843064E+03 -0.77100958030E+03  0.81540822587E+03  0.00000000000E+00 0.  1.
          1    1    3    3  501    0  0.24517945786E+03 -0.10159942184E+03 -0.12163671046E+03  0.29194331368E+03  0.00000000000E+00 0.  1.
         21    1    1    2  502  501 -0.82746304964E-03  0.99119823250E-03 -0.70064334932E-03  0.14690371464E-02  0.00000000000E+00 0.  1.
<mgrwt>
<rscale>  1 0.65529385E+03</rscale>
<asrwt>0</asrwt>
<pdfrwt beam="1">  1        1 0.39037540E+00 0.65529385E+03</pdfrwt>
<pdfrwt beam="2">0</pdfrwt>
<totfact> 0.14749490E+00</totfact>
</mgrwt>
</event>
<event>
 6    1  0.3289769E-002  0.6691923E+03  0.7818608E-02  0.9771418E-01
          1   -1    0    0  502    0  0.00000000000E+00  0.00000000000E+00  0.11195482814E+03  0.11195482814E+03  0.00000000000E+00 0.  1.
         13   -1    0    0    0    0 -0.00000000000E+00 -0.00000000000E+00 -0.10000000000E+04  0.10000000000E+04  0.00000000000E+00 0.  1.
    9000005    2    1    2  501    0  0.30425905763E-04 -0.13763596371E-04 -0.88804541796E+03  0.11119545798E+04  0.66919229162E+03 0.  0.
         13    1    3    3    0    0 -0.11683241158E+03 -0.29758390330E+03 -0.60808433483E+03  0.68700258381E+03  0.00000000000E+00 0.  1.
          3    1    3    3  501    0  0.11683244201E+03  0.29758388954E+03 -0.27996108313E+03  0.42495199598E+03  0.00000000000E+00 0.  1.
         21    1    1    2  502  501 -0.30425905772E-04  0.13763596393E-04  0.24609985801E-03  0.24835521424E-03  0.00000000000E+00 0.  1.
<mgrwt>
<rscale>  1 0.66919229E+03</rscale>
<asrwt>0</asrwt>
<pdfrwt beam="1">  1        1 0.40710932E+00 0.66919229E+03</pdfrwt>
<pdfrwt beam="2">0</pdfrwt>
<totfact> 0.12390147E+00</totfact>
</mgrwt>
</event>
<event>
 6    1  0.3289769E-002  0.5289577E+03  0.7818608E-02  0.1006485E+00
          1   -1    0    0  502    0  0.00000000000E+00  0.00000000000E+00  0.70340486736E+02  0.70340486736E+02  0.00000000000E+00 0.  1.
         13   -1    0    0    0    0 -0.00000000000E+00 -0.00000000000E+00 -0.10000000000E+04  0.10000000000E+04  0.00000000000E+00 0.  1.
    9000005    2    1    2  501    0  0.26400775616E+00 -0.42710150399E-02 -0.93000292270E+03  0.10699073027E+04  0.52895758857E+03 0.  0.
         13    1    3    3    0    0  0.17482404927E+03  0.31179326304E+02 -0.86182194137E+03  0.87992764317E+03  0.00000000000E+00 0.  1.
          1    1    3    3  501    0 -0.17456004151E+03 -0.31183597319E+02 -0.68180981331E+02  0.18997965957E+03  0.00000000000E+00 0.  1.
         21    1    1    2  502  501 -0.26400775616E+00  0.42710150399E-02  0.34340943447E+00  0.43318399851E+00  0.00000000000E+00 0.  1.
<mgrwt>
<rscale>  1 0.52895765E+03</rscale>
<asrwt>0</asrwt>
<pdfrwt beam="1">  1        1 0.25578413E+00 0.52895765E+03</pdfrwt>
<pdfrwt beam="2">0</pdfrwt>
<totfact> 0.58002277E+00</totfact>
</mgrwt>
</event>
<event>
 6    1  0.3289769E-002  0.6466845E+03  0.7818608E-02  0.9813020E-01
          1   -1    0    0  502    0  0.00000000000E+00  0.00000000000E+00  0.10469378723E+03  0.10469378723E+03  0.00000000000E+00 0.  1.
         13   -1    0    0    0    0 -0.00000000000E+00 -0.00000000000E+00 -0.10000000000E+04  0.10000000000E+04  0.00000000000E+00 0.  1.
    9000005    2    1    2  501    0 -0.90555495345E-02  0.11452814947E-01 -0.89544937057E+03  0.11045498868E+04  0.64668452666E+03 0.  0.
         13    1    3    3    0    0  0.31983201886E+03 -0.40632422467E+02 -0.40576330952E+03  0.51825416293E+03  0.00000000000E+00 0.  1.
          3    1    3    3  501    0 -0.31984107440E+03  0.40643875282E+02 -0.48968606105E+03  0.58629572390E+03  0.00000000000E+00 0.  1.
         21    1    1    2  502  501  0.90555495346E-02 -0.11452814947E-01  0.14315780508E+00  0.14390040689E+00  0.00000000000E+00 0. -1.
<mgrwt>
<rscale>  1 0.64668453E+03</rscale>
<asrwt>0</asrwt>
<pdfrwt beam="1">  1        1 0.38070548E+00 0.64668453E+03</pdfrwt>
<pdfrwt beam="2">0</pdfrwt>
<totfact> 0.16302441E+00</totfact>
</mgrwt>
</event>
<event>
 6    1  0.3289769E-002  0.6494595E+03  0.7818608E-02  0.9807794E-01
          1   -1    0    0  502    0  0.00000000000E+00  0.00000000000E+00  0.10544945095E+03  0.10544945095E+03  0.00000000000E+00 0.  1.
         13   -1    0    0    0    0 -0.00000000000E+00 -0.00000000000E+00 -0.10000000000E+04  0.10000000000E+04  0.00000000000E+00 0.  1.
    9000005    2    1    2  501    0 -0.63881297407E-05 -0.69134009237E-05 -0.89455058953E+03  0.11054494094E+04  0.64945949796E+03 0.  0.
         13    1    3    3    0    0 -0.59598610960E+02 -0.10019820786E+03  0.68599923236E+02  0.13526871314E+03  0.00000000000E+00 0.  1.
          1    1    3    3  501    0  0.59598604572E+02  0.10019820094E+03 -0.96315051277E+03  0.97018069625E+03  0.00000000000E+00 0.  1.
         21    1    1    2  502  501  0.63881297344E-05  0.69134009233E-05  0.40481901947E-04  0.41561853893E-04  0.00000000000E+00 0.  1.
<mgrwt>
<rscale>  1 0.64945950E+03</rscale>
<asrwt>0</asrwt>
<pdfrwt beam="1">  1        1 0.38345336E+00 0.64945950E+03</pdfrwt>
<pdfrwt beam="2">0</pdfrwt>
<totfact> 0.15845065E+00</totfact>
</mgrwt>
</event>
<event>
 6    1  0.3289769E-002  0.6595924E+03  0.7818608E-02  0.9788944E-01
          1   -1    0    0  502    0  0.00000000000E+00  0.00000000000E+00  0.10876552476E+03  0.10876552476E+03  0.00000000000E+00 0.  1.
         13   -1    0    0    0    0 -0.00000000000E+00 -0.00000000000E+00 -0.10000000000E+04  0.10000000000E+04  0.00000000000E+00 0.  1.
    9000005    2    1    2  501    0 -0.12438536601E-06  0.36456708585E-06 -0.89123447765E+03  0.11087655223E+04  0.65959236603E+03 0.  0.
         13    1    3    3    0    0  0.75951767455E+02  0.14485718215E+03  0.35782775133E+02  0.16742963058E+03  0.00000000000E+00 0.  1.
          3    1    3    3  501    0 -0.75951767579E+02 -0.14485718178E+03 -0.92701725279E+03  0.94133589174E+03  0.00000000000E+00 0.  1.
         21    1    1    2  502  501  0.12438537451E-06 -0.36456707779E-06  0.24076489469E-05  0.24382687151E-05  0.00000000000E+00 0.  1.
<mgrwt>
<rscale>  1 0.65959237E+03</rscale>
<asrwt>0</asrwt>
<pdfrwt beam="1">  1        1 0.39551183E+00 0.65959237E+03</pdfrwt>
<pdfrwt beam="2">0</pdfrwt>
<totfact> 0.13983464E+00</totfact>
</mgrwt>
</event>
<event>
 6    1  0.3289769E-002  0.6433179E+03  0.7818608E-02  0.9819399E-01
          1   -1    0    0  502    0  0.00000000000E+00  0.00000000000E+00  0.10346470286E+03  0.10346470286E+03  0.00000000000E+00 0.  1.
         13   -1    0    0    0    0 -0.00000000000E+00 -0.00000000000E+00 -0.10000000000E+04  0.10000000000E+04  0.00000000000E+00 0.  1.
    9000005    2    1    2  501    0 -0.61736063913E-04  0.76093795087E-05 -0.89653551750E+03  0.11034644739E+04  0.64331789263E+03 0.  0.
         13    1    3    3    0    0 -0.28360737640E+03 -0.73843197367E+02 -0.22085021294E+03  0.36696154881E+03  0.00000000000E+00 0.  1.
          1    1    3    3  501    0  0.28360731466E+03  0.73843204977E+02 -0.67568530456E+03  0.73650292508E+03  0.00000000000E+00 0.  1.
         21    1    1    2  502  501  0.61736063927E-04 -0.76093795097E-05  0.22036304313E-03  0.22897404880E-03  0.00000000000E+00 0.  1.
<mgrwt>
<rscale>  1 0.64331789E+03</rscale>
<asrwt>0</asrwt>
<pdfrwt beam="1">  1        1 0.37623608E+00 0.64331789E+03</pdfrwt>
<pdfrwt beam="2">0</pdfrwt>
<totfact> 0.17069725E+00</totfact>
</mgrwt>
</event>
<event>
 6    1  0.3289769E-002  0.6018009E+03  0.7818608E-02  0.9901677E-01
          1   -1    0    0  502    0  0.00000000000E+00  0.00000000000E+00  0.90541396327E+02  0.90541396327E+02  0.00000000000E+00 0.  1.
         13   -1    0    0    0    0 -0.00000000000E+00 -0.00000000000E+00 -0.10000000000E+04  0.10000000000E+04  0.00000000000E+00 0.  1.
    9000005    2    1    2  501    0  0.52716727367E-04  0.13771052465E-04 -0.90945892793E+03  0.10905410675E+04  0.60180086272E+03 0.  0.
         13    1    3    3    0    0  0.31891541763E+02 -0.16581754731E+03 -0.90604989618E+03  0.92165012006E+03  0.00000000000E+00 0.  1.
          1    1    3    3  501    0 -0.31891489046E+02  0.16581756109E+03 -0.34090317438E+01  0.16889094746E+03  0.00000000000E+00 0.  1.
         21    1    1    2  502  501 -0.52716727368E-04 -0.13771052472E-04  0.32425538281E-03  0.32880122948E-03  0.00000000000E+00 0. -1.
<mgrwt>
<rscale>  1 0.60180086E+03</rscale>
<asrwt>0</asrwt>
<pdfrwt beam="1">  1        1 0.32924214E+00 0.60180086E+03</pdfrwt>
<pdfrwt beam="2">0</pdfrwt>
<totfact> 0.27575385E+00</totfact>
</mgrwt>
</event>
<event>
 6    1  0.3289769E-002  0.5031756E+03  0.7818608E-02  0.1012953E+00
          1   -1    0    0  502    0  0.00000000000E+00  0.00000000000E+00  0.63296489162E+02  0.63296489162E+02  0.00000000000E+00 0.  1.
         13   -1    0    0    0    0 -0.00000000000E+00 -0.00000000000E+00 -0.10000000000E+04  0.10000000000E+04  0.00000000000E+00 0.  1.
    9000005    2    1    2  501    0 -0.35004065921E-05  0.15414818502E-05 -0.93670356981E+03  0.10632964301E+04  0.50317563585E+03 0.  0.
         13    1    3    3    0    0  0.15952021412E+03  0.31801533370E+01 -0.87941453015E+03  0.89377107132E+03  0.00000000000E+00 0.  1.
          3    1    3    3  501    0 -0.15952021762E+03 -0.31801517955E+01 -0.57289039656E+02  0.16952535875E+03  0.00000000000E+00 0.  1.
         21    1    1    2  502  501  0.35004066046E-05 -0.15414818501E-05  0.58968322026E-04  0.59092233122E-04  0.00000000000E+00 0. -1.
<mgrwt>
<rscale>  1 0.50317564E+03</rscale>
<asrwt>0</asrwt>
<pdfrwt beam="1">  1        1 0.23016954E+00 0.50317564E+03</pdfrwt>
<pdfrwt beam="2">0</pdfrwt>
<totfact> 0.75367872E+00</totfact>
</mgrwt>
</event>
<event>
 6    1  0.3289769E-002  0.6442289E+03  0.7818608E-02  0.9817669E-01
          1   -1    0    0  502    0  0.00000000000E+00  0.00000000000E+00  0.10381524177E+03  0.10381524177E+03  0.00000000000E+00 0.  1.
         13   -1    0    0    0    0 -0.00000000000E+00 -0.00000000000E+00 -0.10000000000E+04  0.10000000000E+04  0.00000000000E+00 0.  1.
    9000005    2    1    2  501    0 -0.94749481171E-02 -0.20208534040E-01 -0.89623987472E+03  0.11037557776E+04  0.64422892131E+03 0.  0.
         13    1    3    3    0    0 -0.23583747864E+03  0.10573475339E+02 -0.72647698294E+02  0.24699960077E+03  0.00000000000E+00 0.  1.
          3    1    3    3  501    0  0.23582800370E+03 -0.10593683873E+02 -0.82359217643E+03  0.85675617683E+03  0.00000000000E+00 0.  1.
         21    1    1    2  502  501  0.94749481171E-02  0.20208534040E-01  0.55116492419E-01  0.59464167584E-01  0.00000000000E+00 0. -1.
<mgrwt>
<rscale>  1 0.64422892E+03</rscale>
<asrwt>0</asrwt>
<pdfrwt beam="1">  1        1 0.37751077E+00 0.64422892E+03</pdfrwt>
<pdfrwt beam="2">0</pdfrwt>
<totfact> 0.16847607E+00</totfact>
</mgrwt>
</event>
<event>
 6    1  0.3289769E-002  0.6489277E+03  0.7818608E-02  0.9808793E-01
          1   -1    0    0  502    0  0.00000000000E+00  0.00000000000E+00  0.10626212154E+03  0.10626212154E+03  0.00000000000E+00 0.  1.
         13   -1    0    0    0    0 -0.00000000000E+00 -0.00000000000E+00 -0.10000000000E+04  0.10000000000E+04  0.00000000000E+00 0.  1.
    9000005    2    1    2  501    0  0.51517956999E+00 -0.18828383485E+01 -0.89351272303E+03  0.11042971317E+04  0.64892477091E+03 0.  0.
         13    1    3    3    0    0 -0.19640128075E+03  0.77509626035E+02 -0.27843118460E+02  0.21297052485E+03  0.00000000000E+00 0.  1.
          3    1    3    3  501    0  0.19691646032E+03 -0.79392464383E+02 -0.86566960457E+03  0.89132660682E+03  0.00000000000E+00 0.  1.
         21    1    1    2  502  501 -0.51517956999E+00  0.18828383485E+01 -0.22515542173E+00  0.19649898727E+01  0.00000000000E+00 0. -1.
<mgrwt>
<rscale>  1 0.64892771E+03</rscale>
<asrwt>0</asrwt>
<pdfrwt beam="1">  1        1 0.38640853E+00 0.64892771E+03</pdfrwt>
<pdfrwt beam="2">0</pdfrwt>
<totfact> 0.15376813E+00</totfact>
</mgrwt>
</event>
<event>
 6    1  0.3289769E-002  0.6478736E+03  0.7818608E-02  0.9810777E-01
          1   -1    0    0  502    0  0.00000000000E+00  0.00000000000E+00  0.10498339389E+03  0.10498339389E+03  0.00000000000E+00 0.  1.
         13   -1    0    0    0    0 -0.00000000000E+00 -0.00000000000E+00 -0.10000000000E+04  0.10000000000E+04  0.00000000000E+00 0.  1.
    9000005    2    1    2  501    0 -0.17070884320E-01  0.83856511206E-01 -0.89501896473E+03  0.11048977849E+04  0.64787356837E+03 0.  0.
         13    1    3    3    0    0 -0.91669567237E+02  0.11386632123E+03  0.45499856917E+02  0.15309828754E+03  0.00000000000E+00 0.  1.
          1    1    3    3  501    0  0.91652496352E+02 -0.11378246472E+03 -0.94051882165E+03  0.95179949740E+03  0.00000000000E+00 0.  1.
         21    1    1    2  502  501  0.17070884320E-01 -0.83856511206E-01  0.23586223419E-02  0.85608952000E-01  0.00000000000E+00 0.  1.
<mgrwt>
<rscale>  1 0.64787357E+03</rscale>
<asrwt>0</asrwt>
<pdfrwt beam="1">  1        1 0.38175860E+00 0.64787357E+03</pdfrwt>
<pdfrwt beam="2">0</pdfrwt>
<totfact> 0.16125315E+00</totfact>
</mgrwt>
</event>
