<event>
 6    1  0.5614394E-003  0.6400445E+03  0.7818608E-02  0.9825641E-01
          3   -1    0    0  502    0  0.00000000000E+00  0.00000000000E+00  0.10241425424E+03  0.10241425424E+03  0.00000000000E+00 0.  1.
         13   -1    0    0    0    0 -0.00000000000E+00 -0.00000000000E+00 -0.10000000000E+04  0.10000000000E+04  0.00000000000E+00 0.  1.
    9000005    2    1    2  501    0 -0.24002631392E-04  0.46920802106E-05 -0.89758575986E+03  0.11024142260E+04  0.64004447455E+03 0.  0.
         13    1    3    3    0    0 -0.23985805428E+03  0.18456525032E+03 -0.62793949408E+03  0.69706830802E+03  0.00000000000E+00 0.  1.
          3    1    3    3  501    0  0.23985803027E+03 -0.18456524562E+03 -0.26964626578E+03  0.40534591799E+03  0.00000000000E+00 0.  1.
         21    1    1    2  502  501  0.24002631394E-04 -0.46920802036E-05  0.14106302328E-04  0.28233485365E-04  0.00000000000E+00 0. -1.
<mgrwt>
<rscale>  1 0.64004447E+03</rscale>
<asrwt>0</asrwt>
<pdfrwt beam="1">  1        3 0.37241626E+00 0.64004447E+03</pdfrwt>
<pdfrwt beam="2">0</pdfrwt>
<totfact> 0.82916916E-02</totfact>
</mgrwt>
</event>
<event>
 6    1  0.5614394E-003  0.6992552E+03  0.7818608E-02  0.9718507E-01
          1   -1    0    0  502    0  0.00000000000E+00  0.00000000000E+00  0.12245213474E+03  0.12245213474E+03  0.00000000000E+00 0.  1.
         13   -1    0    0    0    0 -0.00000000000E+00 -0.00000000000E+00 -0.10000000000E+04  0.10000000000E+04  0.00000000000E+00 0.  1.
    9000005    2    1    2  501    0  0.54783356805E-01  0.74951692458E-01 -0.87774908726E+03  0.11222305286E+04  0.69925523994E+03 0.  0.
         13    1    3    3    0    0  0.57262284424E+02  0.15354013851E+03  0.56802504116E+02  0.17343606264E+03  0.00000000000E+00 0.  1.
          3    1    3    3  501    0 -0.57207501068E+02 -0.15346518682E+03 -0.93455159138E+03  0.94879446599E+03  0.00000000000E+00 0.  1.
         21    1    1    2  502  501 -0.54783356805E-01 -0.74951692458E-01  0.20122199819E+00  0.22160610312E+00  0.00000000000E+00 0. -1.
<mgrwt>
<rscale>  1 0.69925525E+03</rscale>
<asrwt>0</asrwt>
<pdfrwt beam="1">  1        1 0.44528143E+00 0.69925525E+03</pdfrwt>
<pdfrwt beam="2">0</pdfrwt>
<totfact> 0.82695922E-01</totfact>
</mgrwt>
</event>
<event>
 6    1  0.5614394E-003  0.6498961E+03  0.7818608E-02  0.9806974E-01
          1   -1    0    0  502    0  0.00000000000E+00  0.00000000000E+00  0.10559156226E+03  0.10559156226E+03  0.00000000000E+00 0.  1.
         13   -1    0    0    0    0 -0.00000000000E+00 -0.00000000000E+00 -0.10000000000E+04  0.10000000000E+04  0.00000000000E+00 0.  1.
    9000005    2    1    2  501    0 -0.31177539540E-04  0.40956498964E-04 -0.89440876669E+03  0.11055912293E+04  0.64989608739E+03 0.  0.
         13    1    3    3    0    0 -0.31009128338E+03 -0.75918206271E+02 -0.55027774442E+03  0.63618061435E+03  0.00000000000E+00 0.  1.
          1    1    3    3  501    0  0.31009125220E+03  0.75918247227E+02 -0.34413102226E+03  0.46941061496E+03  0.00000000000E+00 0.  1.
         21    1    1    2  502  501  0.31177539556E-04 -0.40956498964E-04  0.32894339086E-03  0.33294628422E-03  0.00000000000E+00 0.  1.
<mgrwt>
<rscale>  1 0.64989609E+03</rscale>
<asrwt>0</asrwt>
<pdfrwt beam="1">  1        1 0.38397013E+00 0.64989609E+03</pdfrwt>
<pdfrwt beam="2">0</pdfrwt>
<totfact> 0.15760672E+00</totfact>
</mgrwt>
</event>
<event>
 6    1  0.5614394E-003  0.6448870E+03  0.7818608E-02  0.9816421E-01
          1   -1    0    0  502    0  0.00000000000E+00  0.00000000000E+00  0.10397605761E+03  0.10397605761E+03  0.00000000000E+00 0.  1.
         13   -1    0    0    0    0 -0.00000000000E+00 -0.00000000000E+00 -0.10000000000E+04  0.10000000000E+04  0.00000000000E+00 0.  1.
    9000005    2    1    2  501    0 -0.16747432016E-02 -0.12791437523E-02 -0.89602998177E+03  0.11039696611E+04  0.64488703231E+03 0.  0.
         13    1    3    3    0    0  0.55451217223E+02  0.27469193748E+03 -0.72105164646E+03  0.77359289997E+03  0.00000000000E+00 0.  1.
          3    1    3    3  501    0 -0.55452891966E+02 -0.27469321662E+03 -0.17497833530E+03  0.33037676116E+03  0.00000000000E+00 0.  1.
         21    1    1    2  502  501  0.16747432016E-02  0.12791437523E-02  0.60393785209E-02  0.63964886030E-02  0.00000000000E+00 0. -1.
<mgrwt>
<rscale>  1 0.64488703E+03</rscale>
<asrwt>0</asrwt>
<pdfrwt beam="1">  1        1 0.37809555E+00 0.64488703E+03</pdfrwt>
<pdfrwt beam="2">0</pdfrwt>
<totfact> 0.16745893E+00</totfact>
</mgrwt>
</event>
<event>
 6    1  0.5614394E-003  0.6621447E+03  0.7818608E-02  0.9784254E-01
          1   -1    0    0  502    0  0.00000000000E+00  0.00000000000E+00  0.10961864623E+03  0.10961864623E+03  0.00000000000E+00 0.  1.
         13   -1    0    0    0    0 -0.00000000000E+00 -0.00000000000E+00 -0.10000000000E+04  0.10000000000E+04  0.00000000000E+00 0.  1.
    9000005    2    1    2  501    0  0.14196258073E-01 -0.16758261525E-01 -0.89037466998E+03  0.11095956887E+04  0.66214465116E+03 0.  0.
         13    1    3    3    0    0  0.52133753150E+02 -0.10837586874E+03 -0.96209919642E+03  0.96958657215E+03  0.00000000000E+00 0.  1.
          1    1    3    3  501    0 -0.52119556892E+02  0.10835911047E+03  0.71724526449E+02  0.14000911659E+03  0.00000000000E+00 0.  1.
         21    1    1    2  502  501 -0.14196258073E-01  0.16758261525E-01 -0.66837959642E-02  0.22957486821E-01  0.00000000000E+00 0. -1.
<mgrwt>
<rscale>  1 0.66214465E+03</rscale>
<asrwt>0</asrwt>
<pdfrwt beam="1">  1        1 0.39861410E+00 0.66214465E+03</pdfrwt>
<pdfrwt beam="2">0</pdfrwt>
<totfact> 0.13539321E+00</totfact>
</mgrwt>
</event>
<event>
 6    1  0.5614394E-003  0.6493448E+03  0.7818608E-02  0.9808009E-01
          1   -1    0    0  502    0  0.00000000000E+00  0.00000000000E+00  0.10541217732E+03  0.10541217732E+03  0.00000000000E+00 0.  1.
         13   -1    0    0    0    0 -0.00000000000E+00 -0.00000000000E+00 -0.10000000000E+04  0.10000000000E+04  0.00000000000E+00 0.  1.
    9000005    2    1    2  501    0  0.15210758590E-04 -0.33648467266E-05 -0.89458780858E+03  0.11054121563E+04  0.64934481445E+03 0.  0.
         13    1    3    3    0    0 -0.31714122561E+03  0.36191182957E+02 -0.34623954669E+03  0.47092481608E+03  0.00000000000E+00 0.  1.
          3    1    3    3  501    0  0.31714124082E+03 -0.36191186322E+02 -0.54834826189E+03  0.63448734023E+03  0.00000000000E+00 0.  1.
         21    1    1    2  502  501 -0.15210758590E-04  0.33648467274E-05 -0.14102958134E-04  0.21013871574E-04  0.00000000000E+00 0.  1.
<mgrwt>
<rscale>  1 0.64934481E+03</rscale>
<asrwt>0</asrwt>
<pdfrwt beam="1">  1        1 0.38331782E+00 0.64934481E+03</pdfrwt>
<pdfrwt beam="2">0</pdfrwt>
<totfact> 0.15867271E+00</totfact>
</mgrwt>
</event>
<event>
 6    1  0.5614394E-003  0.6629220E+03  0.7818608E-02  0.9782830E-01
          1   -1    0    0  502    0  0.00000000000E+00  0.00000000000E+00  0.11066365118E+03  0.11066365118E+03  0.00000000000E+00 0.  1.
         13   -1    0    0    0    0 -0.00000000000E+00 -0.00000000000E+00 -0.10000000000E+04  0.10000000000E+04  0.00000000000E+00 0.  1.
    9000005    2    1    2  501    0  0.10698077862E+01  0.23529568291E+00 -0.88969178582E+03  0.11095120487E+04  0.66292104556E+03 0.  0.
         13    1    3    3    0    0  0.80786288237E+02  0.31216387464E+03 -0.57538156891E+03  0.65957308833E+03  0.00000000000E+00 0.  1.
          3    1    3    3  501    0 -0.79716480450E+02 -0.31192857896E+03 -0.31431021691E+03  0.44993896039E+03  0.00000000000E+00 0.  1.
         21    1    1    2  502  501 -0.10698077862E+01 -0.23529568291E+00  0.35543699519E+00  0.11516024554E+01  0.00000000000E+00 0. -1.
<mgrwt>
<rscale>  1 0.66292195E+03</rscale>
<asrwt>0</asrwt>
<pdfrwt beam="1">  1        1 0.40241413E+00 0.66292195E+03</pdfrwt>
<pdfrwt beam="2">0</pdfrwt>
<totfact> 0.13019178E+00</totfact>
</mgrwt>
</event>
<event>
 6    1  0.5614394E-003  0.6376596E+03  0.7818608E-02  0.9830215E-01
          1   -1    0    0  502    0  0.00000000000E+00  0.00000000000E+00  0.10167619877E+03  0.10167619877E+03  0.00000000000E+00 0.  1.
         13   -1    0    0    0    0 -0.00000000000E+00 -0.00000000000E+00 -0.10000000000E+04  0.10000000000E+04  0.00000000000E+00 0.  1.
    9000005    2    1    2  501    0  0.64234542699E-02  0.11169807044E-01 -0.89834561608E+03  0.11016508628E+04  0.63765960931E+03 0.  0.
         13    1    3    3    0    0  0.22787699392E+03 -0.18451555722E+03 -0.23285010274E+03  0.37442367121E+03  0.00000000000E+00 0.  1.
          3    1    3    3  501    0 -0.22787057046E+03  0.18452672703E+03 -0.66549551334E+03  0.72722719156E+03  0.00000000000E+00 0.  1.
         21    1    1    2  502  501 -0.64234542699E-02 -0.11169807044E-01  0.21814848217E-01  0.25336001202E-01  0.00000000000E+00 0. -1.
<mgrwt>
<rscale>  1 0.63765961E+03</rscale>
<asrwt>0</asrwt>
<pdfrwt beam="1">  1        1 0.36973241E+00 0.63765961E+03</pdfrwt>
<pdfrwt beam="2">0</pdfrwt>
<totfact> 0.18250591E+00</totfact>
</mgrwt>
</event>
<event>
 6    1  0.5614394E-003  0.6196200E+03  0.7818608E-02  0.9865517E-01
          1   -1    0    0  502    0  0.00000000000E+00  0.00000000000E+00  0.10327479752E+03  0.10327479752E+03  0.00000000000E+00 0.  1.
         13   -1    0    0    0    0 -0.00000000000E+00 -0.00000000000E+00 -0.10000000000E+04  0.10000000000E+04  0.00000000000E+00 0.  1.
    9000005    2    1    2  501    0 -0.43608727640E+00  0.35697077443E+00 -0.90400583150E+03  0.10959723898E+04  0.61961973670E+03 0.  0.
         13    1    3    3    0    0 -0.18189483539E+03 -0.77484243887E+02 -0.30040119725E+02  0.19997986895E+03  0.00000000000E+00 0.  1.
          1    1    3    3  501    0  0.18145874811E+03  0.77841214661E+02 -0.87396571178E+03  0.89599252080E+03  0.00000000000E+00 0.  1.
         21    1    1    2  502  501  0.43608727640E+00 -0.35697077443E+00  0.72806290243E+01  0.73024077698E+01  0.00000000000E+00 0.  1.
<mgrwt>
<rscale>  1 0.61961999E+03</rscale>
<asrwt>0</asrwt>
<pdfrwt beam="1">  1        1 0.37554551E+00 0.61961999E+03</pdfrwt>
<pdfrwt beam="2">0</pdfrwt>
<totfact> 0.17265570E+00</totfact>
</mgrwt>
</event>
<event>
 6    1  0.5614394E-003  0.6628017E+03  0.7818608E-02  0.9783050E-01
          1   -1    0    0  502    0  0.00000000000E+00  0.00000000000E+00  0.10982659741E+03  0.10982659741E+03  0.00000000000E+00 0.  1.
         13   -1    0    0    0    0 -0.00000000000E+00 -0.00000000000E+00 -0.10000000000E+04  0.10000000000E+04  0.00000000000E+00 0.  1.
    9000005    2    1    2  501    0  0.64672619970E-05 -0.83921748342E-05 -0.89017347383E+03  0.11098265254E+04  0.66280170711E+03 0.  0.
         13    1    3    3    0    0  0.98397887640E+02  0.28500791187E+03 -0.21479775085E+03  0.37020227969E+03  0.00000000000E+00 0.  1.
          3    1    3    3  501    0 -0.98397881173E+02 -0.28500792026E+03 -0.67537572298E+03  0.73962424570E+03  0.00000000000E+00 0.  1.
         21    1    1    2  502  501 -0.64672620028E-05  0.83921748500E-05  0.71238886750E-04  0.72022448319E-04  0.00000000000E+00 0.  1.
<mgrwt>
<rscale>  1 0.66280171E+03</rscale>
<asrwt>0</asrwt>
<pdfrwt beam="1">  1        1 0.39937029E+00 0.66280171E+03</pdfrwt>
<pdfrwt beam="2">0</pdfrwt>
<totfact> 0.13433012E+00</totfact>
</mgrwt>
</event>
<event>
 6    1  0.5614394E-003  0.6496538E+03  0.7818608E-02  0.9807429E-01
          1   -1    0    0  502    0  0.00000000000E+00  0.00000000000E+00  0.12441099404E+03  0.12441099404E+03  0.00000000000E+00 0.  1.
         13   -1    0    0    0    0 -0.00000000000E+00 -0.00000000000E+00 -0.10000000000E+04  0.10000000000E+04  0.00000000000E+00 0.  1.
    9000005    2    1    2  501    0  0.30033476047E+01  0.10659639740E+02 -0.89267696735E+03  0.11040481249E+04  0.64955942452E+03 0.  0.
         13    1    3    3    0    0 -0.60306651102E+02 -0.22592597775E+03 -0.81383170962E+03  0.84675940572E+03  0.00000000000E+00 0.  1.
          1    1    3    3  501    0  0.63309998707E+02  0.23658561749E+03 -0.78845257732E+02  0.25728871916E+03  0.00000000000E+00 0.  1.
         21    1    1    2  502  501 -0.30033476047E+01 -0.10659639740E+02  0.17087961392E+02  0.20362869168E+02  0.00000000000E+00 0. -1.
<mgrwt>
<rscale>  1 0.64965383E+03</rscale>
<asrwt>0</asrwt>
<pdfrwt beam="1">  1        1 0.45240457E+00 0.64965383E+03</pdfrwt>
<pdfrwt beam="2">0</pdfrwt>
<totfact> 0.77451558E-01</totfact>
</mgrwt>
</event>
<event>
 6    1  0.5614394E-003  0.6474671E+03  0.7818608E-02  0.9811544E-01
          1   -1    0    0  502    0  0.00000000000E+00  0.00000000000E+00  0.10583315415E+03  0.10583315415E+03  0.00000000000E+00 0.  1.
         13   -1    0    0    0    0 -0.00000000000E+00 -0.00000000000E+00 -0.10000000000E+04  0.10000000000E+04  0.00000000000E+00 0.  1.
    9000005    2    1    2  501    0  0.18040364007E+01 -0.10141490611E+01 -0.89389027355E+03  0.11037452035E+04  0.64746379827E+03 0.  0.
         13    1    3    3    0    0 -0.30444641127E+03 -0.27980922256E+01 -0.62906297981E+03  0.69886742607E+03  0.00000000000E+00 0.  1.
          1    1    3    3  501    0  0.30625044767E+03  0.17839431645E+01 -0.26482729374E+03  0.40487777743E+03  0.00000000000E+00 0.  1.
         21    1    1    2  502  501 -0.18040364007E+01  0.10141490611E+01 -0.27657230158E+00  0.20879506438E+01  0.00000000000E+00 0.  1.
<mgrwt>
<rscale>  1 0.64746711E+03</rscale>
<asrwt>0</asrwt>
<pdfrwt beam="1">  1        1 0.38484864E+00 0.64746711E+03</pdfrwt>
<pdfrwt beam="2">0</pdfrwt>
<totfact> 0.15627345E+00</totfact>
</mgrwt>
</event>
<event>
 6    1  0.5614394E-003  0.6555638E+03  0.7818608E-02  0.9796395E-01
          1   -1    0    0  502    0  0.00000000000E+00  0.00000000000E+00  0.10744132203E+03  0.10744132203E+03  0.00000000000E+00 0.  1.
         13   -1    0    0    0    0 -0.00000000000E+00 -0.00000000000E+00 -0.10000000000E+04  0.10000000000E+04  0.00000000000E+00 0.  1.
    9000005    2    1    2  501    0 -0.14663798709E-03  0.58842846137E-03 -0.89255870931E+03  0.11074407148E+04  0.65556379341E+03 0.  0.
         13    1    3    3    0    0  0.13441589614E+03  0.98500132882E+02 -0.92310105015E+03  0.93802209894E+03  0.00000000000E+00 0.  1.
          3    1    3    3  501    0 -0.13441604277E+03 -0.98499544453E+02  0.30542340848E+02  0.16941861585E+03  0.00000000000E+00 0.  1.
         21    1    1    2  502  501  0.14663798710E-03 -0.58842846137E-03  0.31335045751E-04  0.60723359467E-03  0.00000000000E+00 0.  1.
<mgrwt>
<rscale>  1 0.65556379E+03</rscale>
<asrwt>0</asrwt>
<pdfrwt beam="1">  1        1 0.39069654E+00 0.65556379E+03</pdfrwt>
<pdfrwt beam="2">0</pdfrwt>
<totfact> 0.14700451E+00</totfact>
</mgrwt>
</event>
<event>
 6    1  0.5614394E-003  0.6445047E+03  0.7818608E-02  0.9817146E-01
          1   -1    0    0  502    0  0.00000000000E+00  0.00000000000E+00  0.10388752942E+03  0.10388752942E+03  0.00000000000E+00 0.  1.
         13   -1    0    0    0    0 -0.00000000000E+00 -0.00000000000E+00 -0.10000000000E+04  0.10000000000E+04  0.00000000000E+00 0.  1.
    9000005    2    1    2  501    0 -0.80296407637E-02 -0.78350451944E-02 -0.89615256516E+03  0.11038458948E+04  0.64450472409E+03 0.  0.
         13    1    3    3    0    0 -0.93344118308E+02  0.31749367652E+02 -0.97353414532E+03  0.97851411787E+03  0.00000000000E+00 0.  1.
          3    1    3    3  501    0  0.93336088667E+02 -0.31757202697E+02  0.77381580154E+02  0.12533177697E+03  0.00000000000E+00 0.  1.
         21    1    1    2  502  501  0.80296407637E-02  0.78350451944E-02  0.40094580409E-01  0.41634582286E-01  0.00000000000E+00 0. -1.
<mgrwt>
<rscale>  1 0.64450472E+03</rscale>
<asrwt>0</asrwt>
<pdfrwt beam="1">  1        1 0.37777363E+00 0.64450472E+03</pdfrwt>
<pdfrwt beam="2">0</pdfrwt>
<totfact> 0.16801875E+00</totfact>
</mgrwt>
</event>
<event>
 6    1  0.5614394E-003  0.5266443E+03  0.7818608E-02  0.1007049E+00
          1   -1    0    0  502    0  0.00000000000E+00  0.00000000000E+00  0.72099982188E+02  0.72099982188E+02  0.00000000000E+00 0.  1.
         13   -1    0    0    0    0 -0.00000000000E+00 -0.00000000000E+00 -0.10000000000E+04  0.10000000000E+04  0.00000000000E+00 0.  1.
    9000005    2    1    2  501    0 -0.31450075123E+01 -0.37360667493E+01 -0.92821095036E+03  0.10672065227E+04  0.52662163306E+03 0.  0.
         13    1    3    3    0    0 -0.44448392521E+02 -0.91982029435E+02 -0.95946079942E+03  0.96488412722E+03  0.00000000000E+00 0.  1.
          1    1    3    3  501    0  0.41303385009E+02  0.88245962686E+02  0.31249849067E+02  0.10232239545E+03  0.00000000000E+00 0.  1.
         21    1    1    2  502  501  0.31450075123E+01  0.37360667493E+01  0.31093254318E+00  0.48934595180E+01  0.00000000000E+00 0. -1.
<mgrwt>
<rscale>  1 0.52664428E+03</rscale>
<asrwt>0</asrwt>
<pdfrwt beam="1">  1        1 0.26218231E+00 0.52664428E+03</pdfrwt>
<pdfrwt beam="2">0</pdfrwt>
<totfact> 0.54433620E+00</totfact>
</mgrwt>
</event>
<event>
 6    1  0.5614394E-003  0.5806754E+03  0.7818608E-02  0.9946330E-01
          1   -1    0    0  502    0  0.00000000000E+00  0.00000000000E+00  0.84295976040E+02  0.84295976040E+02  0.00000000000E+00 0.  1.
         13   -1    0    0    0    0 -0.00000000000E+00 -0.00000000000E+00 -0.10000000000E+04  0.10000000000E+04  0.00000000000E+00 0.  1.
    9000005    2    1    2  501    0  0.47506570127E-05 -0.19089537489E-05 -0.91570403010E+03  0.10842959680E+04  0.58067536162E+03 0.  0.
         13    1    3    3    0    0 -0.19709443667E+03 -0.15711089185E+03 -0.18876668356E+03  0.31490142923E+03  0.00000000000E+00 0.  1.
          1    1    3    3  501    0  0.19709444143E+03  0.15711088994E+03 -0.72693734654E+03  0.76939453882E+03  0.00000000000E+00 0.  1.
         21    1    1    2  502  501 -0.47506569942E-05  0.19089537584E-05  0.61365519491E-05  0.79918781368E-05  0.00000000000E+00 0. -1.
<mgrwt>
<rscale>  1 0.58067536E+03</rscale>
<asrwt>0</asrwt>
<pdfrwt beam="1">  1        1 0.30653147E+00 0.58067536E+03</pdfrwt>
<pdfrwt beam="2">0</pdfrwt>
<totfact> 0.34698812E+00</totfact>
</mgrwt>
</event>
<event>
 6    1  0.5829374E-003  0.6506248E+03  0.7818608E-02  0.9805607E-01
          3   -1    0    0  502    0  0.00000000000E+00  0.00000000000E+00  0.10582816455E+03  0.10582816455E+03  0.00000000000E+00 0.  1.
         13   -1    0    0    0    0 -0.00000000000E+00 -0.00000000000E+00 -0.10000000000E+04  0.10000000000E+04  0.00000000000E+00 0.  1.
    9000005    2    1    2  501    0 -0.32519250226E-06 -0.15971897938E-05 -0.89417183540E+03  0.11058281629E+04  0.65062481868E+03 0.  0.
         13    1    3    3    0    0 -0.16994677083E+03  0.21229643210E+03 -0.14363236716E+03  0.30754176447E+03  0.00000000000E+00 0.  1.
          3    1    3    3  501    0  0.16994677051E+03 -0.21229643369E+03 -0.75053946824E+03  0.79828639845E+03  0.00000000000E+00 0.  1.
         21    1    1    2  502  501  0.32519251325E-06  0.15971897722E-05 -0.41188997390E-07  0.16304790316E-05  0.00000000000E+00 0. -1.
<mgrwt>
<rscale>  1 0.65062482E+03</rscale>
<asrwt>0</asrwt>
<pdfrwt beam="1">  1        3 0.38483050E+00 0.65062482E+03</pdfrwt>
<pdfrwt beam="2">0</pdfrwt>
<totfact> 0.71168709E-02</totfact>
</mgrwt>
</event>
<event>
 6    1  0.5614394E-003  0.6576616E+03  0.7818608E-02  0.9792508E-01
          1   -1    0    0  502    0  0.00000000000E+00  0.00000000000E+00  0.10813972127E+03  0.10813972127E+03  0.00000000000E+00 0.  1.
         13   -1    0    0    0    0 -0.00000000000E+00 -0.00000000000E+00 -0.10000000000E+04  0.10000000000E+04  0.00000000000E+00 0.  1.
    9000005    2    1    2  501    0  0.42087665665E-03 -0.25592769964E-03 -0.89187029493E+03  0.11081296930E+04  0.65766161013E+03 0.  0.
         13    1    3    3    0    0 -0.21859153206E+03 -0.10561510139E+03 -0.72221341559E+02  0.25328389152E+03  0.00000000000E+00 0.  1.
          3    1    3    3  501    0  0.21859195293E+03  0.10561484547E+03 -0.81964895337E+03  0.85484580144E+03  0.00000000000E+00 0.  1.
         21    1    1    2  502  501 -0.42087665665E-03  0.25592769964E-03  0.10016198077E-01  0.10028302950E-01  0.00000000000E+00 0.  1.
<mgrwt>
<rscale>  1 0.65766161E+03</rscale>
<asrwt>0</asrwt>
<pdfrwt beam="1">  1        1 0.39323618E+00 0.65766161E+03</pdfrwt>
<pdfrwt beam="2">0</pdfrwt>
<totfact> 0.14318146E+00</totfact>
</mgrwt>
</event>
<event>
 6    1  0.6177910E-003  0.6580971E+03  0.7818608E-02  0.9791703E-01
          1   -1    0    0  502    0  0.00000000000E+00  0.00000000000E+00  0.10827295748E+03  0.10827295748E+03  0.00000000000E+00 0.  1.
         13   -1    0    0    0    0 -0.00000000000E+00 -0.00000000000E+00 -0.10000000000E+04  0.10000000000E+04  0.00000000000E+00 0.  1.
    9000005    2    1    2  501    0  0.32087825701E-04  0.12119609210E-05 -0.89172699299E+03  0.11082728985E+04  0.65809709575E+03 0.  0.
         13    1    3    3    0    0 -0.17365003064E+03 -0.27875343293E+03 -0.41155120653E+03  0.52652844662E+03  0.00000000000E+00 0.  1.
          1    1    3    3  501    0  0.17365006273E+03  0.27875343414E+03 -0.48017578646E+03  0.58174445183E+03  0.00000000000E+00 0.  1.
         21    1    1    2  502  501 -0.32087825682E-04 -0.12119609145E-05 -0.49528729215E-04  0.59027048240E-04  0.00000000000E+00 0.  1.
<mgrwt>
<rscale>  1 0.65809710E+03</rscale>
<asrwt>0</asrwt>
<pdfrwt beam="1">  1        1 0.39372068E+00 0.65809710E+03</pdfrwt>
<pdfrwt beam="2">0</pdfrwt>
<totfact> 0.14246197E+00</totfact>
</mgrwt>
</event>
<event>
 6    1  0.5614394E-003  0.6416343E+03  0.7818608E-02  0.9822605E-01
          1   -1    0    0  502    0  0.00000000000E+00  0.00000000000E+00  0.10293763115E+03  0.10293763115E+03  0.00000000000E+00 0.  1.
         13   -1    0    0    0    0 -0.00000000000E+00 -0.00000000000E+00 -0.10000000000E+04  0.10000000000E+04  0.00000000000E+00 0.  1.
    9000005    2    1    2  501    0  0.12454553324E-02  0.28530291319E-02 -0.89707617698E+03  0.11029234765E+04  0.64163426312E+03 0.  0.
         13    1    3    3    0    0 -0.87823286630E+02  0.18739228285E+03 -0.86992291917E+03  0.89420058300E+03  0.00000000000E+00 0.  1.
          3    1    3    3  501    0  0.87824532085E+02 -0.18738942982E+03 -0.27153257807E+02  0.20872289346E+03  0.00000000000E+00 0.  1.
         21    1    1    2  502  501 -0.12454553324E-02 -0.28530291319E-02  0.13808128693E-01  0.14154693646E-01  0.00000000000E+00 0. -1.
<mgrwt>
<rscale>  1 0.64163426E+03</rscale>
<asrwt>0</asrwt>
<pdfrwt beam="1">  1        1 0.37431945E+00 0.64163426E+03</pdfrwt>
<pdfrwt beam="2">0</pdfrwt>
<totfact> 0.17409971E+00</totfact>
</mgrwt>
</event>
<event>
 6    1  0.5614394E-003  0.6512060E+03  0.7818608E-02  0.9804519E-01
          1   -1    0    0  502    0  0.00000000000E+00  0.00000000000E+00  0.11807836529E+03  0.11807836529E+03  0.00000000000E+00 0.  1.
         13   -1    0    0    0    0 -0.00000000000E+00 -0.00000000000E+00 -0.10000000000E+04  0.10000000000E+04  0.00000000000E+00 0.  1.
    9000005    2    1    2  501    0 -0.72360483178E-01 -0.20061078669E+00 -0.89398165015E+03  0.11060164644E+04  0.65120594532E+03 0.  0.
         13    1    3    3    0    0  0.21922826219E+03  0.21017788050E+03 -0.24790397559E+03  0.39203590844E+03  0.00000000000E+00 0.  1.
          3    1    3    3  501    0 -0.21930062268E+03 -0.21037849129E+03 -0.64607767457E+03  0.71398055595E+03  0.00000000000E+00 0.  1.
         21    1    1    2  502  501  0.72360483178E-01  0.20061078669E+00  0.12060015445E+02  0.12061900897E+02  0.00000000000E+00 0.  1.
<mgrwt>
<rscale>  1 0.65120598E+03</rscale>
<asrwt>0</asrwt>
<pdfrwt beam="1">  1        1 0.42937678E+00 0.65120598E+03</pdfrwt>
<pdfrwt beam="2">0</pdfrwt>
<totfact> 0.98681185E-01</totfact>
</mgrwt>
</event>
<event>
 6    1  0.5614394E-003  0.5627080E+03  0.7818608E-02  0.9985946E-01
          1   -1    0    0  502    0  0.00000000000E+00  0.00000000000E+00  0.79160490044E+02  0.79160490044E+02  0.00000000000E+00 0.  1.
         13   -1    0    0    0    0 -0.00000000000E+00 -0.00000000000E+00 -0.10000000000E+04  0.10000000000E+04  0.00000000000E+00 0.  1.
    9000005    2    1    2  501    0  0.27041538118E-04 -0.10840438648E-04 -0.92083991395E+03  0.10791600850E+04  0.56270804326E+03 0.  0.
         13    1    3    3    0    0 -0.15850314131E+03  0.22746809977E+03 -0.55229618027E+03  0.61797738871E+03  0.00000000000E+00 0.  1.
          3    1    3    3  501    0  0.15850316835E+03 -0.22746811062E+03 -0.36854373368E+03  0.46118269629E+03  0.00000000000E+00 0.  1.
         21    1    1    2  502  501 -0.27041538129E-04  0.10840438664E-04  0.40399161329E-03  0.40504071833E-03  0.00000000000E+00 0.  1.
<mgrwt>
<rscale>  1 0.56270804E+03</rscale>
<asrwt>0</asrwt>
<pdfrwt beam="1">  1        1 0.28785693E+00 0.56270804E+03</pdfrwt>
<pdfrwt beam="2">0</pdfrwt>
<totfact> 0.41902931E+00</totfact>
</mgrwt>
</event>
<event>
 6    1  0.5614394E-003  0.6412619E+03  0.7818608E-02  0.9823315E-01
          1   -1    0    0  502    0  0.00000000000E+00  0.00000000000E+00  0.10294150171E+03  0.10294150171E+03  0.00000000000E+00 0.  1.
         13   -1    0    0    0    0 -0.00000000000E+00 -0.00000000000E+00 -0.10000000000E+04  0.10000000000E+04  0.00000000000E+00 0.  1.
    9000005    2    1    2  501    0 -0.23592754218E-02 -0.11679149135E-02 -0.89719576575E+03  0.11028042090E+04  0.64126194438E+03 0.  0.
         13    1    3    3    0    0 -0.30030934351E+03  0.70029239199E+02 -0.59965329040E+03  0.67429508736E+03  0.00000000000E+00 0.  1.
          3    1    3    3  501    0  0.30030698423E+03 -0.70030407114E+02 -0.29754247535E+03  0.42850912165E+03  0.00000000000E+00 0.  1.
         21    1    1    2  502  501  0.23592754218E-02  0.11679149135E-02  0.13726746384E+00  0.13729270496E+00  0.00000000000E+00 0.  1.
<mgrwt>
<rscale>  1 0.64126194E+03</rscale>
<asrwt>0</asrwt>
<pdfrwt beam="1">  1        1 0.37433352E+00 0.64126194E+03</pdfrwt>
<pdfrwt beam="2">0</pdfrwt>
<totfact> 0.17408674E+00</totfact>
</mgrwt>
</event>
<event>
 6    1  0.5614394E-003  0.6530381E+03  0.7818608E-02  0.9801095E-01
          1   -1    0    0  502    0  0.00000000000E+00  0.00000000000E+00  0.10661820213E+03  0.10661820213E+03  0.00000000000E+00 0.  1.
         13   -1    0    0    0    0 -0.00000000000E+00 -0.00000000000E+00 -0.10000000000E+04  0.10000000000E+04  0.00000000000E+00 0.  1.
    9000005    2    1    2  501    0 -0.39834747770E-02  0.21094299925E-02 -0.89338362173E+03  0.11066133396E+04  0.65303812122E+03 0.  0.
         13    1    3    3    0    0  0.18963501824E+03 -0.23349008045E+03 -0.66193448723E+03  0.72707380863E+03  0.00000000000E+00 0.  1.
          3    1    3    3  501    0 -0.18963900171E+03  0.23349218988E+03 -0.23144913450E+03  0.37953953096E+03  0.00000000000E+00 0.  1.
         21    1    1    2  502  501  0.39834747770E-02 -0.21094299925E-02  0.18238578358E-02  0.48625326320E-02  0.00000000000E+00 0.  1.
<mgrwt>
<rscale>  1 0.65303812E+03</rscale>
<asrwt>0</asrwt>
<pdfrwt beam="1">  1        1 0.38770337E+00 0.65303812E+03</pdfrwt>
<pdfrwt beam="2">0</pdfrwt>
<totfact> 0.15163603E+00</totfact>
</mgrwt>
</event>
<event>
 6    1  0.5614394E-003  0.6655423E+03  0.7818608E-02  0.9778044E-01
          1   -1    0    0  502    0  0.00000000000E+00  0.00000000000E+00  0.11381260560E+03  0.11381260560E+03  0.00000000000E+00 0.  1.
         13   -1    0    0    0    0 -0.00000000000E+00 -0.00000000000E+00 -0.10000000000E+04  0.10000000000E+04  0.00000000000E+00 0.  1.
    9000005    2    1    2  501    0  0.96860181271E-01 -0.12578322409E+00 -0.88926107374E+03  0.11107348291E+04  0.66554231885E+03 0.  0.
         13    1    3    3    0    0 -0.20958336263E+03  0.25048547551E+03 -0.33875511587E+03  0.47055625366E+03  0.00000000000E+00 0.  1.
          3    1    3    3  501    0  0.20968022281E+03 -0.25061125873E+03 -0.55050595786E+03  0.64017857547E+03  0.00000000000E+00 0.  1.
         21    1    1    2  502  501 -0.96860181271E-01  0.12578322409E+00  0.30736793407E+01  0.30777764707E+01  0.00000000000E+00 0.  1.
<mgrwt>
<rscale>  1 0.66554234E+03</rscale>
<asrwt>0</asrwt>
<pdfrwt beam="1">  1        1 0.41386489E+00 0.66554234E+03</pdfrwt>
<pdfrwt beam="2">0</pdfrwt>
<totfact> 0.11562918E+00</totfact>
</mgrwt>
</event>
<event>
 6    1  0.5614394E-003  0.6530466E+03  0.7818608E-02  0.9801079E-01
          1   -1    0    0  502    0  0.00000000000E+00  0.00000000000E+00  0.10663328837E+03  0.10663328837E+03  0.00000000000E+00 0.  1.
         13   -1    0    0    0    0 -0.00000000000E+00 -0.00000000000E+00 -0.10000000000E+04  0.10000000000E+04  0.00000000000E+00 0.  1.
    9000005    2    1    2  501    0 -0.51423072268E-04 -0.40046618416E-03 -0.89338252185E+03  0.11066174730E+04  0.65304663019E+03 0.  0.
         13    1    3    3    0    0 -0.71646762900E+01 -0.41073073752E+02  0.10208827387E+03  0.11027395720E+03  0.00000000000E+00 0.  1.
          3    1    3    3  501    0  0.71646248669E+01  0.41072673286E+02 -0.99547079572E+03  0.99634351580E+03  0.00000000000E+00 0.  1.
         21    1    1    2  502  501  0.51423072267E-04  0.40046618416E-03  0.15810222319E-01  0.15815376924E-01  0.00000000000E+00 0.  1.
<mgrwt>
<rscale>  1 0.65304663E+03</rscale>
<asrwt>0</asrwt>
<pdfrwt beam="1">  1        1 0.38775823E+00 0.65304663E+03</pdfrwt>
<pdfrwt beam="2">0</pdfrwt>
<totfact> 0.15155097E+00</totfact>
</mgrwt>
</event>
<event>
 6    1  0.5614394E-003  0.6460469E+03  0.7818608E-02  0.9814225E-01
          1   -1    0    0  502    0  0.00000000000E+00  0.00000000000E+00  0.10435405575E+03  0.10435405575E+03  0.00000000000E+00 0.  1.
         13   -1    0    0    0    0 -0.00000000000E+00 -0.00000000000E+00 -0.10000000000E+04  0.10000000000E+04  0.00000000000E+00 0.  1.
    9000005    2    1    2  501    0 -0.11361425916E-02 -0.37270080432E-03 -0.89565580780E+03  0.11043441200E+04  0.64604690953E+03 0.  0.
         13    1    3    3    0    0 -0.20379854414E+03 -0.13380347546E+03 -0.81007020601E+03  0.84596155664E+03  0.00000000000E+00 0.  1.
          3    1    3    3  501    0  0.20379740799E+03  0.13380310276E+03 -0.85585601785E+02  0.25838256336E+03  0.00000000000E+00 0.  1.
         21    1    1    2  502  501  0.11361425916E-02  0.37270080432E-03  0.98635475986E-02  0.99357585069E-02  0.00000000000E+00 0. -1.
<mgrwt>
<rscale>  1 0.64604691E+03</rscale>
<asrwt>0</asrwt>
<pdfrwt beam="1">  1        1 0.37947009E+00 0.64604691E+03</pdfrwt>
<pdfrwt beam="2">0</pdfrwt>
<totfact> 0.16510285E+00</totfact>
</mgrwt>
</event>
<event>
 6    1  0.5614394E-003  0.6533710E+03  0.7818608E-02  0.9800474E-01
          1   -1    0    0  502    0  0.00000000000E+00  0.00000000000E+00  0.10672488905E+03  0.10672488905E+03  0.00000000000E+00 0.  1.
         13   -1    0    0    0    0 -0.00000000000E+00 -0.00000000000E+00 -0.10000000000E+04  0.10000000000E+04  0.00000000000E+00 0.  1.
    9000005    2    1    2  501    0 -0.50093205164E-03  0.38888606490E-02 -0.89326536869E+03  0.11067143873E+04  0.65337104025E+03 0.  0.
         13    1    3    3    0    0  0.19785250662E+03 -0.12338575482E+03 -0.83419888640E+03  0.86617402463E+03  0.00000000000E+00 0.  1.
          1    1    3    3  501    0 -0.19785300755E+03  0.12338964369E+03 -0.59066482290E+02  0.24054036272E+03  0.00000000000E+00 0.  1.
         21    1    1    2  502  501  0.50093205162E-03 -0.38888606489E-02 -0.97422557412E-02  0.10501700672E-01  0.00000000000E+00 0.  1.
<mgrwt>
<rscale>  1 0.65337104E+03</rscale>
<asrwt>0</asrwt>
<pdfrwt beam="1">  1        1 0.38809132E+00 0.65337104E+03</pdfrwt>
<pdfrwt beam="2">0</pdfrwt>
<totfact> 0.15102785E+00</totfact>
</mgrwt>
</event>
<event>
 6    1  0.5614394E-003  0.6280018E+03  0.7818608E-02  0.9848956E-01
          1   -1    0    0  502    0  0.00000000000E+00  0.00000000000E+00  0.99397916691E+02  0.99397916691E+02  0.00000000000E+00 0.  1.
         13   -1    0    0    0    0 -0.00000000000E+00 -0.00000000000E+00 -0.10000000000E+04  0.10000000000E+04  0.00000000000E+00 0.  1.
    9000005    2    1    2  501    0  0.10633791800E-01  0.44578541711E-02 -0.90140338587E+03  0.10985965312E+04  0.62800181059E+03 0.  0.
         13    1    3    3    0    0  0.20264567964E+03 -0.61037199935E+02 -0.85649408945E+03  0.88225446245E+03  0.00000000000E+00 0.  1.
          1    1    3    3  501    0 -0.20263504585E+03  0.61041657789E+02 -0.44909296425E+02  0.21634206872E+03  0.00000000000E+00 0.  1.
         21    1    1    2  502  501 -0.10633791800E-01 -0.44578541711E-02  0.80130256529E+00  0.80138551966E+00  0.00000000000E+00 0. -1.
<mgrwt>
<rscale>  1 0.62800181E+03</rscale>
<asrwt>0</asrwt>
<pdfrwt beam="1">  1        1 0.36144773E+00 0.62800181E+03</pdfrwt>
<pdfrwt beam="2">0</pdfrwt>
<totfact> 0.19877120E+00</totfact>
</mgrwt>
</event>
<event>
 6    1  0.5614394E-003  0.6539971E+03  0.7818608E-02  0.9799308E-01
          1   -1    0    0  502    0  0.00000000000E+00  0.00000000000E+00  0.10692817243E+03  0.10692817243E+03  0.00000000000E+00 0.  1.
         13   -1    0    0    0    0 -0.00000000000E+00 -0.00000000000E+00 -0.10000000000E+04  0.10000000000E+04  0.00000000000E+00 0.  1.
    9000005    2    1    2  501    0 -0.11710933666E-03  0.16990445945E-03 -0.89307073194E+03  0.11069270575E+04  0.65399707833E+03 0.  0.
         13    1    3    3    0    0 -0.31894001859E+03  0.69027051653E+02 -0.41100692074E+03  0.52479915989E+03  0.00000000000E+00 0.  1.
          3    1    3    3  501    0  0.31893990148E+03 -0.69026881749E+02 -0.48206381120E+03  0.58212789766E+03  0.00000000000E+00 0.  1.
         21    1    1    2  502  501  0.11710933667E-03 -0.16990445946E-03 -0.10956263084E-02  0.11148897388E-02  0.00000000000E+00 0.  1.
<mgrwt>
<rscale>  1 0.65399708E+03</rscale>
<asrwt>0</asrwt>
<pdfrwt beam="1">  1        1 0.38883054E+00 0.65399708E+03</pdfrwt>
<pdfrwt beam="2">0</pdfrwt>
<totfact> 0.14987566E+00</totfact>
</mgrwt>
</event>
<event>
 6    1  0.5614394E-003  0.6771166E+03  0.7818608E-02  0.9757186E-01
          3   -1    0    0  502    0  0.00000000000E+00  0.00000000000E+00  0.11469349979E+03  0.11469349979E+03  0.00000000000E+00 0.  1.
         13   -1    0    0    0    0 -0.00000000000E+00 -0.00000000000E+00 -0.10000000000E+04  0.10000000000E+04  0.00000000000E+00 0.  1.
    9000005    2    1    2  501    0  0.30281979637E-01  0.58666314325E-01 -0.88536092635E+03  0.11146079373E+04  0.67711659234E+03 0.  0.
         13    1    3    3    0    0 -0.27683215118E+02  0.66436384214E+02  0.10188636512E+03  0.12474367697E+03  0.00000000000E+00 0.  1.
          3    1    3    3  501    0  0.27713497098E+02 -0.66377717900E+02 -0.98724729147E+03  0.98986426033E+03  0.00000000000E+00 0.  1.
         21    1    1    2  502  501 -0.30281979637E-01 -0.58666314325E-01  0.54426140092E-01  0.85562488583E-01  0.00000000000E+00 0.  1.
<mgrwt>
<rscale>  1 0.67711660E+03</rscale>
<asrwt>0</asrwt>
<pdfrwt beam="1">  1        3 0.41706815E+00 0.67711660E+03</pdfrwt>
<pdfrwt beam="2">0</pdfrwt>
<totfact> 0.48032633E-02</totfact>
</mgrwt>
</event>
<event>
 6    1  0.5614394E-003  0.6610176E+03  0.7818608E-02  0.9786322E-01
          1   -1    0    0  502    0  0.00000000000E+00  0.00000000000E+00  0.11131429389E+03  0.11131429389E+03  0.00000000000E+00 0.  1.
         13   -1    0    0    0    0 -0.00000000000E+00 -0.00000000000E+00 -0.10000000000E+04  0.10000000000E+04  0.00000000000E+00 0.  1.
    9000005    2    1    2  501    0  0.63688008716E-01 -0.45610592488E-01 -0.89076312976E+03  0.11092353938E+04  0.66101754851E+03 0.  0.
         13    1    3    3    0    0 -0.25789082528E+03 -0.18907184612E+03 -0.58548628723E+03  0.66712070369E+03  0.00000000000E+00 0.  1.
          3    1    3    3  501    0  0.25795451329E+03  0.18902623553E+03 -0.30527684252E+03  0.44211469013E+03  0.00000000000E+00 0.  1.
         21    1    1    2  502  501 -0.63688008716E-01  0.45610592488E-01  0.20774236459E+01  0.20789000681E+01  0.00000000000E+00 0. -1.
<mgrwt>
<rscale>  1 0.66101755E+03</rscale>
<asrwt>0</asrwt>
<pdfrwt beam="1">  1        1 0.40478010E+00 0.66101755E+03</pdfrwt>
<pdfrwt beam="2">0</pdfrwt>
<totfact> 0.12710665E+00</totfact>
</mgrwt>
</event>
<event>
 6    1  0.5614394E-003  0.6266510E+03  0.7818608E-02  0.9851606E-01
          1   -1    0    0  502    0  0.00000000000E+00  0.00000000000E+00  0.11033677480E+03  0.11033677480E+03  0.00000000000E+00 0.  1.
         13   -1    0    0    0    0 -0.00000000000E+00 -0.00000000000E+00 -0.10000000000E+04  0.10000000000E+04  0.00000000000E+00 0.  1.
    9000005    2    1    2  501    0 -0.15019327263E+01  0.60374989221E+01 -0.90094773982E+03  0.10974508342E+04  0.62662013723E+03 0.  0.
         13    1    3    3    0    0 -0.50595515483E+02 -0.29673481245E+03 -0.31272635697E+03  0.43406131992E+03  0.00000000000E+00 0.  1.
          3    1    3    3  501    0  0.49093582756E+02  0.30277231137E+03 -0.58822138285E+03  0.66338951427E+03  0.00000000000E+00 0.  1.
         21    1    1    2  502  501  0.15019327263E+01 -0.60374989221E+01  0.11284514622E+02  0.12885940610E+02  0.00000000000E+00 0.  1.
<mgrwt>
<rscale>  1 0.62665102E+03</rscale>
<asrwt>0</asrwt>
<pdfrwt beam="1">  1        1 0.40122548E+00 0.62665102E+03</pdfrwt>
<pdfrwt beam="2">0</pdfrwt>
<totfact> 0.13271387E+00</totfact>
</mgrwt>
</event>
<event>
 6    1  0.5614394E-003  0.6570879E+03  0.7818608E-02  0.9793569E-01
          1   -1    0    0  502    0  0.00000000000E+00  0.00000000000E+00  0.11159011288E+03  0.11159011288E+03  0.00000000000E+00 0.  1.
         13   -1    0    0    0    0 -0.00000000000E+00 -0.00000000000E+00 -0.10000000000E+04  0.10000000000E+04  0.00000000000E+00 0.  1.
    9000005    2    1    2  501    0  0.21441896584E+01  0.79336659220E-01 -0.89170606529E+03  0.11076570944E+04  0.65708441476E+03 0.  0.
         13    1    3    3    0    0 -0.14436553626E+03  0.28595481943E+03 -0.56493619057E+03  0.64943395832E+03  0.00000000000E+00 0.  1.
          1    1    3    3  501    0  0.14650972591E+03 -0.28587548277E+03 -0.32676987472E+03  0.45822313611E+03  0.00000000000E+00 0.  1.
         21    1    1    2  502  501 -0.21441896584E+01 -0.79336659220E-01  0.32961781679E+01  0.39330184479E+01  0.00000000000E+00 0. -1.
<mgrwt>
<rscale>  1 0.65708792E+03</rscale>
<asrwt>0</asrwt>
<pdfrwt beam="1">  1        1 0.40578308E+00 0.65708792E+03</pdfrwt>
<pdfrwt beam="2">0</pdfrwt>
<totfact> 0.12589467E+00</totfact>
</mgrwt>
</event>
<event>
 6    1  0.5614394E-003  0.6467843E+03  0.7818608E-02  0.9812832E-01
          1   -1    0    0  502    0  0.00000000000E+00  0.00000000000E+00  0.10458249935E+03  0.10458249935E+03  0.00000000000E+00 0.  1.
         13   -1    0    0    0    0 -0.00000000000E+00 -0.00000000000E+00 -0.10000000000E+04  0.10000000000E+04  0.00000000000E+00 0.  1.
    9000005    2    1    2  501    0 -0.14146207974E-05 -0.44848839025E-05 -0.89541751311E+03  0.11045824860E+04  0.64678431156E+03 0.  0.
         13    1    3    3    0    0  0.11871792731E+03  0.28144717948E+03 -0.62905838164E+03  0.69930029930E+03  0.00000000000E+00 0.  1.
          1    1    3    3  501    0 -0.11871792872E+03 -0.28144718397E+03 -0.26635913147E+03  0.40528218673E+03  0.00000000000E+00 0.  1.
         21    1    1    2  502  501  0.14146208014E-05  0.44848838779E-05  0.12461742742E-04  0.13319548325E-04  0.00000000000E+00 0. -1.
<mgrwt>
<rscale>  1 0.64678431E+03</rscale>
<asrwt>0</asrwt>
<pdfrwt beam="1">  1        1 0.38030080E+00 0.64678431E+03</pdfrwt>
<pdfrwt beam="2">0</pdfrwt>
<totfact> 0.16369321E+00</totfact>
</mgrwt>
</event>
<event>
 6    1  0.5614394E-003  0.6521851E+03  0.7818608E-02  0.9802688E-01
          1   -1    0    0  502    0  0.00000000000E+00  0.00000000000E+00  0.10636085812E+03  0.10636085812E+03  0.00000000000E+00 0.  1.
         13   -1    0    0    0    0 -0.00000000000E+00 -0.00000000000E+00 -0.10000000000E+04  0.10000000000E+04  0.00000000000E+00 0.  1.
    9000005    2    1    2  501    0  0.43084432801E-03 -0.56151848750E-03 -0.89366364317E+03  0.11063363466E+04  0.65218510004E+03 0.  0.
         13    1    3    3    0    0 -0.20967309374E+03  0.22511529836E+03 -0.63029203945E+03  0.70136136106E+03  0.00000000000E+00 0.  1.
          1    1    3    3  501    0  0.20967352458E+03 -0.22511585988E+03 -0.26337160372E+03  0.40497498555E+03  0.00000000000E+00 0.  1.
         21    1    1    2  502  501 -0.43084432802E-03  0.56151848749E-03  0.24501286321E-01  0.24511506711E-01  0.00000000000E+00 0. -1.
<mgrwt>
<rscale>  1 0.65218510E+03</rscale>
<asrwt>0</asrwt>
<pdfrwt beam="1">  1        1 0.38676757E+00 0.65218510E+03</pdfrwt>
<pdfrwt beam="2">0</pdfrwt>
<totfact> 0.15311402E+00</totfact>
</mgrwt>
</event>
<event>
 6    1  0.5614394E-003  0.6549114E+03  0.7818608E-02  0.9797607E-01
          1   -1    0    0  502    0  0.00000000000E+00  0.00000000000E+00  0.10722725304E+03  0.10722725304E+03  0.00000000000E+00 0.  1.
         13   -1    0    0    0    0 -0.00000000000E+00 -0.00000000000E+00 -0.10000000000E+04  0.10000000000E+04  0.00000000000E+00 0.  1.
    9000005    2    1    2  501    0 -0.33100341170E-05  0.29543010100E-05 -0.89277274818E+03  0.11072272484E+04  0.65491144424E+03 0.  0.
         13    1    3    3    0    0 -0.29681295695E+03 -0.40588907108E+02 -0.22285010339E+03  0.37337321727E+03  0.00000000000E+00 0.  1.
          3    1    3    3  501    0  0.29681295364E+03  0.40588910063E+02 -0.66992264479E+03  0.73385403117E+03  0.00000000000E+00 0.  1.
         21    1    1    2  502  501  0.33100340958E-05 -0.29543010076E-05  0.12242641083E-05  0.46025039670E-05  0.00000000000E+00 0.  1.
<mgrwt>
<rscale>  1 0.65491144E+03</rscale>
<asrwt>0</asrwt>
<pdfrwt beam="1">  1        1 0.38991811E+00 0.65491144E+03</pdfrwt>
<pdfrwt beam="2">0</pdfrwt>
<totfact> 0.14819583E+00</totfact>
</mgrwt>
</event>
<event>
 6    1  0.5614394E-003  0.6585610E+03  0.7818608E-02  0.9790846E-01
          1   -1    0    0  502    0  0.00000000000E+00  0.00000000000E+00  0.10842626199E+03  0.10842626199E+03  0.00000000000E+00 0.  1.
         13   -1    0    0    0    0 -0.00000000000E+00 -0.00000000000E+00 -0.10000000000E+04  0.10000000000E+04  0.00000000000E+00 0.  1.
    9000005    2    1    2  501    0  0.40562462743E-04 -0.81161908618E-04 -0.89157434178E+03  0.11084256514E+04  0.65856102058E+03 0.  0.
         13    1    3    3    0    0  0.26869302167E+03 -0.47281180772E+02 -0.13546483254E+03  0.30460165923E+03  0.00000000000E+00 0.  1.
          1    1    3    3  501    0 -0.26869298111E+03  0.47281099610E+02 -0.75610950924E+03  0.80382399220E+03  0.00000000000E+00 0.  1.
         21    1    1    2  502  501 -0.40562462772E-04  0.81161908617E-04  0.60377024192E-03  0.61054981273E-03  0.00000000000E+00 0. -1.
<mgrwt>
<rscale>  1 0.65856102E+03</rscale>
<asrwt>0</asrwt>
<pdfrwt beam="1">  1        1 0.39427815E+00 0.65856102E+03</pdfrwt>
<pdfrwt beam="2">0</pdfrwt>
<totfact> 0.14163933E+00</totfact>
</mgrwt>
</event>
<event>
 6    1  0.5614394E-003  0.6386780E+03  0.7818608E-02  0.9828259E-01
          1   -1    0    0  502    0  0.00000000000E+00  0.00000000000E+00  0.10268814934E+03  0.10268814934E+03  0.00000000000E+00 0.  1.
         13   -1    0    0    0    0 -0.00000000000E+00 -0.00000000000E+00 -0.10000000000E+04  0.10000000000E+04  0.00000000000E+00 0.  1.
    9000005    2    1    2  501    0  0.12663767959E+00  0.60360657884E-01 -0.89801496113E+03  0.11019711801E+04  0.63867800319E+03 0.  0.
         13    1    3    3    0    0  0.31534589832E+03  0.33847896959E+02 -0.51436127376E+03  0.60428158640E+03  0.00000000000E+00 0.  1.
          3    1    3    3  501    0 -0.31521926064E+03 -0.33787536301E+02 -0.38365368737E+03  0.49768959374E+03  0.00000000000E+00 0.  1.
         21    1    1    2  502  501 -0.12663767959E+00 -0.60360657884E-01  0.70311046404E+00  0.71696920126E+00  0.00000000000E+00 0.  1.
<mgrwt>
<rscale>  1 0.63867802E+03</rscale>
<asrwt>0</asrwt>
<pdfrwt beam="1">  1        1 0.37341224E+00 0.63867802E+03</pdfrwt>
<pdfrwt beam="2">0</pdfrwt>
<totfact> 0.17580215E+00</totfact>
</mgrwt>
</event>
<event>
 6    1  0.5614394E-003  0.6320633E+03  0.7818608E-02  0.9841031E-01
          1   -1    0    0  502    0  0.00000000000E+00  0.00000000000E+00  0.10066856824E+03  0.10066856824E+03  0.00000000000E+00 0.  1.
         13   -1    0    0    0    0 -0.00000000000E+00 -0.00000000000E+00 -0.10000000000E+04  0.10000000000E+04  0.00000000000E+00 0.  1.
    9000005    2    1    2  501    0  0.16009791004E-03  0.64160927153E-01 -0.90012256138E+03  0.10998748411E+04  0.63206331686E+03 0.  0.
         13    1    3    3    0    0  0.98181382412E+02 -0.29025994246E+03 -0.58443817494E+03  0.65989271732E+03  0.00000000000E+00 0.  1.
          3    1    3    3  501    0 -0.98181222314E+02  0.29032410339E+03 -0.31568438644E+03  0.43998212380E+03  0.00000000000E+00 0.  1.
         21    1    1    2  502  501 -0.16009791004E-03 -0.64160927153E-01  0.79112962314E+00  0.79372711357E+00  0.00000000000E+00 0.  1.
<mgrwt>
<rscale>  1 0.63206332E+03</rscale>
<asrwt>0</asrwt>
<pdfrwt beam="1">  1        1 0.36606829E+00 0.63206332E+03</pdfrwt>
<pdfrwt beam="2">0</pdfrwt>
<totfact> 0.18958161E+00</totfact>
</mgrwt>
</event>
<event>
 6    1  0.6113256E-003  0.6359587E+03  0.7818608E-02  0.9833489E-01
          1   -1    0    0  502    0  0.00000000000E+00  0.00000000000E+00  0.10111087204E+03  0.10111087204E+03  0.00000000000E+00 0.  1.
         13   -1    0    0    0    0 -0.00000000000E+00 -0.00000000000E+00 -0.10000000000E+04  0.10000000000E+04  0.00000000000E+00 0.  1.
    9000005    2    1    2  501    0  0.47705515271E-06 -0.84037191073E-06 -0.89888912851E+03  0.11011108709E+04  0.63595871306E+03 0.  0.
         13    1    3    3    0    0 -0.25195229006E+03  0.16607746750E+03 -0.62301175705E+03  0.69224658258E+03  0.00000000000E+00 0.  1.
          3    1    3    3  501    0  0.25195229054E+03 -0.16607746834E+03 -0.27587737147E+03  0.40886428835E+03  0.00000000000E+00 0.  1.
         21    1    1    2  502  501 -0.47705514419E-06  0.84037192726E-06  0.55611583997E-06  0.11149311253E-05  0.00000000000E+00 0. -1.
<mgrwt>
<rscale>  1 0.63595871E+03</rscale>
<asrwt>0</asrwt>
<pdfrwt beam="1">  1        1 0.36767667E+00 0.63595871E+03</pdfrwt>
<pdfrwt beam="2">0</pdfrwt>
<totfact> 0.18639517E+00</totfact>
</mgrwt>
</event>
<event>
 6    1  0.5614394E-003  0.6386446E+03  0.7818608E-02  0.9828323E-01
          1   -1    0    0  502    0  0.00000000000E+00  0.00000000000E+00  0.10235511651E+03  0.10235511651E+03  0.00000000000E+00 0.  1.
         13   -1    0    0    0    0 -0.00000000000E+00 -0.00000000000E+00 -0.10000000000E+04  0.10000000000E+04  0.00000000000E+00 0.  1.
    9000005    2    1    2  501    0 -0.12160334495E+00 -0.20297405669E+00 -0.89799318678E+03  0.11019340452E+04  0.63864451813E+03 0.  0.
         13    1    3    3    0    0  0.32839331293E+02 -0.27224137589E+03 -0.16651759784E+03  0.32081443050E+03  0.00000000000E+00 0.  1.
          3    1    3    3  501    0 -0.32960934638E+02  0.27203840184E+03 -0.73147558894E+03  0.78111961472E+03  0.00000000000E+00 0.  1.
         21    1    1    2  502  501  0.12160334495E+00  0.20297405669E+00  0.34830329412E+00  0.42107128362E+00  0.00000000000E+00 0. -1.
<mgrwt>
<rscale>  1 0.63864456E+03</rscale>
<asrwt>0</asrwt>
<pdfrwt beam="1">  1        1 0.37220121E+00 0.63864456E+03</pdfrwt>
<pdfrwt beam="2">0</pdfrwt>
<totfact> 0.17797208E+00</totfact>
</mgrwt>
</event>
<event>
 6    1  0.5614394E-003  0.6593070E+03  0.7818608E-02  0.9789470E-01
          1   -1    0    0  502    0  0.00000000000E+00  0.00000000000E+00  0.10867821527E+03  0.10867821527E+03  0.00000000000E+00 0.  1.
         13   -1    0    0    0    0 -0.00000000000E+00 -0.00000000000E+00 -0.10000000000E+04  0.10000000000E+04  0.00000000000E+00 0.  1.
    9000005    2    1    2  501    0  0.27328677172E-03  0.21586318374E-03 -0.89132857060E+03  0.11086714205E+04  0.65930698297E+03 0.  0.
         13    1    3    3    0    0  0.14592327452E+03 -0.27091220254E+02  0.49311744063E+02  0.15639432331E+03  0.00000000000E+00 0.  1.
          1    1    3    3  501    0 -0.14592300123E+03  0.27091436117E+02 -0.94064031467E+03  0.95227709716E+03  0.00000000000E+00 0.  1.
         21    1    1    2  502  501 -0.27328677171E-03 -0.21586318374E-03  0.67858714763E-02  0.67948020035E-02  0.00000000000E+00 0. -1.
<mgrwt>
<rscale>  1 0.65930698E+03</rscale>
<asrwt>0</asrwt>
<pdfrwt beam="1">  1        1 0.39519434E+00 0.65930698E+03</pdfrwt>
<pdfrwt beam="2">0</pdfrwt>
<totfact> 0.14029751E+00</totfact>
</mgrwt>
</event>
<event>
 6    1  0.5614394E-003  0.6472514E+03  0.7818608E-02  0.9811950E-01
          1   -1    0    0  502    0  0.00000000000E+00  0.00000000000E+00  0.10473958077E+03  0.10473958077E+03  0.00000000000E+00 0.  1.
         13   -1    0    0    0    0 -0.00000000000E+00 -0.00000000000E+00 -0.10000000000E+04  0.10000000000E+04  0.00000000000E+00 0.  1.
    9000005    2    1    2  501    0 -0.61221369776E-04 -0.63723204299E-04 -0.89526639656E+03  0.11047336028E+04  0.64725142898E+03 0.  0.
         13    1    3    3    0    0  0.20806973626E+03 -0.49964188392E+02 -0.86201904139E+03  0.88818143585E+03  0.00000000000E+00 0.  1.
          3    1    3    3  501    0 -0.20806979749E+03  0.49964124669E+02 -0.33247355169E+02  0.21655216694E+03  0.00000000000E+00 0.  1.
         21    1    1    2  502  501  0.61221369790E-04  0.63723204299E-04  0.59773269225E-02  0.59779800804E-02  0.00000000000E+00 0.  1.
<mgrwt>
<rscale>  1 0.64725143E+03</rscale>
<asrwt>0</asrwt>
<pdfrwt beam="1">  1        1 0.38087201E+00 0.64725143E+03</pdfrwt>
<pdfrwt beam="2">0</pdfrwt>
<totfact> 0.16273176E+00</totfact>
</mgrwt>
</event>
<event>
 6    1  0.5614394E-003  0.5634910E+03  0.7818608E-02  0.9984186E-01
          1   -1    0    0  502    0  0.00000000000E+00  0.00000000000E+00  0.79380777930E+02  0.79380777930E+02  0.00000000000E+00 0.  1.
         13   -1    0    0    0    0 -0.00000000000E+00 -0.00000000000E+00 -0.10000000000E+04  0.10000000000E+04  0.00000000000E+00 0.  1.
    9000005    2    1    2  501    0  0.24879498611E-04  0.25687523987E-04 -0.92061947319E+03  0.10793805243E+04  0.56349099528E+03 0.  0.
         13    1    3    3    0    0 -0.80118096644E+02  0.26034507488E+03 -0.32241779505E+03  0.42208020801E+03  0.00000000000E+00 0.  1.
          1    1    3    3  501    0  0.80118121523E+02 -0.26034504919E+03 -0.59820167814E+03  0.65730031627E+03  0.00000000000E+00 0.  1.
         21    1    1    2  502  501 -0.24879498607E-04 -0.25687523938E-04  0.25112190053E-03  0.25365537105E-03  0.00000000000E+00 0.  1.
<mgrwt>
<rscale>  1 0.56349100E+03</rscale>
<asrwt>0</asrwt>
<pdfrwt beam="1">  1        1 0.28865798E+00 0.56349100E+03</pdfrwt>
<pdfrwt beam="2">0</pdfrwt>
<totfact> 0.41565174E+00</totfact>
</mgrwt>
</event>
<event>
 6    1  0.5614394E-003  0.6481391E+03  0.7818608E-02  0.9810277E-01
          1   -1    0    0  502    0  0.00000000000E+00  0.00000000000E+00  0.10502199641E+03  0.10502199641E+03  0.00000000000E+00 0.  1.
         13   -1    0    0    0    0 -0.00000000000E+00 -0.00000000000E+00 -0.10000000000E+04  0.10000000000E+04  0.00000000000E+00 0.  1.
    9000005    2    1    2  501    0  0.12501027614E-02  0.29107764635E-03 -0.89497839531E+03  0.11050206544E+04  0.64813911982E+03 0.  0.
         13    1    3    3    0    0 -0.21652130714E+02 -0.24489190701E+03 -0.87513624289E+02  0.26095880005E+03  0.00000000000E+00 0.  1.
          1    1    3    3  501    0  0.21653380817E+02  0.24489219809E+03 -0.80746477102E+03  0.84406185438E+03  0.00000000000E+00 0.  1.
         21    1    1    2  502  501 -0.12501027614E-02 -0.29107764634E-03  0.39171862766E-03  0.13419860631E-02  0.00000000000E+00 0. -1.
<mgrwt>
<rscale>  1 0.64813912E+03</rscale>
<asrwt>0</asrwt>
<pdfrwt beam="1">  1        1 0.38189897E+00 0.64813912E+03</pdfrwt>
<pdfrwt beam="2">0</pdfrwt>
<totfact> 0.16101527E+00</totfact>
</mgrwt>
</event>
<event>
 6    1  0.5614394E-003  0.6532591E+03  0.7818608E-02  0.9800683E-01
          1   -1    0    0  502    0  0.00000000000E+00  0.00000000000E+00  0.10798368092E+03  0.10798368092E+03  0.00000000000E+00 0.  1.
         13   -1    0    0    0    0 -0.00000000000E+00 -0.00000000000E+00 -0.10000000000E+04  0.10000000000E+04  0.00000000000E+00 0.  1.
    9000005    2    1    2  501    0  0.17370688046E+01 -0.47513090344E+00 -0.89258135541E+03  0.11060962426E+04  0.65325659483E+03 0.  0.
         13    1    3    3    0    0 -0.71621702632E+00  0.81158892884E+02 -0.98179556766E+03  0.98514456580E+03  0.00000000000E+00 0.  1.
          3    1    3    3  501    0  0.24532858309E+01 -0.81634023787E+02  0.89214212245E+02  0.12095167679E+03  0.00000000000E+00 0.  1.
         21    1    1    2  502  501 -0.17370688046E+01  0.47513090344E+00  0.56503633292E+00  0.18874383340E+01  0.00000000000E+00 0. -1.
<mgrwt>
<rscale>  1 0.65325908E+03</rscale>
<asrwt>0</asrwt>
<pdfrwt beam="1">  1        1 0.39266876E+00 0.65325908E+03</pdfrwt>
<pdfrwt beam="2">0</pdfrwt>
<totfact> 0.14413295E+00</totfact>
</mgrwt>
</event>
<event>
 6    1  0.5614394E-003  0.5147444E+03  0.7818608E-02  0.1010000E+00
          1   -1    0    0  502    0  0.00000000000E+00  0.00000000000E+00  0.68149390181E+02  0.68149390181E+02  0.00000000000E+00 0.  1.
         13   -1    0    0    0    0 -0.00000000000E+00 -0.00000000000E+00 -0.10000000000E+04  0.10000000000E+04  0.00000000000E+00 0.  1.
    9000005    2    1    2  501    0  0.96010703321E+00 -0.27063352850E+01 -0.93256122145E+03  0.10651911770E+04  0.51473640419E+03 0.  0.
         13    1    3    3    0    0 -0.26814931128E+02  0.55229357199E+02 -0.98212733125E+03  0.98404441831E+03  0.00000000000E+00 0.  1.
          3    1    3    3  501    0  0.27775038161E+02 -0.57935692484E+02  0.49566109798E+02  0.81146758709E+02  0.00000000000E+00 0.  1.
         21    1    1    2  502  501 -0.96010703321E+00  0.27063352850E+01  0.71061163278E+00  0.29582131570E+01  0.00000000000E+00 0. -1.
<mgrwt>
<rscale>  1 0.51474441E+03</rscale>
<asrwt>0</asrwt>
<pdfrwt beam="1">  1        1 0.24781649E+00 0.51474441E+03</pdfrwt>
<pdfrwt beam="2">0</pdfrwt>
<totfact> 0.62968178E+00</totfact>
</mgrwt>
</event>
<event>
 6    1  0.5614394E-003  0.6533118E+03  0.7818608E-02  0.9800585E-01
          1   -1    0    0  502    0  0.00000000000E+00  0.00000000000E+00  0.10671684271E+03  0.10671684271E+03  0.00000000000E+00 0.  1.
         13   -1    0    0    0    0 -0.00000000000E+00 -0.00000000000E+00 -0.10000000000E+04  0.10000000000E+04  0.00000000000E+00 0.  1.
    9000005    2    1    2  501    0  0.14077654864E-02 -0.36402277550E-03 -0.89329586355E+03  0.11067040535E+04  0.65331184151E+03 0.  0.
         13    1    3    3    0    0 -0.26761081315E+03 -0.17431165709E+03 -0.56282682289E+03  0.64712760232E+03  0.00000000000E+00 0.  1.
          3    1    3    3  501    0  0.26761222091E+03  0.17431129307E+03 -0.33046904065E+03  0.45957645121E+03  0.00000000000E+00 0.  1.
         21    1    1    2  502  501 -0.14077654864E-02  0.36402277551E-03  0.12706260370E-01  0.12789189530E-01  0.00000000000E+00 0. -1.
<mgrwt>
<rscale>  1 0.65331184E+03</rscale>
<asrwt>0</asrwt>
<pdfrwt beam="1">  1        1 0.38806206E+00 0.65331184E+03</pdfrwt>
<pdfrwt beam="2">0</pdfrwt>
<totfact> 0.15107460E+00</totfact>
</mgrwt>
</event>
<event>
 6    1  0.5614394E-003  0.6441326E+03  0.7818608E-02  0.9817852E-01
          3   -1    0    0  502    0  0.00000000000E+00  0.00000000000E+00  0.10373081491E+03  0.10373081491E+03  0.00000000000E+00 0.  1.
         13   -1    0    0    0    0 -0.00000000000E+00 -0.00000000000E+00 -0.10000000000E+04  0.10000000000E+04  0.00000000000E+00 0.  1.
    9000005    2    1    2  501    0  0.52132522535E-03  0.19451805713E-05 -0.89627329186E+03  0.11037266752E+04  0.64413256385E+03 0.  0.
         13    1    3    3    0    0 -0.31285020810E+03 -0.41923623375E+02 -0.33850275426E+03  0.46283577817E+03  0.00000000000E+00 0.  1.
          3    1    3    3  501    0  0.31285072943E+03  0.41923625320E+02 -0.55777053760E+03  0.64089089702E+03  0.00000000000E+00 0.  1.
         21    1    1    2  502  501 -0.52132522536E-03 -0.19451805728E-05  0.41067666529E-02  0.41397241594E-02  0.00000000000E+00 0. -1.
<mgrwt>
<rscale>  1 0.64413256E+03</rscale>
<asrwt>0</asrwt>
<pdfrwt beam="1">  1        3 0.37720376E+00 0.64413256E+03</pdfrwt>
<pdfrwt beam="2">0</pdfrwt>
<totfact> 0.78167336E-02</totfact>
</mgrwt>
</event>
<event>
 6    1  0.5614394E-003  0.6468077E+03  0.7818608E-02  0.9812788E-01
          1   -1    0    0  502    0  0.00000000000E+00  0.00000000000E+00  0.11063255974E+03  0.11063255974E+03  0.00000000000E+00 0.  1.
         13   -1    0    0    0    0 -0.00000000000E+00 -0.00000000000E+00 -0.10000000000E+04  0.10000000000E+04  0.00000000000E+00 0.  1.
    9000005    2    1    2  501    0  0.30143525298E+00 -0.14161242025E+00 -0.89540489586E+03  0.11045859254E+04  0.64680756648E+03 0.  0.
         13    1    3    3    0    0  0.19841257538E+03 -0.12037143494E+03 -0.62921520464E+02  0.24044947527E+03  0.00000000000E+00 0.  1.
          1    1    3    3  501    0 -0.19811114013E+03  0.12022982252E+03 -0.83248337539E+03  0.86413645009E+03  0.00000000000E+00 0.  1.
         21    1    1    2  502  501 -0.30143525298E+00  0.14161242025E+00  0.60374555945E+01  0.60466343816E+01  0.00000000000E+00 0.  1.
<mgrwt>
<rscale>  1 0.64680765E+03</rscale>
<asrwt>0</asrwt>
<pdfrwt beam="1">  1        1 0.40230107E+00 0.64680765E+03</pdfrwt>
<pdfrwt beam="2">0</pdfrwt>
<totfact> 0.13074273E+00</totfact>
</mgrwt>
</event>
<event>
 6    1  0.5614394E-003  0.6479978E+03  0.7818608E-02  0.9810543E-01
          1   -1    0    0  502    0  0.00000000000E+00  0.00000000000E+00  0.10507223657E+03  0.10507223657E+03  0.00000000000E+00 0.  1.
         13   -1    0    0    0    0 -0.00000000000E+00 -0.00000000000E+00 -0.10000000000E+04  0.10000000000E+04  0.00000000000E+00 0.  1.
    9000005    2    1    2  501    0 -0.43734802875E-02 -0.38335029887E-02 -0.89502462563E+03  0.11049751999E+04  0.64799777155E+03 0.  0.
         13    1    3    3    0    0 -0.43233323449E+02 -0.28367274382E+03 -0.19095414248E+03  0.34467786464E+03  0.00000000000E+00 0.  1.
          3    1    3    3  501    0  0.43228949969E+02  0.28366891032E+03 -0.70407048315E+03  0.76029733529E+03  0.00000000000E+00 0.  1.
         21    1    1    2  502  501  0.43734802875E-02  0.38335029887E-02  0.96862207449E-01  0.97036644145E-01  0.00000000000E+00 0. -1.
<mgrwt>
<rscale>  1 0.64799777E+03</rscale>
<asrwt>0</asrwt>
<pdfrwt beam="1">  1        1 0.38208167E+00 0.64799777E+03</pdfrwt>
<pdfrwt beam="2">0</pdfrwt>
<totfact> 0.16072058E+00</totfact>
</mgrwt>
</event>
<event>
 6    1  0.5614394E-003  0.6253431E+03  0.7818608E-02  0.9854179E-01
          1   -1    0    0  502    0  0.00000000000E+00  0.00000000000E+00  0.10253288399E+03  0.10253288399E+03  0.00000000000E+00 0.  1.
         13   -1    0    0    0    0 -0.00000000000E+00 -0.00000000000E+00 -0.10000000000E+04  0.10000000000E+04  0.00000000000E+00 0.  1.
    9000005    2    1    2  501    0 -0.16356604592E+01  0.93751154111E+01 -0.89637864260E+03  0.10929541080E+04  0.62527069596E+03 0.  0.
         13    1    3    3    0    0 -0.20239789031E+03 -0.12395601382E+03 -0.94192549695E+02  0.25534728465E+03  0.00000000000E+00 0.  1.
          3    1    3    3  501    0  0.20076222985E+03  0.13333112923E+03 -0.80218609290E+03  0.83760682340E+03  0.00000000000E+00 0.  1.
         21    1    1    2  502  501  0.16356604592E+01 -0.93751154111E+01 -0.10884734163E+01  0.95787759389E+01  0.00000000000E+00 0. -1.
<mgrwt>
<rscale>  1 0.62534311E+03</rscale>
<asrwt>0</asrwt>
<pdfrwt beam="1">  1        1 0.37284764E+00 0.62534311E+03</pdfrwt>
<pdfrwt beam="2">0</pdfrwt>
<totfact> 0.17724620E+00</totfact>
</mgrwt>
</event>
<event>
 6    1  0.5614394E-003  0.6613157E+03  0.7818608E-02  0.9785775E-01
          1   -1    0    0  502    0  0.00000000000E+00  0.00000000000E+00  0.10940027621E+03  0.10940027621E+03  0.00000000000E+00 0.  1.
         13   -1    0    0    0    0 -0.00000000000E+00 -0.00000000000E+00 -0.10000000000E+04  0.10000000000E+04  0.00000000000E+00 0.  1.
    9000005    2    1    2  501    0 -0.51217785503E-02  0.35492734002E-02 -0.89066521166E+03  0.11093344925E+04  0.66131573173E+03 0.  0.
         13    1    3    3    0    0  0.28538557130E+03 -0.78021662686E+02 -0.19765091131E+03  0.35580638962E+03  0.00000000000E+00 0.  1.
          1    1    3    3  501    0 -0.28539069308E+03  0.78025211959E+02 -0.69301430035E+03  0.75352810292E+03  0.00000000000E+00 0.  1.
         21    1    1    2  502  501  0.51217785503E-02 -0.35492734002E-02  0.65487870799E-01  0.65783669547E-01  0.00000000000E+00 0. -1.
<mgrwt>
<rscale>  1 0.66131573E+03</rscale>
<asrwt>0</asrwt>
<pdfrwt beam="1">  1        1 0.39782003E+00 0.66131573E+03</pdfrwt>
<pdfrwt beam="2">0</pdfrwt>
<totfact> 0.13652166E+00</totfact>
</mgrwt>
</event>
<event>
 6    1  0.5614394E-003  0.6265761E+03  0.7818608E-02  0.9851753E-01
          1   -1    0    0  502    0  0.00000000000E+00  0.00000000000E+00  0.98189865681E+02  0.98189865681E+02  0.00000000000E+00 0.  1.
         13   -1    0    0    0    0 -0.00000000000E+00 -0.00000000000E+00 -0.10000000000E+04  0.10000000000E+04  0.00000000000E+00 0.  1.
    9000005    2    1    2  501    0  0.24300890199E-01 -0.64687395738E-01 -0.90181549014E+03  0.10981205571E+04  0.62657607274E+03 0.  0.
         13    1    3    3    0    0 -0.13544323079E+03  0.31252888334E+02  0.41145390065E+02  0.14496397801E+03  0.00000000000E+00 0.  1.
          1    1    3    3  501    0  0.13546753169E+03 -0.31317575730E+02 -0.94296088021E+03  0.95315657910E+03  0.00000000000E+00 0.  1.
         21    1    1    2  502  501 -0.24300890200E-01  0.64687395738E-01  0.53558209700E-02  0.69308565488E-01  0.00000000000E+00 0. -1.
<mgrwt>
<rscale>  1 0.62657608E+03</rscale>
<asrwt>0</asrwt>
<pdfrwt beam="1">  1        1 0.35705481E+00 0.62657608E+03</pdfrwt>
<pdfrwt beam="2">0</pdfrwt>
<totfact> 0.20781217E+00</totfact>
</mgrwt>
</event>
<event>
 6    1  0.5614394E-003  0.6442480E+03  0.7818608E-02  0.9817633E-01
          1   -1    0    0  502    0  0.00000000000E+00  0.00000000000E+00  0.10376494532E+03  0.10376494532E+03  0.00000000000E+00 0.  1.
         13   -1    0    0    0    0 -0.00000000000E+00 -0.00000000000E+00 -0.10000000000E+04  0.10000000000E+04  0.00000000000E+00 0.  1.
    9000005    2    1    2  501    0  0.18389179671E-02 -0.34001472980E-03 -0.89623512316E+03  0.11037630740E+04  0.64424803258E+03 0.  0.
         13    1    3    3    0    0  0.20990584774E+03 -0.19265394299E+03 -0.19062591423E+03  0.34280350909E+03  0.00000000000E+00 0.  1.
          3    1    3    3  501    0 -0.20990400883E+03  0.19265360298E+03 -0.70560920893E+03  0.76095956489E+03  0.00000000000E+00 0.  1.
         21    1    1    2  502  501 -0.18389179671E-02  0.34001472980E-03  0.68477678938E-04  0.18713413635E-02  0.00000000000E+00 0.  1.
<mgrwt>
<rscale>  1 0.64424803E+03</rscale>
<asrwt>0</asrwt>
<pdfrwt beam="1">  1        1 0.37732787E+00 0.64424803E+03</pdfrwt>
<pdfrwt beam="2">0</pdfrwt>
<totfact> 0.16878843E+00</totfact>
</mgrwt>
</event>
<event>
 6    1  0.5614394E-003  0.6484296E+03  0.7818608E-02  0.9809730E-01
          3   -1    0    0  502    0  0.00000000000E+00  0.00000000000E+00  0.10513399995E+03  0.10513399995E+03  0.00000000000E+00 0.  1.
         13   -1    0    0    0    0 -0.00000000000E+00 -0.00000000000E+00 -0.10000000000E+04  0.10000000000E+04  0.00000000000E+00 0.  1.
    9000005    2    1    2  501    0  0.13129348359E-02 -0.12803223368E-01 -0.89488231176E+03  0.11051132221E+04  0.64842955025E+03 0.  0.
         13    1    3    3    0    0  0.41111828152E+02 -0.11296951283E+03  0.65727044019E+02  0.13701218033E+03  0.00000000000E+00 0.  1.
          3    1    3    3  501    0 -0.41110515217E+02  0.11295670960E+03 -0.96060935578E+03  0.96810104179E+03  0.00000000000E+00 0.  1.
         21    1    1    2  502  501 -0.13129348359E-02  0.12803223368E-01  0.16311712363E-01  0.20777831617E-01  0.00000000000E+00 0.  1.
<mgrwt>
<rscale>  1 0.64842955E+03</rscale>
<asrwt>0</asrwt>
<pdfrwt beam="1">  1        3 0.38230626E+00 0.64842955E+03</pdfrwt>
<pdfrwt beam="2">0</pdfrwt>
<totfact> 0.73411322E-02</totfact>
</mgrwt>
</event>
<event>
 6    1  0.5614394E-003  0.6538610E+03  0.7818608E-02  0.9799561E-01
          1   -1    0    0  502    0  0.00000000000E+00  0.00000000000E+00  0.10688488868E+03  0.10688488868E+03  0.00000000000E+00 0.  1.
         13   -1    0    0    0    0 -0.00000000000E+00 -0.00000000000E+00 -0.10000000000E+04  0.10000000000E+04  0.00000000000E+00 0.  1.
    9000005    2    1    2  501    0  0.16070088860E-02 -0.10726494924E-02 -0.89311563080E+03  0.11068828880E+04  0.65386099262E+03 0.  0.
         13    1    3    3    0    0 -0.69766731363E+02 -0.29703748986E+03 -0.24780189024E+03  0.39307053311E+03  0.00000000000E+00 0.  1.
          3    1    3    3  501    0  0.69768338371E+02  0.29703641721E+03 -0.64531374055E+03  0.71381235485E+03  0.00000000000E+00 0.  1.
         21    1    1    2  502  501 -0.16070088860E-02  0.10726494924E-02  0.51947752963E-03  0.20007277168E-02  0.00000000000E+00 0.  1.
<mgrwt>
<rscale>  1 0.65386099E+03</rscale>
<asrwt>0</asrwt>
<pdfrwt beam="1">  1        1 0.38867314E+00 0.65386099E+03</pdfrwt>
<pdfrwt beam="2">0</pdfrwt>
<totfact> 0.15012037E+00</totfact>
</mgrwt>
</event>
<event>
 6    1  0.5614394E-003  0.6293590E+03  0.7818608E-02  0.9846300E-01
          1   -1    0    0  502    0  0.00000000000E+00  0.00000000000E+00  0.10037475227E+03  0.10037475227E+03  0.00000000000E+00 0.  1.
         13   -1    0    0    0    0 -0.00000000000E+00 -0.00000000000E+00 -0.10000000000E+04  0.10000000000E+04  0.00000000000E+00 0.  1.
    9000005    2    1    2  501    0 -0.21668351119E-01 -0.90349561503E-02 -0.90097668910E+03  0.10990231070E+04  0.62935903495E+03 0.  0.
         13    1    3    3    0    0 -0.18023921525E+03 -0.22358206768E+02 -0.89925957677E+03  0.91741694476E+03  0.00000000000E+00 0.  1.
          1    1    3    3  501    0  0.18021754690E+03  0.22349171812E+02 -0.17171123322E+01  0.18160616224E+03  0.00000000000E+00 0.  1.
         21    1    1    2  502  501  0.21668351119E-01  0.90349561503E-02  0.13514413667E+01  0.13516452625E+01  0.00000000000E+00 0. -1.
<mgrwt>
<rscale>  1 0.62935904E+03</rscale>
<asrwt>0</asrwt>
<pdfrwt beam="1">  1        1 0.36499987E+00 0.62935904E+03</pdfrwt>
<pdfrwt beam="2">0</pdfrwt>
<totfact> 0.19173127E+00</totfact>
</mgrwt>
</event>
<event>
 6    1  0.5614394E-003  0.6324311E+03  0.7818608E-02  0.9840316E-01
          1   -1    0    0  502    0  0.00000000000E+00  0.00000000000E+00  0.10000158838E+03  0.10000158838E+03  0.00000000000E+00 0.  1.
         13   -1    0    0    0    0 -0.00000000000E+00 -0.00000000000E+00 -0.10000000000E+04  0.10000000000E+04  0.00000000000E+00 0.  1.
    9000005    2    1    2  501    0  0.21459362691E-01 -0.10924514165E-01 -0.89998592942E+03  0.10999744654E+04  0.63243114318E+03 0.  0.
         13    1    3    3    0    0  0.44327032149E+02 -0.11045821722E+03  0.59550322885E+02  0.13308698091E+03  0.00000000000E+00 0.  1.
          3    1    3    3  501    0 -0.44305572786E+02  0.11044729271E+03 -0.95953625231E+03  0.96688748453E+03  0.00000000000E+00 0.  1.
         21    1    1    2  502  501 -0.21459362691E-01  0.10924514165E-01 -0.12482193214E-01  0.27122949771E-01  0.00000000000E+00 0. -1.
<mgrwt>
<rscale>  1 0.63243114E+03</rscale>
<asrwt>0</asrwt>
<pdfrwt beam="1">  1        1 0.36364291E+00 0.63243114E+03</pdfrwt>
<pdfrwt beam="2">0</pdfrwt>
<totfact> 0.19426521E+00</totfact>
</mgrwt>
</event>
<event>
 6    1  0.5614394E-003  0.6657063E+03  0.7818608E-02  0.9777746E-01
          1   -1    0    0  502    0  0.00000000000E+00  0.00000000000E+00  0.11274890373E+03  0.11274890373E+03  0.00000000000E+00 0.  1.
         13   -1    0    0    0    0 -0.00000000000E+00 -0.00000000000E+00 -0.10000000000E+04  0.10000000000E+04  0.00000000000E+00 0.  1.
    9000005    2    1    2  501    0  0.14215868450E-01  0.74166512537E-01 -0.88920796156E+03  0.11107905819E+04  0.66570632577E+03 0.  0.
         13    1    3    3    0    0  0.28583947916E+03  0.87500756122E+02 -0.20029675444E+03  0.35983243324E+03  0.00000000000E+00 0.  1.
          3    1    3    3  501    0 -0.28582526330E+03 -0.87426589610E+02 -0.68891120711E+03  0.75095814863E+03  0.00000000000E+00 0.  1.
         21    1    1    2  502  501 -0.14215868450E-01 -0.74166512537E-01  0.19568652821E+01  0.19583218568E+01  0.00000000000E+00 0.  1.
<mgrwt>
<rscale>  1 0.66570633E+03</rscale>
<asrwt>0</asrwt>
<pdfrwt beam="1">  1        1 0.40999688E+00 0.66570633E+03</pdfrwt>
<pdfrwt beam="2">0</pdfrwt>
<totfact> 0.12034332E+00</totfact>
</mgrwt>
</event>
<event>
 6    1  0.5614394E-003  0.6443999E+03  0.7818608E-02  0.9817345E-01
          1   -1    0    0  502    0  0.00000000000E+00  0.00000000000E+00  0.10415154830E+03  0.10415154830E+03  0.00000000000E+00 0.  1.
         13   -1    0    0    0    0 -0.00000000000E+00 -0.00000000000E+00 -0.10000000000E+04  0.10000000000E+04  0.00000000000E+00 0.  1.
    9000005    2    1    2  501    0 -0.67956330520E-02 -0.18516316542E-01 -0.89618688621E+03  0.11038125395E+04  0.64439986577E+03 0.  0.
         13    1    3    3    0    0 -0.14595816445E+03  0.28413567109E+03 -0.52018340892E+03  0.61043234209E+03  0.00000000000E+00 0.  1.
          1    1    3    3  501    0  0.14595136881E+03 -0.28415418741E+03 -0.37600347729E+03  0.49338019743E+03  0.00000000000E+00 0.  1.
         21    1    1    2  502  501  0.67956330520E-02  0.18516316542E-01  0.33843451350E+00  0.33900878239E+00  0.00000000000E+00 0.  1.
<mgrwt>
<rscale>  1 0.64439987E+03</rscale>
<asrwt>0</asrwt>
<pdfrwt beam="1">  1        1 0.37873370E+00 0.64439987E+03</pdfrwt>
<pdfrwt beam="2">0</pdfrwt>
<totfact> 0.16639248E+00</totfact>
</mgrwt>
</event>
<event>
 6    1  0.5614394E-003  0.6582495E+03  0.7818608E-02  0.9791421E-01
          1   -1    0    0  502    0  0.00000000000E+00  0.00000000000E+00  0.10853455717E+03  0.10853455717E+03  0.00000000000E+00 0.  1.
         13   -1    0    0    0    0 -0.00000000000E+00 -0.00000000000E+00 -0.10000000000E+04  0.10000000000E+04  0.00000000000E+00 0.  1.
    9000005    2    1    2  501    0 -0.34171603789E-01  0.16664303840E-01 -0.89167499086E+03  0.11083215882E+04  0.65824953638E+03 0.  0.
         13    1    3    3    0    0 -0.11030540025E+03  0.17781619328E+03 -0.18088511468E+02  0.21003112665E+03  0.00000000000E+00 0.  1.
          3    1    3    3  501    0  0.11027122864E+03 -0.17779952897E+03 -0.87358647939E+03  0.89829046157E+03  0.00000000000E+00 0.  1.
         21    1    1    2  502  501  0.34171603789E-01 -0.16664303840E-01  0.20954803285E+00  0.21296895454E+00  0.00000000000E+00 0. -1.
<mgrwt>
<rscale>  1 0.65824954E+03</rscale>
<asrwt>0</asrwt>
<pdfrwt beam="1">  1        1 0.39467195E+00 0.65824954E+03</pdfrwt>
<pdfrwt beam="2">0</pdfrwt>
<totfact> 0.14107771E+00</totfact>
</mgrwt>
</event>
<event>
 6    1  0.5614394E-003  0.6437512E+03  0.7818608E-02  0.9818576E-01
          1   -1    0    0  502    0  0.00000000000E+00  0.00000000000E+00  0.10360395008E+03  0.10360395008E+03  0.00000000000E+00 0.  1.
         13   -1    0    0    0    0 -0.00000000000E+00 -0.00000000000E+00 -0.10000000000E+04  0.10000000000E+04  0.00000000000E+00 0.  1.
    9000005    2    1    2  501    0 -0.89169452764E-04  0.58295186278E-04 -0.89639600392E+03  0.11036038340E+04  0.64375121488E+03 0.  0.
         13    1    3    3    0    0  0.19808397523E+03 -0.25370345891E+03 -0.45005060672E+03  0.55330665540E+03  0.00000000000E+00 0.  1.
          1    1    3    3  501    0 -0.19808406440E+03  0.25370351720E+03 -0.44634539720E+03  0.55029717863E+03  0.00000000000E+00 0.  1.
         21    1    1    2  502  501  0.89169452759E-04 -0.58295186291E-04 -0.46005438015E-04  0.11604318324E-03  0.00000000000E+00 0. -1.
<mgrwt>
<rscale>  1 0.64375121E+03</rscale>
<asrwt>0</asrwt>
<pdfrwt beam="1">  1        1 0.37674243E+00 0.64375121E+03</pdfrwt>
<pdfrwt beam="2">0</pdfrwt>
<totfact> 0.16980937E+00</totfact>
</mgrwt>
</event>
<event>
 6    1  0.5614394E-003  0.6515923E+03  0.7818608E-02  0.9803796E-01
          1   -1    0    0  502    0  0.00000000000E+00  0.00000000000E+00  0.11030816376E+03  0.11030816376E+03  0.00000000000E+00 0.  1.
         13   -1    0    0    0    0 -0.00000000000E+00 -0.00000000000E+00 -0.10000000000E+04  0.10000000000E+04  0.00000000000E+00 0.  1.
    9000005    2    1    2  501    0 -0.20115713962E-01  0.78092158723E-01 -0.89385643555E+03  0.11061427838E+04  0.65159229907E+03 0.  0.
         13    1    3    3    0    0  0.17582988228E+03 -0.19717577923E+03 -0.77045705080E+03  0.81449278852E+03  0.00000000000E+00 0.  1.
          3    1    3    3  501    0 -0.17584999800E+03  0.19725387139E+03 -0.12339938475E+03  0.29164999525E+03  0.00000000000E+00 0.  1.
         21    1    1    2  502  501  0.20115713962E-01 -0.78092158723E-01  0.41645993084E+01  0.41653799859E+01  0.00000000000E+00 0.  1.
<mgrwt>
<rscale>  1 0.65159230E+03</rscale>
<asrwt>0</asrwt>
<pdfrwt beam="1">  1        1 0.40112144E+00 0.65159230E+03</pdfrwt>
<pdfrwt beam="2">0</pdfrwt>
<totfact> 0.13221570E+00</totfact>
</mgrwt>
</event>
<event>
 6    1  0.5614394E-003  0.6479731E+03  0.7818608E-02  0.9810590E-01
          1   -1    0    0  502    0  0.00000000000E+00  0.00000000000E+00  0.10496800522E+03  0.10496800522E+03  0.00000000000E+00 0.  1.
         13   -1    0    0    0    0 -0.00000000000E+00 -0.00000000000E+00 -0.10000000000E+04  0.10000000000E+04  0.00000000000E+00 0.  1.
    9000005    2    1    2  501    0 -0.29104296845E-05  0.66045291888E-04 -0.89503270651E+03  0.11049672904E+04  0.64797312226E+03 0.  0.
         13    1    3    3    0    0 -0.32820276965E+00  0.10283437843E+03 -0.97143117366E+03  0.97685901863E+03  0.00000000000E+00 0.  1.
          3    1    3    3  501    0  0.32819985922E+00 -0.10283431239E+03  0.76398467149E+02  0.12810827180E+03  0.00000000000E+00 0.  1.
         21    1    1    2  502  501  0.29104296845E-05 -0.66045291891E-04  0.71173349998E-03  0.71479719234E-03  0.00000000000E+00 0.  1.
<mgrwt>
<rscale>  1 0.64797312E+03</rscale>
<asrwt>0</asrwt>
<pdfrwt beam="1">  1        1 0.38170264E+00 0.64797312E+03</pdfrwt>
<pdfrwt beam="2">0</pdfrwt>
<totfact> 0.16134197E+00</totfact>
</mgrwt>
</event>
<event>
 6    1  0.5614394E-003  0.6319270E+03  0.7818608E-02  0.9841296E-01
          1   -1    0    0  502    0  0.00000000000E+00  0.00000000000E+00  0.99991145571E+02  0.99991145571E+02  0.00000000000E+00 0.  1.
         13   -1    0    0    0    0 -0.00000000000E+00 -0.00000000000E+00 -0.10000000000E+04  0.10000000000E+04  0.00000000000E+00 0.  1.
    9000005    2    1    2  501    0 -0.11994615064E-01  0.69782867786E-02 -0.90016672874E+03  0.10998326626E+04  0.63192700995E+03 0.  0.
         13    1    3    3    0    0 -0.14191861442E+03 -0.94226737304E+02  0.13063050969E+02  0.17085143969E+03  0.00000000000E+00 0.  1.
          1    1    3    3  501    0  0.14190661981E+03  0.94233715591E+02 -0.91322977971E+03  0.92898122287E+03  0.00000000000E+00 0.  1.
         21    1    1    2  502  501  0.11994615064E-01 -0.69782867786E-02  0.15787431023E+00  0.15848301204E+00  0.00000000000E+00 0. -1.
<mgrwt>
<rscale>  1 0.63192701E+03</rscale>
<asrwt>0</asrwt>
<pdfrwt beam="1">  1        1 0.36360493E+00 0.63192701E+03</pdfrwt>
<pdfrwt beam="2">0</pdfrwt>
<totfact> 0.19435737E+00</totfact>
</mgrwt>
</event>
<event>
 6    1  0.5614394E-003  0.6022326E+03  0.7818608E-02  0.9900785E-01
          1   -1    0    0  502    0  0.00000000000E+00  0.00000000000E+00  0.90672533633E+02  0.90672533633E+02  0.00000000000E+00 0.  1.
         13   -1    0    0    0    0 -0.00000000000E+00 -0.00000000000E+00 -0.10000000000E+04  0.10000000000E+04  0.00000000000E+00 0.  1.
    9000005    2    1    2  501    0 -0.14996615470E-02 -0.85624595746E-03 -0.90932839709E+03  0.10906705719E+04  0.60223264829E+03 0.  0.
         13    1    3    3    0    0 -0.29880319548E+03  0.18608325109E+02 -0.51312175605E+03  0.59407369570E+03  0.00000000000E+00 0.  1.
          1    1    3    3  501    0  0.29880169581E+03 -0.18609181355E+02 -0.39620664104E+03  0.49659687620E+03  0.00000000000E+00 0.  1.
         21    1    1    2  502  501  0.14996615470E-02  0.85624595746E-03  0.93072204634E-03  0.19617302115E-02  0.00000000000E+00 0.  1.
<mgrwt>
<rscale>  1 0.60223265E+03</rscale>
<asrwt>0</asrwt>
<pdfrwt beam="1">  1        1 0.32971900E+00 0.60223265E+03</pdfrwt>
<pdfrwt beam="2">0</pdfrwt>
<totfact> 0.27442469E+00</totfact>
</mgrwt>
</event>
<event>
 6    1  0.5614394E-003  0.6637485E+03  0.7818608E-02  0.9781318E-01
          1   -1    0    0  502    0  0.00000000000E+00  0.00000000000E+00  0.11014059821E+03  0.11014059821E+03  0.00000000000E+00 0.  1.
         13   -1    0    0    0    0 -0.00000000000E+00 -0.00000000000E+00 -0.10000000000E+04  0.10000000000E+04  0.00000000000E+00 0.  1.
    9000005    2    1    2  501    0  0.10674901910E-03 -0.26017527798E-04 -0.88985943174E+03  0.11101404843E+04  0.66374851162E+03 0.  0.
         13    1    3    3    0    0 -0.32708214484E+03  0.21883076218E+02 -0.35836279050E+03  0.48568043827E+03  0.00000000000E+00 0.  1.
          3    1    3    3  501    0  0.32708225159E+03 -0.21883102236E+02 -0.53149664124E+03  0.62446004606E+03  0.00000000000E+00 0.  1.
         21    1    1    2  502  501 -0.10674901909E-03  0.26017527797E-04  0.29946435483E-04  0.11388175371E-03  0.00000000000E+00 0.  1.
<mgrwt>
<rscale>  1 0.66374851E+03</rscale>
<asrwt>0</asrwt>
<pdfrwt beam="1">  1        1 0.40051211E+00 0.66374851E+03</pdfrwt>
<pdfrwt beam="2">0</pdfrwt>
<totfact> 0.13274093E+00</totfact>
</mgrwt>
</event>
<event>
 6    1  0.5614394E-003  0.6519593E+03  0.7818608E-02  0.9803110E-01
          1   -1    0    0  502    0  0.00000000000E+00  0.00000000000E+00  0.10627176011E+03  0.10627176011E+03  0.00000000000E+00 0.  1.
         13   -1    0    0    0    0 -0.00000000000E+00 -0.00000000000E+00 -0.10000000000E+04  0.10000000000E+04  0.00000000000E+00 0.  1.
    9000005    2    1    2  501    0  0.43618794341E-02 -0.31995389238E-02 -0.89373637273E+03  0.11062619925E+04  0.65195927180E+03 0.  0.
         13    1    3    3    0    0 -0.20212048814E+02  0.23345249948E+03 -0.83138885151E+03  0.86378007551E+03  0.00000000000E+00 0.  1.
          1    1    3    3  501    0  0.20216410693E+02 -0.23345569902E+03 -0.62347521220E+02  0.24248191699E+03  0.00000000000E+00 0.  1.
         21    1    1    2  502  501 -0.43618794341E-02  0.31995389238E-02  0.81328400268E-02  0.97676060744E-02  0.00000000000E+00 0. -1.
<mgrwt>
<rscale>  1 0.65195927E+03</rscale>
<asrwt>0</asrwt>
<pdfrwt beam="1">  1        1 0.38644358E+00 0.65195927E+03</pdfrwt>
<pdfrwt beam="2">0</pdfrwt>
<totfact> 0.15362694E+00</totfact>
</mgrwt>
</event>
<event>
 6    1  0.5614394E-003  0.7013914E+03  0.7818608E-02  0.9714856E-01
          1   -1    0    0  502    0  0.00000000000E+00  0.00000000000E+00  0.12325756441E+03  0.12325756441E+03  0.00000000000E+00 0.  1.
         13   -1    0    0    0    0 -0.00000000000E+00 -0.00000000000E+00 -0.10000000000E+04  0.10000000000E+04  0.00000000000E+00 0.  1.
    9000005    2    1    2  501    0  0.48948317485E-03 -0.44657946194E-02 -0.87701249089E+03  0.11229874717E+04  0.70139144027E+03 0.  0.
         13    1    3    3    0    0  0.20739493203E+03 -0.27833281505E+03 -0.35834208209E+03  0.49888962864E+03  0.00000000000E+00 0.  1.
          1    1    3    3  501    0 -0.20739444255E+03  0.27832834926E+03 -0.51867040880E+03  0.62409784311E+03  0.00000000000E+00 0.  1.
         21    1    1    2  502  501 -0.48948317484E-03  0.44657946194E-02  0.27005529960E+00  0.27009266513E+00  0.00000000000E+00 0. -1.
<mgrwt>
<rscale>  1 0.70139144E+03</rscale>
<asrwt>0</asrwt>
<pdfrwt beam="1">  1        1 0.44821027E+00 0.70139144E+03</pdfrwt>
<pdfrwt beam="2">0</pdfrwt>
<totfact> 0.80135904E-01</totfact>
</mgrwt>
</event>
<event>
 6    1  0.5614394E-003  0.6405097E+03  0.7818608E-02  0.9824752E-01
          1   -1    0    0  502    0  0.00000000000E+00  0.00000000000E+00  0.14674656757E+03  0.14674656757E+03  0.00000000000E+00 0.  1.
         13   -1    0    0    0    0 -0.00000000000E+00 -0.00000000000E+00 -0.10000000000E+04  0.10000000000E+04  0.00000000000E+00 0.  1.
    9000005    2    1    2  501    0 -0.18518381201E+01 -0.95172196270E+00 -0.89740978527E+03  0.11025411542E+04  0.64050631443E+03 0.  0.
         13    1    3    3    0    0 -0.68614988880E+02  0.23504032881E+03 -0.93571595555E+02  0.26212137716E+03  0.00000000000E+00 0.  1.
          1    1    3    3  501    0  0.66763150759E+02 -0.23599205078E+03 -0.80383818971E+03  0.84041977700E+03  0.00000000000E+00 0.  1.
         21    1    1    2  502  501  0.18518381201E+01  0.95172196270E+00  0.44156352842E+02  0.44205413418E+02  0.00000000000E+00 0.  1.
<mgrwt>
<rscale>  1 0.64050970E+03</rscale>
<asrwt>0</asrwt>
<pdfrwt beam="1">  1        1 0.53362501E+00 0.64050970E+03</pdfrwt>
<pdfrwt beam="2">0</pdfrwt>
<totfact> 0.31726221E-01</totfact>
</mgrwt>
</event>
<event>
 6    1  0.5614394E-003  0.6664473E+03  0.7818608E-02  0.9776397E-01
          1   -1    0    0  502    0  0.00000000000E+00  0.00000000000E+00  0.11104621951E+03  0.11104621951E+03  0.00000000000E+00 0.  1.
         13   -1    0    0    0    0 -0.00000000000E+00 -0.00000000000E+00 -0.10000000000E+04  0.10000000000E+04  0.00000000000E+00 0.  1.
    9000005    2    1    2  501    0  0.20929289683E-02  0.28713702109E-02 -0.88896158571E+03  0.11110376436E+04  0.66644725565E+03 0.  0.
         13    1    3    3    0    0 -0.81760973490E+02  0.18212251121E+03  0.31037683541E+00  0.19963356984E+03  0.00000000000E+00 0.  1.
          3    1    3    3  501    0  0.81763066419E+02 -0.18211963984E+03 -0.88927196255E+03  0.91140407373E+03  0.00000000000E+00 0.  1.
         21    1    1    2  502  501 -0.20929289682E-02 -0.28713702109E-02  0.78052258624E-02  0.85759354776E-02  0.00000000000E+00 0.  1.
<mgrwt>
<rscale>  1 0.66644726E+03</rscale>
<asrwt>0</asrwt>
<pdfrwt beam="1">  1        1 0.40380529E+00 0.66644726E+03</pdfrwt>
<pdfrwt beam="2">0</pdfrwt>
<totfact> 0.12825711E+00</totfact>
</mgrwt>
</event>
<event>
 6    1  0.5614394E-003  0.6460911E+03  0.7818608E-02  0.9814142E-01
          1   -1    0    0  502    0  0.00000000000E+00  0.00000000000E+00  0.10558080686E+03  0.10558080686E+03  0.00000000000E+00 0.  1.
         13   -1    0    0    0    0 -0.00000000000E+00 -0.00000000000E+00 -0.10000000000E+04  0.10000000000E+04  0.00000000000E+00 0.  1.
    9000005    2    1    2  501    0  0.39469783132E+00  0.15343956391E+00 -0.89560094024E+03  0.11043254757E+04  0.64609096328E+03 0.  0.
         13    1    3    3    0    0 -0.56330667480E+02 -0.31430098831E+03 -0.36515037242E+03  0.48507014939E+03  0.00000000000E+00 0.  1.
          3    1    3    3  501    0  0.56725365312E+02  0.31445442788E+03 -0.53045056782E+03  0.61925532633E+03  0.00000000000E+00 0.  1.
         21    1    1    2  502  501 -0.39469783132E+00 -0.15343956391E+00  0.11817471014E+01  0.12553311473E+01  0.00000000000E+00 0. -1.
<mgrwt>
<rscale>  1 0.64609110E+03</rscale>
<asrwt>0</asrwt>
<pdfrwt beam="1">  1        1 0.38393102E+00 0.64609110E+03</pdfrwt>
<pdfrwt beam="2">0</pdfrwt>
<totfact> 0.15778042E+00</totfact>
</mgrwt>
</event>
<event>
 6    1  0.5614394E-003  0.6453928E+03  0.7818608E-02  0.9815463E-01
          3   -1    0    0  502    0  0.00000000000E+00  0.00000000000E+00  0.10721490480E+03  0.10721490480E+03  0.00000000000E+00 0.  1.
         13   -1    0    0    0    0 -0.00000000000E+00 -0.00000000000E+00 -0.10000000000E+04  0.10000000000E+04  0.00000000000E+00 0.  1.
    9000005    2    1    2  501    0 -0.18393671706E+01  0.58565348528E+01 -0.89204168346E+03  0.11010314646E+04  0.64536364841E+03 0.  0.
         13    1    3    3    0    0 -0.30386583992E+03 -0.81039559490E+02 -0.57031890053E+03  0.65127989925E+03  0.00000000000E+00 0.  1.
          3    1    3    3  501    0  0.30202647275E+03  0.86896094343E+02 -0.32172278293E+03  0.44975156532E+03  0.00000000000E+00 0.  1.
         21    1    1    2  502  501  0.18393671706E+01 -0.58565348528E+01 -0.74341173784E+00  0.61834402303E+01  0.00000000000E+00 0. -1.
<mgrwt>
<rscale>  1 0.64539284E+03</rscale>
<asrwt>0</asrwt>
<pdfrwt beam="1">  1        3 0.38987320E+00 0.64539284E+03</pdfrwt>
<pdfrwt beam="2">0</pdfrwt>
<totfact> 0.67005843E-02</totfact>
</mgrwt>
</event>
<event>
 6    1  0.5614394E-003  0.6538273E+03  0.7818608E-02  0.9799624E-01
          1   -1    0    0  502    0  0.00000000000E+00  0.00000000000E+00  0.10687950328E+03  0.10687950328E+03  0.00000000000E+00 0.  1.
         13   -1    0    0    0    0 -0.00000000000E+00 -0.00000000000E+00 -0.10000000000E+04  0.10000000000E+04  0.00000000000E+00 0.  1.
    9000005    2    1    2  501    0 -0.63362583401E-02  0.18611384717E-02 -0.89312569868E+03  0.11068710966E+04  0.65382727902E+03 0.  0.
         13    1    3    3    0    0 -0.21146217440E+03  0.20548955599E+03 -0.68557305031E+03  0.74629258078E+03  0.00000000000E+00 0.  1.
          3    1    3    3  501    0  0.21145583814E+03 -0.20548769485E+03 -0.20755264837E+03  0.36057851581E+03  0.00000000000E+00 0.  1.
         21    1    1    2  502  501  0.63362583401E-02 -0.18611384717E-02  0.52019604716E-02  0.84066877491E-02  0.00000000000E+00 0.  1.
<mgrwt>
<rscale>  1 0.65382728E+03</rscale>
<asrwt>0</asrwt>
<pdfrwt beam="1">  1        1 0.38865356E+00 0.65382728E+03</pdfrwt>
<pdfrwt beam="2">0</pdfrwt>
<totfact> 0.15015131E+00</totfact>
</mgrwt>
</event>
<event>
 6    1  0.5614394E-003  0.6425520E+03  0.7818608E-02  0.9820856E-01
          1   -1    0    0  502    0  0.00000000000E+00  0.00000000000E+00  0.10478350600E+03  0.10478350600E+03  0.00000000000E+00 0.  1.
         13   -1    0    0    0    0 -0.00000000000E+00 -0.00000000000E+00 -0.10000000000E+04  0.10000000000E+04  0.00000000000E+00 0.  1.
    9000005    2    1    2  501    0  0.14929999194E-01  0.45153661963E-01 -0.89678133174E+03  0.11032179457E+04  0.64255200303E+03 0.  0.
         13    1    3    3    0    0 -0.10394749066E+03  0.25909089524E+03 -0.72148174259E+03  0.77360783198E+03  0.00000000000E+00 0.  1.
          3    1    3    3  501    0  0.10396242066E+03 -0.25904574158E+03 -0.17529958915E+03  0.32961011376E+03  0.00000000000E+00 0.  1.
         21    1    1    2  502  501 -0.14929999194E-01 -0.45153661963E-01  0.15648377435E+01  0.15655602580E+01  0.00000000000E+00 0. -1.
<mgrwt>
<rscale>  1 0.64255200E+03</rscale>
<asrwt>0</asrwt>
<pdfrwt beam="1">  1        1 0.38103173E+00 0.64255200E+03</pdfrwt>
<pdfrwt beam="2">0</pdfrwt>
<totfact> 0.16260873E+00</totfact>
</mgrwt>
</event>
<event>
 6    1  0.5614394E-003  0.6632318E+03  0.7818608E-02  0.9782263E-01
          1   -1    0    0  502    0  0.00000000000E+00  0.00000000000E+00  0.11027898803E+03  0.11027898803E+03  0.00000000000E+00 0.  1.
         13   -1    0    0    0    0 -0.00000000000E+00 -0.00000000000E+00 -0.10000000000E+04  0.10000000000E+04  0.00000000000E+00 0.  1.
    9000005    2    1    2  501    0  0.75866734643E+00  0.44949871097E-01 -0.88937674318E+03  0.11094446514E+04  0.66323138164E+03 0.  0.
         13    1    3    3    0    0 -0.83765374675E+02 -0.25456455255E+03 -0.77093985944E+03  0.81619116406E+03  0.00000000000E+00 0.  1.
          3    1    3    3  501    0  0.84524042022E+02  0.25460950242E+03 -0.11843688373E+03  0.29325348733E+03  0.00000000000E+00 0.  1.
         21    1    1    2  502  501 -0.75866734643E+00 -0.44949871097E-01 -0.34426878916E+00  0.83433664227E+00  0.00000000000E+00 0. -1.
<mgrwt>
<rscale>  1 0.66323182E+03</rscale>
<asrwt>0</asrwt>
<pdfrwt beam="1">  1        1 0.40101535E+00 0.66323182E+03</pdfrwt>
<pdfrwt beam="2">0</pdfrwt>
<totfact> 0.13206928E+00</totfact>
</mgrwt>
</event>
<event>
 6    1  0.5614394E-003  0.6451960E+03  0.7818608E-02  0.9815836E-01
          1   -1    0    0  502    0  0.00000000000E+00  0.00000000000E+00  0.10406946873E+03  0.10406946873E+03  0.00000000000E+00 0.  1.
         13   -1    0    0    0    0 -0.00000000000E+00 -0.00000000000E+00 -0.10000000000E+04  0.10000000000E+04  0.00000000000E+00 0.  1.
    9000005    2    1    2  501    0 -0.50186933436E-05 -0.14142756299E-07 -0.89593052694E+03  0.11040694621E+04  0.64519599195E+03 0.  0.
         13    1    3    3    0    0 -0.25466719780E+03  0.19489303151E+03 -0.38793127325E+03  0.50331833677E+03  0.00000000000E+00 0.  1.
          3    1    3    3  501    0  0.25466719279E+03 -0.19489303153E+03 -0.50799925370E+03  0.60075112532E+03  0.00000000000E+00 0.  1.
         21    1    1    2  502  501  0.50186933509E-05  0.14142758636E-07 -0.43313659931E-05  0.66293449400E-05  0.00000000000E+00 0.  1.
<mgrwt>
<rscale>  1 0.64519599E+03</rscale>
<asrwt>0</asrwt>
<pdfrwt beam="1">  1        1 0.37843523E+00 0.64519599E+03</pdfrwt>
<pdfrwt beam="2">0</pdfrwt>
<totfact> 0.16687305E+00</totfact>
</mgrwt>
</event>
<event>
 6    1  0.5614394E-003  0.6544658E+03  0.7818608E-02  0.9798435E-01
          1   -1    0    0  502    0  0.00000000000E+00  0.00000000000E+00  0.10708240784E+03  0.10708240784E+03  0.00000000000E+00 0.  1.
         13   -1    0    0    0    0 -0.00000000000E+00 -0.00000000000E+00 -0.10000000000E+04  0.10000000000E+04  0.00000000000E+00 0.  1.
    9000005    2    1    2  501    0  0.60027405681E-04 -0.49874506061E-04 -0.89291862242E+03  0.11070813746E+04  0.65446581560E+03 0.  0.
         13    1    3    3    0    0  0.21538737802E+03 -0.15716031248E+03 -0.12554778647E+03  0.29470889555E+03  0.00000000000E+00 0.  1.
          3    1    3    3  501    0 -0.21538731799E+03  0.15716026261E+03 -0.76737083595E+03  0.81237247908E+03  0.00000000000E+00 0.  1.
         21    1    1    2  502  501 -0.60027405670E-04  0.49874506041E-04  0.10302569633E-02  0.10332086750E-02  0.00000000000E+00 0.  1.
<mgrwt>
<rscale>  1 0.65446582E+03</rscale>
<asrwt>0</asrwt>
<pdfrwt beam="1">  1        1 0.38939140E+00 0.65446582E+03</pdfrwt>
<pdfrwt beam="2">0</pdfrwt>
<totfact> 0.14900721E+00</totfact>
</mgrwt>
</event>
<event>
 6    1  0.5614394E-003  0.6440428E+03  0.7818608E-02  0.9818022E-01
          1   -1    0    0  502    0  0.00000000000E+00  0.00000000000E+00  0.10659175820E+03  0.10659175820E+03  0.00000000000E+00 0.  1.
         13   -1    0    0    0    0 -0.00000000000E+00 -0.00000000000E+00 -0.10000000000E+04  0.10000000000E+04  0.00000000000E+00 0.  1.
    9000005    2    1    2  501    0 -0.41653055113E+00  0.30632539019E-01 -0.89628557432E+03  0.11036842716E+04  0.64404267415E+03 0.  0.
         13    1    3    3    0    0 -0.32063965443E+03 -0.30012779329E+02 -0.46718773093E+03  0.56742834865E+03  0.00000000000E+00 0.  1.
          1    1    3    3  501    0  0.32022312388E+03  0.30043411868E+02 -0.42909784340E+03  0.53625592292E+03  0.00000000000E+00 0.  1.
         21    1    1    2  502  501  0.41653055113E+00 -0.30632539019E-01  0.28773325269E+01  0.29074866333E+01  0.00000000000E+00 0. -1.
<mgrwt>
<rscale>  1 0.64404281E+03</rscale>
<asrwt>0</asrwt>
<pdfrwt beam="1">  1        1 0.38760721E+00 0.64404281E+03</pdfrwt>
<pdfrwt beam="2">0</pdfrwt>
<totfact> 0.15203910E+00</totfact>
</mgrwt>
</event>
<event>
 6    1  0.5614394E-003  0.6641353E+03  0.7818608E-02  0.9780611E-01
          1   -1    0    0  502    0  0.00000000000E+00  0.00000000000E+00  0.11054161531E+03  0.11054161531E+03  0.00000000000E+00 0.  1.
         13   -1    0    0    0    0 -0.00000000000E+00 -0.00000000000E+00 -0.10000000000E+04  0.10000000000E+04  0.00000000000E+00 0.  1.
    9000005    2    1    2  501    0 -0.81169763491E+00  0.46959368551E-01 -0.88854729824E+03  0.11093204942E+04  0.66413477292E+03 0.  0.
         13    1    3    3    0    0  0.10992855476E+03  0.28709385464E+03 -0.65331581815E+03  0.72203097356E+03  0.00000000000E+00 0.  1.
          1    1    3    3  501    0 -0.11074025239E+03 -0.28704689527E+03 -0.23523148009E+03  0.38728952066E+03  0.00000000000E+00 0.  1.
         21    1    1    2  502  501  0.81169763491E+00 -0.46959368551E-01 -0.91108644360E+00  0.12211210999E+01  0.00000000000E+00 0.  1.
<mgrwt>
<rscale>  1 0.66413527E+03</rscale>
<asrwt>0</asrwt>
<pdfrwt beam="1">  1        1 0.40197036E+00 0.66413527E+03</pdfrwt>
<pdfrwt beam="2">0</pdfrwt>
<totfact> 0.13075731E+00</totfact>
</mgrwt>
</event>
<event>
 6    1  0.5614394E-003  0.6677177E+03  0.7818608E-02  0.9774090E-01
          1   -1    0    0  502    0  0.00000000000E+00  0.00000000000E+00  0.11328361884E+03  0.11328361884E+03  0.00000000000E+00 0.  1.
         13   -1    0    0    0    0 -0.00000000000E+00 -0.00000000000E+00 -0.10000000000E+04  0.10000000000E+04  0.00000000000E+00 0.  1.
    9000005    2    1    2  501    0  0.25277847316E-01 -0.14829022712E+00 -0.88853480049E+03  0.11114589880E+04  0.66771773049E+03 0.  0.
         13    1    3    3    0    0  0.83679785676E+02 -0.13445001488E+03 -0.93360449154E+03  0.94694057874E+03  0.00000000000E+00 0.  1.
          3    1    3    3  501    0 -0.83654507829E+02  0.13430172465E+03  0.45069691051E+02  0.16451840923E+03  0.00000000000E+00 0.  1.
         21    1    1    2  502  501 -0.25277847316E-01  0.14829022712E+00  0.18184193302E+01  0.18246308727E+01  0.00000000000E+00 0.  1.
<mgrwt>
<rscale>  1 0.66771775E+03</rscale>
<asrwt>0</asrwt>
<pdfrwt beam="1">  1        1 0.41194130E+00 0.66771775E+03</pdfrwt>
<pdfrwt beam="2">0</pdfrwt>
<totfact> 0.11790435E+00</totfact>
</mgrwt>
</event>
<event>
 6    1  0.5614394E-003  0.6671993E+03  0.7818608E-02  0.9775031E-01
          1   -1    0    0  502    0  0.00000000000E+00  0.00000000000E+00  0.11128873545E+03  0.11128873545E+03  0.00000000000E+00 0.  1.
         13   -1    0    0    0    0 -0.00000000000E+00 -0.00000000000E+00 -0.10000000000E+04  0.10000000000E+04  0.00000000000E+00 0.  1.
    9000005    2    1    2  501    0  0.85225133262E-06  0.40638780092E-05 -0.88871127367E+03  0.11112887254E+04  0.66719929804E+03 0.  0.
         13    1    3    3    0    0  0.15056596105E+03 -0.19055514975E+03 -0.82529222809E+03  0.86028404348E+03  0.00000000000E+00 0.  1.
          3    1    3    3  501    0 -0.15056596020E+03  0.19055515382E+03 -0.63419045587E+02  0.25100468195E+03  0.00000000000E+00 0.  1.
         21    1    1    2  502  501 -0.85225132254E-06 -0.40638780032E-05  0.91263432594E-05  0.10026543673E-04  0.00000000000E+00 0. -1.
<mgrwt>
<rscale>  1 0.66719930E+03</rscale>
<asrwt>0</asrwt>
<pdfrwt beam="1">  1        1 0.40468716E+00 0.66719930E+03</pdfrwt>
<pdfrwt beam="2">0</pdfrwt>
<totfact> 0.12708018E+00</totfact>
</mgrwt>
</event>
<event>
 6    1  0.5614394E-003  0.6473954E+03  0.7818608E-02  0.9811679E-01
          3   -1    0    0  502    0  0.00000000000E+00  0.00000000000E+00  0.10507124422E+03  0.10507124422E+03  0.00000000000E+00 0.  1.
         13   -1    0    0    0    0 -0.00000000000E+00 -0.00000000000E+00 -0.10000000000E+04  0.10000000000E+04  0.00000000000E+00 0.  1.
    9000005    2    1    2  501    0 -0.71188994284E-02 -0.49446243270E-02 -0.89521971466E+03  0.11047801563E+04  0.64739544027E+03 0.  0.
         13    1    3    3    0    0 -0.20139746251E+01 -0.27577332886E+03 -0.73684616837E+03  0.78676378974E+03  0.00000000000E+00 0.  1.
          1    1    3    3  501    0  0.20068557256E+01  0.27576838424E+03 -0.15837354629E+03  0.31801636653E+03  0.00000000000E+00 0.  1.
         21    1    1    2  502  501  0.71188994284E-02  0.49446243270E-02  0.29095888150E+00  0.29108795709E+00  0.00000000000E+00 0. -1.
<mgrwt>
<rscale>  1 0.64739544E+03</rscale>
<asrwt>0</asrwt>
<pdfrwt beam="1">  1        3 0.38207806E+00 0.64739544E+03</pdfrwt>
<pdfrwt beam="2">0</pdfrwt>
<totfact> 0.73627814E-02</totfact>
</mgrwt>
</event>
<event>
 6    1  0.5614394E-003  0.5867623E+03  0.7818608E-02  0.9933257E-01
          1   -1    0    0  502    0  0.00000000000E+00  0.00000000000E+00  0.86107856581E+02  0.86107856581E+02  0.00000000000E+00 0.  1.
         13   -1    0    0    0    0 -0.00000000000E+00 -0.00000000000E+00 -0.10000000000E+04  0.10000000000E+04  0.00000000000E+00 0.  1.
    9000005    2    1    2  501    0  0.50078067040E-02  0.23986621991E-01 -0.91392284923E+03  0.10860685719E+04  0.58676227557E+03 0.  0.
         13    1    3    3    0    0  0.25062611095E+03  0.50901737852E+02 -0.19085204671E+03  0.31910646835E+03  0.00000000000E+00 0.  1.
          3    1    3    3  501    0 -0.25062110314E+03 -0.50877751230E+02 -0.72307080251E+03  0.76696210360E+03  0.00000000000E+00 0.  1.
         21    1    1    2  502  501 -0.50078067040E-02 -0.23986621991E-01  0.30705806886E-01  0.39284637443E-01  0.00000000000E+00 0.  1.
<mgrwt>
<rscale>  1 0.58676228E+03</rscale>
<asrwt>0</asrwt>
<pdfrwt beam="1">  1        1 0.31312014E+00 0.58676228E+03</pdfrwt>
<pdfrwt beam="2">0</pdfrwt>
<totfact> 0.32463929E+00</totfact>
</mgrwt>
</event>
<event>
 6    1  0.5614394E-003  0.6581619E+03  0.7818608E-02  0.9791583E-01
          1   -1    0    0  502    0  0.00000000000E+00  0.00000000000E+00  0.11012363871E+03  0.11012363871E+03  0.00000000000E+00 0.  1.
         13   -1    0    0    0    0 -0.00000000000E+00 -0.00000000000E+00 -0.10000000000E+04  0.10000000000E+04  0.00000000000E+00 0.  1.
    9000005    2    1    2  501    0  0.86096487210E-02  0.32688937530E-01 -0.89170554393E+03  0.11082941437E+04  0.65816193359E+03 0.  0.
         13    1    3    3    0    0 -0.22654516973E+03 -0.88491865432E+02 -0.72573905144E+02  0.25381193015E+03  0.00000000000E+00 0.  1.
          1    1    3    3  501    0  0.22655377938E+03  0.88524554369E+02 -0.81913163879E+03  0.85448221359E+03  0.00000000000E+00 0.  1.
         21    1    1    2  502  501 -0.86096487210E-02 -0.32688937530E-01  0.18291826432E+01  0.18294949672E+01  0.00000000000E+00 0. -1.
<mgrwt>
<rscale>  1 0.65816193E+03</rscale>
<asrwt>0</asrwt>
<pdfrwt beam="1">  1        1 0.40045044E+00 0.65816193E+03</pdfrwt>
<pdfrwt beam="2">0</pdfrwt>
<totfact> 0.13296440E+00</totfact>
</mgrwt>
</event>
<event>
 6    1  0.5614394E-003  0.6505119E+03  0.7818608E-02  0.9805819E-01
          1   -1    0    0  502    0  0.00000000000E+00  0.00000000000E+00  0.10580530431E+03  0.10580530431E+03  0.00000000000E+00 0.  1.
         13   -1    0    0    0    0 -0.00000000000E+00 -0.00000000000E+00 -0.10000000000E+04  0.10000000000E+04  0.00000000000E+00 0.  1.
    9000005    2    1    2  501    0  0.30323423937E-02 -0.27228498223E-02 -0.89420824157E+03  0.11057911586E+04  0.65051188092E+03 0.  0.
         13    1    3    3    0    0  0.18393078868E+02 -0.17679598137E+03 -0.91013680566E+03  0.92733172565E+03  0.00000000000E+00 0.  1.
          3    1    3    3  501    0 -0.18390046526E+02  0.17679325852E+03  0.15928564094E+02  0.17845943299E+03  0.00000000000E+00 0.  1.
         21    1    1    2  502  501 -0.30323423937E-02  0.27228498223E-02  0.13545883658E-01  0.14145669854E-01  0.00000000000E+00 0. -1.
<mgrwt>
<rscale>  1 0.65051188E+03</rscale>
<asrwt>0</asrwt>
<pdfrwt beam="1">  1        1 0.38474737E+00 0.65051188E+03</pdfrwt>
<pdfrwt beam="2">0</pdfrwt>
<totfact> 0.15634664E+00</totfact>
</mgrwt>
</event>
<event>
 6    1  0.5614394E-003  0.6680243E+03  0.7818608E-02  0.9773534E-01
          1   -1    0    0  502    0  0.00000000000E+00  0.00000000000E+00  0.11310726253E+03  0.11310726253E+03  0.00000000000E+00 0.  1.
         13   -1    0    0    0    0 -0.00000000000E+00 -0.00000000000E+00 -0.10000000000E+04  0.10000000000E+04  0.00000000000E+00 0.  1.
    9000005    2    1    2  501    0 -0.75864463707E-01  0.15734866993E-01 -0.88843481744E+03  0.11115632374E+04  0.66802425095E+03 0.  0.
         13    1    3    3    0    0 -0.27033109718E+03  0.15698953800E+03 -0.64017563625E+03  0.71242505739E+03  0.00000000000E+00 0.  1.
          3    1    3    3  501    0  0.27025523272E+03 -0.15697380313E+03 -0.24825918119E+03  0.39913817999E+03  0.00000000000E+00 0.  1.
         21    1    1    2  502  501  0.75864463707E-01 -0.15734866993E-01  0.15420799703E+01  0.15440251415E+01  0.00000000000E+00 0. -1.
<mgrwt>
<rscale>  1 0.66802426E+03</rscale>
<asrwt>0</asrwt>
<pdfrwt beam="1">  1        1 0.41130000E+00 0.66802426E+03</pdfrwt>
<pdfrwt beam="2">0</pdfrwt>
<totfact> 0.11868170E+00</totfact>
</mgrwt>
</event>
<event>
 6    1  0.5614394E-003  0.6431678E+03  0.7818608E-02  0.9819684E-01
          1   -1    0    0  502    0  0.00000000000E+00  0.00000000000E+00  0.10341696075E+03  0.10341696075E+03  0.00000000000E+00 0.  1.
         13   -1    0    0    0    0 -0.00000000000E+00 -0.00000000000E+00 -0.10000000000E+04  0.10000000000E+04  0.00000000000E+00 0.  1.
    9000005    2    1    2  501    0  0.47479131339E-04 -0.93725786570E-04 -0.89658377713E+03  0.11034162154E+04  0.64316784363E+03 0.  0.
         13    1    3    3    0    0  0.45753998184E+01 -0.25212048960E+03 -0.10590019658E+03  0.27349685043E+03  0.00000000000E+00 0.  1.
          1    1    3    3  501    0 -0.45753523393E+01  0.25212039587E+03 -0.79068358054E+03  0.82991936500E+03  0.00000000000E+00 0.  1.
         21    1    1    2  502  501 -0.47479131338E-04  0.93725786555E-04  0.73787706746E-03  0.74531963456E-03  0.00000000000E+00 0. -1.
<mgrwt>
<rscale>  1 0.64316784E+03</rscale>
<asrwt>0</asrwt>
<pdfrwt beam="1">  1        1 0.37606247E+00 0.64316784E+03</pdfrwt>
<pdfrwt beam="2">0</pdfrwt>
<totfact> 0.17100273E+00</totfact>
</mgrwt>
</event>
<event>
 6    1  0.5614394E-003  0.6346868E+03  0.7818608E-02  0.9835945E-01
          1   -1    0    0  502    0  0.00000000000E+00  0.00000000000E+00  0.10071185666E+03  0.10071185666E+03  0.00000000000E+00 0.  1.
         13   -1    0    0    0    0 -0.00000000000E+00 -0.00000000000E+00 -0.10000000000E+04  0.10000000000E+04  0.00000000000E+00 0.  1.
    9000005    2    1    2  501    0  0.21184011302E-03  0.10381513119E-04 -0.89929317502E+03  0.11007068205E+04  0.63468676532E+03 0.  0.
         13    1    3    3    0    0 -0.10768089108E+02 -0.71928587581E+01  0.10024842838E+03  0.10108133534E+03  0.00000000000E+00 0.  1.
          3    1    3    3  501    0  0.10768300948E+02  0.71928691396E+01 -0.99954160340E+03  0.99962548517E+03  0.00000000000E+00 0.  1.
         21    1    1    2  502  501 -0.21184011302E-03 -0.10381513120E-04  0.50316821045E-02  0.50361501973E-02  0.00000000000E+00 0.  1.
<mgrwt>
<rscale>  1 0.63468677E+03</rscale>
<asrwt>0</asrwt>
<pdfrwt beam="1">  1        1 0.36622571E+00 0.63468677E+03</pdfrwt>
<pdfrwt beam="2">0</pdfrwt>
<totfact> 0.18919033E+00</totfact>
</mgrwt>
</event>
<event>
 6    1  0.5614394E-003  0.6382538E+03  0.7818608E-02  0.9829073E-01
          1   -1    0    0  502    0  0.00000000000E+00  0.00000000000E+00  0.10189518338E+03  0.10189518338E+03  0.00000000000E+00 0.  1.
         13   -1    0    0    0    0 -0.00000000000E+00 -0.00000000000E+00 -0.10000000000E+04  0.10000000000E+04  0.00000000000E+00 0.  1.
    9000005    2    1    2  501    0  0.66568533379E-02 -0.10215628521E-02 -0.89815779865E+03  0.11018417750E+04  0.63825376290E+03 0.  0.
         13    1    3    3    0    0  0.28149940273E+03 -0.12771419130E+03 -0.58601079647E+03  0.66254168320E+03  0.00000000000E+00 0.  1.
          1    1    3    3  501    0 -0.28149274588E+03  0.12771316974E+03 -0.31214700218E+03  0.43930009182E+03  0.00000000000E+00 0.  1.
         21    1    1    2  502  501 -0.66568533379E-02  0.10215628521E-02  0.52982034491E-01  0.53408363257E-01  0.00000000000E+00 0. -1.
<mgrwt>
<rscale>  1 0.63825376E+03</rscale>
<asrwt>0</asrwt>
<pdfrwt beam="1">  1        1 0.37052872E+00 0.63825376E+03</pdfrwt>
<pdfrwt beam="2">0</pdfrwt>
<totfact> 0.18102246E+00</totfact>
</mgrwt>
</event>
<event>
 6    1  0.5614394E-003  0.6569614E+03  0.7818608E-02  0.9793804E-01
          1   -1    0    0  502    0  0.00000000000E+00  0.00000000000E+00  0.10856180068E+03  0.10856180068E+03  0.00000000000E+00 0.  1.
         13   -1    0    0    0    0 -0.00000000000E+00 -0.00000000000E+00 -0.10000000000E+04  0.10000000000E+04  0.00000000000E+00 0.  1.
    9000005    2    1    2  501    0 -0.17894609033E+00  0.76400969055E+00 -0.89183233385E+03  0.11076836922E+04  0.65696090789E+03 0.  0.
         13    1    3    3    0    0 -0.19246590435E+03  0.23746887770E+03 -0.65065220660E+03  0.71887612713E+03  0.00000000000E+00 0.  1.
          3    1    3    3  501    0  0.19228695826E+03 -0.23670486801E+03 -0.24118012725E+03  0.38880756505E+03  0.00000000000E+00 0.  1.
         21    1    1    2  502  501  0.17894609033E+00 -0.76400969055E+00  0.39413452138E+00  0.87810849640E+00  0.00000000000E+00 0. -1.
<mgrwt>
<rscale>  1 0.65696138E+03</rscale>
<asrwt>0</asrwt>
<pdfrwt beam="1">  1        1 0.39477102E+00 0.65696138E+03</pdfrwt>
<pdfrwt beam="2">0</pdfrwt>
<totfact> 0.14096855E+00</totfact>
</mgrwt>
</event>
<event>
 6    1  0.5614394E-003  0.6522044E+03  0.7818608E-02  0.9802652E-01
          1   -1    0    0  502    0  0.00000000000E+00  0.00000000000E+00  0.10635416285E+03  0.10635416285E+03  0.00000000000E+00 0.  1.
         13   -1    0    0    0    0 -0.00000000000E+00 -0.00000000000E+00 -0.10000000000E+04  0.10000000000E+04  0.00000000000E+00 0.  1.
    9000005    2    1    2  501    0  0.51040848713E-02 -0.34588775706E-02 -0.89365644152E+03  0.11063418963E+04  0.65220438208E+03 0.  0.
         13    1    3    3    0    0  0.28583060500E+03  0.10327051728E+03 -0.64739603138E+03  0.71518218374E+03  0.00000000000E+00 0.  1.
          3    1    3    3  501    0 -0.28582550092E+03 -0.10327397615E+03 -0.24626041015E+03  0.39115971256E+03  0.00000000000E+00 0.  1.
         21    1    1    2  502  501 -0.51040848713E-02  0.34588775706E-02  0.10604376608E-01  0.12266552885E-01  0.00000000000E+00 0. -1.
<mgrwt>
<rscale>  1 0.65220438E+03</rscale>
<asrwt>0</asrwt>
<pdfrwt beam="1">  1        1 0.38674323E+00 0.65220438E+03</pdfrwt>
<pdfrwt beam="2">0</pdfrwt>
<totfact> 0.15315149E+00</totfact>
</mgrwt>
</event>
<event>
 6    1  0.5614394E-003  0.6463569E+03  0.7818608E-02  0.9813639E-01
          1   -1    0    0  502    0  0.00000000000E+00  0.00000000000E+00  0.10939377760E+03  0.10939377760E+03  0.00000000000E+00 0.  1.
         13   -1    0    0    0    0 -0.00000000000E+00 -0.00000000000E+00 -0.10000000000E+04  0.10000000000E+04  0.00000000000E+00 0.  1.
    9000005    2    1    2  501    0 -0.44232273326E+01  0.31877390581E+01 -0.89384084534E+03  0.11030542661E+04  0.64633391570E+03 0.  0.
         13    1    3    3    0    0  0.29545538989E+03  0.98534153715E+02 -0.30785277748E+03  0.43792259529E+03  0.00000000000E+00 0.  1.
          1    1    3    3  501    0 -0.29987861723E+03 -0.95346414657E+02 -0.58598806786E+03  0.66513167082E+03  0.00000000000E+00 0.  1.
         21    1    1    2  502  501  0.44232273326E+01 -0.31877390581E+01  0.32346229396E+01  0.63395114874E+01  0.00000000000E+00 0. -1.
<mgrwt>
<rscale>  1 0.64635691E+03</rscale>
<asrwt>0</asrwt>
<pdfrwt beam="1">  1        1 0.39779639E+00 0.64635691E+03</pdfrwt>
<pdfrwt beam="2">0</pdfrwt>
<totfact> 0.13694040E+00</totfact>
</mgrwt>
</event>
<event>
 6    1  0.5614394E-003  0.6388832E+03  0.7818608E-02  0.9827866E-01
          3   -1    0    0  502    0  0.00000000000E+00  0.00000000000E+00  0.10204976801E+03  0.10204976801E+03  0.00000000000E+00 0.  1.
         13   -1    0    0    0    0 -0.00000000000E+00 -0.00000000000E+00 -0.10000000000E+04  0.10000000000E+04  0.00000000000E+00 0.  1.
    9000005    2    1    2  501    0 -0.89698741129E-03 -0.23121029485E-03 -0.89795702218E+03  0.11020429149E+04  0.63888322303E+03 0.  0.
         13    1    3    3    0    0  0.31679720854E+03 -0.18953349007E+02 -0.38623698638E+03  0.49989870017E+03  0.00000000000E+00 0.  1.
          1    1    3    3  501    0 -0.31679810553E+03  0.18953117797E+02 -0.51172003579E+03  0.60214421476E+03  0.00000000000E+00 0.  1.
         21    1    1    2  502  501  0.89698741129E-03  0.23121029485E-03  0.67901896164E-02  0.68530810329E-02  0.00000000000E+00 0. -1.
<mgrwt>
<rscale>  1 0.63888322E+03</rscale>
<asrwt>0</asrwt>
<pdfrwt beam="1">  1        3 0.37109085E+00 0.63888322E+03</pdfrwt>
<pdfrwt beam="2">0</pdfrwt>
<totfact> 0.84283625E-02</totfact>
</mgrwt>
</event>
<event>
 6    1  0.5614394E-003  0.6545598E+03  0.7818608E-02  0.9798260E-01
          1   -1    0    0  502    0  0.00000000000E+00  0.00000000000E+00  0.10711466412E+03  0.10711466412E+03  0.00000000000E+00 0.  1.
         13   -1    0    0    0    0 -0.00000000000E+00 -0.00000000000E+00 -0.10000000000E+04  0.10000000000E+04  0.00000000000E+00 0.  1.
    9000005    2    1    2  501    0 -0.12328041951E-02  0.15142817584E-02 -0.89288743088E+03  0.11071118002E+04  0.65455983224E+03 0.  0.
         13    1    3    3    0    0 -0.26710265165E+03 -0.83951959026E+02 -0.73308545351E+03  0.78473310118E+03  0.00000000000E+00 0.  1.
          3    1    3    3  501    0  0.26710141884E+03  0.83953473308E+02 -0.15980197737E+03  0.32237869905E+03  0.00000000000E+00 0.  1.
         21    1    1    2  502  501  0.12328041952E-02 -0.15142817584E-02  0.20949980597E-02  0.28638911113E-02  0.00000000000E+00 0. -1.
<mgrwt>
<rscale>  1 0.65455983E+03</rscale>
<asrwt>0</asrwt>
<pdfrwt beam="1">  1        1 0.38950869E+00 0.65455983E+03</pdfrwt>
<pdfrwt beam="2">0</pdfrwt>
<totfact> 0.14882630E+00</totfact>
</mgrwt>
</event>
<event>
 6    1  0.5614394E-003  0.6418917E+03  0.7818608E-02  0.9822114E-01
          1   -1    0    0  502    0  0.00000000000E+00  0.00000000000E+00  0.10539342564E+03  0.10539342564E+03  0.00000000000E+00 0.  1.
         13   -1    0    0    0    0 -0.00000000000E+00 -0.00000000000E+00 -0.10000000000E+04  0.10000000000E+04  0.00000000000E+00 0.  1.
    9000005    2    1    2  501    0 -0.18927769291E+00  0.10902731445E+00 -0.89698824247E+03  0.11030017618E+04  0.64189168220E+03 0.  0.
         13    1    3    3    0    0 -0.28572629728E+03  0.36377658786E+01 -0.70003395136E+03  0.75610864520E+03  0.00000000000E+00 0.  1.
          3    1    3    3  501    0  0.28553701958E+03 -0.35287385642E+01 -0.19695429111E+03  0.34689311659E+03  0.00000000000E+00 0.  1.
         21    1    1    2  502  501  0.18927769291E+00 -0.10902731445E+00  0.23816681079E+01  0.23916638510E+01  0.00000000000E+00 0.  1.
<mgrwt>
<rscale>  1 0.64189172E+03</rscale>
<asrwt>0</asrwt>
<pdfrwt beam="1">  1        1 0.38324963E+00 0.64189172E+03</pdfrwt>
<pdfrwt beam="2">0</pdfrwt>
<totfact> 0.15900217E+00</totfact>
</mgrwt>
</event>
