<event>
 6    1  0.2838103E-003  0.7293556E+03  0.7818608E-02  0.9668307E-01
          1   -1    0    0  502    0  0.00000000000E+00  0.00000000000E+00  0.13301114276E+03  0.13301114276E+03  0.00000000000E+00 0.  1.
         13   -1    0    0    0    0 -0.00000000000E+00 -0.00000000000E+00 -0.10000000000E+04  0.10000000000E+04  0.00000000000E+00 0.  1.
    9000005    2    1    2  501    0 -0.63451478430E-02 -0.15453482061E-01 -0.86700629348E+03  0.11329869954E+04  0.72935561875E+03 0.  0.
         13    1    3    3    0    0 -0.33871977770E+03  0.15203525101E+02 -0.22492349022E+03  0.40688181507E+03  0.00000000000E+00 0.  1.
          1    1    3    3  501    0  0.33871343256E+03 -0.15218978583E+02 -0.64208280326E+03  0.72610518036E+03  0.00000000000E+00 0.  1.
         21    1    1    2  502  501  0.63451478430E-02  0.15453482061E-01  0.17436244323E-01  0.24147331634E-01  0.00000000000E+00 0.  1.
<mgrwt>
<rscale>  1 0.72935562E+03</rscale>
<asrwt>0</asrwt>
<pdfrwt beam="1">  1        1 0.48367790E+00 0.72935562E+03</pdfrwt>
<pdfrwt beam="2">0</pdfrwt>
<totfact> 0.54408450E-01</totfact>
</mgrwt>
</event>
<event>
 6    1  0.2838103E-003  0.6523985E+03  0.7818608E-02  0.9802289E-01
          1   -1    0    0  502    0  0.00000000000E+00  0.00000000000E+00  0.10660729203E+03  0.10660729203E+03  0.00000000000E+00 0.  1.
         13   -1    0    0    0    0 -0.00000000000E+00 -0.00000000000E+00 -0.10000000000E+04  0.10000000000E+04  0.00000000000E+00 0.  1.
    9000005    2    1    2  501    0  0.49695084776E-02  0.21434662541E-01 -0.89359337080E+03  0.11064054265E+04  0.65239853990E+03 0.  0.
         13    1    3    3    0    0  0.87857530250E+02 -0.14839637456E+03  0.22771814422E+02  0.17395109984E+03  0.00000000000E+00 0.  1.
          1    1    3    3  501    0 -0.87852560741E+02  0.14841780923E+03 -0.91636518522E+03  0.93245432661E+03  0.00000000000E+00 0.  1.
         21    1    1    2  502  501 -0.49695084776E-02 -0.21434662541E-01  0.20066282529E+00  0.20186557464E+00  0.00000000000E+00 0.  1.
<mgrwt>
<rscale>  1 0.65239854E+03</rscale>
<asrwt>0</asrwt>
<pdfrwt beam="1">  1        1 0.38766370E+00 0.65239854E+03</pdfrwt>
<pdfrwt beam="2">0</pdfrwt>
<totfact> 0.15171535E+00</totfact>
</mgrwt>
</event>
<event>
 6    1  0.2838103E-003  0.6494644E+03  0.7818608E-02  0.9807785E-01
          1   -1    0    0  502    0  0.00000000000E+00  0.00000000000E+00  0.10545163377E+03  0.10545163377E+03  0.00000000000E+00 0.  1.
         13   -1    0    0    0    0 -0.00000000000E+00 -0.00000000000E+00 -0.10000000000E+04  0.10000000000E+04  0.00000000000E+00 0.  1.
    9000005    2    1    2  501    0 -0.11318361601E-04  0.13553641566E-04 -0.89454900029E+03  0.11054509995E+04  0.64946439341E+03 0.  0.
         13    1    3    3    0    0 -0.60252878223E+02 -0.15392441219E+03 -0.92303362196E+03  0.93771754877E+03  0.00000000000E+00 0.  1.
          1    1    3    3  501    0  0.60252866905E+02  0.15392442575E+03  0.28484621670E+02  0.16773345070E+03  0.00000000000E+00 0.  1.
         21    1    1    2  502  501  0.11318361603E-04 -0.13553641578E-04  0.63405347500E-03  0.63429931079E-03  0.00000000000E+00 0. -1.
<mgrwt>
<rscale>  1 0.64946439E+03</rscale>
<asrwt>0</asrwt>
<pdfrwt beam="1">  1        1 0.38346130E+00 0.64946439E+03</pdfrwt>
<pdfrwt beam="2">0</pdfrwt>
<totfact> 0.15843771E+00</totfact>
</mgrwt>
</event>
<event>
 6    1  0.2838103E-003  0.6544243E+03  0.7818608E-02  0.9798513E-01
          1   -1    0    0  502    0  0.00000000000E+00  0.00000000000E+00  0.10809505490E+03  0.10809505490E+03  0.00000000000E+00 0.  1.
         13   -1    0    0    0    0 -0.00000000000E+00 -0.00000000000E+00 -0.10000000000E+04  0.10000000000E+04  0.00000000000E+00 0.  1.
    9000005    2    1    2  501    0  0.50179722762E-01  0.36775851942E-01 -0.89293117722E+03  0.11070669387E+04  0.65442426279E+03 0.  0.
         13    1    3    3    0    0  0.86570907867E+02 -0.29114347721E+03 -0.65226877404E+03  0.71952317544E+03  0.00000000000E+00 0.  1.
          3    1    3    3  501    0 -0.86520728144E+02  0.29118025306E+03 -0.24066240318E+03  0.38754376330E+03  0.00000000000E+00 0.  1.
         21    1    1    2  502  501 -0.50179722762E-01 -0.36775851942E-01  0.10262321183E+01  0.10281161551E+01  0.00000000000E+00 0. -1.
<mgrwt>
<rscale>  1 0.65442427E+03</rscale>
<asrwt>0</asrwt>
<pdfrwt beam="1">  1        1 0.39307376E+00 0.65442427E+03</pdfrwt>
<pdfrwt beam="2">0</pdfrwt>
<totfact> 0.14350604E+00</totfact>
</mgrwt>
</event>
<event>
 6    1  0.2838103E-003  0.4935454E+03  0.7818608E-02  0.1015478E+00
          1   -1    0    0  502    0  0.00000000000E+00  0.00000000000E+00  0.60899362139E+02  0.60899362139E+02  0.00000000000E+00 0.  1.
         13   -1    0    0    0    0 -0.00000000000E+00 -0.00000000000E+00 -0.10000000000E+04  0.10000000000E+04  0.00000000000E+00 0.  1.
    9000005    2    1    2  501    0 -0.98821495527E-04 -0.47306536322E-03 -0.93910321288E+03  0.10608967422E+04  0.49354539113E+03 0.  0.
         13    1    3    3    0    0  0.15295909543E+03  0.75408585363E+02 -0.86150091186E+02  0.19106223549E+03  0.00000000000E+00 0.  1.
          1    1    3    3  501    0 -0.15295919425E+03 -0.75409058428E+02 -0.85295312169E+03  0.86983450667E+03  0.00000000000E+00 0.  1.
         21    1    1    2  502  501  0.98821495527E-04  0.47306536322E-03  0.25750148776E-02  0.26199729284E-02  0.00000000000E+00 0.  1.
<mgrwt>
<rscale>  1 0.49354539E+03</rscale>
<asrwt>0</asrwt>
<pdfrwt beam="1">  1        1 0.22145269E+00 0.49354539E+03</pdfrwt>
<pdfrwt beam="2">0</pdfrwt>
<totfact> 0.82480514E+00</totfact>
</mgrwt>
</event>
<event>
 6    1  0.2838103E-003  0.6655039E+03  0.7818608E-02  0.9778114E-01
          1   -1    0    0  502    0  0.00000000000E+00  0.00000000000E+00  0.11133723104E+03  0.11133723104E+03  0.00000000000E+00 0.  1.
         13   -1    0    0    0    0 -0.00000000000E+00 -0.00000000000E+00 -0.10000000000E+04  0.10000000000E+04  0.00000000000E+00 0.  1.
    9000005    2    1    2  501    0 -0.44313557180E+00 -0.81456152261E-01 -0.88918280709E+03  0.11106491584E+04  0.66550378341E+03 0.  0.
         13    1    3    3    0    0 -0.12194981988E+03 -0.23983731803E+02  0.70581292568E+02  0.14292899223E+03  0.00000000000E+00 0.  1.
          3    1    3    3  501    0  0.12150668430E+03  0.23902275651E+02 -0.95976409966E+03  0.96772016622E+03  0.00000000000E+00 0.  1.
         21    1    1    2  502  501  0.44313557180E+00  0.81456152261E-01  0.52003813365E+00  0.68807259805E+00  0.00000000000E+00 0.  1.
<mgrwt>
<rscale>  1 0.66550394E+03</rscale>
<asrwt>0</asrwt>
<pdfrwt beam="1">  1        1 0.40486351E+00 0.66550394E+03</pdfrwt>
<pdfrwt beam="2">0</pdfrwt>
<totfact> 0.12689007E+00</totfact>
</mgrwt>
</event>
<event>
 6    1  0.2838103E-003  0.6302594E+03  0.7818608E-02  0.9844543E-01
          1   -1    0    0  502    0  0.00000000000E+00  0.00000000000E+00  0.99307537535E+02  0.99307537535E+02  0.00000000000E+00 0.  1.
         13   -1    0    0    0    0 -0.00000000000E+00 -0.00000000000E+00 -0.10000000000E+04  0.10000000000E+04  0.00000000000E+00 0.  1.
    9000005    2    1    2  501    0 -0.46755082010E-04  0.20645008013E-03 -0.90069326708E+03  0.10993067055E+04  0.63025936843E+03 0.  0.
         13    1    3    3    0    0  0.79480265849E+02 -0.17566065951E+03 -0.15575739124E+02  0.19343315023E+03  0.00000000000E+00 0.  1.
          1    1    3    3  501    0 -0.79480312604E+02  0.17566086596E+03 -0.88511752795E+03  0.90587355531E+03  0.00000000000E+00 0.  1.
         21    1    1    2  502  501  0.46755082008E-04 -0.20645008013E-03  0.80461241102E-03  0.83199086848E-03  0.00000000000E+00 0.  1.
<mgrwt>
<rscale>  1 0.63025937E+03</rscale>
<asrwt>0</asrwt>
<pdfrwt beam="1">  1        1 0.36111908E+00 0.63025937E+03</pdfrwt>
<pdfrwt beam="2">0</pdfrwt>
<totfact> 0.19934898E+00</totfact>
</mgrwt>
</event>
<event>
 6    1  0.2838103E-003  0.6541790E+03  0.7818608E-02  0.9798969E-01
          1   -1    0    0  502    0  0.00000000000E+00  0.00000000000E+00  0.10756079690E+03  0.10756079690E+03  0.00000000000E+00 0.  1.
         13   -1    0    0    0    0 -0.00000000000E+00 -0.00000000000E+00 -0.10000000000E+04  0.10000000000E+04  0.00000000000E+00 0.  1.
    9000005    2    1    2  501    0  0.27809960173E+00  0.12705249294E+01 -0.88808421735E+03  0.11030157475E+04  0.65417770566E+03 0.  0.
         13    1    3    3    0    0 -0.28600939571E+03  0.12288144702E+03 -0.61417080935E+03  0.68855428799E+03  0.00000000000E+00 0.  1.
          3    1    3    3  501    0  0.28628749531E+03 -0.12161092209E+03 -0.27391340800E+03  0.41446145952E+03  0.00000000000E+00 0.  1.
         21    1    1    2  502  501 -0.27809960173E+00 -0.12705249294E+01 -0.43549857522E+01  0.45450493822E+01  0.00000000000E+00 0. -1.
<mgrwt>
<rscale>  1 0.65417900E+03</rscale>
<asrwt>0</asrwt>
<pdfrwt beam="1">  1        1 0.39113100E+00 0.65417900E+03</pdfrwt>
<pdfrwt beam="2">0</pdfrwt>
<totfact> 0.14639113E+00</totfact>
</mgrwt>
</event>
<event>
 6    1  0.2838103E-003  0.6345329E+03  0.7818608E-02  0.9836243E-01
          1   -1    0    0  502    0  0.00000000000E+00  0.00000000000E+00  0.10065938541E+03  0.10065938541E+03  0.00000000000E+00 0.  1.
         13   -1    0    0    0    0 -0.00000000000E+00 -0.00000000000E+00 -0.10000000000E+04  0.10000000000E+04  0.00000000000E+00 0.  1.
    9000005    2    1    2  501    0  0.36179669669E-03 -0.18477235077E-02 -0.89934126506E+03  0.11006573934E+04  0.63453288851E+03 0.  0.
         13    1    3    3    0    0 -0.18867300409E+03  0.12107449286E+03 -0.60249915597E+02  0.23213484793E+03  0.00000000000E+00 0.  1.
          3    1    3    3  501    0  0.18867336588E+03 -0.12107634059E+03 -0.83909134947E+03  0.86852254547E+03  0.00000000000E+00 0.  1.
         21    1    1    2  502  501 -0.36179669670E-03  0.18477235076E-02  0.65047028554E-03  0.19920066774E-02  0.00000000000E+00 0.  1.
<mgrwt>
<rscale>  1 0.63453289E+03</rscale>
<asrwt>0</asrwt>
<pdfrwt beam="1">  1        1 0.36603490E+00 0.63453289E+03</pdfrwt>
<pdfrwt beam="2">0</pdfrwt>
<totfact> 0.18956042E+00</totfact>
</mgrwt>
</event>
<event>
 6    1  0.2838103E-003  0.6482402E+03  0.7818608E-02  0.9810087E-01
          1   -1    0    0  502    0  0.00000000000E+00  0.00000000000E+00  0.10505640532E+03  0.10505640532E+03  0.00000000000E+00 0.  1.
         13   -1    0    0    0    0 -0.00000000000E+00 -0.00000000000E+00 -0.10000000000E+04  0.10000000000E+04  0.00000000000E+00 0.  1.
    9000005    2    1    2  501    0 -0.12080127533E-03  0.26050037920E-03 -0.89494616133E+03  0.11050538227E+04  0.64824017098E+03 0.  0.
         13    1    3    3    0    0  0.31468033311E+03 -0.54969659016E+02 -0.54097379084E+03  0.62824996445E+03  0.00000000000E+00 0.  1.
          1    1    3    3  501    0 -0.31468045391E+03  0.54969919516E+02 -0.35397237049E+03  0.47680385820E+03  0.00000000000E+00 0.  1.
         21    1    1    2  502  501  0.12080127533E-03 -0.26050037920E-03  0.25666560075E-02  0.25826684759E-02  0.00000000000E+00 0. -1.
<mgrwt>
<rscale>  1 0.64824017E+03</rscale>
<asrwt>0</asrwt>
<pdfrwt beam="1">  1        1 0.38202410E+00 0.64824017E+03</pdfrwt>
<pdfrwt beam="2">0</pdfrwt>
<totfact> 0.16080753E+00</totfact>
</mgrwt>
</event>
<event>
 6    1  0.2838103E-003  0.5698400E+03  0.7818608E-02  0.9970033E-01
          1   -1    0    0  502    0  0.00000000000E+00  0.00000000000E+00  0.92759366403E+02  0.92759366403E+02  0.00000000000E+00 0.  1.
         13   -1    0    0    0    0 -0.00000000000E+00 -0.00000000000E+00 -0.10000000000E+04  0.10000000000E+04  0.00000000000E+00 0.  1.
    9000005    2    1    2  501    0 -0.16876071868E+01  0.31681568405E+02 -0.88959798573E+03  0.10564573993E+04  0.56895614105E+03 0.  0.
         13    1    3    3    0    0  0.27120901965E+03  0.73362908660E+02 -0.55995574700E+03  0.62648773915E+03  0.00000000000E+00 0.  1.
          3    1    3    3  501    0 -0.27289662683E+03 -0.41681340255E+02 -0.32964223873E+03  0.42996966011E+03  0.00000000000E+00 0.  1.
         21    1    1    2  502  501  0.16876071868E+01 -0.31681568405E+02 -0.17642647865E+02  0.36301967141E+02  0.00000000000E+00 0.  1.
<mgrwt>
<rscale>  1 0.56984003E+03</rscale>
<asrwt>0</asrwt>
<pdfrwt beam="1">  1        1 0.33730750E+00 0.56984003E+03</pdfrwt>
<pdfrwt beam="2">0</pdfrwt>
<totfact> 0.25596438E+00</totfact>
</mgrwt>
</event>
<event>
 6    1  0.2838103E-003  0.6505493E+03  0.7818608E-02  0.9805749E-01
          1   -1    0    0  502    0  0.00000000000E+00  0.00000000000E+00  0.10589662579E+03  0.10589662579E+03  0.00000000000E+00 0.  1.
         13   -1    0    0    0    0 -0.00000000000E+00 -0.00000000000E+00 -0.10000000000E+04  0.10000000000E+04  0.00000000000E+00 0.  1.
    9000005    2    1    2  501    0  0.34166160372E-01  0.22792627554E+00 -0.89399804787E+03  0.11056432262E+04  0.65054929170E+03 0.  0.
         13    1    3    3    0    0  0.11308125268E+03  0.22066076547E+03 -0.80514758212E+03  0.84246137723E+03  0.00000000000E+00 0.  1.
          3    1    3    3  501    0 -0.11304708652E+03 -0.22043283919E+03 -0.88850465748E+02  0.26318184897E+03  0.00000000000E+00 0.  1.
         21    1    1    2  502  501 -0.34166160372E-01 -0.22792627554E+00 -0.10532634276E+00  0.25339958973E+00  0.00000000000E+00 0. -1.
<mgrwt>
<rscale>  1 0.65054933E+03</rscale>
<asrwt>0</asrwt>
<pdfrwt beam="1">  1        1 0.38507945E+00 0.65054933E+03</pdfrwt>
<pdfrwt beam="2">0</pdfrwt>
<totfact> 0.15581768E+00</totfact>
</mgrwt>
</event>
<event>
 6    1  0.2838103E-003  0.6441311E+03  0.7818608E-02  0.9817855E-01
          1   -1    0    0  502    0  0.00000000000E+00  0.00000000000E+00  0.10382874952E+03  0.10382874952E+03  0.00000000000E+00 0.  1.
         13   -1    0    0    0    0 -0.00000000000E+00 -0.00000000000E+00 -0.10000000000E+04  0.10000000000E+04  0.00000000000E+00 0.  1.
    9000005    2    1    2  501    0 -0.14377561021E+00  0.18037118231E+00 -0.89610426281E+03  0.11035885568E+04  0.64413104232E+03 0.  0.
         13    1    3    3    0    0  0.99350325177E+02 -0.14327058289E+03  0.15858013207E+02  0.17506691183E+03  0.00000000000E+00 0.  1.
          3    1    3    3  501    0 -0.99494100787E+02  0.14345095407E+03 -0.91196227602E+03  0.92852164498E+03  0.00000000000E+00 0.  1.
         21    1    1    2  502  501  0.14377561021E+00 -0.18037118231E+00 -0.66987673995E-01  0.24019271006E+00  0.00000000000E+00 0. -1.
<mgrwt>
<rscale>  1 0.64413108E+03</rscale>
<asrwt>0</asrwt>
<pdfrwt beam="1">  1        1 0.37755989E+00 0.64413108E+03</pdfrwt>
<pdfrwt beam="2">0</pdfrwt>
<totfact> 0.16839513E+00</totfact>
</mgrwt>
</event>
<event>
 6    1  0.2838103E-003  0.6569604E+03  0.7818608E-02  0.9793805E-01
          1   -1    0    0  502    0  0.00000000000E+00  0.00000000000E+00  0.10789932890E+03  0.10789932890E+03  0.00000000000E+00 0.  1.
         13   -1    0    0    0    0 -0.00000000000E+00 -0.00000000000E+00 -0.10000000000E+04  0.10000000000E+04  0.00000000000E+00 0.  1.
    9000005    2    1    2  501    0  0.74646130315E-04  0.14484879165E-03 -0.89210063492E+03  0.11078991620E+04  0.65696043281E+03 0.  0.
         13    1    3    3    0    0 -0.27237940887E+03  0.30235062970E+02 -0.14065539860E+03  0.30804000156E+03  0.00000000000E+00 0.  1.
          1    1    3    3  501    0  0.27237948351E+03 -0.30234918121E+02 -0.75144523632E+03  0.79985916041E+03  0.00000000000E+00 0.  1.
         21    1    1    2  502  501 -0.74646130331E-04 -0.14484879164E-03 -0.36183311499E-04  0.16692048779E-03  0.00000000000E+00 0. -1.
<mgrwt>
<rscale>  1 0.65696043E+03</rscale>
<asrwt>0</asrwt>
<pdfrwt beam="1">  1        1 0.39236202E+00 0.65696043E+03</pdfrwt>
<pdfrwt beam="2">0</pdfrwt>
<totfact> 0.14448606E+00</totfact>
</mgrwt>
</event>
<event>
 6    1  0.2838103E-003  0.6543376E+03  0.7818608E-02  0.9798674E-01
          1   -1    0    0  502    0  0.00000000000E+00  0.00000000000E+00  0.10704526849E+03  0.10704526849E+03  0.00000000000E+00 0.  1.
         13   -1    0    0    0    0 -0.00000000000E+00 -0.00000000000E+00 -0.10000000000E+04  0.10000000000E+04  0.00000000000E+00 0.  1.
    9000005    2    1    2  501    0  0.20185743801E-03 -0.37720911118E-03 -0.89296057197E+03  0.11070394124E+04  0.65433758678E+03 0.  0.
         13    1    3    3    0    0  0.23357033680E+03 -0.22839335952E+03 -0.47678890421E+03  0.57796737632E+03  0.00000000000E+00 0.  1.
          3    1    3    3  501    0 -0.23357013494E+03  0.22839298231E+03 -0.41617166775E+03  0.52907203607E+03  0.00000000000E+00 0.  1.
         21    1    1    2  502  501 -0.20185743804E-03  0.37720911117E-03  0.58404584411E-02  0.58561068929E-02  0.00000000000E+00 0.  1.
<mgrwt>
<rscale>  1 0.65433759E+03</rscale>
<asrwt>0</asrwt>
<pdfrwt beam="1">  1        1 0.38925634E+00 0.65433759E+03</pdfrwt>
<pdfrwt beam="2">0</pdfrwt>
<totfact> 0.14921632E+00</totfact>
</mgrwt>
</event>
<event>
 6    1  0.2838103E-003  0.6569825E+03  0.7818608E-02  0.9793765E-01
          1   -1    0    0  502    0  0.00000000000E+00  0.00000000000E+00  0.11817953608E+03  0.11817953608E+03  0.00000000000E+00 0.  1.
         13   -1    0    0    0    0 -0.00000000000E+00 -0.00000000000E+00 -0.10000000000E+04  0.10000000000E+04  0.00000000000E+00 0.  1.
    9000005    2    1    2  501    0  0.34193153864E+01  0.58907008828E+00 -0.89176790196E+03  0.11076443453E+04  0.65697333736E+03 0.  0.
         13    1    3    3    0    0  0.14480661672E+03 -0.25546393277E+03 -0.69673454668E+03  0.75608849068E+03  0.00000000000E+00 0.  1.
          3    1    3    3  501    0 -0.14138730134E+03  0.25605300286E+03 -0.19503335527E+03  0.35155585462E+03  0.00000000000E+00 0.  1.
         21    1    1    2  502  501 -0.34193153864E+01 -0.58907008828E+00  0.99474380328E+01  0.10535190776E+02  0.00000000000E+00 0. -1.
<mgrwt>
<rscale>  1 0.65698250E+03</rscale>
<asrwt>0</asrwt>
<pdfrwt beam="1">  1        1 0.42974467E+00 0.65698250E+03</pdfrwt>
<pdfrwt beam="2">0</pdfrwt>
<totfact> 0.98188957E-01</totfact>
</mgrwt>
</event>
<event>
 6    1  0.2838103E-003  0.6403443E+03  0.7818608E-02  0.9825068E-01
          1   -1    0    0  502    0  0.00000000000E+00  0.00000000000E+00  0.10251284377E+03  0.10251284377E+03  0.00000000000E+00 0.  1.
         13   -1    0    0    0    0 -0.00000000000E+00 -0.00000000000E+00 -0.10000000000E+04  0.10000000000E+04  0.00000000000E+00 0.  1.
    9000005    2    1    2  501    0  0.20028927639E-03  0.70939709559E-04 -0.89748977845E+03  0.11025102130E+04  0.64034433491E+03 0.  0.
         13    1    3    3    0    0  0.27912362010E+03  0.15628668035E+03 -0.47150610289E+03  0.56978375443E+03  0.00000000000E+00 0.  1.
          3    1    3    3  501    0 -0.27912341981E+03 -0.15628660941E+03 -0.42598367556E+03  0.53272645852E+03  0.00000000000E+00 0.  1.
         21    1    1    2  502  501 -0.20028927641E-03 -0.70939709563E-04  0.26222175210E-02  0.26308122251E-02  0.00000000000E+00 0. -1.
<mgrwt>
<rscale>  1 0.64034433E+03</rscale>
<asrwt>0</asrwt>
<pdfrwt beam="1">  1        1 0.37277476E+00 0.64034433E+03</pdfrwt>
<pdfrwt beam="2">0</pdfrwt>
<totfact> 0.17688675E+00</totfact>
</mgrwt>
</event>
<event>
 6    1  0.2838103E-003  0.6397112E+03  0.7818608E-02  0.9826279E-01
          3   -1    0    0  502    0  0.00000000000E+00  0.00000000000E+00  0.10502312310E+03  0.10502312310E+03  0.00000000000E+00 0.  1.
         13   -1    0    0    0    0 -0.00000000000E+00 -0.00000000000E+00 -0.10000000000E+04  0.10000000000E+04  0.00000000000E+00 0.  1.
    9000005    2    1    2  501    0 -0.81072335995E+01 -0.13997725815E+01 -0.88018837557E+03  0.10881001691E+04  0.63965827982E+03 0.  0.
         13    1    3    3    0    0 -0.27010059389E+02 -0.15785518773E+03 -0.91315805295E+03  0.92709515869E+03  0.00000000000E+00 0.  1.
          3    1    3    3  501    0  0.18902825790E+02  0.15645541515E+03  0.32969677387E+02  0.16100501042E+03  0.00000000000E+00 0.  1.
         21    1    1    2  502  501  0.81072335995E+01  0.13997725815E+01 -0.14788501334E+02  0.16922953986E+02  0.00000000000E+00 0.  1.
<mgrwt>
<rscale>  1 0.63971119E+03</rscale>
<asrwt>0</asrwt>
<pdfrwt beam="1">  1        3 0.38190307E+00 0.63971119E+03</pdfrwt>
<pdfrwt beam="2">0</pdfrwt>
<totfact> 0.73879116E-02</totfact>
</mgrwt>
</event>
<event>
 6    1  0.2838103E-003  0.6168105E+03  0.7818608E-02  0.9871131E-01
          1   -1    0    0  502    0  0.00000000000E+00  0.00000000000E+00  0.95183318901E+02  0.95183318901E+02  0.00000000000E+00 0.  1.
         13   -1    0    0    0    0 -0.00000000000E+00 -0.00000000000E+00 -0.10000000000E+04  0.10000000000E+04  0.00000000000E+00 0.  1.
    9000005    2    1    2  501    0 -0.45619095821E-02  0.41647366022E-01 -0.90487924106E+03  0.10951080257E+04  0.61681046143E+03 0.  0.
         13    1    3    3    0    0  0.17873109102E+03  0.75379544791E+02 -0.26750213306E+02  0.19581228915E+03  0.00000000000E+00 0.  1.
          1    1    3    3  501    0 -0.17873565293E+03 -0.75337897425E+02 -0.87812902776E+03  0.89929573657E+03  0.00000000000E+00 0.  1.
         21    1    1    2  502  501  0.45619095821E-02 -0.41647366022E-01  0.62559965371E-01  0.75293182845E-01  0.00000000000E+00 0. -1.
<mgrwt>
<rscale>  1 0.61681046E+03</rscale>
<asrwt>0</asrwt>
<pdfrwt beam="1">  1        1 0.34612189E+00 0.61681046E+03</pdfrwt>
<pdfrwt beam="2">0</pdfrwt>
<totfact> 0.23232541E+00</totfact>
</mgrwt>
</event>
<event>
 6    1  0.2838103E-003  0.6399261E+03  0.7818608E-02  0.9825868E-01
          1   -1    0    0  502    0  0.00000000000E+00  0.00000000000E+00  0.10251966448E+03  0.10251966448E+03  0.00000000000E+00 0.  1.
         13   -1    0    0    0    0 -0.00000000000E+00 -0.00000000000E+00 -0.10000000000E+04  0.10000000000E+04  0.00000000000E+00 0.  1.
    9000005    2    1    2  501    0 -0.20406937336E-02 -0.76487245877E-03 -0.89762364473E+03  0.11023763387E+04  0.63992607742E+03 0.  0.
         13    1    3    3    0    0  0.18652081213E+03 -0.98761418936E+02 -0.34539737982E+02  0.21386169533E+03  0.00000000000E+00 0.  1.
          1    1    3    3  501    0 -0.18652285283E+03  0.98760654063E+02 -0.86308390674E+03  0.88851464338E+03  0.00000000000E+00 0.  1.
         21    1    1    2  502  501  0.20406937336E-02  0.76487245878E-03  0.14330920393E+00  0.14332577364E+00  0.00000000000E+00 0. -1.
<mgrwt>
<rscale>  1 0.63992608E+03</rscale>
<asrwt>0</asrwt>
<pdfrwt beam="1">  1        1 0.37279957E+00 0.63992608E+03</pdfrwt>
<pdfrwt beam="2">0</pdfrwt>
<totfact> 0.17685584E+00</totfact>
</mgrwt>
</event>
<event>
 6    1  0.2838103E-003  0.6503705E+03  0.7818608E-02  0.9806084E-01
          1   -1    0    0  502    0  0.00000000000E+00  0.00000000000E+00  0.10574568512E+03  0.10574568512E+03  0.00000000000E+00 0.  1.
         13   -1    0    0    0    0 -0.00000000000E+00 -0.00000000000E+00 -0.10000000000E+04  0.10000000000E+04  0.00000000000E+00 0.  1.
    9000005    2    1    2  501    0 -0.94794304715E-04 -0.39640849025E-04 -0.89425452915E+03  0.11057454475E+04  0.65037053418E+03 0.  0.
         13    1    3    3    0    0  0.14157358143E+03 -0.19087381201E+03 -0.82451139660E+03  0.85807629858E+03  0.00000000000E+00 0.  1.
          3    1    3    3  501    0 -0.14157367623E+03  0.19087377237E+03 -0.69743132554E+02  0.24766914890E+03  0.00000000000E+00 0.  1.
         21    1    1    2  502  501  0.94794304695E-04  0.39640849042E-04  0.21427111101E-03  0.23763304932E-03  0.00000000000E+00 0.  1.
<mgrwt>
<rscale>  1 0.65037053E+03</rscale>
<asrwt>0</asrwt>
<pdfrwt beam="1">  1        1 0.38453057E+00 0.65037053E+03</pdfrwt>
<pdfrwt beam="2">0</pdfrwt>
<totfact> 0.15669627E+00</totfact>
</mgrwt>
</event>
<event>
 6    1  0.2838103E-003  0.6368652E+03  0.7818608E-02  0.9831743E-01
          1   -1    0    0  502    0  0.00000000000E+00  0.00000000000E+00  0.10140030816E+03  0.10140030816E+03  0.00000000000E+00 0.  1.
         13   -1    0    0    0    0 -0.00000000000E+00 -0.00000000000E+00 -0.10000000000E+04  0.10000000000E+04  0.00000000000E+00 0.  1.
    9000005    2    1    2  501    0 -0.49767701341E-04 -0.21275478360E-04 -0.89860068906E+03  0.11013993095E+04  0.63686516667E+03 0.  0.
         13    1    3    3    0    0 -0.27670650452E+03 -0.13399229587E+03 -0.30586481338E+03  0.43367465808E+03  0.00000000000E+00 0.  1.
          3    1    3    3  501    0  0.27670645475E+03  0.13399227459E+03 -0.59273587568E+03  0.66772465139E+03  0.00000000000E+00 0.  1.
         21    1    1    2  502  501  0.49767701368E-04  0.21275478363E-04  0.99722291327E-03  0.99869064722E-03  0.00000000000E+00 0. -1.
<mgrwt>
<rscale>  1 0.63686517E+03</rscale>
<asrwt>0</asrwt>
<pdfrwt beam="1">  1        1 0.36872917E+00 0.63686517E+03</pdfrwt>
<pdfrwt beam="2">0</pdfrwt>
<totfact> 0.18439295E+00</totfact>
</mgrwt>
</event>
<event>
 6    1  0.2838103E-003  0.6432418E+03  0.7818608E-02  0.9819544E-01
          1   -1    0    0  502    0  0.00000000000E+00  0.00000000000E+00  0.10362336511E+03  0.10362336511E+03  0.00000000000E+00 0.  1.
         13   -1    0    0    0    0 -0.00000000000E+00 -0.00000000000E+00 -0.10000000000E+04  0.10000000000E+04  0.00000000000E+00 0.  1.
    9000005    2    1    2  501    0 -0.65456915933E-01 -0.62315040060E-02 -0.89655345887E+03  0.11034347116E+04  0.64324183146E+03 0.  0.
         13    1    3    3    0    0  0.14112082608E+03 -0.27665228716E+03 -0.30493318348E+03  0.43524225660E+03  0.00000000000E+00 0.  1.
          1    1    3    3  501    0 -0.14118628299E+03  0.27664605565E+03 -0.59162027539E+03  0.66819245496E+03  0.00000000000E+00 0.  1.
         21    1    1    2  502  501  0.65456915933E-01  0.62315040060E-02  0.17682398109E+00  0.18865354429E+00  0.00000000000E+00 0. -1.
<mgrwt>
<rscale>  1 0.64324183E+03</rscale>
<asrwt>0</asrwt>
<pdfrwt beam="1">  1        1 0.37681303E+00 0.64324183E+03</pdfrwt>
<pdfrwt beam="2">0</pdfrwt>
<totfact> 0.16970364E+00</totfact>
</mgrwt>
</event>
<event>
 6    1  0.2838103E-003  0.6665010E+03  0.7818608E-02  0.9776300E-01
          1   -1    0    0  502    0  0.00000000000E+00  0.00000000000E+00  0.11109634043E+03  0.11109634043E+03  0.00000000000E+00 0.  1.
         13   -1    0    0    0    0 -0.00000000000E+00 -0.00000000000E+00 -0.10000000000E+04  0.10000000000E+04  0.00000000000E+00 0.  1.
    9000005    2    1    2  501    0 -0.18644813597E-02 -0.55575508590E-02 -0.88894385879E+03  0.11110557161E+04  0.66650102780E+03 0.  0.
         13    1    3    3    0    0  0.29662770932E+03 -0.14712626081E+03 -0.38161017355E+03  0.50523307405E+03  0.00000000000E+00 0.  1.
          3    1    3    3  501    0 -0.29662957380E+03  0.14712070326E+03 -0.50733368524E+03  0.60582264200E+03  0.00000000000E+00 0.  1.
         21    1    1    2  502  501  0.18644813597E-02  0.55575508590E-02  0.40199219573E-01  0.40624375892E-01  0.00000000000E+00 0.  1.
<mgrwt>
<rscale>  1 0.66650103E+03</rscale>
<asrwt>0</asrwt>
<pdfrwt beam="1">  1        1 0.40398754E+00 0.66650103E+03</pdfrwt>
<pdfrwt beam="2">0</pdfrwt>
<totfact> 0.12801548E+00</totfact>
</mgrwt>
</event>
<event>
 6    1  0.2838103E-003  0.6513466E+03  0.7818608E-02  0.9804256E-01
          1   -1    0    0  502    0  0.00000000000E+00  0.00000000000E+00  0.11271313825E+03  0.11271313825E+03  0.00000000000E+00 0.  1.
         13   -1    0    0    0    0 -0.00000000000E+00 -0.00000000000E+00 -0.10000000000E+04  0.10000000000E+04  0.00000000000E+00 0.  1.
    9000005    2    1    2  501    0 -0.47589082931E+01 -0.27327453735E+01 -0.89266104376E+03  0.11050321918E+04  0.65132349170E+03 0.  0.
         13    1    3    3    0    0  0.99773078319E+02  0.29746932735E+03 -0.30869983961E+03  0.44015708428E+03  0.00000000000E+00 0.  1.
          1    1    3    3  501    0 -0.10453198661E+03 -0.30020207272E+03 -0.58396120415E+03  0.66487510756E+03  0.00000000000E+00 0.  1.
         21    1    1    2  502  501  0.47589082931E+01  0.27327453735E+01  0.53741820102E+01  0.76809464064E+01  0.00000000000E+00 0. -1.
<mgrwt>
<rscale>  1 0.65134661E+03</rscale>
<asrwt>0</asrwt>
<pdfrwt beam="1">  1        1 0.40986682E+00 0.65134661E+03</pdfrwt>
<pdfrwt beam="2">0</pdfrwt>
<totfact> 0.12083734E+00</totfact>
</mgrwt>
</event>
<event>
 6    1  0.2838103E-003  0.6557632E+03  0.7818608E-02  0.9796025E-01
          1   -1    0    0  502    0  0.00000000000E+00  0.00000000000E+00  0.10750634451E+03  0.10750634451E+03  0.00000000000E+00 0.  1.
         13   -1    0    0    0    0 -0.00000000000E+00 -0.00000000000E+00 -0.10000000000E+04  0.10000000000E+04  0.00000000000E+00 0.  1.
    9000005    2    1    2  501    0  0.21924790872E-06  0.57650393330E-05 -0.89249366338E+03  0.11075063347E+04  0.65576317548E+03 0.  0.
         13    1    3    3    0    0 -0.24509051034E+03  0.20561082793E+03 -0.32491546358E+03  0.45597722453E+03  0.00000000000E+00 0.  1.
          3    1    3    3  501    0  0.24509051056E+03 -0.20561082216E+03 -0.56757819980E+03  0.65152911021E+03  0.00000000000E+00 0.  1.
         21    1    1    2  502  501 -0.21924792103E-06 -0.57650393415E-05  0.78897095306E-05  0.97740096551E-05  0.00000000000E+00 0.  1.
<mgrwt>
<rscale>  1 0.65576318E+03</rscale>
<asrwt>0</asrwt>
<pdfrwt beam="1">  1        1 0.39093299E+00 0.65576318E+03</pdfrwt>
<pdfrwt beam="2">0</pdfrwt>
<totfact> 0.14664443E+00</totfact>
</mgrwt>
</event>
<event>
 6    1  0.2838103E-003  0.6621338E+03  0.7818608E-02  0.9784274E-01
          1   -1    0    0  502    0  0.00000000000E+00  0.00000000000E+00  0.10983225690E+03  0.10983225690E+03  0.00000000000E+00 0.  1.
         13   -1    0    0    0    0 -0.00000000000E+00 -0.00000000000E+00 -0.10000000000E+04  0.10000000000E+04  0.00000000000E+00 0.  1.
    9000005    2    1    2  501    0  0.32745336602E-02 -0.35547587983E-03 -0.89039470778E+03  0.11096052683E+04  0.66213375977E+03 0.  0.
         13    1    3    3    0    0 -0.28549206534E+03  0.78550731865E+02 -0.69335212196E+03  0.75393176208E+03  0.00000000000E+00 0.  1.
          1    1    3    3  501    0  0.28549533988E+03 -0.78551087341E+02 -0.19704258582E+03  0.35567350624E+03  0.00000000000E+00 0.  1.
         21    1    1    2  502  501 -0.32745336602E-02  0.35547587983E-03  0.22696468531E+00  0.22698858410E+00  0.00000000000E+00 0.  1.
<mgrwt>
<rscale>  1 0.66213376E+03</rscale>
<asrwt>0</asrwt>
<pdfrwt beam="1">  1        1 0.39939087E+00 0.66213376E+03</pdfrwt>
<pdfrwt beam="2">0</pdfrwt>
<totfact> 0.13431852E+00</totfact>
</mgrwt>
</event>
<event>
 6    1  0.2838103E-003  0.6485689E+03  0.7818608E-02  0.9809468E-01
          1   -1    0    0  502    0  0.00000000000E+00  0.00000000000E+00  0.10570361661E+03  0.10570361661E+03  0.00000000000E+00 0.  1.
         13   -1    0    0    0    0 -0.00000000000E+00 -0.00000000000E+00 -0.10000000000E+04  0.10000000000E+04  0.00000000000E+00 0.  1.
    9000005    2    1    2  501    0 -0.87770373038E+00  0.14230039773E+01 -0.89209354449E+03  0.11029381504E+04  0.64856678620E+03 0.  0.
         13    1    3    3    0    0 -0.18221375881E+03 -0.25647838489E+03 -0.57701669734E+03  0.65721479352E+03  0.00000000000E+00 0.  1.
          1    1    3    3  501    0  0.18133605508E+03  0.25790138886E+03 -0.31507684716E+03  0.44572335687E+03  0.00000000000E+00 0.  1.
         21    1    1    2  502  501  0.87770373038E+00 -0.14230039773E+01 -0.22028389007E+01  0.27654662139E+01  0.00000000000E+00 0.  1.
<mgrwt>
<rscale>  1 0.64856894E+03</rscale>
<asrwt>0</asrwt>
<pdfrwt beam="1">  1        1 0.38437760E+00 0.64856894E+03</pdfrwt>
<pdfrwt beam="2">0</pdfrwt>
<totfact> 0.15699275E+00</totfact>
</mgrwt>
</event>
<event>
 6    1  0.2838103E-003  0.6517019E+03  0.7818608E-02  0.9803591E-01
          1   -1    0    0  502    0  0.00000000000E+00  0.00000000000E+00  0.10617883210E+03  0.10617883210E+03  0.00000000000E+00 0.  1.
         13   -1    0    0    0    0 -0.00000000000E+00 -0.00000000000E+00 -0.10000000000E+04  0.10000000000E+04  0.00000000000E+00 0.  1.
    9000005    2    1    2  501    0  0.25722790724E-05 -0.12127899254E-05 -0.89382117266E+03  0.11061788266E+04  0.65170185485E+03 0.  0.
         13    1    3    3    0    0  0.29919229767E+03 -0.59652467803E+02 -0.64121587646E+03  0.71009312637E+03  0.00000000000E+00 0.  1.
          3    1    3    3  501    0 -0.29919229510E+03  0.59652466590E+02 -0.25260529621E+03  0.39608570018E+03  0.00000000000E+00 0.  1.
         21    1    1    2  502  501 -0.25722790839E-05  0.12127899252E-05  0.47670193646E-05  0.55508515302E-05  0.00000000000E+00 0. -1.
<mgrwt>
<rscale>  1 0.65170185E+03</rscale>
<asrwt>0</asrwt>
<pdfrwt beam="1">  1        1 0.38610566E+00 0.65170185E+03</pdfrwt>
<pdfrwt beam="2">0</pdfrwt>
<totfact> 0.15416428E+00</totfact>
</mgrwt>
</event>
<event>
 6    1  0.2838103E-003  0.6603957E+03  0.7818608E-02  0.9787466E-01
          1   -1    0    0  502    0  0.00000000000E+00  0.00000000000E+00  0.10937093645E+03  0.10937093645E+03  0.00000000000E+00 0.  1.
         13   -1    0    0    0    0 -0.00000000000E+00 -0.00000000000E+00 -0.10000000000E+04  0.10000000000E+04  0.00000000000E+00 0.  1.
    9000005    2    1    2  501    0  0.10518579526E+00  0.81841972415E-01 -0.89095483608E+03  0.11090189565E+04  0.66039572086E+03 0.  0.
         13    1    3    3    0    0 -0.18781206713E+03 -0.20152332494E+03 -0.13983380444E+03  0.30893124788E+03  0.00000000000E+00 0.  1.
          1    1    3    3  501    0  0.18791725292E+03  0.20160516691E+03 -0.75112103164E+03  0.80008770859E+03  0.00000000000E+00 0.  1.
         21    1    1    2  502  501 -0.10518579526E+00 -0.81841972415E-01  0.32577252455E+00  0.35197996779E+00  0.00000000000E+00 0. -1.
<mgrwt>
<rscale>  1 0.66039573E+03</rscale>
<asrwt>0</asrwt>
<pdfrwt beam="1">  1        1 0.39771333E+00 0.66039573E+03</pdfrwt>
<pdfrwt beam="2">0</pdfrwt>
<totfact> 0.13669460E+00</totfact>
</mgrwt>
</event>
<event>
 6    1  0.2838103E-003  0.6090508E+03  0.7818608E-02  0.9886804E-01
          1   -1    0    0  502    0  0.00000000000E+00  0.00000000000E+00  0.10896500497E+03  0.10896500497E+03  0.00000000000E+00 0.  1.
         13   -1    0    0    0    0 -0.00000000000E+00 -0.00000000000E+00 -0.10000000000E+04  0.10000000000E+04  0.00000000000E+00 0.  1.
    9000005    2    1    2  501    0 -0.27896298518E+02 -0.43163142050E+01 -0.89271553129E+03  0.10806867759E+04  0.60839629657E+03 0.  0.
         13    1    3    3    0    0 -0.45746807252E+02  0.10673032206E+03  0.53469673777E+02  0.12784028330E+03  0.00000000000E+00 0.  1.
          3    1    3    3  501    0  0.17850508734E+02 -0.11104663627E+03 -0.94618520507E+03  0.95284649256E+03  0.00000000000E+00 0.  1.
         21    1    1    2  502  501  0.27896298518E+02  0.43163142050E+01  0.16805362665E+01  0.28278229107E+02  0.00000000000E+00 0. -1.
<mgrwt>
<rscale>  1 0.60905081E+03</rscale>
<asrwt>0</asrwt>
<pdfrwt beam="1">  1        1 0.39623722E+00 0.60905081E+03</pdfrwt>
<pdfrwt beam="2">0</pdfrwt>
<totfact> 0.14016062E+00</totfact>
</mgrwt>
</event>
<event>
 6    1  0.2838103E-003  0.6465747E+03  0.7818608E-02  0.9813228E-01
          1   -1    0    0  502    0  0.00000000000E+00  0.00000000000E+00  0.13238463979E+03  0.13238463979E+03  0.00000000000E+00 0.  1.
         13   -1    0    0    0    0 -0.00000000000E+00 -0.00000000000E+00 -0.10000000000E+04  0.10000000000E+04  0.00000000000E+00 0.  1.
    9000005    2    1    2  501    0 -0.13823097280E+01 -0.26894655053E+01 -0.89539465844E+03  0.11044412432E+04  0.64656764631E+03 0.  0.
         13    1    3    3    0    0  0.25605854687E+03  0.16035376082E+03 -0.25543417067E+03  0.39563357236E+03  0.00000000000E+00 0.  1.
          1    1    3    3  501    0 -0.25744085660E+03 -0.16304322632E+03 -0.63996048776E+03  0.70880767081E+03  0.00000000000E+00 0.  1.
         21    1    1    2  502  501  0.13823097280E+01  0.26894655053E+01  0.27779298226E+02  0.27943396623E+02  0.00000000000E+00 0. -1.
<mgrwt>
<rscale>  1 0.64657472E+03</rscale>
<asrwt>0</asrwt>
<pdfrwt beam="1">  1        1 0.48139971E+00 0.64657472E+03</pdfrwt>
<pdfrwt beam="2">0</pdfrwt>
<totfact> 0.56751626E-01</totfact>
</mgrwt>
</event>
<event>
 6    1  0.2838103E-003  0.6494032E+03  0.7818608E-02  0.9807900E-01
          1   -1    0    0  502    0  0.00000000000E+00  0.00000000000E+00  0.10543222045E+03  0.10543222045E+03  0.00000000000E+00 0.  1.
         13   -1    0    0    0    0 -0.00000000000E+00 -0.00000000000E+00 -0.10000000000E+04  0.10000000000E+04  0.00000000000E+00 0.  1.
    9000005    2    1    2  501    0 -0.13955574173E-03 -0.25749518980E-03 -0.89456886223E+03  0.11054310989E+04  0.64940316065E+03 0.  0.
         13    1    3    3    0    0  0.16177098916E+03 -0.22941035960E+03 -0.72507712222E+03  0.77751900246E+03  0.00000000000E+00 0.  1.
          3    1    3    3  501    0 -0.16177112872E+03  0.22941010210E+03 -0.16949174001E+03  0.32791209640E+03  0.00000000000E+00 0.  1.
         21    1    1    2  502  501  0.13955574173E-03  0.25749518980E-03  0.10826729640E-02  0.11215883045E-02  0.00000000000E+00 0.  1.
<mgrwt>
<rscale>  1 0.64940316E+03</rscale>
<asrwt>0</asrwt>
<pdfrwt beam="1">  1        1 0.38339070E+00 0.64940316E+03</pdfrwt>
<pdfrwt beam="2">0</pdfrwt>
<totfact> 0.15855336E+00</totfact>
</mgrwt>
</event>
<event>
 6    1  0.2838103E-003  0.6429804E+03  0.7818608E-02  0.9820041E-01
          1   -1    0    0  502    0  0.00000000000E+00  0.00000000000E+00  0.10336320179E+03  0.10336320179E+03  0.00000000000E+00 0.  1.
         13   -1    0    0    0    0 -0.00000000000E+00 -0.00000000000E+00 -0.10000000000E+04  0.10000000000E+04  0.00000000000E+00 0.  1.
    9000005    2    1    2  501    0  0.10065083951E-01  0.92507454154E-02 -0.89663609781E+03  0.11033495134E+04  0.64298044805E+03 0.  0.
         13    1    3    3    0    0  0.65604238209E+02 -0.20110400129E+03 -0.86374165989E+03  0.88926733350E+03  0.00000000000E+00 0.  1.
          1    1    3    3  501    0 -0.65594173125E+02  0.20111325203E+03 -0.32894437921E+02  0.21408217987E+03  0.00000000000E+00 0.  1.
         21    1    1    2  502  501 -0.10065083951E-01 -0.92507454153E-02 -0.70039744322E-03  0.13688417084E-01  0.00000000000E+00 0.  1.
<mgrwt>
<rscale>  1 0.64298045E+03</rscale>
<asrwt>0</asrwt>
<pdfrwt beam="1">  1        1 0.37586698E+00 0.64298045E+03</pdfrwt>
<pdfrwt beam="2">0</pdfrwt>
<totfact> 0.17134792E+00</totfact>
</mgrwt>
</event>
<event>
 6    1  0.2838103E-003  0.6603391E+03  0.7818608E-02  0.9787570E-01
          1   -1    0    0  502    0  0.00000000000E+00  0.00000000000E+00  0.10901988501E+03  0.10901988501E+03  0.00000000000E+00 0.  1.
         13   -1    0    0    0    0 -0.00000000000E+00 -0.00000000000E+00 -0.10000000000E+04  0.10000000000E+04  0.00000000000E+00 0.  1.
    9000005    2    1    2  501    0 -0.18875886896E-01  0.12259558247E-01 -0.89096188651E+03  0.11089909217E+04  0.66033914067E+03 0.  0.
         13    1    3    3    0    0 -0.81277145662E+02 -0.27908808197E+03 -0.70842358037E+03  0.76574153677E+03  0.00000000000E+00 0.  1.
          3    1    3    3  501    0  0.81258269775E+02  0.27910034153E+03 -0.18253830614E+03  0.34324938494E+03  0.00000000000E+00 0.  1.
         21    1    1    2  502  501  0.18875886896E-01 -0.12259558246E-01 -0.18228478007E-01  0.28963309288E-01  0.00000000000E+00 0. -1.
<mgrwt>
<rscale>  1 0.66033914E+03</rscale>
<asrwt>0</asrwt>
<pdfrwt beam="1">  1        1 0.39643678E+00 0.66033914E+03</pdfrwt>
<pdfrwt beam="2">0</pdfrwt>
<totfact> 0.13849657E+00</totfact>
</mgrwt>
</event>
<event>
 6    1  0.2838103E-003  0.6513640E+03  0.7818608E-02  0.9804223E-01
          1   -1    0    0  502    0  0.00000000000E+00  0.00000000000E+00  0.10607016668E+03  0.10607016668E+03  0.00000000000E+00 0.  1.
         13   -1    0    0    0    0 -0.00000000000E+00 -0.00000000000E+00 -0.10000000000E+04  0.10000000000E+04  0.00000000000E+00 0.  1.
    9000005    2    1    2  501    0  0.62922238101E-04 -0.18456743285E-03 -0.89393122933E+03  0.11060687571E+04  0.65136399400E+03 0.  0.
         13    1    3    3    0    0  0.23077559834E+03  0.16332620427E+03 -0.72148766611E+03  0.77490468971E+03  0.00000000000E+00 0.  1.
          1    1    3    3  501    0 -0.23077553542E+03 -0.16332638884E+03 -0.17244356322E+03  0.33116406740E+03  0.00000000000E+00 0.  1.
         21    1    1    2  502  501 -0.62922238116E-04  0.18456743285E-03  0.13960161869E-02  0.14095692744E-02  0.00000000000E+00 0. -1.
<mgrwt>
<rscale>  1 0.65136399E+03</rscale>
<asrwt>0</asrwt>
<pdfrwt beam="1">  1        1 0.38571051E+00 0.65136399E+03</pdfrwt>
<pdfrwt beam="2">0</pdfrwt>
<totfact> 0.15479592E+00</totfact>
</mgrwt>
</event>
<event>
 6    1  0.2838103E-003  0.6570825E+03  0.7818608E-02  0.9793579E-01
          1   -1    0    0  502    0  0.00000000000E+00  0.00000000000E+00  0.10979405863E+03  0.10979405863E+03  0.00000000000E+00 0.  1.
         13   -1    0    0    0    0 -0.00000000000E+00 -0.00000000000E+00 -0.10000000000E+04  0.10000000000E+04  0.00000000000E+00 0.  1.
    9000005    2    1    2  501    0 -0.84705883784E+00  0.42670482250E+01 -0.88860415795E+03  0.11051582287E+04  0.65706806016E+03 0.  0.
         13    1    3    3    0    0  0.23438664951E+03  0.15482996822E+03 -0.15643792228E+03  0.32153109345E+03  0.00000000000E+00 0.  1.
          3    1    3    3  501    0 -0.23523370834E+03 -0.15056292000E+03 -0.73216623567E+03  0.78362713523E+03  0.00000000000E+00 0.  1.
         21    1    1    2  502  501  0.84705883784E+00 -0.42670482250E+01 -0.16017834189E+01  0.46358299527E+01  0.00000000000E+00 0. -1.
<mgrwt>
<rscale>  1 0.65708246E+03</rscale>
<asrwt>0</asrwt>
<pdfrwt beam="1">  1        1 0.39925196E+00 0.65708246E+03</pdfrwt>
<pdfrwt beam="2">0</pdfrwt>
<totfact> 0.13463768E+00</totfact>
</mgrwt>
</event>
<event>
 6    1  0.2838103E-003  0.6470288E+03  0.7818608E-02  0.9812371E-01
          1   -1    0    0  502    0  0.00000000000E+00  0.00000000000E+00  0.10742142314E+03  0.10742142314E+03  0.00000000000E+00 0.  1.
         13   -1    0    0    0    0 -0.00000000000E+00 -0.00000000000E+00 -0.10000000000E+04  0.10000000000E+04  0.00000000000E+00 0.  1.
    9000005    2    1    2  501    0 -0.22407427217E+01  0.24733102260E+01 -0.89417748391E+03  0.11037207887E+04  0.64702014536E+03 0.  0.
         13    1    3    3    0    0  0.68276905209E+02 -0.26515579014E+03 -0.73523717147E+03  0.78456550213E+03  0.00000000000E+00 0.  1.
          1    1    3    3  501    0 -0.70517647931E+02  0.26762910036E+03 -0.15894031244E+03  0.31915528658E+03  0.00000000000E+00 0.  1.
         21    1    1    2  502  501  0.22407427217E+01 -0.24733102260E+01  0.15989070494E+01  0.37006344283E+01  0.00000000000E+00 0. -1.
<mgrwt>
<rscale>  1 0.64702875E+03</rscale>
<asrwt>0</asrwt>
<pdfrwt beam="1">  1        1 0.39062418E+00 0.64702875E+03</pdfrwt>
<pdfrwt beam="2">0</pdfrwt>
<totfact> 0.14734759E+00</totfact>
</mgrwt>
</event>
<event>
 6    1  0.2838103E-003  0.6412567E+03  0.7818608E-02  0.9823325E-01
          1   -1    0    0  502    0  0.00000000000E+00  0.00000000000E+00  0.10307789091E+03  0.10307789091E+03  0.00000000000E+00 0.  1.
         13   -1    0    0    0    0 -0.00000000000E+00 -0.00000000000E+00 -0.10000000000E+04  0.10000000000E+04  0.00000000000E+00 0.  1.
    9000005    2    1    2  501    0 -0.58425283599E-01 -0.44698567401E-01 -0.89719202199E+03  0.11027981331E+04  0.64125672906E+03 0.  0.
         13    1    3    3    0    0  0.31858387205E+03  0.35835452541E+02 -0.45125438728E+03  0.55354348088E+03  0.00000000000E+00 0.  1.
          1    1    3    3  501    0 -0.31864229733E+03 -0.35880151108E+02 -0.44593763471E+03  0.54925465218E+03  0.00000000000E+00 0.  1.
         21    1    1    2  502  501  0.58425283599E-01  0.44698567401E-01  0.26991290141E+00  0.27975784178E+00  0.00000000000E+00 0. -1.
<mgrwt>
<rscale>  1 0.64125673E+03</rscale>
<asrwt>0</asrwt>
<pdfrwt beam="1">  1        1 0.37482948E+00 0.64125673E+03</pdfrwt>
<pdfrwt beam="2">0</pdfrwt>
<totfact> 0.17321418E+00</totfact>
</mgrwt>
</event>
<event>
 6    1  0.2838103E-003  0.6475816E+03  0.7818608E-02  0.9811328E-01
          1   -1    0    0  502    0  0.00000000000E+00  0.00000000000E+00  0.10484682432E+03  0.10484682432E+03  0.00000000000E+00 0.  1.
         13   -1    0    0    0    0 -0.00000000000E+00 -0.00000000000E+00 -0.10000000000E+04  0.10000000000E+04  0.00000000000E+00 0.  1.
    9000005    2    1    2  501    0 -0.36706166404E-03  0.30326623354E-03 -0.89515949419E+03  0.11048404879E+04  0.64758164245E+03 0.  0.
         13    1    3    3    0    0 -0.16659918871E+03  0.23267601642E+03 -0.70602613288E+03  0.76181777257E+03  0.00000000000E+00 0.  1.
          1    1    3    3  501    0  0.16659882165E+03 -0.23267571315E+03 -0.18913336132E+03  0.34302271532E+03  0.00000000000E+00 0.  1.
         21    1    1    2  502  501  0.36706166405E-03 -0.30326623355E-03  0.63185120474E-02  0.63364263719E-02  0.00000000000E+00 0.  1.
<mgrwt>
<rscale>  1 0.64758164E+03</rscale>
<asrwt>0</asrwt>
<pdfrwt beam="1">  1        1 0.38126198E+00 0.64758164E+03</pdfrwt>
<pdfrwt beam="2">0</pdfrwt>
<totfact> 0.16207811E+00</totfact>
</mgrwt>
</event>
<event>
 6    1  0.5549825E-003  0.4829647E+03  0.7818608E-02  0.1018324E+00
          1   -1    0    0  502    0  0.00000000000E+00  0.00000000000E+00  0.58313796789E+02  0.58313796789E+02  0.00000000000E+00 0.  1.
         13   -1    0    0    0    0 -0.00000000000E+00 -0.00000000000E+00 -0.10000000000E+04  0.10000000000E+04  0.00000000000E+00 0.  1.
    9000005    2    1    2  501    0  0.17133380862E-03  0.35115163541E-05 -0.94168616018E+03  0.10583136201E+04  0.48296469250E+03 0.  0.
         13    1    3    3    0    0  0.20857105603E+03  0.11045092958E+03 -0.58284486054E+03  0.62881589096E+03  0.00000000000E+00 0.  1.
          3    1    3    3  501    0 -0.20857088470E+03 -0.11045092606E+03 -0.35884129964E+03  0.42949772914E+03  0.00000000000E+00 0.  1.
         21    1    1    2  502  501 -0.17133380861E-03 -0.35115163488E-05 -0.43026313836E-04  0.17668861990E-03  0.00000000000E+00 0. -1.
<mgrwt>
<rscale>  1 0.48296469E+03</rscale>
<asrwt>0</asrwt>
<pdfrwt beam="1">  1        1 0.21205062E+00 0.48296469E+03</pdfrwt>
<pdfrwt beam="2">0</pdfrwt>
<totfact> 0.90978498E+00</totfact>
</mgrwt>
</event>
<event>
 6    1  0.2838103E-003  0.6507622E+03  0.7818608E-02  0.9805350E-01
          1   -1    0    0  502    0  0.00000000000E+00  0.00000000000E+00  0.10854550639E+03  0.10854550639E+03  0.00000000000E+00 0.  1.
         13   -1    0    0    0    0 -0.00000000000E+00 -0.00000000000E+00 -0.10000000000E+04  0.10000000000E+04  0.00000000000E+00 0.  1.
    9000005    2    1    2  501    0  0.61043064354E-01 -0.12407721876E+00 -0.89412517701E+03  0.11058712455E+04  0.65076213808E+03 0.  0.
         13    1    3    3    0    0  0.12811442360E+02  0.32502975345E+03 -0.43851321850E+03  0.54598746916E+03  0.00000000000E+00 0.  1.
          3    1    3    3  501    0 -0.12750399296E+02 -0.32515383067E+03 -0.45561195851E+03  0.55988377635E+03  0.00000000000E+00 0.  1.
         21    1    1    2  502  501 -0.61043064354E-01  0.12407721876E+00  0.26706833982E+01  0.26742608746E+01  0.00000000000E+00 0. -1.
<mgrwt>
<rscale>  1 0.65076215E+03</rscale>
<asrwt>0</asrwt>
<pdfrwt beam="1">  1        1 0.39471176E+00 0.65076215E+03</pdfrwt>
<pdfrwt beam="2">0</pdfrwt>
<totfact> 0.14121803E+00</totfact>
</mgrwt>
</event>
<event>
 6    1  0.2838103E-003  0.6561147E+03  0.7818608E-02  0.9795373E-01
          1   -1    0    0  502    0  0.00000000000E+00  0.00000000000E+00  0.10762162709E+03  0.10762162709E+03  0.00000000000E+00 0.  1.
         13   -1    0    0    0    0 -0.00000000000E+00 -0.00000000000E+00 -0.10000000000E+04  0.10000000000E+04  0.00000000000E+00 0.  1.
    9000005    2    1    2  501    0 -0.19457411611E-05  0.65733085179E-05 -0.89237838078E+03  0.11076216167E+04  0.65611467838E+03 0.  0.
         13    1    3    3    0    0 -0.11116176080E+03  0.12251110526E+02 -0.96682644699E+03  0.97327303742E+03  0.00000000000E+00 0.  1.
          1    1    3    3  501    0  0.11116175885E+03 -0.12251103953E+02  0.74448066208E+02  0.13434857923E+03  0.00000000000E+00 0.  1.
         21    1    1    2  502  501  0.19457411577E-05 -0.65733085189E-05  0.78676779870E-05  0.10435259961E-04  0.00000000000E+00 0. -1.
<mgrwt>
<rscale>  1 0.65611468E+03</rscale>
<asrwt>0</asrwt>
<pdfrwt beam="1">  1        1 0.39135220E+00 0.65611468E+03</pdfrwt>
<pdfrwt beam="2">0</pdfrwt>
<totfact> 0.14600811E+00</totfact>
</mgrwt>
</event>
<event>
 6    1  0.2838103E-003  0.6488255E+03  0.7818608E-02  0.9808986E-01
          3   -1    0    0  502    0  0.00000000000E+00  0.00000000000E+00  0.10524400877E+03  0.10524400877E+03  0.00000000000E+00 0.  1.
         13   -1    0    0    0    0 -0.00000000000E+00 -0.00000000000E+00 -0.10000000000E+04  0.10000000000E+04  0.00000000000E+00 0.  1.
    9000005    2    1    2  501    0  0.15540331447E-04 -0.26995905586E-04 -0.89475635914E+03  0.11052436395E+04  0.64882552396E+03 0.  0.
         13    1    3    3    0    0  0.26186671471E+03 -0.18906162744E+03 -0.49919156712E+03  0.59456765462E+03  0.00000000000E+00 0.  1.
          1    1    3    3  501    0 -0.26186669917E+03  0.18906160044E+03 -0.39556479202E+03  0.51067598493E+03  0.00000000000E+00 0.  1.
         21    1    1    2  502  501 -0.15540331467E-04  0.26995905584E-04  0.36790960812E-03  0.36922589369E-03  0.00000000000E+00 0. -1.
<mgrwt>
<rscale>  1 0.64882552E+03</rscale>
<asrwt>0</asrwt>
<pdfrwt beam="1">  1        3 0.38270629E+00 0.64882552E+03</pdfrwt>
<pdfrwt beam="2">0</pdfrwt>
<totfact> 0.73050545E-02</totfact>
</mgrwt>
</event>
<event>
 6    1  0.2838103E-003  0.6523960E+03  0.7818608E-02  0.9802294E-01
          1   -1    0    0  502    0  0.00000000000E+00  0.00000000000E+00  0.10640555201E+03  0.10640555201E+03  0.00000000000E+00 0.  1.
         13   -1    0    0    0    0 -0.00000000000E+00 -0.00000000000E+00 -0.10000000000E+04  0.10000000000E+04  0.00000000000E+00 0.  1.
    9000005    2    1    2  501    0  0.16217195537E-04 -0.31288284788E-04 -0.89359485578E+03  0.11064051427E+04  0.65239602507E+03 0.  0.
         13    1    3    3    0    0 -0.69889285491E+02 -0.29763976342E+03 -0.63964870088E+03  0.70896008459E+03  0.00000000000E+00 0.  1.
          3    1    3    3  501    0  0.69889301708E+02  0.29763973213E+03 -0.25394615489E+03  0.39744505812E+03  0.00000000000E+00 0.  1.
         21    1    1    2  502  501 -0.16217195542E-04  0.31288284788E-04  0.40778887063E-03  0.40930882864E-03  0.00000000000E+00 0.  1.
<mgrwt>
<rscale>  1 0.65239603E+03</rscale>
<asrwt>0</asrwt>
<pdfrwt beam="1">  1        1 0.38693010E+00 0.65239603E+03</pdfrwt>
<pdfrwt beam="2">0</pdfrwt>
<totfact> 0.15285458E+00</totfact>
</mgrwt>
</event>
<event>
 6    1  0.2838103E-003  0.6214317E+03  0.7818608E-02  0.9861913E-01
          1   -1    0    0  502    0  0.00000000000E+00  0.00000000000E+00  0.96972923805E+02  0.96972923805E+02  0.00000000000E+00 0.  1.
         13   -1    0    0    0    0 -0.00000000000E+00 -0.00000000000E+00 -0.10000000000E+04  0.10000000000E+04  0.00000000000E+00 0.  1.
    9000005    2    1    2  501    0  0.10067813435E+00  0.94602128767E-02 -0.90344909608E+03  0.10965389579E+04  0.62143173950E+03 0.  0.
         13    1    3    3    0    0 -0.71349085668E+02 -0.29895684521E+03 -0.37144960576E+03  0.48212103973E+03  0.00000000000E+00 0.  1.
          3    1    3    3  501    0  0.71449763803E+02  0.29896630543E+03 -0.53199949032E+03  0.61441791822E+03  0.00000000000E+00 0.  1.
         21    1    1    2  502  501 -0.10067813435E+00 -0.94602128767E-02  0.42201988633E+00  0.43396585905E+00  0.00000000000E+00 0. -1.
<mgrwt>
<rscale>  1 0.62143175E+03</rscale>
<asrwt>0</asrwt>
<pdfrwt beam="1">  1        1 0.35262956E+00 0.62143175E+03</pdfrwt>
<pdfrwt beam="2">0</pdfrwt>
<totfact> 0.21746440E+00</totfact>
</mgrwt>
</event>
<event>
 6    1  0.2838103E-003  0.6536391E+03  0.7818608E-02  0.9799975E-01
          1   -1    0    0  502    0  0.00000000000E+00  0.00000000000E+00  0.10688286351E+03  0.10688286351E+03  0.00000000000E+00 0.  1.
         13   -1    0    0    0    0 -0.00000000000E+00 -0.00000000000E+00 -0.10000000000E+04  0.10000000000E+04  0.00000000000E+00 0.  1.
    9000005    2    1    2  501    0  0.14825544442E-02  0.34213900159E-03 -0.89318896708E+03  0.11068110168E+04  0.65363911756E+03 0.  0.
         13    1    3    3    0    0  0.52203131473E+02 -0.31752017342E+03 -0.54337637638E+03  0.63150780983E+03  0.00000000000E+00 0.  1.
          1    1    3    3  501    0 -0.52201648918E+02  0.31752051556E+03 -0.34981259070E+03  0.47530320698E+03  0.00000000000E+00 0.  1.
         21    1    1    2  502  501 -0.14825544442E-02 -0.34213900164E-03  0.71830585344E-01  0.71846698029E-01  0.00000000000E+00 0. -1.
<mgrwt>
<rscale>  1 0.65363912E+03</rscale>
<asrwt>0</asrwt>
<pdfrwt beam="1">  1        1 0.38866578E+00 0.65363912E+03</pdfrwt>
<pdfrwt beam="2">0</pdfrwt>
<totfact> 0.15013782E+00</totfact>
</mgrwt>
</event>
<event>
 6    1  0.2838103E-003  0.6487383E+03  0.7818608E-02  0.9809149E-01
          1   -1    0    0  502    0  0.00000000000E+00  0.00000000000E+00  0.10530372691E+03  0.10530372691E+03  0.00000000000E+00 0.  1.
         13   -1    0    0    0    0 -0.00000000000E+00 -0.00000000000E+00 -0.10000000000E+04  0.10000000000E+04  0.00000000000E+00 0.  1.
    9000005    2    1    2  501    0  0.55953454581E-01 -0.52074404496E-01 -0.89476600270E+03  0.11052002631E+04  0.64873832645E+03 0.  0.
         13    1    3    3    0    0  0.22661843292E+03  0.21404721538E+03 -0.29458461645E+03  0.42889651526E+03  0.00000000000E+00 0.  1.
          3    1    3    3  501    0 -0.22656247947E+03 -0.21409928978E+03 -0.60018138625E+03  0.67630374788E+03  0.00000000000E+00 0.  1.
         21    1    1    2  502  501 -0.55953454581E-01  0.52074404496E-01  0.69729612509E-01  0.10346376923E+00  0.00000000000E+00 0.  1.
<mgrwt>
<rscale>  1 0.64873833E+03</rscale>
<asrwt>0</asrwt>
<pdfrwt beam="1">  1        1 0.38292345E+00 0.64873833E+03</pdfrwt>
<pdfrwt beam="2">0</pdfrwt>
<totfact> 0.15932852E+00</totfact>
</mgrwt>
</event>
<event>
 6    1  0.2838103E-003  0.6511357E+03  0.7818608E-02  0.9804650E-01
          1   -1    0    0  502    0  0.00000000000E+00  0.00000000000E+00  0.10600064577E+03  0.10600064577E+03  0.00000000000E+00 0.  1.
         13   -1    0    0    0    0 -0.00000000000E+00 -0.00000000000E+00 -0.10000000000E+04  0.10000000000E+04  0.00000000000E+00 0.  1.
    9000005    2    1    2  501    0 -0.32688014798E-04  0.10119620885E-03 -0.89400557918E+03  0.11059944199E+04  0.65113568576E+03 0.  0.
         13    1    3    3    0    0 -0.10955049777E+03 -0.27239601188E+03 -0.68597236742E+03  0.74616284263E+03  0.00000000000E+00 0.  1.
          1    1    3    3  501    0  0.10955046508E+03  0.27239611307E+03 -0.20803321176E+03  0.35983157729E+03  0.00000000000E+00 0.  1.
         21    1    1    2  502  501  0.32688014789E-04 -0.10119620882E-03  0.62249480814E-02  0.62258563905E-02  0.00000000000E+00 0.  1.
<mgrwt>
<rscale>  1 0.65113569E+03</rscale>
<asrwt>0</asrwt>
<pdfrwt beam="1">  1        1 0.38545771E+00 0.65113569E+03</pdfrwt>
<pdfrwt beam="2">0</pdfrwt>
<totfact> 0.15520167E+00</totfact>
</mgrwt>
</event>
<event>
 6    1  0.2838103E-003  0.6460763E+03  0.7818608E-02  0.9814170E-01
          1   -1    0    0  502    0  0.00000000000E+00  0.00000000000E+00  0.10435364250E+03  0.10435364250E+03  0.00000000000E+00 0.  1.
         13   -1    0    0    0    0 -0.00000000000E+00 -0.00000000000E+00 -0.10000000000E+04  0.10000000000E+04  0.00000000000E+00 0.  1.
    9000005    2    1    2  501    0  0.28452827792E-05 -0.33003550470E-05 -0.89564636444E+03  0.11043536343E+04  0.64607626445E+03 0.  0.
         13    1    3    3    0    0 -0.26128823100E+03 -0.96453653529E+02 -0.72754080690E+03  0.77903175330E+03  0.00000000000E+00 0.  1.
          1    1    3    3  501    0  0.26128823385E+03  0.96453650229E+02 -0.16810555754E+03  0.32532188101E+03  0.00000000000E+00 0.  1.
         21    1    1    2  502  501 -0.28452827900E-05  0.33003550564E-05  0.69339070464E-05  0.81894471475E-05  0.00000000000E+00 0.  1.
<mgrwt>
<rscale>  1 0.64607626E+03</rscale>
<asrwt>0</asrwt>
<pdfrwt beam="1">  1        1 0.37946859E+00 0.64607626E+03</pdfrwt>
<pdfrwt beam="2">0</pdfrwt>
<totfact> 0.16510448E+00</totfact>
</mgrwt>
</event>
<event>
 6    1  0.2838103E-003  0.6494790E+03  0.7818608E-02  0.9807757E-01
          1   -1    0    0  502    0  0.00000000000E+00  0.00000000000E+00  0.10545640127E+03  0.10545640127E+03  0.00000000000E+00 0.  1.
         13   -1    0    0    0    0 -0.00000000000E+00 -0.00000000000E+00 -0.10000000000E+04  0.10000000000E+04  0.00000000000E+00 0.  1.
    9000005    2    1    2  501    0 -0.33139312734E-04 -0.34481838995E-04 -0.89454425338E+03  0.11054557449E+04  0.64947900861E+03 0.  0.
         13    1    3    3    0    0 -0.20041372612E+03 -0.70144841685E+02 -0.86547413091E+03  0.89114052299E+03  0.00000000000E+00 0.  1.
          1    1    3    3  501    0  0.20041369298E+03  0.70144807203E+02 -0.29070122469E+02  0.21431522189E+03  0.00000000000E+00 0.  1.
         21    1    1    2  502  501  0.33139312746E-04  0.34481838989E-04  0.65464719301E-03  0.65639177218E-03  0.00000000000E+00 0.  1.
<mgrwt>
<rscale>  1 0.64947901E+03</rscale>
<asrwt>0</asrwt>
<pdfrwt beam="1">  1        1 0.38347863E+00 0.64947901E+03</pdfrwt>
<pdfrwt beam="2">0</pdfrwt>
<totfact> 0.15840933E+00</totfact>
</mgrwt>
</event>
<event>
 6    1  0.2838103E-003  0.6443426E+03  0.7818608E-02  0.9817453E-01
          1   -1    0    0  502    0  0.00000000000E+00  0.00000000000E+00  0.10403335666E+03  0.10403335666E+03  0.00000000000E+00 0.  1.
         13   -1    0    0    0    0 -0.00000000000E+00 -0.00000000000E+00 -0.10000000000E+04  0.10000000000E+04  0.00000000000E+00 0.  1.
    9000005    2    1    2  501    0  0.15161647641E+00  0.83090980429E-01 -0.89617066027E+03  0.11037659346E+04  0.64434257666E+03 0.  0.
         13    1    3    3    0    0  0.29835708347E+03  0.45056675393E+02 -0.64196780050E+03  0.70934456376E+03  0.00000000000E+00 0.  1.
          1    1    3    3  501    0 -0.29820546699E+03 -0.44973584412E+02 -0.25420285977E+03  0.39442137081E+03  0.00000000000E+00 0.  1.
         21    1    1    2  502  501 -0.15161647641E+00 -0.83090980429E-01  0.20401692588E+00  0.26742208771E+00  0.00000000000E+00 0.  1.
<mgrwt>
<rscale>  1 0.64434260E+03</rscale>
<asrwt>0</asrwt>
<pdfrwt beam="1">  1        1 0.37830391E+00 0.64434260E+03</pdfrwt>
<pdfrwt beam="2">0</pdfrwt>
<totfact> 0.16712183E+00</totfact>
</mgrwt>
</event>
<event>
 6    1  0.2838103E-003  0.6402887E+03  0.7818608E-02  0.9825174E-01
          1   -1    0    0  502    0  0.00000000000E+00  0.00000000000E+00  0.10249611174E+03  0.10249611174E+03  0.00000000000E+00 0.  1.
         13   -1    0    0    0    0 -0.00000000000E+00 -0.00000000000E+00 -0.10000000000E+04  0.10000000000E+04  0.00000000000E+00 0.  1.
    9000005    2    1    2  501    0  0.52284105634E-03  0.19408652688E-03 -0.89750755941E+03  0.11024923985E+04  0.64028873915E+03 0.  0.
         13    1    3    3    0    0  0.23857208642E+02 -0.13865048512E+03 -0.94391950422E+03  0.95434645380E+03  0.00000000000E+00 0.  1.
          3    1    3    3  501    0 -0.23856685801E+02  0.13865067921E+03  0.46411944806E+02  0.14814594467E+03  0.00000000000E+00 0.  1.
         21    1    1    2  502  501 -0.52284105634E-03 -0.19408652688E-03  0.36711569438E-02  0.37132769431E-02  0.00000000000E+00 0. -1.
<mgrwt>
<rscale>  1 0.64028874E+03</rscale>
<asrwt>0</asrwt>
<pdfrwt beam="1">  1        1 0.37271392E+00 0.64028874E+03</pdfrwt>
<pdfrwt beam="2">0</pdfrwt>
<totfact> 0.17699755E+00</totfact>
</mgrwt>
</event>
<event>
 6    1  0.2838103E-003  0.6509551E+03  0.7818608E-02  0.9804989E-01
          1   -1    0    0  502    0  0.00000000000E+00  0.00000000000E+00  0.10593568946E+03  0.10593568946E+03  0.00000000000E+00 0.  1.
         13   -1    0    0    0    0 -0.00000000000E+00 -0.00000000000E+00 -0.10000000000E+04  0.10000000000E+04  0.00000000000E+00 0.  1.
    9000005    2    1    2  501    0 -0.20966673596E-04  0.67263127761E-05 -0.89406435718E+03  0.11059356379E+04  0.65095511394E+03 0.  0.
         13    1    3    3    0    0  0.27646756411E+02  0.11130867316E+03  0.70467300746E+02  0.13460907969E+03  0.00000000000E+00 0.  1.
          3    1    3    3  501    0 -0.27646777378E+02 -0.11130866643E+03 -0.96453165792E+03  0.97132655820E+03  0.00000000000E+00 0.  1.
         21    1    1    2  502  501  0.20966673597E-04 -0.67263127831E-05  0.46640373665E-04  0.51576827558E-04  0.00000000000E+00 0. -1.
<mgrwt>
<rscale>  1 0.65095511E+03</rscale>
<asrwt>0</asrwt>
<pdfrwt beam="1">  1        1 0.38522150E+00 0.65095511E+03</pdfrwt>
<pdfrwt beam="2">0</pdfrwt>
<totfact> 0.15558074E+00</totfact>
</mgrwt>
</event>
<event>
 6    1  0.2838103E-003  0.6881977E+03  0.7818608E-02  0.9737631E-01
          1   -1    0    0  502    0  0.00000000000E+00  0.00000000000E+00  0.11844724781E+03  0.11844724781E+03  0.00000000000E+00 0.  1.
         13   -1    0    0    0    0 -0.00000000000E+00 -0.00000000000E+00 -0.10000000000E+04  0.10000000000E+04  0.00000000000E+00 0.  1.
    9000005    2    1    2  501    0 -0.63566770664E-02  0.20536824234E-02 -0.88159569922E+03  0.11184037843E+04  0.68819768083E+03 0.  0.
         13    1    3    3    0    0 -0.26209439638E+03  0.13049021696E+03 -0.73460577426E+03  0.79080137387E+03  0.00000000000E+00 0.  1.
          1    1    3    3  501    0  0.26208803970E+03 -0.13048816328E+03 -0.14698992497E+03  0.32760241048E+03  0.00000000000E+00 0.  1.
         21    1    1    2  502  501  0.63566770664E-02 -0.20536824234E-02  0.42947039245E-01  0.43463468968E-01  0.00000000000E+00 0.  1.
<mgrwt>
<rscale>  1 0.68819768E+03</rscale>
<asrwt>0</asrwt>
<pdfrwt beam="1">  1        1 0.43071817E+00 0.68819768E+03</pdfrwt>
<pdfrwt beam="2">0</pdfrwt>
<totfact> 0.96602490E-01</totfact>
</mgrwt>
</event>
<event>
 6    1  0.2838103E-003  0.6217077E+03  0.7818608E-02  0.9861366E-01
          1   -1    0    0  502    0  0.00000000000E+00  0.00000000000E+00  0.97828905104E+02  0.97828905104E+02  0.00000000000E+00 0.  1.
         13   -1    0    0    0    0 -0.00000000000E+00 -0.00000000000E+00 -0.10000000000E+04  0.10000000000E+04  0.00000000000E+00 0.  1.
    9000005    2    1    2  501    0  0.45282902530E-01  0.81196578312E-01 -0.90336790021E+03  0.10966284942E+04  0.62170771465E+03 0.  0.
         13    1    3    3    0    0  0.10288509581E+02 -0.13772235169E+03 -0.94285311824E+03  0.95291411059E+03  0.00000000000E+00 0.  1.
          1    1    3    3  501    0 -0.10243226679E+02  0.13780354827E+03  0.39485218025E+02  0.14371438359E+03  0.00000000000E+00 0.  1.
         21    1    1    2  502  501 -0.45282902530E-01 -0.81196578312E-01  0.11968053182E+01  0.12004109277E+01  0.00000000000E+00 0. -1.
<mgrwt>
<rscale>  1 0.62170772E+03</rscale>
<asrwt>0</asrwt>
<pdfrwt beam="1">  1        1 0.35574222E+00 0.62170772E+03</pdfrwt>
<pdfrwt beam="2">0</pdfrwt>
<totfact> 0.21075825E+00</totfact>
</mgrwt>
</event>
<event>
 6    1  0.2838103E-003  0.4943231E+03  0.7818608E-02  0.1015271E+00
          1   -1    0    0  502    0  0.00000000000E+00  0.00000000000E+00  0.61453128323E+02  0.61453128323E+02  0.00000000000E+00 0.  1.
         13   -1    0    0    0    0 -0.00000000000E+00 -0.00000000000E+00 -0.10000000000E+04  0.10000000000E+04  0.00000000000E+00 0.  1.
    9000005    2    1    2  501    0  0.29765921642E+00 -0.12825901745E+01 -0.93716724647E+03  0.10595460352E+04  0.49432137235E+03 0.  0.
         13    1    3    3    0    0 -0.29812186346E+02 -0.13864291574E+03 -0.90401358744E+03  0.91506895413E+03  0.00000000000E+00 0.  1.
          3    1    3    3  501    0  0.30109845562E+02  0.13736032557E+03 -0.33153659034E+02  0.14447708105E+03  0.00000000000E+00 0.  1.
         21    1    1    2  502  501 -0.29765921642E+00  0.12825901745E+01 -0.13796252051E+01  0.19070931470E+01  0.00000000000E+00 0. -1.
<mgrwt>
<rscale>  1 0.49432313E+03</rscale>
<asrwt>0</asrwt>
<pdfrwt beam="1">  1        1 0.22346639E+00 0.49432313E+03</pdfrwt>
<pdfrwt beam="2">0</pdfrwt>
<totfact> 0.80794048E+00</totfact>
</mgrwt>
</event>
<event>
 6    1  0.2838103E-003  0.6528723E+03  0.7818608E-02  0.9801404E-01
          1   -1    0    0  502    0  0.00000000000E+00  0.00000000000E+00  0.10656068905E+03  0.10656068905E+03  0.00000000000E+00 0.  1.
         13   -1    0    0    0    0 -0.00000000000E+00 -0.00000000000E+00 -0.10000000000E+04  0.10000000000E+04  0.00000000000E+00 0.  1.
    9000005    2    1    2  501    0 -0.13773400750E-03 -0.19777734030E-03 -0.89343933045E+03  0.11065604473E+04  0.65287225874E+03 0.  0.
         13    1    3    3    0    0 -0.16146022480E+03 -0.12973635454E+03 -0.87436054667E+03  0.89855845189E+03  0.00000000000E+00 0.  1.
          1    1    3    3  501    0  0.16146008706E+03  0.12973615676E+03 -0.19078783775E+02  0.20800199537E+03  0.00000000000E+00 0.  1.
         21    1    1    2  502  501  0.13773400751E-03  0.19777734028E-03  0.19495950561E-04  0.24179872879E-03  0.00000000000E+00 0. -1.
<mgrwt>
<rscale>  1 0.65287226E+03</rscale>
<asrwt>0</asrwt>
<pdfrwt beam="1">  1        1 0.38749423E+00 0.65287226E+03</pdfrwt>
<pdfrwt beam="2">0</pdfrwt>
<totfact> 0.15196447E+00</totfact>
</mgrwt>
</event>
<event>
 6    1  0.2838103E-003  0.6437822E+03  0.7818608E-02  0.9818517E-01
          1   -1    0    0  502    0  0.00000000000E+00  0.00000000000E+00  0.10361431945E+03  0.10361431945E+03  0.00000000000E+00 0.  1.
         13   -1    0    0    0    0 -0.00000000000E+00 -0.00000000000E+00 -0.10000000000E+04  0.10000000000E+04  0.00000000000E+00 0.  1.
    9000005    2    1    2  501    0 -0.15575391579E-04 -0.82331700924E-06 -0.89638610549E+03  0.11036138942E+04  0.64378224380E+03 0.  0.
         13    1    3    3    0    0 -0.45710806519E+02 -0.18530919262E+03 -0.89253168205E+03  0.91271122386E+03  0.00000000000E+00 0.  1.
          1    1    3    3  501    0  0.45710790943E+02  0.18530919180E+03 -0.38544234355E+01  0.19090267037E+03  0.00000000000E+00 0.  1.
         21    1    1    2  502  501  0.15575391574E-04  0.82331700348E-06  0.42493714427E-03  0.42522329105E-03  0.00000000000E+00 0. -1.
<mgrwt>
<rscale>  1 0.64378224E+03</rscale>
<asrwt>0</asrwt>
<pdfrwt beam="1">  1        1 0.37678014E+00 0.64378224E+03</pdfrwt>
<pdfrwt beam="2">0</pdfrwt>
<totfact> 0.16974346E+00</totfact>
</mgrwt>
</event>
<event>
 6    1  0.2838103E-003  0.6482983E+03  0.7818608E-02  0.9809978E-01
          1   -1    0    0  502    0  0.00000000000E+00  0.00000000000E+00  0.10513072854E+03  0.10513072854E+03  0.00000000000E+00 0.  1.
         13   -1    0    0    0    0 -0.00000000000E+00 -0.00000000000E+00 -0.10000000000E+04  0.10000000000E+04  0.00000000000E+00 0.  1.
    9000005    2    1    2  501    0  0.22093212999E-02  0.83933174729E-02 -0.89492696904E+03  0.11050723818E+04  0.64829830255E+03 0.  0.
         13    1    3    3    0    0 -0.32032351197E+03 -0.45677159810E+02 -0.41431931980E+03  0.52569387861E+03  0.00000000000E+00 0.  1.
          3    1    3    3  501    0  0.32032572129E+03  0.45685553127E+02 -0.48060764924E+03  0.57937850322E+03  0.00000000000E+00 0.  1.
         21    1    1    2  502  501 -0.22093212999E-02 -0.83933174729E-02  0.57697579975E-01  0.58346718963E-01  0.00000000000E+00 0.  1.
<mgrwt>
<rscale>  1 0.64829830E+03</rscale>
<asrwt>0</asrwt>
<pdfrwt beam="1">  1        1 0.38229436E+00 0.64829830E+03</pdfrwt>
<pdfrwt beam="2">0</pdfrwt>
<totfact> 0.16036440E+00</totfact>
</mgrwt>
</event>
<event>
 6    1  0.2838103E-003  0.6431039E+03  0.7818608E-02  0.9819806E-01
          3   -1    0    0  502    0  0.00000000000E+00  0.00000000000E+00  0.10340411241E+03  0.10340411241E+03  0.00000000000E+00 0.  1.
         13   -1    0    0    0    0 -0.00000000000E+00 -0.00000000000E+00 -0.10000000000E+04  0.10000000000E+04  0.00000000000E+00 0.  1.
    9000005    2    1    2  501    0 -0.11542429571E-02 -0.42594393306E-02 -0.89660370170E+03  0.11033951383E+04  0.64310390546E+03 0.  0.
         13    1    3    3    0    0 -0.22147552499E+03 -0.17167800346E+03 -0.71888941656E+03  0.77157419494E+03  0.00000000000E+00 0.  1.
          3    1    3    3  501    0  0.22147437075E+03  0.17167374403E+03 -0.17771428513E+03  0.33182094332E+03  0.00000000000E+00 0.  1.
         21    1    1    2  502  501  0.11542429571E-02  0.42594393306E-02  0.78141069921E-02  0.89741500043E-02  0.00000000000E+00 0.  1.
<mgrwt>
<rscale>  1 0.64310391E+03</rscale>
<asrwt>0</asrwt>
<pdfrwt beam="1">  1        3 0.37601575E+00 0.64310391E+03</pdfrwt>
<pdfrwt beam="2">0</pdfrwt>
<totfact> 0.79319746E-02</totfact>
</mgrwt>
</event>
<event>
 6    1  0.2838103E-003  0.6962635E+03  0.7818608E-02  0.9723643E-01
          1   -1    0    0  502    0  0.00000000000E+00  0.00000000000E+00  0.12120190840E+03  0.12120190840E+03  0.00000000000E+00 0.  1.
         13   -1    0    0    0    0 -0.00000000000E+00 -0.00000000000E+00 -0.10000000000E+04  0.10000000000E+04  0.00000000000E+00 0.  1.
    9000005    2    1    2  501    0  0.30146954620E-02 -0.40472684526E-02 -0.87880309115E+03  0.11211948046E+04  0.69626353974E+03 0.  0.
         13    1    3    3    0    0  0.15464102330E+03  0.40116994665E+02 -0.93748506999E+03  0.95100025016E+03  0.00000000000E+00 0.  1.
          1    1    3    3  501    0 -0.15463800861E+03 -0.40121041934E+02  0.58681978840E+02  0.17019455442E+03  0.00000000000E+00 0.  1.
         21    1    1    2  502  501 -0.30146954619E-02  0.40472684526E-02  0.49995469478E-02  0.71038187152E-02  0.00000000000E+00 0.  1.
<mgrwt>
<rscale>  1 0.69626354E+03</rscale>
<asrwt>0</asrwt>
<pdfrwt beam="1">  1        1 0.44073514E+00 0.69626354E+03</pdfrwt>
<pdfrwt beam="2">0</pdfrwt>
<totfact> 0.86815246E-01</totfact>
</mgrwt>
</event>
<event>
 6    1  0.2838103E-003  0.6638637E+03  0.7818608E-02  0.9781107E-01
          1   -1    0    0  502    0  0.00000000000E+00  0.00000000000E+00  0.11018760614E+03  0.11018760614E+03  0.00000000000E+00 0.  1.
         13   -1    0    0    0    0 -0.00000000000E+00 -0.00000000000E+00 -0.10000000000E+04  0.10000000000E+04  0.00000000000E+00 0.  1.
    9000005    2    1    2  501    0  0.59203425138E-04 -0.17019220350E-03 -0.88982124582E+03  0.11101787523E+04  0.66386370035E+03 0.  0.
         13    1    3    3    0    0  0.14383502612E+03 -0.11751383977E+03  0.15141129563E+02  0.18635254514E+03  0.00000000000E+00 0.  1.
          3    1    3    3  501    0 -0.14383496692E+03  0.11751366958E+03 -0.90496237539E+03  0.92382620720E+03  0.00000000000E+00 0.  1.
         21    1    1    2  502  501 -0.59203425146E-04  0.17019220349E-03  0.88519647432E-02  0.88537986338E-02  0.00000000000E+00 0.  1.
<mgrwt>
<rscale>  1 0.66386370E+03</rscale>
<asrwt>0</asrwt>
<pdfrwt beam="1">  1        1 0.40068305E+00 0.66386370E+03</pdfrwt>
<pdfrwt beam="2">0</pdfrwt>
<totfact> 0.13250521E+00</totfact>
</mgrwt>
</event>
<event>
 6    1  0.2838103E-003  0.6423739E+03  0.7818608E-02  0.9821195E-01
          3   -1    0    0  502    0  0.00000000000E+00  0.00000000000E+00  0.10317278055E+03  0.10317278055E+03  0.00000000000E+00 0.  1.
         13   -1    0    0    0    0 -0.00000000000E+00 -0.00000000000E+00 -0.10000000000E+04  0.10000000000E+04  0.00000000000E+00 0.  1.
    9000005    2    1    2  501    0  0.74216711312E-04 -0.18889610273E-03 -0.89683893058E+03  0.11031610677E+04  0.64237393613E+03 0.  0.
         13    1    3    3    0    0 -0.27805883114E+03  0.36591630072E+01 -0.17241174653E+03  0.32719399962E+03  0.00000000000E+00 0.  1.
          1    1    3    3  501    0  0.27805890535E+03 -0.36593519033E+01 -0.72442718405E+03  0.77596706804E+03  0.00000000000E+00 0.  1.
         21    1    1    2  502  501 -0.74216711323E-04  0.18889610273E-03  0.11711124793E-01  0.11712883239E-01  0.00000000000E+00 0.  1.
<mgrwt>
<rscale>  1 0.64237394E+03</rscale>
<asrwt>0</asrwt>
<pdfrwt beam="1">  1        3 0.37517454E+00 0.64237394E+03</pdfrwt>
<pdfrwt beam="2">0</pdfrwt>
<totfact> 0.80146165E-02</totfact>
</mgrwt>
</event>
<event>
 6    1  0.2838103E-003  0.6543419E+03  0.7818608E-02  0.9798666E-01
          3   -1    0    0  502    0  0.00000000000E+00  0.00000000000E+00  0.10704132638E+03  0.10704132638E+03  0.00000000000E+00 0.  1.
         13   -1    0    0    0    0 -0.00000000000E+00 -0.00000000000E+00 -0.10000000000E+04  0.10000000000E+04  0.00000000000E+00 0.  1.
    9000005    2    1    2  501    0  0.14144043447E-03  0.52586725064E-03 -0.89295899419E+03  0.11070406945E+04  0.65434190902E+03 0.  0.
         13    1    3    3    0    0 -0.36163303053E+02 -0.26599881035E+03 -0.76289156973E+03  0.80874390184E+03  0.00000000000E+00 0.  1.
          3    1    3    3  501    0  0.36163444493E+02  0.26599933622E+03 -0.13006742446E+03  0.29829679263E+03  0.00000000000E+00 0.  1.
         21    1    1    2  502  501 -0.14144043447E-03 -0.52586725064E-03  0.32057554231E-03  0.63191015194E-03  0.00000000000E+00 0. -1.
<mgrwt>
<rscale>  1 0.65434191E+03</rscale>
<asrwt>0</asrwt>
<pdfrwt beam="1">  1        3 0.38924201E+00 0.65434191E+03</pdfrwt>
<pdfrwt beam="2">0</pdfrwt>
<totfact> 0.67418690E-02</totfact>
</mgrwt>
</event>
<event>
 6    1  0.2838103E-003  0.6472265E+03  0.7818608E-02  0.9811997E-01
          1   -1    0    0  502    0  0.00000000000E+00  0.00000000000E+00  0.10472747012E+03  0.10472747012E+03  0.00000000000E+00 0.  1.
         13   -1    0    0    0    0 -0.00000000000E+00 -0.00000000000E+00 -0.10000000000E+04  0.10000000000E+04  0.00000000000E+00 0.  1.
    9000005    2    1    2  501    0  0.18015741804E-03  0.80568474232E-04 -0.89527445417E+03  0.11047255357E+04  0.64722651445E+03 0.  0.
         13    1    3    3    0    0  0.15868951252E+03  0.25626307893E+03 -0.64867381254E+03  0.71528374934E+03  0.00000000000E+00 0.  1.
          1    1    3    3  501    0 -0.15868933236E+03 -0.25626299836E+03 -0.24660064164E+03  0.38944178639E+03  0.00000000000E+00 0.  1.
         21    1    1    2  502  501 -0.18015741806E-03 -0.80568474236E-04  0.19242938168E-02  0.19343874141E-02  0.00000000000E+00 0.  1.
<mgrwt>
<rscale>  1 0.64722651E+03</rscale>
<asrwt>0</asrwt>
<pdfrwt beam="1">  1        1 0.38082797E+00 0.64722651E+03</pdfrwt>
<pdfrwt beam="2">0</pdfrwt>
<totfact> 0.16280536E+00</totfact>
</mgrwt>
</event>
<event>
 6    1  0.2838103E-003  0.6454424E+03  0.7818608E-02  0.9815369E-01
          1   -1    0    0  502    0  0.00000000000E+00  0.00000000000E+00  0.10416073495E+03  0.10416073495E+03  0.00000000000E+00 0.  1.
         13   -1    0    0    0    0 -0.00000000000E+00 -0.00000000000E+00 -0.10000000000E+04  0.10000000000E+04  0.00000000000E+00 0.  1.
    9000005    2    1    2  501    0  0.13822015139E-01 -0.14895470297E-01 -0.89584043090E+03  0.11041403810E+04  0.64544240871E+03 0.  0.
         13    1    3    3    0    0 -0.81122600857E+02  0.18953207265E+03 -0.87263325601E+03  0.89665605581E+03  0.00000000000E+00 0.  1.
          3    1    3    3  501    0  0.81136422872E+02 -0.18954696812E+03 -0.23207174887E+02  0.20748432521E+03  0.00000000000E+00 0.  1.
         21    1    1    2  502  501 -0.13822015139E-01  0.14895470297E-01  0.11658430472E-02  0.20353926597E-01  0.00000000000E+00 0.  1.
<mgrwt>
<rscale>  1 0.64544241E+03</rscale>
<asrwt>0</asrwt>
<pdfrwt beam="1">  1        1 0.37876711E+00 0.64544241E+03</pdfrwt>
<pdfrwt beam="2">0</pdfrwt>
<totfact> 0.16630420E+00</totfact>
</mgrwt>
</event>
<event>
 6    1  0.2838103E-003  0.6525768E+03  0.7818608E-02  0.9801956E-01
          1   -1    0    0  502    0  0.00000000000E+00  0.00000000000E+00  0.10646417694E+03  0.10646417694E+03  0.00000000000E+00 0.  1.
         13   -1    0    0    0    0 -0.00000000000E+00 -0.00000000000E+00 -0.10000000000E+04  0.10000000000E+04  0.00000000000E+00 0.  1.
    9000005    2    1    2  501    0 -0.98486624438E-05  0.25715595882E-04 -0.89353588615E+03  0.11064641081E+04  0.65257677147E+03 0.  0.
         13    1    3    3    0    0 -0.10792771766E+03 -0.19435419751E+03 -0.41815791001E+02  0.22620898901E+03  0.00000000000E+00 0.  1.
          3    1    3    3  501    0  0.10792770782E+03  0.19435422323E+03 -0.85172009515E+03  0.88025511909E+03  0.00000000000E+00 0.  1.
         21    1    1    2  502  501  0.98486624488E-05 -0.25715595876E-04  0.63093844152E-04  0.68841275360E-04  0.00000000000E+00 0. -1.
<mgrwt>
<rscale>  1 0.65257677E+03</rscale>
<asrwt>0</asrwt>
<pdfrwt beam="1">  1        1 0.38714328E+00 0.65257677E+03</pdfrwt>
<pdfrwt beam="2">0</pdfrwt>
<totfact> 0.15251761E+00</totfact>
</mgrwt>
</event>
<event>
 6    1  0.2838103E-003  0.6472708E+03  0.7818608E-02  0.9811914E-01
          1   -1    0    0  502    0  0.00000000000E+00  0.00000000000E+00  0.10474201038E+03  0.10474201038E+03  0.00000000000E+00 0.  1.
         13   -1    0    0    0    0 -0.00000000000E+00 -0.00000000000E+00 -0.10000000000E+04  0.10000000000E+04  0.00000000000E+00 0.  1.
    9000005    2    1    2  501    0 -0.82267845301E-04  0.19286483018E-03 -0.89526011658E+03  0.11047398731E+04  0.64727081729E+03 0.  0.
         13    1    3    3    0    0  0.82176976044E+02  0.28327862981E+03 -0.22030270638E+03  0.36814823094E+03  0.00000000000E+00 0.  1.
          3    1    3    3  501    0 -0.82177058312E+02 -0.28327843695E+03 -0.67495741019E+03  0.73659164218E+03  0.00000000000E+00 0.  1.
         21    1    1    2  502  501  0.82267845291E-04 -0.19286483018E-03  0.21269601497E-02  0.21372702964E-02  0.00000000000E+00 0. -1.
<mgrwt>
<rscale>  1 0.64727082E+03</rscale>
<asrwt>0</asrwt>
<pdfrwt beam="1">  1        1 0.38088084E+00 0.64727082E+03</pdfrwt>
<pdfrwt beam="2">0</pdfrwt>
<totfact> 0.16271657E+00</totfact>
</mgrwt>
</event>
<event>
 6    1  0.2838103E-003  0.6852128E+03  0.7818608E-02  0.9742860E-01
          1   -1    0    0  502    0  0.00000000000E+00  0.00000000000E+00  0.11741888868E+03  0.11741888868E+03  0.00000000000E+00 0.  1.
         13   -1    0    0    0    0 -0.00000000000E+00 -0.00000000000E+00 -0.10000000000E+04  0.10000000000E+04  0.00000000000E+00 0.  1.
    9000005    2    1    2  501    0 -0.21590652258E-02 -0.80222336696E-02 -0.88262036838E+03  0.11173787622E+04  0.68521280158E+03 0.  0.
         13    1    3    3    0    0 -0.13802069902E+03  0.20016314890E+03 -0.47693519807E+02  0.24776939150E+03  0.00000000000E+00 0.  1.
          1    1    3    3  501    0  0.13801853995E+03 -0.20017117113E+03 -0.83492684858E+03  0.86960937069E+03  0.00000000000E+00 0.  1.
         21    1    1    2  502  501  0.21590652258E-02  0.80222336696E-02  0.39257063980E-01  0.40126485867E-01  0.00000000000E+00 0.  1.
<mgrwt>
<rscale>  1 0.68521280E+03</rscale>
<asrwt>0</asrwt>
<pdfrwt beam="1">  1        1 0.42697868E+00 0.68521280E+03</pdfrwt>
<pdfrwt beam="2">0</pdfrwt>
<totfact> 0.10051249E+00</totfact>
</mgrwt>
</event>
<event>
 6    1  0.2838103E-003  0.6490962E+03  0.7818608E-02  0.9808477E-01
          1   -1    0    0  502    0  0.00000000000E+00  0.00000000000E+00  0.10631107286E+03  0.10631107286E+03  0.00000000000E+00 0.  1.
         13   -1    0    0    0    0 -0.00000000000E+00 -0.00000000000E+00 -0.10000000000E+04  0.10000000000E+04  0.00000000000E+00 0.  1.
    9000005    2    1    2  501    0 -0.36473222570E-01  0.11484455446E+00 -0.89466444456E+03  0.11053281416E+04  0.64909615450E+03 0.  0.
         13    1    3    3    0    0  0.16202821283E+03  0.25676949026E+03 -0.25194976828E+03  0.39454074392E+03  0.00000000000E+00 0.  1.
          1    1    3    3  501    0 -0.16206468605E+03 -0.25665464570E+03 -0.64271467628E+03  0.71078739770E+03  0.00000000000E+00 0.  1.
         21    1    1    2  502  501  0.36473222570E-01 -0.11484455446E+00  0.97551742646E+00  0.98293123716E+00  0.00000000000E+00 0. -1.
<mgrwt>
<rscale>  1 0.64909617E+03</rscale>
<asrwt>0</asrwt>
<pdfrwt beam="1">  1        1 0.38658653E+00 0.64909617E+03</pdfrwt>
<pdfrwt beam="2">0</pdfrwt>
<totfact> 0.15348462E+00</totfact>
</mgrwt>
</event>
<event>
 6    1  0.2838103E-003  0.6106500E+03  0.7818608E-02  0.9883554E-01
          1   -1    0    0  502    0  0.00000000000E+00  0.00000000000E+00  0.93224384750E+02  0.93224384750E+02  0.00000000000E+00 0.  1.
         13   -1    0    0    0    0 -0.00000000000E+00 -0.00000000000E+00 -0.10000000000E+04  0.10000000000E+04  0.00000000000E+00 0.  1.
    9000005    2    1    2  501    0  0.65210490675E-04 -0.15380016058E-02 -0.90677595881E+03  0.10932228075E+04  0.61065003672E+03 0.  0.
         13    1    3    3    0    0  0.16227289437E+03  0.18012250066E+03 -0.12111911374E+03  0.27101005000E+03  0.00000000000E+00 0.  1.
          3    1    3    3  501    0 -0.16227282916E+03 -0.18012403866E+03 -0.78565684506E+03  0.82221275749E+03  0.00000000000E+00 0.  1.
         21    1    1    2  502  501 -0.65210490676E-04  0.15380016057E-02  0.34355929519E-03  0.15772553175E-02  0.00000000000E+00 0.  1.
<mgrwt>
<rscale>  1 0.61065004E+03</rscale>
<asrwt>0</asrwt>
<pdfrwt beam="1">  1        1 0.33899848E+00 0.61065004E+03</pdfrwt>
<pdfrwt beam="2">0</pdfrwt>
<totfact> 0.24976734E+00</totfact>
</mgrwt>
</event>
<event>
 6    1  0.2838103E-003  0.5920243E+03  0.7818608E-02  0.9922093E-01
          1   -1    0    0  502    0  0.00000000000E+00  0.00000000000E+00  0.87623399552E+02  0.87623399552E+02  0.00000000000E+00 0.  1.
         13   -1    0    0    0    0 -0.00000000000E+00 -0.00000000000E+00 -0.10000000000E+04  0.10000000000E+04  0.00000000000E+00 0.  1.
    9000005    2    1    2  501    0  0.20456608723E-04 -0.13668024224E-04 -0.91237680425E+03  0.10876231943E+04  0.59202430677E+03 0.  0.
         13    1    3    3    0    0  0.18594609923E+03 -0.16306327701E+03 -0.15736523708E+03  0.29313717261E+03  0.00000000000E+00 0.  1.
          3    1    3    3  501    0 -0.18594607877E+03  0.16306326334E+03 -0.75501156717E+03  0.79448602166E+03  0.00000000000E+00 0.  1.
         21    1    1    2  502  501 -0.20456608728E-04  0.13668024248E-04  0.20379689888E-03  0.20527655424E-03  0.00000000000E+00 0. -1.
<mgrwt>
<rscale>  1 0.59202431E+03</rscale>
<asrwt>0</asrwt>
<pdfrwt beam="1">  1        1 0.31863122E+00 0.59202431E+03</pdfrwt>
<pdfrwt beam="2">0</pdfrwt>
<totfact> 0.30703042E+00</totfact>
</mgrwt>
</event>
<event>
 6    1  0.2838103E-003  0.6526596E+03  0.7818608E-02  0.9801801E-01
          1   -1    0    0  502    0  0.00000000000E+00  0.00000000000E+00  0.10649114646E+03  0.10649114646E+03  0.00000000000E+00 0.  1.
         13   -1    0    0    0    0 -0.00000000000E+00 -0.00000000000E+00 -0.10000000000E+04  0.10000000000E+04  0.00000000000E+00 0.  1.
    9000005    2    1    2  501    0  0.15383769636E-05 -0.22010431643E-04 -0.89350886758E+03  0.11064911203E+04  0.65265956125E+03 0.  0.
         13    1    3    3    0    0  0.44615763284E+02  0.99044199110E+00  0.10129344046E+03  0.11068833899E+03  0.00000000000E+00 0.  1.
          1    1    3    3  501    0 -0.44615761746E+02 -0.99046400153E+00 -0.99480230803E+03  0.99580278132E+03  0.00000000000E+00 0.  1.
         21    1    1    2  502  501 -0.15383769596E-05  0.22010431642E-04  0.14037859836E-04  0.26151237323E-04  0.00000000000E+00 0. -1.
<mgrwt>
<rscale>  1 0.65265956E+03</rscale>
<asrwt>0</asrwt>
<pdfrwt beam="1">  1        1 0.38724135E+00 0.65265956E+03</pdfrwt>
<pdfrwt beam="2">0</pdfrwt>
<totfact> 0.15236284E+00</totfact>
</mgrwt>
</event>
<event>
 6    1  0.2838103E-003  0.6370883E+03  0.7818608E-02  0.9831313E-01
          1   -1    0    0  502    0  0.00000000000E+00  0.00000000000E+00  0.10152777322E+03  0.10152777322E+03  0.00000000000E+00 0.  1.
         13   -1    0    0    0    0 -0.00000000000E+00 -0.00000000000E+00 -0.10000000000E+04  0.10000000000E+04  0.00000000000E+00 0.  1.
    9000005    2    1    2  501    0 -0.11818917382E-01  0.31008755923E-02 -0.89852890167E+03  0.11014697961E+04  0.63708831762E+03 0.  0.
         13    1    3    3    0    0 -0.50487548001E+02  0.13226244230E+03  0.44091818426E+02  0.14827823373E+03  0.00000000000E+00 0.  1.
          3    1    3    3  501    0  0.50475729083E+02 -0.13225934143E+03 -0.94262072010E+03  0.95319156237E+03  0.00000000000E+00 0.  1.
         21    1    1    2  502  501  0.11818917382E-01 -0.31008755923E-02  0.56674889536E-01  0.57977110496E-01  0.00000000000E+00 0.  1.
<mgrwt>
<rscale>  1 0.63708832E+03</rscale>
<asrwt>0</asrwt>
<pdfrwt beam="1">  1        1 0.36919268E+00 0.63708832E+03</pdfrwt>
<pdfrwt beam="2">0</pdfrwt>
<totfact> 0.18352361E+00</totfact>
</mgrwt>
</event>
<event>
 6    1  0.2838103E-003  0.6333124E+03  0.7818608E-02  0.9838606E-01
          1   -1    0    0  502    0  0.00000000000E+00  0.00000000000E+00  0.10028236538E+03  0.10028236538E+03  0.00000000000E+00 0.  1.
         13   -1    0    0    0    0 -0.00000000000E+00 -0.00000000000E+00 -0.10000000000E+04  0.10000000000E+04  0.00000000000E+00 0.  1.
    9000005    2    1    2  501    0 -0.75293642720E-03  0.48329796693E-02 -0.89972825001E+03  0.11002706773E+04  0.63331243431E+03 0.  0.
         13    1    3    3    0    0 -0.86004239195E+02 -0.29496899489E+03 -0.58292671959E+03  0.65894385005E+03  0.00000000000E+00 0.  1.
          3    1    3    3  501    0  0.86003486258E+02  0.29497382787E+03 -0.31680153042E+03  0.44132682726E+03  0.00000000000E+00 0.  1.
         21    1    1    2  502  501  0.75293642719E-03 -0.48329796693E-02  0.10615390836E-01  0.11688076332E-01  0.00000000000E+00 0. -1.
<mgrwt>
<rscale>  1 0.63331243E+03</rscale>
<asrwt>0</asrwt>
<pdfrwt beam="1">  1        1 0.36466392E+00 0.63331243E+03</pdfrwt>
<pdfrwt beam="2">0</pdfrwt>
<totfact> 0.19224402E+00</totfact>
</mgrwt>
</event>
<event>
 6    1  0.2838103E-003  0.6519228E+03  0.7818608E-02  0.9803178E-01
          1   -1    0    0  502    0  0.00000000000E+00  0.00000000000E+00  0.10625189339E+03  0.10625189339E+03  0.00000000000E+00 0.  1.
         13   -1    0    0    0    0 -0.00000000000E+00 -0.00000000000E+00 -0.10000000000E+04  0.10000000000E+04  0.00000000000E+00 0.  1.
    9000005    2    1    2  501    0 -0.25666468034E-04  0.15316126733E-03 -0.89374916979E+03  0.11062508189E+04  0.65192276834E+03 0.  0.
         13    1    3    3    0    0  0.84820343593E+02 -0.78346754834E+02 -0.96413304608E+03  0.97102277792E+03  0.00000000000E+00 0.  1.
          1    1    3    3  501    0 -0.84820369260E+02  0.78346907996E+02  0.70383876292E+02  0.13522804101E+03  0.00000000000E+00 0.  1.
         21    1    1    2  502  501  0.25666468040E-04 -0.15316126733E-03  0.10631789389E-02  0.10744610731E-02  0.00000000000E+00 0. -1.
<mgrwt>
<rscale>  1 0.65192277E+03</rscale>
<asrwt>0</asrwt>
<pdfrwt beam="1">  1        1 0.38637134E+00 0.65192277E+03</pdfrwt>
<pdfrwt beam="2">0</pdfrwt>
<totfact> 0.15374114E+00</totfact>
</mgrwt>
</event>
<event>
 6    1  0.2838103E-003  0.6696530E+03  0.7818608E-02  0.9770585E-01
          1   -1    0    0  502    0  0.00000000000E+00  0.00000000000E+00  0.11242220580E+03  0.11242220580E+03  0.00000000000E+00 0.  1.
         13   -1    0    0    0    0 -0.00000000000E+00 -0.00000000000E+00 -0.10000000000E+04  0.10000000000E+04  0.00000000000E+00 0.  1.
    9000005    2    1    2  501    0  0.10508355670E-01 -0.20538863473E-01 -0.88789074546E+03  0.11121084053E+04  0.66965299127E+03 0.  0.
         13    1    3    3    0    0  0.29458996607E+03 -0.31183936770E+02 -0.70313648542E+03  0.76299187621E+03  0.00000000000E+00 0.  1.
          1    1    3    3  501    0 -0.29457945772E+03  0.31163397907E+02 -0.18475426003E+03  0.34911652908E+03  0.00000000000E+00 0.  1.
         21    1    1    2  502  501 -0.10508355669E-01  0.20538863473E-01  0.31295126022E+00  0.31380051263E+00  0.00000000000E+00 0. -1.
<mgrwt>
<rscale>  1 0.66965299E+03</rscale>
<asrwt>0</asrwt>
<pdfrwt beam="1">  1        1 0.40880888E+00 0.66965299E+03</pdfrwt>
<pdfrwt beam="2">0</pdfrwt>
<totfact> 0.12173747E+00</totfact>
</mgrwt>
</event>
<event>
 6    1  0.2838103E-003  0.6502123E+03  0.7818608E-02  0.9806381E-01
          1   -1    0    0  502    0  0.00000000000E+00  0.00000000000E+00  0.10569716173E+03  0.10569716173E+03  0.00000000000E+00 0.  1.
         13   -1    0    0    0    0 -0.00000000000E+00 -0.00000000000E+00 -0.10000000000E+04  0.10000000000E+04  0.00000000000E+00 0.  1.
    9000005    2    1    2  501    0 -0.11004863899E-03 -0.37252733804E-04 -0.89430598439E+03  0.11056940135E+04  0.65021231739E+03 0.  0.
         13    1    3    3    0    0  0.27289179136E+03  0.33373339653E+02 -0.74223111983E+03  0.79151168332E+03  0.00000000000E+00 0.  1.
          1    1    3    3  501    0 -0.27289190141E+03 -0.33373376906E+02 -0.15207486456E+03  0.31418233014E+03  0.00000000000E+00 0.  1.
         21    1    1    2  502  501  0.11004863896E-03  0.37252733808E-04  0.31461235603E-02  0.31482680835E-02  0.00000000000E+00 0. -1.
<mgrwt>
<rscale>  1 0.65021232E+03</rscale>
<asrwt>0</asrwt>
<pdfrwt beam="1">  1        1 0.38435413E+00 0.65021232E+03</pdfrwt>
<pdfrwt beam="2">0</pdfrwt>
<totfact> 0.15698263E+00</totfact>
</mgrwt>
</event>
<event>
 6    1  0.2838103E-003  0.6534887E+03  0.7818608E-02  0.9800255E-01
          1   -1    0    0  502    0  0.00000000000E+00  0.00000000000E+00  0.11300115726E+03  0.11300115726E+03  0.00000000000E+00 0.  1.
         13   -1    0    0    0    0 -0.00000000000E+00 -0.00000000000E+00 -0.10000000000E+04  0.10000000000E+04  0.00000000000E+00 0.  1.
    9000005    2    1    2  501    0 -0.11265618828E+00  0.21671836691E-04 -0.89323756117E+03  0.11067614218E+04  0.65348870789E+03 0.  0.
         13    1    3    3    0    0  0.10094732798E+03  0.25777589145E+03 -0.74048429044E+03  0.79054143322E+03  0.00000000000E+00 0.  1.
          3    1    3    3  501    0 -0.10105998417E+03 -0.25777586978E+03 -0.15275327073E+03  0.31621998855E+03  0.00000000000E+00 0.  1.
         21    1    1    2  502  501  0.11265618828E+00 -0.21671836717E-04  0.62387184286E+01  0.62397354951E+01  0.00000000000E+00 0. -1.
<mgrwt>
<rscale>  1 0.65348872E+03</rscale>
<asrwt>0</asrwt>
<pdfrwt beam="1">  1        1 0.41091417E+00 0.65348872E+03</pdfrwt>
<pdfrwt beam="2">0</pdfrwt>
<totfact> 0.11948816E+00</totfact>
</mgrwt>
</event>
<event>
 6    1  0.2838103E-003  0.6499777E+03  0.7818608E-02  0.9806821E-01
          1   -1    0    0  502    0  0.00000000000E+00  0.00000000000E+00  0.10607042218E+03  0.10607042218E+03  0.00000000000E+00 0.  1.
         13   -1    0    0    0    0 -0.00000000000E+00 -0.00000000000E+00 -0.10000000000E+04  0.10000000000E+04  0.00000000000E+00 0.  1.
    9000005    2    1    2  501    0  0.21484122804E+00 -0.82999015572E+00 -0.89388017038E+03  0.11052116547E+04  0.64997715941E+03 0.  0.
         13    1    3    3    0    0  0.13072913821E+02 -0.27736269805E+03 -0.15912036865E+03  0.32003165322E+03  0.00000000000E+00 0.  1.
          3    1    3    3  501    0 -0.12858072593E+02  0.27653270789E+03 -0.73475980172E+03  0.78518000152E+03  0.00000000000E+00 0.  1.
         21    1    1    2  502  501 -0.21484122804E+00  0.82999015572E+00 -0.49407443274E-01  0.85876743494E+00  0.00000000000E+00 0. -1.
<mgrwt>
<rscale>  1 0.64997772E+03</rscale>
<asrwt>0</asrwt>
<pdfrwt beam="1">  1        1 0.38571144E+00 0.64997772E+03</pdfrwt>
<pdfrwt beam="2">0</pdfrwt>
<totfact> 0.15483413E+00</totfact>
</mgrwt>
</event>
<event>
 6    1  0.2838103E-003  0.6548950E+03  0.7818608E-02  0.9797637E-01
          1   -1    0    0  502    0  0.00000000000E+00  0.00000000000E+00  0.10730280182E+03  0.10730280182E+03  0.00000000000E+00 0.  1.
         13   -1    0    0    0    0 -0.00000000000E+00 -0.00000000000E+00 -0.10000000000E+04  0.10000000000E+04  0.00000000000E+00 0.  1.
    9000005    2    1    2  501    0  0.69213220332E-02  0.18683800940E-01 -0.89277676580E+03  0.11072207775E+04  0.65489502677E+03 0.  0.
         13    1    3    3    0    0  0.10369677498E+03 -0.14909484494E+03 -0.90703743302E+03  0.92504010661E+03  0.00000000000E+00 0.  1.
          1    1    3    3  501    0 -0.10368985365E+03  0.14911352874E+03  0.14260667220E+02  0.18218067086E+03  0.00000000000E+00 0.  1.
         21    1    1    2  502  501 -0.69213220332E-02 -0.18683800940E-01  0.79567618119E-01  0.82024355952E-01  0.00000000000E+00 0. -1.
<mgrwt>
<rscale>  1 0.65489503E+03</rscale>
<asrwt>0</asrwt>
<pdfrwt beam="1">  1        1 0.39019283E+00 0.65489503E+03</pdfrwt>
<pdfrwt beam="2">0</pdfrwt>
<totfact> 0.14778111E+00</totfact>
</mgrwt>
</event>
<event>
 6    1  0.2838103E-003  0.6722142E+03  0.7818608E-02  0.9765966E-01
          1   -1    0    0  502    0  0.00000000000E+00  0.00000000000E+00  0.12713993335E+03  0.12713993335E+03  0.00000000000E+00 0.  1.
         13   -1    0    0    0    0 -0.00000000000E+00 -0.00000000000E+00 -0.10000000000E+04  0.10000000000E+04  0.00000000000E+00 0.  1.
    9000005    2    1    2  501    0 -0.37653775770E+00 -0.22353179620E+00 -0.88702824886E+03  0.11129649859E+04  0.67221406850E+03 0.  0.
         13    1    3    3    0    0 -0.10931481332E+02  0.15633691257E+03 -0.93565363878E+03  0.94868775647E+03  0.00000000000E+00 0.  1.
          3    1    3    3  501    0  0.10554943574E+02 -0.15656044437E+03  0.48625389920E+02  0.16427722946E+03  0.00000000000E+00 0.  1.
         21    1    1    2  502  501  0.37653775770E+00  0.22353179620E+00  0.14168182211E+02  0.14174947419E+02  0.00000000000E+00 0.  1.
<mgrwt>
<rscale>  1 0.67221421E+03</rscale>
<asrwt>0</asrwt>
<pdfrwt beam="1">  1        1 0.46232801E+00 0.67221421E+03</pdfrwt>
<pdfrwt beam="2">0</pdfrwt>
<totfact> 0.69344711E-01</totfact>
</mgrwt>
</event>
<event>
 6    1  0.2838103E-003  0.6447789E+03  0.7818608E-02  0.9816626E-01
          1   -1    0    0  502    0  0.00000000000E+00  0.00000000000E+00  0.11262266124E+03  0.11262266124E+03  0.00000000000E+00 0.  1.
         13   -1    0    0    0    0 -0.00000000000E+00 -0.00000000000E+00 -0.10000000000E+04  0.10000000000E+04  0.00000000000E+00 0.  1.
    9000005    2    1    2  501    0  0.64313323070E+01 -0.35832837701E+01 -0.89430949011E+03  0.11025104567E+04  0.64473687744E+03 0.  0.
         13    1    3    3    0    0 -0.23265988541E+02  0.26846408751E+03 -0.74178161777E+03  0.78921115107E+03  0.00000000000E+00 0.  1.
          1    1    3    3  501    0  0.29697320848E+02 -0.27204737128E+03 -0.15252787234E+03  0.31329930566E+03  0.00000000000E+00 0.  1.
         21    1    1    2  502  501 -0.64313323070E+01  0.35832837701E+01  0.69321513462E+01  0.10112204513E+02  0.00000000000E+00 0.  1.
<mgrwt>
<rscale>  1 0.64477891E+03</rscale>
<asrwt>0</asrwt>
<pdfrwt beam="1">  1        1 0.40953781E+00 0.64477891E+03</pdfrwt>
<pdfrwt beam="2">0</pdfrwt>
<totfact> 0.12140319E+00</totfact>
</mgrwt>
</event>
<event>
 6    1  0.2838103E-003  0.6599400E+03  0.7818608E-02  0.9788304E-01
          1   -1    0    0  502    0  0.00000000000E+00  0.00000000000E+00  0.10895466038E+03  0.10895466038E+03  0.00000000000E+00 0.  1.
         13   -1    0    0    0    0 -0.00000000000E+00 -0.00000000000E+00 -0.10000000000E+04  0.10000000000E+04  0.00000000000E+00 0.  1.
    9000005    2    1    2  501    0  0.99632789000E-02 -0.19748695978E-01 -0.89111796835E+03  0.11088787380E+04  0.65994001360E+03 0.  0.
         13    1    3    3    0    0 -0.21432681230E+02 -0.12933710793E+03 -0.95437027873E+03  0.96333279620E+03  0.00000000000E+00 0.  1.
          3    1    3    3  501    0  0.21442644509E+02  0.12931735923E+03  0.63252310380E+02  0.14554594179E+03  0.00000000000E+00 0.  1.
         21    1    1    2  502  501 -0.99632789000E-02  0.19748695978E-01  0.72628728083E-01  0.75922394998E-01  0.00000000000E+00 0. -1.
<mgrwt>
<rscale>  1 0.65994001E+03</rscale>
<asrwt>0</asrwt>
<pdfrwt beam="1">  1        1 0.39619960E+00 0.65994001E+03</pdfrwt>
<pdfrwt beam="2">0</pdfrwt>
<totfact> 0.13884390E+00</totfact>
</mgrwt>
</event>
<event>
 6    1  0.2838103E-003  0.6565151E+03  0.7818608E-02  0.9794630E-01
          1   -1    0    0  502    0  0.00000000000E+00  0.00000000000E+00  0.10775302302E+03  0.10775302302E+03  0.00000000000E+00 0.  1.
         13   -1    0    0    0    0 -0.00000000000E+00 -0.00000000000E+00 -0.10000000000E+04  0.10000000000E+04  0.00000000000E+00 0.  1.
    9000005    2    1    2  501    0 -0.14973206390E-05 -0.23944873533E-05 -0.89224698348E+03  0.11077530159E+04  0.65651509106E+03 0.  0.
         13    1    3    3    0    0  0.97718050083E+02 -0.29894551565E+03 -0.60472986401E+03  0.68162705864E+03  0.00000000000E+00 0.  1.
          1    1    3    3  501    0 -0.97718051581E+02  0.29894551325E+03 -0.28751711947E+03  0.42612595730E+03  0.00000000000E+00 0.  1.
         21    1    1    2  502  501  0.14973206401E-05  0.23944873530E-05  0.64962952460E-05  0.70836001233E-05  0.00000000000E+00 0. -1.
<mgrwt>
<rscale>  1 0.65651509E+03</rscale>
<asrwt>0</asrwt>
<pdfrwt beam="1">  1        1 0.39183000E+00 0.65651509E+03</pdfrwt>
<pdfrwt beam="2">0</pdfrwt>
<totfact> 0.14528605E+00</totfact>
</mgrwt>
</event>
<event>
 6    1  0.2838103E-003  0.6524868E+03  0.7818608E-02  0.9802124E-01
          1   -1    0    0  502    0  0.00000000000E+00  0.00000000000E+00  0.10643578424E+03  0.10643578424E+03  0.00000000000E+00 0.  1.
         13   -1    0    0    0    0 -0.00000000000E+00 -0.00000000000E+00 -0.10000000000E+04  0.10000000000E+04  0.00000000000E+00 0.  1.
    9000005    2    1    2  501    0 -0.14328364415E-05  0.23133860559E-04 -0.89356523092E+03  0.11064347688E+04  0.65248683950E+03 0.  0.
         13    1    3    3    0    0 -0.43353178743E+02  0.44617009408E+02 -0.98984884041E+03  0.99180184639E+03  0.00000000000E+00 0.  1.
          1    1    3    3  501    0  0.43353177310E+02 -0.44616986274E+02  0.96283609490E+02  0.11463292242E+03  0.00000000000E+00 0.  1.
         21    1    1    2  502  501  0.14328364440E-05 -0.23133860558E-04  0.10151662477E-02  0.10154308145E-02  0.00000000000E+00 0.  1.
<mgrwt>
<rscale>  1 0.65248684E+03</rscale>
<asrwt>0</asrwt>
<pdfrwt beam="1">  1        1 0.38704003E+00 0.65248684E+03</pdfrwt>
<pdfrwt beam="2">0</pdfrwt>
<totfact> 0.15268079E+00</totfact>
</mgrwt>
</event>
<event>
 6    1  0.2838103E-003  0.6592630E+03  0.7818608E-02  0.9789551E-01
          1   -1    0    0  502    0  0.00000000000E+00  0.00000000000E+00  0.10865800213E+03  0.10865800213E+03  0.00000000000E+00 0.  1.
         13   -1    0    0    0    0 -0.00000000000E+00 -0.00000000000E+00 -0.10000000000E+04  0.10000000000E+04  0.00000000000E+00 0.  1.
    9000005    2    1    2  501    0  0.80084140336E-04  0.50861487374E-04 -0.89134307545E+03  0.11086569204E+04  0.65926298923E+03 0.  0.
         13    1    3    3    0    0  0.22786727960E+03  0.61359155361E+02 -0.83270397568E+03  0.86549659397E+03  0.00000000000E+00 0.  1.
          3    1    3    3  501    0 -0.22786719951E+03 -0.61359104500E+02 -0.58639099764E+02  0.24316032641E+03  0.00000000000E+00 0.  1.
         21    1    1    2  502  501 -0.80084140333E-04 -0.50861487372E-04  0.10775760373E-02  0.10817441826E-02  0.00000000000E+00 0.  1.
<mgrwt>
<rscale>  1 0.65926299E+03</rscale>
<asrwt>0</asrwt>
<pdfrwt beam="1">  1        1 0.39512084E+00 0.65926299E+03</pdfrwt>
<pdfrwt beam="2">0</pdfrwt>
<totfact> 0.14040430E+00</totfact>
</mgrwt>
</event>
<event>
 6    1  0.2838103E-003  0.7115810E+03  0.7818608E-02  0.9697630E-01
          1   -1    0    0  502    0  0.00000000000E+00  0.00000000000E+00  0.12683258779E+03  0.12683258779E+03  0.00000000000E+00 0.  1.
         13   -1    0    0    0    0 -0.00000000000E+00 -0.00000000000E+00 -0.10000000000E+04  0.10000000000E+04  0.00000000000E+00 0.  1.
    9000005    2    1    2  501    0  0.77689092675E-01  0.63463998613E-02 -0.87340613863E+03  0.11265814580E+04  0.71158098094E+03 0.  0.
         13    1    3    3    0    0  0.80188476375E+02  0.24915932692E+03 -0.55152904901E+02  0.26749281272E+03  0.00000000000E+00 0.  1.
          1    1    3    3  501    0 -0.80110787283E+02 -0.24915298052E+03 -0.81825323373E+03  0.85908864528E+03  0.00000000000E+00 0.  1.
         21    1    1    2  502  501 -0.77689092675E-01 -0.63463998613E-02  0.23872642031E+00  0.25112979844E+00  0.00000000000E+00 0. -1.
<mgrwt>
<rscale>  1 0.71158099E+03</rscale>
<asrwt>0</asrwt>
<pdfrwt beam="1">  1        1 0.46121038E+00 0.71158099E+03</pdfrwt>
<pdfrwt beam="2">0</pdfrwt>
<totfact> 0.69624823E-01</totfact>
</mgrwt>
</event>
<event>
 6    1  0.2838103E-003  0.6544464E+03  0.7818608E-02  0.9798471E-01
          1   -1    0    0  502    0  0.00000000000E+00  0.00000000000E+00  0.11278154113E+03  0.11278154113E+03  0.00000000000E+00 0.  1.
         13   -1    0    0    0    0 -0.00000000000E+00 -0.00000000000E+00 -0.10000000000E+04  0.10000000000E+04  0.00000000000E+00 0.  1.
    9000005    2    1    2  501    0 -0.20691165339E+01 -0.11086627379E+02 -0.88591441648E+03  0.11014283444E+04  0.65434918044E+03 0.  0.
         13    1    3    3    0    0 -0.27619174069E+03 -0.55987419604E+02 -0.73085585414E+03  0.78330501614E+03  0.00000000000E+00 0.  1.
          1    1    3    3  501    0  0.27412262416E+03  0.44900792225E+02 -0.15505856234E+03  0.31812332824E+03  0.00000000000E+00 0.  1.
         21    1    1    2  502  501  0.20691165339E+01  0.11086627379E+02 -0.13040423928E+01  0.11353196750E+02  0.00000000000E+00 0.  1.
<mgrwt>
<rscale>  1 0.65444636E+03</rscale>
<asrwt>0</asrwt>
<pdfrwt beam="1">  1        1 0.41011556E+00 0.65444636E+03</pdfrwt>
<pdfrwt beam="2">0</pdfrwt>
<totfact> 0.12045530E+00</totfact>
</mgrwt>
</event>
<event>
 6    1  0.2838103E-003  0.6486500E+03  0.7818608E-02  0.9809316E-01
          1   -1    0    0  502    0  0.00000000000E+00  0.00000000000E+00  0.10518673180E+03  0.10518673180E+03  0.00000000000E+00 0.  1.
         13   -1    0    0    0    0 -0.00000000000E+00 -0.00000000000E+00 -0.10000000000E+04  0.10000000000E+04  0.00000000000E+00 0.  1.
    9000005    2    1    2  501    0 -0.53403964273E-05  0.23515168380E-04 -0.89481329942E+03  0.11051866924E+04  0.64864997042E+03 0.  0.
         13    1    3    3    0    0 -0.14671490471E+03 -0.24641933130E+03 -0.18935184854E+03  0.34365953013E+03  0.00000000000E+00 0.  1.
          3    1    3    3  501    0  0.14671489937E+03  0.24641935482E+03 -0.70546145088E+03  0.76152716222E+03  0.00000000000E+00 0.  1.
         21    1    1    2  502  501  0.53403964393E-05 -0.23515168388E-04  0.31223989150E-04  0.39451495242E-04  0.00000000000E+00 0.  1.
<mgrwt>
<rscale>  1 0.64864997E+03</rscale>
<asrwt>0</asrwt>
<pdfrwt beam="1">  1        1 0.38249801E+00 0.64864997E+03</pdfrwt>
<pdfrwt beam="2">0</pdfrwt>
<totfact> 0.16002220E+00</totfact>
</mgrwt>
</event>
<event>
 6    1  0.2838103E-003  0.6324075E+03  0.7818608E-02  0.9840362E-01
          1   -1    0    0  502    0  0.00000000000E+00  0.00000000000E+00  0.99985606271E+02  0.99985606271E+02  0.00000000000E+00 0.  1.
         13   -1    0    0    0    0 -0.00000000000E+00 -0.00000000000E+00 -0.10000000000E+04  0.10000000000E+04  0.00000000000E+00 0.  1.
    9000005    2    1    2  501    0 -0.24151158580E-03  0.24019042002E-04 -0.90001517277E+03  0.10999847903E+04  0.63240748547E+03 0.  0.
         13    1    3    3    0    0 -0.90893010722E+02 -0.16076145508E+03 -0.35674108074E+01  0.18471196836E+03  0.00000000000E+00 0.  1.
          3    1    3    3  501    0  0.90892769210E+02  0.16076147910E+03 -0.89644776196E+03  0.91527282194E+03  0.00000000000E+00 0.  1.
         21    1    1    2  502  501  0.24151158580E-03 -0.24019041993E-04  0.77903844233E-03  0.81596915081E-03  0.00000000000E+00 0. -1.
<mgrwt>
<rscale>  1 0.63240749E+03</rscale>
<asrwt>0</asrwt>
<pdfrwt beam="1">  1        1 0.36358479E+00 0.63240749E+03</pdfrwt>
<pdfrwt beam="2">0</pdfrwt>
<totfact> 0.19437994E+00</totfact>
</mgrwt>
</event>
<event>
 6    1  0.2838103E-003  0.6505197E+03  0.7818608E-02  0.9805805E-01
          1   -1    0    0  502    0  0.00000000000E+00  0.00000000000E+00  0.10582734759E+03  0.10582734759E+03  0.00000000000E+00 0.  1.
         13   -1    0    0    0    0 -0.00000000000E+00 -0.00000000000E+00 -0.10000000000E+04  0.10000000000E+04  0.00000000000E+00 0.  1.
    9000005    2    1    2  501    0 -0.15970105428E-02  0.41911724338E-03 -0.89420601178E+03  0.11057939474E+04  0.65051968654E+03 0.  0.
         13    1    3    3    0    0 -0.13964557323E+03  0.29369326072E+03 -0.45754014987E+03  0.56133733731E+03  0.00000000000E+00 0.  1.
          1    1    3    3  501    0  0.13964397622E+03 -0.29369284160E+03 -0.43666586190E+03  0.54445661007E+03  0.00000000000E+00 0.  1.
         21    1    1    2  502  501  0.15970105428E-02 -0.41911724338E-03  0.33359371207E-01  0.33400205826E-01  0.00000000000E+00 0.  1.
<mgrwt>
<rscale>  1 0.65051969E+03</rscale>
<asrwt>0</asrwt>
<pdfrwt beam="1">  1        1 0.38482753E+00 0.65051969E+03</pdfrwt>
<pdfrwt beam="2">0</pdfrwt>
<totfact> 0.15621884E+00</totfact>
</mgrwt>
</event>
<event>
 6    1  0.2838103E-003  0.6468750E+03  0.7818608E-02  0.9812661E-01
          1   -1    0    0  502    0  0.00000000000E+00  0.00000000000E+00  0.10461336639E+03  0.10461336639E+03  0.00000000000E+00 0.  1.
         13   -1    0    0    0    0 -0.00000000000E+00 -0.00000000000E+00 -0.10000000000E+04  0.10000000000E+04  0.00000000000E+00 0.  1.
    9000005    2    1    2  501    0  0.72755574173E-03  0.15572475616E-02 -0.89538761979E+03  0.11046113847E+04  0.64687504330E+03 0.  0.
         13    1    3    3    0    0 -0.50542427388E+02 -0.24210417932E+03 -0.80360789345E+03  0.84080593303E+03  0.00000000000E+00 0.  1.
          1    1    3    3  501    0  0.50543154944E+02  0.24210573656E+03 -0.91779726342E+02  0.26380545172E+03  0.00000000000E+00 0.  1.
         21    1    1    2  502  501 -0.72755574174E-03 -0.15572475616E-02  0.98617864697E-03  0.19816421598E-02  0.00000000000E+00 0. -1.
<mgrwt>
<rscale>  1 0.64687504E+03</rscale>
<asrwt>0</asrwt>
<pdfrwt beam="1">  1        1 0.38041304E+00 0.64687504E+03</pdfrwt>
<pdfrwt beam="2">0</pdfrwt>
<totfact> 0.16350388E+00</totfact>
</mgrwt>
</event>
<event>
 6    1  0.2838103E-003  0.6480005E+03  0.7818608E-02  0.9810538E-01
          1   -1    0    0  502    0  0.00000000000E+00  0.00000000000E+00  0.10936009244E+03  0.10936009244E+03  0.00000000000E+00 0.  1.
         13   -1    0    0    0    0 -0.00000000000E+00 -0.00000000000E+00 -0.10000000000E+04  0.10000000000E+04  0.00000000000E+00 0.  1.
    9000005    2    1    2  501    0  0.10453009487E+02  0.53507518353E+01 -0.88333770929E+03  0.10955319309E+04  0.64789413252E+03 0.  0.
         13    1    3    3    0    0 -0.13190744074E+03 -0.27319456032E+02 -0.93191821861E+03  0.94160368085E+03  0.00000000000E+00 0.  1.
          1    1    3    3  501    0  0.14236045023E+03  0.32670207868E+02  0.48580509321E+02  0.15392825003E+03  0.00000000000E+00 0.  1.
         21    1    1    2  502  501 -0.10453009487E+02 -0.53507518353E+01 -0.73021982716E+01  0.13828161560E+02  0.00000000000E+00 0.  1.
<mgrwt>
<rscale>  1 0.64800054E+03</rscale>
<asrwt>0</asrwt>
<pdfrwt beam="1">  1        1 0.39767390E+00 0.64800054E+03</pdfrwt>
<pdfrwt beam="2">0</pdfrwt>
<totfact> 0.13706958E+00</totfact>
</mgrwt>
</event>
<event>
 6    1  0.2838103E-003  0.6331776E+03  0.7818608E-02  0.9838867E-01
          1   -1    0    0  502    0  0.00000000000E+00  0.00000000000E+00  0.10033393697E+03  0.10033393697E+03  0.00000000000E+00 0.  1.
         13   -1    0    0    0    0 -0.00000000000E+00 -0.00000000000E+00 -0.10000000000E+04  0.10000000000E+04  0.00000000000E+00 0.  1.
    9000005    2    1    2  501    0 -0.49741810854E-02 -0.13169177270E-01 -0.89977100022E+03  0.11002280598E+04  0.63317764526E+03 0.  0.
         13    1    3    3    0    0 -0.27298157927E+03 -0.47941932107E+02 -0.18400939117E+03  0.33268127016E+03  0.00000000000E+00 0.  1.
          3    1    3    3  501    0  0.27297660509E+03  0.47928762930E+02 -0.71576160905E+03  0.76754678960E+03  0.00000000000E+00 0.  1.
         21    1    1    2  502  501  0.49741810854E-02  0.13169177270E-01  0.10493718937E+00  0.10587720917E+00  0.00000000000E+00 0.  1.
<mgrwt>
<rscale>  1 0.63317765E+03</rscale>
<asrwt>0</asrwt>
<pdfrwt beam="1">  1        1 0.36485145E+00 0.63317765E+03</pdfrwt>
<pdfrwt beam="2">0</pdfrwt>
<totfact> 0.19188530E+00</totfact>
</mgrwt>
</event>
<event>
 6    1  0.2838103E-003  0.6465058E+03  0.7818608E-02  0.9813358E-01
          1   -1    0    0  502    0  0.00000000000E+00  0.00000000000E+00  0.10460340174E+03  0.10460340174E+03  0.00000000000E+00 0.  1.
         13   -1    0    0    0    0 -0.00000000000E+00 -0.00000000000E+00 -0.10000000000E+04  0.10000000000E+04  0.00000000000E+00 0.  1.
    9000005    2    1    2  501    0 -0.10129255181E-01 -0.13758807213E-01 -0.89550684941E+03  0.11044918346E+04  0.64650575797E+03 0.  0.
         13    1    3    3    0    0  0.23524358891E+03  0.22166644357E+03 -0.44196528020E+03  0.54754805016E+03  0.00000000000E+00 0.  1.
          3    1    3    3  501    0 -0.23525371817E+03 -0.22168020238E+03 -0.45354156921E+03  0.55694378445E+03  0.00000000000E+00 0.  1.
         21    1    1    2  502  501  0.10129255181E-01  0.13758807213E-01  0.11025115716E+00  0.11156712886E+00  0.00000000000E+00 0. -1.
<mgrwt>
<rscale>  1 0.64650576E+03</rscale>
<asrwt>0</asrwt>
<pdfrwt beam="1">  1        1 0.38037681E+00 0.64650576E+03</pdfrwt>
<pdfrwt beam="2">0</pdfrwt>
<totfact> 0.16357520E+00</totfact>
</mgrwt>
</event>
<event>
 6    1  0.2838103E-003  0.6509824E+03  0.7818608E-02  0.9804937E-01
          1   -1    0    0  502    0  0.00000000000E+00  0.00000000000E+00  0.10594459493E+03  0.10594459493E+03  0.00000000000E+00 0.  1.
         13   -1    0    0    0    0 -0.00000000000E+00 -0.00000000000E+00 -0.10000000000E+04  0.10000000000E+04  0.00000000000E+00 0.  1.
    9000005    2    1    2  501    0  0.32273689214E-05 -0.51718850784E-05 -0.89405546608E+03  0.11059445336E+04  0.65098243833E+03 0.  0.
         13    1    3    3    0    0  0.14308649827E+03 -0.17401694169E+03 -0.47920211489E+02  0.23033017312E+03  0.00000000000E+00 0.  1.
          3    1    3    3  501    0 -0.14308649504E+03  0.17401693651E+03 -0.84613525459E+03  0.87561436050E+03  0.00000000000E+00 0.  1.
         21    1    1    2  502  501 -0.32273689082E-05  0.51718850710E-05  0.61003446914E-04  0.61307298429E-04  0.00000000000E+00 0.  1.
<mgrwt>
<rscale>  1 0.65098244E+03</rscale>
<asrwt>0</asrwt>
<pdfrwt beam="1">  1        1 0.38525388E+00 0.65098244E+03</pdfrwt>
<pdfrwt beam="2">0</pdfrwt>
<totfact> 0.15552865E+00</totfact>
</mgrwt>
</event>
<event>
 6    1  0.2838103E-003  0.6637944E+03  0.7818608E-02  0.9781234E-01
          1   -1    0    0  502    0  0.00000000000E+00  0.00000000000E+00  0.11015577162E+03  0.11015577162E+03  0.00000000000E+00 0.  1.
         13   -1    0    0    0    0 -0.00000000000E+00 -0.00000000000E+00 -0.10000000000E+04  0.10000000000E+04  0.00000000000E+00 0.  1.
    9000005    2    1    2  501    0  0.43669146521E-07 -0.36320875694E-05 -0.88984423815E+03  0.11101557612E+04  0.66379443049E+03 0.  0.
         13    1    3    3    0    0  0.24257794630E+02 -0.83768069037E+02  0.90650832700E+02  0.12578991796E+03  0.00000000000E+00 0.  1.
          1    1    3    3  501    0 -0.24257794587E+02  0.83768065405E+02 -0.98049507085E+03  0.98436584324E+03  0.00000000000E+00 0.  1.
         21    1    1    2  502  501 -0.43669144873E-07  0.36320875689E-05  0.97726957481E-05  0.10425907600E-04  0.00000000000E+00 0. -1.
<mgrwt>
<rscale>  1 0.66379443E+03</rscale>
<asrwt>0</asrwt>
<pdfrwt beam="1">  1        1 0.40056729E+00 0.66379443E+03</pdfrwt>
<pdfrwt beam="2">0</pdfrwt>
<totfact> 0.13266459E+00</totfact>
</mgrwt>
</event>
<event>
 6    1  0.2838103E-003  0.6479372E+03  0.7818608E-02  0.9810658E-01
          1   -1    0    0  502    0  0.00000000000E+00  0.00000000000E+00  0.10594686530E+03  0.10594686530E+03  0.00000000000E+00 0.  1.
         13   -1    0    0    0    0 -0.00000000000E+00 -0.00000000000E+00 -0.10000000000E+04  0.10000000000E+04  0.00000000000E+00 0.  1.
    9000005    2    1    2  501    0 -0.31754837743E+00 -0.46649499702E-01 -0.89501554546E+03  0.11049323469E+04  0.64793715865E+03 0.  0.
         13    1    3    3    0    0  0.17744037215E+03  0.24911002024E+03 -0.26571130510E+03  0.40514612859E+03  0.00000000000E+00 0.  1.
          1    1    3    3  501    0 -0.17775792053E+03 -0.24915666974E+03 -0.62930424036E+03  0.69978621830E+03  0.00000000000E+00 0.  1.
         21    1    1    2  502  501  0.31754837743E+00  0.46649499702E-01  0.96241075434E+00  0.10145184118E+01  0.00000000000E+00 0. -1.
<mgrwt>
<rscale>  1 0.64793724E+03</rscale>
<asrwt>0</asrwt>
<pdfrwt beam="1">  1        1 0.38526214E+00 0.64793724E+03</pdfrwt>
<pdfrwt beam="2">0</pdfrwt>
<totfact> 0.15560319E+00</totfact>
</mgrwt>
</event>
<event>
 6    1  0.2838103E-003  0.6444129E+03  0.7818608E-02  0.9817320E-01
          1   -1    0    0  502    0  0.00000000000E+00  0.00000000000E+00  0.10381699233E+03  0.10381699233E+03  0.00000000000E+00 0.  1.
         13   -1    0    0    0    0 -0.00000000000E+00 -0.00000000000E+00 -0.10000000000E+04  0.10000000000E+04  0.00000000000E+00 0.  1.
    9000005    2    1    2  501    0 -0.22067783334E-05  0.33595585762E-05 -0.89618301198E+03  0.11038169864E+04  0.64441287121E+03 0.  0.
         13    1    3    3    0    0 -0.92606709931E+02 -0.24527230984E+03 -0.12725926980E+03  0.29142654383E+03  0.00000000000E+00 0.  1.
          1    1    3    3  501    0  0.92606707724E+02  0.24527231320E+03 -0.76892374218E+03  0.81239044260E+03  0.00000000000E+00 0.  1.
         21    1    1    2  502  501  0.22067783278E-05 -0.33595585608E-05  0.43124133931E-05  0.58952025907E-05  0.00000000000E+00 0.  1.
<mgrwt>
<rscale>  1 0.64441287E+03</rscale>
<asrwt>0</asrwt>
<pdfrwt beam="1">  1        1 0.37751713E+00 0.64441287E+03</pdfrwt>
<pdfrwt beam="2">0</pdfrwt>
<totfact> 0.16845950E+00</totfact>
</mgrwt>
</event>
<event>
 6    1  0.2838103E-003  0.6585303E+03  0.7818608E-02  0.9790903E-01
          1   -1    0    0  502    0  0.00000000000E+00  0.00000000000E+00  0.11981556152E+03  0.11981556152E+03  0.00000000000E+00 0.  1.
         13   -1    0    0    0    0 -0.00000000000E+00 -0.00000000000E+00 -0.10000000000E+04  0.10000000000E+04  0.00000000000E+00 0.  1.
    9000005    2    1    2  501    0 -0.60250213118E+00 -0.24673878999E+01 -0.89142743770E+03  0.11082892419E+04  0.65852541035E+03 0.  0.
         13    1    3    3    0    0  0.12187421611E+03 -0.30291536634E+03 -0.53084121874E+03  0.62322022049E+03  0.00000000000E+00 0.  1.
          3    1    3    3  501    0 -0.12247671824E+03  0.30044797844E+03 -0.36058621896E+03  0.48506902144E+03  0.00000000000E+00 0.  1.
         21    1    1    2  502  501  0.60250213118E+00  0.24673878999E+01  0.11242999221E+02  0.11526319593E+02  0.00000000000E+00 0.  1.
<mgrwt>
<rscale>  1 0.65853031E+03</rscale>
<asrwt>0</asrwt>
<pdfrwt beam="1">  1        1 0.43569387E+00 0.65853031E+03</pdfrwt>
<pdfrwt beam="2">0</pdfrwt>
<totfact> 0.92228272E-01</totfact>
</mgrwt>
</event>
<event>
 6    1  0.2838103E-003  0.4740767E+03  0.7818608E-02  0.1020776E+00
          1   -1    0    0  502    0  0.00000000000E+00  0.00000000000E+00  0.56187194586E+02  0.56187194586E+02  0.00000000000E+00 0.  1.
         13   -1    0    0    0    0 -0.00000000000E+00 -0.00000000000E+00 -0.10000000000E+04  0.10000000000E+04  0.00000000000E+00 0.  1.
    9000005    2    1    2  501    0  0.24696941523E-05 -0.17010707154E-05 -0.94381280961E+03  0.10561871894E+04  0.47407674433E+03 0.  0.
         13    1    3    3    0    0  0.13374754690E+03 -0.19567907608E+03 -0.47839540782E+03  0.53389219263E+03  0.00000000000E+00 0.  1.
          3    1    3    3  501    0 -0.13374754443E+03  0.19567907438E+03 -0.46541740179E+03  0.52229499680E+03  0.00000000000E+00 0.  1.
         21    1    1    2  502  501 -0.24696941623E-05  0.17010707162E-05  0.41987699369E-05  0.51597189671E-05  0.00000000000E+00 0.  1.
<mgrwt>
<rscale>  1 0.47407674E+03</rscale>
<asrwt>0</asrwt>
<pdfrwt beam="1">  1        1 0.20431750E+00 0.47407674E+03</pdfrwt>
<pdfrwt beam="2">0</pdfrwt>
<totfact> 0.98688770E+00</totfact>
</mgrwt>
</event>
<event>
 6    1  0.2838103E-003  0.6517059E+03  0.7818608E-02  0.9803584E-01
          1   -1    0    0  502    0  0.00000000000E+00  0.00000000000E+00  0.10629817832E+03  0.10629817832E+03  0.00000000000E+00 0.  1.
         13   -1    0    0    0    0 -0.00000000000E+00 -0.00000000000E+00 -0.10000000000E+04  0.10000000000E+04  0.00000000000E+00 0.  1.
    9000005    2    1    2  501    0  0.10695153837E+00  0.20332284031E+00 -0.89368040958E+03  0.11060674462E+04  0.65170581431E+03 0.  0.
         13    1    3    3    0    0 -0.24417298561E+03 -0.19394581839E+03 -0.60662687166E+03  0.68207887286E+03  0.00000000000E+00 0.  1.
          1    1    3    3  501    0  0.24427993715E+03  0.19414914123E+03 -0.28705353792E+03  0.42398857339E+03  0.00000000000E+00 0.  1.
         21    1    1    2  502  501 -0.10695153837E+00 -0.20332284031E+00 -0.21412099207E-01  0.23073206744E+00  0.00000000000E+00 0.  1.
<mgrwt>
<rscale>  1 0.65170585E+03</rscale>
<asrwt>0</asrwt>
<pdfrwt beam="1">  1        1 0.38653965E+00 0.65170585E+03</pdfrwt>
<pdfrwt beam="2">0</pdfrwt>
<totfact> 0.15348378E+00</totfact>
</mgrwt>
</event>
<event>
 6    1  0.2838103E-003  0.6487475E+03  0.7818608E-02  0.9809132E-01
          1   -1    0    0  502    0  0.00000000000E+00  0.00000000000E+00  0.10522271209E+03  0.10522271209E+03  0.00000000000E+00 0.  1.
         13   -1    0    0    0    0 -0.00000000000E+00 -0.00000000000E+00 -0.10000000000E+04  0.10000000000E+04  0.00000000000E+00 0.  1.
    9000005    2    1    2  501    0 -0.53246611294E-02  0.11035993266E-01 -0.89476828875E+03  0.11052075091E+04  0.64874752218E+03 0.  0.
         13    1    3    3    0    0 -0.29068030299E+02 -0.10698711929E+03 -0.96670430811E+03  0.97304080767E+03  0.00000000000E+00 0.  1.
          1    1    3    3  501    0  0.29062705638E+02  0.10699815528E+03  0.71936019360E+02  0.13216670146E+03  0.00000000000E+00 0.  1.
         21    1    1    2  502  501  0.53246611294E-02 -0.11035993266E-01 -0.89991603799E-02  0.15202961917E-01  0.00000000000E+00 0. -1.
<mgrwt>
<rscale>  1 0.64874752E+03</rscale>
<asrwt>0</asrwt>
<pdfrwt beam="1">  1        1 0.38262885E+00 0.64874752E+03</pdfrwt>
<pdfrwt beam="2">0</pdfrwt>
<totfact> 0.15980649E+00</totfact>
</mgrwt>
</event>
<event>
 6    1  0.2838103E-003  0.6518772E+03  0.7818608E-02  0.9803263E-01
          3   -1    0    0  502    0  0.00000000000E+00  0.00000000000E+00  0.10630407864E+03  0.10630407864E+03  0.00000000000E+00 0.  1.
         13   -1    0    0    0    0 -0.00000000000E+00 -0.00000000000E+00 -0.10000000000E+04  0.10000000000E+04  0.00000000000E+00 0.  1.
    9000005    2    1    2  501    0  0.18357297071E-01  0.14746024005E-01 -0.89376175382E+03  0.11062341619E+04  0.65187724906E+03 0.  0.
         13    1    3    3    0    0  0.75349886689E+02  0.10548270209E+03 -0.95438503531E+03  0.96314848361E+03  0.00000000000E+00 0.  1.
          1    1    3    3  501    0 -0.75331529392E+02 -0.10546795607E+03  0.60623281489E+02  0.14308567831E+03  0.00000000000E+00 0.  1.
         21    1    1    2  502  501 -0.18357297071E-01 -0.14746024005E-01  0.65832454038E-01  0.69916718919E-01  0.00000000000E+00 0. -1.
<mgrwt>
<rscale>  1 0.65187725E+03</rscale>
<asrwt>0</asrwt>
<pdfrwt beam="1">  1        3 0.38656110E+00 0.65187725E+03</pdfrwt>
<pdfrwt beam="2">0</pdfrwt>
<totfact> 0.69674994E-02</totfact>
</mgrwt>
</event>
<event>
 6    1  0.2838103E-003  0.6523256E+03  0.7818608E-02  0.9802425E-01
          3   -1    0    0  502    0  0.00000000000E+00  0.00000000000E+00  0.10671765463E+03  0.10671765463E+03  0.00000000000E+00 0.  1.
         13   -1    0    0    0    0 -0.00000000000E+00 -0.00000000000E+00 -0.10000000000E+04  0.10000000000E+04  0.00000000000E+00 0.  1.
    9000005    2    1    2  501    0 -0.50710371528E-01  0.37827349606E+00 -0.89349330280E+03  0.11062815750E+04  0.65232545209E+03 0.  0.
         13    1    3    3    0    0  0.95672173485E+02  0.25665132551E+03 -0.74770038097E+03  0.79629073043E+03  0.00000000000E+00 0.  1.
          3    1    3    3  501    0 -0.95722883857E+02 -0.25627305201E+03 -0.14579292182E+03  0.30999084460E+03  0.00000000000E+00 0.  1.
         21    1    1    2  502  501  0.50710371528E-01 -0.37827349606E+00  0.21095742521E+00  0.43607959693E+00  0.00000000000E+00 0. -1.
<mgrwt>
<rscale>  1 0.65232556E+03</rscale>
<asrwt>0</asrwt>
<pdfrwt beam="1">  1        3 0.38806502E+00 0.65232556E+03</pdfrwt>
<pdfrwt beam="2">0</pdfrwt>
<totfact> 0.68410511E-02</totfact>
</mgrwt>
</event>
<event>
 6    1  0.2838103E-003  0.6593017E+03  0.7818608E-02  0.9789480E-01
          1   -1    0    0  502    0  0.00000000000E+00  0.00000000000E+00  0.10964588982E+03  0.10964588982E+03  0.00000000000E+00 0.  1.
         13   -1    0    0    0    0 -0.00000000000E+00 -0.00000000000E+00 -0.10000000000E+04  0.10000000000E+04  0.00000000000E+00 0.  1.
    9000005    2    1    2  501    0 -0.13949315162E+01  0.11224769203E+01 -0.89031678421E+03  0.11078550292E+04  0.65929931274E+03 0.  0.
         13    1    3    3    0    0 -0.18358004544E+02 -0.12549632833E+03 -0.95588382119E+03  0.96426149169E+03  0.00000000000E+00 0.  1.
          1    1    3    3  501    0  0.16963073028E+02  0.12661880525E+03  0.65567036972E+02  0.14359353755E+03  0.00000000000E+00 0.  1.
         21    1    1    2  502  501  0.13949315162E+01 -0.11224769203E+01 -0.37325968862E-01  0.17908605751E+01  0.00000000000E+00 0.  1.
<mgrwt>
<rscale>  1 0.65930174E+03</rscale>
<asrwt>0</asrwt>
<pdfrwt beam="1">  1        1 0.39871317E+00 0.65930174E+03</pdfrwt>
<pdfrwt beam="2">0</pdfrwt>
<totfact> 0.13532763E+00</totfact>
</mgrwt>
</event>
<event>
 6    1  0.2838103E-003  0.6454484E+03  0.7818608E-02  0.9815358E-01
          1   -1    0    0  502    0  0.00000000000E+00  0.00000000000E+00  0.10415282777E+03  0.10415282777E+03  0.00000000000E+00 0.  1.
         13   -1    0    0    0    0 -0.00000000000E+00 -0.00000000000E+00 -0.10000000000E+04  0.10000000000E+04  0.00000000000E+00 0.  1.
    9000005    2    1    2  501    0 -0.45355339438E-04 -0.14029691755E-04 -0.89584908103E+03  0.11041509184E+04  0.64544842906E+03 0.  0.
         13    1    3    3    0    0 -0.23516778527E+03 -0.21815322754E+03 -0.38729300439E+03  0.50288228162E+03  0.00000000000E+00 0.  1.
          1    1    3    3  501    0  0.23516773992E+03  0.21815321351E+03 -0.50855607664E+03  0.60126863676E+03  0.00000000000E+00 0.  1.
         21    1    1    2  502  501  0.45355339437E-04  0.14029691757E-04  0.19088018064E-02  0.19093921219E-02  0.00000000000E+00 0.  1.
<mgrwt>
<rscale>  1 0.64544843E+03</rscale>
<asrwt>0</asrwt>
<pdfrwt beam="1">  1        1 0.37873835E+00 0.64544843E+03</pdfrwt>
<pdfrwt beam="2">0</pdfrwt>
<totfact> 0.16635258E+00</totfact>
</mgrwt>
</event>
<event>
 6    1  0.2838103E-003  0.6442132E+03  0.7818608E-02  0.9817699E-01
          1   -1    0    0  502    0  0.00000000000E+00  0.00000000000E+00  0.10456513576E+03  0.10456513576E+03  0.00000000000E+00 0.  1.
         13   -1    0    0    0    0 -0.00000000000E+00 -0.00000000000E+00 -0.10000000000E+04  0.10000000000E+04  0.00000000000E+00 0.  1.
    9000005    2    1    2  501    0  0.25126630444E+00  0.22842075348E+00 -0.89620800133E+03  0.11037207118E+04  0.64421309579E+03 0.  0.
         13    1    3    3    0    0  0.77476891006E+02  0.28068855508E+03 -0.68473919301E+03  0.74408097411E+03  0.00000000000E+00 0.  1.
          3    1    3    3  501    0 -0.77225624701E+02 -0.28046013433E+03 -0.21146880832E+03  0.35963973772E+03  0.00000000000E+00 0.  1.
         21    1    1    2  502  501 -0.25126630444E+00 -0.22842075348E+00  0.77313708946E+00  0.84442391929E+00  0.00000000000E+00 0. -1.
<mgrwt>
<rscale>  1 0.64421319E+03</rscale>
<asrwt>0</asrwt>
<pdfrwt beam="1">  1        1 0.38023766E+00 0.64421319E+03</pdfrwt>
<pdfrwt beam="2">0</pdfrwt>
<totfact> 0.16387581E+00</totfact>
</mgrwt>
</event>
<event>
 6    1  0.2838103E-003  0.6398506E+03  0.7818608E-02  0.9826013E-01
          3   -1    0    0  502    0  0.00000000000E+00  0.00000000000E+00  0.10235220491E+03  0.10235220491E+03  0.00000000000E+00 0.  1.
         13   -1    0    0    0    0 -0.00000000000E+00 -0.00000000000E+00 -0.10000000000E+04  0.10000000000E+04  0.00000000000E+00 0.  1.
    9000005    2    1    2  501    0  0.81678156505E-06  0.38371098867E-05 -0.89764781783E+03  0.11023521818E+04  0.63985055126E+03 0.  0.
         13    1    3    3    0    0  0.11166632201E+03 -0.28464469996E+03 -0.28665642092E+03  0.41912274615E+03  0.00000000000E+00 0.  1.
          3    1    3    3  501    0 -0.11166632119E+03  0.28464470380E+03 -0.61099139691E+03  0.68322943569E+03  0.00000000000E+00 0.  1.
         21    1    1    2  502  501 -0.81678156030E-06 -0.38371098515E-05  0.22734975595E-04  0.23070970059E-04  0.00000000000E+00 0.  1.
<mgrwt>
<rscale>  1 0.63985055E+03</rscale>
<asrwt>0</asrwt>
<pdfrwt beam="1">  1        3 0.37219062E+00 0.63985055E+03</pdfrwt>
<pdfrwt beam="2">0</pdfrwt>
<totfact> 0.83147916E-02</totfact>
</mgrwt>
</event>
<event>
 6    1  0.2838103E-003  0.6574653E+03  0.7818608E-02  0.9792871E-01
          1   -1    0    0  502    0  0.00000000000E+00  0.00000000000E+00  0.13256741148E+03  0.13256741148E+03  0.00000000000E+00 0.  1.
         13   -1    0    0    0    0 -0.00000000000E+00 -0.00000000000E+00 -0.10000000000E+04  0.10000000000E+04  0.00000000000E+00 0.  1.
    9000005    2    1    2  501    0  0.73058441879E+00  0.15806009291E+00 -0.89192852773E+03  0.11080600702E+04  0.65746487507E+03 0.  0.
         13    1    3    3    0    0 -0.31588817920E+02  0.27055431669E+03 -0.13575738439E+03  0.30434776016E+03  0.00000000000E+00 0.  1.
          3    1    3    3  501    0  0.32319402339E+02 -0.27039625660E+03 -0.75617114334E+03  0.80371231008E+03  0.00000000000E+00 0.  1.
         21    1    1    2  502  501 -0.73058441879E+00 -0.15806009291E+00  0.24495939211E+02  0.24507341235E+02  0.00000000000E+00 0.  1.
<mgrwt>
<rscale>  1 0.65746530E+03</rscale>
<asrwt>0</asrwt>
<pdfrwt beam="1">  1        1 0.48206433E+00 0.65746530E+03</pdfrwt>
<pdfrwt beam="2">0</pdfrwt>
<totfact> 0.56207914E-01</totfact>
</mgrwt>
</event>
<event>
 6    1  0.2838103E-003  0.6705422E+03  0.7818608E-02  0.9768979E-01
          1   -1    0    0  502    0  0.00000000000E+00  0.00000000000E+00  0.11243915633E+03  0.11243915633E+03  0.00000000000E+00 0.  1.
         13   -1    0    0    0    0 -0.00000000000E+00 -0.00000000000E+00 -0.10000000000E+04  0.10000000000E+04  0.00000000000E+00 0.  1.
    9000005    2    1    2  501    0 -0.14835824408E-02 -0.29263926284E-02 -0.88759321273E+03  0.11124066214E+04  0.67054215385E+03 0.  0.
         13    1    3    3    0    0 -0.23793078948E+02  0.27899123979E+03 -0.74970988176E+03  0.80029190256E+03  0.00000000000E+00 0.  1.
          1    1    3    3  501    0  0.23791595365E+02 -0.27899416618E+03 -0.13788333096E+03  0.31211471886E+03  0.00000000000E+00 0.  1.
         21    1    1    2  502  501  0.14835824408E-02  0.29263926283E-02  0.32369052375E-01  0.32534909595E-01  0.00000000000E+00 0.  1.
<mgrwt>
<rscale>  1 0.67054215E+03</rscale>
<asrwt>0</asrwt>
<pdfrwt beam="1">  1        1 0.40887052E+00 0.67054215E+03</pdfrwt>
<pdfrwt beam="2">0</pdfrwt>
<totfact> 0.12163965E+00</totfact>
</mgrwt>
</event>
<event>
 6    1  0.2838103E-003  0.6041289E+03  0.7818608E-02  0.9896877E-01
          1   -1    0    0  502    0  0.00000000000E+00  0.00000000000E+00  0.91243294419E+02  0.91243294419E+02  0.00000000000E+00 0.  1.
         13   -1    0    0    0    0 -0.00000000000E+00 -0.00000000000E+00 -0.10000000000E+04  0.10000000000E+04  0.00000000000E+00 0.  1.
    9000005    2    1    2  501    0 -0.98436224221E-05  0.19156321070E-04 -0.90875706532E+03  0.10912429340E+04  0.60412890786E+03 0.  0.
         13    1    3    3    0    0 -0.30084539307E+03 -0.24725519470E+02 -0.47446310668E+03  0.56234734946E+03  0.00000000000E+00 0.  1.
          3    1    3    3  501    0  0.30084538323E+03  0.24725538627E+02 -0.43429395864E+03  0.52889558457E+03  0.00000000000E+00 0.  1.
         21    1    1    2  502  501  0.98436224283E-05 -0.19156321068E-04  0.35973998912E-03  0.36038413022E-03  0.00000000000E+00 0.  1.
<mgrwt>
<rscale>  1 0.60412891E+03</rscale>
<asrwt>0</asrwt>
<pdfrwt beam="1">  1        1 0.33179450E+00 0.60412891E+03</pdfrwt>
<pdfrwt beam="2">0</pdfrwt>
<totfact> 0.26871127E+00</totfact>
</mgrwt>
</event>
<event>
 6    1  0.2838103E-003  0.6598253E+03  0.7818608E-02  0.9788515E-01
          1   -1    0    0  502    0  0.00000000000E+00  0.00000000000E+00  0.10884258964E+03  0.10884258964E+03  0.00000000000E+00 0.  1.
         13   -1    0    0    0    0 -0.00000000000E+00 -0.00000000000E+00 -0.10000000000E+04  0.10000000000E+04  0.00000000000E+00 0.  1.
    9000005    2    1    2  501    0  0.32520622312E-04  0.58538590191E-04 -0.89115764896E+03  0.11088423418E+04  0.65982526756E+03 0.  0.
         13    1    3    3    0    0 -0.29987018077E+03 -0.17360916208E+01 -0.21444192296E+03  0.36866038253E+03  0.00000000000E+00 0.  1.
          3    1    3    3  501    0  0.29987021329E+03  0.17361501594E+01 -0.67671572600E+03  0.74018195929E+03  0.00000000000E+00 0.  1.
         21    1    1    2  502  501 -0.32520622316E-04 -0.58538590191E-04  0.23859989717E-03  0.24781902338E-03  0.00000000000E+00 0.  1.
<mgrwt>
<rscale>  1 0.65982527E+03</rscale>
<asrwt>0</asrwt>
<pdfrwt beam="1">  1        1 0.39579207E+00 0.65982527E+03</pdfrwt>
<pdfrwt beam="2">0</pdfrwt>
<totfact> 0.13942778E+00</totfact>
</mgrwt>
</event>
<event>
 6    1  0.2838103E-003  0.6497542E+03  0.7818608E-02  0.9807240E-01
          1   -1    0    0  502    0  0.00000000000E+00  0.00000000000E+00  0.11967479409E+03  0.11967479409E+03  0.00000000000E+00 0.  1.
         13   -1    0    0    0    0 -0.00000000000E+00 -0.00000000000E+00 -0.10000000000E+04  0.10000000000E+04  0.00000000000E+00 0.  1.
    9000005    2    1    2  501    0  0.23369556513E+00 -0.25963294397E-01 -0.89445377657E+03  0.11055442670E+04  0.64975419392E+03 0.  0.
         13    1    3    3    0    0  0.23617752036E+03 -0.21213218634E+03 -0.32915531446E+03  0.45729979952E+03  0.00000000000E+00 0.  1.
          1    1    3    3  501    0 -0.23594382480E+03  0.21210622304E+03 -0.56529846212E+03  0.64824446745E+03  0.00000000000E+00 0.  1.
         21    1    1    2  502  501 -0.23369556513E+00  0.25963294397E-01  0.14128570664E+02  0.14130527121E+02  0.00000000000E+00 0. -1.
<mgrwt>
<rscale>  1 0.64975424E+03</rscale>
<asrwt>0</asrwt>
<pdfrwt beam="1">  1        1 0.43518199E+00 0.64975424E+03</pdfrwt>
<pdfrwt beam="2">0</pdfrwt>
<totfact> 0.92889683E-01</totfact>
</mgrwt>
</event>
<event>
 6    1  0.2838103E-003  0.6584233E+03  0.7818608E-02  0.9791101E-01
          1   -1    0    0  502    0  0.00000000000E+00  0.00000000000E+00  0.10846212665E+03  0.10846212665E+03  0.00000000000E+00 0.  1.
         13   -1    0    0    0    0 -0.00000000000E+00 -0.00000000000E+00 -0.10000000000E+04  0.10000000000E+04  0.00000000000E+00 0.  1.
    9000005    2    1    2  501    0 -0.21572710087E-02  0.31894063918E-02 -0.89161963159E+03  0.11083802778E+04  0.65842332337E+03 0.  0.
         13    1    3    3    0    0  0.22060201361E+03  0.21154866867E+03 -0.65172363893E+03  0.71983455680E+03  0.00000000000E+00 0.  1.
          3    1    3    3  501    0 -0.22060417088E+03 -0.21154547927E+03 -0.23989599266E+03  0.38854572099E+03  0.00000000000E+00 0.  1.
         21    1    1    2  502  501  0.21572710087E-02 -0.31894063917E-02  0.81758238121E-01  0.81848858465E-01  0.00000000000E+00 0.  1.
<mgrwt>
<rscale>  1 0.65842332E+03</rscale>
<asrwt>0</asrwt>
<pdfrwt beam="1">  1        1 0.39440856E+00 0.65842332E+03</pdfrwt>
<pdfrwt beam="2">0</pdfrwt>
<totfact> 0.14145401E+00</totfact>
</mgrwt>
</event>
<event>
 6    1  0.2838103E-003  0.6573812E+03  0.7818608E-02  0.9793027E-01
          1   -1    0    0  502    0  0.00000000000E+00  0.00000000000E+00  0.10812697795E+03  0.10812697795E+03  0.00000000000E+00 0.  1.
         13   -1    0    0    0    0 -0.00000000000E+00 -0.00000000000E+00 -0.10000000000E+04  0.10000000000E+04  0.00000000000E+00 0.  1.
    9000005    2    1    2  501    0  0.25194178888E+00 -0.10057579181E+00 -0.89154109707E+03  0.11076983005E+04  0.65738110986E+03 0.  0.
         13    1    3    3    0    0  0.86944421864E+02 -0.31125127298E+03 -0.34402392966E+03  0.47200545717E+03  0.00000000000E+00 0.  1.
          3    1    3    3  501    0 -0.86692480075E+02  0.31115069719E+03 -0.54751716741E+03  0.63569284334E+03  0.00000000000E+00 0.  1.
         21    1    1    2  502  501 -0.25194178888E+00  0.10057579181E+00 -0.33192497977E+00  0.42867743943E+00  0.00000000000E+00 0. -1.
<mgrwt>
<rscale>  1 0.65738117E+03</rscale>
<asrwt>0</asrwt>
<pdfrwt beam="1">  1        1 0.39318984E+00 0.65738117E+03</pdfrwt>
<pdfrwt beam="2">0</pdfrwt>
<totfact> 0.14325682E+00</totfact>
</mgrwt>
</event>
<event>
 6    1  0.2838103E-003  0.6474947E+03  0.7818608E-02  0.9811492E-01
          1   -1    0    0  502    0  0.00000000000E+00  0.00000000000E+00  0.10834052267E+03  0.10834052267E+03  0.00000000000E+00 0.  1.
         13   -1    0    0    0    0 -0.00000000000E+00 -0.00000000000E+00 -0.10000000000E+04  0.10000000000E+04  0.00000000000E+00 0.  1.
    9000005    2    1    2  501    0 -0.89600549924E+00 -0.13733822891E-01 -0.89512469782E+03  0.11047613094E+04  0.64749403328E+03 0.  0.
         13    1    3    3    0    0 -0.37511245185E+02  0.16595794168E+03  0.22413291487E+02  0.17161435708E+03  0.00000000000E+00 0.  1.
          3    1    3    3  501    0  0.36615239686E+02 -0.16597167550E+03 -0.91753798930E+03  0.93314695234E+03  0.00000000000E+00 0.  1.
         21    1    1    2  502  501  0.89600549924E+00  0.13733822891E-01  0.34652204814E+01  0.35792132456E+01  0.00000000000E+00 0. -1.
<mgrwt>
<rscale>  1 0.64749465E+03</rscale>
<asrwt>0</asrwt>
<pdfrwt beam="1">  1        1 0.39396637E+00 0.64749465E+03</pdfrwt>
<pdfrwt beam="2">0</pdfrwt>
<totfact> 0.14238685E+00</totfact>
</mgrwt>
</event>
<event>
 6    1  0.2838103E-003  0.5961509E+03  0.7818608E-02  0.9913424E-01
          1   -1    0    0  502    0  0.00000000000E+00  0.00000000000E+00  0.88849751876E+02  0.88849751876E+02  0.00000000000E+00 0.  1.
         13   -1    0    0    0    0 -0.00000000000E+00 -0.00000000000E+00 -0.10000000000E+04  0.10000000000E+04  0.00000000000E+00 0.  1.
    9000005    2    1    2  501    0  0.14059259813E-02 -0.66923730205E-03 -0.91115005188E+03  0.10888481825E+04  0.59615094350E+03 0.  0.
         13    1    3    3    0    0 -0.17156614949E+03 -0.17305586952E+03 -0.76909713715E+03  0.80677982374E+03  0.00000000000E+00 0.  1.
          1    1    3    3  501    0  0.17156755541E+03  0.17305520028E+03 -0.14205291473E+03  0.28206835873E+03  0.00000000000E+00 0.  1.
         21    1    1    2  502  501 -0.14059259813E-02  0.66923730205E-03 -0.19623997536E-03  0.15694000635E-02  0.00000000000E+00 0.  1.
<mgrwt>
<rscale>  1 0.59615094E+03</rscale>
<asrwt>0</asrwt>
<pdfrwt beam="1">  1        1 0.32309069E+00 0.59615094E+03</pdfrwt>
<pdfrwt beam="2">0</pdfrwt>
<totfact> 0.29347845E+00</totfact>
</mgrwt>
</event>
<event>
 6    1  0.2838103E-003  0.6464144E+03  0.7818608E-02  0.9813531E-01
          1   -1    0    0  502    0  0.00000000000E+00  0.00000000000E+00  0.10446912735E+03  0.10446912735E+03  0.00000000000E+00 0.  1.
         13   -1    0    0    0    0 -0.00000000000E+00 -0.00000000000E+00 -0.10000000000E+04  0.10000000000E+04  0.00000000000E+00 0.  1.
    9000005    2    1    2  501    0  0.10601221769E-03  0.13569241568E-03 -0.89553710828E+03  0.11044628893E+04  0.64641438849E+03 0.  0.
         13    1    3    3    0    0  0.13393610876E+03  0.14457334305E+03 -0.10078447976E+02  0.19733704129E+03  0.00000000000E+00 0.  1.
          3    1    3    3  501    0 -0.13393600275E+03 -0.14457320735E+03 -0.88545866030E+03  0.90712584806E+03  0.00000000000E+00 0.  1.
         21    1    1    2  502  501 -0.10601221768E-03 -0.13569241569E-03  0.62356288765E-02  0.62380059720E-02  0.00000000000E+00 0.  1.
<mgrwt>
<rscale>  1 0.64641439E+03</rscale>
<asrwt>0</asrwt>
<pdfrwt beam="1">  1        1 0.37988854E+00 0.64641439E+03</pdfrwt>
<pdfrwt beam="2">0</pdfrwt>
<totfact> 0.16439147E+00</totfact>
</mgrwt>
</event>
<event>
 6    1  0.2838103E-003  0.6537095E+03  0.7818608E-02  0.9799843E-01
          1   -1    0    0  502    0  0.00000000000E+00  0.00000000000E+00  0.10684365975E+03  0.10684365975E+03  0.00000000000E+00 0.  1.
         13   -1    0    0    0    0 -0.00000000000E+00 -0.00000000000E+00 -0.10000000000E+04  0.10000000000E+04  0.00000000000E+00 0.  1.
    9000005    2    1    2  501    0 -0.70574888241E-04  0.17496571839E-03 -0.89316596013E+03  0.11068340380E+04  0.65370953442E+03 0.  0.
         13    1    3    3    0    0  0.30459468788E+03 -0.82738504716E+01 -0.24633417042E+03  0.39182509363E+03  0.00000000000E+00 0.  1.
          1    1    3    3  501    0 -0.30459475846E+03  0.82740254373E+01 -0.64683178971E+03  0.71500894439E+03  0.00000000000E+00 0.  1.
         21    1    1    2  502  501  0.70574888215E-04 -0.17496571839E-03  0.96198792550E-02  0.96217290909E-02  0.00000000000E+00 0.  1.
<mgrwt>
<rscale>  1 0.65370953E+03</rscale>
<asrwt>0</asrwt>
<pdfrwt beam="1">  1        1 0.38852322E+00 0.65370953E+03</pdfrwt>
<pdfrwt beam="2">0</pdfrwt>
<totfact> 0.15035441E+00</totfact>
</mgrwt>
</event>
<event>
 6    1  0.2838103E-003  0.6470243E+03  0.7818608E-02  0.9812379E-01
          1   -1    0    0  502    0  0.00000000000E+00  0.00000000000E+00  0.10478488135E+03  0.10478488135E+03  0.00000000000E+00 0.  1.
         13   -1    0    0    0    0 -0.00000000000E+00 -0.00000000000E+00 -0.10000000000E+04  0.10000000000E+04  0.00000000000E+00 0.  1.
    9000005    2    1    2  501    0 -0.49501788730E-02  0.90055939249E-02 -0.89533965885E+03  0.11046599179E+04  0.64702428807E+03 0.  0.
         13    1    3    3    0    0 -0.31717581032E+03  0.53823691160E+02 -0.38940880152E+03  0.50511058105E+03  0.00000000000E+00 0.  1.
          3    1    3    3  501    0  0.31717086014E+03 -0.53814685566E+02 -0.50593085733E+03  0.59954933684E+03  0.00000000000E+00 0.  1.
         21    1    1    2  502  501  0.49501788730E-02 -0.90055939249E-02  0.12454020399E+00  0.12496346427E+00  0.00000000000E+00 0.  1.
<mgrwt>
<rscale>  1 0.64702429E+03</rscale>
<asrwt>0</asrwt>
<pdfrwt beam="1">  1        1 0.38103674E+00 0.64702429E+03</pdfrwt>
<pdfrwt beam="2">0</pdfrwt>
<totfact> 0.16246630E+00</totfact>
</mgrwt>
</event>
<event>
 6    1  0.2838103E-003  0.6093296E+03  0.7818608E-02  0.9886237E-01
          1   -1    0    0  502    0  0.00000000000E+00  0.00000000000E+00  0.93198222825E+02  0.93198222825E+02  0.00000000000E+00 0.  1.
         13   -1    0    0    0    0 -0.00000000000E+00 -0.00000000000E+00 -0.10000000000E+04  0.10000000000E+04  0.00000000000E+00 0.  1.
    9000005    2    1    2  501    0 -0.14476606219E-01  0.85767253116E-02 -0.90717916987E+03  0.10928204552E+04  0.60932955024E+03 0.  0.
         13    1    3    3    0    0 -0.26544757300E+03  0.34454841826E+02 -0.71458164615E+03  0.76307042869E+03  0.00000000000E+00 0.  1.
          1    1    3    3  501    0  0.26543309639E+03 -0.34446265101E+02 -0.19259752372E+03  0.32975002651E+03  0.00000000000E+00 0.  1.
         21    1    1    2  502  501  0.14476606219E-01 -0.85767253116E-02  0.37739269019E+00  0.37776762031E+00  0.00000000000E+00 0. -1.
<mgrwt>
<rscale>  1 0.60932955E+03</rscale>
<asrwt>0</asrwt>
<pdfrwt beam="1">  1        1 0.33890334E+00 0.60932955E+03</pdfrwt>
<pdfrwt beam="2">0</pdfrwt>
<totfact> 0.25006346E+00</totfact>
</mgrwt>
</event>
<event>
 6    1  0.2838103E-003  0.6540237E+03  0.7818608E-02  0.9799258E-01
          1   -1    0    0  502    0  0.00000000000E+00  0.00000000000E+00  0.10693784717E+03  0.10693784717E+03  0.00000000000E+00 0.  1.
         13   -1    0    0    0    0 -0.00000000000E+00 -0.00000000000E+00 -0.10000000000E+04  0.10000000000E+04  0.00000000000E+00 0.  1.
    9000005    2    1    2  501    0 -0.20707725980E-04  0.55859332633E-04 -0.89306325280E+03  0.11069367456E+04  0.65402368858E+03 0.  0.
         13    1    3    3    0    0  0.23492496236E+03  0.18115170697E+03 -0.21365981746E+03  0.36559020292E+03  0.00000000000E+00 0.  1.
          3    1    3    3  501    0 -0.23492498307E+03 -0.18115165111E+03 -0.67940343534E+03  0.74134654267E+03  0.00000000000E+00 0.  1.
         21    1    1    2  502  501  0.20707725962E-04 -0.55859332637E-04  0.10999696999E-02  0.11015817789E-02  0.00000000000E+00 0.  1.
<mgrwt>
<rscale>  1 0.65402369E+03</rscale>
<asrwt>0</asrwt>
<pdfrwt beam="1">  1        1 0.38886572E+00 0.65402369E+03</pdfrwt>
<pdfrwt beam="2">0</pdfrwt>
<totfact> 0.14982112E+00</totfact>
</mgrwt>
</event>
<event>
 6    1  0.2838103E-003  0.4950529E+03  0.7818608E-02  0.1015078E+00
          1   -1    0    0  502    0  0.00000000000E+00  0.00000000000E+00  0.66975762246E+02  0.66975762246E+02  0.00000000000E+00 0.  1.
         13   -1    0    0    0    0 -0.00000000000E+00 -0.00000000000E+00 -0.10000000000E+04  0.10000000000E+04  0.00000000000E+00 0.  1.
    9000005    2    1    2  501    0  0.30835110246E-02 -0.49545407517E+00 -0.93871923312E+03  0.10612592549E+04  0.49505268605E+03 0.  0.
         13    1    3    3    0    0  0.71201123593E+02  0.80207947574E+02  0.88331884546E+01  0.10761477628E+03  0.00000000000E+00 0.  1.
          1    1    3    3  501    0 -0.71198040082E+02 -0.80703401649E+02 -0.94755242157E+03  0.95364447861E+03  0.00000000000E+00 0.  1.
         21    1    1    2  502  501 -0.30835110246E-02  0.49545407517E+00  0.56949953624E+01  0.57165073626E+01  0.00000000000E+00 0.  1.
<mgrwt>
<rscale>  1 0.49505293E+03</rscale>
<asrwt>0</asrwt>
<pdfrwt beam="1">  1        1 0.24354874E+00 0.49505293E+03</pdfrwt>
<pdfrwt beam="2">0</pdfrwt>
<totfact> 0.65941459E+00</totfact>
</mgrwt>
</event>
<event>
 6    1  0.2838103E-003  0.6359835E+03  0.7818608E-02  0.9833442E-01
          1   -1    0    0  502    0  0.00000000000E+00  0.00000000000E+00  0.10121688397E+03  0.10121688397E+03  0.00000000000E+00 0.  1.
         13   -1    0    0    0    0 -0.00000000000E+00 -0.00000000000E+00 -0.10000000000E+04  0.10000000000E+04  0.00000000000E+00 0.  1.
    9000005    2    1    2  501    0  0.12286264789E-01  0.11151985545E-01 -0.89888047506E+03  0.11011181211E+04  0.63598349659E+03 0.  0.
         13    1    3    3    0    0 -0.13916350074E+03 -0.30330193797E+02 -0.94167372013E+03  0.95238426897E+03  0.00000000000E+00 0.  1.
          3    1    3    3  501    0  0.13917578700E+03  0.30341345783E+02  0.42793245068E+02  0.14873385215E+03  0.00000000000E+00 0.  1.
         21    1    1    2  502  501 -0.12286264789E-01 -0.11151985544E-01  0.97359031738E-01  0.98762848000E-01  0.00000000000E+00 0. -1.
<mgrwt>
<rscale>  1 0.63598350E+03</rscale>
<asrwt>0</asrwt>
<pdfrwt beam="1">  1        1 0.36806217E+00 0.63598350E+03</pdfrwt>
<pdfrwt beam="2">0</pdfrwt>
<totfact> 0.18566978E+00</totfact>
</mgrwt>
</event>
<event>
 6    1  0.2838103E-003  0.6485108E+03  0.7818608E-02  0.9809578E-01
          1   -1    0    0  502    0  0.00000000000E+00  0.00000000000E+00  0.10528022938E+03  0.10528022938E+03  0.00000000000E+00 0.  1.
         13   -1    0    0    0    0 -0.00000000000E+00 -0.00000000000E+00 -0.10000000000E+04  0.10000000000E+04  0.00000000000E+00 0.  1.
    9000005    2    1    2  501    0 -0.68919171627E-02 -0.28654019368E-01 -0.89485669766E+03  0.11051401667E+04  0.64851081544E+03 0.  0.
         13    1    3    3    0    0  0.85655448120E+02 -0.86500288497E+02 -0.95958857974E+03  0.96727937953E+03  0.00000000000E+00 0.  1.
          1    1    3    3  501    0 -0.85662340037E+02  0.86471634478E+02  0.64731882076E+02  0.13786078713E+03  0.00000000000E+00 0.  1.
         21    1    1    2  502  501  0.68919171627E-02  0.28654019368E-01  0.13692704267E+00  0.14006272296E+00  0.00000000000E+00 0. -1.
<mgrwt>
<rscale>  1 0.64851082E+03</rscale>
<asrwt>0</asrwt>
<pdfrwt beam="1">  1        1 0.38283801E+00 0.64851082E+03</pdfrwt>
<pdfrwt beam="2">0</pdfrwt>
<totfact> 0.15947377E+00</totfact>
</mgrwt>
</event>
<event>
 6    1  0.2838103E-003  0.6300170E+03  0.7818608E-02  0.9845016E-01
          1   -1    0    0  502    0  0.00000000000E+00  0.00000000000E+00  0.99272871078E+02  0.99272871078E+02  0.00000000000E+00 0.  1.
         13   -1    0    0    0    0 -0.00000000000E+00 -0.00000000000E+00 -0.10000000000E+04  0.10000000000E+04  0.00000000000E+00 0.  1.
    9000005    2    1    2  501    0  0.82305668958E-02  0.63577214404E-02 -0.90076893016E+03  0.10992297955E+04  0.63001704552E+03 0.  0.
         13    1    3    3    0    0 -0.13777765195E+03 -0.25192670571E+03 -0.67637637774E+03  0.73480252503E+03  0.00000000000E+00 0.  1.
          3    1    3    3  501    0  0.13778588252E+03  0.25193306343E+03 -0.22439255242E+03  0.36442727046E+03  0.00000000000E+00 0.  1.
         21    1    1    2  502  501 -0.82305668958E-02 -0.63577214404E-02  0.41801235412E-01  0.43075586303E-01  0.00000000000E+00 0.  1.
<mgrwt>
<rscale>  1 0.63001705E+03</rscale>
<asrwt>0</asrwt>
<pdfrwt beam="1">  1        1 0.36099302E+00 0.63001705E+03</pdfrwt>
<pdfrwt beam="2">0</pdfrwt>
<totfact> 0.19961105E+00</totfact>
</mgrwt>
</event>
<event>
 6    1  0.2838103E-003  0.6501132E+03  0.7818608E-02  0.9806567E-01
          1   -1    0    0  502    0  0.00000000000E+00  0.00000000000E+00  0.10793533198E+03  0.10793533198E+03  0.00000000000E+00 0.  1.
         13   -1    0    0    0    0 -0.00000000000E+00 -0.00000000000E+00 -0.10000000000E+04  0.10000000000E+04  0.00000000000E+00 0.  1.
    9000005    2    1    2  501    0 -0.69805255952E+00  0.16495983474E+01 -0.89394149280E+03  0.11053409297E+04  0.65011073656E+03 0.  0.
         13    1    3    3    0    0 -0.57755412270E+02 -0.26512141037E+03 -0.74855081869E+03  0.79621189268E+03  0.00000000000E+00 0.  1.
          3    1    3    3  501    0  0.57057359711E+02  0.26677100872E+03 -0.14539067412E+03  0.30912903699E+03  0.00000000000E+00 0.  1.
         21    1    1    2  502  501  0.69805255952E+00 -0.16495983474E+01  0.18768247857E+01  0.25944023126E+01  0.00000000000E+00 0. -1.
<mgrwt>
<rscale>  1 0.65011320E+03</rscale>
<asrwt>0</asrwt>
<pdfrwt beam="1">  1        1 0.39249294E+00 0.65011320E+03</pdfrwt>
<pdfrwt beam="2">0</pdfrwt>
<totfact> 0.14447729E+00</totfact>
</mgrwt>
</event>
<event>
 6    1  0.2838103E-003  0.5968980E+03  0.7818608E-02  0.9911863E-01
          3   -1    0    0  502    0  0.00000000000E+00  0.00000000000E+00  0.89109623849E+02  0.89109623849E+02  0.00000000000E+00 0.  1.
         13   -1    0    0    0    0 -0.00000000000E+00 -0.00000000000E+00 -0.10000000000E+04  0.10000000000E+04  0.00000000000E+00 0.  1.
    9000005    2    1    2  501    0 -0.71941675157E-02  0.47147080807E-03 -0.91092783363E+03  0.10890714789E+04  0.59689795437E+03 0.  0.
         13    1    3    3    0    0 -0.70537730016E+02 -0.22438160162E+03 -0.12027568823E+03  0.26417591806E+03  0.00000000000E+00 0.  1.
          3    1    3    3  501    0  0.70530535848E+02  0.22438207309E+03 -0.79065214539E+03  0.82489556080E+03  0.00000000000E+00 0.  1.
         21    1    1    2  502  501  0.71941675157E-02 -0.47147080807E-03  0.37457474851E-01  0.38144996437E-01  0.00000000000E+00 0. -1.
<mgrwt>
<rscale>  1 0.59689795E+03</rscale>
<asrwt>0</asrwt>
<pdfrwt beam="1">  1        3 0.32403568E+00 0.59689795E+03</pdfrwt>
<pdfrwt beam="2">0</pdfrwt>
<totfact> 0.15113609E-01</totfact>
</mgrwt>
</event>
<event>
 6    1  0.2838103E-003  0.6407971E+03  0.7818608E-02  0.9824203E-01
          1   -1    0    0  502    0  0.00000000000E+00  0.00000000000E+00  0.11962575119E+03  0.11962575119E+03  0.00000000000E+00 0.  1.
         13   -1    0    0    0    0 -0.00000000000E+00 -0.00000000000E+00 -0.10000000000E+04  0.10000000000E+04  0.00000000000E+00 0.  1.
    9000005    2    1    2  501    0  0.82280732988E+00 -0.62489845889E+00 -0.89732743891E+03  0.11026411062E+04  0.64079623050E+03 0.  0.
         13    1    3    3    0    0  0.15098436865E+03  0.27751988177E+03 -0.53947652132E+03  0.62517875956E+03  0.00000000000E+00 0.  1.
          1    1    3    3  501    0 -0.15016156132E+03 -0.27814478023E+03 -0.35785091759E+03  0.47746234667E+03  0.00000000000E+00 0.  1.
         21    1    1    2  502  501 -0.82280732988E+00  0.62489845889E+00  0.16953190095E+02  0.16984644959E+02  0.00000000000E+00 0. -1.
<mgrwt>
<rscale>  1 0.64079706E+03</rscale>
<asrwt>0</asrwt>
<pdfrwt beam="1">  1        1 0.43500365E+00 0.64079706E+03</pdfrwt>
<pdfrwt beam="2">0</pdfrwt>
<totfact> 0.93234194E-01</totfact>
</mgrwt>
</event>
<event>
 6    1  0.2838103E-003  0.6143356E+03  0.7818608E-02  0.9876103E-01
          1   -1    0    0  502    0  0.00000000000E+00  0.00000000000E+00  0.94479008222E+02  0.94479008222E+02  0.00000000000E+00 0.  1.
         13   -1    0    0    0    0 -0.00000000000E+00 -0.00000000000E+00 -0.10000000000E+04  0.10000000000E+04  0.00000000000E+00 0.  1.
    9000005    2    1    2  501    0 -0.50508471467E-02  0.59084591265E-02 -0.90564780444E+03  0.10943519576E+04  0.61433562590E+03 0.  0.
         13    1    3    3    0    0 -0.21358594382E+03  0.67556408495E+02 -0.78442349847E+02  0.23735211391E+03  0.00000000000E+00 0.  1.
          1    1    3    3  501    0  0.21358089297E+03 -0.67550500036E+02 -0.82720545459E+03  0.85699984365E+03  0.00000000000E+00 0.  1.
         21    1    1    2  502  501  0.50508471468E-02 -0.59084591265E-02  0.12681266389E+00  0.12705066970E+00  0.00000000000E+00 0. -1.
<mgrwt>
<rscale>  1 0.61433563E+03</rscale>
<asrwt>0</asrwt>
<pdfrwt beam="1">  1        1 0.34356075E+00 0.61433563E+03</pdfrwt>
<pdfrwt beam="2">0</pdfrwt>
<totfact> 0.23846711E+00</totfact>
</mgrwt>
</event>
<event>
 6    1  0.2838103E-003  0.6422517E+03  0.7818608E-02  0.9821428E-01
          1   -1    0    0  502    0  0.00000000000E+00  0.00000000000E+00  0.10312986812E+03  0.10312986812E+03  0.00000000000E+00 0.  1.
         13   -1    0    0    0    0 -0.00000000000E+00 -0.00000000000E+00 -0.10000000000E+04  0.10000000000E+04  0.00000000000E+00 0.  1.
    9000005    2    1    2  501    0 -0.95123048732E-02 -0.14960927443E-02 -0.89687488397E+03  0.11031191301E+04  0.64225170895E+03 0.  0.
         13    1    3    3    0    0 -0.29813529117E+03 -0.21649517295E+02 -0.65000401717E+03  0.71544292280E+03  0.00000000000E+00 0.  1.
          1    1    3    3  501    0  0.29812577887E+03  0.21648021203E+02 -0.24687086680E+03  0.38767620732E+03  0.00000000000E+00 0.  1.
         21    1    1    2  502  501  0.95123048732E-02  0.14960927443E-02  0.47520868079E-02  0.10737996393E-01  0.00000000000E+00 0. -1.
<mgrwt>
<rscale>  1 0.64225171E+03</rscale>
<asrwt>0</asrwt>
<pdfrwt beam="1">  1        1 0.37501849E+00 0.64225171E+03</pdfrwt>
<pdfrwt beam="2">0</pdfrwt>
<totfact> 0.17285120E+00</totfact>
</mgrwt>
</event>
<event>
 6    1  0.2838103E-003  0.6390106E+03  0.7818608E-02  0.9827621E-01
          3   -1    0    0  502    0  0.00000000000E+00  0.00000000000E+00  0.10209311875E+03  0.10209311875E+03  0.00000000000E+00 0.  1.
         13   -1    0    0    0    0 -0.00000000000E+00 -0.00000000000E+00 -0.10000000000E+04  0.10000000000E+04  0.00000000000E+00 0.  1.
    9000005    2    1    2  501    0 -0.17044151574E-03 -0.62446606535E-04 -0.89791637148E+03  0.11020836268E+04  0.63901057132E+03 0.  0.
         13    1    3    3    0    0 -0.41155666086E+02 -0.31606509559E+03 -0.48724133268E+03  0.58223281407E+03  0.00000000000E+00 0.  1.
          3    1    3    3  501    0  0.41155495645E+02  0.31606503314E+03 -0.41067503879E+03  0.51985081272E+03  0.00000000000E+00 0.  1.
         21    1    1    2  502  501  0.17044151575E-03  0.62446606576E-04  0.94902256545E-02  0.94919614865E-02  0.00000000000E+00 0.  1.
<mgrwt>
<rscale>  1 0.63901057E+03</rscale>
<asrwt>0</asrwt>
<pdfrwt beam="1">  1        3 0.37124849E+00 0.63901057E+03</pdfrwt>
<pdfrwt beam="2">0</pdfrwt>
<totfact> 0.84120019E-02</totfact>
</mgrwt>
</event>
<event>
 6    1  0.2838103E-003  0.6328489E+03  0.7818608E-02  0.9839505E-01
          1   -1    0    0  502    0  0.00000000000E+00  0.00000000000E+00  0.10050785214E+03  0.10050785214E+03  0.00000000000E+00 0.  1.
         13   -1    0    0    0    0 -0.00000000000E+00 -0.00000000000E+00 -0.10000000000E+04  0.10000000000E+04  0.00000000000E+00 0.  1.
    9000005    2    1    2  501    0  0.80897000761E+00  0.14480787264E-01 -0.89933708230E+03  0.10996840272E+04  0.63284841588E+03 0.  0.
         13    1    3    3    0    0  0.33946305333E+02 -0.22430326319E+03 -0.83313011948E+03  0.86346401286E+03  0.00000000000E+00 0.  1.
          1    1    3    3  501    0 -0.33137335325E+02  0.22431774398E+03 -0.66206962817E+02  0.23622001436E+03  0.00000000000E+00 0.  1.
         21    1    1    2  502  501 -0.80897000761E+00 -0.14480787264E-01 -0.15506556376E+00  0.82382491798E+00  0.00000000000E+00 0. -1.
<mgrwt>
<rscale>  1 0.63284893E+03</rscale>
<asrwt>0</asrwt>
<pdfrwt beam="1">  1        1 0.36548387E+00 0.63284893E+03</pdfrwt>
<pdfrwt beam="2">0</pdfrwt>
<totfact> 0.19067598E+00</totfact>
</mgrwt>
</event>
<event>
 6    1  0.2838103E-003  0.6473169E+03  0.7818608E-02  0.9811827E-01
          1   -1    0    0  502    0  0.00000000000E+00  0.00000000000E+00  0.10477380649E+03  0.10477380649E+03  0.00000000000E+00 0.  1.
         13   -1    0    0    0    0 -0.00000000000E+00 -0.00000000000E+00 -0.10000000000E+04  0.10000000000E+04  0.00000000000E+00 0.  1.
    9000005    2    1    2  501    0  0.41125895702E-01 -0.13992880312E-01 -0.89521239546E+03  0.11047282266E+04  0.64731693920E+03 0.  0.
         13    1    3    3    0    0  0.59996259970E+02 -0.24812380315E+03 -0.10802263959E+03  0.27718921978E+03  0.00000000000E+00 0.  1.
          3    1    3    3  501    0 -0.59955134074E+02  0.24810981027E+03 -0.78718975588E+03  0.82753900682E+03  0.00000000000E+00 0.  1.
         21    1    1    2  502  501 -0.41125895702E-01  0.13992880312E-01 -0.13798045944E-01  0.45579886667E-01  0.00000000000E+00 0.  1.
<mgrwt>
<rscale>  1 0.64731694E+03</rscale>
<asrwt>0</asrwt>
<pdfrwt beam="1">  1        1 0.38099646E+00 0.64731694E+03</pdfrwt>
<pdfrwt beam="2">0</pdfrwt>
<totfact> 0.16252407E+00</totfact>
</mgrwt>
</event>
<event>
 6    1  0.2838103E-003  0.6496251E+03  0.7818608E-02  0.9807483E-01
          1   -1    0    0  502    0  0.00000000000E+00  0.00000000000E+00  0.11185856932E+03  0.11185856932E+03  0.00000000000E+00 0.  1.
         13   -1    0    0    0    0 -0.00000000000E+00 -0.00000000000E+00 -0.10000000000E+04  0.10000000000E+04  0.00000000000E+00 0.  1.
    9000005    2    1    2  501    0  0.17815061744E+00 -0.10285759846E+00 -0.89449496532E+03  0.11055017053E+04  0.64962507279E+03 0.  0.
         13    1    3    3    0    0  0.25471326028E+03  0.15541258932E+03 -0.22871125861E+03  0.37595313231E+03  0.00000000000E+00 0.  1.
          1    1    3    3  501    0 -0.25453510966E+03 -0.15551544692E+03 -0.66578370671E+03  0.72954857303E+03  0.00000000000E+00 0.  1.
         21    1    1    2  502  501 -0.17815061744E+00  0.10285759846E+00  0.63535346412E+01  0.63568639882E+01  0.00000000000E+00 0. -1.
<mgrwt>
<rscale>  1 0.64962511E+03</rscale>
<asrwt>0</asrwt>
<pdfrwt beam="1">  1        1 0.40675929E+00 0.64962511E+03</pdfrwt>
<pdfrwt beam="2">0</pdfrwt>
<totfact> 0.12481359E+00</totfact>
</mgrwt>
</event>
<event>
 6    1  0.2838103E-003  0.6396016E+03  0.7818608E-02  0.9826489E-01
          1   -1    0    0  502    0  0.00000000000E+00  0.00000000000E+00  0.10227356171E+03  0.10227356171E+03  0.00000000000E+00 0.  1.
         13   -1    0    0    0    0 -0.00000000000E+00 -0.00000000000E+00 -0.10000000000E+04  0.10000000000E+04  0.00000000000E+00 0.  1.
    9000005    2    1    2  501    0 -0.13239613061E-04 -0.48324071599E-04 -0.89772743164E+03  0.11022725671E+04  0.63960164999E+03 0.  0.
         13    1    3    3    0    0 -0.38821448634E+02 -0.14897977991E+03 -0.93193273464E+03  0.94456376258E+03  0.00000000000E+00 0.  1.
          1    1    3    3  501    0  0.38821435394E+02  0.14897973159E+03  0.34205303001E+02  0.15770880452E+03  0.00000000000E+00 0.  1.
         21    1    1    2  502  501  0.13239613067E-04  0.48324071593E-04  0.99334213032E-03  0.99460499251E-03  0.00000000000E+00 0.  1.
<mgrwt>
<rscale>  1 0.63960165E+03</rscale>
<asrwt>0</asrwt>
<pdfrwt beam="1">  1        1 0.37190464E+00 0.63960165E+03</pdfrwt>
<pdfrwt beam="2">0</pdfrwt>
<totfact> 0.17847591E+00</totfact>
</mgrwt>
</event>
<event>
 6    1  0.2838103E-003  0.6695134E+03  0.7818608E-02  0.9770837E-01
          1   -1    0    0  502    0  0.00000000000E+00  0.00000000000E+00  0.11206924032E+03  0.11206924032E+03  0.00000000000E+00 0.  1.
         13   -1    0    0    0    0 -0.00000000000E+00 -0.00000000000E+00 -0.10000000000E+04  0.10000000000E+04  0.00000000000E+00 0.  1.
    9000005    2    1    2  501    0  0.30237969935E-02 -0.12723131896E-02 -0.88793753170E+03  0.11120617155E+04  0.66951340460E+03 0.  0.
         13    1    3    3    0    0  0.22338354868E+03  0.19188517778E+02 -0.85686901896E+03  0.88571605195E+03  0.00000000000E+00 0.  1.
          3    1    3    3  501    0 -0.22338052488E+03 -0.19189790091E+02 -0.31068512745E+02  0.22634566358E+03  0.00000000000E+00 0.  1.
         21    1    1    2  502  501 -0.30237969935E-02  0.12723131896E-02  0.67720193553E-02  0.75247840672E-02  0.00000000000E+00 0. -1.
<mgrwt>
<rscale>  1 0.66951340E+03</rscale>
<asrwt>0</asrwt>
<pdfrwt beam="1">  1        1 0.40752537E+00 0.66951340E+03</pdfrwt>
<pdfrwt beam="2">0</pdfrwt>
<totfact> 0.12336357E+00</totfact>
</mgrwt>
</event>
<event>
 6    1  0.2838103E-003  0.6565742E+03  0.7818608E-02  0.9794521E-01
          1   -1    0    0  502    0  0.00000000000E+00  0.00000000000E+00  0.10777257959E+03  0.10777257959E+03  0.00000000000E+00 0.  1.
         13   -1    0    0    0    0 -0.00000000000E+00 -0.00000000000E+00 -0.10000000000E+04  0.10000000000E+04  0.00000000000E+00 0.  1.
    9000005    2    1    2  501    0 -0.12171756848E-03  0.15077123578E-04 -0.89222757212E+03  0.11077723845E+04  0.65657415072E+03 0.  0.
         13    1    3    3    0    0  0.21956293466E+03 -0.18785517552E+03 -0.18324089365E+03  0.34216176635E+03  0.00000000000E+00 0.  1.
          3    1    3    3  501    0 -0.21956305638E+03  0.18785519060E+03 -0.70898667848E+03  0.76561061815E+03  0.00000000000E+00 0.  1.
         21    1    1    2  502  501  0.12171756848E-03 -0.15077123585E-04  0.15171040201E-03  0.19508596108E-03  0.00000000000E+00 0.  1.
<mgrwt>
<rscale>  1 0.65657415E+03</rscale>
<asrwt>0</asrwt>
<pdfrwt beam="1">  1        1 0.39190112E+00 0.65657415E+03</pdfrwt>
<pdfrwt beam="2">0</pdfrwt>
<totfact> 0.14517889E+00</totfact>
</mgrwt>
</event>
<event>
 6    1  0.2838103E-003  0.6485979E+03  0.7818608E-02  0.9809414E-01
          1   -1    0    0  502    0  0.00000000000E+00  0.00000000000E+00  0.10688102391E+03  0.10688102391E+03  0.00000000000E+00 0.  1.
         13   -1    0    0    0    0 -0.00000000000E+00 -0.00000000000E+00 -0.10000000000E+04  0.10000000000E+04  0.00000000000E+00 0.  1.
    9000005    2    1    2  501    0  0.37560586315E-01  0.93900831795E-02 -0.89482994955E+03  0.11051696125E+04  0.64859789717E+03 0.  0.
         13    1    3    3    0    0  0.48646673051E+02  0.26144949517E+03 -0.76369485357E+03  0.80867309012E+03  0.00000000000E+00 0.  1.
          1    1    3    3  501    0 -0.48609112464E+02 -0.26144010509E+03 -0.13113509598E+03  0.29649652234E+03  0.00000000000E+00 0.  1.
         21    1    1    2  502  501 -0.37560586315E-01 -0.93900831795E-02  0.17109734599E+01  0.17114114502E+01  0.00000000000E+00 0.  1.
<mgrwt>
<rscale>  1 0.64859790E+03</rscale>
<asrwt>0</asrwt>
<pdfrwt beam="1">  1        1 0.38865909E+00 0.64859790E+03</pdfrwt>
<pdfrwt beam="2">0</pdfrwt>
<totfact> 0.15028879E+00</totfact>
</mgrwt>
</event>
<event>
 6    1  0.2838103E-003  0.6372989E+03  0.7818608E-02  0.9830908E-01
          1   -1    0    0  502    0  0.00000000000E+00  0.00000000000E+00  0.10160079491E+03  0.10160079491E+03  0.00000000000E+00 0.  1.
         13   -1    0    0    0    0 -0.00000000000E+00 -0.00000000000E+00 -0.10000000000E+04  0.10000000000E+04  0.00000000000E+00 0.  1.
    9000005    2    1    2  501    0 -0.33207151806E-02 -0.59680897557E-02 -0.89846233138E+03  0.11015373002E+04  0.63729888032E+03 0.  0.
         13    1    3    3    0    0 -0.22367883699E+03 -0.22581349308E+03 -0.40998822931E+03  0.51876228077E+03  0.00000000000E+00 0.  1.
          1    1    3    3  501    0  0.22367551628E+03  0.22580752499E+03 -0.48847410207E+03  0.58277501946E+03  0.00000000000E+00 0.  1.
         21    1    1    2  502  501  0.33207151806E-02  0.59680897557E-02  0.63126291961E-01  0.63494676795E-01  0.00000000000E+00 0.  1.
<mgrwt>
<rscale>  1 0.63729888E+03</rscale>
<asrwt>0</asrwt>
<pdfrwt beam="1">  1        1 0.36945822E+00 0.63729888E+03</pdfrwt>
<pdfrwt beam="2">0</pdfrwt>
<totfact> 0.18302460E+00</totfact>
</mgrwt>
</event>
<event>
 6    1  0.2838103E-003  0.6526435E+03  0.7818608E-02  0.9801831E-01
          1   -1    0    0  502    0  0.00000000000E+00  0.00000000000E+00  0.10648597036E+03  0.10648597036E+03  0.00000000000E+00 0.  1.
         13   -1    0    0    0    0 -0.00000000000E+00 -0.00000000000E+00 -0.10000000000E+04  0.10000000000E+04  0.00000000000E+00 0.  1.
    9000005    2    1    2  501    0  0.32810607706E-05 -0.54755889323E-04 -0.89351409744E+03  0.11064858832E+04  0.65264352237E+03 0.  0.
         13    1    3    3    0    0  0.16989348154E+03  0.26324959546E+03 -0.29209746890E+03  0.42835157980E+03  0.00000000000E+00 0.  1.
          3    1    3    3  501    0 -0.16989347826E+03 -0.26324965022E+03 -0.60141662854E+03  0.67813430335E+03  0.00000000000E+00 0.  1.
         21    1    1    2  502  501 -0.32810607700E-05  0.54755889339E-04  0.67794465139E-04  0.87207008208E-04  0.00000000000E+00 0.  1.
<mgrwt>
<rscale>  1 0.65264352E+03</rscale>
<asrwt>0</asrwt>
<pdfrwt beam="1">  1        1 0.38722253E+00 0.65264352E+03</pdfrwt>
<pdfrwt beam="2">0</pdfrwt>
<totfact> 0.15239254E+00</totfact>
</mgrwt>
</event>
<event>
 6    1  0.2838103E-003  0.6453054E+03  0.7818608E-02  0.9815628E-01
          1   -1    0    0  502    0  0.00000000000E+00  0.00000000000E+00  0.10410580150E+03  0.10410580150E+03  0.00000000000E+00 0.  1.
         13   -1    0    0    0    0 -0.00000000000E+00 -0.00000000000E+00 -0.10000000000E+04  0.10000000000E+04  0.00000000000E+00 0.  1.
    9000005    2    1    2  501    0  0.10138907757E-02 -0.30004415442E-02 -0.89588888461E+03  0.11040996154E+04  0.64530540608E+03 0.  0.
         13    1    3    3    0    0  0.13652141899E+03  0.23183369869E+03 -0.14322083268E+03  0.30479036830E+03  0.00000000000E+00 0.  1.
          3    1    3    3  501    0 -0.13652040510E+03 -0.23183669914E+03 -0.75266805194E+03  0.79930924709E+03  0.00000000000E+00 0.  1.
         21    1    1    2  502  501 -0.10138907758E-02  0.30004415442E-02 -0.53138853656E-02  0.61861136139E-02  0.00000000000E+00 0.  1.
<mgrwt>
<rscale>  1 0.64530541E+03</rscale>
<asrwt>0</asrwt>
<pdfrwt beam="1">  1        1 0.37856735E+00 0.64530541E+03</pdfrwt>
<pdfrwt beam="2">0</pdfrwt>
<totfact> 0.16664602E+00</totfact>
</mgrwt>
</event>
<event>
 6    1  0.3624855E-003  0.6450929E+03  0.7818608E-02  0.9816031E-01
          1   -1    0    0  502    0  0.00000000000E+00  0.00000000000E+00  0.10403624457E+03  0.10403624457E+03  0.00000000000E+00 0.  1.
         13   -1    0    0    0    0 -0.00000000000E+00 -0.00000000000E+00 -0.10000000000E+04  0.10000000000E+04  0.00000000000E+00 0.  1.
    9000005    2    1    2  501    0 -0.88127789979E-04  0.97909201600E-05 -0.89596373314E+03  0.11040361531E+04  0.64509287419E+03 0.  0.
         13    1    3    3    0    0 -0.14195768058E+03  0.27535996905E+03 -0.60164119638E+03  0.67671798027E+03  0.00000000000E+00 0.  1.
          3    1    3    3  501    0  0.14195759245E+03 -0.27535995926E+03 -0.29432253676E+03  0.42731817287E+03  0.00000000000E+00 0.  1.
         21    1    1    2  502  501  0.88127789985E-04 -0.97909201406E-05 -0.22290296364E-04  0.91428807259E-04  0.00000000000E+00 0. -1.
<mgrwt>
<rscale>  1 0.64509287E+03</rscale>
<asrwt>0</asrwt>
<pdfrwt beam="1">  1        1 0.37831441E+00 0.64509287E+03</pdfrwt>
<pdfrwt beam="2">0</pdfrwt>
<totfact> 0.16708100E+00</totfact>
</mgrwt>
</event>
<event>
 6    1  0.2838103E-003  0.6465207E+03  0.7818608E-02  0.9813330E-01
          1   -1    0    0  502    0  0.00000000000E+00  0.00000000000E+00  0.13007614623E+03  0.13007614623E+03  0.00000000000E+00 0.  1.
         13   -1    0    0    0    0 -0.00000000000E+00 -0.00000000000E+00 -0.10000000000E+04  0.10000000000E+04  0.00000000000E+00 0.  1.
    9000005    2    1    2  501    0 -0.68685319756E+01 -0.11775205184E+02 -0.89348118442E+03  0.11028588720E+04  0.64637700489E+03 0.  0.
         13    1    3    3    0    0  0.19668697084E+03 -0.75257173802E+02 -0.86196453528E+03  0.88731745548E+03  0.00000000000E+00 0.  1.
          1    1    3    3  501    0 -0.20355550281E+03  0.63481968617E+02 -0.31516649140E+02  0.21554141653E+03  0.00000000000E+00 0.  1.
         21    1    1    2  502  501  0.68685319756E+01  0.11775205184E+02  0.23557330654E+02  0.27217274224E+02  0.00000000000E+00 0.  1.
<mgrwt>
<rscale>  1 0.64652074E+03</rscale>
<asrwt>0</asrwt>
<pdfrwt beam="1">  1        1 0.47300517E+00 0.64652074E+03</pdfrwt>
<pdfrwt beam="2">0</pdfrwt>
<totfact> 0.62158961E-01</totfact>
</mgrwt>
</event>
<event>
 6    1  0.2838103E-003  0.6543312E+03  0.7818608E-02  0.9798686E-01
          1   -1    0    0  502    0  0.00000000000E+00  0.00000000000E+00  0.10703733921E+03  0.10703733921E+03  0.00000000000E+00 0.  1.
         13   -1    0    0    0    0 -0.00000000000E+00 -0.00000000000E+00 -0.10000000000E+04  0.10000000000E+04  0.00000000000E+00 0.  1.
    9000005    2    1    2  501    0  0.40670989225E-05 -0.11962572103E-04 -0.89296268212E+03  0.11070373144E+04  0.65433115764E+03 0.  0.
         13    1    3    3    0    0 -0.12530421475E+02  0.28272098715E+03 -0.72422051481E+03  0.77754969109E+03  0.00000000000E+00 0.  1.
          3    1    3    3  501    0  0.12530425542E+02 -0.28272099911E+03 -0.16874216731E+03  0.32948762333E+03  0.00000000000E+00 0.  1.
         21    1    1    2  502  501 -0.40670989222E-05  0.11962572083E-04  0.21328598666E-04  0.24790190510E-04  0.00000000000E+00 0.  1.
<mgrwt>
<rscale>  1 0.65433116E+03</rscale>
<asrwt>0</asrwt>
<pdfrwt beam="1">  1        1 0.38922751E+00 0.65433116E+03</pdfrwt>
<pdfrwt beam="2">0</pdfrwt>
<totfact> 0.14926042E+00</totfact>
</mgrwt>
</event>
<event>
 6    1  0.2838103E-003  0.6170520E+03  0.7818608E-02  0.9870647E-01
          1   -1    0    0  502    0  0.00000000000E+00  0.00000000000E+00  0.99756066536E+02  0.99756066536E+02  0.00000000000E+00 0.  1.
         13   -1    0    0    0    0 -0.00000000000E+00 -0.00000000000E+00 -0.10000000000E+04  0.10000000000E+04  0.00000000000E+00 0.  1.
    9000005    2    1    2  501    0  0.87405394386E+00 -0.59321607736E+01 -0.90255947623E+03  0.10933282955E+04  0.61702285143E+03 0.  0.
         13    1    3    3    0    0  0.27041416093E+03  0.34239183379E+02 -0.19511599442E+03  0.33521096549E+03  0.00000000000E+00 0.  1.
          1    1    3    3  501    0 -0.26954010698E+03 -0.40171344153E+02 -0.70744348180E+03  0.75811733004E+03  0.00000000000E+00 0.  1.
         21    1    1    2  502  501 -0.87405394386E+00  0.59321607736E+01  0.23155427642E+01  0.64277710004E+01  0.00000000000E+00 0.  1.
<mgrwt>
<rscale>  1 0.61705199E+03</rscale>
<asrwt>0</asrwt>
<pdfrwt beam="1">  1        1 0.36275010E+00 0.61705199E+03</pdfrwt>
<pdfrwt beam="2">0</pdfrwt>
<totfact> 0.19657354E+00</totfact>
</mgrwt>
</event>
<event>
 6    1  0.2838103E-003  0.6457311E+03  0.7818608E-02  0.9814823E-01
          1   -1    0    0  502    0  0.00000000000E+00  0.00000000000E+00  0.10424222195E+03  0.10424222195E+03  0.00000000000E+00 0.  1.
         13   -1    0    0    0    0 -0.00000000000E+00 -0.00000000000E+00 -0.10000000000E+04  0.10000000000E+04  0.00000000000E+00 0.  1.
    9000005    2    1    2  501    0 -0.83178237276E-05 -0.60283624151E-04 -0.89575781845E+03  0.11042421489E+04  0.64573110047E+03 0.  0.
         13    1    3    3    0    0  0.22086603317E+03  0.41532134784E+02 -0.51470356184E+02  0.23055567743E+03  0.00000000000E+00 0.  1.
          3    1    3    3  501    0 -0.22086604149E+03 -0.41532195068E+02 -0.84428746226E+03  0.87368647148E+03  0.00000000000E+00 0.  1.
         21    1    1    2  502  501  0.83178237114E-05  0.60283624147E-04  0.40398581328E-04  0.73043459015E-04  0.00000000000E+00 0. -1.
<mgrwt>
<rscale>  1 0.64573110E+03</rscale>
<asrwt>0</asrwt>
<pdfrwt beam="1">  1        1 0.37906342E+00 0.64573110E+03</pdfrwt>
<pdfrwt beam="2">0</pdfrwt>
<totfact> 0.16579578E+00</totfact>
</mgrwt>
</event>
<event>
 6    1  0.2838103E-003  0.6478157E+03  0.7818608E-02  0.9810887E-01
          1   -1    0    0  502    0  0.00000000000E+00  0.00000000000E+00  0.10491632904E+03  0.10491632904E+03  0.00000000000E+00 0.  1.
         13   -1    0    0    0    0 -0.00000000000E+00 -0.00000000000E+00 -0.10000000000E+04  0.10000000000E+04  0.00000000000E+00 0.  1.
    9000005    2    1    2  501    0  0.36379206332E-04 -0.22367088533E-04 -0.89508370710E+03  0.11049162731E+04  0.64781565884E+03 0.  0.
         13    1    3    3    0    0 -0.30107054288E+02 -0.88899237376E+02  0.81213680771E+02  0.12411756954E+03  0.00000000000E+00 0.  1.
          1    1    3    3  501    0  0.30107090667E+02  0.88899215008E+02 -0.97629738787E+03  0.98079870356E+03  0.00000000000E+00 0.  1.
         21    1    1    2  502  501 -0.36379206333E-04  0.22367088532E-04  0.36136680266E-04  0.55942765068E-04  0.00000000000E+00 0.  1.
<mgrwt>
<rscale>  1 0.64781566E+03</rscale>
<asrwt>0</asrwt>
<pdfrwt beam="1">  1        1 0.38151473E+00 0.64781566E+03</pdfrwt>
<pdfrwt beam="2">0</pdfrwt>
<totfact> 0.16165522E+00</totfact>
</mgrwt>
</event>
<event>
 6    1  0.2838103E-003  0.6501256E+03  0.7818608E-02  0.9806543E-01
          1   -1    0    0  502    0  0.00000000000E+00  0.00000000000E+00  0.10566984872E+03  0.10566984872E+03  0.00000000000E+00 0.  1.
         13   -1    0    0    0    0 -0.00000000000E+00 -0.00000000000E+00 -0.10000000000E+04  0.10000000000E+04  0.00000000000E+00 0.  1.
    9000005    2    1    2  501    0 -0.11940802036E-02 -0.50448130334E-02 -0.89433223028E+03  0.11056642632E+04  0.65012562228E+03 0.  0.
         13    1    3    3    0    0 -0.20279550334E+01  0.30613948941E+03 -0.63298870735E+03  0.70313597775E+03  0.00000000000E+00 0.  1.
          1    1    3    3  501    0  0.20267609532E+01 -0.30614453422E+03 -0.26134352293E+03  0.40252828543E+03  0.00000000000E+00 0.  1.
         21    1    1    2  502  501  0.11940802036E-02  0.50448130333E-02  0.20789950960E-02  0.55855336972E-02  0.00000000000E+00 0. -1.
<mgrwt>
<rscale>  1 0.65012562E+03</rscale>
<asrwt>0</asrwt>
<pdfrwt beam="1">  1        1 0.38425481E+00 0.65012562E+03</pdfrwt>
<pdfrwt beam="2">0</pdfrwt>
<totfact> 0.15714397E+00</totfact>
</mgrwt>
</event>
<event>
 6    1  0.2838103E-003  0.6484584E+03  0.7818608E-02  0.9809676E-01
          1   -1    0    0  502    0  0.00000000000E+00  0.00000000000E+00  0.10512626439E+03  0.10512626439E+03  0.00000000000E+00 0.  1.
         13   -1    0    0    0    0 -0.00000000000E+00 -0.00000000000E+00 -0.10000000000E+04  0.10000000000E+04  0.00000000000E+00 0.  1.
    9000005    2    1    2  501    0 -0.12294304193E-02  0.31051133050E-04 -0.89487518068E+03  0.11051243668E+04  0.64845838509E+03 0.  0.
         13    1    3    3    0    0 -0.10269717283E+03 -0.11302388909E+03  0.39995462475E+02  0.15786306037E+03  0.00000000000E+00 0.  1.
          3    1    3    3  501    0  0.10269594340E+03  0.11302392014E+03 -0.93487064315E+03  0.94726130647E+03  0.00000000000E+00 0.  1.
         21    1    1    2  502  501  0.12294304193E-02 -0.31051133061E-04  0.14450721222E-02  0.18975502015E-02  0.00000000000E+00 0.  1.
<mgrwt>
<rscale>  1 0.64845839E+03</rscale>
<asrwt>0</asrwt>
<pdfrwt beam="1">  1        1 0.38227813E+00 0.64845839E+03</pdfrwt>
<pdfrwt beam="2">0</pdfrwt>
<totfact> 0.16038615E+00</totfact>
</mgrwt>
</event>
<event>
 6    1  0.2838103E-003  0.6524605E+03  0.7818608E-02  0.9802173E-01
          1   -1    0    0  502    0  0.00000000000E+00  0.00000000000E+00  0.12214867227E+03  0.12214867227E+03  0.00000000000E+00 0.  1.
         13   -1    0    0    0    0 -0.00000000000E+00 -0.00000000000E+00 -0.10000000000E+04  0.10000000000E+04  0.00000000000E+00 0.  1.
    9000005    2    1    2  501    0 -0.63849148346E+01 -0.17041534390E+01 -0.89280182791E+03  0.11058027635E+04  0.65242698953E+03 0.  0.
         13    1    3    3    0    0  0.23259981707E+03 -0.59255398749E+01 -0.82524242771E+03  0.85741638159E+03  0.00000000000E+00 0.  1.
          1    1    3    3  501    0 -0.23898473190E+03  0.42213864359E+01 -0.67559400200E+02  0.24838638195E+03  0.00000000000E+00 0.  1.
         21    1    1    2  502  501  0.63849148346E+01  0.17041534390E+01  0.14950500185E+02  0.16345908729E+02  0.00000000000E+00 0. -1.
<mgrwt>
<rscale>  1 0.65246046E+03</rscale>
<asrwt>0</asrwt>
<pdfrwt beam="1">  1        1 0.44417793E+00 0.65246046E+03</pdfrwt>
<pdfrwt beam="2">0</pdfrwt>
<totfact> 0.84452570E-01</totfact>
</mgrwt>
</event>
<event>
 6    1  0.2838103E-003  0.6651492E+03  0.7818608E-02  0.9778761E-01
          1   -1    0    0  502    0  0.00000000000E+00  0.00000000000E+00  0.11225007576E+03  0.11225007576E+03  0.00000000000E+00 0.  1.
         13   -1    0    0    0    0 -0.00000000000E+00 -0.00000000000E+00 -0.10000000000E+04  0.10000000000E+04  0.00000000000E+00 0.  1.
    9000005    2    1    2  501    0  0.23311199242E-02  0.60424685114E-01 -0.88939353297E+03  0.11106053550E+04  0.66514915208E+03 0.  0.
         13    1    3    3    0    0 -0.21681903337E+02 -0.27971717582E+03 -0.74277510501E+03  0.79399411837E+03  0.00000000000E+00 0.  1.
          1    1    3    3  501    0  0.21684234457E+02  0.27977760051E+03 -0.14661842796E+03  0.31661123667E+03  0.00000000000E+00 0.  1.
         21    1    1    2  502  501 -0.23311199242E-02 -0.60424685114E-01  0.16436087282E+01  0.16447207143E+01  0.00000000000E+00 0. -1.
<mgrwt>
<rscale>  1 0.66514915E+03</rscale>
<asrwt>0</asrwt>
<pdfrwt beam="1">  1        1 0.40818295E+00 0.66514915E+03</pdfrwt>
<pdfrwt beam="2">0</pdfrwt>
<totfact> 0.12263065E+00</totfact>
</mgrwt>
</event>
<event>
 6    1  0.2838103E-003  0.6364378E+03  0.7818608E-02  0.9832566E-01
          1   -1    0    0  502    0  0.00000000000E+00  0.00000000000E+00  0.10129421449E+03  0.10129421449E+03  0.00000000000E+00 0.  1.
         13   -1    0    0    0    0 -0.00000000000E+00 -0.00000000000E+00 -0.10000000000E+04  0.10000000000E+04  0.00000000000E+00 0.  1.
    9000005    2    1    2  501    0  0.97046437859E-02 -0.94221606923E-02 -0.89873511136E+03  0.11012619196E+04  0.63643775413E+03 0.  0.
         13    1    3    3    0    0 -0.31692915511E+03  0.20974235102E+02 -0.48291185309E+03  0.57800334407E+03  0.00000000000E+00 0.  1.
          1    1    3    3  501    0  0.31693885976E+03 -0.20983657263E+02 -0.41582325827E+03  0.52325857548E+03  0.00000000000E+00 0.  1.
         21    1    1    2  502  501 -0.97046437859E-02  0.94221606923E-02  0.29325850650E-01  0.32294933650E-01  0.00000000000E+00 0.  1.
<mgrwt>
<rscale>  1 0.63643775E+03</rscale>
<asrwt>0</asrwt>
<pdfrwt beam="1">  1        1 0.36834337E+00 0.63643775E+03</pdfrwt>
<pdfrwt beam="2">0</pdfrwt>
<totfact> 0.18512767E+00</totfact>
</mgrwt>
</event>
<event>
 6    1  0.2838103E-003  0.6477142E+03  0.7818608E-02  0.9811078E-01
          1   -1    0    0  502    0  0.00000000000E+00  0.00000000000E+00  0.10488462673E+03  0.10488462673E+03  0.00000000000E+00 0.  1.
         13   -1    0    0    0    0 -0.00000000000E+00 -0.00000000000E+00 -0.10000000000E+04  0.10000000000E+04  0.00000000000E+00 0.  1.
    9000005    2    1    2  501    0 -0.82781005568E-03  0.94270410665E-03 -0.89511622466E+03  0.11048831105E+04  0.64771415942E+03 0.  0.
         13    1    3    3    0    0 -0.23818413793E+03 -0.16889662014E+03 -0.20858705223E+03  0.35884022937E+03  0.00000000000E+00 0.  1.
          1    1    3    3  501    0  0.23818331012E+03  0.16889756284E+03 -0.68652917242E+03  0.74604288117E+03  0.00000000000E+00 0.  1.
         21    1    1    2  502  501  0.82781005569E-03 -0.94270410666E-03  0.85138558159E-03  0.15161853216E-02  0.00000000000E+00 0. -1.
<mgrwt>
<rscale>  1 0.64771416E+03</rscale>
<asrwt>0</asrwt>
<pdfrwt beam="1">  1        1 0.38139945E+00 0.64771416E+03</pdfrwt>
<pdfrwt beam="2">0</pdfrwt>
<totfact> 0.16184782E+00</totfact>
</mgrwt>
</event>
<event>
 6    1  0.2838103E-003  0.6543976E+03  0.7818608E-02  0.9798562E-01
          1   -1    0    0  502    0  0.00000000000E+00  0.00000000000E+00  0.10745774323E+03  0.10745774323E+03  0.00000000000E+00 0.  1.
         13   -1    0    0    0    0 -0.00000000000E+00 -0.00000000000E+00 -0.10000000000E+04  0.10000000000E+04  0.00000000000E+00 0.  1.
    9000005    2    1    2  501    0 -0.30458070108E+00 -0.11768633715E+00 -0.89286557096E+03  0.11069982309E+04  0.65439747012E+03 0.  0.
         13    1    3    3    0    0 -0.27069884942E+03 -0.54786850213E+02 -0.74382744293E+03  0.79344737121E+03  0.00000000000E+00 0.  1.
          3    1    3    3  501    0  0.27039426872E+03  0.54669163876E+02 -0.14903812803E+03  0.31355085973E+03  0.00000000000E+00 0.  1.
         21    1    1    2  502  501  0.30458070108E+00  0.11768633715E+00  0.32331418045E+00  0.45951228134E+00  0.00000000000E+00 0. -1.
<mgrwt>
<rscale>  1 0.65439755E+03</rscale>
<asrwt>0</asrwt>
<pdfrwt beam="1">  1        1 0.39075625E+00 0.65439755E+03</pdfrwt>
<pdfrwt beam="2">0</pdfrwt>
<totfact> 0.14694668E+00</totfact>
</mgrwt>
</event>
<event>
 6    1  0.2838103E-003  0.6491173E+03  0.7818608E-02  0.9808437E-01
          1   -1    0    0  502    0  0.00000000000E+00  0.00000000000E+00  0.10573368624E+03  0.10573368624E+03  0.00000000000E+00 0.  1.
         13   -1    0    0    0    0 -0.00000000000E+00 -0.00000000000E+00 -0.10000000000E+04  0.10000000000E+04  0.00000000000E+00 0.  1.
    9000005    2    1    2  501    0  0.14148132837E-01 -0.25371226700E-01 -0.89466108928E+03  0.11053378434E+04  0.64911731024E+03 0.  0.
         13    1    3    3    0    0 -0.28228613134E+02  0.31997701211E+03 -0.52622656102E+03  0.61651969669E+03  0.00000000000E+00 0.  1.
          3    1    3    3  501    0  0.28242761267E+02 -0.32000238334E+03 -0.36843452826E+03  0.48881814668E+03  0.00000000000E+00 0.  1.
         21    1    1    2  502  501 -0.14148132837E-01  0.25371226700E-01  0.39477551971E+00  0.39584287258E+00  0.00000000000E+00 0. -1.
<mgrwt>
<rscale>  1 0.64911731E+03</rscale>
<asrwt>0</asrwt>
<pdfrwt beam="1">  1        1 0.38448694E+00 0.64911731E+03</pdfrwt>
<pdfrwt beam="2">0</pdfrwt>
<totfact> 0.15680218E+00</totfact>
</mgrwt>
</event>
<event>
 6    1  0.2838103E-003  0.6647891E+03  0.7818608E-02  0.9779417E-01
          1   -1    0    0  502    0  0.00000000000E+00  0.00000000000E+00  0.11048820345E+03  0.11048820345E+03  0.00000000000E+00 0.  1.
         13   -1    0    0    0    0 -0.00000000000E+00 -0.00000000000E+00 -0.10000000000E+04  0.10000000000E+04  0.00000000000E+00 0.  1.
    9000005    2    1    2  501    0 -0.40850857558E-04  0.80589931542E-04 -0.88951385139E+03  0.11104861466E+04  0.66478913199E+03 0.  0.
         13    1    3    3    0    0  0.45379162030E+01  0.32069377781E+03 -0.59058384018E+03  0.67205235220E+03  0.00000000000E+00 0.  1.
          3    1    3    3  501    0 -0.45379570538E+01 -0.32069369722E+03 -0.29893001121E+03  0.43843379442E+03  0.00000000000E+00 0.  1.
         21    1    1    2  502  501  0.40850857557E-04 -0.80589931550E-04  0.20548415198E-02  0.20568269740E-02  0.00000000000E+00 0.  1.
<mgrwt>
<rscale>  1 0.66478913E+03</rscale>
<asrwt>0</asrwt>
<pdfrwt beam="1">  1        1 0.40177613E+00 0.66478913E+03</pdfrwt>
<pdfrwt beam="2">0</pdfrwt>
<totfact> 0.13100257E+00</totfact>
</mgrwt>
</event>
<event>
 6    1  0.2838103E-003  0.5679459E+03  0.7818608E-02  0.9974234E-01
          1   -1    0    0  502    0  0.00000000000E+00  0.00000000000E+00  0.80792893788E+02  0.80792893788E+02  0.00000000000E+00 0.  1.
         13   -1    0    0    0    0 -0.00000000000E+00 -0.00000000000E+00 -0.10000000000E+04  0.10000000000E+04  0.00000000000E+00 0.  1.
    9000005    2    1    2  501    0 -0.24991372427E-02  0.82407224683E-02 -0.91935922688E+03  0.10806405296E+04  0.56794591824E+03 0.  0.
         13    1    3    3    0    0 -0.27403448306E+02  0.16422029395E+03 -0.21964347365E+02  0.16793357758E+03  0.00000000000E+00 0.  1.
          1    1    3    3  501    0  0.27400949169E+02 -0.16421205323E+03 -0.89739487951E+03  0.91270695199E+03  0.00000000000E+00 0.  1.
         21    1    1    2  502  501  0.24991372427E-02 -0.82407224683E-02  0.15212066621E+00  0.15236420932E+00  0.00000000000E+00 0.  1.
<mgrwt>
<rscale>  1 0.56794592E+03</rscale>
<asrwt>0</asrwt>
<pdfrwt beam="1">  1        1 0.29379296E+00 0.56794592E+03</pdfrwt>
<pdfrwt beam="2">0</pdfrwt>
<totfact> 0.39467745E+00</totfact>
</mgrwt>
</event>
<event>
 6    1  0.2838103E-003  0.6512672E+03  0.7818608E-02  0.9804404E-01
          1   -1    0    0  502    0  0.00000000000E+00  0.00000000000E+00  0.11415414557E+03  0.11415414557E+03  0.00000000000E+00 0.  1.
         13   -1    0    0    0    0 -0.00000000000E+00 -0.00000000000E+00 -0.10000000000E+04  0.10000000000E+04  0.00000000000E+00 0.  1.
    9000005    2    1    2  501    0 -0.50899866287E+01  0.53634928952E+01 -0.89205692002E+03  0.11044974196E+04  0.65122525014E+03 0.  0.
         13    1    3    3    0    0  0.46262392702E+02  0.12806531581E+03 -0.94978522466E+03  0.95949617356E+03  0.00000000000E+00 0.  1.
          3    1    3    3  501    0 -0.51352379330E+02 -0.12270182291E+03  0.57728304642E+02  0.14500124608E+03  0.00000000000E+00 0.  1.
         21    1    1    2  502  501  0.50899866287E+01 -0.53634928952E+01  0.62110655887E+01  0.96567259288E+01  0.00000000000E+00 0. -1.
<mgrwt>
<rscale>  1 0.65126723E+03</rscale>
<asrwt>0</asrwt>
<pdfrwt beam="1">  1        1 0.41510686E+00 0.65126723E+03</pdfrwt>
<pdfrwt beam="2">0</pdfrwt>
<totfact> 0.11446772E+00</totfact>
</mgrwt>
</event>
<event>
 6    1  0.2838103E-003  0.6338581E+03  0.7818608E-02  0.9837549E-01
          1   -1    0    0  502    0  0.00000000000E+00  0.00000000000E+00  0.10048338752E+03  0.10048338752E+03  0.00000000000E+00 0.  1.
         13   -1    0    0    0    0 -0.00000000000E+00 -0.00000000000E+00 -0.10000000000E+04  0.10000000000E+04  0.00000000000E+00 0.  1.
    9000005    2    1    2  501    0 -0.28165042419E-01 -0.56653366895E-01 -0.89952588604E+03  0.11004194432E+04  0.63385812875E+03 0.  0.
         13    1    3    3    0    0  0.24412532980E+03 -0.11111537413E+03 -0.74284146771E+03  0.78978303930E+03  0.00000000000E+00 0.  1.
          1    1    3    3  501    0 -0.24415349484E+03  0.11105872076E+03 -0.15668441833E+03  0.31063640393E+03  0.00000000000E+00 0.  1.
         21    1    1    2  502  501  0.28165042419E-01  0.56653366895E-01  0.92735564360E-02  0.63944291723E-01  0.00000000000E+00 0.  1.
<mgrwt>
<rscale>  1 0.63385813E+03</rscale>
<asrwt>0</asrwt>
<pdfrwt beam="1">  1        1 0.36539491E+00 0.63385813E+03</pdfrwt>
<pdfrwt beam="2">0</pdfrwt>
<totfact> 0.19081229E+00</totfact>
</mgrwt>
</event>
<event>
 6    1  0.2838103E-003  0.4772250E+03  0.7818608E-02  0.1019901E+00
          1   -1    0    0  502    0  0.00000000000E+00  0.00000000000E+00  0.56936224722E+02  0.56936224722E+02  0.00000000000E+00 0.  1.
         13   -1    0    0    0    0 -0.00000000000E+00 -0.00000000000E+00 -0.10000000000E+04  0.10000000000E+04  0.00000000000E+00 0.  1.
    9000005    2    1    2  501    0 -0.40945492515E-03  0.31799015527E-03 -0.94306383164E+03  0.10569357032E+04  0.47722498909E+03 0.  0.
         13    1    3    3    0    0  0.97942525987E+02 -0.88636951011E+02 -0.31432716525E+02  0.13578388398E+03  0.00000000000E+00 0.  1.
          3    1    3    3  501    0 -0.97942935442E+02  0.88637269001E+02 -0.91163111512E+03  0.92115181925E+03  0.00000000000E+00 0.  1.
         21    1    1    2  502  501  0.40945492514E-03 -0.31799015527E-03  0.56366792137E-04  0.52148661519E-03  0.00000000000E+00 0.  1.
<mgrwt>
<rscale>  1 0.47722499E+03</rscale>
<asrwt>0</asrwt>
<pdfrwt beam="1">  1        1 0.20704125E+00 0.47722499E+03</pdfrwt>
<pdfrwt beam="2">0</pdfrwt>
<totfact> 0.95893752E+00</totfact>
</mgrwt>
</event>
<event>
 6    1  0.2838103E-003  0.6425216E+03  0.7818608E-02  0.9820914E-01
          1   -1    0    0  502    0  0.00000000000E+00  0.00000000000E+00  0.10344271622E+03  0.10344271622E+03  0.00000000000E+00 0.  1.
         13   -1    0    0    0    0 -0.00000000000E+00 -0.00000000000E+00 -0.10000000000E+04  0.10000000000E+04  0.00000000000E+00 0.  1.
    9000005    2    1    2  501    0 -0.45562815978E-02 -0.97458132956E-02 -0.89679137809E+03  0.11032083748E+04  0.64252155010E+03 0.  0.
         13    1    3    3    0    0 -0.31175868324E+03 -0.33394955537E+02 -0.32819081871E+03  0.45389196195E+03  0.00000000000E+00 0.  1.
          3    1    3    3  501    0  0.31175412696E+03  0.33385209724E+02 -0.56860055938E+03  0.64931641288E+03  0.00000000000E+00 0.  1.
         21    1    1    2  502  501  0.45562815978E-02  0.97458132956E-02  0.23409431454E+00  0.23434139344E+00  0.00000000000E+00 0.  1.
<mgrwt>
<rscale>  1 0.64252155E+03</rscale>
<asrwt>0</asrwt>
<pdfrwt beam="1">  1        1 0.37615612E+00 0.64252155E+03</pdfrwt>
<pdfrwt beam="2">0</pdfrwt>
<totfact> 0.17086063E+00</totfact>
</mgrwt>
</event>
<event>
 6    1  0.2838103E-003  0.6327043E+03  0.7818608E-02  0.9839786E-01
          1   -1    0    0  502    0  0.00000000000E+00  0.00000000000E+00  0.10029635858E+03  0.10029635858E+03  0.00000000000E+00 0.  1.
         13   -1    0    0    0    0 -0.00000000000E+00 -0.00000000000E+00 -0.10000000000E+04  0.10000000000E+04  0.00000000000E+00 0.  1.
    9000005    2    1    2  501    0  0.45837636204E-01 -0.74023289362E-01 -0.89991171364E+03  0.11000708046E+04  0.63270425578E+03 0.  0.
         13    1    3    3    0    0  0.26274452367E+03  0.13549817088E+03 -0.64579359524E+03  0.71024207612E+03  0.00000000000E+00 0.  1.
          1    1    3    3  501    0 -0.26269868604E+03 -0.13557219417E+03 -0.25411811839E+03  0.38982872851E+03  0.00000000000E+00 0.  1.
         21    1    1    2  502  501 -0.45837636204E-01  0.74023289362E-01  0.20807221479E+00  0.22555394661E+00  0.00000000000E+00 0.  1.
<mgrwt>
<rscale>  1 0.63270426E+03</rscale>
<asrwt>0</asrwt>
<pdfrwt beam="1">  1        1 0.36471480E+00 0.63270426E+03</pdfrwt>
<pdfrwt beam="2">0</pdfrwt>
<totfact> 0.19216654E+00</totfact>
</mgrwt>
</event>
<event>
 6    1  0.2838103E-003  0.6301259E+03  0.7818608E-02  0.9844803E-01
          1   -1    0    0  502    0  0.00000000000E+00  0.00000000000E+00  0.99270687232E+02  0.99270687232E+02  0.00000000000E+00 0.  1.
         13   -1    0    0    0    0 -0.00000000000E+00 -0.00000000000E+00 -0.10000000000E+04  0.10000000000E+04  0.00000000000E+00 0.  1.
    9000005    2    1    2  501    0  0.15036054984E-03 -0.81026498520E-04 -0.90073533966E+03  0.10992646579E+04  0.63012588903E+03 0.  0.
         13    1    3    3    0    0  0.16346231521E+02  0.19531726323E+03 -0.20038966880E+02  0.19702180792E+03  0.00000000000E+00 0.  1.
          1    1    3    3  501    0 -0.16346081161E+02 -0.19531734426E+03 -0.88069637278E+03  0.90224285000E+03  0.00000000000E+00 0.  1.
         21    1    1    2  502  501 -0.15036054984E-03  0.81026498525E-04  0.60268949861E-02  0.60293147837E-02  0.00000000000E+00 0.  1.
<mgrwt>
<rscale>  1 0.63012589E+03</rscale>
<asrwt>0</asrwt>
<pdfrwt beam="1">  1        1 0.36098508E+00 0.63012589E+03</pdfrwt>
<pdfrwt beam="2">0</pdfrwt>
<totfact> 0.19962309E+00</totfact>
</mgrwt>
</event>
<event>
 6    1  0.2838103E-003  0.6416773E+03  0.7818608E-02  0.9822523E-01
          1   -1    0    0  502    0  0.00000000000E+00  0.00000000000E+00  0.10293881106E+03  0.10293881106E+03  0.00000000000E+00 0.  1.
         13   -1    0    0    0    0 -0.00000000000E+00 -0.00000000000E+00 -0.10000000000E+04  0.10000000000E+04  0.00000000000E+00 0.  1.
    9000005    2    1    2  501    0  0.89937534511E-04 -0.98875220544E-05 -0.89706256044E+03  0.11029374366E+04  0.64167729557E+03 0.  0.
         13    1    3    3    0    0 -0.10031731849E+03 -0.17605318103E+03 -0.87610040476E+03  0.89922756083E+03  0.00000000000E+00 0.  1.
          1    1    3    3  501    0  0.10031740843E+03  0.17605317114E+03 -0.20962155683E+02  0.20370987574E+03  0.00000000000E+00 0.  1.
         21    1    1    2  502  501 -0.89937534510E-04  0.98875220451E-05  0.13715074369E-02  0.13744886950E-02  0.00000000000E+00 0.  1.
<mgrwt>
<rscale>  1 0.64167730E+03</rscale>
<asrwt>0</asrwt>
<pdfrwt beam="1">  1        1 0.37432374E+00 0.64167730E+03</pdfrwt>
<pdfrwt beam="2">0</pdfrwt>
<totfact> 0.17409077E+00</totfact>
</mgrwt>
</event>
<event>
 6    1  0.2838103E-003  0.6499116E+03  0.7818608E-02  0.9806945E-01
          1   -1    0    0  502    0  0.00000000000E+00  0.00000000000E+00  0.10559633774E+03  0.10559633774E+03  0.00000000000E+00 0.  1.
         13   -1    0    0    0    0 -0.00000000000E+00 -0.00000000000E+00 -0.10000000000E+04  0.10000000000E+04  0.00000000000E+00 0.  1.
    9000005    2    1    2  501    0  0.20787328481E-05  0.13783540084E-04 -0.89440371325E+03  0.11055962849E+04  0.64991164236E+03 0.  0.
         13    1    3    3    0    0  0.18731584160E+03 -0.24902264612E+03 -0.60401029138E+03  0.67965280466E+03  0.00000000000E+00 0.  1.
          1    1    3    3  501    0 -0.18731583952E+03  0.24902265990E+03 -0.29039342187E+03  0.42594348022E+03  0.00000000000E+00 0.  1.
         21    1    1    2  502  501 -0.20787328545E-05 -0.13783540097E-04  0.50988691088E-04  0.52859755266E-04  0.00000000000E+00 0. -1.
<mgrwt>
<rscale>  1 0.64991164E+03</rscale>
<asrwt>0</asrwt>
<pdfrwt beam="1">  1        1 0.38398749E+00 0.64991164E+03</pdfrwt>
<pdfrwt beam="2">0</pdfrwt>
<totfact> 0.15757841E+00</totfact>
</mgrwt>
</event>
<event>
 6    1  0.2838103E-003  0.6410352E+03  0.7818608E-02  0.9823748E-01
          1   -1    0    0  502    0  0.00000000000E+00  0.00000000000E+00  0.10632972795E+03  0.10632972795E+03  0.00000000000E+00 0.  1.
         13   -1    0    0    0    0 -0.00000000000E+00 -0.00000000000E+00 -0.10000000000E+04  0.10000000000E+04  0.00000000000E+00 0.  1.
    9000005    2    1    2  501    0 -0.75559301676E+01 -0.10059282561E+01 -0.89212764068E+03  0.10985526023E+04  0.64098985070E+03 0.  0.
         13    1    3    3    0    0 -0.53264186492E+02  0.52170558914E+00  0.95775475911E+02  0.10959145736E+03  0.00000000000E+00 0.  1.
          3    1    3    3  501    0  0.45708256325E+02 -0.15276338452E+01 -0.98790311659E+03  0.98896114491E+03  0.00000000000E+00 0.  1.
         21    1    1    2  502  501  0.75559301676E+01  0.10059282561E+01 -0.15426313703E+01  0.77771256836E+01  0.00000000000E+00 0.  1.
<mgrwt>
<rscale>  1 0.64103517E+03</rscale>
<asrwt>0</asrwt>
<pdfrwt beam="1">  1        1 0.38665437E+00 0.64103517E+03</pdfrwt>
<pdfrwt beam="2">0</pdfrwt>
<totfact> 0.15360943E+00</totfact>
</mgrwt>
</event>
<event>
 6    1  0.2838103E-003  0.6704412E+03  0.7818608E-02  0.9769161E-01
          1   -1    0    0  502    0  0.00000000000E+00  0.00000000000E+00  0.11422883520E+03  0.11422883520E+03  0.00000000000E+00 0.  1.
         13   -1    0    0    0    0 -0.00000000000E+00 -0.00000000000E+00 -0.10000000000E+04  0.10000000000E+04  0.00000000000E+00 0.  1.
    9000005    2    1    2  501    0  0.37230799420E+00  0.38348720944E-01 -0.88760613445E+03  0.11123560839E+04  0.67044109909E+03 0.  0.
         13    1    3    3    0    0  0.26155592103E+03 -0.19198645479E+03 -0.30327111993E+03  0.44412123439E+03  0.00000000000E+00 0.  1.
          1    1    3    3  501    0 -0.26118361304E+03  0.19202480351E+03 -0.58433501452E+03  0.66823484950E+03  0.00000000000E+00 0.  1.
         21    1    1    2  502  501 -0.37230799420E+00 -0.38348720944E-01  0.18349696588E+01  0.18727513224E+01  0.00000000000E+00 0. -1.
<mgrwt>
<rscale>  1 0.67044120E+03</rscale>
<asrwt>0</asrwt>
<pdfrwt beam="1">  1        1 0.41537846E+00 0.67044120E+03</pdfrwt>
<pdfrwt beam="2">0</pdfrwt>
<totfact> 0.11372424E+00</totfact>
</mgrwt>
</event>
<event>
 6    1  0.2838103E-003  0.6509376E+03  0.7818608E-02  0.9805021E-01
          3   -1    0    0  502    0  0.00000000000E+00  0.00000000000E+00  0.11400300898E+03  0.11400300898E+03  0.00000000000E+00 0.  1.
         13   -1    0    0    0    0 -0.00000000000E+00 -0.00000000000E+00 -0.10000000000E+04  0.10000000000E+04  0.00000000000E+00 0.  1.
    9000005    2    1    2  501    0 -0.37886280762E-01  0.17912434703E+00 -0.89406891244E+03  0.11059290114E+04  0.65093757353E+03 0.  0.
         13    1    3    3    0    0  0.54514612231E+02 -0.31772887231E+03 -0.52188621455E+03  0.61342375254E+03  0.00000000000E+00 0.  1.
          3    1    3    3  501    0 -0.54552498512E+02  0.31790799666E+03 -0.37218269789E+03  0.49250525890E+03  0.00000000000E+00 0.  1.
         21    1    1    2  502  501  0.37886280762E-01 -0.17912434703E+00  0.80719214198E+01  0.80739975421E+01  0.00000000000E+00 0.  1.
<mgrwt>
<rscale>  1 0.65093760E+03</rscale>
<asrwt>0</asrwt>
<pdfrwt beam="1">  1        3 0.41455727E+00 0.65093760E+03</pdfrwt>
<pdfrwt beam="2">0</pdfrwt>
<totfact> 0.49724186E-02</totfact>
</mgrwt>
</event>
<event>
 6    1  0.2838103E-003  0.6144137E+03  0.7818608E-02  0.9875945E-01
          1   -1    0    0  502    0  0.00000000000E+00  0.00000000000E+00  0.99324766766E+02  0.99324766766E+02  0.00000000000E+00 0.  1.
         13   -1    0    0    0    0 -0.00000000000E+00 -0.00000000000E+00 -0.10000000000E+04  0.10000000000E+04  0.00000000000E+00 0.  1.
    9000005    2    1    2  501    0 -0.35154272827E-01  0.19223887968E+00 -0.90562183471E+03  0.10943743064E+04  0.61441368541E+03 0.  0.
         13    1    3    3    0    0  0.18751274286E+03  0.10516577062E+03 -0.84376353417E+03  0.87072255606E+03  0.00000000000E+00 0.  1.
          1    1    3    3  501    0 -0.18754789713E+03 -0.10497353174E+03 -0.61858300545E+02  0.22365175034E+03  0.00000000000E+00 0.  1.
         21    1    1    2  502  501  0.35154272827E-01 -0.19223887968E+00  0.49466014786E+01  0.49504603622E+01  0.00000000000E+00 0.  1.
<mgrwt>
<rscale>  1 0.61441372E+03</rscale>
<asrwt>0</asrwt>
<pdfrwt beam="1">  1        1 0.36118173E+00 0.61441372E+03</pdfrwt>
<pdfrwt beam="2">0</pdfrwt>
<totfact> 0.19980081E+00</totfact>
</mgrwt>
</event>
<event>
 6    1  0.2838103E-003  0.6610783E+03  0.7818608E-02  0.9786211E-01
          1   -1    0    0  502    0  0.00000000000E+00  0.00000000000E+00  0.10933193222E+03  0.10933193222E+03  0.00000000000E+00 0.  1.
         13   -1    0    0    0    0 -0.00000000000E+00 -0.00000000000E+00 -0.10000000000E+04  0.10000000000E+04  0.00000000000E+00 0.  1.
    9000005    2    1    2  501    0  0.25366270872E-02 -0.80376315481E-04 -0.89074384035E+03  0.11092561172E+04  0.66107831937E+03 0.  0.
         13    1    3    3    0    0 -0.25906889976E+03  0.19518743561E+03 -0.55203105545E+03  0.64027581246E+03  0.00000000000E+00 0.  1.
          3    1    3    3  501    0  0.25907143639E+03 -0.19518751599E+03 -0.33871278490E+03  0.46898030470E+03  0.00000000000E+00 0.  1.
         21    1    1    2  502  501 -0.25366270872E-02  0.80376315489E-04  0.75772564597E-01  0.75815054461E-01  0.00000000000E+00 0.  1.
<mgrwt>
<rscale>  1 0.66107832E+03</rscale>
<asrwt>0</asrwt>
<pdfrwt beam="1">  1        1 0.39757150E+00 0.66107832E+03</pdfrwt>
<pdfrwt beam="2">0</pdfrwt>
<totfact> 0.13687610E+00</totfact>
</mgrwt>
</event>
<event>
 6    1  0.2838103E-003  0.6450313E+03  0.7818608E-02  0.9816147E-01
          1   -1    0    0  502    0  0.00000000000E+00  0.00000000000E+00  0.10401639426E+03  0.10401639426E+03  0.00000000000E+00 0.  1.
         13   -1    0    0    0    0 -0.00000000000E+00 -0.00000000000E+00 -0.10000000000E+04  0.10000000000E+04  0.00000000000E+00 0.  1.
    9000005    2    1    2  501    0 -0.30405007294E-05 -0.34910256375E-05 -0.89598364998E+03  0.11040163498E+04  0.64503131671E+03 0.  0.
         13    1    3    3    0    0 -0.19571205115E+03  0.65131207530E+02 -0.23636079134E+02  0.20761489686E+03  0.00000000000E+00 0.  1.
          1    1    3    3  501    0  0.19571204811E+03 -0.65131211021E+02 -0.87234757085E+03  0.89640145292E+03  0.00000000000E+00 0.  1.
         21    1    1    2  502  501  0.30405007308E-05  0.34910256258E-05  0.44239596859E-04  0.44481162697E-04  0.00000000000E+00 0.  1.
<mgrwt>
<rscale>  1 0.64503132E+03</rscale>
<asrwt>0</asrwt>
<pdfrwt beam="1">  1        1 0.37824223E+00 0.64503132E+03</pdfrwt>
<pdfrwt beam="2">0</pdfrwt>
<totfact> 0.16720536E+00</totfact>
</mgrwt>
</event>
<event>
 6    1  0.2838103E-003  0.5806116E+03  0.7818608E-02  0.9946468E-01
          1   -1    0    0  502    0  0.00000000000E+00  0.00000000000E+00  0.84278367578E+02  0.84278367578E+02  0.00000000000E+00 0.  1.
         13   -1    0    0    0    0 -0.00000000000E+00 -0.00000000000E+00 -0.10000000000E+04  0.10000000000E+04  0.00000000000E+00 0.  1.
    9000005    2    1    2  501    0  0.91359907362E-03 -0.20024610171E-03 -0.91572226336E+03  0.10842772394E+04  0.58061163285E+03 0.  0.
         13    1    3    3    0    0  0.38930197614E+02 -0.27034568318E+03 -0.64155105840E+03  0.69727333897E+03  0.00000000000E+00 0.  1.
          1    1    3    3  501    0 -0.38929284015E+02  0.27034548294E+03 -0.27417120496E+03  0.38700390040E+03  0.00000000000E+00 0.  1.
         21    1    1    2  502  501 -0.91359907362E-03  0.20024610170E-03  0.63094029922E-03  0.11282054023E-02  0.00000000000E+00 0.  1.
<mgrwt>
<rscale>  1 0.58061163E+03</rscale>
<asrwt>0</asrwt>
<pdfrwt beam="1">  1        1 0.30646744E+00 0.58061163E+03</pdfrwt>
<pdfrwt beam="2">0</pdfrwt>
<totfact> 0.34721289E+00</totfact>
</mgrwt>
</event>
<event>
 6    1  0.2838103E-003  0.6526058E+03  0.7818608E-02  0.9801902E-01
          1   -1    0    0  502    0  0.00000000000E+00  0.00000000000E+00  0.13626969677E+03  0.13626969677E+03  0.00000000000E+00 0.  1.
         13   -1    0    0    0    0 -0.00000000000E+00 -0.00000000000E+00 -0.10000000000E+04  0.10000000000E+04  0.00000000000E+00 0.  1.
    9000005    2    1    2  501    0  0.88294355870E+01 -0.74209162419E+02 -0.82556601686E+03  0.10523562207E+04  0.64831273952E+03 0.  0.
         13    1    3    3    0    0 -0.14219654242E+03 -0.28655889823E+03 -0.20670103904E+03  0.38086897796E+03  0.00000000000E+00 0.  1.
          3    1    3    3  501    0  0.15102597800E+03  0.21234973581E+03 -0.61886497782E+03  0.67148724270E+03  0.00000000000E+00 0.  1.
         21    1    1    2  502  501 -0.88294355870E+01  0.74209162419E+02 -0.38164286369E+02  0.83913476115E+02  0.00000000000E+00 0.  1.
<mgrwt>
<rscale>  1 0.65260583E+03</rscale>
<asrwt>0</asrwt>
<pdfrwt beam="1">  1        1 0.49552721E+00 0.65260583E+03</pdfrwt>
<pdfrwt beam="2">0</pdfrwt>
<totfact> 0.48550730E-01</totfact>
</mgrwt>
</event>
<event>
 6    1  0.2838103E-003  0.6523875E+03  0.7818608E-02  0.9802310E-01
          1   -1    0    0  502    0  0.00000000000E+00  0.00000000000E+00  0.10640317943E+03  0.10640317943E+03  0.00000000000E+00 0.  1.
         13   -1    0    0    0    0 -0.00000000000E+00 -0.00000000000E+00 -0.10000000000E+04  0.10000000000E+04  0.00000000000E+00 0.  1.
    9000005    2    1    2  501    0  0.32585805698E-03 -0.77938870504E-05 -0.89359760580E+03  0.11064023292E+04  0.65238748689E+03 0.  0.
         13    1    3    3    0    0  0.15868893291E+03  0.18423683323E+03 -0.81554931491E+03  0.85102648208E+03  0.00000000000E+00 0.  1.
          1    1    3    3  501    0 -0.15868860705E+03 -0.18423684103E+03 -0.78048290891E+02  0.25537584716E+03  0.00000000000E+00 0.  1.
         21    1    1    2  502  501 -0.32585805699E-03  0.77938870437E-05  0.78523240151E-03  0.85019653162E-03  0.00000000000E+00 0. -1.
<mgrwt>
<rscale>  1 0.65238749E+03</rscale>
<asrwt>0</asrwt>
<pdfrwt beam="1">  1        1 0.38692147E+00 0.65238749E+03</pdfrwt>
<pdfrwt beam="2">0</pdfrwt>
<totfact> 0.15286827E+00</totfact>
</mgrwt>
</event>
<event>
 6    1  0.2838103E-003  0.6546536E+03  0.7818608E-02  0.9798086E-01
          1   -1    0    0  502    0  0.00000000000E+00  0.00000000000E+00  0.10714849458E+03  0.10714849458E+03  0.00000000000E+00 0.  1.
         13   -1    0    0    0    0 -0.00000000000E+00 -0.00000000000E+00 -0.10000000000E+04  0.10000000000E+04  0.00000000000E+00 0.  1.
    9000005    2    1    2  501    0 -0.19132562885E-02 -0.19557836495E-02 -0.89285679387E+03  0.11071425403E+04  0.65465361085E+03 0.  0.
         13    1    3    3    0    0 -0.11118874026E+03 -0.27701385421E+03 -0.21925621875E+03  0.37036860132E+03  0.00000000000E+00 0.  1.
          3    1    3    3  501    0  0.11118682701E+03  0.27701189842E+03 -0.67360057512E+03  0.73677393899E+03  0.00000000000E+00 0.  1.
         21    1    1    2  502  501  0.19132562885E-02  0.19557836495E-02  0.52884499149E-02  0.59542708883E-02  0.00000000000E+00 0.  1.
<mgrwt>
<rscale>  1 0.65465361E+03</rscale>
<asrwt>0</asrwt>
<pdfrwt beam="1">  1        1 0.38963171E+00 0.65465361E+03</pdfrwt>
<pdfrwt beam="2">0</pdfrwt>
<totfact> 0.14863692E+00</totfact>
</mgrwt>
</event>
<event>
 6    1  0.2838103E-003  0.6282526E+03  0.7818608E-02  0.9848465E-01
          1   -1    0    0  502    0  0.00000000000E+00  0.00000000000E+00  0.98677497950E+02  0.98677497950E+02  0.00000000000E+00 0.  1.
         13   -1    0    0    0    0 -0.00000000000E+00 -0.00000000000E+00 -0.10000000000E+04  0.10000000000E+04  0.00000000000E+00 0.  1.
    9000005    2    1    2  501    0  0.79784550422E-04  0.56552435723E-04 -0.90132466196E+03  0.10986753358E+04  0.62825261422E+03 0.  0.
         13    1    3    3    0    0 -0.12374971376E+03 -0.22497567115E+03 -0.76712504617E+03  0.80895542568E+03  0.00000000000E+00 0.  1.
          3    1    3    3  501    0  0.12374979355E+03  0.22497572770E+03 -0.13419961579E+03  0.28971991015E+03  0.00000000000E+00 0.  1.
         21    1    1    2  502  501 -0.79784550426E-04 -0.56552435718E-04  0.21599147809E-02  0.21621275664E-02  0.00000000000E+00 0.  1.
<mgrwt>
<rscale>  1 0.62825261E+03</rscale>
<asrwt>0</asrwt>
<pdfrwt beam="1">  1        1 0.35882802E+00 0.62825261E+03</pdfrwt>
<pdfrwt beam="2">0</pdfrwt>
<totfact> 0.20407557E+00</totfact>
</mgrwt>
</event>
<event>
 6    1  0.2838103E-003  0.6507044E+03  0.7818608E-02  0.9805458E-01
          1   -1    0    0  502    0  0.00000000000E+00  0.00000000000E+00  0.10590564380E+03  0.10590564380E+03  0.00000000000E+00 0.  1.
         13   -1    0    0    0    0 -0.00000000000E+00 -0.00000000000E+00 -0.10000000000E+04  0.10000000000E+04  0.00000000000E+00 0.  1.
    9000005    2    1    2  501    0 -0.77847160361E-03  0.52817224458E-03 -0.89414593143E+03  0.11058540600E+04  0.65070443005E+03 0.  0.
         13    1    3    3    0    0 -0.32406934503E+03  0.27221045425E+02 -0.46341011359E+03  0.56613678478E+03  0.00000000000E+00 0.  1.
          3    1    3    3  501    0  0.32406856655E+03 -0.27220517253E+02 -0.43073581784E+03  0.53971727521E+03  0.00000000000E+00 0.  1.
         21    1    1    2  502  501  0.77847160356E-03 -0.52817224457E-03  0.51575229313E-01  0.51583808144E-01  0.00000000000E+00 0.  1.
<mgrwt>
<rscale>  1 0.65070443E+03</rscale>
<asrwt>0</asrwt>
<pdfrwt beam="1">  1        1 0.38511224E+00 0.65070443E+03</pdfrwt>
<pdfrwt beam="2">0</pdfrwt>
<totfact> 0.15576119E+00</totfact>
</mgrwt>
</event>
<event>
 6    1  0.2838103E-003  0.6542771E+03  0.7818608E-02  0.9798786E-01
          1   -1    0    0  502    0  0.00000000000E+00  0.00000000000E+00  0.10708994954E+03  0.10708994954E+03  0.00000000000E+00 0.  1.
         13   -1    0    0    0    0 -0.00000000000E+00 -0.00000000000E+00 -0.10000000000E+04  0.10000000000E+04  0.00000000000E+00 0.  1.
    9000005    2    1    2  501    0  0.32081754020E-03 -0.79326855671E-02 -0.89298012757E+03  0.11070194241E+04  0.65427707980E+03 0.  0.
         13    1    3    3    0    0  0.13606145760E+02  0.31871753679E+02  0.10390511472E+03  0.10953177051E+03  0.00000000000E+00 0.  1.
          3    1    3    3  501    0 -0.13605824943E+02 -0.31879686365E+02 -0.99688524229E+03  0.99748765364E+03  0.00000000000E+00 0.  1.
         21    1    1    2  502  501 -0.32081754020E-03  0.79326855671E-02  0.70077108480E-01  0.70525396540E-01  0.00000000000E+00 0. -1.
<mgrwt>
<rscale>  1 0.65427708E+03</rscale>
<asrwt>0</asrwt>
<pdfrwt beam="1">  1        1 0.38941882E+00 0.65427708E+03</pdfrwt>
<pdfrwt beam="2">0</pdfrwt>
<totfact> 0.14897071E+00</totfact>
</mgrwt>
</event>
<event>
 6    1  0.2838103E-003  0.6596412E+03  0.7818608E-02  0.9788855E-01
          1   -1    0    0  502    0  0.00000000000E+00  0.00000000000E+00  0.10913750619E+03  0.10913750619E+03  0.00000000000E+00 0.  1.
         13   -1    0    0    0    0 -0.00000000000E+00 -0.00000000000E+00 -0.10000000000E+04  0.10000000000E+04  0.00000000000E+00 0.  1.
    9000005    2    1    2  501    0  0.70678182658E+00  0.84961162213E-01 -0.89076763777E+03  0.11084193442E+04  0.65964077451E+03 0.  0.
         13    1    3    3    0    0 -0.49986824856E+02  0.17184124967E+03  0.20123163801E+02  0.18009175291E+03  0.00000000000E+00 0.  1.
          1    1    3    3  501    0  0.50693606683E+02 -0.17175628851E+03 -0.91089080157E+03  0.92832759131E+03  0.00000000000E+00 0.  1.
         21    1    1    2  502  501 -0.70678182658E+00 -0.84961162213E-01 -0.94856036763E-01  0.71816197141E+00  0.00000000000E+00 0.  1.
<mgrwt>
<rscale>  1 0.65964116E+03</rscale>
<asrwt>0</asrwt>
<pdfrwt beam="1">  1        1 0.39686450E+00 0.65964116E+03</pdfrwt>
<pdfrwt beam="2">0</pdfrwt>
<totfact> 0.13790877E+00</totfact>
</mgrwt>
</event>
<event>
 6    1  0.2838103E-003  0.6449931E+03  0.7818608E-02  0.9816220E-01
          1   -1    0    0  502    0  0.00000000000E+00  0.00000000000E+00  0.10428271401E+03  0.10428271401E+03  0.00000000000E+00 0.  1.
         13   -1    0    0    0    0 -0.00000000000E+00 -0.00000000000E+00 -0.10000000000E+04  0.10000000000E+04  0.00000000000E+00 0.  1.
    9000005    2    1    2  501    0 -0.84080170156E-02  0.33559298231E-03 -0.89599588971E+03  0.11040039832E+04  0.64499314770E+03 0.  0.
         13    1    3    3    0    0 -0.12668489252E+03 -0.12915903200E+03 -0.90496303986E+03  0.92287009977E+03  0.00000000000E+00 0.  1.
          1    1    3    3  501    0  0.12667648450E+03  0.12915936759E+03  0.89671501478E+01  0.18113388348E+03  0.00000000000E+00 0.  1.
         21    1    1    2  502  501  0.84080170156E-02 -0.33559298232E-03  0.27860371958E+00  0.27873076603E+00  0.00000000000E+00 0. -1.
<mgrwt>
<rscale>  1 0.64499315E+03</rscale>
<asrwt>0</asrwt>
<pdfrwt beam="1">  1        1 0.37921067E+00 0.64499315E+03</pdfrwt>
<pdfrwt beam="2">0</pdfrwt>
<totfact> 0.16557049E+00</totfact>
</mgrwt>
</event>
<event>
 6    1  0.2838103E-003  0.6536676E+03  0.7818608E-02  0.9799921E-01
          1   -1    0    0  502    0  0.00000000000E+00  0.00000000000E+00  0.10682217260E+03  0.10682217260E+03  0.00000000000E+00 0.  1.
         13   -1    0    0    0    0 -0.00000000000E+00 -0.00000000000E+00 -0.10000000000E+04  0.10000000000E+04  0.00000000000E+00 0.  1.
    9000005    2    1    2  501    0 -0.13514301573E-02 -0.72096956617E-03 -0.89317929156E+03  0.11068200537E+04  0.65366764056E+03 0.  0.
         13    1    3    3    0    0 -0.15360528283E+03 -0.18880447478E+03 -0.81593141809E+03  0.85146097481E+03  0.00000000000E+00 0.  1.
          3    1    3    3  501    0  0.15360393140E+03  0.18880375381E+03 -0.77247873468E+02  0.25535907884E+03  0.00000000000E+00 0.  1.
         21    1    1    2  502  501  0.13514301573E-02  0.72096956619E-03  0.14641537138E-02  0.21189399905E-02  0.00000000000E+00 0. -1.
<mgrwt>
<rscale>  1 0.65366764E+03</rscale>
<asrwt>0</asrwt>
<pdfrwt beam="1">  1        1 0.38844508E+00 0.65366764E+03</pdfrwt>
<pdfrwt beam="2">0</pdfrwt>
<totfact> 0.15047550E+00</totfact>
</mgrwt>
</event>
<event>
 6    1  0.2838103E-003  0.5940258E+03  0.7818608E-02  0.9917879E-01
          1   -1    0    0  502    0  0.00000000000E+00  0.00000000000E+00  0.88228021640E+02  0.88228021640E+02  0.00000000000E+00 0.  1.
         13   -1    0    0    0    0 -0.00000000000E+00 -0.00000000000E+00 -0.10000000000E+04  0.10000000000E+04  0.00000000000E+00 0.  1.
    9000005    2    1    2  501    0  0.51726474673E-03  0.11646806801E-03 -0.91178332092E+03  0.10882166667E+04  0.59402583224E+03 0.  0.
         13    1    3    3    0    0 -0.85513942928E+02 -0.88551975534E+02 -0.95106502333E+03  0.95899883494E+03  0.00000000000E+00 0.  1.
          1    1    3    3  501    0  0.85514460193E+02  0.88552092002E+02  0.39281702413E+02  0.12921783176E+03  0.00000000000E+00 0.  1.
         21    1    1    2  502  501 -0.51726474673E-03 -0.11646806801E-03  0.11342557876E-01  0.11354943717E-01  0.00000000000E+00 0. -1.
<mgrwt>
<rscale>  1 0.59402583E+03</rscale>
<asrwt>0</asrwt>
<pdfrwt beam="1">  1        1 0.32082985E+00 0.59402583E+03</pdfrwt>
<pdfrwt beam="2">0</pdfrwt>
<totfact> 0.30027564E+00</totfact>
</mgrwt>
</event>
<event>
 6    1  0.2838103E-003  0.6027591E+03  0.7818608E-02  0.9899698E-01
          1   -1    0    0  502    0  0.00000000000E+00  0.00000000000E+00  0.91073601837E+02  0.91073601837E+02  0.00000000000E+00 0.  1.
         13   -1    0    0    0    0 -0.00000000000E+00 -0.00000000000E+00 -0.10000000000E+04  0.10000000000E+04  0.00000000000E+00 0.  1.
    9000005    2    1    2  501    0  0.14694885901E+00 -0.46409776402E+00 -0.90887584988E+03  0.10905841779E+04  0.60275890829E+03 0.  0.
         13    1    3    3    0    0 -0.16135078766E+03 -0.11154797576E+03 -0.86860325147E+03  0.89047663419E+03  0.00000000000E+00 0.  1.
          3    1    3    3  501    0  0.16149773652E+03  0.11108387799E+03 -0.40272598415E+02  0.20010754367E+03  0.00000000000E+00 0.  1.
         21    1    1    2  502  501 -0.14694885901E+00  0.46409776402E+00 -0.50548281099E-01  0.48942397822E+00  0.00000000000E+00 0. -1.
<mgrwt>
<rscale>  1 0.60275910E+03</rscale>
<asrwt>0</asrwt>
<pdfrwt beam="1">  1        1 0.33117743E+00 0.60275910E+03</pdfrwt>
<pdfrwt beam="2">0</pdfrwt>
<totfact> 0.27043598E+00</totfact>
</mgrwt>
</event>
<event>
 6    1  0.4034771E-003  0.6567650E+03  0.7818608E-02  0.9794167E-01
          1   -1    0    0  502    0  0.00000000000E+00  0.00000000000E+00  0.10783512575E+03  0.10783512575E+03  0.00000000000E+00 0.  1.
         13   -1    0    0    0    0 -0.00000000000E+00 -0.00000000000E+00 -0.10000000000E+04  0.10000000000E+04  0.00000000000E+00 0.  1.
    9000005    2    1    2  501    0  0.32196526064E-04 -0.12374437716E-03 -0.89216482371E+03  0.11078349883E+04  0.65676501777E+03 0.  0.
         13    1    3    3    0    0 -0.76883090651E+02  0.31786517869E+03 -0.49628425031E+03  0.59434614373E+03  0.00000000000E+00 0.  1.
          3    1    3    3  501    0  0.76883122848E+02 -0.31786530244E+03 -0.39588057340E+03  0.51348884454E+03  0.00000000000E+00 0.  1.
         21    1    1    2  502  501 -0.32196526061E-04  0.12374437717E-03 -0.50533950076E-04  0.13748806233E-03  0.00000000000E+00 0. -1.
<mgrwt>
<rscale>  1 0.65676502E+03</rscale>
<asrwt>0</asrwt>
<pdfrwt beam="1">  1        1 0.39212856E+00 0.65676502E+03</pdfrwt>
<pdfrwt beam="2">0</pdfrwt>
<totfact> 0.14483660E+00</totfact>
</mgrwt>
</event>
<event>
 6    1  0.2838103E-003  0.6533306E+03  0.7818608E-02  0.9800550E-01
          1   -1    0    0  502    0  0.00000000000E+00  0.00000000000E+00  0.10688406845E+03  0.10688406845E+03  0.00000000000E+00 0.  1.
         13   -1    0    0    0    0 -0.00000000000E+00 -0.00000000000E+00 -0.10000000000E+04  0.10000000000E+04  0.00000000000E+00 0.  1.
    9000005    2    1    2  501    0  0.10146378698E-01  0.46350903744E-02 -0.89328958491E+03  0.11067100572E+04  0.65333059626E+03 0.  0.
         13    1    3    3    0    0  0.11289513836E+03 -0.27906604674E+03 -0.66149530312E+03  0.72677314669E+03  0.00000000000E+00 0.  1.
          1    1    3    3  501    0 -0.11288499198E+03  0.27907068183E+03 -0.23179428180E+03  0.37993691048E+03  0.00000000000E+00 0.  1.
         21    1    1    2  502  501 -0.10146378698E-01 -0.46350903744E-02  0.17365335906E+00  0.17401127026E+00  0.00000000000E+00 0. -1.
<mgrwt>
<rscale>  1 0.65333060E+03</rscale>
<asrwt>0</asrwt>
<pdfrwt beam="1">  1        1 0.38867016E+00 0.65333060E+03</pdfrwt>
<pdfrwt beam="2">0</pdfrwt>
<totfact> 0.15013968E+00</totfact>
</mgrwt>
</event>
<event>
 6    1  0.2838103E-003  0.6717093E+03  0.7818608E-02  0.9766875E-01
          1   -1    0    0  502    0  0.00000000000E+00  0.00000000000E+00  0.11279957172E+03  0.11279957172E+03  0.00000000000E+00 0.  1.
         13   -1    0    0    0    0 -0.00000000000E+00 -0.00000000000E+00 -0.10000000000E+04  0.10000000000E+04  0.00000000000E+00 0.  1.
    9000005    2    1    2  501    0  0.75327278532E-03  0.14332206734E-03 -0.88720153734E+03  0.11127982234E+04  0.67170925120E+03 0.  0.
         13    1    3    3    0    0 -0.21331325447E+03  0.18576670532E+03 -0.74357328106E+03  0.79555831819E+03  0.00000000000E+00 0.  1.
          1    1    3    3  501    0  0.21331400774E+03 -0.18576656200E+03 -0.14362825628E+03  0.31723990521E+03  0.00000000000E+00 0.  1.
         21    1    1    2  502  501 -0.75327278532E-03 -0.14332206735E-03  0.11090592073E-02  0.13483224501E-02  0.00000000000E+00 0.  1.
<mgrwt>
<rscale>  1 0.67170925E+03</rscale>
<asrwt>0</asrwt>
<pdfrwt beam="1">  1        1 0.41018113E+00 0.67170925E+03</pdfrwt>
<pdfrwt beam="2">0</pdfrwt>
<totfact> 0.11997812E+00</totfact>
</mgrwt>
</event>
<event>
 6    1  0.2838103E-003  0.6524699E+03  0.7818608E-02  0.9802156E-01
          1   -1    0    0  502    0  0.00000000000E+00  0.00000000000E+00  0.10674483277E+03  0.10674483277E+03  0.00000000000E+00 0.  1.
         13   -1    0    0    0    0 -0.00000000000E+00 -0.00000000000E+00 -0.10000000000E+04  0.10000000000E+04  0.00000000000E+00 0.  1.
    9000005    2    1    2  501    0 -0.25043158019E-01  0.14794661455E+00 -0.89355089331E+03  0.11064132166E+04  0.65246991077E+03 0.  0.
         13    1    3    3    0    0 -0.24507938603E+03  0.14594676748E+03 -0.71544831273E+03  0.77021467954E+03  0.00000000000E+00 0.  1.
          3    1    3    3  501    0  0.24505434287E+03 -0.14579882087E+03 -0.17810258058E+03  0.33619853708E+03  0.00000000000E+00 0.  1.
         21    1    1    2  502  501  0.25043158019E-01 -0.14794661455E+00  0.29572608026E+00  0.33161615622E+00  0.00000000000E+00 0. -1.
<mgrwt>
<rscale>  1 0.65246993E+03</rscale>
<asrwt>0</asrwt>
<pdfrwt beam="1">  1        1 0.38816385E+00 0.65246993E+03</pdfrwt>
<pdfrwt beam="2">0</pdfrwt>
<totfact> 0.15094135E+00</totfact>
</mgrwt>
</event>
<event>
 6    1  0.2838103E-003  0.6471729E+03  0.7818608E-02  0.9812099E-01
          1   -1    0    0  502    0  0.00000000000E+00  0.00000000000E+00  0.10471203333E+03  0.10471203333E+03  0.00000000000E+00 0.  1.
         13   -1    0    0    0    0 -0.00000000000E+00 -0.00000000000E+00 -0.10000000000E+04  0.10000000000E+04  0.00000000000E+00 0.  1.
    9000005    2    1    2  501    0 -0.51373699158E-04  0.30429593210E-04 -0.89529180935E+03  0.11047081902E+04  0.64717289930E+03 0.  0.
         13    1    3    3    0    0 -0.55040138064E+02 -0.24929923285E+03 -0.10826819249E+03  0.27731124356E+03  0.00000000000E+00 0.  1.
          3    1    3    3  501    0  0.55040086690E+02  0.24929926328E+03 -0.78702361685E+03  0.82739694663E+03  0.00000000000E+00 0.  1.
         21    1    1    2  502  501  0.51373699158E-04 -0.30429593231E-04  0.38426717633E-02  0.38431356335E-02  0.00000000000E+00 0. -1.
<mgrwt>
<rscale>  1 0.64717290E+03</rscale>
<asrwt>0</asrwt>
<pdfrwt beam="1">  1        1 0.38077183E+00 0.64717290E+03</pdfrwt>
<pdfrwt beam="2">0</pdfrwt>
<totfact> 0.16289988E+00</totfact>
</mgrwt>
</event>
<event>
 6    1  0.2838103E-003  0.6452348E+03  0.7818608E-02  0.9815762E-01
          1   -1    0    0  502    0  0.00000000000E+00  0.00000000000E+00  0.10408201217E+03  0.10408201217E+03  0.00000000000E+00 0.  1.
         13   -1    0    0    0    0 -0.00000000000E+00 -0.00000000000E+00 -0.10000000000E+04  0.10000000000E+04  0.00000000000E+00 0.  1.
    9000005    2    1    2  501    0  0.80266369196E-06 -0.34319292581E-05 -0.89591799876E+03  0.11040820007E+04  0.64523484385E+03 0.  0.
         13    1    3    3    0    0 -0.22913775310E+03 -0.22022803313E+03 -0.35303349840E+03  0.47501278663E+03  0.00000000000E+00 0.  1.
          1    1    3    3  501    0  0.22913775391E+03  0.22022802970E+03 -0.54288450036E+03  0.62906921405E+03  0.00000000000E+00 0.  1.
         21    1    1    2  502  501 -0.80266366612E-06  0.34319292587E-05  0.10929217249E-04  0.11483474956E-04  0.00000000000E+00 0. -1.
<mgrwt>
<rscale>  1 0.64523484E+03</rscale>
<asrwt>0</asrwt>
<pdfrwt beam="1">  1        1 0.37848084E+00 0.64523484E+03</pdfrwt>
<pdfrwt beam="2">0</pdfrwt>
<totfact> 0.16679460E+00</totfact>
</mgrwt>
</event>
<event>
 6    1  0.2838103E-003  0.6558208E+03  0.7818608E-02  0.9795918E-01
          1   -1    0    0  502    0  0.00000000000E+00  0.00000000000E+00  0.10862078498E+03  0.10862078498E+03  0.00000000000E+00 0.  1.
         13   -1    0    0    0    0 -0.00000000000E+00 -0.00000000000E+00 -0.10000000000E+04  0.10000000000E+04  0.00000000000E+00 0.  1.
    9000005    2    1    2  501    0  0.99090249872E-02 -0.20507450587E-01 -0.89247464269E+03  0.11075251206E+04  0.65582078674E+03 0.  0.
         13    1    3    3    0    0  0.27226392398E+03  0.18182977089E+03 -0.41534952903E+03  0.52887138432E+03  0.00000000000E+00 0.  1.
          1    1    3    3  501    0 -0.27225401495E+03 -0.18185027834E+03 -0.47712511365E+03  0.57865373624E+03  0.00000000000E+00 0.  1.
         21    1    1    2  502  501 -0.99090249872E-02  0.20507450586E-01  0.10954276697E+01  0.10956644212E+01  0.00000000000E+00 0.  1.
<mgrwt>
<rscale>  1 0.65582079E+03</rscale>
<asrwt>0</asrwt>
<pdfrwt beam="1">  1        1 0.39498551E+00 0.65582079E+03</pdfrwt>
<pdfrwt beam="2">0</pdfrwt>
<totfact> 0.14068932E+00</totfact>
</mgrwt>
</event>
<event>
 6    1  0.2838103E-003  0.6319678E+03  0.7818608E-02  0.9841216E-01
          1   -1    0    0  502    0  0.00000000000E+00  0.00000000000E+00  0.99845824857E+02  0.99845824857E+02  0.00000000000E+00 0.  1.
         13   -1    0    0    0    0 -0.00000000000E+00 -0.00000000000E+00 -0.10000000000E+04  0.10000000000E+04  0.00000000000E+00 0.  1.
    9000005    2    1    2  501    0  0.10443172812E-04  0.65027496703E-05 -0.90015418214E+03  0.10998458107E+04  0.63196776475E+03 0.  0.
         13    1    3    3    0    0 -0.14242674119E+03 -0.22381840691E+03 -0.15133550969E+03  0.30542182694E+03  0.00000000000E+00 0.  1.
          3    1    3    3  501    0  0.14242675163E+03  0.22381841341E+03 -0.74881867246E+03  0.79442398377E+03  0.00000000000E+00 0.  1.
         21    1    1    2  502  501 -0.10443172823E-04 -0.65027496612E-05  0.70004369569E-05  0.14154565672E-04  0.00000000000E+00 0. -1.
<mgrwt>
<rscale>  1 0.63196776E+03</rscale>
<asrwt>0</asrwt>
<pdfrwt beam="1">  1        1 0.36307649E+00 0.63196776E+03</pdfrwt>
<pdfrwt beam="2">0</pdfrwt>
<totfact> 0.19539435E+00</totfact>
</mgrwt>
</event>
<event>
 6    1  0.2838103E-003  0.6087908E+03  0.7818608E-02  0.9887334E-01
          1   -1    0    0  502    0  0.00000000000E+00  0.00000000000E+00  0.92699371097E+02  0.92699371097E+02  0.00000000000E+00 0.  1.
         13   -1    0    0    0    0 -0.00000000000E+00 -0.00000000000E+00 -0.10000000000E+04  0.10000000000E+04  0.00000000000E+00 0.  1.
    9000005    2    1    2  501    0  0.25695051493E-01 -0.17972521114E-01 -0.90733709796E+03  0.10926512749E+04  0.60879076728E+03 0.  0.
         13    1    3    3    0    0 -0.19902517049E+03 -0.11624188488E+03 -0.81050542316E+03  0.84264003896E+03  0.00000000000E+00 0.  1.
          3    1    3    3  501    0  0.19905086554E+03  0.11622391236E+03 -0.96831674797E+02  0.25001123598E+03  0.00000000000E+00 0.  1.
         21    1    1    2  502  501 -0.25695051493E-01  0.17972521114E-01  0.36469058616E-01  0.48096147691E-01  0.00000000000E+00 0.  1.
<mgrwt>
<rscale>  1 0.60879077E+03</rscale>
<asrwt>0</asrwt>
<pdfrwt beam="1">  1        1 0.33708933E+00 0.60879077E+03</pdfrwt>
<pdfrwt beam="2">0</pdfrwt>
<totfact> 0.25466319E+00</totfact>
</mgrwt>
</event>
<event>
 6    1  0.2838103E-003  0.6460921E+03  0.7818608E-02  0.9814140E-01
          1   -1    0    0  502    0  0.00000000000E+00  0.00000000000E+00  0.10435947842E+03  0.10435947842E+03  0.00000000000E+00 0.  1.
         13   -1    0    0    0    0 -0.00000000000E+00 -0.00000000000E+00 -0.10000000000E+04  0.10000000000E+04  0.00000000000E+00 0.  1.
    9000005    2    1    2  501    0  0.30897641204E-03 -0.15856197453E-02 -0.89564009148E+03  0.11043578067E+04  0.64609209232E+03 0.  0.
         13    1    3    3    0    0 -0.21538828009E+03 -0.81839957591E+02 -0.60792106352E+02  0.23829723047E+03  0.00000000000E+00 0.  1.
          3    1    3    3  501    0  0.21538858906E+03  0.81838371972E+02 -0.83484798513E+03  0.86606057623E+03  0.00000000000E+00 0.  1.
         21    1    1    2  502  501 -0.30897641206E-03  0.15856197453E-02 -0.43009405929E-03  0.16717168719E-02  0.00000000000E+00 0.  1.
<mgrwt>
<rscale>  1 0.64609209E+03</rscale>
<asrwt>0</asrwt>
<pdfrwt beam="1">  1        1 0.37948981E+00 0.64609209E+03</pdfrwt>
<pdfrwt beam="2">0</pdfrwt>
<totfact> 0.16506842E+00</totfact>
</mgrwt>
</event>
<event>
 6    1  0.2838103E-003  0.6454350E+03  0.7818608E-02  0.9815383E-01
          1   -1    0    0  502    0  0.00000000000E+00  0.00000000000E+00  0.10431431344E+03  0.10431431344E+03  0.00000000000E+00 0.  1.
         13   -1    0    0    0    0 -0.00000000000E+00 -0.00000000000E+00 -0.10000000000E+04  0.10000000000E+04  0.00000000000E+00 0.  1.
    9000005    2    1    2  501    0  0.88159173505E-01  0.32054668358E+00 -0.89564775874E+03  0.11039797081E+04  0.64543487481E+03 0.  0.
         13    1    3    3    0    0  0.30042945967E+03  0.88345074077E+02 -0.31392954238E+03  0.44341230241E+03  0.00000000000E+00 0.  1.
          1    1    3    3  501    0 -0.30034130049E+03 -0.88024527394E+02 -0.58171821636E+03  0.66056740568E+03  0.00000000000E+00 0.  1.
         21    1    1    2  502  501 -0.88159173505E-01 -0.32054668358E+00 -0.37927826269E-01  0.33460534400E+00  0.00000000000E+00 0. -1.
<mgrwt>
<rscale>  1 0.64543496E+03</rscale>
<asrwt>0</asrwt>
<pdfrwt beam="1">  1        1 0.37932558E+00 0.64543496E+03</pdfrwt>
<pdfrwt beam="2">0</pdfrwt>
<totfact> 0.16536396E+00</totfact>
</mgrwt>
</event>
<event>
 6    1  0.3647427E-003  0.6518588E+03  0.7818608E-02  0.9803298E-01
          1   -1    0    0  502    0  0.00000000000E+00  0.00000000000E+00  0.10622997761E+03  0.10622997761E+03  0.00000000000E+00 0.  1.
         13   -1    0    0    0    0 -0.00000000000E+00 -0.00000000000E+00 -0.10000000000E+04  0.10000000000E+04  0.00000000000E+00 0.  1.
    9000005    2    1    2  501    0 -0.54714644193E-05  0.42480702973E-05 -0.89377002522E+03  0.11062299701E+04  0.65185879516E+03 0.  0.
         13    1    3    3    0    0  0.29501596000E+03 -0.13051229924E+03 -0.52579447131E+03  0.61686927543E+03  0.00000000000E+00 0.  1.
          3    1    3    3  501    0 -0.29501596547E+03  0.13051230348E+03 -0.36797555391E+03  0.48936069470E+03  0.00000000000E+00 0.  1.
         21    1    1    2  502  501  0.54714644436E-05 -0.42480702894E-05  0.28211784771E-05  0.74794433176E-05  0.00000000000E+00 0.  1.
<mgrwt>
<rscale>  1 0.65185880E+03</rscale>
<asrwt>0</asrwt>
<pdfrwt beam="1">  1        1 0.38629164E+00 0.65185880E+03</pdfrwt>
<pdfrwt beam="2">0</pdfrwt>
<totfact> 0.15386789E+00</totfact>
</mgrwt>
</event>
<event>
 6    1  0.2838103E-003  0.6493081E+03  0.7818608E-02  0.9808078E-01
          1   -1    0    0  502    0  0.00000000000E+00  0.00000000000E+00  0.10541605569E+03  0.10541605569E+03  0.00000000000E+00 0.  1.
         13   -1    0    0    0    0 -0.00000000000E+00 -0.00000000000E+00 -0.10000000000E+04  0.10000000000E+04  0.00000000000E+00 0.  1.
    9000005    2    1    2  501    0 -0.94029005089E-02  0.93590667837E-02 -0.89459661327E+03  0.11053977115E+04  0.64930809325E+03 0.  0.
         13    1    3    3    0    0 -0.29324690864E+03  0.92935825699E+02 -0.27060570389E+03  0.40970509407E+03  0.00000000000E+00 0.  1.
          1    1    3    3  501    0  0.29323750574E+03 -0.92926466633E+02 -0.62399090937E+03  0.69569261744E+03  0.00000000000E+00 0.  1.
         21    1    1    2  502  501  0.94029005089E-02 -0.93590667837E-02  0.12668950493E-01  0.18344180975E-01  0.00000000000E+00 0. -1.
<mgrwt>
<rscale>  1 0.64930809E+03</rscale>
<asrwt>0</asrwt>
<pdfrwt beam="1">  1        1 0.38333192E+00 0.64930809E+03</pdfrwt>
<pdfrwt beam="2">0</pdfrwt>
<totfact> 0.15865101E+00</totfact>
</mgrwt>
</event>
<event>
 6    1  0.3009198E-003  0.5976526E+03  0.7818608E-02  0.9910288E-01
          1   -1    0    0  502    0  0.00000000000E+00  0.00000000000E+00  0.89297169022E+02  0.89297169022E+02  0.00000000000E+00 0.  1.
         13   -1    0    0    0    0 -0.00000000000E+00 -0.00000000000E+00 -0.10000000000E+04  0.10000000000E+04  0.00000000000E+00 0.  1.
    9000005    2    1    2  501    0  0.11457211144E-04  0.73908873190E-05 -0.91070284646E+03  0.10892971484E+04  0.59765257714E+03 0.  0.
         13    1    3    3    0    0  0.16837639621E+03 -0.96835710900E+02 -0.41453213182E+02  0.19861050977E+03  0.00000000000E+00 0.  1.
          3    1    3    3  501    0 -0.16837638476E+03  0.96835718290E+02 -0.86924963327E+03  0.89068663863E+03  0.00000000000E+00 0.  1.
         21    1    1    2  502  501 -0.11457211134E-04 -0.73908873241E-05  0.15478034238E-04  0.20626741049E-04  0.00000000000E+00 0. -1.
<mgrwt>
<rscale>  1 0.59765258E+03</rscale>
<asrwt>0</asrwt>
<pdfrwt beam="1">  1        1 0.32471766E+00 0.59765258E+03</pdfrwt>
<pdfrwt beam="2">0</pdfrwt>
<totfact> 0.28868436E+00</totfact>
</mgrwt>
</event>
<event>
 6    1  0.2838103E-003  0.6518580E+03  0.7818608E-02  0.9803299E-01
          1   -1    0    0  502    0  0.00000000000E+00  0.00000000000E+00  0.10623096440E+03  0.10623096440E+03  0.00000000000E+00 0.  1.
         13   -1    0    0    0    0 -0.00000000000E+00 -0.00000000000E+00 -0.10000000000E+04  0.10000000000E+04  0.00000000000E+00 0.  1.
    9000005    2    1    2  501    0  0.29815429087E-04  0.40901844613E-04 -0.89377027331E+03  0.11062297257E+04  0.65185804011E+03 0.  0.
         13    1    3    3    0    0  0.24767706558E+03  0.10344378736E+03 -0.76065508182E+03  0.80662302190E+03  0.00000000000E+00 0.  1.
          3    1    3    3  501    0 -0.24767703577E+03 -0.10344374646E+03 -0.13311519150E+03  0.29960670375E+03  0.00000000000E+00 0.  1.
         21    1    1    2  502  501 -0.29815429097E-04 -0.40901844614E-04  0.12377112641E-02  0.12387457746E-02  0.00000000000E+00 0.  1.
<mgrwt>
<rscale>  1 0.65185804E+03</rscale>
<asrwt>0</asrwt>
<pdfrwt beam="1">  1        1 0.38629523E+00 0.65185804E+03</pdfrwt>
<pdfrwt beam="2">0</pdfrwt>
<totfact> 0.15386228E+00</totfact>
</mgrwt>
</event>
<event>
 6    1  0.2838103E-003  0.6399449E+03  0.7818608E-02  0.9825832E-01
          3   -1    0    0  502    0  0.00000000000E+00  0.00000000000E+00  0.10708575447E+03  0.10708575447E+03  0.00000000000E+00 0.  1.
         13   -1    0    0    0    0 -0.00000000000E+00 -0.00000000000E+00 -0.10000000000E+04  0.10000000000E+04  0.00000000000E+00 0.  1.
    9000005    2    1    2  501    0 -0.40137741699E-01  0.98852334783E-01 -0.89761696755E+03  0.11023818224E+04  0.63994488080E+03 0.  0.
         13    1    3    3    0    0  0.28929250215E+03 -0.64928910773E+02 -0.24163570409E+03  0.38248363200E+03  0.00000000000E+00 0.  1.
          3    1    3    3  501    0 -0.28933263989E+03  0.65027763107E+02 -0.65598126347E+03  0.71989819037E+03  0.00000000000E+00 0.  1.
         21    1    1    2  502  501  0.40137741699E-01 -0.98852334783E-01  0.47027220243E+01  0.47039321063E+01  0.00000000000E+00 0. -1.
<mgrwt>
<rscale>  1 0.63994489E+03</rscale>
<asrwt>0</asrwt>
<pdfrwt beam="1">  1        3 0.38940356E+00 0.63994489E+03</pdfrwt>
<pdfrwt beam="2">0</pdfrwt>
<totfact> 0.67450493E-02</totfact>
</mgrwt>
</event>
