<event>
 6    1  0.1270461E-001  0.3000000E+03  0.7818608E-02  0.1093470E+00
         21   -1    0    0  501  502  0.00000000000E+00  0.00000000000E+00  0.26242291993E+01  0.26242291993E+01  0.00000000000E+00 0. -1.
         13   -1    0    0    0    0 -0.00000000000E+00 -0.00000000000E+00 -0.10000000000E+04  0.10000000000E+04  0.00000000000E+00 0.  1.
    9000005    2    1    2  501    0 -0.21109318628E+02  0.37216110715E+02 -0.77333859220E+03  0.77453806209E+03  0.50979619546E+01 0.  0.
         13    1    3    3    0    0 -0.19593025617E+02  0.31839868174E+02 -0.69052573148E+03  0.69153701975E+03  0.00000000000E+00 0.  1.
          1    1    3    3  501    0 -0.15162930107E+01  0.53762425408E+01 -0.82812860719E+02  0.83001042335E+02  0.00000000000E+00 0.  1.
         -1    1    1    2    0  502  0.21109318628E+02 -0.37216110715E+02 -0.22403717860E+03  0.22808616711E+03  0.00000000000E+00 0. -1.
<mgrwt>
<rscale>  1 0.30000000E+03</rscale>
<asrwt>0</asrwt>
<pdfrwt beam="1">  1       21 0.95426718E-02 0.30000000E+03</pdfrwt>
<pdfrwt beam="2">0</pdfrwt>
<totfact> 0.93527383E+03</totfact>
</mgrwt>
</event>
<event>
 6    1  0.1270461E-001  0.3000000E+03  0.7818608E-02  0.1093470E+00
         21   -1    0    0  501  502  0.00000000000E+00  0.00000000000E+00  0.91199227008E+00  0.91199227008E+00  0.00000000000E+00 0. -1.
         13   -1    0    0    0    0 -0.00000000000E+00 -0.00000000000E+00 -0.10000000000E+04  0.10000000000E+04  0.00000000000E+00 0.  1.
    9000005    2    1    2  501    0 -0.28002195847E+02  0.10933308426E+02 -0.47468158404E+03  0.47564467232E+03  0.34040960163E+01 0.  0.
         13    1    3    3    0    0 -0.43876534890E+01  0.78533123643E+00 -0.84445488556E+02  0.84563046219E+02  0.00000000000E+00 0.  1.
          1    1    3    3  501    0 -0.23614542358E+02  0.10147977190E+02 -0.39023609549E+03  0.39108162610E+03  0.00000000000E+00 0.  1.
         -3    1    1    2    0  502  0.28002195847E+02 -0.10933308426E+02 -0.52440642369E+03  0.52526731995E+03  0.00000000000E+00 0. -1.
<mgrwt>
<rscale>  1 0.30000000E+03</rscale>
<asrwt>0</asrwt>
<pdfrwt beam="1">  1       21 0.33163425E-02 0.30000000E+03</pdfrwt>
<pdfrwt beam="2">0</pdfrwt>
<totfact> 0.57577047E+04</totfact>
</mgrwt>
</event>
<event>
 6    1  0.1270461E-001  0.3000000E+03  0.7818608E-02  0.1093470E+00
         21   -1    0    0  501  502  0.00000000000E+00  0.00000000000E+00  0.18091150490E+01  0.18091150490E+01  0.00000000000E+00 0. -1.
         13   -1    0    0    0    0 -0.00000000000E+00 -0.00000000000E+00 -0.10000000000E+04  0.10000000000E+04  0.00000000000E+00 0.  1.
    9000005    2    1    2  501    0  0.22480056499E+02 -0.21237327640E+02 -0.84104089053E+03  0.84164514353E+03  0.77711686640E+01 0.  0.
         13    1    3    3    0    0  0.17755156706E+02 -0.17035165458E+02 -0.57051380660E+03  0.57104417164E+03  0.00000000000E+00 0.  1.
          3    1    3    3  501    0  0.47248997921E+01 -0.42021621822E+01 -0.27052708393E+03  0.27060097189E+03  0.00000000000E+00 0.  1.
         -1    1    1    2    0  502 -0.22480056499E+02  0.21237327640E+02 -0.15714999442E+03  0.16016397152E+03  0.00000000000E+00 0. -1.
<mgrwt>
<rscale>  1 0.30000000E+03</rscale>
<asrwt>0</asrwt>
<pdfrwt beam="1">  1       21 0.65786141E-02 0.30000000E+03</pdfrwt>
<pdfrwt beam="2">0</pdfrwt>
<totfact> 0.17971908E+04</totfact>
</mgrwt>
</event>
<event>
 6    1  0.1270461E-001  0.3000000E+03  0.7818608E-02  0.1093470E+00
         21   -1    0    0  501  502  0.00000000000E+00  0.00000000000E+00  0.14145714685E+01  0.14145714685E+01  0.00000000000E+00 0. -1.
         13   -1    0    0    0    0 -0.00000000000E+00 -0.00000000000E+00 -0.10000000000E+04  0.10000000000E+04  0.00000000000E+00 0.  1.
    9000005    2    1    2  501    0  0.22481933999E+02  0.21622030394E+02 -0.77815408839E+03  0.77878724774E+03  0.35836304243E+01 0.  0.
         13    1    3    3    0    0  0.13967727928E+02  0.14103860474E+02 -0.45259537868E+03  0.45303045494E+03  0.00000000000E+00 0.  1.
          3    1    3    3  501    0  0.85142060708E+01  0.75181699197E+01 -0.32555870971E+03  0.32575679280E+03  0.00000000000E+00 0.  1.
         -3    1    1    2    0  502 -0.22481933999E+02 -0.21622030394E+02 -0.22043134014E+03  0.22262732373E+03  0.00000000000E+00 0. -1.
<mgrwt>
<rscale>  1 0.30000000E+03</rscale>
<asrwt>0</asrwt>
<pdfrwt beam="1">  1       21 0.51439071E-02 0.30000000E+03</pdfrwt>
<pdfrwt beam="2">0</pdfrwt>
<totfact> 0.27443520E+04</totfact>
</mgrwt>
</event>
<event>
 6    1  0.1270461E-001  0.3000000E+03  0.7818608E-02  0.1093470E+00
         21   -1    0    0  501  502  0.00000000000E+00  0.00000000000E+00  0.32397877564E+01  0.32397877564E+01  0.00000000000E+00 0. -1.
         13   -1    0    0    0    0 -0.00000000000E+00 -0.00000000000E+00 -0.10000000000E+04  0.10000000000E+04  0.00000000000E+00 0.  1.
    9000005    2    1    2  501    0  0.14715081322E+02  0.52479931616E+02 -0.37090609726E+03  0.37501685751E+03  0.97792430230E+01 0.  0.
         13    1    3    3    0    0  0.48429500142E+01  0.25657582190E+02 -0.20659369404E+03  0.20823717272E+03  0.00000000000E+00 0.  1.
          1    1    3    3  501    0  0.98721313082E+01  0.26822349426E+02 -0.16431240322E+03  0.16677968479E+03  0.00000000000E+00 0.  1.
         -1    1    1    2    0  502 -0.14715081322E+02 -0.52479931616E+02 -0.62585411498E+03  0.62822293024E+03  0.00000000000E+00 0. -1.
<mgrwt>
<rscale>  1 0.30000000E+03</rscale>
<asrwt>0</asrwt>
<pdfrwt beam="1">  1       21 0.11781071E-01 0.30000000E+03</pdfrwt>
<pdfrwt beam="2">0</pdfrwt>
<totfact> 0.64074855E+03</totfact>
</mgrwt>
</event>
<event>
 6    1  0.1270461E-001  0.3000000E+03  0.7818608E-02  0.1093470E+00
         21   -1    0    0  501  502  0.00000000000E+00  0.00000000000E+00  0.25923152779E+01  0.25923152779E+01  0.00000000000E+00 0. -1.
         13   -1    0    0    0    0 -0.00000000000E+00 -0.00000000000E+00 -0.10000000000E+04  0.10000000000E+04  0.00000000000E+00 0.  1.
    9000005    2    1    2  501    0  0.30903948237E+02  0.16370846816E+01 -0.89661248765E+03  0.89715320576E+03  0.34910648992E+01 0.  0.
         13    1    3    3    0    0  0.19770100577E+02  0.24999165433E+01 -0.59830086971E+03  0.59863263957E+03  0.00000000000E+00 0.  1.
          3    1    3    3  501    0  0.11133847661E+02 -0.86283186172E+00 -0.29831161794E+03  0.29852056619E+03  0.00000000000E+00 0.  1.
         -3    1    1    2    0  502 -0.30903948237E+02 -0.16370846816E+01 -0.10079519707E+03  0.10543910951E+03  0.00000000000E+00 0. -1.
<mgrwt>
<rscale>  1 0.30000000E+03</rscale>
<asrwt>0</asrwt>
<pdfrwt beam="1">  1       21 0.94266209E-02 0.30000000E+03</pdfrwt>
<pdfrwt beam="2">0</pdfrwt>
<totfact> 0.95587948E+03</totfact>
</mgrwt>
</event>
<event>
 6    1  0.1270461E-001  0.3000000E+03  0.7818608E-02  0.1093470E+00
         21   -1    0    0  501  502  0.00000000000E+00  0.00000000000E+00  0.68746382069E+01  0.68746382069E+01  0.00000000000E+00 0. -1.
         13   -1    0    0    0    0 -0.00000000000E+00 -0.00000000000E+00 -0.10000000000E+04  0.10000000000E+04  0.00000000000E+00 0.  1.
    9000005    2    1    2  501    0  0.75239889312E+01  0.75821397212E+02 -0.69479313001E+03  0.69896618557E+03  0.32772513692E+01 0.  0.
         13    1    3    3    0    0  0.49223252884E+01  0.36950570028E+02 -0.34945385109E+03  0.35143643516E+03  0.00000000000E+00 0.  1.
          3    1    3    3  501    0  0.26016636428E+01  0.38870827184E+02 -0.34533927891E+03  0.34752975041E+03  0.00000000000E+00 0.  1.
         -1    1    1    2    0  502 -0.75239889312E+01 -0.75821397212E+02 -0.29833223179E+03  0.30790845264E+03  0.00000000000E+00 0. -1.
<mgrwt>
<rscale>  1 0.30000000E+03</rscale>
<asrwt>0</asrwt>
<pdfrwt beam="1">  1       21 0.24998737E-01 0.30000000E+03</pdfrwt>
<pdfrwt beam="2">0</pdfrwt>
<totfact> 0.15597521E+03</totfact>
</mgrwt>
</event>
<event>
 6    1  0.1270461E-001  0.3000000E+03  0.7818608E-02  0.1093470E+00
         21   -1    0    0  501  502  0.00000000000E+00  0.00000000000E+00  0.10265529019E+01  0.10265529019E+01  0.00000000000E+00 0. -1.
         13   -1    0    0    0    0 -0.00000000000E+00 -0.00000000000E+00 -0.10000000000E+04  0.10000000000E+04  0.00000000000E+00 0.  1.
    9000005    2    1    2  501    0 -0.18737346169E+02  0.25491705403E+02 -0.57388516752E+03  0.57476259639E+03  0.26346773249E+01 0.  0.
         13    1    3    3    0    0 -0.11321789431E+02  0.13538788118E+02 -0.33201709718E+03  0.33248584108E+03  0.00000000000E+00 0.  1.
          1    1    3    3  501    0 -0.74155567380E+01  0.11952917285E+02 -0.24186807034E+03  0.24227675531E+03  0.00000000000E+00 0.  1.
         -3    1    1    2    0  502  0.18737346169E+02 -0.25491705403E+02 -0.42508827958E+03  0.42626395651E+03  0.00000000000E+00 0. -1.
<mgrwt>
<rscale>  1 0.30000000E+03</rscale>
<asrwt>0</asrwt>
<pdfrwt beam="1">  1       21 0.37329275E-02 0.30000000E+03</pdfrwt>
<pdfrwt beam="2">0</pdfrwt>
<totfact> 0.47227750E+04</totfact>
</mgrwt>
</event>
<event>
 6    1  0.1270461E-001  0.3000000E+03  0.7818608E-02  0.1093470E+00
         21   -1    0    0  501  502  0.00000000000E+00  0.00000000000E+00  0.19732272323E+01  0.19732272323E+01  0.00000000000E+00 0. -1.
         13   -1    0    0    0    0 -0.00000000000E+00 -0.00000000000E+00 -0.10000000000E+04  0.10000000000E+04  0.00000000000E+00 0.  1.
    9000005    2    1    2  501    0  0.35202617079E+02 -0.23990678936E+02 -0.63841747255E+03  0.63984945594E+03  0.39598101836E+01 0.  0.
         13    1    3    3    0    0  0.12174632590E+02 -0.62182975743E+01 -0.21434623127E+03  0.21478173983E+03  0.00000000000E+00 0.  1.
          3    1    3    3  501    0  0.23027984489E+02 -0.17772381361E+02 -0.42407124127E+03  0.42506771611E+03  0.00000000000E+00 0.  1.
         -3    1    1    2    0  502 -0.35202617079E+02  0.23990678936E+02 -0.35960930022E+03  0.36212377129E+03  0.00000000000E+00 0. -1.
<mgrwt>
<rscale>  1 0.30000000E+03</rscale>
<asrwt>0</asrwt>
<pdfrwt beam="1">  1       21 0.71753869E-02 0.30000000E+03</pdfrwt>
<pdfrwt beam="2">0</pdfrwt>
<totfact> 0.15454448E+04</totfact>
</mgrwt>
</event>
<event>
 6    1  0.1270461E-001  0.3000000E+03  0.7818608E-02  0.1093470E+00
         21   -1    0    0  501  502  0.00000000000E+00  0.00000000000E+00  0.23950873519E+01  0.23950873519E+01  0.00000000000E+00 0. -1.
         13   -1    0    0    0    0 -0.00000000000E+00 -0.00000000000E+00 -0.10000000000E+04  0.10000000000E+04  0.00000000000E+00 0.  1.
    9000005    2    1    2  501    0  0.12584023778E+02  0.37834139889E+02 -0.78902740166E+03  0.79004076579E+03  0.32235455284E+01 0.  0.
         13    1    3    3    0    0  0.11010880568E+02  0.34231024834E+02 -0.72720237072E+03  0.72809085322E+03  0.00000000000E+00 0.  1.
          3    1    3    3  501    0  0.15731432103E+01  0.36031150544E+01 -0.61825030936E+02  0.61949912574E+02  0.00000000000E+00 0.  1.
         -1    1    1    2    0  502 -0.12584023778E+02 -0.37834139889E+02 -0.20857751099E+03  0.21235432156E+03  0.00000000000E+00 0. -1.
<mgrwt>
<rscale>  1 0.30000000E+03</rscale>
<asrwt>0</asrwt>
<pdfrwt beam="1">  1       21 0.87094269E-02 0.30000000E+03</pdfrwt>
<pdfrwt beam="2">0</pdfrwt>
<totfact> 0.10998475E+04</totfact>
</mgrwt>
</event>
<event>
 6    1  0.1270461E-001  0.3000000E+03  0.7818608E-02  0.1093470E+00
         21   -1    0    0  501  502  0.00000000000E+00  0.00000000000E+00  0.10469715044E+02  0.10469715044E+02  0.00000000000E+00 0. -1.
         13   -1    0    0    0    0 -0.00000000000E+00 -0.00000000000E+00 -0.10000000000E+04  0.10000000000E+04  0.00000000000E+00 0.  1.
    9000005    2    1    2  501    0 -0.28253984991E+02  0.42241016734E+02 -0.93326355414E+03  0.93465061349E+03  0.28838627871E+01 0.  0.
         13    1    3    3    0    0 -0.83622166409E+01  0.14404050494E+02 -0.32127128018E+03  0.32170271805E+03  0.00000000000E+00 0.  1.
          1    1    3    3  501    0 -0.19891768350E+02  0.27836966240E+02 -0.61199227396E+03  0.61294789544E+03  0.00000000000E+00 0.  1.
         -1    1    1    2    0  502  0.28253984991E+02 -0.42241016734E+02 -0.56266730821E+02  0.75819101550E+02  0.00000000000E+00 0. -1.
<mgrwt>
<rscale>  1 0.30000000E+03</rscale>
<asrwt>0</asrwt>
<pdfrwt beam="1">  1       21 0.38071771E-01 0.30000000E+03</pdfrwt>
<pdfrwt beam="2">0</pdfrwt>
<totfact> 0.66934330E+02</totfact>
</mgrwt>
</event>
<event>
 6    1  0.1270461E-001  0.3000000E+03  0.7818608E-02  0.1093470E+00
         21   -1    0    0  501  502  0.00000000000E+00  0.00000000000E+00  0.96548867323E+01  0.96548867323E+01  0.00000000000E+00 0. -1.
         13   -1    0    0    0    0 -0.00000000000E+00 -0.00000000000E+00 -0.10000000000E+04  0.10000000000E+04  0.00000000000E+00 0.  1.
    9000005    2    1    2  501    0 -0.70450623850E+02  0.10280835573E+01 -0.84697942817E+03  0.84991113249E+03  0.32301743312E+01 0.  0.
         13    1    3    3    0    0 -0.65676501709E+02  0.14745486970E+00 -0.78969867948E+03  0.79242503052E+03  0.00000000000E+00 0.  1.
          1    1    3    3  501    0 -0.47741221412E+01  0.88062868756E+00 -0.57280748691E+02  0.57486101970E+02  0.00000000000E+00 0.  1.
         -1    1    1    2    0  502  0.70450623850E+02 -0.10280835573E+01 -0.14336568510E+03  0.15974375425E+03  0.00000000000E+00 0. -1.
<mgrwt>
<rscale>  1 0.30000000E+03</rscale>
<asrwt>0</asrwt>
<pdfrwt beam="1">  1       21 0.35108753E-01 0.30000000E+03</pdfrwt>
<pdfrwt beam="2">0</pdfrwt>
<totfact> 0.79075940E+02</totfact>
</mgrwt>
</event>
<event>
 6    1  0.1270461E-001  0.3000000E+03  0.7818608E-02  0.1093470E+00
         21   -1    0    0  501  502  0.00000000000E+00  0.00000000000E+00  0.11449332554E+01  0.11449332554E+01  0.00000000000E+00 0. -1.
         13   -1    0    0    0    0 -0.00000000000E+00 -0.00000000000E+00 -0.10000000000E+04  0.10000000000E+04  0.00000000000E+00 0.  1.
    9000005    2    1    2  501    0  0.23575942502E+02 -0.21616561329E+02 -0.65994782050E+03  0.66073162220E+03  0.34713109863E+01 0.  0.
         13    1    3    3    0    0  0.18387278408E+02 -0.14992281436E+02 -0.47335325280E+03  0.47394742583E+03  0.00000000000E+00 0.  1.
          3    1    3    3  501    0  0.51886640943E+01 -0.66242798926E+01 -0.18659456770E+03  0.18678419637E+03  0.00000000000E+00 0.  1.
         -1    1    1    2    0  502 -0.23575942502E+02  0.21616561329E+02 -0.33890724624E+03  0.34041331106E+03  0.00000000000E+00 0. -1.
<mgrwt>
<rscale>  1 0.30000000E+03</rscale>
<asrwt>0</asrwt>
<pdfrwt beam="1">  1       21 0.41634024E-02 0.30000000E+03</pdfrwt>
<pdfrwt beam="2">0</pdfrwt>
<totfact> 0.39302883E+04</totfact>
</mgrwt>
</event>
<event>
 6    1  0.1270461E-001  0.3000000E+03  0.7818608E-02  0.1093470E+00
         21   -1    0    0  501  502  0.00000000000E+00  0.00000000000E+00  0.74415291115E+01  0.74415291115E+01  0.00000000000E+00 0. -1.
         13   -1    0    0    0    0 -0.00000000000E+00 -0.00000000000E+00 -0.10000000000E+04  0.10000000000E+04  0.00000000000E+00 0.  1.
    9000005    2    1    2  501    0  0.70476062557E+02 -0.34992909192E+02 -0.70246193899E+03  0.70686312519E+03  0.33649561252E+01 0.  0.
         13    1    3    3    0    0  0.28183341810E+02 -0.15822653623E+02 -0.28616672294E+03  0.28798619835E+03  0.00000000000E+00 0.  1.
          3    1    3    3  501    0  0.42292720747E+02 -0.19170255570E+02 -0.41629521605E+03  0.41887692683E+03  0.00000000000E+00 0.  1.
         -3    1    1    2    0  502 -0.70476062557E+02  0.34992909192E+02 -0.29009653190E+03  0.30057840393E+03  0.00000000000E+00 0. -1.
<mgrwt>
<rscale>  1 0.30000000E+03</rscale>
<asrwt>0</asrwt>
<pdfrwt beam="1">  1       21 0.27060163E-01 0.30000000E+03</pdfrwt>
<pdfrwt beam="2">0</pdfrwt>
<totfact> 0.13345970E+03</totfact>
</mgrwt>
</event>
<event>
 6    1  0.1270461E-001  0.3000000E+03  0.7818608E-02  0.1093470E+00
         21   -1    0    0  501  502  0.00000000000E+00  0.00000000000E+00  0.98537940437E+01  0.98537940437E+01  0.00000000000E+00 0. -1.
         13   -1    0    0    0    0 -0.00000000000E+00 -0.00000000000E+00 -0.10000000000E+04  0.10000000000E+04  0.00000000000E+00 0.  1.
    9000005    2    1    2  501    0  0.15641277548E+02  0.32805768749E+02 -0.96493013473E+03  0.96561898564E+03  0.29987477517E+01 0.  0.
         13    1    3    3    0    0  0.29127176512E+01  0.37852584221E+01 -0.12969157672E+03  0.12977949444E+03  0.00000000000E+00 0.  1.
          3    1    3    3  501    0  0.12728559897E+02  0.29020510327E+02 -0.83523855801E+03  0.83583949120E+03  0.00000000000E+00 0.  1.
         -3    1    1    2    0  502 -0.15641277548E+02 -0.32805768749E+02 -0.25216071225E+02  0.44234808404E+02  0.00000000000E+00 0. -1.
<mgrwt>
<rscale>  1 0.30000000E+03</rscale>
<asrwt>0</asrwt>
<pdfrwt beam="1">  1       21 0.35832054E-01 0.30000000E+03</pdfrwt>
<pdfrwt beam="2">0</pdfrwt>
<totfact> 0.75840146E+02</totfact>
</mgrwt>
</event>
<event>
 6    1  0.1270461E-001  0.3000000E+03  0.7818608E-02  0.1093470E+00
         21   -1    0    0  501  502  0.00000000000E+00  0.00000000000E+00  0.33833491684E+01  0.33833491684E+01  0.00000000000E+00 0. -1.
         13   -1    0    0    0    0 -0.00000000000E+00 -0.00000000000E+00 -0.10000000000E+04  0.10000000000E+04  0.00000000000E+00 0.  1.
    9000005    2    1    2  501    0 -0.29393677465E+02 -0.17854609003E+02 -0.90260064260E+03  0.90327448272E+03  0.58391588235E+01 0.  0.
         13    1    3    3    0    0 -0.13088045587E+02 -0.10996658541E+02 -0.40946019951E+03  0.40981688401E+03  0.00000000000E+00 0.  1.
          3    1    3    3  501    0 -0.16305631878E+02 -0.68579504618E+01 -0.49314044309E+03  0.49345759871E+03  0.00000000000E+00 0.  1.
         -1    1    1    2    0  502  0.29393677465E+02  0.17854609003E+02 -0.94016008236E+02  0.10010886645E+03  0.00000000000E+00 0. -1.
<mgrwt>
<rscale>  1 0.30000000E+03</rscale>
<asrwt>0</asrwt>
<pdfrwt beam="1">  1       21 0.12303114E-01 0.30000000E+03</pdfrwt>
<pdfrwt beam="2">0</pdfrwt>
<totfact> 0.59224183E+03</totfact>
</mgrwt>
</event>
<event>
 6    1  0.1270461E-001  0.3000000E+03  0.7818608E-02  0.1093470E+00
         21   -1    0    0  501  502  0.00000000000E+00  0.00000000000E+00  0.18114963062E+01  0.18114963062E+01  0.00000000000E+00 0. -1.
         13   -1    0    0    0    0 -0.00000000000E+00 -0.00000000000E+00 -0.10000000000E+04  0.10000000000E+04  0.00000000000E+00 0.  1.
    9000005    2    1    2  501    0  0.34866271474E+02 -0.10288965861E+02 -0.75747849184E+03  0.75837191548E+03  0.57251102575E+01 0.  0.
         13    1    3    3    0    0  0.34390313002E+02 -0.98171143325E+01 -0.72024650480E+03  0.72113389675E+03  0.00000000000E+00 0.  1.
          1    1    3    3  501    0  0.47595847119E+00 -0.47185152855E+00 -0.37231987043E+02  0.37238018738E+02  0.00000000000E+00 0.  1.
         -3    1    1    2    0  502 -0.34866271474E+02  0.10288965861E+02 -0.24071001185E+03  0.24343958082E+03  0.00000000000E+00 0. -1.
<mgrwt>
<rscale>  1 0.30000000E+03</rscale>
<asrwt>0</asrwt>
<pdfrwt beam="1">  1       21 0.65872732E-02 0.30000000E+03</pdfrwt>
<pdfrwt beam="2">0</pdfrwt>
<totfact> 0.17930993E+04</totfact>
</mgrwt>
</event>
<event>
 6    1  0.1270461E-001  0.3000000E+03  0.7818608E-02  0.1093470E+00
         21   -1    0    0  501  502  0.00000000000E+00  0.00000000000E+00  0.39617884807E+01  0.39617884807E+01  0.00000000000E+00 0. -1.
         13   -1    0    0    0    0 -0.00000000000E+00 -0.00000000000E+00 -0.10000000000E+04  0.10000000000E+04  0.00000000000E+00 0.  1.
    9000005    2    1    2  501    0 -0.17377350228E+02  0.44996033156E+02 -0.81968742974E+03  0.82113341668E+03  0.67816086702E+01 0.  0.
         13    1    3    3    0    0 -0.58832925017E+01  0.86423936699E+01 -0.15321899205E+03  0.15357527022E+03  0.00000000000E+00 0.  1.
          1    1    3    3  501    0 -0.11494057726E+02  0.36353639486E+02 -0.66646843768E+03  0.66755814645E+03  0.00000000000E+00 0.  1.
         -3    1    1    2    0  502  0.17377350228E+02 -0.44996033156E+02 -0.17635078178E+03  0.18282837180E+03  0.00000000000E+00 0. -1.
<mgrwt>
<rscale>  1 0.30000000E+03</rscale>
<asrwt>0</asrwt>
<pdfrwt beam="1">  1       21 0.14406534E-01 0.30000000E+03</pdfrwt>
<pdfrwt beam="2">0</pdfrwt>
<totfact> 0.44367470E+03</totfact>
</mgrwt>
</event>
<event>
 6    1  0.1270461E-001  0.3000000E+03  0.7818608E-02  0.1093470E+00
         21   -1    0    0  501  502  0.00000000000E+00  0.00000000000E+00  0.12486102808E+02  0.12486102808E+02  0.00000000000E+00 0. -1.
         13   -1    0    0    0    0 -0.00000000000E+00 -0.00000000000E+00 -0.10000000000E+04  0.10000000000E+04  0.00000000000E+00 0.  1.
    9000005    2    1    2  501    0  0.36435756558E+02  0.89713739492E+02 -0.74631728146E+03  0.75257856762E+03  0.29826861511E+01 0.  0.
         13    1    3    3    0    0  0.34911525790E+02  0.87289672182E+02 -0.72469961083E+03  0.73077207626E+03  0.00000000000E+00 0.  1.
          3    1    3    3  501    0  0.15242307674E+01  0.24240673102E+01 -0.21617670635E+02  0.21806491361E+02  0.00000000000E+00 0.  1.
         -3    1    1    2    0  502 -0.36435756558E+02 -0.89713739492E+02 -0.24119661573E+03  0.25990753519E+03  0.00000000000E+00 0. -1.
<mgrwt>
<rscale>  1 0.30000000E+03</rscale>
<asrwt>0</asrwt>
<pdfrwt beam="1">  1       21 0.45404106E-01 0.30000000E+03</pdfrwt>
<pdfrwt beam="2">0</pdfrwt>
<totfact> 0.46220771E+02</totfact>
</mgrwt>
</event>
<event>
 6    1  0.1270461E-001  0.3000000E+03  0.7818608E-02  0.1093470E+00
         21   -1    0    0  501  502  0.00000000000E+00  0.00000000000E+00  0.15060623513E+01  0.15060623513E+01  0.00000000000E+00 0. -1.
         13   -1    0    0    0    0 -0.00000000000E+00 -0.00000000000E+00 -0.10000000000E+04  0.10000000000E+04  0.00000000000E+00 0.  1.
    9000005    2    1    2  501    0  0.31752115623E+02  0.36394193881E+01 -0.21757588274E+03  0.21993428017E+03  0.32218975279E+01 0.  0.
         13    1    3    3    0    0  0.19274152549E+02  0.62129401282E+00 -0.13042243140E+03  0.13184039433E+03  0.00000000000E+00 0.  1.
          1    1    3    3  501    0  0.12477963073E+02  0.30181253753E+01 -0.87153451337E+02  0.88093885844E+02  0.00000000000E+00 0.  1.
         -3    1    1    2    0  502 -0.31752115623E+02 -0.36394193881E+01 -0.78091805491E+03  0.78157178218E+03  0.00000000000E+00 0. -1.
<mgrwt>
<rscale>  1 0.30000000E+03</rscale>
<asrwt>0</asrwt>
<pdfrwt beam="1">  1       21 0.54766019E-02 0.30000000E+03</pdfrwt>
<pdfrwt beam="2">0</pdfrwt>
<totfact> 0.24653686E+04</totfact>
</mgrwt>
</event>
<event>
 6    1  0.1270461E-001  0.3000000E+03  0.7818608E-02  0.1093470E+00
         21   -1    0    0  501  502  0.00000000000E+00  0.00000000000E+00  0.20850994540E+01  0.20850994540E+01  0.00000000000E+00 0. -1.
         13   -1    0    0    0    0 -0.00000000000E+00 -0.00000000000E+00 -0.10000000000E+04  0.10000000000E+04  0.00000000000E+00 0.  1.
    9000005    2    1    2  501    0 -0.34841152746E+02 -0.45545732662E+01 -0.81854142867E+03  0.81930246222E+03  0.34357072385E+01 0.  0.
         13    1    3    3    0    0 -0.23221284782E+02 -0.16910455508E+01 -0.51861038161E+03  0.51913275337E+03  0.00000000000E+00 0.  1.
          1    1    3    3  501    0 -0.11619867964E+02 -0.28635277154E+01 -0.29993104706E+03  0.30016970885E+03  0.00000000000E+00 0.  1.
         -3    1    1    2    0  502  0.34841152746E+02  0.45545732662E+01 -0.17937347187E+03  0.18278263723E+03  0.00000000000E+00 0. -1.
<mgrwt>
<rscale>  1 0.30000000E+03</rscale>
<asrwt>0</asrwt>
<pdfrwt beam="1">  1       21 0.75821958E-02 0.30000000E+03</pdfrwt>
<pdfrwt beam="2">0</pdfrwt>
<totfact> 0.14034000E+04</totfact>
</mgrwt>
</event>
<event>
 6    1  0.1270461E-001  0.3000000E+03  0.7818608E-02  0.1093470E+00
         21   -1    0    0  501  502  0.00000000000E+00  0.00000000000E+00  0.20694808595E+01  0.20694808595E+01  0.00000000000E+00 0. -1.
         13   -1    0    0    0    0 -0.00000000000E+00 -0.00000000000E+00 -0.10000000000E+04  0.10000000000E+04  0.00000000000E+00 0.  1.
    9000005    2    1    2  501    0 -0.30257429716E+02  0.57557652982E+01 -0.86745056274E+03  0.86800360187E+03  0.33366408704E+01 0.  0.
         13    1    3    3    0    0 -0.96134192726E+00  0.82670885885E+00 -0.38538064353E+02  0.38558916348E+02  0.00000000000E+00 0.  1.
          1    1    3    3  501    0 -0.29296087789E+02  0.49290564393E+01 -0.82891249839E+03  0.82944468552E+03  0.00000000000E+00 0.  1.
         -3    1    1    2    0  502  0.30257429716E+02 -0.57557652982E+01 -0.13047995640E+03  0.13406587899E+03  0.00000000000E+00 0. -1.
<mgrwt>
<rscale>  1 0.30000000E+03</rscale>
<asrwt>0</asrwt>
<pdfrwt beam="1">  1       21 0.75254008E-02 0.30000000E+03</pdfrwt>
<pdfrwt beam="2">0</pdfrwt>
<totfact> 0.14220028E+04</totfact>
</mgrwt>
</event>
<event>
 6    1  0.1270461E-001  0.3000000E+03  0.7818608E-02  0.1093470E+00
         21   -1    0    0  501  502  0.00000000000E+00  0.00000000000E+00  0.16040287717E+01  0.16040287717E+01  0.00000000000E+00 0. -1.
         13   -1    0    0    0    0 -0.00000000000E+00 -0.00000000000E+00 -0.10000000000E+04  0.10000000000E+04  0.00000000000E+00 0.  1.
    9000005    2    1    2  501    0  0.17615705408E+02  0.29277312942E+02 -0.75803383482E+03  0.75882546557E+03  0.57722040619E+01 0.  0.
         13    1    3    3    0    0  0.80992010859E+01  0.18912601833E+02 -0.45796628845E+03  0.45842818950E+03  0.00000000000E+00 0.  1.
          3    1    3    3  501    0  0.95165043224E+01  0.10364711109E+02 -0.30006754637E+03  0.30039727608E+03  0.00000000000E+00 0.  1.
         -1    1    1    2    0  502 -0.17615705408E+02 -0.29277312942E+02 -0.24036213641E+03  0.24277856320E+03  0.00000000000E+00 0. -1.
<mgrwt>
<rscale>  1 0.30000000E+03</rscale>
<asrwt>0</asrwt>
<pdfrwt beam="1">  1       21 0.58328442E-02 0.30000000E+03</pdfrwt>
<pdfrwt beam="2">0</pdfrwt>
<totfact> 0.22123329E+04</totfact>
</mgrwt>
</event>
<event>
 6    1  0.1270461E-001  0.3000000E+03  0.7818608E-02  0.1093470E+00
         21   -1    0    0  501  502  0.00000000000E+00  0.00000000000E+00  0.19654180720E+01  0.19654180720E+01  0.00000000000E+00 0. -1.
         13   -1    0    0    0    0 -0.00000000000E+00 -0.00000000000E+00 -0.10000000000E+04  0.10000000000E+04  0.00000000000E+00 0.  1.
    9000005    2    1    2  501    0  0.36841196476E+02 -0.16623951048E+02 -0.70369803624E+03  0.70486672801E+03  0.35423929706E+01 0.  0.
         13    1    3    3    0    0  0.30105168606E+02 -0.14304220376E+02 -0.59897069840E+03  0.59989734909E+03  0.00000000000E+00 0.  1.
          1    1    3    3  501    0  0.67360278696E+01 -0.23197306719E+01 -0.10472733784E+03  0.10496937893E+03  0.00000000000E+00 0.  1.
         -1    1    1    2    0  502 -0.36841196476E+02  0.16623951048E+02 -0.29433654569E+03  0.29709869006E+03  0.00000000000E+00 0. -1.
<mgrwt>
<rscale>  1 0.30000000E+03</rscale>
<asrwt>0</asrwt>
<pdfrwt beam="1">  1       21 0.71469899E-02 0.30000000E+03</pdfrwt>
<pdfrwt beam="2">0</pdfrwt>
<totfact> 0.15561677E+04</totfact>
</mgrwt>
</event>
<event>
 6    1  0.1270461E-001  0.3000000E+03  0.7818608E-02  0.1093470E+00
         21   -1    0    0  501  502  0.00000000000E+00  0.00000000000E+00  0.31114608606E+01  0.31114608606E+01  0.00000000000E+00 0. -1.
         13   -1    0    0    0    0 -0.00000000000E+00 -0.00000000000E+00 -0.10000000000E+04  0.10000000000E+04  0.00000000000E+00 0.  1.
    9000005    2    1    2  501    0  0.29314795682E+02  0.25629495799E+02 -0.85740687795E+03  0.85829653722E+03  0.31879692228E+01 0.  0.
         13    1    3    3    0    0  0.17034459827E+02  0.13295064328E+02 -0.49742279904E+03  0.49789192860E+03  0.00000000000E+00 0.  1.
          1    1    3    3  501    0  0.12280335855E+02  0.12334431470E+02 -0.35998407891E+03  0.36040460862E+03  0.00000000000E+00 0.  1.
         -3    1    1    2    0  502 -0.29314795682E+02 -0.25629495799E+02 -0.13948166119E+03  0.14481492364E+03  0.00000000000E+00 0. -1.
<mgrwt>
<rscale>  1 0.30000000E+03</rscale>
<asrwt>0</asrwt>
<pdfrwt beam="1">  1       21 0.11314427E-01 0.30000000E+03</pdfrwt>
<pdfrwt beam="2">0</pdfrwt>
<totfact> 0.68930349E+03</totfact>
</mgrwt>
</event>
<event>
 6    1  0.1270461E-001  0.3000000E+03  0.7818608E-02  0.1093470E+00
         21   -1    0    0  501  502  0.00000000000E+00  0.00000000000E+00  0.12375829747E+01  0.12375829747E+01  0.00000000000E+00 0. -1.
         13   -1    0    0    0    0 -0.00000000000E+00 -0.00000000000E+00 -0.10000000000E+04  0.10000000000E+04  0.00000000000E+00 0.  1.
    9000005    2    1    2  501    0 -0.33673936968E+02 -0.86107351523E+01 -0.56914505025E+03  0.57021651548E+03  0.35647593660E+01 0.  0.
         13    1    3    3    0    0 -0.27285411681E+02 -0.58252668389E+01 -0.44025529762E+03  0.44113847543E+03  0.00000000000E+00 0.  1.
          1    1    3    3  501    0 -0.63885252876E+01 -0.27854683133E+01 -0.12888975263E+03  0.12907804005E+03  0.00000000000E+00 0.  1.
         -3    1    1    2    0  502  0.33673936968E+02  0.86107351523E+01 -0.42961736677E+03  0.43102106749E+03  0.00000000000E+00 0. -1.
<mgrwt>
<rscale>  1 0.30000000E+03</rscale>
<asrwt>0</asrwt>
<pdfrwt beam="1">  1       21 0.45003112E-02 0.30000000E+03</pdfrwt>
<pdfrwt beam="2">0</pdfrwt>
<totfact> 0.34454145E+04</totfact>
</mgrwt>
</event>
<event>
 6    1  0.1270461E-001  0.3000000E+03  0.7818608E-02  0.1093470E+00
         21   -1    0    0  501  502  0.00000000000E+00  0.00000000000E+00  0.10099218171E+01  0.10099218171E+01  0.00000000000E+00 0. -1.
         13   -1    0    0    0    0 -0.00000000000E+00 -0.00000000000E+00 -0.10000000000E+04  0.10000000000E+04  0.00000000000E+00 0.  1.
    9000005    2    1    2  501    0  0.96193593701E-01 -0.30110907343E+02 -0.65694390830E+03  0.65764093905E+03  0.31032352758E+01 0.  0.
         13    1    3    3    0    0 -0.98483440478E+00 -0.36962373722E+01 -0.88382386839E+02  0.88465125179E+02  0.00000000000E+00 0.  1.
          1    1    3    3  501    0  0.10810279985E+01 -0.26414669971E+02 -0.56856152146E+03  0.56917581387E+03  0.00000000000E+00 0.  1.
         -3    1    1    2    0  502 -0.96193593701E-01  0.30110907343E+02 -0.34204616988E+03  0.34336898277E+03  0.00000000000E+00 0. -1.
<mgrwt>
<rscale>  1 0.30000000E+03</rscale>
<asrwt>0</asrwt>
<pdfrwt beam="1">  1       21 0.36724507E-02 0.30000000E+03</pdfrwt>
<pdfrwt beam="2">0</pdfrwt>
<totfact> 0.48540456E+04</totfact>
</mgrwt>
</event>
<event>
 6    1  0.1270461E-001  0.3000000E+03  0.7818608E-02  0.1093470E+00
         21   -1    0    0  501  502  0.00000000000E+00  0.00000000000E+00  0.26781548891E+02  0.26781548891E+02  0.00000000000E+00 0. -1.
         13   -1    0    0    0    0 -0.00000000000E+00 -0.00000000000E+00 -0.10000000000E+04  0.10000000000E+04  0.00000000000E+00 0.  1.
    9000005    2    1    2  501    0  0.49209013701E+02  0.77672767472E+02 -0.91128637630E+03  0.91592052000E+03  0.35990961029E+01 0.  0.
         13    1    3    3    0    0  0.43178370792E+02  0.67188474240E+02 -0.78004200207E+03  0.78412000852E+03  0.00000000000E+00 0.  1.
          1    1    3    3  501    0  0.60306429091E+01  0.10484293233E+02 -0.13124437423E+03  0.13180051148E+03  0.00000000000E+00 0.  1.
         -1    1    1    2    0  502 -0.49209013701E+02 -0.77672767472E+02 -0.61932074808E+02  0.11086102889E+03  0.00000000000E+00 0. -1.
<mgrwt>
<rscale>  1 0.30000000E+03</rscale>
<asrwt>0</asrwt>
<pdfrwt beam="1">  1       21 0.97387656E-01 0.30000000E+03</pdfrwt>
<pdfrwt beam="2">0</pdfrwt>
<totfact> 0.78866343E+01</totfact>
</mgrwt>
</event>
<event>
 6    1  0.1270461E-001  0.3000000E+03  0.7818608E-02  0.1093470E+00
         21   -1    0    0  501  502  0.00000000000E+00  0.00000000000E+00  0.21692600598E+01  0.21692600598E+01  0.00000000000E+00 0. -1.
         13   -1    0    0    0    0 -0.00000000000E+00 -0.00000000000E+00 -0.10000000000E+04  0.10000000000E+04  0.00000000000E+00 0.  1.
    9000005    2    1    2  501    0 -0.89887369389E+01 -0.31285275300E+02 -0.85655492176E+03  0.85719194237E+03  0.56680004176E+01 0.  0.
         13    1    3    3    0    0 -0.95006302323E+01 -0.25751597338E+02 -0.69691223701E+03  0.69745255956E+03  0.00000000000E+00 0.  1.
          1    1    3    3  501    0  0.51189329345E+00 -0.55336779615E+01 -0.15964268475E+03  0.15973938281E+03  0.00000000000E+00 0.  1.
         -1    1    1    2    0  502  0.89887369389E+01  0.31285275300E+02 -0.14127581818E+03  0.14497731769E+03  0.00000000000E+00 0. -1.
<mgrwt>
<rscale>  1 0.30000000E+03</rscale>
<asrwt>0</asrwt>
<pdfrwt beam="1">  1       21 0.78882350E-02 0.30000000E+03</pdfrwt>
<pdfrwt beam="2">0</pdfrwt>
<totfact> 0.13093341E+04</totfact>
</mgrwt>
</event>
<event>
 6    1  0.1270461E-001  0.3000000E+03  0.7818608E-02  0.1093470E+00
         21   -1    0    0  501  502  0.00000000000E+00  0.00000000000E+00  0.63454298620E+01  0.63454298620E+01  0.00000000000E+00 0. -1.
         13   -1    0    0    0    0 -0.00000000000E+00 -0.00000000000E+00 -0.10000000000E+04  0.10000000000E+04  0.00000000000E+00 0.  1.
    9000005    2    1    2  501    0 -0.11580740757E+02 -0.47066905215E+02 -0.89607047581E+03  0.89738643487E+03  0.32724234257E+01 0.  0.
         13    1    3    3    0    0 -0.20520383446E+01 -0.88488939262E+01 -0.14566962370E+03  0.14595257124E+03  0.00000000000E+00 0.  1.
          1    1    3    3  501    0 -0.95287024129E+01 -0.38218011289E+02 -0.75040085211E+03  0.75143386362E+03  0.00000000000E+00 0.  1.
         -1    1    1    2    0  502  0.11580740757E+02  0.47066905215E+02 -0.97584094333E+02  0.10895899499E+03  0.00000000000E+00 0. -1.
<mgrwt>
<rscale>  1 0.30000000E+03</rscale>
<asrwt>0</asrwt>
<pdfrwt beam="1">  1       21 0.23074339E-01 0.30000000E+03</pdfrwt>
<pdfrwt beam="2">0</pdfrwt>
<totfact> 0.18228584E+03</totfact>
</mgrwt>
</event>
<event>
 6    1  0.1270461E-001  0.3000000E+03  0.7818608E-02  0.1093470E+00
         21   -1    0    0  501  502  0.00000000000E+00  0.00000000000E+00  0.12354574967E+01  0.12354574967E+01  0.00000000000E+00 0. -1.
         13   -1    0    0    0    0 -0.00000000000E+00 -0.00000000000E+00 -0.10000000000E+04  0.10000000000E+04  0.00000000000E+00 0.  1.
    9000005    2    1    2  501    0 -0.20725352101E+02  0.25583424013E+02 -0.67259362312E+03  0.67340696506E+03  0.32721432696E+01 0.  0.
         13    1    3    3    0    0 -0.30648792933E+01  0.37987844546E+01 -0.12580026646E+03  0.12589492162E+03  0.00000000000E+00 0.  1.
          3    1    3    3  501    0 -0.17660472808E+02  0.21784639559E+02 -0.54679335666E+03  0.54751204344E+03  0.00000000000E+00 0.  1.
         -1    1    1    2    0  502  0.20725352101E+02 -0.25583424013E+02 -0.32617091938E+03  0.32782849244E+03  0.00000000000E+00 0. -1.
<mgrwt>
<rscale>  1 0.30000000E+03</rscale>
<asrwt>0</asrwt>
<pdfrwt beam="1">  1       21 0.44925822E-02 0.30000000E+03</pdfrwt>
<pdfrwt beam="2">0</pdfrwt>
<totfact> 0.34554783E+04</totfact>
</mgrwt>
</event>
<event>
 6    1  0.1270461E-001  0.3000000E+03  0.7818608E-02  0.1093470E+00
         21   -1    0    0  501  502  0.00000000000E+00  0.00000000000E+00  0.15437036823E+01  0.15437036823E+01  0.00000000000E+00 0. -1.
         13   -1    0    0    0    0 -0.00000000000E+00 -0.00000000000E+00 -0.10000000000E+04  0.10000000000E+04  0.00000000000E+00 0.  1.
    9000005    2    1    2  501    0  0.28171504864E+02 -0.26991521696E+02 -0.55165148912E+03  0.55303872972E+03  0.32086129944E+01 0.  0.
         13    1    3    3    0    0  0.28250799847E+02 -0.26933470781E+02 -0.54920965256E+03  0.55059491644E+03  0.00000000000E+00 0.  1.
          1    1    3    3  501    0 -0.79294982766E-01 -0.58050914664E-01 -0.24418365543E+01  0.24438132827E+01  0.00000000000E+00 0.  1.
         -3    1    1    2    0  502 -0.28171504864E+02  0.26991521696E+02 -0.44680480720E+03  0.44850497396E+03  0.00000000000E+00 0. -1.
<mgrwt>
<rscale>  1 0.30000000E+03</rscale>
<asrwt>0</asrwt>
<pdfrwt beam="1">  1       21 0.56134798E-02 0.30000000E+03</pdfrwt>
<pdfrwt beam="2">0</pdfrwt>
<totfact> 0.23631297E+04</totfact>
</mgrwt>
</event>
<event>
 6    1  0.1270461E-001  0.3000000E+03  0.7818608E-02  0.1093470E+00
         21   -1    0    0  501  502  0.00000000000E+00  0.00000000000E+00  0.47207610505E+01  0.47207610505E+01  0.00000000000E+00 0. -1.
         13   -1    0    0    0    0 -0.00000000000E+00 -0.00000000000E+00 -0.10000000000E+04  0.10000000000E+04  0.00000000000E+00 0.  1.
    9000005    2    1    2  501    0  0.11572305030E+02 -0.38282085228E+02 -0.90605074837E+03  0.90693957766E+03  0.34644799317E+01 0.  0.
         13    1    3    3    0    0  0.85931605238E+01 -0.24530127365E+02 -0.55995316925E+03  0.56055608222E+03  0.00000000000E+00 0.  1.
          1    1    3    3  501    0  0.29791445063E+01 -0.13751957863E+02 -0.34609757912E+03  0.34638349545E+03  0.00000000000E+00 0.  1.
         -1    1    1    2    0  502 -0.11572305030E+02  0.38282085228E+02 -0.89228490582E+02  0.97781183388E+02  0.00000000000E+00 0. -1.
<mgrwt>
<rscale>  1 0.30000000E+03</rscale>
<asrwt>0</asrwt>
<pdfrwt beam="1">  1       21 0.17166440E-01 0.30000000E+03</pdfrwt>
<pdfrwt beam="2">0</pdfrwt>
<totfact> 0.32025186E+03</totfact>
</mgrwt>
</event>
<event>
 6    1  0.1270461E-001  0.3000000E+03  0.7818608E-02  0.1093470E+00
         21   -1    0    0  501  502  0.00000000000E+00  0.00000000000E+00  0.89766572942E+01  0.89766572942E+01  0.00000000000E+00 0. -1.
         13   -1    0    0    0    0 -0.00000000000E+00 -0.00000000000E+00 -0.10000000000E+04  0.10000000000E+04  0.00000000000E+00 0.  1.
    9000005    2    1    2  501    0  0.12024025490E+02  0.90615723198E+02 -0.62774610828E+03  0.63437535520E+03  0.33359170990E+01 0.  0.
         13    1    3    3    0    0  0.47855451992E+00  0.23149366404E+01 -0.13091659337E+02  0.13303363871E+02  0.00000000000E+00 0.  1.
          3    1    3    3  501    0  0.11545470970E+02  0.88300786558E+02 -0.61465444894E+03  0.62107199133E+03  0.00000000000E+00 0.  1.
         -1    1    1    2    0  502 -0.12024025490E+02 -0.90615723198E+02 -0.36327723443E+03  0.37460130210E+03  0.00000000000E+00 0. -1.
<mgrwt>
<rscale>  1 0.30000000E+03</rscale>
<asrwt>0</asrwt>
<pdfrwt beam="1">  1       21 0.32642459E-01 0.30000000E+03</pdfrwt>
<pdfrwt beam="2">0</pdfrwt>
<totfact> 0.91728903E+02</totfact>
</mgrwt>
</event>
<event>
 6    1  0.1270461E-001  0.3000000E+03  0.7818608E-02  0.1093470E+00
         21   -1    0    0  501  502  0.00000000000E+00  0.00000000000E+00  0.85728389398E+01  0.85728389398E+01  0.00000000000E+00 0. -1.
         13   -1    0    0    0    0 -0.00000000000E+00 -0.00000000000E+00 -0.10000000000E+04  0.10000000000E+04  0.00000000000E+00 0.  1.
    9000005    2    1    2  501    0 -0.34100951730E+02 -0.40965680341E+02 -0.90802357358E+03  0.90959193028E+03  0.30996090377E+01 0.  0.
         13    1    3    3    0    0 -0.55711310926E+01 -0.51048095829E+01 -0.12246008700E+03  0.12269298876E+03  0.00000000000E+00 0.  1.
          3    1    3    3  501    0 -0.28529820638E+02 -0.35860870759E+02 -0.78556348658E+03  0.78689894152E+03  0.00000000000E+00 0.  1.
         -3    1    1    2    0  502  0.34100951730E+02  0.40965680341E+02 -0.83403587477E+02  0.98980908658E+02  0.00000000000E+00 0. -1.
<mgrwt>
<rscale>  1 0.30000000E+03</rscale>
<asrwt>0</asrwt>
<pdfrwt beam="1">  1       21 0.31174026E-01 0.30000000E+03</pdfrwt>
<pdfrwt beam="2">0</pdfrwt>
<totfact> 0.10066849E+03</totfact>
</mgrwt>
</event>
<event>
 6    1  0.1270461E-001  0.3000000E+03  0.7818608E-02  0.1093470E+00
         21   -1    0    0  501  502  0.00000000000E+00  0.00000000000E+00  0.25627681890E+01  0.25627681890E+01  0.00000000000E+00 0. -1.
         13   -1    0    0    0    0 -0.00000000000E+00 -0.00000000000E+00 -0.10000000000E+04  0.10000000000E+04  0.00000000000E+00 0.  1.
    9000005    2    1    2  501    0  0.15060846115E+02  0.44562004765E+02 -0.68317101306E+03  0.68479578186E+03  0.31667664350E+01 0.  0.
         13    1    3    3    0    0  0.33731742666E+01  0.11202132887E+02 -0.18965929848E+03  0.19001977683E+03  0.00000000000E+00 0.  1.
          3    1    3    3  501    0  0.11687671848E+02  0.33359871878E+02 -0.49351171457E+03  0.49477600502E+03  0.00000000000E+00 0.  1.
         -1    1    1    2    0  502 -0.15060846115E+02 -0.44562004765E+02 -0.31426621875E+03  0.31776698633E+03  0.00000000000E+00 0. -1.
<mgrwt>
<rscale>  1 0.30000000E+03</rscale>
<asrwt>0</asrwt>
<pdfrwt beam="1">  1       21 0.93191767E-02 0.30000000E+03</pdfrwt>
<pdfrwt beam="2">0</pdfrwt>
<totfact> 0.97557055E+03</totfact>
</mgrwt>
</event>
<event>
 6    1  0.1270461E-001  0.3000000E+03  0.7818608E-02  0.1093470E+00
         21   -1    0    0  501  502  0.00000000000E+00  0.00000000000E+00  0.12114465104E+01  0.12114465104E+01  0.00000000000E+00 0. -1.
         13   -1    0    0    0    0 -0.00000000000E+00 -0.00000000000E+00 -0.10000000000E+04  0.10000000000E+04  0.00000000000E+00 0.  1.
    9000005    2    1    2  501    0  0.24348868273E+02 -0.23787678012E+02 -0.60115195282E+03  0.60212049547E+03  0.25883725821E+01 0.  0.
         13    1    3    3    0    0  0.19644212697E+02 -0.17713154263E+02 -0.46194495417E+03  0.46270162266E+03  0.00000000000E+00 0.  1.
          3    1    3    3  501    0  0.47046555769E+01 -0.60745237492E+01 -0.13920699865E+03  0.13941887281E+03  0.00000000000E+00 0.  1.
         -3    1    1    2    0  502 -0.24348868273E+02  0.23787678012E+02 -0.39763660067E+03  0.39909095104E+03  0.00000000000E+00 0. -1.
<mgrwt>
<rscale>  1 0.30000000E+03</rscale>
<asrwt>0</asrwt>
<pdfrwt beam="1">  1       21 0.44052693E-02 0.30000000E+03</pdfrwt>
<pdfrwt beam="2">0</pdfrwt>
<totfact> 0.35723900E+04</totfact>
</mgrwt>
</event>
<event>
 6    1  0.1270461E-001  0.3000000E+03  0.7818608E-02  0.1093470E+00
         21   -1    0    0  501  502  0.00000000000E+00  0.00000000000E+00  0.16546435649E+01  0.16546435649E+01  0.00000000000E+00 0. -1.
         13   -1    0    0    0    0 -0.00000000000E+00 -0.00000000000E+00 -0.10000000000E+04  0.10000000000E+04  0.00000000000E+00 0.  1.
    9000005    2    1    2  501    0 -0.26493409724E+02 -0.17701870573E+02 -0.81011236459E+03  0.81074388903E+03  0.28902157519E+01 0.  0.
         13    1    3    3    0    0 -0.26685630242E+01 -0.28440114164E+01 -0.90743087003E+02  0.90826854335E+02  0.00000000000E+00 0.  1.
          1    1    3    3  501    0 -0.23824846699E+02 -0.14857859156E+02 -0.71936927759E+03  0.71991703469E+03  0.00000000000E+00 0.  1.
         -3    1    1    2    0  502  0.26493409724E+02  0.17701870573E+02 -0.18823299184E+03  0.19091075454E+03  0.00000000000E+00 0. -1.
<mgrwt>
<rscale>  1 0.30000000E+03</rscale>
<asrwt>0</asrwt>
<pdfrwt beam="1">  1       21 0.60168984E-02 0.30000000E+03</pdfrwt>
<pdfrwt beam="2">0</pdfrwt>
<totfact> 0.20969700E+04</totfact>
</mgrwt>
</event>
<event>
 6    1  0.1270461E-001  0.3000000E+03  0.7818608E-02  0.1093470E+00
         21   -1    0    0  501  502  0.00000000000E+00  0.00000000000E+00  0.21071290704E+01  0.21071290704E+01  0.00000000000E+00 0. -1.
         13   -1    0    0    0    0 -0.00000000000E+00 -0.00000000000E+00 -0.10000000000E+04  0.10000000000E+04  0.00000000000E+00 0.  1.
    9000005    2    1    2  501    0  0.27587601424E+02 -0.14032471680E+02 -0.86872456847E+03  0.86928229565E+03  0.33686269037E+01 0.  0.
         13    1    3    3    0    0  0.19487396649E+02 -0.10247779070E+02 -0.57392097235E+03  0.57434315362E+03  0.00000000000E+00 0.  1.
          1    1    3    3  501    0  0.81002047750E+01 -0.37846926101E+01 -0.29480359612E+03  0.29493914203E+03  0.00000000000E+00 0.  1.
         -1    1    1    2    0  502 -0.27587601424E+02  0.14032471680E+02 -0.12916830245E+03  0.13282483342E+03  0.00000000000E+00 0. -1.
<mgrwt>
<rscale>  1 0.30000000E+03</rscale>
<asrwt>0</asrwt>
<pdfrwt beam="1">  1       21 0.76623037E-02 0.30000000E+03</pdfrwt>
<pdfrwt beam="2">0</pdfrwt>
<totfact> 0.13777936E+04</totfact>
</mgrwt>
</event>
<event>
 6    1  0.1270461E-001  0.3000000E+03  0.7818608E-02  0.1093470E+00
         21   -1    0    0  501  502  0.00000000000E+00  0.00000000000E+00  0.60356654597E+01  0.60356654597E+01  0.00000000000E+00 0. -1.
         13   -1    0    0    0    0 -0.00000000000E+00 -0.00000000000E+00 -0.10000000000E+04  0.10000000000E+04  0.00000000000E+00 0.  1.
    9000005    2    1    2  501    0 -0.13525412786E+02 -0.68712274673E+02 -0.71454817623E+03  0.71797715924E+03  0.27913351215E+01 0.  0.
         13    1    3    3    0    0 -0.11311991375E+02 -0.52155261517E+02 -0.55029302977E+03  0.55287480596E+03  0.00000000000E+00 0.  1.
          1    1    3    3  501    0 -0.22134214110E+01 -0.16557013157E+02 -0.16425514646E+03  0.16510235328E+03  0.00000000000E+00 0.  1.
         -3    1    1    2    0  502  0.13525412786E+02  0.68712274673E+02 -0.27941615831E+03  0.28805850622E+03  0.00000000000E+00 0. -1.
<mgrwt>
<rscale>  1 0.30000000E+03</rscale>
<asrwt>0</asrwt>
<pdfrwt beam="1">  1       21 0.21947921E-01 0.30000000E+03</pdfrwt>
<pdfrwt beam="2">0</pdfrwt>
<totfact> 0.20077330E+03</totfact>
</mgrwt>
</event>
<event>
 6    1  0.1270461E-001  0.3000000E+03  0.7818608E-02  0.1093470E+00
         21   -1    0    0  501  502  0.00000000000E+00  0.00000000000E+00  0.14319102253E+01  0.14319102253E+01  0.00000000000E+00 0. -1.
         13   -1    0    0    0    0 -0.00000000000E+00 -0.00000000000E+00 -0.10000000000E+04  0.10000000000E+04  0.00000000000E+00 0.  1.
    9000005    2    1    2  501    0  0.31838954216E+02  0.16511910003E+01 -0.76787513413E+03  0.76854634773E+03  0.38498763537E+01 0.  0.
         13    1    3    3    0    0  0.22263801750E+02  0.62486225838E+00 -0.49369064257E+03  0.49419279424E+03  0.00000000000E+00 0.  1.
          3    1    3    3  501    0  0.95751524659E+01  0.10263287419E+01 -0.27418449156E+03  0.27435355348E+03  0.00000000000E+00 0.  1.
         -1    1    1    2    0  502 -0.31838954216E+02 -0.16511910003E+01 -0.23069295564E+03  0.23288556250E+03  0.00000000000E+00 0. -1.
<mgrwt>
<rscale>  1 0.30000000E+03</rscale>
<asrwt>0</asrwt>
<pdfrwt beam="1">  1       21 0.52069573E-02 0.30000000E+03</pdfrwt>
<pdfrwt beam="2">0</pdfrwt>
<totfact> 0.26878417E+04</totfact>
</mgrwt>
</event>
<event>
 6    1  0.1270461E-001  0.3000000E+03  0.7818608E-02  0.1093470E+00
         21   -1    0    0  501  502  0.00000000000E+00  0.00000000000E+00  0.32571444019E+01  0.32571444019E+01  0.00000000000E+00 0. -1.
         13   -1    0    0    0    0 -0.00000000000E+00 -0.00000000000E+00 -0.10000000000E+04  0.10000000000E+04  0.00000000000E+00 0.  1.
    9000005    2    1    2  501    0  0.37496608056E+02 -0.42847576170E+02 -0.47942602794E+03  0.48281635951E+03  0.45177810833E+01 0.  0.
         13    1    3    3    0    0  0.91740983406E+01 -0.13238878304E+02 -0.12768043883E+03  0.12869237133E+03  0.00000000000E+00 0.  1.
          3    1    3    3  501    0  0.28322509716E+02 -0.29608697867E+02 -0.35174558911E+03  0.35412398818E+03  0.00000000000E+00 0.  1.
         -3    1    1    2    0  502 -0.37496608056E+02  0.42847576170E+02 -0.51731682766E+03  0.52044078489E+03  0.00000000000E+00 0. -1.
<mgrwt>
<rscale>  1 0.30000000E+03</rscale>
<asrwt>0</asrwt>
<pdfrwt beam="1">  1       21 0.11844186E-01 0.30000000E+03</pdfrwt>
<pdfrwt beam="2">0</pdfrwt>
<totfact> 0.63457608E+03</totfact>
</mgrwt>
</event>
<event>
 6    1  0.1270461E-001  0.3000000E+03  0.7818608E-02  0.1093470E+00
         21   -1    0    0  501  502  0.00000000000E+00  0.00000000000E+00  0.11118497504E+02  0.11118497504E+02  0.00000000000E+00 0. -1.
         13   -1    0    0    0    0 -0.00000000000E+00 -0.00000000000E+00 -0.10000000000E+04  0.10000000000E+04  0.00000000000E+00 0.  1.
    9000005    2    1    2  501    0 -0.54088577243E+02 -0.36227028972E+02 -0.89210976486E+03  0.89448770816E+03  0.32335253406E+01 0.  0.
         13    1    3    3    0    0 -0.23210227607E+02 -0.17453203259E+02 -0.39383590617E+03  0.39490511513E+03  0.00000000000E+00 0.  1.
          3    1    3    3  501    0 -0.30878349636E+02 -0.18773825713E+02 -0.49827385869E+03  0.49958259303E+03  0.00000000000E+00 0.  1.
         -3    1    1    2    0  502  0.54088577243E+02  0.36227028972E+02 -0.96771737638E+02  0.11663078934E+03  0.00000000000E+00 0. -1.
<mgrwt>
<rscale>  1 0.30000000E+03</rscale>
<asrwt>0</asrwt>
<pdfrwt beam="1">  1       21 0.40430985E-01 0.30000000E+03</pdfrwt>
<pdfrwt beam="2">0</pdfrwt>
<totfact> 0.59063976E+02</totfact>
</mgrwt>
</event>
<event>
 6    1  0.1270461E-001  0.3000000E+03  0.7818608E-02  0.1093470E+00
         21   -1    0    0  501  502  0.00000000000E+00  0.00000000000E+00  0.21171241947E+01  0.21171241947E+01  0.00000000000E+00 0. -1.
         13   -1    0    0    0    0 -0.00000000000E+00 -0.00000000000E+00 -0.10000000000E+04  0.10000000000E+04  0.00000000000E+00 0.  1.
    9000005    2    1    2  501    0  0.32521189660E+02  0.25252856274E+02 -0.72167089432E+03  0.72285310352E+03  0.35206582116E+01 0.  0.
         13    1    3    3    0    0  0.14167453569E+02  0.99531639169E+01 -0.27681203874E+03  0.27735300071E+03  0.00000000000E+00 0.  1.
          3    1    3    3  501    0  0.18353736090E+02  0.15299692357E+02 -0.44485885558E+03  0.44550010281E+03  0.00000000000E+00 0.  1.
         -1    1    1    2    0  502 -0.32521189660E+02 -0.25252856274E+02 -0.27621198149E+03  0.27926402068E+03  0.00000000000E+00 0. -1.
<mgrwt>
<rscale>  1 0.30000000E+03</rscale>
<asrwt>0</asrwt>
<pdfrwt beam="1">  1       21 0.76986497E-02 0.30000000E+03</pdfrwt>
<pdfrwt beam="2">0</pdfrwt>
<totfact> 0.13664128E+04</totfact>
</mgrwt>
</event>
<event>
 6    1  0.1270461E-001  0.3000000E+03  0.7818608E-02  0.1093470E+00
         21   -1    0    0  501  502  0.00000000000E+00  0.00000000000E+00  0.12630893172E+01  0.12630893172E+01  0.00000000000E+00 0. -1.
         13   -1    0    0    0    0 -0.00000000000E+00 -0.00000000000E+00 -0.10000000000E+04  0.10000000000E+04  0.00000000000E+00 0.  1.
    9000005    2    1    2  501    0 -0.46443695599E+01 -0.31413451593E+02 -0.72232445150E+03  0.72303256852E+03  0.38867468935E+01 0.  0.
         13    1    3    3    0    0 -0.29056555268E+01 -0.18767365208E+02 -0.38794764352E+03  0.38841219206E+03  0.00000000000E+00 0.  1.
          3    1    3    3  501    0 -0.17387140331E+01 -0.12646086384E+02 -0.33437680798E+03  0.33462037646E+03  0.00000000000E+00 0.  1.
         -3    1    1    2    0  502  0.46443695599E+01  0.31413451593E+02 -0.27641245918E+03  0.27823052080E+03  0.00000000000E+00 0. -1.
<mgrwt>
<rscale>  1 0.30000000E+03</rscale>
<asrwt>0</asrwt>
<pdfrwt beam="1">  1       21 0.45930617E-02 0.30000000E+03</pdfrwt>
<pdfrwt beam="2">0</pdfrwt>
<totfact> 0.33281022E+04</totfact>
</mgrwt>
</event>
<event>
 6    1  0.1270461E-001  0.3000000E+03  0.7818608E-02  0.1093470E+00
         21   -1    0    0  501  502  0.00000000000E+00  0.00000000000E+00  0.25272633990E+01  0.25272633990E+01  0.00000000000E+00 0. -1.
         13   -1    0    0    0    0 -0.00000000000E+00 -0.00000000000E+00 -0.10000000000E+04  0.10000000000E+04  0.00000000000E+00 0.  1.
    9000005    2    1    2  501    0  0.50686568260E+01  0.33623189384E+02 -0.86781253489E+03  0.86848257662E+03  0.26795580659E+01 0.  0.
         13    1    3    3    0    0  0.91399530285E+00  0.70541341421E+01 -0.21059227360E+03  0.21071236768E+03  0.00000000000E+00 0.  1.
          3    1    3    3  501    0  0.41546615231E+01  0.26569055242E+02 -0.65722026129E+03  0.65777020894E+03  0.00000000000E+00 0.  1.
         -1    1    1    2    0  502 -0.50686568260E+01 -0.33623189384E+02 -0.12966020171E+03  0.13404468678E+03  0.00000000000E+00 0. -1.
<mgrwt>
<rscale>  1 0.30000000E+03</rscale>
<asrwt>0</asrwt>
<pdfrwt beam="1">  1       21 0.91900681E-02 0.30000000E+03</pdfrwt>
<pdfrwt beam="2">0</pdfrwt>
<totfact> 0.10000499E+04</totfact>
</mgrwt>
</event>
<event>
 6    1  0.1270461E-001  0.3000000E+03  0.7818608E-02  0.1093470E+00
         21   -1    0    0  501  502  0.00000000000E+00  0.00000000000E+00  0.13737498524E+01  0.13737498524E+01  0.00000000000E+00 0. -1.
         13   -1    0    0    0    0 -0.00000000000E+00 -0.00000000000E+00 -0.10000000000E+04  0.10000000000E+04  0.00000000000E+00 0.  1.
    9000005    2    1    2  501    0 -0.14727966533E+02  0.33921451721E+02 -0.49428364724E+03  0.49567716197E+03  0.34564559890E+01 0.  0.
         13    1    3    3    0    0 -0.16983846148E+01  0.35214054149E+01 -0.39774469969E+02  0.39966151525E+02  0.00000000000E+00 0.  1.
          3    1    3    3  501    0 -0.13029581918E+02  0.30400046306E+02 -0.45450917727E+03  0.45571101045E+03  0.00000000000E+00 0.  1.
         -3    1    1    2    0  502  0.14727966533E+02 -0.33921451721E+02 -0.50434260291E+03  0.50569658788E+03  0.00000000000E+00 0. -1.
<mgrwt>
<rscale>  1 0.30000000E+03</rscale>
<asrwt>0</asrwt>
<pdfrwt beam="1">  1       21 0.49954645E-02 0.30000000E+03</pdfrwt>
<pdfrwt beam="2">0</pdfrwt>
<totfact> 0.28849251E+04</totfact>
</mgrwt>
</event>
<event>
 6    1  0.1270461E-001  0.3000000E+03  0.7818608E-02  0.1093470E+00
         21   -1    0    0  501  502  0.00000000000E+00  0.00000000000E+00  0.56844896571E+01  0.56844896571E+01  0.00000000000E+00 0. -1.
         13   -1    0    0    0    0 -0.00000000000E+00 -0.00000000000E+00 -0.10000000000E+04  0.10000000000E+04  0.00000000000E+00 0.  1.
    9000005    2    1    2  501    0 -0.41931476978E+02 -0.59243938685E+02 -0.63273169733E+03  0.63688786974E+03  0.29435994873E+01 0.  0.
         13    1    3    3    0    0 -0.25250029305E+02 -0.33923613191E+02 -0.37759160185E+03  0.37995235661E+03  0.00000000000E+00 0.  1.
          3    1    3    3  501    0 -0.16681447674E+02 -0.25320325494E+02 -0.25514009549E+03  0.25693551312E+03  0.00000000000E+00 0.  1.
         -1    1    1    2    0  502  0.41931476978E+02  0.59243938685E+02 -0.36158381301E+03  0.36879661992E+03  0.00000000000E+00 0. -1.
<mgrwt>
<rscale>  1 0.30000000E+03</rscale>
<asrwt>0</asrwt>
<pdfrwt beam="1">  1       21 0.20670915E-01 0.30000000E+03</pdfrwt>
<pdfrwt beam="2">0</pdfrwt>
<totfact> 0.22525557E+03</totfact>
</mgrwt>
</event>
<event>
 6    1  0.1270461E-001  0.3000000E+03  0.7818608E-02  0.1093470E+00
         21   -1    0    0  501  502  0.00000000000E+00  0.00000000000E+00  0.11117524999E+01  0.11117524999E+01  0.00000000000E+00 0. -1.
         13   -1    0    0    0    0 -0.00000000000E+00 -0.00000000000E+00 -0.10000000000E+04  0.10000000000E+04  0.00000000000E+00 0.  1.
    9000005    2    1    2  501    0  0.23254959222E+02 -0.20477348555E+02 -0.68240838447E+03  0.68311864151E+03  0.31241404913E+01 0.  0.
         13    1    3    3    0    0  0.18479166476E+02 -0.16411403130E+02 -0.51473603512E+03  0.51532902072E+03  0.00000000000E+00 0.  1.
          3    1    3    3  501    0  0.47757927461E+01 -0.40659454248E+01 -0.16767234935E+03  0.16778962079E+03  0.00000000000E+00 0.  1.
         -3    1    1    2    0  502 -0.23254959222E+02  0.20477348555E+02 -0.31647986303E+03  0.31799311099E+03  0.00000000000E+00 0. -1.
<mgrwt>
<rscale>  1 0.30000000E+03</rscale>
<asrwt>0</asrwt>
<pdfrwt beam="1">  1       21 0.40427449E-02 0.30000000E+03</pdfrwt>
<pdfrwt beam="2">0</pdfrwt>
<totfact> 0.41301152E+04</totfact>
</mgrwt>
</event>
<event>
 6    1  0.1270461E-001  0.3000000E+03  0.7818608E-02  0.1093470E+00
         21   -1    0    0  501  502  0.00000000000E+00  0.00000000000E+00  0.15719532899E+01  0.15719532899E+01  0.00000000000E+00 0. -1.
         13   -1    0    0    0    0 -0.00000000000E+00 -0.00000000000E+00 -0.10000000000E+04  0.10000000000E+04  0.00000000000E+00 0.  1.
    9000005    2    1    2  501    0 -0.32227102086E+02  0.19919452461E+02 -0.63988991485E+03  0.64103767934E+03  0.59019074046E+01 0.  0.
         13    1    3    3    0    0 -0.77992318464E+01  0.23262941465E+01 -0.11812313786E+03  0.11840318982E+03  0.00000000000E+00 0.  1.
          1    1    3    3  501    0 -0.24427870240E+02  0.17593158314E+02 -0.52176677699E+03  0.52263448952E+03  0.00000000000E+00 0.  1.
         -1    1    1    2    0  502  0.32227102086E+02 -0.19919452461E+02 -0.35853813186E+03  0.36053427395E+03  0.00000000000E+00 0. -1.
<mgrwt>
<rscale>  1 0.30000000E+03</rscale>
<asrwt>0</asrwt>
<pdfrwt beam="1">  1       21 0.57162058E-02 0.30000000E+03</pdfrwt>
<pdfrwt beam="2">0</pdfrwt>
<totfact> 0.22906147E+04</totfact>
</mgrwt>
</event>
<event>
 6    1  0.1270461E-001  0.3000000E+03  0.7818608E-02  0.1093470E+00
         21   -1    0    0  501  502  0.00000000000E+00  0.00000000000E+00  0.11175013651E+01  0.11175013651E+01  0.00000000000E+00 0. -1.
         13   -1    0    0    0    0 -0.00000000000E+00 -0.00000000000E+00 -0.10000000000E+04  0.10000000000E+04  0.00000000000E+00 0.  1.
    9000005    2    1    2  501    0  0.39208275780E+01 -0.33097143318E+02 -0.49994226814E+03  0.50106535669E+03  0.36642080187E+01 0.  0.
         13    1    3    3    0    0  0.35545771106E+01 -0.20063676776E+02 -0.32468733066E+03  0.32532606541E+03  0.00000000000E+00 0.  1.
          1    1    3    3  501    0  0.36625046739E+00 -0.13033466543E+02 -0.17525493748E+03  0.17573929128E+03  0.00000000000E+00 0.  1.
         -1    1    1    2    0  502 -0.39208275780E+01  0.33097143318E+02 -0.49894023050E+03  0.50005214468E+03  0.00000000000E+00 0. -1.
<mgrwt>
<rscale>  1 0.30000000E+03</rscale>
<asrwt>0</asrwt>
<pdfrwt beam="1">  1       21 0.40636499E-02 0.30000000E+03</pdfrwt>
<pdfrwt beam="2">0</pdfrwt>
<totfact> 0.40943733E+04</totfact>
</mgrwt>
</event>
<event>
 6    1  0.1270461E-001  0.3000000E+03  0.7818608E-02  0.1093470E+00
         21   -1    0    0  501  502  0.00000000000E+00  0.00000000000E+00  0.55138863898E+01  0.55138863898E+01  0.00000000000E+00 0. -1.
         13   -1    0    0    0    0 -0.00000000000E+00 -0.00000000000E+00 -0.10000000000E+04  0.10000000000E+04  0.00000000000E+00 0.  1.
    9000005    2    1    2  501    0 -0.19202357477E+02 -0.71648396749E+02 -0.48409915069E+03  0.48976484353E+03  0.39231329594E+01 0.  0.
         13    1    3    3    0    0 -0.50797057074E+00 -0.54977127927E+01 -0.38922524324E+02  0.39312158168E+02  0.00000000000E+00 0.  1.
          1    1    3    3  501    0 -0.18694386906E+02 -0.66150683956E+02 -0.44517662637E+03  0.45045268536E+03  0.00000000000E+00 0.  1.
         -1    1    1    2    0  502  0.19202357477E+02  0.71648396749E+02 -0.51038696292E+03  0.51574904286E+03  0.00000000000E+00 0. -1.
<mgrwt>
<rscale>  1 0.30000000E+03</rscale>
<asrwt>0</asrwt>
<pdfrwt beam="1">  1       21 0.20050538E-01 0.30000000E+03</pdfrwt>
<pdfrwt beam="2">0</pdfrwt>
<totfact> 0.23876889E+03</totfact>
</mgrwt>
</event>
<event>
 6    1  0.1270461E-001  0.3000000E+03  0.7818608E-02  0.1093470E+00
         21   -1    0    0  501  502  0.00000000000E+00  0.00000000000E+00  0.12167807683E+01  0.12167807683E+01  0.00000000000E+00 0. -1.
         13   -1    0    0    0    0 -0.00000000000E+00 -0.00000000000E+00 -0.10000000000E+04  0.10000000000E+04  0.00000000000E+00 0.  1.
    9000005    2    1    2  501    0  0.32773468753E+02 -0.11565888837E+02 -0.47037302260E+03  0.47166488912E+03  0.30194709163E+01 0.  0.
         13    1    3    3    0    0  0.28713909923E+02 -0.11156371915E+02 -0.41499937680E+03  0.41614112510E+03  0.00000000000E+00 0.  1.
          1    1    3    3  501    0  0.40595588302E+01 -0.40951692268E+00 -0.55373645801E+02  0.55523764024E+02  0.00000000000E+00 0.  1.
         -3    1    1    2    0  502 -0.32773468753E+02  0.11565888837E+02 -0.52841019663E+03  0.52955189164E+03  0.00000000000E+00 0. -1.
<mgrwt>
<rscale>  1 0.30000000E+03</rscale>
<asrwt>0</asrwt>
<pdfrwt beam="1">  1       21 0.44246667E-02 0.30000000E+03</pdfrwt>
<pdfrwt beam="2">0</pdfrwt>
<totfact> 0.35458944E+04</totfact>
</mgrwt>
</event>
<event>
 6    1  0.1270461E-001  0.3000000E+03  0.7818608E-02  0.1093470E+00
         21   -1    0    0  501  502  0.00000000000E+00  0.00000000000E+00  0.11047954367E+01  0.11047954367E+01  0.00000000000E+00 0. -1.
         13   -1    0    0    0    0 -0.00000000000E+00 -0.00000000000E+00 -0.10000000000E+04  0.10000000000E+04  0.00000000000E+00 0.  1.
    9000005    2    1    2  501    0 -0.32491204329E+02 -0.54764197369E+01 -0.55576694761E+03  0.55675322107E+03  0.34028787731E+01 0.  0.
         13    1    3    3    0    0 -0.30329005097E+01 -0.20619159722E+00 -0.69321620232E+02  0.69388241310E+02  0.00000000000E+00 0.  1.
          3    1    3    3  501    0 -0.29458303819E+02 -0.52702281397E+01 -0.48644532738E+03  0.48736497976E+03  0.00000000000E+00 0.  1.
         -1    1    1    2    0  502  0.32491204329E+02  0.54764197369E+01 -0.44312825695E+03  0.44435157437E+03  0.00000000000E+00 0. -1.
<mgrwt>
<rscale>  1 0.30000000E+03</rscale>
<asrwt>0</asrwt>
<pdfrwt beam="1">  1       21 0.40174464E-02 0.30000000E+03</pdfrwt>
<pdfrwt beam="2">0</pdfrwt>
<totfact> 0.41740247E+04</totfact>
</mgrwt>
</event>
<event>
 6    1  0.1270461E-001  0.3000000E+03  0.7818608E-02  0.1093470E+00
         21   -1    0    0  501  502  0.00000000000E+00  0.00000000000E+00  0.94705286734E+00  0.94705286734E+00  0.00000000000E+00 0. -1.
         13   -1    0    0    0    0 -0.00000000000E+00 -0.00000000000E+00 -0.10000000000E+04  0.10000000000E+04  0.00000000000E+00 0.  1.
    9000005    2    1    2  501    0  0.25041485665E+02 -0.17712620351E+02 -0.48376919950E+03  0.48475120486E+03  0.32061356612E+01 0.  0.
         13    1    3    3    0    0  0.16954338805E+02 -0.13434643863E+02 -0.32590836232E+03  0.32662547343E+03  0.00000000000E+00 0.  1.
          1    1    3    3  501    0  0.80871468601E+01 -0.42779764882E+01 -0.15786083718E+03  0.15812573143E+03  0.00000000000E+00 0.  1.
         -1    1    1    2    0  502 -0.25041485665E+02  0.17712620351E+02 -0.51528374763E+03  0.51619584801E+03  0.00000000000E+00 0. -1.
<mgrwt>
<rscale>  1 0.30000000E+03</rscale>
<asrwt>0</asrwt>
<pdfrwt beam="1">  1       21 0.34438359E-02 0.30000000E+03</pdfrwt>
<pdfrwt beam="2">0</pdfrwt>
<totfact> 0.54060720E+04</totfact>
</mgrwt>
</event>
<event>
 6    1  0.1270461E-001  0.3000000E+03  0.7818608E-02  0.1093470E+00
         21   -1    0    0  501  502  0.00000000000E+00  0.00000000000E+00  0.12614699007E+01  0.12614699007E+01  0.00000000000E+00 0. -1.
         13   -1    0    0    0    0 -0.00000000000E+00 -0.00000000000E+00 -0.10000000000E+04  0.10000000000E+04  0.00000000000E+00 0.  1.
    9000005    2    1    2  501    0  0.20029892700E+02 -0.22958500140E+02 -0.75560534527E+03  0.75622670728E+03  0.33325160901E+01 0.  0.
         13    1    3    3    0    0  0.16715441175E+01 -0.76264753664E+00 -0.41376082532E+02  0.41416855225E+02  0.00000000000E+00 0.  1.
          3    1    3    3  501    0  0.18358348583E+02 -0.22195852603E+02 -0.71422926274E+03  0.71480985205E+03  0.00000000000E+00 0.  1.
         -1    1    1    2    0  502 -0.20029892700E+02  0.22958500140E+02 -0.24313318483E+03  0.24503476262E+03  0.00000000000E+00 0. -1.
<mgrwt>
<rscale>  1 0.30000000E+03</rscale>
<asrwt>0</asrwt>
<pdfrwt beam="1">  1       21 0.45871729E-02 0.30000000E+03</pdfrwt>
<pdfrwt beam="2">0</pdfrwt>
<totfact> 0.33353637E+04</totfact>
</mgrwt>
</event>
<event>
 6    1  0.1270461E-001  0.3000000E+03  0.7818608E-02  0.1093470E+00
         21   -1    0    0  501  502  0.00000000000E+00  0.00000000000E+00  0.85954282258E+01  0.85954282258E+01  0.00000000000E+00 0. -1.
         13   -1    0    0    0    0 -0.00000000000E+00 -0.00000000000E+00 -0.10000000000E+04  0.10000000000E+04  0.00000000000E+00 0.  1.
    9000005    2    1    2  501    0 -0.84040297145E+02  0.33747165401E+02 -0.38862138722E+03  0.39904706239E+03  0.32144481888E+01 0.  0.
         13    1    3    3    0    0 -0.37838249703E+02  0.16525280315E+02 -0.18160775691E+03  0.18624230293E+03  0.00000000000E+00 0.  1.
          1    1    3    3  501    0 -0.46202047442E+02  0.17221885086E+02 -0.20701363031E+03  0.21280475946E+03  0.00000000000E+00 0.  1.
         -3    1    1    2    0  502  0.84040297145E+02 -0.33747165401E+02 -0.60278318455E+03  0.60954836584E+03  0.00000000000E+00 0. -1.
<mgrwt>
<rscale>  1 0.30000000E+03</rscale>
<asrwt>0</asrwt>
<pdfrwt beam="1">  1       21 0.31256169E-01 0.30000000E+03</pdfrwt>
<pdfrwt beam="2">0</pdfrwt>
<totfact> 0.10013669E+03</totfact>
</mgrwt>
</event>
<event>
 6    1  0.1270461E-001  0.3000000E+03  0.7818608E-02  0.1093470E+00
         21   -1    0    0  501  502  0.00000000000E+00  0.00000000000E+00  0.13180032280E+01  0.13180032280E+01  0.00000000000E+00 0. -1.
         13   -1    0    0    0    0 -0.00000000000E+00 -0.00000000000E+00 -0.10000000000E+04  0.10000000000E+04  0.00000000000E+00 0.  1.
    9000005    2    1    2  501    0  0.29711487676E+02  0.55792073445E+01 -0.77554397700E+03  0.77614145933E+03  0.36338098461E+01 0.  0.
         13    1    3    3    0    0  0.13098462495E+02  0.32842076119E+01 -0.30525293097E+03  0.30555148111E+03  0.00000000000E+00 0.  1.
          3    1    3    3  501    0  0.16613025180E+02  0.22949997326E+01 -0.47029104602E+03  0.47058997822E+03  0.00000000000E+00 0.  1.
         -3    1    1    2    0  502 -0.29711487676E+02 -0.55792073445E+01 -0.22313801977E+03  0.22517654390E+03  0.00000000000E+00 0. -1.
<mgrwt>
<rscale>  1 0.30000000E+03</rscale>
<asrwt>0</asrwt>
<pdfrwt beam="1">  1       21 0.47927491E-02 0.30000000E+03</pdfrwt>
<pdfrwt beam="2">0</pdfrwt>
<totfact> 0.30958073E+04</totfact>
</mgrwt>
</event>
<event>
 6    1  0.1270461E-001  0.3000000E+03  0.7818608E-02  0.1093470E+00
         21   -1    0    0  501  502  0.00000000000E+00  0.00000000000E+00  0.22752963653E+01  0.22752963653E+01  0.00000000000E+00 0. -1.
         13   -1    0    0    0    0 -0.00000000000E+00 -0.00000000000E+00 -0.10000000000E+04  0.10000000000E+04  0.00000000000E+00 0.  1.
    9000005    2    1    2  501    0  0.31830767867E+02 -0.12124926774E+02 -0.84897462868E+03  0.84967517699E+03  0.54566133901E+01 0.  0.
         13    1    3    3    0    0  0.91201635275E+01 -0.14440264465E+01 -0.19331032976E+03  0.19353073706E+03  0.00000000000E+00 0.  1.
          1    1    3    3  501    0  0.22710604340E+02 -0.10680900327E+02 -0.65566429892E+03  0.65614443994E+03  0.00000000000E+00 0.  1.
         -1    1    1    2    0  502 -0.31830767867E+02  0.12124926774E+02 -0.14875007496E+03  0.15260011937E+03  0.00000000000E+00 0. -1.
<mgrwt>
<rscale>  1 0.30000000E+03</rscale>
<asrwt>0</asrwt>
<pdfrwt beam="1">  1       21 0.82738224E-02 0.30000000E+03</pdfrwt>
<pdfrwt beam="2">0</pdfrwt>
<totfact> 0.12039927E+04</totfact>
</mgrwt>
</event>
<event>
 6    1  0.1270461E-001  0.3000000E+03  0.7818608E-02  0.1093470E+00
         21   -1    0    0  501  502  0.00000000000E+00  0.00000000000E+00  0.33746545223E+01  0.33746545223E+01  0.00000000000E+00 0. -1.
         13   -1    0    0    0    0 -0.00000000000E+00 -0.00000000000E+00 -0.10000000000E+04  0.10000000000E+04  0.00000000000E+00 0.  1.
    9000005    2    1    2  501    0  0.34618237543E+02  0.11852008252E+02 -0.88785841824E+03  0.88861779446E+03  0.31814028873E+01 0.  0.
         13    1    3    3    0    0  0.23882086589E+01  0.13760717703E-01 -0.61570634741E+02  0.61616935921E+02  0.00000000000E+00 0.  1.
          3    1    3    3  501    0  0.32230028884E+02  0.11838247535E+02 -0.82628778350E+03  0.82700085854E+03  0.00000000000E+00 0.  1.
         -3    1    1    2    0  502 -0.34618237543E+02 -0.11852008252E+02 -0.10876692724E+03  0.11475686006E+03  0.00000000000E+00 0. -1.
<mgrwt>
<rscale>  1 0.30000000E+03</rscale>
<asrwt>0</asrwt>
<pdfrwt beam="1">  1       21 0.12271497E-01 0.30000000E+03</pdfrwt>
<pdfrwt beam="2">0</pdfrwt>
<totfact> 0.59502112E+03</totfact>
</mgrwt>
</event>
<event>
 6    1  0.1270461E-001  0.3000000E+03  0.7818608E-02  0.1093470E+00
         21   -1    0    0  501  502  0.00000000000E+00  0.00000000000E+00  0.30352550027E+01  0.30352550027E+01  0.00000000000E+00 0. -1.
         13   -1    0    0    0    0 -0.00000000000E+00 -0.00000000000E+00 -0.10000000000E+04  0.10000000000E+04  0.00000000000E+00 0.  1.
    9000005    2    1    2  501    0 -0.19449431331E+01  0.31503111147E+02 -0.90942384328E+03  0.90997807747E+03  0.34851033766E+01 0.  0.
         13    1    3    3    0    0 -0.57470182455E+00  0.27646985943E+02 -0.78447720865E+03  0.78496444315E+03  0.00000000000E+00 0.  1.
          3    1    3    3  501    0 -0.13702413085E+01  0.38561252037E+01 -0.12494663463E+03  0.12501363433E+03  0.00000000000E+00 0.  1.
         -3    1    1    2    0  502  0.19449431331E+01 -0.31503111147E+02 -0.87540901720E+02  0.93057177529E+02  0.00000000000E+00 0. -1.
<mgrwt>
<rscale>  1 0.30000000E+03</rscale>
<asrwt>0</asrwt>
<pdfrwt beam="1">  1       21 0.11037314E-01 0.30000000E+03</pdfrwt>
<pdfrwt beam="2">0</pdfrwt>
<totfact> 0.72079664E+03</totfact>
</mgrwt>
</event>
<event>
 6    1  0.1270461E-001  0.3000000E+03  0.7818608E-02  0.1093470E+00
         21   -1    0    0  501  502  0.00000000000E+00  0.00000000000E+00  0.13662165734E+01  0.13662165734E+01  0.00000000000E+00 0. -1.
         13   -1    0    0    0    0 -0.00000000000E+00 -0.00000000000E+00 -0.10000000000E+04  0.10000000000E+04  0.00000000000E+00 0.  1.
    9000005    2    1    2  501    0  0.36172979591E+02  0.30218531612E+01 -0.58436557872E+03  0.58551075914E+03  0.47014277740E+01 0.  0.
         13    1    3    3    0    0  0.57132084668E+01 -0.43323131445E+00 -0.71058398783E+02  0.71289020739E+02  0.00000000000E+00 0.  1.
          1    1    3    3  501    0  0.30459771124E+02  0.34550844756E+01 -0.51330717994E+03  0.51422173840E+03  0.00000000000E+00 0.  1.
         -1    1    1    2    0  502 -0.36172979591E+02 -0.30218531612E+01 -0.41426820470E+03  0.41585545743E+03  0.00000000000E+00 0. -1.
<mgrwt>
<rscale>  1 0.30000000E+03</rscale>
<asrwt>0</asrwt>
<pdfrwt beam="1">  1       21 0.49680707E-02 0.30000000E+03</pdfrwt>
<pdfrwt beam="2">0</pdfrwt>
<totfact> 0.29120906E+04</totfact>
</mgrwt>
</event>
<event>
 6    1  0.1270461E-001  0.3000000E+03  0.7818608E-02  0.1093470E+00
         21   -1    0    0  501  502  0.00000000000E+00  0.00000000000E+00  0.13950218243E+01  0.13950218243E+01  0.00000000000E+00 0. -1.
         13   -1    0    0    0    0 -0.00000000000E+00 -0.00000000000E+00 -0.10000000000E+04  0.10000000000E+04  0.00000000000E+00 0.  1.
    9000005    2    1    2  501    0  0.18337651587E+02 -0.30598055879E+02 -0.35841380687E+03  0.36021076881E+03  0.43394153882E+01 0.  0.
         13    1    3    3    0    0  0.18069875937E+02 -0.30714270710E+02 -0.35474416028E+03  0.35652953047E+03  0.00000000000E+00 0.  1.
          1    1    3    3  501    0  0.26777564932E+00  0.11621483096E+00 -0.36696465832E+01  0.36812383420E+01  0.00000000000E+00 0.  1.
         -1    1    1    2    0  502 -0.18337651587E+02  0.30598055879E+02 -0.64019117131E+03  0.64118425301E+03  0.00000000000E+00 0. -1.
<mgrwt>
<rscale>  1 0.30000000E+03</rscale>
<asrwt>0</asrwt>
<pdfrwt beam="1">  1       21 0.50728173E-02 0.30000000E+03</pdfrwt>
<pdfrwt beam="2">0</pdfrwt>
<totfact> 0.28103114E+04</totfact>
</mgrwt>
</event>
<event>
 6    1  0.1270461E-001  0.3000000E+03  0.7818608E-02  0.1093470E+00
         21   -1    0    0  501  502  0.00000000000E+00  0.00000000000E+00  0.13730821368E+01  0.13730821368E+01  0.00000000000E+00 0. -1.
         13   -1    0    0    0    0 -0.00000000000E+00 -0.00000000000E+00 -0.10000000000E+04  0.10000000000E+04  0.00000000000E+00 0.  1.
    9000005    2    1    2  501    0  0.28973570725E+02  0.13141066045E+02 -0.75375533624E+03  0.75444344256E+03  0.50641570450E+01 0.  0.
         13    1    3    3    0    0  0.23229996492E+00  0.18703517010E+00 -0.30383353040E+02  0.30384816724E+02  0.00000000000E+00 0.  1.
          1    1    3    3  501    0  0.28741270760E+02  0.12954030874E+02 -0.72337198320E+03  0.72405862583E+03  0.00000000000E+00 0.  1.
         -1    1    1    2    0  502 -0.28973570725E+02 -0.13141066045E+02 -0.24487158162E+03  0.24692963958E+03  0.00000000000E+00 0. -1.
<mgrwt>
<rscale>  1 0.30000000E+03</rscale>
<asrwt>0</asrwt>
<pdfrwt beam="1">  1       21 0.49930365E-02 0.30000000E+03</pdfrwt>
<pdfrwt beam="2">0</pdfrwt>
<totfact> 0.28873169E+04</totfact>
</mgrwt>
</event>
<event>
 6    1  0.1270461E-001  0.3000000E+03  0.7818608E-02  0.1093470E+00
         21   -1    0    0  501  502  0.00000000000E+00  0.00000000000E+00  0.13143152440E+01  0.13143152440E+01  0.00000000000E+00 0. -1.
         13   -1    0    0    0    0 -0.00000000000E+00 -0.00000000000E+00 -0.10000000000E+04  0.10000000000E+04  0.00000000000E+00 0.  1.
    9000005    2    1    2  501    0  0.20942047930E+02  0.21502651997E+02 -0.77925690170E+03  0.77984214036E+03  0.33928778051E+01 0.  0.
         13    1    3    3    0    0  0.72203812102E+01  0.95468840276E+01 -0.29041758888E+03  0.29066415815E+03  0.00000000000E+00 0.  1.
          1    1    3    3  501    0  0.13721666719E+02  0.11955767969E+02 -0.48883931282E+03  0.48917798222E+03  0.00000000000E+00 0.  1.
         -1    1    1    2    0  502 -0.20942047930E+02 -0.21502651997E+02 -0.21942878305E+03  0.22147217488E+03  0.00000000000E+00 0. -1.
<mgrwt>
<rscale>  1 0.30000000E+03</rscale>
<asrwt>0</asrwt>
<pdfrwt beam="1">  1       21 0.47793382E-02 0.30000000E+03</pdfrwt>
<pdfrwt beam="2">0</pdfrwt>
<totfact> 0.31106017E+04</totfact>
</mgrwt>
</event>
<event>
 6    1  0.1270461E-001  0.3000000E+03  0.7818608E-02  0.1093470E+00
         21   -1    0    0  501  502  0.00000000000E+00  0.00000000000E+00  0.17701479908E+01  0.17701479908E+01  0.00000000000E+00 0. -1.
         13   -1    0    0    0    0 -0.00000000000E+00 -0.00000000000E+00 -0.10000000000E+04  0.10000000000E+04  0.00000000000E+00 0.  1.
    9000005    2    1    2  501    0  0.32563448262E+02 -0.26250146404E+02 -0.45250030689E+03  0.45444009696E+03  0.31345873028E+01 0.  0.
         13    1    3    3    0    0  0.90669384835E+01 -0.82033175431E+01 -0.14607341282E+03  0.14658426152E+03  0.00000000000E+00 0.  1.
          1    1    3    3  501    0  0.23496509779E+02 -0.18046828861E+02 -0.30642689407E+03  0.30785583544E+03  0.00000000000E+00 0.  1.
         -1    1    1    2    0  502 -0.32563448262E+02  0.26250146404E+02 -0.54572954512E+03  0.54733005103E+03  0.00000000000E+00 0. -1.
<mgrwt>
<rscale>  1 0.30000000E+03</rscale>
<asrwt>0</asrwt>
<pdfrwt beam="1">  1       21 0.64369154E-02 0.30000000E+03</pdfrwt>
<pdfrwt beam="2">0</pdfrwt>
<totfact> 0.18662442E+04</totfact>
</mgrwt>
</event>
<event>
 6    1  0.1270461E-001  0.3000000E+03  0.7818608E-02  0.1093470E+00
         21   -1    0    0  501  502  0.00000000000E+00  0.00000000000E+00  0.59429686047E+01  0.59429686047E+01  0.00000000000E+00 0. -1.
         13   -1    0    0    0    0 -0.00000000000E+00 -0.00000000000E+00 -0.10000000000E+04  0.10000000000E+04  0.00000000000E+00 0.  1.
    9000005    2    1    2  501    0 -0.42849059558E+02  0.38679201111E+02 -0.16426103540E+03  0.17414159960E+03  0.33891677240E+01 0.  0.
         13    1    3    3    0    0 -0.10352451387E+02  0.96906356481E+01 -0.44816213235E+02  0.47006112770E+02  0.00000000000E+00 0.  1.
          3    1    3    3  501    0 -0.32496608171E+02  0.28988565463E+02 -0.11944482216E+03  0.12713548683E+03  0.00000000000E+00 0.  1.
         -1    1    1    2    0  502  0.42849059558E+02 -0.38679201111E+02 -0.82979599600E+03  0.83180136901E+03  0.00000000000E+00 0. -1.
<mgrwt>
<rscale>  1 0.30000000E+03</rscale>
<asrwt>0</asrwt>
<pdfrwt beam="1">  1       21 0.21610840E-01 0.30000000E+03</pdfrwt>
<pdfrwt beam="2">0</pdfrwt>
<totfact> 0.20684007E+03</totfact>
</mgrwt>
</event>
<event>
 6    1  0.1270461E-001  0.3000000E+03  0.7818608E-02  0.1093470E+00
         21   -1    0    0  501  502  0.00000000000E+00  0.00000000000E+00  0.14351071006E+02  0.14351071006E+02  0.00000000000E+00 0. -1.
         13   -1    0    0    0    0 -0.00000000000E+00 -0.00000000000E+00 -0.10000000000E+04  0.10000000000E+04  0.00000000000E+00 0.  1.
    9000005    2    1    2  501    0 -0.60694699020E+00 -0.37476570676E+02 -0.97453219141E+03  0.97525575685E+03  0.24366885369E+01 0.  0.
         13    1    3    3    0    0 -0.89799089417E+00 -0.24487836768E+02 -0.66350835062E+03  0.66396068549E+03  0.00000000000E+00 0.  1.
          1    1    3    3  501    0  0.29104390397E+00 -0.12988733907E+02 -0.31102384078E+03  0.31129507136E+03  0.00000000000E+00 0.  1.
         -1    1    1    2    0  502  0.60694699020E+00  0.37476570676E+02 -0.11116737588E+02  0.39095314155E+02  0.00000000000E+00 0. -1.
<mgrwt>
<rscale>  1 0.30000000E+03</rscale>
<asrwt>0</asrwt>
<pdfrwt beam="1">  1       21 0.52185823E-01 0.30000000E+03</pdfrwt>
<pdfrwt beam="2">0</pdfrwt>
<totfact> 0.34228930E+02</totfact>
</mgrwt>
</event>
<event>
 6    1  0.1270461E-001  0.3000000E+03  0.7818608E-02  0.1093470E+00
         21   -1    0    0  501  502  0.00000000000E+00  0.00000000000E+00  0.15130993130E+01  0.15130993130E+01  0.00000000000E+00 0. -1.
         13   -1    0    0    0    0 -0.00000000000E+00 -0.00000000000E+00 -0.10000000000E+04  0.10000000000E+04  0.00000000000E+00 0.  1.
    9000005    2    1    2  501    0 -0.26643511802E+02 -0.15126038222E+02 -0.80724154715E+03  0.80782918412E+03  0.32251393718E+01 0.  0.
         13    1    3    3    0    0 -0.17074733802E+00 -0.47543350444E+00 -0.87113798218E+01  0.87260145582E+01  0.00000000000E+00 0.  1.
          1    1    3    3  501    0 -0.26472764464E+02 -0.14650604717E+02 -0.79853016733E+03  0.79910316956E+03  0.00000000000E+00 0.  1.
         -3    1    1    2    0  502  0.26643511802E+02  0.15126038222E+02 -0.19124535354E+03  0.19368391519E+03  0.00000000000E+00 0. -1.
<mgrwt>
<rscale>  1 0.30000000E+03</rscale>
<asrwt>0</asrwt>
<pdfrwt beam="1">  1       21 0.55021909E-02 0.30000000E+03</pdfrwt>
<pdfrwt beam="2">0</pdfrwt>
<totfact> 0.24457441E+04</totfact>
</mgrwt>
</event>
<event>
 6    1  0.1270461E-001  0.3000000E+03  0.7818608E-02  0.1093470E+00
         21   -1    0    0  501  502  0.00000000000E+00  0.00000000000E+00  0.14270790264E+01  0.14270790264E+01  0.00000000000E+00 0. -1.
         13   -1    0    0    0    0 -0.00000000000E+00 -0.00000000000E+00 -0.10000000000E+04  0.10000000000E+04  0.00000000000E+00 0.  1.
    9000005    2    1    2  501    0  0.27137631851E+02  0.22875687592E+02 -0.66971933690E+03  0.67066367733E+03  0.24555495442E+01 0.  0.
         13    1    3    3    0    0  0.24885420951E+02  0.20652882670E+02 -0.59649720512E+03  0.59737320115E+03  0.00000000000E+00 0.  1.
          3    1    3    3  501    0  0.22522108999E+01  0.22228049217E+01 -0.73222131775E+02  0.73290476171E+02  0.00000000000E+00 0.  1.
         -3    1    1    2    0  502 -0.27137631851E+02 -0.22875687592E+02 -0.32885358408E+03  0.33076340170E+03  0.00000000000E+00 0. -1.
<mgrwt>
<rscale>  1 0.30000000E+03</rscale>
<asrwt>0</asrwt>
<pdfrwt beam="1">  1       21 0.51893892E-02 0.30000000E+03</pdfrwt>
<pdfrwt beam="2">0</pdfrwt>
<totfact> 0.27034048E+04</totfact>
</mgrwt>
</event>
<event>
 6    1  0.1270461E-001  0.3000000E+03  0.7818608E-02  0.1093470E+00
         21   -1    0    0  501  502  0.00000000000E+00  0.00000000000E+00  0.29167661685E+01  0.29167661685E+01  0.00000000000E+00 0. -1.
         13   -1    0    0    0    0 -0.00000000000E+00 -0.00000000000E+00 -0.10000000000E+04  0.10000000000E+04  0.00000000000E+00 0.  1.
    9000005    2    1    2  501    0 -0.39761339834E+02 -0.33395177266E+02 -0.63584664811E+03  0.63796735478E+03  0.22768048850E+01 0.  0.
         13    1    3    3    0    0 -0.26665433299E+02 -0.21220259396E+02 -0.42432938051E+03  0.42569562824E+03  0.00000000000E+00 0.  1.
          3    1    3    3  501    0 -0.13095906535E+02 -0.12174917871E+02 -0.21151726760E+03  0.21227172653E+03  0.00000000000E+00 0.  1.
         -3    1    1    2    0  502  0.39761339834E+02  0.33395177266E+02 -0.36123658572E+03  0.36494941139E+03  0.00000000000E+00 0. -1.
<mgrwt>
<rscale>  1 0.30000000E+03</rscale>
<asrwt>0</asrwt>
<pdfrwt beam="1">  1       21 0.10606445E-01 0.30000000E+03</pdfrwt>
<pdfrwt beam="2">0</pdfrwt>
<totfact> 0.77425517E+03</totfact>
</mgrwt>
</event>
<event>
 6    1  0.1270461E-001  0.3000000E+03  0.7818608E-02  0.1093470E+00
         21   -1    0    0  501  502  0.00000000000E+00  0.00000000000E+00  0.20206910303E+01  0.20206910303E+01  0.00000000000E+00 0. -1.
         13   -1    0    0    0    0 -0.00000000000E+00 -0.00000000000E+00 -0.10000000000E+04  0.10000000000E+04  0.00000000000E+00 0.  1.
    9000005    2    1    2  501    0 -0.30335446400E+01  0.32882563087E+02 -0.83851223818E+03  0.83917041619E+03  0.37078954116E+01 0.  0.
         13    1    3    3    0    0 -0.37743194214E+01  0.22170709471E+02 -0.57242435005E+03  0.57286597244E+03  0.00000000000E+00 0.  1.
          3    1    3    3  501    0  0.74077478141E+00  0.10711853616E+02 -0.26608788813E+03  0.26630444375E+03  0.00000000000E+00 0.  1.
         -1    1    1    2    0  502  0.30335446400E+01 -0.32882563087E+02 -0.15946707079E+03  0.16285027484E+03  0.00000000000E+00 0. -1.
<mgrwt>
<rscale>  1 0.30000000E+03</rscale>
<asrwt>0</asrwt>
<pdfrwt beam="1">  1       21 0.73479829E-02 0.30000000E+03</pdfrwt>
<pdfrwt beam="2">0</pdfrwt>
<totfact> 0.14826233E+04</totfact>
</mgrwt>
</event>
<event>
 6    1  0.1270461E-001  0.3000000E+03  0.7818608E-02  0.1093470E+00
         21   -1    0    0  501  502  0.00000000000E+00  0.00000000000E+00  0.35433934420E+01  0.35433934420E+01  0.00000000000E+00 0. -1.
         13   -1    0    0    0    0 -0.00000000000E+00 -0.00000000000E+00 -0.10000000000E+04  0.10000000000E+04  0.00000000000E+00 0.  1.
    9000005    2    1    2  501    0  0.53852934637E+02 -0.19033823325E+02 -0.63849729969E+03  0.64105575176E+03  0.33541247311E+01 0.  0.
         13    1    3    3    0    0  0.44103077974E+02 -0.14894346290E+02 -0.53226802773E+03  0.53429970651E+03  0.00000000000E+00 0.  1.
          1    1    3    3  501    0  0.97498566632E+01 -0.41394770350E+01 -0.10622927196E+03  0.10675604524E+03  0.00000000000E+00 0.  1.
         -1    1    1    2    0  502 -0.53852934637E+02  0.19033823325E+02 -0.35795930687E+03  0.36248764168E+03  0.00000000000E+00 0. -1.
<mgrwt>
<rscale>  1 0.30000000E+03</rscale>
<asrwt>0</asrwt>
<pdfrwt beam="1">  1       21 0.12885094E-01 0.30000000E+03</pdfrwt>
<pdfrwt beam="2">0</pdfrwt>
<totfact> 0.54440489E+03</totfact>
</mgrwt>
</event>
<event>
 6    1  0.1270461E-001  0.3000000E+03  0.7818608E-02  0.1093470E+00
         21   -1    0    0  501  502  0.00000000000E+00  0.00000000000E+00  0.39592145192E+01  0.39592145192E+01  0.00000000000E+00 0. -1.
         13   -1    0    0    0    0 -0.00000000000E+00 -0.00000000000E+00 -0.10000000000E+04  0.10000000000E+04  0.00000000000E+00 0.  1.
    9000005    2    1    2  501    0 -0.40547393229E+02  0.27519086192E+02 -0.81269381412E+03  0.81417643577E+03  0.32621851229E+01 0.  0.
         13    1    3    3    0    0 -0.36033556685E+02  0.25463495772E+02 -0.73875405384E+03  0.74007050941E+03  0.00000000000E+00 0.  1.
          3    1    3    3  501    0 -0.45138365437E+01  0.20555904198E+01 -0.73939760278E+02  0.74105926364E+02  0.00000000000E+00 0.  1.
         -3    1    1    2    0  502  0.40547393229E+02 -0.27519086192E+02 -0.18334697136E+03  0.18978277875E+03  0.00000000000E+00 0. -1.
<mgrwt>
<rscale>  1 0.30000000E+03</rscale>
<asrwt>0</asrwt>
<pdfrwt beam="1">  1       21 0.14397174E-01 0.30000000E+03</pdfrwt>
<pdfrwt beam="2">0</pdfrwt>
<totfact> 0.44420630E+03</totfact>
</mgrwt>
</event>
<event>
 6    1  0.1270461E-001  0.3000000E+03  0.7818608E-02  0.1093470E+00
         21   -1    0    0  501  502  0.00000000000E+00  0.00000000000E+00  0.11615529037E+01  0.11615529037E+01  0.00000000000E+00 0. -1.
         13   -1    0    0    0    0 -0.00000000000E+00 -0.00000000000E+00 -0.10000000000E+04  0.10000000000E+04  0.00000000000E+00 0.  1.
    9000005    2    1    2  501    0 -0.33929018183E+02  0.20946555884E+01 -0.50139610969E+03  0.50255906103E+03  0.34619583701E+01 0.  0.
         13    1    3    3    0    0 -0.28144417307E+02  0.46009782435E+00 -0.40839931795E+03  0.40936819957E+03  0.00000000000E+00 0.  1.
          3    1    3    3  501    0 -0.57846008761E+01  0.16345577640E+01 -0.92996791736E+02  0.93190861460E+02  0.00000000000E+00 0.  1.
         -1    1    1    2    0  502  0.33929018183E+02 -0.20946555884E+01 -0.49744233741E+03  0.49860249188E+03  0.00000000000E+00 0. -1.
<mgrwt>
<rscale>  1 0.30000000E+03</rscale>
<asrwt>0</asrwt>
<pdfrwt beam="1">  1       21 0.42238376E-02 0.30000000E+03</pdfrwt>
<pdfrwt beam="2">0</pdfrwt>
<totfact> 0.38358048E+04</totfact>
</mgrwt>
</event>
<event>
 6    1  0.1270461E-001  0.3000000E+03  0.7818608E-02  0.1093470E+00
         21   -1    0    0  501  502  0.00000000000E+00  0.00000000000E+00  0.20699259717E+01  0.20699259717E+01  0.00000000000E+00 0. -1.
         13   -1    0    0    0    0 -0.00000000000E+00 -0.00000000000E+00 -0.10000000000E+04  0.10000000000E+04  0.00000000000E+00 0.  1.
    9000005    2    1    2  501    0 -0.28876474953E+02  0.32077133046E+02 -0.65591484781E+03  0.65734219538E+03  0.34177457629E+01 0.  0.
         13    1    3    3    0    0 -0.12799718729E+02  0.13986498053E+02 -0.26272130832E+03  0.26340451927E+03  0.00000000000E+00 0.  1.
          3    1    3    3  501    0 -0.16076756224E+02  0.18090634993E+02 -0.39319353949E+03  0.39393767611E+03  0.00000000000E+00 0.  1.
         -1    1    1    2    0  502  0.28876474953E+02 -0.32077133046E+02 -0.34201522622E+03  0.34472773059E+03  0.00000000000E+00 0. -1.
<mgrwt>
<rscale>  1 0.30000000E+03</rscale>
<asrwt>0</asrwt>
<pdfrwt beam="1">  1       21 0.75270194E-02 0.30000000E+03</pdfrwt>
<pdfrwt beam="2">0</pdfrwt>
<totfact> 0.14214674E+04</totfact>
</mgrwt>
</event>
<event>
 6    1  0.1270461E-001  0.3000000E+03  0.7818608E-02  0.1093470E+00
         21   -1    0    0  501  502  0.00000000000E+00  0.00000000000E+00  0.20661381180E+01  0.20661381180E+01  0.00000000000E+00 0. -1.
         13   -1    0    0    0    0 -0.00000000000E+00 -0.00000000000E+00 -0.10000000000E+04  0.10000000000E+04  0.00000000000E+00 0.  1.
    9000005    2    1    2  501    0  0.12438917096E+02 -0.43504079396E+02 -0.45944820451E+03  0.46168281604E+03  0.33224115306E+01 0.  0.
         13    1    3    3    0    0  0.15562042246E+00 -0.31481173393E+01 -0.27720670514E+02  0.27899290927E+02  0.00000000000E+00 0.  1.
          3    1    3    3  501    0  0.12283296673E+02 -0.40355962056E+02 -0.43172753399E+03  0.43378352511E+03  0.00000000000E+00 0.  1.
         -1    1    1    2    0  502 -0.12438917096E+02  0.43504079396E+02 -0.53848565737E+03  0.54038332208E+03  0.00000000000E+00 0. -1.
<mgrwt>
<rscale>  1 0.30000000E+03</rscale>
<asrwt>0</asrwt>
<pdfrwt beam="1">  1       21 0.75132454E-02 0.30000000E+03</pdfrwt>
<pdfrwt beam="2">0</pdfrwt>
<totfact> 0.14260337E+04</totfact>
</mgrwt>
</event>
<event>
 6    1  0.1270461E-001  0.3000000E+03  0.7818608E-02  0.1093470E+00
         21   -1    0    0  501  502  0.00000000000E+00  0.00000000000E+00  0.10459289793E+01  0.10459289793E+01  0.00000000000E+00 0. -1.
         13   -1    0    0    0    0 -0.00000000000E+00 -0.00000000000E+00 -0.10000000000E+04  0.10000000000E+04  0.00000000000E+00 0.  1.
    9000005    2    1    2  501    0  0.25408971648E+02 -0.16169632510E+02 -0.67568281952E+03  0.67637474932E+03  0.53344226520E+01 0.  0.
         13    1    3    3    0    0  0.11431260038E+02 -0.96990673661E+01 -0.29548279868E+03  0.29586285662E+03  0.00000000000E+00 0.  1.
          3    1    3    3  501    0  0.13977711611E+02 -0.64705651440E+01 -0.38020002084E+03  0.38051189269E+03  0.00000000000E+00 0.  1.
         -3    1    1    2    0  502 -0.25408971648E+02  0.16169632510E+02 -0.32327125150E+03  0.32467117966E+03  0.00000000000E+00 0. -1.
<mgrwt>
<rscale>  1 0.30000000E+03</rscale>
<asrwt>0</asrwt>
<pdfrwt beam="1">  1       21 0.38033861E-02 0.30000000E+03</pdfrwt>
<pdfrwt beam="2">0</pdfrwt>
<totfact> 0.45767538E+04</totfact>
</mgrwt>
</event>
<event>
 6    1  0.1270461E-001  0.3000000E+03  0.7818608E-02  0.1093470E+00
         21   -1    0    0  501  502  0.00000000000E+00  0.00000000000E+00  0.30346627272E+01  0.30346627272E+01  0.00000000000E+00 0. -1.
         13   -1    0    0    0    0 -0.00000000000E+00 -0.00000000000E+00 -0.10000000000E+04  0.10000000000E+04  0.00000000000E+00 0.  1.
    9000005    2    1    2  501    0 -0.34079122543E+02 -0.31310597445E+02 -0.77012890796E+03  0.77152547118E+03  0.33582293048E+01 0.  0.
         13    1    3    3    0    0 -0.29425188867E+01 -0.36308780173E+01 -0.66139734477E+02  0.66304646664E+02  0.00000000000E+00 0.  1.
          1    1    3    3  501    0 -0.31136603657E+02 -0.27679719428E+02 -0.70398917348E+03  0.70522082452E+03  0.00000000000E+00 0.  1.
         -1    1    1    2    0  502  0.34079122543E+02  0.31310597445E+02 -0.22683642931E+03  0.23150919154E+03  0.00000000000E+00 0. -1.
<mgrwt>
<rscale>  1 0.30000000E+03</rscale>
<asrwt>0</asrwt>
<pdfrwt beam="1">  1       21 0.11035160E-01 0.30000000E+03</pdfrwt>
<pdfrwt beam="2">0</pdfrwt>
<totfact> 0.72104983E+03</totfact>
</mgrwt>
</event>
<event>
 6    1  0.1270461E-001  0.3000000E+03  0.7818608E-02  0.1093470E+00
         21   -1    0    0  501  502  0.00000000000E+00  0.00000000000E+00  0.38012369422E+01  0.38012369422E+01  0.00000000000E+00 0. -1.
         13   -1    0    0    0    0 -0.00000000000E+00 -0.00000000000E+00 -0.10000000000E+04  0.10000000000E+04  0.00000000000E+00 0.  1.
    9000005    2    1    2  501    0 -0.56473223322E+02 -0.24054282945E+02 -0.45408313004E+03  0.45822155162E+03  0.27690966739E+01 0.  0.
         13    1    3    3    0    0 -0.54060326535E-01 -0.14924666688E+00 -0.17243599723E+01  0.17316507732E+01  0.00000000000E+00 0.  1.
          1    1    3    3  501    0 -0.56419162995E+02 -0.23905036278E+02 -0.45235877007E+03  0.45648990084E+03  0.00000000000E+00 0.  1.
         -3    1    1    2    0  502  0.56473223322E+02  0.24054282945E+02 -0.54211563301E+03  0.54557968532E+03  0.00000000000E+00 0. -1.
<mgrwt>
<rscale>  1 0.30000000E+03</rscale>
<asrwt>0</asrwt>
<pdfrwt beam="1">  1       21 0.13822709E-01 0.30000000E+03</pdfrwt>
<pdfrwt beam="2">0</pdfrwt>
<totfact> 0.47874121E+03</totfact>
</mgrwt>
</event>
<event>
 6    1  0.1270461E-001  0.3000000E+03  0.7818608E-02  0.1093470E+00
         21   -1    0    0  501  502  0.00000000000E+00  0.00000000000E+00  0.12590726094E+01  0.12590726094E+01  0.00000000000E+00 0. -1.
         13   -1    0    0    0    0 -0.00000000000E+00 -0.00000000000E+00 -0.10000000000E+04  0.10000000000E+04  0.00000000000E+00 0.  1.
    9000005    2    1    2  501    0  0.51447295431E+01  0.33540679186E+02 -0.64294983097E+03  0.64385349110E+03  0.33745302258E+01 0.  0.
         13    1    3    3    0    0 -0.41571464143E+00  0.50245589972E+01 -0.91071128559E+02  0.91210577615E+02  0.00000000000E+00 0.  1.
          3    1    3    3  501    0  0.55604441846E+01  0.28516120189E+02 -0.55187870241E+03  0.55264291349E+03  0.00000000000E+00 0.  1.
         -1    1    1    2    0  502 -0.51447295431E+01 -0.33540679186E+02 -0.35579109642E+03  0.35740558151E+03  0.00000000000E+00 0. -1.
<mgrwt>
<rscale>  1 0.30000000E+03</rscale>
<asrwt>0</asrwt>
<pdfrwt beam="1">  1       21 0.45784555E-02 0.30000000E+03</pdfrwt>
<pdfrwt beam="2">0</pdfrwt>
<totfact> 0.33461590E+04</totfact>
</mgrwt>
</event>
<event>
 6    1  0.1270461E-001  0.3000000E+03  0.7818608E-02  0.1093470E+00
         21   -1    0    0  501  502  0.00000000000E+00  0.00000000000E+00  0.96408880315E+00  0.96408880315E+00  0.00000000000E+00 0. -1.
         13   -1    0    0    0    0 -0.00000000000E+00 -0.00000000000E+00 -0.10000000000E+04  0.10000000000E+04  0.00000000000E+00 0.  1.
    9000005    2    1    2  501    0 -0.14908225769E+02 -0.26632058475E+02 -0.58288571684E+03  0.58369618206E+03  0.37352806622E+01 0.  0.
         13    1    3    3    0    0 -0.30999756198E+01 -0.37056363122E+01 -0.11314381446E+03  0.11324691757E+03  0.00000000000E+00 0.  1.
          3    1    3    3  501    0 -0.11808250149E+02 -0.22926422163E+02 -0.46974190238E+03  0.47044926449E+03  0.00000000000E+00 0.  1.
         -1    1    1    2    0  502  0.14908225769E+02  0.26632058475E+02 -0.41615019436E+03  0.41726790674E+03  0.00000000000E+00 0. -1.
<mgrwt>
<rscale>  1 0.30000000E+03</rscale>
<asrwt>0</asrwt>
<pdfrwt beam="1">  1       21 0.35057849E-02 0.30000000E+03</pdfrwt>
<pdfrwt beam="2">0</pdfrwt>
<totfact> 0.52471498E+04</totfact>
</mgrwt>
</event>
<event>
 6    1  0.1270461E-001  0.3000000E+03  0.7818608E-02  0.1093470E+00
         21   -1    0    0  501  502  0.00000000000E+00  0.00000000000E+00  0.52026180993E+01  0.52026180993E+01  0.00000000000E+00 0. -1.
         13   -1    0    0    0    0 -0.00000000000E+00 -0.00000000000E+00 -0.10000000000E+04  0.10000000000E+04  0.00000000000E+00 0.  1.
    9000005    2    1    2  501    0  0.48138810769E+02  0.39710127021E+02 -0.74921549640E+03  0.75181615086E+03  0.30700763396E+01 0.  0.
         13    1    3    3    0    0  0.38327804670E+02  0.29966703252E+02 -0.58287390349E+03  0.58490085594E+03  0.00000000000E+00 0.  1.
          1    1    3    3  501    0  0.98110060983E+01  0.97434237690E+01 -0.16634159291E+03  0.16691529492E+03  0.00000000000E+00 0.  1.
         -1    1    1    2    0  502 -0.48138810769E+02 -0.39710127021E+02 -0.24558188550E+03  0.25338646724E+03  0.00000000000E+00 0. -1.
<mgrwt>
<rscale>  1 0.30000000E+03</rscale>
<asrwt>0</asrwt>
<pdfrwt beam="1">  1       21 0.18918651E-01 0.30000000E+03</pdfrwt>
<pdfrwt beam="2">0</pdfrwt>
<totfact> 0.26666820E+03</totfact>
</mgrwt>
</event>
<event>
 6    1  0.1270461E-001  0.3000000E+03  0.7818608E-02  0.1093470E+00
         21   -1    0    0  501  502  0.00000000000E+00  0.00000000000E+00  0.13973590551E+01  0.13973590551E+01  0.00000000000E+00 0. -1.
         13   -1    0    0    0    0 -0.00000000000E+00 -0.00000000000E+00 -0.10000000000E+04  0.10000000000E+04  0.00000000000E+00 0.  1.
    9000005    2    1    2  501    0 -0.30559493582E+02 -0.19087818008E+02 -0.37000974918E+03  0.37177266845E+03  0.30781605964E+01 0.  0.
         13    1    3    3    0    0 -0.25628719830E+02 -0.14832028788E+02 -0.29652677492E+03  0.29800159161E+03  0.00000000000E+00 0.  1.
          1    1    3    3  501    0 -0.49307737518E+01 -0.42557892197E+01 -0.73482974266E+02  0.73771076844E+02  0.00000000000E+00 0.  1.
         -1    1    1    2    0  502  0.30559493582E+02  0.19087818008E+02 -0.62859289176E+03  0.62962469060E+03  0.00000000000E+00 0. -1.
<mgrwt>
<rscale>  1 0.30000000E+03</rscale>
<asrwt>0</asrwt>
<pdfrwt beam="1">  1       21 0.50813164E-02 0.30000000E+03</pdfrwt>
<pdfrwt beam="2">0</pdfrwt>
<totfact> 0.28022967E+04</totfact>
</mgrwt>
</event>
<event>
 6    1  0.1270461E-001  0.3000000E+03  0.7818608E-02  0.1093470E+00
         21   -1    0    0  501  502  0.00000000000E+00  0.00000000000E+00  0.58430097634E+01  0.58430097634E+01  0.00000000000E+00 0. -1.
         13   -1    0    0    0    0 -0.00000000000E+00 -0.00000000000E+00 -0.10000000000E+04  0.10000000000E+04  0.00000000000E+00 0.  1.
    9000005    2    1    2  501    0  0.14244889750E+02  0.32824732692E+02 -0.94146150992E+03  0.94214690623E+03  0.32616386085E+01 0.  0.
         13    1    3    3    0    0  0.98558764242E+00  0.51314968908E+01 -0.14012007176E+03  0.14021746736E+03  0.00000000000E+00 0.  1.
          1    1    3    3  501    0  0.13259302108E+02  0.27693235801E+02 -0.80134143816E+03  0.80192943886E+03  0.00000000000E+00 0.  1.
         -3    1    1    2    0  502 -0.14244889750E+02 -0.32824732692E+02 -0.52695480315E+02  0.63696103538E+02  0.00000000000E+00 0. -1.
<mgrwt>
<rscale>  1 0.30000000E+03</rscale>
<asrwt>0</asrwt>
<pdfrwt beam="1">  1       21 0.21247353E-01 0.30000000E+03</pdfrwt>
<pdfrwt beam="2">0</pdfrwt>
<totfact> 0.21368892E+03</totfact>
</mgrwt>
</event>
<event>
 6    1  0.1270461E-001  0.3000000E+03  0.7818608E-02  0.1093470E+00
         21   -1    0    0  501  502  0.00000000000E+00  0.00000000000E+00  0.37682842023E+01  0.37682842023E+01  0.00000000000E+00 0. -1.
         13   -1    0    0    0    0 -0.00000000000E+00 -0.00000000000E+00 -0.10000000000E+04  0.10000000000E+04  0.00000000000E+00 0.  1.
    9000005    2    1    2  501    0  0.47020853996E+02 -0.29129512237E+02 -0.71535146307E+03  0.71749358122E+03  0.31359505251E+01 0.  0.
         13    1    3    3    0    0  0.76393811367E+01 -0.46076774581E+01 -0.10125322220E+03  0.10164549101E+03  0.00000000000E+00 0.  1.
          1    1    3    3  501    0  0.39381472859E+02 -0.24521834779E+02 -0.61409824086E+03  0.61584809021E+03  0.00000000000E+00 0.  1.
         -1    1    1    2    0  502 -0.47020853996E+02  0.29129512237E+02 -0.28088025273E+03  0.28627470298E+03  0.00000000000E+00 0. -1.
<mgrwt>
<rscale>  1 0.30000000E+03</rscale>
<asrwt>0</asrwt>
<pdfrwt beam="1">  1       21 0.13702881E-01 0.30000000E+03</pdfrwt>
<pdfrwt beam="2">0</pdfrwt>
<totfact> 0.48644921E+03</totfact>
</mgrwt>
</event>
<event>
 6    1  0.1270461E-001  0.3000000E+03  0.7818608E-02  0.1093470E+00
         21   -1    0    0  501  502  0.00000000000E+00  0.00000000000E+00  0.62575293212E+01  0.62575293212E+01  0.00000000000E+00 0. -1.
         13   -1    0    0    0    0 -0.00000000000E+00 -0.00000000000E+00 -0.10000000000E+04  0.10000000000E+04  0.00000000000E+00 0.  1.
    9000005    2    1    2  501    0 -0.12480128306E+02 -0.31845875180E+02 -0.95050291560E+03  0.95112521128E+03  0.36690071237E+01 0.  0.
         13    1    3    3    0    0 -0.11392287845E+02 -0.26656486110E+02 -0.82890933142E+03  0.82941607905E+03  0.00000000000E+00 0.  1.
          3    1    3    3  501    0 -0.10878404612E+01 -0.51893890703E+01 -0.12159358417E+03  0.12170913223E+03  0.00000000000E+00 0.  1.
         -3    1    1    2    0  502  0.12480128306E+02  0.31845875180E+02 -0.43239555083E+02  0.55132318039E+02  0.00000000000E+00 0. -1.
<mgrwt>
<rscale>  1 0.30000000E+03</rscale>
<asrwt>0</asrwt>
<pdfrwt beam="1">  1       21 0.22754700E-01 0.30000000E+03</pdfrwt>
<pdfrwt beam="2">0</pdfrwt>
<totfact> 0.18727064E+03</totfact>
</mgrwt>
</event>
<event>
 6    1  0.1270461E-001  0.3000000E+03  0.7818608E-02  0.1093470E+00
         21   -1    0    0  501  502  0.00000000000E+00  0.00000000000E+00  0.28031919573E+01  0.28031919573E+01  0.00000000000E+00 0. -1.
         13   -1    0    0    0    0 -0.00000000000E+00 -0.00000000000E+00 -0.10000000000E+04  0.10000000000E+04  0.00000000000E+00 0.  1.
    9000005    2    1    2  501    0 -0.76767896182E+01 -0.29595849100E+02 -0.90782353031E+03  0.90834457586E+03  0.33851030259E+01 0.  0.
         13    1    3    3    0    0 -0.50339010463E+01 -0.13525349383E+02 -0.40235207396E+03  0.40261081289E+03  0.00000000000E+00 0.  1.
          3    1    3    3  501    0 -0.26428885719E+01 -0.16070499717E+02 -0.50547145636E+03  0.50573376297E+03  0.00000000000E+00 0.  1.
         -1    1    1    2    0  502  0.76767896182E+01  0.29595849100E+02 -0.89373277731E+02  0.94458616098E+02  0.00000000000E+00 0. -1.
<mgrwt>
<rscale>  1 0.30000000E+03</rscale>
<asrwt>0</asrwt>
<pdfrwt beam="1">  1       21 0.10193447E-01 0.30000000E+03</pdfrwt>
<pdfrwt beam="2">0</pdfrwt>
<totfact> 0.83134796E+03</totfact>
</mgrwt>
</event>
<event>
 6    1  0.1389883E-001  0.3000000E+03  0.7818608E-02  0.1093470E+00
         21   -1    0    0  501  502  0.00000000000E+00  0.00000000000E+00  0.30385935435E+01  0.30385935435E+01  0.00000000000E+00 0. -1.
         13   -1    0    0    0    0 -0.00000000000E+00 -0.00000000000E+00 -0.10000000000E+04  0.10000000000E+04  0.00000000000E+00 0.  1.
    9000005    2    1    2  501    0  0.38064223851E+02  0.28122360494E+02 -0.75229584523E+03  0.75383789301E+03  0.90982353852E+01 0.  0.
         13    1    3    3    0    0  0.14243990808E+01  0.41992389340E+01 -0.68906092796E+02  0.69048621600E+02  0.00000000000E+00 0.  1.
          3    1    3    3  501    0  0.36639824771E+02  0.23923121560E+02 -0.68338975243E+03  0.68478927141E+03  0.00000000000E+00 0.  1.
         -3    1    1    2    0  502 -0.38064223851E+02 -0.28122360494E+02 -0.24466556123E+03  0.24920070054E+03  0.00000000000E+00 0. -1.
<mgrwt>
<rscale>  1 0.30000000E+03</rscale>
<asrwt>0</asrwt>
<pdfrwt beam="1">  1       21 0.11049454E-01 0.30000000E+03</pdfrwt>
<pdfrwt beam="2">0</pdfrwt>
<totfact> 0.71937196E+03</totfact>
</mgrwt>
</event>
<event>
 6    1  0.1270461E-001  0.3000000E+03  0.7818608E-02  0.1093470E+00
         21   -1    0    0  501  502  0.00000000000E+00  0.00000000000E+00  0.38110296165E+01  0.38110296165E+01  0.00000000000E+00 0. -1.
         13   -1    0    0    0    0 -0.00000000000E+00 -0.00000000000E+00 -0.10000000000E+04  0.10000000000E+04  0.00000000000E+00 0.  1.
    9000005    2    1    2  501    0  0.10546400632E+02  0.51604977556E+02 -0.23873682775E+03  0.24452975851E+03  0.50229072598E+01 0.  0.
         13    1    3    3    0    0  0.89181851995E+01  0.31849620108E+02 -0.15194149815E+03  0.15549968228E+03  0.00000000000E+00 0.  1.
          3    1    3    3  501    0  0.16282154322E+01  0.19755357448E+02 -0.86795329599E+02  0.89030076230E+02  0.00000000000E+00 0.  1.
         -3    1    1    2    0  502 -0.10546400632E+02 -0.51604977556E+02 -0.75745214263E+03  0.75928127111E+03  0.00000000000E+00 0. -1.
<mgrwt>
<rscale>  1 0.30000000E+03</rscale>
<asrwt>0</asrwt>
<pdfrwt beam="1">  1       21 0.13858319E-01 0.30000000E+03</pdfrwt>
<pdfrwt beam="2">0</pdfrwt>
<totfact> 0.47648580E+03</totfact>
</mgrwt>
</event>
<event>
 6    1  0.1270461E-001  0.3000000E+03  0.7818608E-02  0.1093470E+00
         21   -1    0    0  501  502  0.00000000000E+00  0.00000000000E+00  0.20541365671E+01  0.20541365671E+01  0.00000000000E+00 0. -1.
         13   -1    0    0    0    0 -0.00000000000E+00 -0.00000000000E+00 -0.10000000000E+04  0.10000000000E+04  0.00000000000E+00 0.  1.
    9000005    2    1    2  501    0  0.32787443514E+02 -0.30262517457E+02 -0.58428888789E+03  0.58599773434E+03  0.30006216594E+01 0.  0.
         13    1    3    3    0    0  0.38847948354E+01 -0.26197087956E+01 -0.54049815172E+02  0.54252530127E+02  0.00000000000E+00 0.  1.
          1    1    3    3  501    0  0.28902648678E+02 -0.27642808661E+02 -0.53023907272E+03  0.53174520422E+03  0.00000000000E+00 0.  1.
         -1    1    1    2    0  502 -0.32787443514E+02  0.30262517457E+02 -0.41365697554E+03  0.41605640222E+03  0.00000000000E+00 0. -1.
<mgrwt>
<rscale>  1 0.30000000E+03</rscale>
<asrwt>0</asrwt>
<pdfrwt beam="1">  1       21 0.74696033E-02 0.30000000E+03</pdfrwt>
<pdfrwt beam="2">0</pdfrwt>
<totfact> 0.14406529E+04</totfact>
</mgrwt>
</event>
<event>
 6    1  0.1270461E-001  0.3000000E+03  0.7818608E-02  0.1093470E+00
         21   -1    0    0  501  502  0.00000000000E+00  0.00000000000E+00  0.18812393745E+01  0.18812393745E+01  0.00000000000E+00 0. -1.
         13   -1    0    0    0    0 -0.00000000000E+00 -0.00000000000E+00 -0.10000000000E+04  0.10000000000E+04  0.00000000000E+00 0.  1.
    9000005    2    1    2  501    0  0.34794705346E+02 -0.25354518606E+02 -0.55189770107E+03  0.55358807958E+03  0.38943889633E+01 0.  0.
         13    1    3    3    0    0  0.13020870283E+02 -0.10649369244E+02 -0.19463387475E+03  0.19535940553E+03  0.00000000000E+00 0.  1.
          3    1    3    3  501    0  0.21773835063E+02 -0.14705149362E+02 -0.35726382632E+03  0.35822867405E+03  0.00000000000E+00 0.  1.
         -1    1    1    2    0  502 -0.34794705346E+02  0.25354518606E+02 -0.44622105955E+03  0.44829315980E+03  0.00000000000E+00 0. -1.
<mgrwt>
<rscale>  1 0.30000000E+03</rscale>
<asrwt>0</asrwt>
<pdfrwt beam="1">  1       21 0.68408849E-02 0.30000000E+03</pdfrwt>
<pdfrwt beam="2">0</pdfrwt>
<totfact> 0.16793436E+04</totfact>
</mgrwt>
</event>
<event>
 6    1  0.1270461E-001  0.3000000E+03  0.7818608E-02  0.1093470E+00
         21   -1    0    0  501  502  0.00000000000E+00  0.00000000000E+00  0.97567662611E+00  0.97567662611E+00  0.00000000000E+00 0. -1.
         13   -1    0    0    0    0 -0.00000000000E+00 -0.00000000000E+00 -0.10000000000E+04  0.10000000000E+04  0.00000000000E+00 0.  1.
    9000005    2    1    2  501    0 -0.30603152136E+02 -0.27310602952E+01 -0.58297815679E+03  0.58379654923E+03  0.32966620087E+01 0.  0.
         13    1    3    3    0    0 -0.13150867712E+02 -0.26593541269E+01 -0.24037085443E+03  0.24074502101E+03  0.00000000000E+00 0.  1.
          1    1    3    3  501    0 -0.17452284424E+02 -0.71706168329E-01 -0.34260730237E+03  0.34305152821E+03  0.00000000000E+00 0.  1.
         -3    1    1    2    0  502  0.30603152136E+02  0.27310602952E+01 -0.41604616658E+03  0.41717912740E+03  0.00000000000E+00 0. -1.
<mgrwt>
<rscale>  1 0.30000000E+03</rscale>
<asrwt>0</asrwt>
<pdfrwt beam="1">  1       21 0.35479225E-02 0.30000000E+03</pdfrwt>
<pdfrwt beam="2">0</pdfrwt>
<totfact> 0.51431593E+04</totfact>
</mgrwt>
</event>
<event>
 6    1  0.1270461E-001  0.3000000E+03  0.7818608E-02  0.1093470E+00
         21   -1    0    0  501  502  0.00000000000E+00  0.00000000000E+00  0.16575610452E+01  0.16575610452E+01  0.00000000000E+00 0. -1.
         13   -1    0    0    0    0 -0.00000000000E+00 -0.00000000000E+00 -0.10000000000E+04  0.10000000000E+04  0.00000000000E+00 0.  1.
    9000005    2    1    2  501    0  0.20893303948E+02  0.25815793322E+02 -0.78814881474E+03  0.78885637450E+03  0.35833054164E+01 0.  0.
         13    1    3    3    0    0  0.18406852166E+02  0.23738052863E+02 -0.68866022356E+03  0.68931503021E+03  0.00000000000E+00 0.  1.
          1    1    3    3  501    0  0.24864517817E+01  0.20777404591E+01 -0.99488591179E+02  0.99541344288E+02  0.00000000000E+00 0.  1.
         -1    1    1    2    0  502 -0.20893303948E+02 -0.25815793322E+02 -0.21019362422E+03  0.21280118655E+03  0.00000000000E+00 0. -1.
<mgrwt>
<rscale>  1 0.30000000E+03</rscale>
<asrwt>0</asrwt>
<pdfrwt beam="1">  1       21 0.60275074E-02 0.30000000E+03</pdfrwt>
<pdfrwt beam="2">0</pdfrwt>
<totfact> 0.20906077E+04</totfact>
</mgrwt>
</event>
<event>
 6    1  0.1270461E-001  0.3000000E+03  0.7818608E-02  0.1093470E+00
         21   -1    0    0  501  502  0.00000000000E+00  0.00000000000E+00  0.17627166118E+01  0.17627166118E+01  0.00000000000E+00 0. -1.
         13   -1    0    0    0    0 -0.00000000000E+00 -0.00000000000E+00 -0.10000000000E+04  0.10000000000E+04  0.00000000000E+00 0.  1.
    9000005    2    1    2  501    0  0.11418231299E+00  0.31212703928E+02 -0.83363495499E+03  0.83422713103E+03  0.36636090440E+01 0.  0.
         13    1    3    3    0    0 -0.17265319102E-01  0.17095923116E+02 -0.50441244949E+03  0.50470208052E+03  0.00000000000E+00 0.  1.
          1    1    3    3  501    0  0.13144763209E+00  0.14116780812E+02 -0.32922250551E+03  0.32952505051E+03  0.00000000000E+00 0.  1.
         -3    1    1    2    0  502 -0.11418231299E+00 -0.31212703928E+02 -0.16460232839E+03  0.16753558558E+03  0.00000000000E+00 0. -1.
<mgrwt>
<rscale>  1 0.30000000E+03</rscale>
<asrwt>0</asrwt>
<pdfrwt beam="1">  1       21 0.64098921E-02 0.30000000E+03</pdfrwt>
<pdfrwt beam="2">0</pdfrwt>
<totfact> 0.18798783E+04</totfact>
</mgrwt>
</event>
<event>
 6    1  0.1270461E-001  0.3000000E+03  0.7818608E-02  0.1093470E+00
         21   -1    0    0  501  502  0.00000000000E+00  0.00000000000E+00  0.10974963858E+01  0.10974963858E+01  0.00000000000E+00 0. -1.
         13   -1    0    0    0    0 -0.00000000000E+00 -0.00000000000E+00 -0.10000000000E+04  0.10000000000E+04  0.00000000000E+00 0.  1.
    9000005    2    1    2  501    0  0.32456487170E+02  0.14451460785E+01 -0.59347468689E+03  0.59437003655E+03  0.28327316569E+01 0.  0.
         13    1    3    3    0    0  0.91528349923E+01  0.86788321774E+00 -0.19041453210E+03  0.19063635971E+03  0.00000000000E+00 0.  1.
          1    1    3    3  501    0  0.23303652178E+02  0.57726286079E+00 -0.40306015479E+03  0.40373367684E+03  0.00000000000E+00 0.  1.
         -3    1    1    2    0  502 -0.32456487170E+02 -0.14451460785E+01 -0.40542781672E+03  0.40672745983E+03  0.00000000000E+00 0. -1.
<mgrwt>
<rscale>  1 0.30000000E+03</rscale>
<asrwt>0</asrwt>
<pdfrwt beam="1">  1       21 0.39909044E-02 0.30000000E+03</pdfrwt>
<pdfrwt beam="2">0</pdfrwt>
<totfact> 0.42208820E+04</totfact>
</mgrwt>
</event>
<event>
 6    1  0.1270461E-001  0.3000000E+03  0.7818608E-02  0.1093470E+00
         21   -1    0    0  501  502  0.00000000000E+00  0.00000000000E+00  0.16728031861E+01  0.16728031861E+01  0.00000000000E+00 0. -1.
         13   -1    0    0    0    0 -0.00000000000E+00 -0.00000000000E+00 -0.10000000000E+04  0.10000000000E+04  0.00000000000E+00 0.  1.
    9000005    2    1    2  501    0  0.16501918634E+02  0.26292625578E+02 -0.82111128492E+03  0.82175867115E+03  0.99977950801E+01 0.  0.
         13    1    3    3    0    0  0.14834565102E+02  0.25592642880E+02 -0.68864923159E+03  0.68928427507E+03  0.00000000000E+00 0.  1.
          1    1    3    3  501    0  0.16673535322E+01  0.69998269812E+00 -0.13246205334E+03  0.13247439608E+03  0.00000000000E+00 0.  1.
         -3    1    1    2    0  502 -0.16501918634E+02 -0.26292625578E+02 -0.17721591189E+03  0.17991413203E+03  0.00000000000E+00 0. -1.
<mgrwt>
<rscale>  1 0.30000000E+03</rscale>
<asrwt>0</asrwt>
<pdfrwt beam="1">  1       21 0.60829335E-02 0.30000000E+03</pdfrwt>
<pdfrwt beam="2">0</pdfrwt>
<totfact> 0.20578514E+04</totfact>
</mgrwt>
</event>
<event>
 6    1  0.1270461E-001  0.3000000E+03  0.7818608E-02  0.1093470E+00
         21   -1    0    0  501  502  0.00000000000E+00  0.00000000000E+00  0.15730296646E+01  0.15730296646E+01  0.00000000000E+00 0. -1.
         13   -1    0    0    0    0 -0.00000000000E+00 -0.00000000000E+00 -0.10000000000E+04  0.10000000000E+04  0.00000000000E+00 0.  1.
    9000005    2    1    2  501    0  0.23464193607E+02 -0.21057317435E+02 -0.80221632090E+03  0.80284558327E+03  0.40032557109E+01 0.  0.
         13    1    3    3    0    0  0.13552640368E+02 -0.95083926155E+01 -0.41008162129E+03  0.41041566699E+03  0.00000000000E+00 0.  1.
          1    1    3    3  501    0  0.99115532390E+01 -0.11548924820E+02 -0.39213469961E+03  0.39242991628E+03  0.00000000000E+00 0.  1.
         -1    1    1    2    0  502 -0.23464193607E+02  0.21057317435E+02 -0.19621064943E+03  0.19872744639E+03  0.00000000000E+00 0. -1.
<mgrwt>
<rscale>  1 0.30000000E+03</rscale>
<asrwt>0</asrwt>
<pdfrwt beam="1">  1       21 0.57201199E-02 0.30000000E+03</pdfrwt>
<pdfrwt beam="2">0</pdfrwt>
<totfact> 0.22879195E+04</totfact>
</mgrwt>
</event>
<event>
 6    1  0.1270461E-001  0.3000000E+03  0.7818608E-02  0.1093470E+00
         21   -1    0    0  501  502  0.00000000000E+00  0.00000000000E+00  0.34396742905E+01  0.34396742905E+01  0.00000000000E+00 0. -1.
         13   -1    0    0    0    0 -0.00000000000E+00 -0.00000000000E+00 -0.10000000000E+04  0.10000000000E+04  0.00000000000E+00 0.  1.
    9000005    2    1    2  501    0 -0.18987784857E+02  0.38475540356E+02 -0.84012731049E+03  0.84122934345E+03  0.34651518377E+01 0.  0.
         13    1    3    3    0    0 -0.11246637322E+02  0.20003752136E+02 -0.47219606577E+03  0.47275338336E+03  0.00000000000E+00 0.  1.
          1    1    3    3  501    0 -0.77411475353E+01  0.18471788220E+02 -0.36793124472E+03  0.36847596010E+03  0.00000000000E+00 0.  1.
         -3    1    1    2    0  502  0.18987784857E+02 -0.38475540356E+02 -0.15643301522E+03  0.16221033084E+03  0.00000000000E+00 0. -1.
<mgrwt>
<rscale>  1 0.30000000E+03</rscale>
<asrwt>0</asrwt>
<pdfrwt beam="1">  1       21 0.12507933E-01 0.30000000E+03</pdfrwt>
<pdfrwt beam="2">0</pdfrwt>
<totfact> 0.57470493E+03</totfact>
</mgrwt>
</event>
<event>
 6    1  0.1270461E-001  0.3000000E+03  0.7818608E-02  0.1093470E+00
         21   -1    0    0  501  502  0.00000000000E+00  0.00000000000E+00  0.11693783481E+01  0.11693783481E+01  0.00000000000E+00 0. -1.
         13   -1    0    0    0    0 -0.00000000000E+00 -0.00000000000E+00 -0.10000000000E+04  0.10000000000E+04  0.00000000000E+00 0.  1.
    9000005    2    1    2  501    0 -0.12965850419E+02  0.31512585389E+02 -0.52885800973E+03  0.52996304109E+03  0.29789513860E+01 0.  0.
         13    1    3    3    0    0 -0.83131604468E+01  0.21356386305E+02 -0.37550336333E+03  0.37620204644E+03  0.00000000000E+00 0.  1.
          1    1    3    3  501    0 -0.46526899725E+01  0.10156199084E+02 -0.15335464640E+03  0.15376099465E+03  0.00000000000E+00 0.  1.
         -1    1    1    2    0  502  0.12965850419E+02 -0.31512585389E+02 -0.46997261192E+03  0.47120633726E+03  0.00000000000E+00 0. -1.
<mgrwt>
<rscale>  1 0.30000000E+03</rscale>
<asrwt>0</asrwt>
<pdfrwt beam="1">  1       21 0.42522939E-02 0.30000000E+03</pdfrwt>
<pdfrwt beam="2">0</pdfrwt>
<totfact> 0.37925346E+04</totfact>
</mgrwt>
</event>
<event>
 6    1  0.1270461E-001  0.3000000E+03  0.7818608E-02  0.1093470E+00
         21   -1    0    0  501  502  0.00000000000E+00  0.00000000000E+00  0.15259105808E+01  0.15259105808E+01  0.00000000000E+00 0. -1.
         13   -1    0    0    0    0 -0.00000000000E+00 -0.00000000000E+00 -0.10000000000E+04  0.10000000000E+04  0.00000000000E+00 0.  1.
    9000005    2    1    2  501    0 -0.90329324403E+01 -0.33634455128E+02 -0.72479940276E+03  0.72564422478E+03  0.35350078478E+01 0.  0.
         13    1    3    3    0    0  0.24206387520E+00 -0.17912052342E+01 -0.31228774997E+02  0.31281038969E+02  0.00000000000E+00 0.  1.
          3    1    3    3  501    0 -0.92749963155E+01 -0.31843249894E+02 -0.69357062776E+03  0.69436318581E+03  0.00000000000E+00 0.  1.
         -3    1    1    2    0  502  0.90329324403E+01  0.33634455128E+02 -0.27367468666E+03  0.27588168580E+03  0.00000000000E+00 0. -1.
<mgrwt>
<rscale>  1 0.30000000E+03</rscale>
<asrwt>0</asrwt>
<pdfrwt beam="1">  1       21 0.55487774E-02 0.30000000E+03</pdfrwt>
<pdfrwt beam="2">0</pdfrwt>
<totfact> 0.24106287E+04</totfact>
</mgrwt>
</event>
<event>
 6    1  0.1270461E-001  0.3000000E+03  0.7818608E-02  0.1093470E+00
         21   -1    0    0  501  502  0.00000000000E+00  0.00000000000E+00  0.11705392815E+01  0.11705392815E+01  0.00000000000E+00 0. -1.
         13   -1    0    0    0    0 -0.00000000000E+00 -0.00000000000E+00 -0.10000000000E+04  0.10000000000E+04  0.00000000000E+00 0.  1.
    9000005    2    1    2  501    0 -0.27724301702E+02  0.11738175944E+02 -0.73591120495E+03  0.73653412664E+03  0.32857960019E+01 0.  0.
         13    1    3    3    0    0 -0.36479930063E+01  0.65727397800E+00 -0.74614964953E+02  0.74706979975E+02  0.00000000000E+00 0.  1.
          3    1    3    3  501    0 -0.24076308695E+02  0.11080901966E+02 -0.66129624000E+03  0.66182714667E+03  0.00000000000E+00 0.  1.
         -1    1    1    2    0  502  0.27724301702E+02 -0.11738175944E+02 -0.26291825577E+03  0.26463641264E+03  0.00000000000E+00 0. -1.
<mgrwt>
<rscale>  1 0.30000000E+03</rscale>
<asrwt>0</asrwt>
<pdfrwt beam="1">  1       21 0.42565155E-02 0.30000000E+03</pdfrwt>
<pdfrwt beam="2">0</pdfrwt>
<totfact> 0.37861799E+04</totfact>
</mgrwt>
</event>
<event>
 6    1  0.1270461E-001  0.3000000E+03  0.7818608E-02  0.1093470E+00
         21   -1    0    0  501  502  0.00000000000E+00  0.00000000000E+00  0.31408955856E+01  0.31408955856E+01  0.00000000000E+00 0. -1.
         13   -1    0    0    0    0 -0.00000000000E+00 -0.00000000000E+00 -0.10000000000E+04  0.10000000000E+04  0.00000000000E+00 0.  1.
    9000005    2    1    2  501    0 -0.38875689302E+02  0.40188935029E+02 -0.51808863257E+03  0.52111637917E+03  0.44698681889E+01 0.  0.
         13    1    3    3    0    0 -0.90299283512E+01  0.69093899783E+01 -0.99463931421E+02  0.10011170226E+03  0.00000000000E+00 0.  1.
          3    1    3    3  501    0 -0.29845760950E+02  0.33279545051E+02 -0.41862470115E+03  0.42100467691E+03  0.00000000000E+00 0.  1.
         -1    1    1    2    0  502  0.38875689302E+02 -0.40188935029E+02 -0.47877047184E+03  0.48202451642E+03  0.00000000000E+00 0. -1.
<mgrwt>
<rscale>  1 0.30000000E+03</rscale>
<asrwt>0</asrwt>
<pdfrwt beam="1">  1       21 0.11421463E-01 0.30000000E+03</pdfrwt>
<pdfrwt beam="2">0</pdfrwt>
<totfact> 0.67769065E+03</totfact>
</mgrwt>
</event>
<event>
 6    1  0.1270461E-001  0.3000000E+03  0.7818608E-02  0.1093470E+00
         21   -1    0    0  501  502  0.00000000000E+00  0.00000000000E+00  0.61644602271E+01  0.61644602271E+01  0.00000000000E+00 0. -1.
         13   -1    0    0    0    0 -0.00000000000E+00 -0.00000000000E+00 -0.10000000000E+04  0.10000000000E+04  0.00000000000E+00 0.  1.
    9000005    2    1    2  501    0 -0.11000852875E+02  0.29723511123E+02 -0.95716705921E+03  0.95769711716E+03  0.32377611015E+01 0.  0.
         13    1    3    3    0    0 -0.92874873632E+00  0.17175351929E+01 -0.84927456253E+02  0.84949898923E+02  0.00000000000E+00 0.  1.
          3    1    3    3  501    0 -0.10072104139E+02  0.28005975930E+02 -0.87223960296E+03  0.87274721824E+03  0.00000000000E+00 0.  1.
         -1    1    1    2    0  502  0.11000852875E+02 -0.29723511123E+02 -0.36668480561E+02  0.48467343068E+02  0.00000000000E+00 0. -1.
<mgrwt>
<rscale>  1 0.30000000E+03</rscale>
<asrwt>0</asrwt>
<pdfrwt beam="1">  1       21 0.22416266E-01 0.30000000E+03</pdfrwt>
<pdfrwt beam="2">0</pdfrwt>
<totfact> 0.19276812E+03</totfact>
</mgrwt>
</event>
<event>
 6    1  0.1270461E-001  0.3000000E+03  0.7818608E-02  0.1093470E+00
         21   -1    0    0  501  502  0.00000000000E+00  0.00000000000E+00  0.24091107913E+01  0.24091107913E+01  0.00000000000E+00 0. -1.
         13   -1    0    0    0    0 -0.00000000000E+00 -0.00000000000E+00 -0.10000000000E+04  0.10000000000E+04  0.00000000000E+00 0.  1.
    9000005    2    1    2  501    0 -0.35098748851E+02  0.30094390966E+02 -0.66471423321E+03  0.66633700149E+03  0.47321443038E+01 0.  0.
         13    1    3    3    0    0 -0.30054354070E+02  0.27575141317E+02 -0.57341600933E+03  0.57486482965E+03  0.00000000000E+00 0.  1.
          1    1    3    3  501    0 -0.50443947806E+01  0.25192496486E+01 -0.91298223882E+02  0.91472171842E+02  0.00000000000E+00 0.  1.
         -3    1    1    2    0  502  0.35098748851E+02 -0.30094390966E+02 -0.33287665600E+03  0.33607210930E+03  0.00000000000E+00 0. -1.
<mgrwt>
<rscale>  1 0.30000000E+03</rscale>
<asrwt>0</asrwt>
<pdfrwt beam="1">  1       21 0.87604214E-02 0.30000000E+03</pdfrwt>
<pdfrwt beam="2">0</pdfrwt>
<totfact> 0.10885594E+04</totfact>
</mgrwt>
</event>
<event>
 6    1  0.1270461E-001  0.3000000E+03  0.7818608E-02  0.1093470E+00
         21   -1    0    0  501  502  0.00000000000E+00  0.00000000000E+00  0.14742134210E+01  0.14742134210E+01  0.00000000000E+00 0. -1.
         13   -1    0    0    0    0 -0.00000000000E+00 -0.00000000000E+00 -0.10000000000E+04  0.10000000000E+04  0.00000000000E+00 0.  1.
    9000005    2    1    2  501    0 -0.29064249493E+02 -0.99022901818E+01 -0.20208982611E+03  0.20444659465E+03  0.39148817334E+01 0.  0.
         13    1    3    3    0    0 -0.62620400226E+01 -0.17165145493E+01 -0.53858446672E+02  0.54248427124E+02  0.00000000000E+00 0.  1.
          3    1    3    3  501    0 -0.22802209470E+02 -0.81857756325E+01 -0.14823137944E+03  0.15019816753E+03  0.00000000000E+00 0.  1.
         -1    1    1    2    0  502  0.29064249493E+02  0.99022901818E+01 -0.79643596047E+03  0.79702761877E+03  0.00000000000E+00 0. -1.
<mgrwt>
<rscale>  1 0.30000000E+03</rscale>
<asrwt>0</asrwt>
<pdfrwt beam="1">  1       21 0.53607874E-02 0.30000000E+03</pdfrwt>
<pdfrwt beam="2">0</pdfrwt>
<totfact> 0.25572990E+04</totfact>
</mgrwt>
</event>
<event>
 6    1  0.1270461E-001  0.3000000E+03  0.7818608E-02  0.1093470E+00
         21   -1    0    0  501  502  0.00000000000E+00  0.00000000000E+00  0.38778570041E+01  0.38778570041E+01  0.00000000000E+00 0. -1.
         13   -1    0    0    0    0 -0.00000000000E+00 -0.00000000000E+00 -0.10000000000E+04  0.10000000000E+04  0.00000000000E+00 0.  1.
    9000005    2    1    2  501    0 -0.37435376587E+02 -0.39353567863E+02 -0.74294036620E+03  0.74493554138E+03  0.42967830658E+01 0.  0.
         13    1    3    3    0    0 -0.30044178275E+02 -0.33866537205E+02 -0.62177530868E+03  0.62342130977E+03  0.00000000000E+00 0.  1.
          3    1    3    3  501    0 -0.73911983122E+01 -0.54870306577E+01 -0.12116505753E+03  0.12151423161E+03  0.00000000000E+00 0.  1.
         -3    1    1    2    0  502  0.37435376587E+02  0.39353567863E+02 -0.25318177679E+03  0.25894231563E+03  0.00000000000E+00 0. -1.
<mgrwt>
<rscale>  1 0.30000000E+03</rscale>
<asrwt>0</asrwt>
<pdfrwt beam="1">  1       21 0.14101328E-01 0.30000000E+03</pdfrwt>
<pdfrwt beam="2">0</pdfrwt>
<totfact> 0.46150976E+03</totfact>
</mgrwt>
</event>
<event>
 6    1  0.1270461E-001  0.3000000E+03  0.7818608E-02  0.1093470E+00
         21   -1    0    0  501  502  0.00000000000E+00  0.00000000000E+00  0.22833079578E+01  0.22833079578E+01  0.00000000000E+00 0. -1.
         13   -1    0    0    0    0 -0.00000000000E+00 -0.00000000000E+00 -0.10000000000E+04  0.10000000000E+04  0.00000000000E+00 0.  1.
    9000005    2    1    2  501    0  0.35291730366E+02 -0.13482011017E+02 -0.80541519685E+03  0.80630592174E+03  0.28860478998E+01 0.  0.
         13    1    3    3    0    0  0.21188188997E+02 -0.95522809921E+01 -0.50145736313E+03  0.50199568969E+03  0.00000000000E+00 0.  1.
          3    1    3    3  501    0  0.14103541369E+02 -0.39297300251E+01 -0.30395783371E+03  0.30431023205E+03  0.00000000000E+00 0.  1.
         -1    1    1    2    0  502 -0.35291730366E+02  0.13482011017E+02 -0.19230149520E+03  0.19597738622E+03  0.00000000000E+00 0. -1.
<mgrwt>
<rscale>  1 0.30000000E+03</rscale>
<asrwt>0</asrwt>
<pdfrwt beam="1">  1       21 0.83029555E-02 0.30000000E+03</pdfrwt>
<pdfrwt beam="2">0</pdfrwt>
<totfact> 0.11965663E+04</totfact>
</mgrwt>
</event>
<event>
 6    1  0.1270461E-001  0.3000000E+03  0.7818608E-02  0.1093470E+00
         21   -1    0    0  501  502  0.00000000000E+00  0.00000000000E+00  0.10338354556E+01  0.10338354556E+01  0.00000000000E+00 0. -1.
         13   -1    0    0    0    0 -0.00000000000E+00 -0.00000000000E+00 -0.10000000000E+04  0.10000000000E+04  0.00000000000E+00 0.  1.
    9000005    2    1    2  501    0  0.23453748758E+02 -0.19733286134E+02 -0.64733675917E+03  0.64807106173E+03  0.34264217751E+01 0.  0.
         13    1    3    3    0    0  0.16390157613E+02 -0.13253191257E+02 -0.47584685493E+03  0.47631346159E+03  0.00000000000E+00 0.  1.
          3    1    3    3  501    0  0.70635911450E+01 -0.64800948764E+01 -0.17148990425E+03  0.17175760015E+03  0.00000000000E+00 0.  1.
         -1    1    1    2    0  502 -0.23453748758E+02  0.19733286134E+02 -0.35162940537E+03  0.35296277372E+03  0.00000000000E+00 0. -1.
<mgrwt>
<rscale>  1 0.30000000E+03</rscale>
<asrwt>0</asrwt>
<pdfrwt beam="1">  1       21 0.37594096E-02 0.30000000E+03</pdfrwt>
<pdfrwt beam="2">0</pdfrwt>
<totfact> 0.46670442E+04</totfact>
</mgrwt>
</event>
<event>
 6    1  0.1270461E-001  0.3000000E+03  0.7818608E-02  0.1093470E+00
         21   -1    0    0  501  502  0.00000000000E+00  0.00000000000E+00  0.11907164118E+01  0.11907164118E+01  0.00000000000E+00 0. -1.
         13   -1    0    0    0    0 -0.00000000000E+00 -0.00000000000E+00 -0.10000000000E+04  0.10000000000E+04  0.00000000000E+00 0.  1.
    9000005    2    1    2  501    0  0.26053638402E+02 -0.15511257796E+02 -0.73350155957E+03  0.73415592539E+03  0.64026323638E+01 0.  0.
         13    1    3    3    0    0  0.22528182893E+02 -0.15698897511E+02 -0.65182669043E+03  0.65240478904E+03  0.00000000000E+00 0.  1.
          3    1    3    3  501    0  0.35254555094E+01  0.18763971509E+00 -0.81674869137E+02  0.81751136346E+02  0.00000000000E+00 0.  1.
         -3    1    1    2    0  502 -0.26053638402E+02  0.15511257796E+02 -0.26530772402E+03  0.26703479102E+03  0.00000000000E+00 0. -1.
<mgrwt>
<rscale>  1 0.30000000E+03</rscale>
<asrwt>0</asrwt>
<pdfrwt beam="1">  1       21 0.43298870E-02 0.30000000E+03</pdfrwt>
<pdfrwt beam="2">0</pdfrwt>
<totfact> 0.36783227E+04</totfact>
</mgrwt>
</event>
<event>
 6    1  0.1270461E-001  0.3000000E+03  0.7818608E-02  0.1093470E+00
         21   -1    0    0  501  502  0.00000000000E+00  0.00000000000E+00  0.32320561533E+01  0.32320561533E+01  0.00000000000E+00 0. -1.
         13   -1    0    0    0    0 -0.00000000000E+00 -0.00000000000E+00 -0.10000000000E+04  0.10000000000E+04  0.00000000000E+00 0.  1.
    9000005    2    1    2  501    0 -0.60810917273E+01  0.46317199437E+02 -0.78317793758E+03  0.78459319085E+03  0.60440540753E+01 0.  0.
         13    1    3    3    0    0 -0.31628779142E+01  0.80982433846E+01 -0.12788232852E+03  0.12817751476E+03  0.00000000000E+00 0.  1.
          3    1    3    3  501    0 -0.29182138132E+01  0.38218956053E+02 -0.65529560906E+03  0.65641567609E+03  0.00000000000E+00 0.  1.
         -1    1    1    2    0  502  0.60810917273E+01 -0.46317199437E+02 -0.21359000627E+03  0.21863886530E+03  0.00000000000E+00 0. -1.
<mgrwt>
<rscale>  1 0.30000000E+03</rscale>
<asrwt>0</asrwt>
<pdfrwt beam="1">  1       21 0.11752956E-01 0.30000000E+03</pdfrwt>
<pdfrwt beam="2">0</pdfrwt>
<totfact> 0.64352697E+03</totfact>
</mgrwt>
</event>
<event>
 6    1  0.1270461E-001  0.3000000E+03  0.7818608E-02  0.1093470E+00
         21   -1    0    0  501  502  0.00000000000E+00  0.00000000000E+00  0.97882322579E+00  0.97882322579E+00  0.00000000000E+00 0. -1.
         13   -1    0    0    0    0 -0.00000000000E+00 -0.00000000000E+00 -0.10000000000E+04  0.10000000000E+04  0.00000000000E+00 0.  1.
    9000005    2    1    2  501    0  0.16590014250E+02 -0.26378374879E+02 -0.47607194888E+03  0.47710198447E+03  0.32796092276E+01 0.  0.
         13    1    3    3    0    0  0.10198785426E+02 -0.17459841418E+02 -0.28635680771E+03  0.28706982184E+03  0.00000000000E+00 0.  1.
          1    1    3    3  501    0  0.63912288246E+01 -0.89185334611E+01 -0.18971514117E+03  0.19003216263E+03  0.00000000000E+00 0.  1.
         -3    1    1    2    0  502 -0.16590014250E+02  0.26378374879E+02 -0.52294922789E+03  0.52387683876E+03  0.00000000000E+00 0. -1.
<mgrwt>
<rscale>  1 0.30000000E+03</rscale>
<asrwt>0</asrwt>
<pdfrwt beam="1">  1       21 0.35593647E-02 0.30000000E+03</pdfrwt>
<pdfrwt beam="2">0</pdfrwt>
<totfact> 0.51154741E+04</totfact>
</mgrwt>
</event>
<event>
 6    1  0.1270461E-001  0.3000000E+03  0.7818608E-02  0.1093470E+00
         21   -1    0    0  501  502  0.00000000000E+00  0.00000000000E+00  0.16703858033E+01  0.16703858033E+01  0.00000000000E+00 0. -1.
         13   -1    0    0    0    0 -0.00000000000E+00 -0.00000000000E+00 -0.10000000000E+04  0.10000000000E+04  0.00000000000E+00 0.  1.
    9000005    2    1    2  501    0 -0.11434374600E+02 -0.35392709663E+02 -0.29430132455E+03  0.29666029975E+03  0.32672608878E+01 0.  0.
         13    1    3    3    0    0 -0.39435094481E+01 -0.16338514370E+02 -0.12466340354E+03  0.12579134509E+03  0.00000000000E+00 0.  1.
          1    1    3    3  501    0 -0.74908651516E+01 -0.19054195294E+02 -0.16963792102E+03  0.17086895466E+03  0.00000000000E+00 0.  1.
         -3    1    1    2    0  502  0.11434374600E+02  0.35392709663E+02 -0.70402828964E+03  0.70501008605E+03  0.00000000000E+00 0. -1.
<mgrwt>
<rscale>  1 0.30000000E+03</rscale>
<asrwt>0</asrwt>
<pdfrwt beam="1">  1       21 0.60741430E-02 0.30000000E+03</pdfrwt>
<pdfrwt beam="2">0</pdfrwt>
<totfact> 0.20629930E+04</totfact>
</mgrwt>
</event>
<event>
 6    1  0.1270461E-001  0.3000000E+03  0.7818608E-02  0.1093470E+00
         21   -1    0    0  501  502  0.00000000000E+00  0.00000000000E+00  0.17022443217E+01  0.17022443217E+01  0.00000000000E+00 0. -1.
         13   -1    0    0    0    0 -0.00000000000E+00 -0.00000000000E+00 -0.10000000000E+04  0.10000000000E+04  0.00000000000E+00 0.  1.
    9000005    2    1    2  501    0 -0.33312751240E+02  0.21035053796E+02 -0.64613627036E+03  0.64734377522E+03  0.31097518271E+01 0.  0.
         13    1    3    3    0    0 -0.33979778683E+01  0.11043093395E+01 -0.60091000950E+02  0.60197127406E+02  0.00000000000E+00 0.  1.
          3    1    3    3  501    0 -0.29914773372E+02  0.19930744456E+02 -0.58604526941E+03  0.58714664781E+03  0.00000000000E+00 0.  1.
         -1    1    1    2    0  502  0.33312751240E+02 -0.21035053796E+02 -0.35216148532E+03  0.35435846910E+03  0.00000000000E+00 0. -1.
<mgrwt>
<rscale>  1 0.30000000E+03</rscale>
<asrwt>0</asrwt>
<pdfrwt beam="1">  1       21 0.61899924E-02 0.30000000E+03</pdfrwt>
<pdfrwt beam="2">0</pdfrwt>
<totfact> 0.19967971E+04</totfact>
</mgrwt>
</event>
<event>
 6    1  0.1270461E-001  0.3000000E+03  0.7818608E-02  0.1093470E+00
         21   -1    0    0  501  502  0.00000000000E+00  0.00000000000E+00  0.37516896607E+01  0.37516896607E+01  0.00000000000E+00 0. -1.
         13   -1    0    0    0    0 -0.00000000000E+00 -0.00000000000E+00 -0.10000000000E+04  0.10000000000E+04  0.00000000000E+00 0.  1.
    9000005    2    1    2  501    0 -0.16636792322E+02 -0.45465868369E+02 -0.80539221119E+03  0.80685075359E+03  0.27562055152E+01 0.  0.
         13    1    3    3    0    0 -0.12331394651E+02 -0.31754101177E+02 -0.54828528585E+03  0.54934246232E+03  0.00000000000E+00 0.  1.
          3    1    3    3  501    0 -0.43053976713E+01 -0.13711767191E+02 -0.25710692534E+03  0.25750829126E+03  0.00000000000E+00 0.  1.
         -3    1    1    2    0  502  0.16636792322E+02  0.45465868369E+02 -0.19085609915E+03  0.19690093608E+03  0.00000000000E+00 0. -1.
<mgrwt>
<rscale>  1 0.30000000E+03</rscale>
<asrwt>0</asrwt>
<pdfrwt beam="1">  1       21 0.13642537E-01 0.30000000E+03</pdfrwt>
<pdfrwt beam="2">0</pdfrwt>
<totfact> 0.49040141E+03</totfact>
</mgrwt>
</event>
<event>
 6    1  0.1270461E-001  0.3000000E+03  0.7818608E-02  0.1093470E+00
         21   -1    0    0  501  502  0.00000000000E+00  0.00000000000E+00  0.31862046174E+01  0.31862046174E+01  0.00000000000E+00 0. -1.
         13   -1    0    0    0    0 -0.00000000000E+00 -0.00000000000E+00 -0.10000000000E+04  0.10000000000E+04  0.00000000000E+00 0.  1.
    9000005    2    1    2  501    0  0.34418574851E+02 -0.24758256423E+02 -0.82930391045E+03  0.83039392729E+03  0.33895466827E+01 0.  0.
         13    1    3    3    0    0  0.17030341858E+02 -0.11924683568E+02 -0.37399483349E+03  0.37457224417E+03  0.00000000000E+00 0.  1.
          1    1    3    3  501    0  0.17388232994E+02 -0.12833572855E+02 -0.45530907696E+03  0.45582168312E+03  0.00000000000E+00 0.  1.
         -1    1    1    2    0  502 -0.34418574851E+02  0.24758256423E+02 -0.16750988493E+03  0.17279227733E+03  0.00000000000E+00 0. -1.
<mgrwt>
<rscale>  1 0.30000000E+03</rscale>
<asrwt>0</asrwt>
<pdfrwt beam="1">  1       21 0.11586223E-01 0.30000000E+03</pdfrwt>
<pdfrwt beam="2">0</pdfrwt>
<totfact> 0.66038001E+03</totfact>
</mgrwt>
</event>
<event>
 6    1  0.1270461E-001  0.3000000E+03  0.7818608E-02  0.1093470E+00
         21   -1    0    0  501  502  0.00000000000E+00  0.00000000000E+00  0.27619268289E+01  0.27619268289E+01  0.00000000000E+00 0. -1.
         13   -1    0    0    0    0 -0.00000000000E+00 -0.00000000000E+00 -0.10000000000E+04  0.10000000000E+04  0.00000000000E+00 0.  1.
    9000005    2    1    2  501    0 -0.51146087185E+02 -0.11651094822E+02 -0.47919785108E+03  0.48207263181E+03  0.34309785615E+01 0.  0.
         13    1    3    3    0    0 -0.47426945122E+02 -0.98747967051E+01 -0.44294846821E+03  0.44558969044E+03  0.00000000000E+00 0.  1.
          1    1    3    3  501    0 -0.37191420628E+01 -0.17762981170E+01 -0.36249382872E+02  0.36482941374E+02  0.00000000000E+00 0.  1.
         -1    1    1    2    0  502  0.51146087185E+02  0.11651094822E+02 -0.51804022209E+03  0.52068929502E+03  0.00000000000E+00 0. -1.
<mgrwt>
<rscale>  1 0.30000000E+03</rscale>
<asrwt>0</asrwt>
<pdfrwt beam="1">  1       21 0.10043391E-01 0.30000000E+03</pdfrwt>
<pdfrwt beam="2">0</pdfrwt>
<totfact> 0.85368867E+03</totfact>
</mgrwt>
</event>
<event>
 6    1  0.1270461E-001  0.3000000E+03  0.7818608E-02  0.1093470E+00
         21   -1    0    0  501  502  0.00000000000E+00  0.00000000000E+00  0.28044191965E+01  0.28044191965E+01  0.00000000000E+00 0. -1.
         13   -1    0    0    0    0 -0.00000000000E+00 -0.00000000000E+00 -0.10000000000E+04  0.10000000000E+04  0.00000000000E+00 0.  1.
    9000005    2    1    2  501    0  0.32260324808E+02 -0.71858783989E+01 -0.89011954587E+03  0.89074353101E+03  0.43435795459E+01 0.  0.
         13    1    3    3    0    0  0.39609332500E+01  0.32083469605E-01 -0.13895216032E+03  0.13900860721E+03  0.00000000000E+00 0.  1.
          1    1    3    3  501    0  0.28299391558E+02 -0.72179618685E+01 -0.75116738555E+03  0.75173492379E+03  0.00000000000E+00 0.  1.
         -1    1    1    2    0  502 -0.32260324808E+02  0.71858783989E+01 -0.10707603493E+03  0.11206088819E+03  0.00000000000E+00 0. -1.
<mgrwt>
<rscale>  1 0.30000000E+03</rscale>
<asrwt>0</asrwt>
<pdfrwt beam="1">  1       21 0.10197909E-01 0.30000000E+03</pdfrwt>
<pdfrwt beam="2">0</pdfrwt>
<totfact> 0.83069723E+03</totfact>
</mgrwt>
</event>
<event>
 6    1  0.1270461E-001  0.3000000E+03  0.7818608E-02  0.1093470E+00
         21   -1    0    0  501  502  0.00000000000E+00  0.00000000000E+00  0.19013585723E+01  0.19013585723E+01  0.00000000000E+00 0. -1.
         13   -1    0    0    0    0 -0.00000000000E+00 -0.00000000000E+00 -0.10000000000E+04  0.10000000000E+04  0.00000000000E+00 0.  1.
    9000005    2    1    2  501    0  0.35499801545E+02 -0.21558620164E+02 -0.34917171102E+03  0.35164666154E+03  0.30790871643E+01 0.  0.
         13    1    3    3    0    0  0.34184196401E+02 -0.19992971069E+02 -0.33157552547E+03  0.33393203989E+03  0.00000000000E+00 0.  1.
          3    1    3    3  501    0  0.13156051440E+01 -0.15656490943E+01 -0.17596185554E+02  0.17714621645E+02  0.00000000000E+00 0.  1.
         -3    1    1    2    0  502 -0.35499801545E+02  0.21558620164E+02 -0.64892693041E+03  0.65025469704E+03  0.00000000000E+00 0. -1.
<mgrwt>
<rscale>  1 0.30000000E+03</rscale>
<asrwt>0</asrwt>
<pdfrwt beam="1">  1       21 0.69140458E-02 0.30000000E+03</pdfrwt>
<pdfrwt beam="2">0</pdfrwt>
<totfact> 0.16485813E+04</totfact>
</mgrwt>
</event>
<event>
 6    1  0.1270461E-001  0.3000000E+03  0.7818608E-02  0.1093470E+00
         21   -1    0    0  501  502  0.00000000000E+00  0.00000000000E+00  0.26248287773E+01  0.26248287773E+01  0.00000000000E+00 0. -1.
         13   -1    0    0    0    0 -0.00000000000E+00 -0.00000000000E+00 -0.10000000000E+04  0.10000000000E+04  0.00000000000E+00 0.  1.
    9000005    2    1    2  501    0  0.18823387917E+02 -0.37661204678E+02 -0.21441686102E+03  0.21853529194E+03  0.32244783883E+01 0.  0.
         13    1    3    3    0    0  0.42899152831E+01 -0.10799026193E+02 -0.53827616606E+02  0.55067546244E+02  0.00000000000E+00 0.  1.
          1    1    3    3  501    0  0.14533472634E+02 -0.26862178485E+02 -0.16058924442E+03  0.16346774569E+03  0.00000000000E+00 0.  1.
         -1    1    1    2    0  502 -0.18823387917E+02  0.37661204678E+02 -0.78295831020E+03  0.78408953684E+03  0.00000000000E+00 0. -1.
<mgrwt>
<rscale>  1 0.30000000E+03</rscale>
<asrwt>0</asrwt>
<pdfrwt beam="1">  1       21 0.95448520E-02 0.30000000E+03</pdfrwt>
<pdfrwt beam="2">0</pdfrwt>
<totfact> 0.93489309E+03</totfact>
</mgrwt>
</event>
<event>
 6    1  0.1270461E-001  0.3000000E+03  0.7818608E-02  0.1093470E+00
         21   -1    0    0  501  502  0.00000000000E+00  0.00000000000E+00  0.25653863279E+01  0.25653863279E+01  0.00000000000E+00 0. -1.
         13   -1    0    0    0    0 -0.00000000000E+00 -0.00000000000E+00 -0.10000000000E+04  0.10000000000E+04  0.00000000000E+00 0.  1.
    9000005    2    1    2  501    0 -0.20570416704E+02  0.43937391816E+02 -0.64108245715E+03  0.64292598929E+03  0.36707489444E+01 0.  0.
         13    1    3    3    0    0 -0.18436237081E+02  0.40212837171E+02 -0.59607190676E+03  0.59771120547E+03  0.00000000000E+00 0.  1.
          1    1    3    3  501    0 -0.21341796228E+01  0.37245546453E+01 -0.45010550385E+02  0.45214783820E+02  0.00000000000E+00 0.  1.
         -1    1    1    2    0  502  0.20570416704E+02 -0.43937391816E+02 -0.35635215653E+03  0.35963939704E+03  0.00000000000E+00 0. -1.
<mgrwt>
<rscale>  1 0.30000000E+03</rscale>
<asrwt>0</asrwt>
<pdfrwt beam="1">  1       21 0.93286972E-02 0.30000000E+03</pdfrwt>
<pdfrwt beam="2">0</pdfrwt>
<totfact> 0.97380124E+03</totfact>
</mgrwt>
</event>
<event>
 6    1  0.1270461E-001  0.3000000E+03  0.7818608E-02  0.1093470E+00
         21   -1    0    0  501  502  0.00000000000E+00  0.00000000000E+00  0.18895417992E+01  0.18895417992E+01  0.00000000000E+00 0. -1.
         13   -1    0    0    0    0 -0.00000000000E+00 -0.00000000000E+00 -0.10000000000E+04  0.10000000000E+04  0.00000000000E+00 0.  1.
    9000005    2    1    2  501    0  0.34950508786E+02  0.32870722112E+01 -0.20651126591E+03  0.20951234365E+03  0.40219754684E+01 0.  0.
         13    1    3    3    0    0  0.22797966624E+02  0.25509113266E+01 -0.14561946367E+03  0.14741534056E+03  0.00000000000E+00 0.  1.
          3    1    3    3  501    0  0.12152542162E+02  0.73616088463E+00 -0.60891802232E+02  0.62097003091E+02  0.00000000000E+00 0.  1.
         -3    1    1    2    0  502 -0.34950508786E+02 -0.32870722112E+01 -0.79159919229E+03  0.79237719815E+03  0.00000000000E+00 0. -1.
<mgrwt>
<rscale>  1 0.30000000E+03</rscale>
<asrwt>0</asrwt>
<pdfrwt beam="1">  1       21 0.68710756E-02 0.30000000E+03</pdfrwt>
<pdfrwt beam="2">0</pdfrwt>
<totfact> 0.16665434E+04</totfact>
</mgrwt>
</event>
<event>
 6    1  0.1270461E-001  0.3000000E+03  0.7818608E-02  0.1093470E+00
         21   -1    0    0  501  502  0.00000000000E+00  0.00000000000E+00  0.19574015411E+01  0.19574015411E+01  0.00000000000E+00 0. -1.
         13   -1    0    0    0    0 -0.00000000000E+00 -0.00000000000E+00 -0.10000000000E+04  0.10000000000E+04  0.00000000000E+00 0.  1.
    9000005    2    1    2  501    0  0.38562146451E+02  0.19309141556E+02 -0.60668378065E+03  0.60822956869E+03  0.42563406782E+01 0.  0.
         13    1    3    3    0    0  0.32669635797E+02  0.17208500876E+02 -0.53542684393E+03  0.53669855861E+03  0.00000000000E+00 0.  1.
          1    1    3    3  501    0  0.58925106542E+01  0.21006406792E+01 -0.71256936720E+02  0.71531010085E+02  0.00000000000E+00 0.  1.
         -1    1    1    2    0  502 -0.38562146451E+02 -0.19309141556E+02 -0.39135881781E+03  0.39372783285E+03  0.00000000000E+00 0. -1.
<mgrwt>
<rscale>  1 0.30000000E+03</rscale>
<asrwt>0</asrwt>
<pdfrwt beam="1">  1       21 0.71178388E-02 0.30000000E+03</pdfrwt>
<pdfrwt beam="2">0</pdfrwt>
<totfact> 0.15672937E+04</totfact>
</mgrwt>
</event>
<event>
 6    1  0.1270461E-001  0.3000000E+03  0.7818608E-02  0.1093470E+00
         21   -1    0    0  501  502  0.00000000000E+00  0.00000000000E+00  0.17159608016E+01  0.17159608016E+01  0.00000000000E+00 0. -1.
         13   -1    0    0    0    0 -0.00000000000E+00 -0.00000000000E+00 -0.10000000000E+04  0.10000000000E+04  0.00000000000E+00 0.  1.
    9000005    2    1    2  501    0  0.34236210000E+02 -0.21995594459E+02 -0.40956256534E+03  0.41158978952E+03  0.29556145873E+01 0.  0.
         13    1    3    3    0    0  0.17811084941E+02 -0.12029362894E+02 -0.23022904601E+03  0.23123008876E+03  0.00000000000E+00 0.  1.
          3    1    3    3  501    0  0.16425125058E+02 -0.99662315647E+01 -0.17933351933E+03  0.18035970077E+03  0.00000000000E+00 0.  1.
         -1    1    1    2    0  502 -0.34236210000E+02  0.21995594459E+02 -0.58872147385E+03  0.59012617128E+03  0.00000000000E+00 0. -1.
<mgrwt>
<rscale>  1 0.30000000E+03</rscale>
<asrwt>0</asrwt>
<pdfrwt beam="1">  1       21 0.62398706E-02 0.30000000E+03</pdfrwt>
<pdfrwt beam="2">0</pdfrwt>
<totfact> 0.19693076E+04</totfact>
</mgrwt>
</event>
<event>
 6    1  0.1270461E-001  0.3000000E+03  0.7818608E-02  0.1093470E+00
         21   -1    0    0  501  502  0.00000000000E+00  0.00000000000E+00  0.10110535378E+01  0.10110535378E+01  0.00000000000E+00 0. -1.
         13   -1    0    0    0    0 -0.00000000000E+00 -0.00000000000E+00 -0.10000000000E+04  0.10000000000E+04  0.00000000000E+00 0.  1.
    9000005    2    1    2  501    0 -0.68205835883E+01 -0.30268879348E+02 -0.60295207993E+03  0.60376059718E+03  0.35948028241E+01 0.  0.
         13    1    3    3    0    0 -0.37613267880E+01 -0.96429238823E+01 -0.21334184789E+03  0.21359278458E+03  0.00000000000E+00 0.  1.
          1    1    3    3  501    0 -0.30592568003E+01 -0.20625955466E+02 -0.38961023203E+03  0.39016781261E+03  0.00000000000E+00 0.  1.
         -3    1    1    2    0  502  0.68205835883E+01  0.30268879348E+02 -0.39603686654E+03  0.39725045635E+03  0.00000000000E+00 0. -1.
<mgrwt>
<rscale>  1 0.30000000E+03</rscale>
<asrwt>0</asrwt>
<pdfrwt beam="1">  1       21 0.36765661E-02 0.30000000E+03</pdfrwt>
<pdfrwt beam="2">0</pdfrwt>
<totfact> 0.48449316E+04</totfact>
</mgrwt>
</event>
<event>
 6    1  0.1270461E-001  0.3000000E+03  0.7818608E-02  0.1093470E+00
         21   -1    0    0  501  502  0.00000000000E+00  0.00000000000E+00  0.36824838875E+01  0.36824838875E+01  0.00000000000E+00 0. -1.
         13   -1    0    0    0    0 -0.00000000000E+00 -0.00000000000E+00 -0.10000000000E+04  0.10000000000E+04  0.00000000000E+00 0.  1.
    9000005    2    1    2  501    0 -0.24181016094E+02 -0.35690164936E+02 -0.85113968088E+03  0.85223905136E+03  0.37596388789E+01 0.  0.
         13    1    3    3    0    0 -0.23189849718E+02 -0.34351236656E+02 -0.82982032590E+03  0.83085471045E+03  0.00000000000E+00 0.  1.
          3    1    3    3  501    0 -0.99116637527E+00 -0.13389282798E+01 -0.21319354977E+02  0.21384340915E+02  0.00000000000E+00 0.  1.
         -3    1    1    2    0  502  0.24181016094E+02  0.35690164936E+02 -0.14517783523E+03  0.15144343253E+03  0.00000000000E+00 0. -1.
<mgrwt>
<rscale>  1 0.30000000E+03</rscale>
<asrwt>0</asrwt>
<pdfrwt beam="1">  1       21 0.13390879E-01 0.30000000E+03</pdfrwt>
<pdfrwt beam="2">0</pdfrwt>
<totfact> 0.50741406E+03</totfact>
</mgrwt>
</event>
<event>
 6    1  0.1270461E-001  0.3000000E+03  0.7818608E-02  0.1093470E+00
         21   -1    0    0  501  502  0.00000000000E+00  0.00000000000E+00  0.23538617610E+01  0.23538617610E+01  0.00000000000E+00 0. -1.
         13   -1    0    0    0    0 -0.00000000000E+00 -0.00000000000E+00 -0.10000000000E+04  0.10000000000E+04  0.00000000000E+00 0.  1.
    9000005    2    1    2  501    0 -0.25563360059E+02  0.20285707308E+02 -0.86812375473E+03  0.86878349406E+03  0.89950387675E+01 0.  0.
         13    1    3    3    0    0 -0.13912765339E+02  0.56068057890E+01 -0.35137170846E+03  0.35169173834E+03  0.00000000000E+00 0.  1.
          1    1    3    3  501    0 -0.11650594719E+02  0.14678901519E+02 -0.51675204628E+03  0.51709175572E+03  0.00000000000E+00 0.  1.
         -1    1    1    2    0  502  0.25563360059E+02 -0.20285707308E+02 -0.12952238351E+03  0.13357036770E+03  0.00000000000E+00 0. -1.
<mgrwt>
<rscale>  1 0.30000000E+03</rscale>
<asrwt>0</asrwt>
<pdfrwt beam="1">  1       21 0.85595154E-02 0.30000000E+03</pdfrwt>
<pdfrwt beam="2">0</pdfrwt>
<totfact> 0.11340828E+04</totfact>
</mgrwt>
</event>
<event>
 6    1  0.1270461E-001  0.3000000E+03  0.7818608E-02  0.1093470E+00
         21   -1    0    0  501  502  0.00000000000E+00  0.00000000000E+00  0.97488814204E+00  0.97488814204E+00  0.00000000000E+00 0. -1.
         13   -1    0    0    0    0 -0.00000000000E+00 -0.00000000000E+00 -0.10000000000E+04  0.10000000000E+04  0.00000000000E+00 0.  1.
    9000005    2    1    2  501    0 -0.93638254395E+01 -0.29011776799E+02 -0.60304343713E+03  0.60382145288E+03  0.30976560375E+01 0.  0.
         13    1    3    3    0    0 -0.24286942891E+01 -0.12379534873E+02 -0.25458006350E+03  0.25489244824E+03  0.00000000000E+00 0.  1.
          3    1    3    3  501    0 -0.69351311504E+01 -0.16632241926E+02 -0.34846337363E+03  0.34892900464E+03  0.00000000000E+00 0.  1.
         -1    1    1    2    0  502  0.93638254395E+01  0.29011776799E+02 -0.39598167473E+03  0.39715343527E+03  0.00000000000E+00 0. -1.
<mgrwt>
<rscale>  1 0.30000000E+03</rscale>
<asrwt>0</asrwt>
<pdfrwt beam="1">  1       21 0.35450553E-02 0.30000000E+03</pdfrwt>
<pdfrwt beam="2">0</pdfrwt>
<totfact> 0.51501334E+04</totfact>
</mgrwt>
</event>
<event>
 6    1  0.1270461E-001  0.3000000E+03  0.7818608E-02  0.1093470E+00
         21   -1    0    0  501  502  0.00000000000E+00  0.00000000000E+00  0.16471434874E+01  0.16471434874E+01  0.00000000000E+00 0. -1.
         13   -1    0    0    0    0 -0.00000000000E+00 -0.00000000000E+00 -0.10000000000E+04  0.10000000000E+04  0.00000000000E+00 0.  1.
    9000005    2    1    2  501    0  0.24244024747E+02  0.29507950320E+02 -0.66685323294E+03  0.66795493156E+03  0.34733921817E+01 0.  0.
         13    1    3    3    0    0  0.82404812672E+01  0.12461275963E+02 -0.27221924396E+03  0.27262887909E+03  0.00000000000E+00 0.  1.
          3    1    3    3  501    0  0.16003543480E+02  0.17046674357E+02 -0.39463398897E+03  0.39532605247E+03  0.00000000000E+00 0.  1.
         -3    1    1    2    0  502 -0.24244024747E+02 -0.29507950320E+02 -0.33149962357E+03  0.33369221192E+03  0.00000000000E+00 0. -1.
<mgrwt>
<rscale>  1 0.30000000E+03</rscale>
<asrwt>0</asrwt>
<pdfrwt beam="1">  1       21 0.59896253E-02 0.30000000E+03</pdfrwt>
<pdfrwt beam="2">0</pdfrwt>
<totfact> 0.21134649E+04</totfact>
</mgrwt>
</event>
<event>
 6    1  0.1270461E-001  0.3000000E+03  0.7818608E-02  0.1093470E+00
         21   -1    0    0  501  502  0.00000000000E+00  0.00000000000E+00  0.10861759825E+01  0.10861759825E+01  0.00000000000E+00 0. -1.
         13   -1    0    0    0    0 -0.00000000000E+00 -0.00000000000E+00 -0.10000000000E+04  0.10000000000E+04  0.00000000000E+00 0.  1.
    9000005    2    1    2  501    0  0.30824024646E+02 -0.30120701795E+01 -0.66836584240E+03  0.66909045129E+03  0.31527225509E+01 0.  0.
         13    1    3    3    0    0  0.28463362252E+02 -0.22917792481E+01 -0.59811435127E+03  0.59879561826E+03  0.00000000000E+00 0.  1.
          1    1    3    3  501    0  0.23606623939E+01 -0.72029093138E+00 -0.70251491122E+02  0.70294833030E+02  0.00000000000E+00 0.  1.
         -3    1    1    2    0  502 -0.30824024646E+02  0.30120701795E+01 -0.33054798162E+03  0.33199572470E+03  0.00000000000E+00 0. -1.
<mgrwt>
<rscale>  1 0.30000000E+03</rscale>
<asrwt>0</asrwt>
<pdfrwt beam="1">  1       21 0.39497392E-02 0.30000000E+03</pdfrwt>
<pdfrwt beam="2">0</pdfrwt>
<totfact> 0.42952005E+04</totfact>
</mgrwt>
</event>
<event>
 6    1  0.1270461E-001  0.3000000E+03  0.7818608E-02  0.1093470E+00
         21   -1    0    0  501  502  0.00000000000E+00  0.00000000000E+00  0.18403387942E+01  0.18403387942E+01  0.00000000000E+00 0. -1.
         13   -1    0    0    0    0 -0.00000000000E+00 -0.00000000000E+00 -0.10000000000E+04  0.10000000000E+04  0.00000000000E+00 0.  1.
    9000005    2    1    2  501    0  0.96479841865E+01  0.32042949266E+02 -0.81163027163E+03  0.81233295801E+03  0.46154788387E+01 0.  0.
         13    1    3    3    0    0  0.30971966702E+01  0.52054373614E+01 -0.12365500170E+03  0.12380326591E+03  0.00000000000E+00 0.  1.
          3    1    3    3  501    0  0.65507875163E+01  0.26837511904E+02 -0.68797526993E+03  0.68852969210E+03  0.00000000000E+00 0.  1.
         -3    1    1    2    0  502 -0.96479841865E+01 -0.32042949266E+02 -0.18652938957E+03  0.18950738078E+03  0.00000000000E+00 0. -1.
<mgrwt>
<rscale>  1 0.30000000E+03</rscale>
<asrwt>0</asrwt>
<pdfrwt beam="1">  1       21 0.66921552E-02 0.30000000E+03</pdfrwt>
<pdfrwt beam="2">0</pdfrwt>
<totfact> 0.17446600E+04</totfact>
</mgrwt>
</event>
<event>
 6    1  0.1270461E-001  0.3000000E+03  0.7818608E-02  0.1093470E+00
         21   -1    0    0  501  502  0.00000000000E+00  0.00000000000E+00  0.15527332166E+01  0.15527332166E+01  0.00000000000E+00 0. -1.
         13   -1    0    0    0    0 -0.00000000000E+00 -0.00000000000E+00 -0.10000000000E+04  0.10000000000E+04  0.00000000000E+00 0.  1.
    9000005    2    1    2  501    0 -0.33144794963E+02 -0.21055398538E+02 -0.53042841695E+03  0.53188950169E+03  0.31983227115E+01 0.  0.
         13    1    3    3    0    0 -0.28662446379E+02 -0.17098763346E+02 -0.45838070050E+03  0.45959413631E+03  0.00000000000E+00 0.  1.
          1    1    3    3  501    0 -0.44823485833E+01 -0.39566351912E+01 -0.72047716444E+02  0.72295365382E+02  0.00000000000E+00 0.  1.
         -1    1    1    2    0  502  0.33144794963E+02  0.21055398538E+02 -0.46801884984E+03  0.46966323152E+03  0.00000000000E+00 0. -1.
<mgrwt>
<rscale>  1 0.30000000E+03</rscale>
<asrwt>0</asrwt>
<pdfrwt beam="1">  1       21 0.56463145E-02 0.30000000E+03</pdfrwt>
<pdfrwt beam="2">0</pdfrwt>
<totfact> 0.23395731E+04</totfact>
</mgrwt>
</event>
<event>
 6    1  0.1270461E-001  0.3000000E+03  0.7818608E-02  0.1093470E+00
         21   -1    0    0  501  502  0.00000000000E+00  0.00000000000E+00  0.15650822312E+01  0.15650822312E+01  0.00000000000E+00 0. -1.
         13   -1    0    0    0    0 -0.00000000000E+00 -0.00000000000E+00 -0.10000000000E+04  0.10000000000E+04  0.00000000000E+00 0.  1.
    9000005    2    1    2  501    0 -0.29869191334E+02 -0.76704684500E+01 -0.81229150441E+03  0.81288446580E+03  0.35583616123E+01 0.  0.
         13    1    3    3    0    0 -0.25135438084E+02 -0.69764412103E+01 -0.71445248196E+03  0.71492853486E+03  0.00000000000E+00 0.  1.
          3    1    3    3  501    0 -0.47337532495E+01 -0.69402723970E+00 -0.97839022451E+02  0.97955930948E+02  0.00000000000E+00 0.  1.
         -1    1    1    2    0  502  0.29869191334E+02  0.76704684500E+01 -0.18614341336E+03  0.18868061643E+03  0.00000000000E+00 0. -1.
<mgrwt>
<rscale>  1 0.30000000E+03</rscale>
<asrwt>0</asrwt>
<pdfrwt beam="1">  1       21 0.56912201E-02 0.30000000E+03</pdfrwt>
<pdfrwt beam="2">0</pdfrwt>
<totfact> 0.23079351E+04</totfact>
</mgrwt>
</event>
<event>
 6    1  0.1270461E-001  0.3000000E+03  0.7818608E-02  0.1093470E+00
         21   -1    0    0  501  502  0.00000000000E+00  0.00000000000E+00  0.97952683263E+01  0.97952683263E+01  0.00000000000E+00 0. -1.
         13   -1    0    0    0    0 -0.00000000000E+00 -0.00000000000E+00 -0.10000000000E+04  0.10000000000E+04  0.00000000000E+00 0.  1.
    9000005    2    1    2  501    0  0.10599451484E+02 -0.34166106959E+02 -0.96585309439E+03  0.96652087087E+03  0.32745464461E+01 0.  0.
         13    1    3    3    0    0 -0.78622837339E-01 -0.25520955833E+01 -0.69222053047E+02  0.69269127333E+02  0.00000000000E+00 0.  1.
          1    1    3    3  501    0  0.10678074321E+02 -0.31614011376E+02 -0.89663104134E+03  0.89725174354E+03  0.00000000000E+00 0.  1.
         -3    1    1    2    0  502 -0.10599451484E+02  0.34166106959E+02 -0.24351637283E+02  0.43274397452E+02  0.00000000000E+00 0. -1.
<mgrwt>
<rscale>  1 0.30000000E+03</rscale>
<asrwt>0</asrwt>
<pdfrwt beam="1">  1       21 0.35619233E-01 0.30000000E+03</pdfrwt>
<pdfrwt beam="2">0</pdfrwt>
<totfact> 0.76772323E+02</totfact>
</mgrwt>
</event>
<event>
 6    1  0.1270461E-001  0.3000000E+03  0.7818608E-02  0.1093470E+00
         21   -1    0    0  501  502  0.00000000000E+00  0.00000000000E+00  0.95329362419E+00  0.95329362419E+00  0.00000000000E+00 0. -1.
         13   -1    0    0    0    0 -0.00000000000E+00 -0.00000000000E+00 -0.10000000000E+04  0.10000000000E+04  0.00000000000E+00 0.  1.
    9000005    2    1    2  501    0 -0.23978854984E+02 -0.19137501896E+02 -0.45867400235E+03  0.45971038261E+03  0.32505359554E+01 0.  0.
         13    1    3    3    0    0 -0.11554979237E+02 -0.11271492307E+02 -0.23608448044E+03  0.23663568198E+03  0.00000000000E+00 0.  1.
          3    1    3    3  501    0 -0.12423875747E+02 -0.78660095895E+01 -0.22258952191E+03  0.22307470063E+03  0.00000000000E+00 0.  1.
         -3    1    1    2    0  502  0.23978854984E+02  0.19137501896E+02 -0.54037270402E+03  0.54124291101E+03  0.00000000000E+00 0. -1.
<mgrwt>
<rscale>  1 0.30000000E+03</rscale>
<asrwt>0</asrwt>
<pdfrwt beam="1">  1       21 0.34665296E-02 0.30000000E+03</pdfrwt>
<pdfrwt beam="2">0</pdfrwt>
<totfact> 0.53469959E+04</totfact>
</mgrwt>
</event>
<event>
 6    1  0.1270461E-001  0.3000000E+03  0.7818608E-02  0.1093470E+00
         21   -1    0    0  501  502  0.00000000000E+00  0.00000000000E+00  0.25182739806E+01  0.25182739806E+01  0.00000000000E+00 0. -1.
         13   -1    0    0    0    0 -0.00000000000E+00 -0.00000000000E+00 -0.10000000000E+04  0.10000000000E+04  0.00000000000E+00 0.  1.
    9000005    2    1    2  501    0 -0.30807271071E+02 -0.24793644087E+02 -0.80700471803E+03  0.80797958037E+03  0.32518670100E+01 0.  0.
         13    1    3    3    0    0 -0.58457606479E+01 -0.52073103611E+01 -0.13600841663E+03  0.13623354357E+03  0.00000000000E+00 0.  1.
          1    1    3    3  501    0 -0.24961510423E+02 -0.19586333726E+02 -0.67099630140E+03  0.67174603680E+03  0.00000000000E+00 0.  1.
         -1    1    1    2    0  502  0.30807271071E+02  0.24793644087E+02 -0.19047700799E+03  0.19453869361E+03  0.00000000000E+00 0. -1.
<mgrwt>
<rscale>  1 0.30000000E+03</rscale>
<asrwt>0</asrwt>
<pdfrwt beam="1">  1       21 0.91573792E-02 0.30000000E+03</pdfrwt>
<pdfrwt beam="2">0</pdfrwt>
<totfact> 0.10063947E+04</totfact>
</mgrwt>
</event>
<event>
 6    1  0.1270461E-001  0.3000000E+03  0.7818608E-02  0.1093470E+00
         21   -1    0    0  501  502  0.00000000000E+00  0.00000000000E+00  0.24848490553E+01  0.24848490553E+01  0.00000000000E+00 0. -1.
         13   -1    0    0    0    0 -0.00000000000E+00 -0.00000000000E+00 -0.10000000000E+04  0.10000000000E+04  0.00000000000E+00 0.  1.
    9000005    2    1    2  501    0 -0.17561138926E+02  0.45899793247E+02 -0.41972145072E+03  0.42260490920E+03  0.36916757340E+01 0.  0.
         13    1    3    3    0    0 -0.19767719608E+01  0.74016074854E+01 -0.56663029993E+02  0.57178583305E+02  0.00000000000E+00 0.  1.
          1    1    3    3  501    0 -0.15584366965E+02  0.38498185762E+02 -0.36305842072E+03  0.36542632590E+03  0.00000000000E+00 0.  1.
         -1    1    1    2    0  502  0.17561138926E+02 -0.45899793247E+02 -0.57779370023E+03  0.57987993985E+03  0.00000000000E+00 0. -1.
<mgrwt>
<rscale>  1 0.30000000E+03</rscale>
<asrwt>0</asrwt>
<pdfrwt beam="1">  1       21 0.90358338E-02 0.30000000E+03</pdfrwt>
<pdfrwt beam="2">0</pdfrwt>
<totfact> 0.10305272E+04</totfact>
</mgrwt>
</event>
<event>
 6    1  0.1270461E-001  0.3000000E+03  0.7818608E-02  0.1093470E+00
         21   -1    0    0  501  502  0.00000000000E+00  0.00000000000E+00  0.10657458410E+01  0.10657458410E+01  0.00000000000E+00 0. -1.
         13   -1    0    0    0    0 -0.00000000000E+00 -0.00000000000E+00 -0.10000000000E+04  0.10000000000E+04  0.00000000000E+00 0.  1.
    9000005    2    1    2  501    0 -0.22727388533E+02  0.23198098179E+02 -0.46578439350E+03  0.46692769265E+03  0.34180380856E+01 0.  0.
         13    1    3    3    0    0 -0.10162920727E+02  0.12454585100E+02 -0.21686047210E+03  0.21745543453E+03  0.00000000000E+00 0.  1.
          1    1    3    3  501    0 -0.12564467806E+02  0.10743513079E+02 -0.24892392139E+03  0.24947225811E+03  0.00000000000E+00 0.  1.
         -3    1    1    2    0  502  0.22727388533E+02 -0.23198098179E+02 -0.53314986066E+03  0.53413805320E+03  0.00000000000E+00 0. -1.
<mgrwt>
<rscale>  1 0.30000000E+03</rscale>
<asrwt>0</asrwt>
<pdfrwt beam="1">  1       21 0.38754476E-02 0.30000000E+03</pdfrwt>
<pdfrwt beam="2">0</pdfrwt>
<totfact> 0.44346175E+04</totfact>
</mgrwt>
</event>
<event>
 6    1  0.1270461E-001  0.3000000E+03  0.7818608E-02  0.1093470E+00
         21   -1    0    0  501  502  0.00000000000E+00  0.00000000000E+00  0.28681535726E+01  0.28681535726E+01  0.00000000000E+00 0. -1.
         13   -1    0    0    0    0 -0.00000000000E+00 -0.00000000000E+00 -0.10000000000E+04  0.10000000000E+04  0.00000000000E+00 0.  1.
    9000005    2    1    2  501    0  0.27676153200E+02  0.36343585952E+02 -0.75985069266E+03  0.76122963920E+03  0.32653885277E+01 0.  0.
         13    1    3    3    0    0  0.18581578998E+02  0.25017832896E+02 -0.49311248284E+03  0.49409623331E+03  0.00000000000E+00 0.  1.
          1    1    3    3  501    0  0.90945742024E+01  0.11325753055E+02 -0.26673820982E+03  0.26713340589E+03  0.00000000000E+00 0.  1.
         -1    1    1    2    0  502 -0.27676153200E+02 -0.36343585952E+02 -0.23728115377E+03  0.24163851437E+03  0.00000000000E+00 0. -1.
<mgrwt>
<rscale>  1 0.30000000E+03</rscale>
<asrwt>0</asrwt>
<pdfrwt beam="1">  1       21 0.10429671E-01 0.30000000E+03</pdfrwt>
<pdfrwt beam="2">0</pdfrwt>
<totfact> 0.79793964E+03</totfact>
</mgrwt>
</event>
<event>
 6    1  0.1270461E-001  0.3000000E+03  0.7818608E-02  0.1093470E+00
         21   -1    0    0  501  502  0.00000000000E+00  0.00000000000E+00  0.26690282647E+01  0.26690282647E+01  0.00000000000E+00 0. -1.
         13   -1    0    0    0    0 -0.00000000000E+00 -0.00000000000E+00 -0.10000000000E+04  0.10000000000E+04  0.00000000000E+00 0.  1.
    9000005    2    1    2  501    0 -0.29526468496E+02  0.27233592748E+02 -0.81358618912E+03  0.81458493523E+03  0.35564947331E+01 0.  0.
         13    1    3    3    0    0 -0.17701735945E+01  0.65180542870E+00 -0.34957510127E+02  0.35008368702E+02  0.00000000000E+00 0.  1.
          3    1    3    3  501    0 -0.27756294901E+02  0.26581787319E+02 -0.77862867900E+03  0.77957656653E+03  0.00000000000E+00 0.  1.
         -1    1    1    2    0  502  0.29526468496E+02 -0.27233592748E+02 -0.18374478261E+03  0.18808409304E+03  0.00000000000E+00 0. -1.
<mgrwt>
<rscale>  1 0.30000000E+03</rscale>
<asrwt>0</asrwt>
<pdfrwt beam="1">  1       21 0.97055778E-02 0.30000000E+03</pdfrwt>
<pdfrwt beam="2">0</pdfrwt>
<totfact> 0.90746677E+03</totfact>
</mgrwt>
</event>
<event>
 6    1  0.1270461E-001  0.3000000E+03  0.7818608E-02  0.1093470E+00
         21   -1    0    0  501  502  0.00000000000E+00  0.00000000000E+00  0.53265130527E+01  0.53265130527E+01  0.00000000000E+00 0. -1.
         13   -1    0    0    0    0 -0.00000000000E+00 -0.00000000000E+00 -0.10000000000E+04  0.10000000000E+04  0.00000000000E+00 0.  1.
    9000005    2    1    2  501    0 -0.29323468560E+02  0.20157852892E+02 -0.93615900669E+03  0.93684184878E+03  0.35719692981E+01 0.  0.
         13    1    3    3    0    0 -0.19254648041E+02  0.11816201101E+02 -0.55922612065E+03  0.55968224743E+03  0.00000000000E+00 0.  1.
          1    1    3    3  501    0 -0.10068820520E+02  0.83416517905E+01 -0.37693288605E+03  0.37715960134E+03  0.00000000000E+00 0.  1.
         -1    1    1    2    0  502  0.29323468560E+02 -0.20157852892E+02 -0.58514480255E+02  0.68484664277E+02  0.00000000000E+00 0. -1.
<mgrwt>
<rscale>  1 0.30000000E+03</rscale>
<asrwt>0</asrwt>
<pdfrwt beam="1">  1       21 0.19369179E-01 0.30000000E+03</pdfrwt>
<pdfrwt beam="2">0</pdfrwt>
<totfact> 0.25502296E+03</totfact>
</mgrwt>
</event>
<event>
 6    1  0.1270461E-001  0.3000000E+03  0.7818608E-02  0.1093470E+00
         21   -1    0    0  501  502  0.00000000000E+00  0.00000000000E+00  0.24923315098E+01  0.24923315098E+01  0.00000000000E+00 0. -1.
         13   -1    0    0    0    0 -0.00000000000E+00 -0.00000000000E+00 -0.10000000000E+04  0.10000000000E+04  0.00000000000E+00 0.  1.
    9000005    2    1    2  501    0 -0.35731802477E+02  0.30880942149E+02 -0.34191140331E+03  0.34519722487E+03  0.52270495733E+01 0.  0.
         13    1    3    3    0    0 -0.19141992697E+02  0.16434913190E+02 -0.16357784175E+03  0.16551203149E+03  0.00000000000E+00 0.  1.
          3    1    3    3  501    0 -0.16589809780E+02  0.14446028959E+02 -0.17833356156E+03  0.17968519338E+03  0.00000000000E+00 0.  1.
         -3    1    1    2    0  502  0.35731802477E+02 -0.30880942149E+02 -0.65559626518E+03  0.65729510664E+03  0.00000000000E+00 0. -1.
<mgrwt>
<rscale>  1 0.30000000E+03</rscale>
<asrwt>0</asrwt>
<pdfrwt beam="1">  1       21 0.90630428E-02 0.30000000E+03</pdfrwt>
<pdfrwt beam="2">0</pdfrwt>
<totfact> 0.10250496E+04</totfact>
</mgrwt>
</event>
<event>
 6    1  0.1270461E-001  0.3000000E+03  0.7818608E-02  0.1093470E+00
         21   -1    0    0  501  502  0.00000000000E+00  0.00000000000E+00  0.11552232026E+01  0.11552232026E+01  0.00000000000E+00 0. -1.
         13   -1    0    0    0    0 -0.00000000000E+00 -0.00000000000E+00 -0.10000000000E+04  0.10000000000E+04  0.00000000000E+00 0.  1.
    9000005    2    1    2  501    0  0.62161189947E+01  0.31245616298E+02 -0.67174077539E+03  0.67250349810E+03  0.32182243793E+01 0.  0.
         13    1    3    3    0    0  0.10041689515E+01  0.10977979490E+02 -0.25323045890E+03  0.25347029354E+03  0.00000000000E+00 0.  1.
          1    1    3    3  501    0  0.52119500432E+01  0.20267636808E+02 -0.41851031648E+03  0.41903320456E+03  0.00000000000E+00 0.  1.
         -1    1    1    2    0  502 -0.62161189947E+01 -0.31245616298E+02 -0.32710400141E+03  0.32865172510E+03  0.00000000000E+00 0. -1.
<mgrwt>
<rscale>  1 0.30000000E+03</rscale>
<asrwt>0</asrwt>
<pdfrwt beam="1">  1       21 0.42008205E-02 0.30000000E+03</pdfrwt>
<pdfrwt beam="2">0</pdfrwt>
<totfact> 0.38713686E+04</totfact>
</mgrwt>
</event>
<event>
 6    1  0.1270461E-001  0.3000000E+03  0.7818608E-02  0.1093470E+00
         21   -1    0    0  501  502  0.00000000000E+00  0.00000000000E+00  0.31745995966E+01  0.31745995966E+01  0.00000000000E+00 0. -1.
         13   -1    0    0    0    0 -0.00000000000E+00 -0.00000000000E+00 -0.10000000000E+04  0.10000000000E+04  0.00000000000E+00 0.  1.
    9000005    2    1    2  501    0  0.35968799745E+01 -0.30558875438E+02 -0.91852343725E+03  0.91904386890E+03  0.30896236704E+01 0.  0.
         13    1    3    3    0    0  0.38517451483E+01 -0.20412097412E+02 -0.61179870714E+03  0.61215124579E+03  0.00000000000E+00 0.  1.
          3    1    3    3  501    0 -0.25486517373E+00 -0.10146778025E+02 -0.30672473011E+03  0.30689262311E+03  0.00000000000E+00 0.  1.
         -3    1    1    2    0  502 -0.35968799745E+01  0.30558875438E+02 -0.78301963152E+02  0.84130730693E+02  0.00000000000E+00 0. -1.
<mgrwt>
<rscale>  1 0.30000000E+03</rscale>
<asrwt>0</asrwt>
<pdfrwt beam="1">  1       21 0.11544023E-01 0.30000000E+03</pdfrwt>
<pdfrwt beam="2">0</pdfrwt>
<totfact> 0.66475016E+03</totfact>
</mgrwt>
</event>
<event>
 6    1  0.1270461E-001  0.3000000E+03  0.7818608E-02  0.1093470E+00
         21   -1    0    0  501  502  0.00000000000E+00  0.00000000000E+00  0.30971838143E+01  0.30971838143E+01  0.00000000000E+00 0. -1.
         13   -1    0    0    0    0 -0.00000000000E+00 -0.00000000000E+00 -0.10000000000E+04  0.10000000000E+04  0.00000000000E+00 0.  1.
    9000005    2    1    2  501    0  0.52064127359E+02 -0.75596384972E+01 -0.33660265757E+03  0.34070445970E+03  0.32184288577E+01 0.  0.
         13    1    3    3    0    0  0.10416591400E+02 -0.55068958638E+00 -0.72397053937E+02  0.73144665247E+02  0.00000000000E+00 0.  1.
          1    1    3    3  501    0  0.41647535959E+02 -0.70089489108E+01 -0.26420560363E+03  0.26755979445E+03  0.00000000000E+00 0.  1.
         -1    1    1    2    0  502 -0.52064127359E+02  0.75596384972E+01 -0.66030015862E+03  0.66239272412E+03  0.00000000000E+00 0. -1.
<mgrwt>
<rscale>  1 0.30000000E+03</rscale>
<asrwt>0</asrwt>
<pdfrwt beam="1">  1       21 0.11262510E-01 0.30000000E+03</pdfrwt>
<pdfrwt beam="2">0</pdfrwt>
<totfact> 0.69504409E+03</totfact>
</mgrwt>
</event>
<event>
 6    1  0.1270461E-001  0.3000000E+03  0.7818608E-02  0.1093470E+00
         21   -1    0    0  501  502  0.00000000000E+00  0.00000000000E+00  0.14230217754E+01  0.14230217754E+01  0.00000000000E+00 0. -1.
         13   -1    0    0    0    0 -0.00000000000E+00 -0.00000000000E+00 -0.10000000000E+04  0.10000000000E+04  0.00000000000E+00 0.  1.
    9000005    2    1    2  501    0 -0.30119242242E+02 -0.11459379174E+02 -0.75889098461E+03  0.75958038356E+03  0.28890208698E+01 0.  0.
         13    1    3    3    0    0 -0.93800929464E+01 -0.34848238614E+01 -0.20543685474E+03  0.20568041089E+03  0.00000000000E+00 0.  1.
          1    1    3    3  501    0 -0.20739149296E+02 -0.79745553123E+01 -0.55345412987E+03  0.55389997267E+03  0.00000000000E+00 0.  1.
         -3    1    1    2    0  502  0.30119242242E+02  0.11459379174E+02 -0.23968599362E+03  0.24184263822E+03  0.00000000000E+00 0. -1.
<mgrwt>
<rscale>  1 0.30000000E+03</rscale>
<asrwt>0</asrwt>
<pdfrwt beam="1">  1       21 0.51746355E-02 0.30000000E+03</pdfrwt>
<pdfrwt beam="2">0</pdfrwt>
<totfact> 0.27165829E+04</totfact>
</mgrwt>
</event>
<event>
 6    1  0.1270461E-001  0.3000000E+03  0.7818608E-02  0.1093470E+00
         21   -1    0    0  501  502  0.00000000000E+00  0.00000000000E+00  0.79977906879E+01  0.79977906879E+01  0.00000000000E+00 0. -1.
         13   -1    0    0    0    0 -0.00000000000E+00 -0.00000000000E+00 -0.10000000000E+04  0.10000000000E+04  0.00000000000E+00 0.  1.
    9000005    2    1    2  501    0  0.63530006828E+02 -0.59687566501E+02 -0.60765080774E+03  0.61388528485E+03  0.41196424273E+01 0.  0.
         13    1    3    3    0    0  0.45148603112E+02 -0.43248397073E+02 -0.44784752721E+03  0.45219047739E+03  0.00000000000E+00 0.  1.
          1    1    3    3  501    0  0.18381403716E+02 -0.16439169428E+02 -0.15980328052E+03  0.16169480746E+03  0.00000000000E+00 0.  1.
         -1    1    1    2    0  502 -0.63530006828E+02  0.59687566501E+02 -0.38435140158E+03  0.39411250584E+03  0.00000000000E+00 0. -1.
<mgrwt>
<rscale>  1 0.30000000E+03</rscale>
<asrwt>0</asrwt>
<pdfrwt beam="1">  1       21 0.29082937E-01 0.30000000E+03</pdfrwt>
<pdfrwt beam="2">0</pdfrwt>
<totfact> 0.11567913E+03</totfact>
</mgrwt>
</event>
<event>
 6    1  0.1270461E-001  0.3000000E+03  0.7818608E-02  0.1093470E+00
         21   -1    0    0  501  502  0.00000000000E+00  0.00000000000E+00  0.24861982935E+01  0.24861982935E+01  0.00000000000E+00 0. -1.
         13   -1    0    0    0    0 -0.00000000000E+00 -0.00000000000E+00 -0.10000000000E+04  0.10000000000E+04  0.00000000000E+00 0.  1.
    9000005    2    1    2  501    0 -0.40687269270E+01 -0.35317071096E+02 -0.84997623273E+03  0.85072591261E+03  0.33364861418E+01 0.  0.
         13    1    3    3    0    0 -0.27799013470E+01 -0.18832431014E+02 -0.49157256335E+03  0.49194102629E+03  0.00000000000E+00 0.  1.
          3    1    3    3  501    0 -0.12888255801E+01 -0.16484640082E+02 -0.35840366938E+03  0.35878488633E+03  0.00000000000E+00 0.  1.
         -1    1    1    2    0  502  0.40687269270E+01  0.35317071096E+02 -0.14753756898E+03  0.15176028568E+03  0.00000000000E+00 0. -1.
<mgrwt>
<rscale>  1 0.30000000E+03</rscale>
<asrwt>0</asrwt>
<pdfrwt beam="1">  1       21 0.90407401E-02 0.30000000E+03</pdfrwt>
<pdfrwt beam="2">0</pdfrwt>
<totfact> 0.10295362E+04</totfact>
</mgrwt>
</event>
<event>
 6    1  0.1270461E-001  0.3000000E+03  0.7818608E-02  0.1093470E+00
         21   -1    0    0  501  502  0.00000000000E+00  0.00000000000E+00  0.38735618385E+01  0.38735618385E+01  0.00000000000E+00 0. -1.
         13   -1    0    0    0    0 -0.00000000000E+00 -0.00000000000E+00 -0.10000000000E+04  0.10000000000E+04  0.00000000000E+00 0.  1.
    9000005    2    1    2  501    0  0.31666962790E+01  0.32411896693E+02 -0.92573659585E+03  0.92631526819E+03  0.33424809702E+01 0.  0.
         13    1    3    3    0    0  0.96015618936E+00  0.34655149774E+01 -0.80494653065E+02  0.80574939442E+02  0.00000000000E+00 0.  1.
          1    1    3    3  501    0  0.22065400897E+01  0.28946381716E+02 -0.84524194278E+03  0.84574032875E+03  0.00000000000E+00 0.  1.
         -3    1    1    2    0  502 -0.31666962790E+01 -0.32411896693E+02 -0.70389842312E+02  0.77558293646E+02  0.00000000000E+00 0. -1.
<mgrwt>
<rscale>  1 0.30000000E+03</rscale>
<asrwt>0</asrwt>
<pdfrwt beam="1">  1       21 0.14085709E-01 0.30000000E+03</pdfrwt>
<pdfrwt beam="2">0</pdfrwt>
<totfact> 0.46245104E+03</totfact>
</mgrwt>
</event>
<event>
 6    1  0.1270461E-001  0.3000000E+03  0.7818608E-02  0.1093470E+00
         21   -1    0    0  501  502  0.00000000000E+00  0.00000000000E+00  0.10982934805E+01  0.10982934805E+01  0.00000000000E+00 0. -1.
         13   -1    0    0    0    0 -0.00000000000E+00 -0.00000000000E+00 -0.10000000000E+04  0.10000000000E+04  0.00000000000E+00 0.  1.
    9000005    2    1    2  501    0  0.10494507365E+02  0.28387376935E+02 -0.70118581658E+03  0.70184801533E+03  0.36206888255E+01 0.  0.
         13    1    3    3    0    0  0.70042054463E+01  0.15418893332E+02 -0.36040387276E+03  0.36080154194E+03  0.00000000000E+00 0.  1.
          1    1    3    3  501    0  0.34903019187E+01  0.12968483602E+02 -0.34078194383E+03  0.34104647339E+03  0.00000000000E+00 0.  1.
         -1    1    1    2    0  502 -0.10494507365E+02 -0.28387376935E+02 -0.29771588994E+03  0.29925027815E+03  0.00000000000E+00 0. -1.
<mgrwt>
<rscale>  1 0.30000000E+03</rscale>
<asrwt>0</asrwt>
<pdfrwt beam="1">  1       21 0.39938029E-02 0.30000000E+03</pdfrwt>
<pdfrwt beam="2">0</pdfrwt>
<totfact> 0.42157250E+04</totfact>
</mgrwt>
</event>
<event>
 6    1  0.1270461E-001  0.3000000E+03  0.7818608E-02  0.1093470E+00
         21   -1    0    0  501  502  0.00000000000E+00  0.00000000000E+00  0.40285433302E+01  0.40285433302E+01  0.00000000000E+00 0. -1.
         13   -1    0    0    0    0 -0.00000000000E+00 -0.00000000000E+00 -0.10000000000E+04  0.10000000000E+04  0.00000000000E+00 0.  1.
    9000005    2    1    2  501    0  0.37724731537E+02 -0.43908585179E+02 -0.70289303034E+03  0.70528771385E+03  0.45856272665E+01 0.  0.
         13    1    3    3    0    0  0.22303369792E+02 -0.23969984219E+02 -0.37427095950E+03  0.37570034811E+03  0.00000000000E+00 0.  1.
          1    1    3    3  501    0  0.15421361745E+02 -0.19938600959E+02 -0.32862207084E+03  0.32958736573E+03  0.00000000000E+00 0.  1.
         -1    1    1    2    0  502 -0.37724731537E+02  0.43908585179E+02 -0.29307842633E+03  0.29874082948E+03  0.00000000000E+00 0. -1.
<mgrwt>
<rscale>  1 0.30000000E+03</rscale>
<asrwt>0</asrwt>
<pdfrwt beam="1">  1       21 0.14649279E-01 0.30000000E+03</pdfrwt>
<pdfrwt beam="2">0</pdfrwt>
<totfact> 0.43021131E+03</totfact>
</mgrwt>
</event>
<event>
 6    1  0.1270461E-001  0.3000000E+03  0.7818608E-02  0.1093470E+00
         21   -1    0    0  501  502  0.00000000000E+00  0.00000000000E+00  0.10550606353E+01  0.10550606353E+01  0.00000000000E+00 0. -1.
         13   -1    0    0    0    0 -0.00000000000E+00 -0.00000000000E+00 -0.10000000000E+04  0.10000000000E+04  0.00000000000E+00 0.  1.
    9000005    2    1    2  501    0 -0.30447064507E+02 -0.11040916468E+02 -0.50679394101E+03  0.50783955930E+03  0.34632029199E+01 0.  0.
         13    1    3    3    0    0 -0.28595820536E+02 -0.11114187224E+02 -0.47158339350E+03  0.47258030338E+03  0.00000000000E+00 0.  1.
          1    1    3    3  501    0 -0.18512439709E+01  0.73270755459E-01 -0.35210547508E+02  0.35259255929E+02  0.00000000000E+00 0.  1.
         -1    1    1    2    0  502  0.30447064507E+02  0.11040916468E+02 -0.49215099835E+03  0.49321550133E+03  0.00000000000E+00 0. -1.
<mgrwt>
<rscale>  1 0.30000000E+03</rscale>
<asrwt>0</asrwt>
<pdfrwt beam="1">  1       21 0.38365922E-02 0.30000000E+03</pdfrwt>
<pdfrwt beam="2">0</pdfrwt>
<totfact> 0.45103817E+04</totfact>
</mgrwt>
</event>
<event>
 6    1  0.1270461E-001  0.3000000E+03  0.7818608E-02  0.1093470E+00
         21   -1    0    0  501  502  0.00000000000E+00  0.00000000000E+00  0.14004370922E+01  0.14004370922E+01  0.00000000000E+00 0. -1.
         13   -1    0    0    0    0 -0.00000000000E+00 -0.00000000000E+00 -0.10000000000E+04  0.10000000000E+04  0.00000000000E+00 0.  1.
    9000005    2    1    2  501    0  0.32815199274E+02 -0.48763237182E+01 -0.72982095410E+03  0.73058212828E+03  0.33174205680E+01 0.  0.
         13    1    3    3    0    0  0.23567792841E+02 -0.37990963437E+01 -0.49147445536E+03  0.49205387333E+03  0.00000000000E+00 0.  1.
          1    1    3    3  501    0  0.92474064331E+01 -0.10772273745E+01 -0.23834649875E+03  0.23852825495E+03  0.00000000000E+00 0.  1.
         -1    1    1    2    0  502 -0.32815199274E+02  0.48763237182E+01 -0.26877860880E+03  0.27081830881E+03  0.00000000000E+00 0. -1.
<mgrwt>
<rscale>  1 0.30000000E+03</rscale>
<asrwt>0</asrwt>
<pdfrwt beam="1">  1       21 0.50925093E-02 0.30000000E+03</pdfrwt>
<pdfrwt beam="2">0</pdfrwt>
<totfact> 0.27917959E+04</totfact>
</mgrwt>
</event>
<event>
 6    1  0.1270461E-001  0.3000000E+03  0.7818608E-02  0.1093470E+00
         21   -1    0    0  501  502  0.00000000000E+00  0.00000000000E+00  0.29071238529E+01  0.29071238529E+01  0.00000000000E+00 0. -1.
         13   -1    0    0    0    0 -0.00000000000E+00 -0.00000000000E+00 -0.10000000000E+04  0.10000000000E+04  0.00000000000E+00 0.  1.
    9000005    2    1    2  501    0  0.32164569081E+02  0.38122486746E+02 -0.68789818765E+03  0.68971510784E+03  0.38897184533E+01 0.  0.
         13    1    3    3    0    0  0.17586303651E+02  0.22531028886E+02 -0.37171527795E+03  0.37281251749E+03  0.00000000000E+00 0.  1.
          1    1    3    3  501    0  0.14578265431E+02  0.15591457859E+02 -0.31618290970E+03  0.31690259035E+03  0.00000000000E+00 0.  1.
         -1    1    1    2    0  502 -0.32164569081E+02 -0.38122486746E+02 -0.30919468850E+03  0.31319201602E+03  0.00000000000E+00 0. -1.
<mgrwt>
<rscale>  1 0.30000000E+03</rscale>
<asrwt>0</asrwt>
<pdfrwt beam="1">  1       21 0.10571382E-01 0.30000000E+03</pdfrwt>
<pdfrwt beam="2">0</pdfrwt>
<totfact> 0.77886744E+03</totfact>
</mgrwt>
</event>
<event>
 6    1  0.1270461E-001  0.3000000E+03  0.7818608E-02  0.1093470E+00
         21   -1    0    0  501  502  0.00000000000E+00  0.00000000000E+00  0.11813331128E+01  0.11813331128E+01  0.00000000000E+00 0. -1.
         13   -1    0    0    0    0 -0.00000000000E+00 -0.00000000000E+00 -0.10000000000E+04  0.10000000000E+04  0.00000000000E+00 0.  1.
    9000005    2    1    2  501    0 -0.11621628567E+02  0.32060127045E+02 -0.44527816160E+03  0.44659139001E+03  0.28834765414E+01 0.  0.
         13    1    3    3    0    0 -0.82518051647E+00  0.39411630793E+01 -0.43629197680E+02  0.43814616049E+02  0.00000000000E+00 0.  1.
          1    1    3    3  501    0 -0.10796448050E+02  0.28118963965E+02 -0.40164896392E+03  0.40277677396E+03  0.00000000000E+00 0.  1.
         -1    1    1    2    0  502  0.11621628567E+02 -0.32060127045E+02 -0.55354050529E+03  0.55458994310E+03  0.00000000000E+00 0. -1.
<mgrwt>
<rscale>  1 0.30000000E+03</rscale>
<asrwt>0</asrwt>
<pdfrwt beam="1">  1       21 0.42957658E-02 0.30000000E+03</pdfrwt>
<pdfrwt beam="2">0</pdfrwt>
<totfact> 0.37278802E+04</totfact>
</mgrwt>
</event>
<event>
 6    1  0.1270461E-001  0.3000000E+03  0.7818608E-02  0.1093470E+00
         21   -1    0    0  501  502  0.00000000000E+00  0.00000000000E+00  0.20148671769E+01  0.20148671769E+01  0.00000000000E+00 0. -1.
         13   -1    0    0    0    0 -0.00000000000E+00 -0.00000000000E+00 -0.10000000000E+04  0.10000000000E+04  0.00000000000E+00 0.  1.
    9000005    2    1    2  501    0  0.35946262489E+02  0.25005447565E+02 -0.43717911466E+03  0.43950193736E+03  0.10907266389E+02 0.  0.
         13    1    3    3    0    0  0.28059748108E+02  0.24301003553E+02 -0.34928573027E+03  0.35125262933E+03  0.00000000000E+00 0.  1.
          3    1    3    3  501    0  0.78865143806E+01  0.70444401247E+00 -0.87893384382E+02  0.88249308034E+02  0.00000000000E+00 0.  1.
         -3    1    1    2    0  502 -0.35946262489E+02 -0.25005447565E+02 -0.56080601817E+03  0.56251292981E+03  0.00000000000E+00 0. -1.
<mgrwt>
<rscale>  1 0.30000000E+03</rscale>
<asrwt>0</asrwt>
<pdfrwt beam="1">  1       21 0.73268052E-02 0.30000000E+03</pdfrwt>
<pdfrwt beam="2">0</pdfrwt>
<totfact> 0.14901207E+04</totfact>
</mgrwt>
</event>
<event>
 6    1  0.1270461E-001  0.3000000E+03  0.7818608E-02  0.1093470E+00
         21   -1    0    0  501  502  0.00000000000E+00  0.00000000000E+00  0.20175686753E+01  0.20175686753E+01  0.00000000000E+00 0. -1.
         13   -1    0    0    0    0 -0.00000000000E+00 -0.00000000000E+00 -0.10000000000E+04  0.10000000000E+04  0.00000000000E+00 0.  1.
    9000005    2    1    2  501    0  0.28176235251E+02 -0.20123427017E+02 -0.81548962184E+03  0.81626914186E+03  0.85519640484E+01 0.  0.
         13    1    3    3    0    0  0.10503945206E+02 -0.39233592683E+01 -0.32600794075E+03  0.32620070976E+03  0.00000000000E+00 0.  1.
          3    1    3    3  501    0  0.17672290045E+02 -0.16200067749E+02 -0.48948168109E+03  0.49006843211E+03  0.00000000000E+00 0.  1.
         -3    1    1    2    0  502 -0.28176235251E+02  0.20123427017E+02 -0.18249280949E+03  0.18574842681E+03  0.00000000000E+00 0. -1.
<mgrwt>
<rscale>  1 0.30000000E+03</rscale>
<asrwt>0</asrwt>
<pdfrwt beam="1">  1       21 0.73366288E-02 0.30000000E+03</pdfrwt>
<pdfrwt beam="2">0</pdfrwt>
<totfact> 0.14866358E+04</totfact>
</mgrwt>
</event>
<event>
 6    1  0.1270461E-001  0.3000000E+03  0.7818608E-02  0.1093470E+00
         21   -1    0    0  501  502  0.00000000000E+00  0.00000000000E+00  0.21369725540E+01  0.21369725540E+01  0.00000000000E+00 0. -1.
         13   -1    0    0    0    0 -0.00000000000E+00 -0.00000000000E+00 -0.10000000000E+04  0.10000000000E+04  0.00000000000E+00 0.  1.
    9000005    2    1    2  501    0  0.31773528220E+02 -0.31691867296E+02 -0.59460538945E+03  0.59638994034E+03  0.10557472608E+02 0.  0.
         13    1    3    3    0    0  0.20922214698E+02 -0.26833106933E+02 -0.46299719665E+03  0.46424579568E+03  0.00000000000E+00 0.  1.
          3    1    3    3  501    0  0.10851313521E+02 -0.48587603622E+01 -0.13160819279E+03  0.13214414466E+03  0.00000000000E+00 0.  1.
         -1    1    1    2    0  502 -0.31773528220E+02  0.31691867296E+02 -0.40325763800E+03  0.40574703222E+03  0.00000000000E+00 0. -1.
<mgrwt>
<rscale>  1 0.30000000E+03</rscale>
<asrwt>0</asrwt>
<pdfrwt beam="1">  1       21 0.77708257E-02 0.30000000E+03</pdfrwt>
<pdfrwt beam="2">0</pdfrwt>
<totfact> 0.13442386E+04</totfact>
</mgrwt>
</event>
<event>
 6    1  0.1270461E-001  0.3000000E+03  0.7818608E-02  0.1093470E+00
         21   -1    0    0  501  502  0.00000000000E+00  0.00000000000E+00  0.17686688796E+01  0.17686688796E+01  0.00000000000E+00 0. -1.
         13   -1    0    0    0    0 -0.00000000000E+00 -0.00000000000E+00 -0.10000000000E+04  0.10000000000E+04  0.00000000000E+00 0.  1.
    9000005    2    1    2  501    0  0.13622369479E+02  0.28809444453E+02 -0.82554018121E+03  0.82616176043E+03  0.33332499188E+01 0.  0.
         13    1    3    3    0    0  0.12588501147E+02  0.23899195582E+02 -0.68784873296E+03  0.68837890826E+03  0.00000000000E+00 0.  1.
          1    1    3    3  501    0  0.10338683322E+01  0.49102488712E+01 -0.13769144826E+03  0.13778285217E+03  0.00000000000E+00 0.  1.
         -3    1    1    2    0  502 -0.13622369479E+02 -0.28809444453E+02 -0.17269114991E+03  0.17560690845E+03  0.00000000000E+00 0. -1.
<mgrwt>
<rscale>  1 0.30000000E+03</rscale>
<asrwt>0</asrwt>
<pdfrwt beam="1">  1       21 0.64315368E-02 0.30000000E+03</pdfrwt>
<pdfrwt beam="2">0</pdfrwt>
<totfact> 0.18689457E+04</totfact>
</mgrwt>
</event>
<event>
 6    1  0.1270461E-001  0.3000000E+03  0.7818608E-02  0.1093470E+00
         21   -1    0    0  501  502  0.00000000000E+00  0.00000000000E+00  0.13475813662E+01  0.13475813662E+01  0.00000000000E+00 0. -1.
         13   -1    0    0    0    0 -0.00000000000E+00 -0.00000000000E+00 -0.10000000000E+04  0.10000000000E+04  0.00000000000E+00 0.  1.
    9000005    2    1    2  501    0 -0.35109327181E+02  0.10242839248E+02 -0.47406788104E+03  0.47548969401E+03  0.35373247015E+01 0.  0.
         13    1    3    3    0    0 -0.44060670725E+01  0.23960156338E+01 -0.72577319002E+02  0.72750405851E+02  0.00000000000E+00 0.  1.
          3    1    3    3  501    0 -0.30703260109E+02  0.78468236146E+01 -0.40149056204E+03  0.40273928816E+03  0.00000000000E+00 0.  1.
         -3    1    1    2    0  502  0.35109327181E+02 -0.10242839248E+02 -0.52458453760E+03  0.52585788736E+03  0.00000000000E+00 0. -1.
<mgrwt>
<rscale>  1 0.30000000E+03</rscale>
<asrwt>0</asrwt>
<pdfrwt beam="1">  1       21 0.49003062E-02 0.30000000E+03</pdfrwt>
<pdfrwt beam="2">0</pdfrwt>
<totfact> 0.29810301E+04</totfact>
</mgrwt>
</event>
<event>
 6    1  0.1270461E-001  0.3000000E+03  0.7818608E-02  0.1093470E+00
         21   -1    0    0  501  502  0.00000000000E+00  0.00000000000E+00  0.18854267080E+01  0.18854267080E+01  0.00000000000E+00 0. -1.
         13   -1    0    0    0    0 -0.00000000000E+00 -0.00000000000E+00 -0.10000000000E+04  0.10000000000E+04  0.00000000000E+00 0.  1.
    9000005    2    1    2  501    0 -0.12713997312E+02  0.34401562900E+02 -0.76657470484E+03  0.76745884131E+03  0.33439123962E+01 0.  0.
         13    1    3    3    0    0 -0.10594755136E+02  0.31333034471E+02 -0.69669781575E+03  0.69748251187E+03  0.00000000000E+00 0.  1.
          1    1    3    3  501    0 -0.21192421761E+01  0.30685284292E+01 -0.69876889087E+02  0.69976329445E+02  0.00000000000E+00 0.  1.
         -3    1    1    2    0  502  0.12713997312E+02 -0.34401562900E+02 -0.23153986845E+03  0.23442658540E+03  0.00000000000E+00 0. -1.
<mgrwt>
<rscale>  1 0.30000000E+03</rscale>
<asrwt>0</asrwt>
<pdfrwt beam="1">  1       21 0.68561116E-02 0.30000000E+03</pdfrwt>
<pdfrwt beam="2">0</pdfrwt>
<totfact> 0.16728691E+04</totfact>
</mgrwt>
</event>
<event>
 6    1  0.1270461E-001  0.3000000E+03  0.7818608E-02  0.1093470E+00
         21   -1    0    0  501  502  0.00000000000E+00  0.00000000000E+00  0.17611730165E+01  0.17611730165E+01  0.00000000000E+00 0. -1.
         13   -1    0    0    0    0 -0.00000000000E+00 -0.00000000000E+00 -0.10000000000E+04  0.10000000000E+04  0.00000000000E+00 0.  1.
    9000005    2    1    2  501    0  0.33426566069E+02  0.16214847058E+02 -0.73119602971E+03  0.73214642535E+03  0.32400159029E+01 0.  0.
         13    1    3    3    0    0  0.12451798335E+02  0.58893725325E+01 -0.30241291965E+03  0.30272645401E+03  0.00000000000E+00 0.  1.
          3    1    3    3  501    0  0.20974767734E+02  0.10325474526E+02 -0.42878311006E+03  0.42941997133E+03  0.00000000000E+00 0.  1.
         -3    1    1    2    0  502 -0.33426566069E+02 -0.16214847058E+02 -0.26704279728E+03  0.26961474767E+03  0.00000000000E+00 0. -1.
<mgrwt>
<rscale>  1 0.30000000E+03</rscale>
<asrwt>0</asrwt>
<pdfrwt beam="1">  1       21 0.64042790E-02 0.30000000E+03</pdfrwt>
<pdfrwt beam="2">0</pdfrwt>
<totfact> 0.18827295E+04</totfact>
</mgrwt>
</event>
<event>
 6    1  0.1270461E-001  0.3000000E+03  0.7818608E-02  0.1093470E+00
         21   -1    0    0  501  502  0.00000000000E+00  0.00000000000E+00  0.21731691622E+01  0.21731691622E+01  0.00000000000E+00 0. -1.
         13   -1    0    0    0    0 -0.00000000000E+00 -0.00000000000E+00 -0.10000000000E+04  0.10000000000E+04  0.00000000000E+00 0.  1.
    9000005    2    1    2  501    0  0.34485529445E+02 -0.53806457766E+01 -0.83075669979E+03  0.83149618835E+03  0.33187208934E+01 0.  0.
         13    1    3    3    0    0  0.34835270106E+01 -0.15420023144E+01 -0.97261143819E+02  0.97335722264E+02  0.00000000000E+00 0.  1.
          1    1    3    3  501    0  0.31002002434E+02 -0.38386434621E+01 -0.73349555597E+03  0.73416046609E+03  0.00000000000E+00 0.  1.
         -3    1    1    2    0  502 -0.34485529445E+02  0.53806457766E+01 -0.16707013105E+03  0.17067698081E+03  0.00000000000E+00 0. -1.
<mgrwt>
<rscale>  1 0.30000000E+03</rscale>
<asrwt>0</asrwt>
<pdfrwt beam="1">  1       21 0.79024500E-02 0.30000000E+03</pdfrwt>
<pdfrwt beam="2">0</pdfrwt>
<totfact> 0.13052030E+04</totfact>
</mgrwt>
</event>
<event>
 6    1  0.1270461E-001  0.3000000E+03  0.7818608E-02  0.1093470E+00
         21   -1    0    0  501  502  0.00000000000E+00  0.00000000000E+00  0.51950999537E+01  0.51950999537E+01  0.00000000000E+00 0. -1.
         13   -1    0    0    0    0 -0.00000000000E+00 -0.00000000000E+00 -0.10000000000E+04  0.10000000000E+04  0.00000000000E+00 0.  1.
    9000005    2    1    2  501    0 -0.57171438459E+01 -0.64713167843E+02 -0.71481495762E+03  0.71776711300E+03  0.29538173223E+01 0.  0.
         13    1    3    3    0    0 -0.39169152378E+01 -0.52733663887E+02 -0.59104021765E+03  0.59340097776E+03  0.00000000000E+00 0.  1.
          3    1    3    3  501    0 -0.18002286081E+01 -0.11979503956E+02 -0.12377473998E+03  0.12436613524E+03  0.00000000000E+00 0.  1.
         -3    1    1    2    0  502  0.57171438459E+01  0.64713167843E+02 -0.27998994242E+03  0.28742798695E+03  0.00000000000E+00 0. -1.
<mgrwt>
<rscale>  1 0.30000000E+03</rscale>
<asrwt>0</asrwt>
<pdfrwt beam="1">  1       21 0.18891312E-01 0.30000000E+03</pdfrwt>
<pdfrwt beam="2">0</pdfrwt>
<totfact> 0.26739967E+03</totfact>
</mgrwt>
</event>
<event>
 6    1  0.1270461E-001  0.3000000E+03  0.7818608E-02  0.1093470E+00
         21   -1    0    0  501  502  0.00000000000E+00  0.00000000000E+00  0.18148012223E+01  0.18148012223E+01  0.00000000000E+00 0. -1.
         13   -1    0    0    0    0 -0.00000000000E+00 -0.00000000000E+00 -0.10000000000E+04  0.10000000000E+04  0.00000000000E+00 0.  1.
    9000005    2    1    2  501    0 -0.24332508720E+01 -0.30573330556E+02 -0.15771542749E+03  0.16078561879E+03  0.60999910478E+01 0.  0.
         13    1    3    3    0    0  0.14189980375E+01 -0.16364786492E+02 -0.90253844168E+02  0.91736449569E+02  0.00000000000E+00 0.  1.
          3    1    3    3  501    0 -0.38522489096E+01 -0.14208544064E+02 -0.67461583317E+02  0.69049169218E+02  0.00000000000E+00 0.  1.
         -1    1    1    2    0  502  0.24332508720E+01  0.30573330556E+02 -0.84046977129E+03  0.84102918244E+03  0.00000000000E+00 0. -1.
<mgrwt>
<rscale>  1 0.30000000E+03</rscale>
<asrwt>0</asrwt>
<pdfrwt beam="1">  1       21 0.65992911E-02 0.30000000E+03</pdfrwt>
<pdfrwt beam="2">0</pdfrwt>
<totfact> 0.17874445E+04</totfact>
</mgrwt>
</event>
<event>
 6    1  0.1270461E-001  0.3000000E+03  0.7818608E-02  0.1093470E+00
         21   -1    0    0  501  502  0.00000000000E+00  0.00000000000E+00  0.13511319125E+01  0.13511319125E+01  0.00000000000E+00 0. -1.
         13   -1    0    0    0    0 -0.00000000000E+00 -0.00000000000E+00 -0.10000000000E+04  0.10000000000E+04  0.00000000000E+00 0.  1.
    9000005    2    1    2  501    0 -0.10579485291E+02  0.31932232870E+02 -0.69974580240E+03  0.70056111266E+03  0.31767260740E+01 0.  0.
         13    1    3    3    0    0 -0.45073868767E+01  0.18004072972E+02 -0.40052167486E+03  0.40095146241E+03  0.00000000000E+00 0.  1.
          1    1    3    3  501    0 -0.60720984143E+01  0.13928159898E+02 -0.29922412754E+03  0.29960965024E+03  0.00000000000E+00 0.  1.
         -3    1    1    2    0  502  0.10579485291E+02 -0.31932232870E+02 -0.29890306569E+03  0.30079001925E+03  0.00000000000E+00 0. -1.
<mgrwt>
<rscale>  1 0.30000000E+03</rscale>
<asrwt>0</asrwt>
<pdfrwt beam="1">  1       21 0.49132173E-02 0.30000000E+03</pdfrwt>
<pdfrwt beam="2">0</pdfrwt>
<totfact> 0.29677001E+04</totfact>
</mgrwt>
</event>
<event>
 6    1  0.1270461E-001  0.3000000E+03  0.7818608E-02  0.1093470E+00
         21   -1    0    0  501  502  0.00000000000E+00  0.00000000000E+00  0.21181994369E+01  0.21181994369E+01  0.00000000000E+00 0. -1.
         13   -1    0    0    0    0 -0.00000000000E+00 -0.00000000000E+00 -0.10000000000E+04  0.10000000000E+04  0.00000000000E+00 0.  1.
    9000005    2    1    2  501    0  0.28300828120E+02  0.33135965053E+02 -0.65825787161E+03  0.65971004800E+03  0.38720594681E+01 0.  0.
         13    1    3    3    0    0  0.16208887561E+02  0.17153475885E+02 -0.37880164761E+03  0.37953610896E+03  0.00000000000E+00 0.  1.
          1    1    3    3  501    0  0.12091940559E+02  0.15982489167E+02 -0.27945622400E+03  0.28017393904E+03  0.00000000000E+00 0.  1.
         -3    1    1    2    0  502 -0.28300828120E+02 -0.33135965053E+02 -0.33962392895E+03  0.34240815143E+03  0.00000000000E+00 0. -1.
<mgrwt>
<rscale>  1 0.30000000E+03</rscale>
<asrwt>0</asrwt>
<pdfrwt beam="1">  1       21 0.77025596E-02 0.30000000E+03</pdfrwt>
<pdfrwt beam="2">0</pdfrwt>
<totfact> 0.13651972E+04</totfact>
</mgrwt>
</event>
<event>
 6    1  0.1270461E-001  0.3000000E+03  0.7818608E-02  0.1093470E+00
         21   -1    0    0  501  502  0.00000000000E+00  0.00000000000E+00  0.16591381843E+01  0.16591381843E+01  0.00000000000E+00 0. -1.
         13   -1    0    0    0    0 -0.00000000000E+00 -0.00000000000E+00 -0.10000000000E+04  0.10000000000E+04  0.00000000000E+00 0.  1.
    9000005    2    1    2  501    0 -0.35810427187E+02  0.15892953467E+02 -0.62671014167E+03  0.62796893920E+03  0.66644021006E+01 0.  0.
         13    1    3    3    0    0 -0.45184121487E+01  0.25317356665E+01 -0.53599548578E+02  0.53849209294E+02  0.00000000000E+00 0.  1.
          3    1    3    3  501    0 -0.31292015039E+02  0.13361217800E+02 -0.57311059310E+03  0.57411972990E+03  0.00000000000E+00 0.  1.
         -3    1    1    2    0  502  0.35810427187E+02 -0.15892953467E+02 -0.37163072014E+03  0.37369019899E+03  0.00000000000E+00 0. -1.
<mgrwt>
<rscale>  1 0.30000000E+03</rscale>
<asrwt>0</asrwt>
<pdfrwt beam="1">  1       21 0.60332425E-02 0.30000000E+03</pdfrwt>
<pdfrwt beam="2">0</pdfrwt>
<totfact> 0.20871808E+04</totfact>
</mgrwt>
</event>
<event>
 6    1  0.1270461E-001  0.3000000E+03  0.7818608E-02  0.1093470E+00
         21   -1    0    0  501  502  0.00000000000E+00  0.00000000000E+00  0.16437080609E+01  0.16437080609E+01  0.00000000000E+00 0. -1.
         13   -1    0    0    0    0 -0.00000000000E+00 -0.00000000000E+00 -0.10000000000E+04  0.10000000000E+04  0.00000000000E+00 0.  1.
    9000005    2    1    2  501    0  0.13230785320E+02 -0.36277858116E+02 -0.65024088460E+03  0.65139312134E+03  0.29417439251E+01 0.  0.
         13    1    3    3    0    0  0.50044381078E+01 -0.10486131881E+02 -0.20841715676E+03  0.20874078325E+03  0.00000000000E+00 0.  1.
          3    1    3    3  501    0  0.82263472124E+01 -0.25791726235E+02 -0.44182372784E+03  0.44265233808E+03  0.00000000000E+00 0.  1.
         -1    1    1    2    0  502 -0.13230785320E+02  0.36277858116E+02 -0.34811540734E+03  0.35025058672E+03  0.00000000000E+00 0. -1.
<mgrwt>
<rscale>  1 0.30000000E+03</rscale>
<asrwt>0</asrwt>
<pdfrwt beam="1">  1       21 0.59771328E-02 0.30000000E+03</pdfrwt>
<pdfrwt beam="2">0</pdfrwt>
<totfact> 0.21210880E+04</totfact>
</mgrwt>
</event>
<event>
 6    1  0.1270461E-001  0.3000000E+03  0.7818608E-02  0.1093470E+00
         21   -1    0    0  501  502  0.00000000000E+00  0.00000000000E+00  0.20826402417E+01  0.20826402417E+01  0.00000000000E+00 0. -1.
         13   -1    0    0    0    0 -0.00000000000E+00 -0.00000000000E+00 -0.10000000000E+04  0.10000000000E+04  0.00000000000E+00 0.  1.
    9000005    2    1    2  501    0  0.29135027295E+02  0.21373385260E+02 -0.80451141152E+03  0.80533017590E+03  0.35227157319E+01 0.  0.
         13    1    3    3    0    0  0.97649775015E+01  0.51553774634E+01 -0.24456282560E+03  0.24481198575E+03  0.00000000000E+00 0.  1.
          3    1    3    3  501    0  0.19370049794E+02  0.16218007797E+02 -0.55994858592E+03  0.56051819015E+03  0.00000000000E+00 0.  1.
         -1    1    1    2    0  502 -0.29135027295E+02 -0.21373385260E+02 -0.19340594823E+03  0.19675246434E+03  0.00000000000E+00 0. -1.
<mgrwt>
<rscale>  1 0.30000000E+03</rscale>
<asrwt>0</asrwt>
<pdfrwt beam="1">  1       21 0.75732532E-02 0.30000000E+03</pdfrwt>
<pdfrwt beam="2">0</pdfrwt>
<totfact> 0.14063040E+04</totfact>
</mgrwt>
</event>
<event>
 6    1  0.1270461E-001  0.3000000E+03  0.7818608E-02  0.1093470E+00
         21   -1    0    0  501  502  0.00000000000E+00  0.00000000000E+00  0.17284165076E+01  0.17284165076E+01  0.00000000000E+00 0. -1.
         13   -1    0    0    0    0 -0.00000000000E+00 -0.00000000000E+00 -0.10000000000E+04  0.10000000000E+04  0.00000000000E+00 0.  1.
    9000005    2    1    2  501    0 -0.39734811043E+01 -0.30757695366E+02 -0.16955915790E+03  0.17243588145E+03  0.46905017054E+01 0.  0.
         13    1    3    3    0    0 -0.47893832753E+01 -0.27775092129E+02 -0.14852127910E+03  0.15117196923E+03  0.00000000000E+00 0.  1.
          3    1    3    3  501    0  0.81590217105E+00 -0.29826032377E+01 -0.21037878800E+02  0.21263912218E+02  0.00000000000E+00 0.  1.
         -3    1    1    2    0  502  0.39734811043E+01  0.30757695366E+02 -0.82871242559E+03  0.82929253506E+03  0.00000000000E+00 0. -1.
<mgrwt>
<rscale>  1 0.30000000E+03</rscale>
<asrwt>0</asrwt>
<pdfrwt beam="1">  1       21 0.62851642E-02 0.30000000E+03</pdfrwt>
<pdfrwt beam="2">0</pdfrwt>
<totfact> 0.19448499E+04</totfact>
</mgrwt>
</event>
<event>
 6    1  0.1270461E-001  0.3000000E+03  0.7818608E-02  0.1093470E+00
         21   -1    0    0  501  502  0.00000000000E+00  0.00000000000E+00  0.23474810659E+01  0.23474810659E+01  0.00000000000E+00 0. -1.
         13   -1    0    0    0    0 -0.00000000000E+00 -0.00000000000E+00 -0.10000000000E+04  0.10000000000E+04  0.00000000000E+00 0.  1.
    9000005    2    1    2  501    0  0.44286633210E+02  0.14903625289E+02 -0.62383486458E+03  0.62562070655E+03  0.69214358994E+01 0.  0.
         13    1    3    3    0    0  0.25889376573E+02  0.53213218179E+01 -0.36547859728E+03  0.36643305167E+03  0.00000000000E+00 0.  1.
          1    1    3    3  501    0  0.18397256637E+02  0.95823034716E+01 -0.25835626730E+03  0.25918765488E+03  0.00000000000E+00 0.  1.
         -3    1    1    2    0  502 -0.44286633210E+02 -0.14903625289E+02 -0.37381765436E+03  0.37672677452E+03  0.00000000000E+00 0. -1.
<mgrwt>
<rscale>  1 0.30000000E+03</rscale>
<asrwt>0</asrwt>
<pdfrwt beam="1">  1       21 0.85363128E-02 0.30000000E+03</pdfrwt>
<pdfrwt beam="2">0</pdfrwt>
<totfact> 0.11395264E+04</totfact>
</mgrwt>
</event>
<event>
 6    1  0.1270461E-001  0.3000000E+03  0.7818608E-02  0.1093470E+00
         21   -1    0    0  501  502  0.00000000000E+00  0.00000000000E+00  0.24668649112E+01  0.24668649112E+01  0.00000000000E+00 0. -1.
         13   -1    0    0    0    0 -0.00000000000E+00 -0.00000000000E+00 -0.10000000000E+04  0.10000000000E+04  0.00000000000E+00 0.  1.
    9000005    2    1    2  501    0  0.31901641762E+02 -0.21380097922E+02 -0.81635113295E+03  0.81725957231E+03  0.30352803113E+01 0.  0.
         13    1    3    3    0    0  0.34304582903E-01 -0.97103843356E-01 -0.79615590820E+01  0.79622251272E+01  0.00000000000E+00 0.  1.
          3    1    3    3  501    0  0.31867337179E+02 -0.21282994079E+02 -0.80838957387E+03  0.80929734718E+03  0.00000000000E+00 0.  1.
         -1    1    1    2    0  502 -0.31901641762E+02  0.21380097922E+02 -0.18118200214E+03  0.18520729260E+03  0.00000000000E+00 0. -1.
<mgrwt>
<rscale>  1 0.30000000E+03</rscale>
<asrwt>0</asrwt>
<pdfrwt beam="1">  1       21 0.89704368E-02 0.30000000E+03</pdfrwt>
<pdfrwt beam="2">0</pdfrwt>
<totfact> 0.10438752E+04</totfact>
</mgrwt>
</event>
<event>
 6    1  0.1270461E-001  0.3000000E+03  0.7818608E-02  0.1093470E+00
         21   -1    0    0  501  502  0.00000000000E+00  0.00000000000E+00  0.10405616576E+01  0.10405616576E+01  0.00000000000E+00 0. -1.
         13   -1    0    0    0    0 -0.00000000000E+00 -0.00000000000E+00 -0.10000000000E+04  0.10000000000E+04  0.00000000000E+00 0.  1.
    9000005    2    1    2  501    0 -0.23819857317E+02 -0.21606443080E+02 -0.48877572296E+03  0.48984427115E+03  0.33880142089E+01 0.  0.
         13    1    3    3    0    0 -0.54817928373E+01 -0.56047251611E+01 -0.14121209020E+03  0.14142954930E+03  0.00000000000E+00 0.  1.
          1    1    3    3  501    0 -0.18338064479E+02 -0.16001717919E+02 -0.34756363276E+03  0.34841472185E+03  0.00000000000E+00 0.  1.
         -3    1    1    2    0  502  0.23819857317E+02  0.21606443080E+02 -0.51018371539E+03  0.51119629051E+03  0.00000000000E+00 0. -1.
<mgrwt>
<rscale>  1 0.30000000E+03</rscale>
<asrwt>0</asrwt>
<pdfrwt beam="1">  1       21 0.37838686E-02 0.30000000E+03</pdfrwt>
<pdfrwt beam="2">0</pdfrwt>
<totfact> 0.46164844E+04</totfact>
</mgrwt>
</event>
<event>
 6    1  0.1270461E-001  0.3000000E+03  0.7818608E-02  0.1093470E+00
         21   -1    0    0  501  502  0.00000000000E+00  0.00000000000E+00  0.16044829709E+01  0.16044829709E+01  0.00000000000E+00 0. -1.
         13   -1    0    0    0    0 -0.00000000000E+00 -0.00000000000E+00 -0.10000000000E+04  0.10000000000E+04  0.00000000000E+00 0.  1.
    9000005    2    1    2  501    0  0.96093517724E+00 -0.32380667366E+02 -0.79254590289E+03  0.79322143506E+03  0.46696718502E+01 0.  0.
         13    1    3    3    0    0  0.70910246551E+00 -0.23387746429E+02 -0.51804898111E+03  0.51857712670E+03  0.00000000000E+00 0.  1.
          3    1    3    3  501    0  0.25183271173E+00 -0.89929209370E+01 -0.27449692178E+03  0.27464430836E+03  0.00000000000E+00 0.  1.
         -1    1    1    2    0  502 -0.96093517724E+00  0.32380667366E+02 -0.20584961414E+03  0.20838304791E+03  0.00000000000E+00 0. -1.
<mgrwt>
<rscale>  1 0.30000000E+03</rscale>
<asrwt>0</asrwt>
<pdfrwt beam="1">  1       21 0.58344958E-02 0.30000000E+03</pdfrwt>
<pdfrwt beam="2">0</pdfrwt>
<totfact> 0.22112540E+04</totfact>
</mgrwt>
</event>
<event>
 6    1  0.1270461E-001  0.3000000E+03  0.7818608E-02  0.1093470E+00
         21   -1    0    0  501  502  0.00000000000E+00  0.00000000000E+00  0.14469307733E+01  0.14469307733E+01  0.00000000000E+00 0. -1.
         13   -1    0    0    0    0 -0.00000000000E+00 -0.00000000000E+00 -0.10000000000E+04  0.10000000000E+04  0.00000000000E+00 0.  1.
    9000005    2    1    2  501    0 -0.26710063181E+02 -0.15620002818E+02 -0.78983022190E+03  0.79044304702E+03  0.33195167175E+01 0.  0.
         13    1    3    3    0    0 -0.96538669652E+01 -0.60037704508E+01 -0.25138086391E+03  0.25163779753E+03  0.00000000000E+00 0.  1.
          1    1    3    3  501    0 -0.17056196215E+02 -0.96162323676E+01 -0.53844935799E+03  0.53880524949E+03  0.00000000000E+00 0.  1.
         -3    1    1    2    0  502  0.26710063181E+02  0.15620002818E+02 -0.20872284733E+03  0.21100388376E+03  0.00000000000E+00 0. -1.
<mgrwt>
<rscale>  1 0.30000000E+03</rscale>
<asrwt>0</asrwt>
<pdfrwt beam="1">  1       21 0.52615775E-02 0.30000000E+03</pdfrwt>
<pdfrwt beam="2">0</pdfrwt>
<totfact> 0.26403322E+04</totfact>
</mgrwt>
</event>
<event>
 6    1  0.1270461E-001  0.3000000E+03  0.7818608E-02  0.1093470E+00
         21   -1    0    0  501  502  0.00000000000E+00  0.00000000000E+00  0.55931364001E+01  0.55931364001E+01  0.00000000000E+00 0. -1.
         13   -1    0    0    0    0 -0.00000000000E+00 -0.00000000000E+00 -0.10000000000E+04  0.10000000000E+04  0.00000000000E+00 0.  1.
    9000005    2    1    2  501    0 -0.38896302890E+02 -0.63757987666E+02 -0.51818925625E+03  0.52355453533E+03  0.33530290580E+01 0.  0.
         13    1    3    3    0    0 -0.29369687782E+02 -0.47508716294E+02 -0.37732717200E+03  0.38143866010E+03  0.00000000000E+00 0.  1.
          3    1    3    3  501    0 -0.95266151074E+01 -0.16249271372E+02 -0.14086208424E+03  0.14211587523E+03  0.00000000000E+00 0.  1.
         -1    1    1    2    0  502  0.38896302890E+02  0.63757987666E+02 -0.47621760735E+03  0.48203860107E+03  0.00000000000E+00 0. -1.
<mgrwt>
<rscale>  1 0.30000000E+03</rscale>
<asrwt>0</asrwt>
<pdfrwt beam="1">  1       21 0.20338721E-01 0.30000000E+03</pdfrwt>
<pdfrwt beam="2">0</pdfrwt>
<totfact> 0.23234631E+03</totfact>
</mgrwt>
</event>
<event>
 6    1  0.1270461E-001  0.3000000E+03  0.7818608E-02  0.1093470E+00
         21   -1    0    0  501  502  0.00000000000E+00  0.00000000000E+00  0.14593804324E+01  0.14593804324E+01  0.00000000000E+00 0. -1.
         13   -1    0    0    0    0 -0.00000000000E+00 -0.00000000000E+00 -0.10000000000E+04  0.10000000000E+04  0.00000000000E+00 0.  1.
    9000005    2    1    2  501    0 -0.10571122143E+02 -0.36624418176E+02 -0.51615386934E+03  0.51756882108E+03  0.30937186245E+01 0.  0.
         13    1    3    3    0    0 -0.10596005402E+02 -0.33906568707E+02 -0.48115565011E+03  0.48246522192E+03  0.00000000000E+00 0.  1.
          3    1    3    3  501    0  0.24883259420E-01 -0.27178494698E+01 -0.34998219229E+02  0.35103599162E+02  0.00000000000E+00 0.  1.
         -1    1    1    2    0  502  0.10571122143E+02  0.36624418176E+02 -0.48238675023E+03  0.48389055935E+03  0.00000000000E+00 0. -1.
<mgrwt>
<rscale>  1 0.30000000E+03</rscale>
<asrwt>0</asrwt>
<pdfrwt beam="1">  1       21 0.53068491E-02 0.30000000E+03</pdfrwt>
<pdfrwt beam="2">0</pdfrwt>
<totfact> 0.26019327E+04</totfact>
</mgrwt>
</event>
<event>
 6    1  0.1270461E-001  0.3000000E+03  0.7818608E-02  0.1093470E+00
         21   -1    0    0  501  502  0.00000000000E+00  0.00000000000E+00  0.16116065428E+01  0.16116065428E+01  0.00000000000E+00 0. -1.
         13   -1    0    0    0    0 -0.00000000000E+00 -0.00000000000E+00 -0.10000000000E+04  0.10000000000E+04  0.00000000000E+00 0.  1.
    9000005    2    1    2  501    0 -0.29288924198E+02 -0.67252920298E+01 -0.83079818262E+03  0.83134842967E+03  0.33942040197E+01 0.  0.
         13    1    3    3    0    0 -0.13351023063E+02 -0.41453295261E+01 -0.42221626508E+03  0.42244763944E+03  0.00000000000E+00 0.  1.
          1    1    3    3  501    0 -0.15937901135E+02 -0.25799625036E+01 -0.40858191755E+03  0.40890079023E+03  0.00000000000E+00 0.  1.
         -1    1    1    2    0  502  0.29288924198E+02  0.67252920298E+01 -0.16759021083E+03  0.17026317688E+03  0.00000000000E+00 0. -1.
<mgrwt>
<rscale>  1 0.30000000E+03</rscale>
<asrwt>0</asrwt>
<pdfrwt beam="1">  1       21 0.58603998E-02 0.30000000E+03</pdfrwt>
<pdfrwt beam="2">0</pdfrwt>
<totfact> 0.21944401E+04</totfact>
</mgrwt>
</event>
<event>
 6    1  0.1270461E-001  0.3000000E+03  0.7818608E-02  0.1093470E+00
         21   -1    0    0  501  502  0.00000000000E+00  0.00000000000E+00  0.12629727759E+01  0.12629727759E+01  0.00000000000E+00 0. -1.
         13   -1    0    0    0    0 -0.00000000000E+00 -0.00000000000E+00 -0.10000000000E+04  0.10000000000E+04  0.00000000000E+00 0.  1.
    9000005    2    1    2  501    0 -0.31722027044E+02  0.15384530601E+02 -0.45130606016E+03  0.45269790418E+03  0.39066265898E+01 0.  0.
         13    1    3    3    0    0 -0.45499160805E+01  0.32947986117E+01 -0.85962988347E+02  0.86146345249E+02  0.00000000000E+00 0.  1.
          1    1    3    3  501    0 -0.27172110964E+02  0.12089731989E+02 -0.36534307181E+03  0.36655155893E+03  0.00000000000E+00 0.  1.
         -3    1    1    2    0  502  0.31722027044E+02 -0.15384530601E+02 -0.54743096707E+03  0.54856506860E+03  0.00000000000E+00 0. -1.
<mgrwt>
<rscale>  1 0.30000000E+03</rscale>
<asrwt>0</asrwt>
<pdfrwt beam="1">  1       21 0.45926380E-02 0.30000000E+03</pdfrwt>
<pdfrwt beam="2">0</pdfrwt>
<totfact> 0.33286240E+04</totfact>
</mgrwt>
</event>
<event>
 6    1  0.1270461E-001  0.3000000E+03  0.7818608E-02  0.1093470E+00
         21   -1    0    0  501  502  0.00000000000E+00  0.00000000000E+00  0.97369572781E+00  0.97369572781E+00  0.00000000000E+00 0. -1.
         13   -1    0    0    0    0 -0.00000000000E+00 -0.00000000000E+00 -0.10000000000E+04  0.10000000000E+04  0.00000000000E+00 0.  1.
    9000005    2    1    2  501    0 -0.27432812965E+02  0.13884897235E+02 -0.44435696864E+03  0.44545283969E+03  0.54559338060E+01 0.  0.
         13    1    3    3    0    0 -0.17232990745E+01  0.15672506343E+00 -0.45267429426E+02  0.45300491049E+02  0.00000000000E+00 0.  1.
          3    1    3    3  501    0 -0.25709513891E+02  0.13728172171E+02 -0.39908953921E+03  0.40015234864E+03  0.00000000000E+00 0.  1.
         -1    1    1    2    0  502  0.27432812965E+02 -0.13884897235E+02 -0.55466933564E+03  0.55552085604E+03  0.00000000000E+00 0. -1.
<mgrwt>
<rscale>  1 0.30000000E+03</rscale>
<asrwt>0</asrwt>
<pdfrwt beam="1">  1       21 0.35407192E-02 0.30000000E+03</pdfrwt>
<pdfrwt beam="2">0</pdfrwt>
<totfact> 0.51607082E+04</totfact>
</mgrwt>
</event>
<event>
 6    1  0.1270461E-001  0.3000000E+03  0.7818608E-02  0.1093470E+00
         21   -1    0    0  501  502  0.00000000000E+00  0.00000000000E+00  0.13113750828E+01  0.13113750828E+01  0.00000000000E+00 0. -1.
         13   -1    0    0    0    0 -0.00000000000E+00 -0.00000000000E+00 -0.10000000000E+04  0.10000000000E+04  0.00000000000E+00 0.  1.
    9000005    2    1    2  501    0 -0.24997206231E+02 -0.25046642946E+02 -0.60170271939E+03  0.60275146261E+03  0.33118750324E+01 0.  0.
         13    1    3    3    0    0 -0.10999455947E+02 -0.12525729172E+02 -0.30450051856E+03  0.30495646857E+03  0.00000000000E+00 0.  1.
          3    1    3    3  501    0 -0.13997750283E+02 -0.12520913774E+02 -0.29720220083E+03  0.29779499403E+03  0.00000000000E+00 0.  1.
         -3    1    1    2    0  502  0.24997206231E+02  0.25046642946E+02 -0.39698590553E+03  0.39855991247E+03  0.00000000000E+00 0. -1.
<mgrwt>
<rscale>  1 0.30000000E+03</rscale>
<asrwt>0</asrwt>
<pdfrwt beam="1">  1       21 0.47686467E-02 0.30000000E+03</pdfrwt>
<pdfrwt beam="2">0</pdfrwt>
<totfact> 0.31224757E+04</totfact>
</mgrwt>
</event>
<event>
 6    1  0.1270461E-001  0.3000000E+03  0.7818608E-02  0.1093470E+00
         21   -1    0    0  501  502  0.00000000000E+00  0.00000000000E+00  0.27865535526E+01  0.27865535526E+01  0.00000000000E+00 0. -1.
         13   -1    0    0    0    0 -0.00000000000E+00 -0.00000000000E+00 -0.10000000000E+04  0.10000000000E+04  0.00000000000E+00 0.  1.
    9000005    2    1    2  501    0 -0.35121033599E+02 -0.15546333814E+02 -0.84219186158E+03  0.84307785851E+03  0.42389042110E+01 0.  0.
         13    1    3    3    0    0 -0.34209800272E+01 -0.29411455488E+01 -0.10628906299E+03  0.10638476560E+03  0.00000000000E+00 0.  1.
          1    1    3    3  501    0 -0.31700053571E+02 -0.12605188265E+02 -0.73590279859E+03  0.73669309291E+03  0.00000000000E+00 0.  1.
         -1    1    1    2    0  502  0.35121033599E+02  0.15546333814E+02 -0.15502158487E+03  0.15970869504E+03  0.00000000000E+00 0. -1.
<mgrwt>
<rscale>  1 0.30000000E+03</rscale>
<asrwt>0</asrwt>
<pdfrwt beam="1">  1       21 0.10132943E-01 0.30000000E+03</pdfrwt>
<pdfrwt beam="2">0</pdfrwt>
<totfact> 0.84024744E+03</totfact>
</mgrwt>
</event>
<event>
 6    1  0.1270461E-001  0.3000000E+03  0.7818608E-02  0.1093470E+00
         21   -1    0    0  501  502  0.00000000000E+00  0.00000000000E+00  0.32457216949E+01  0.32457216949E+01  0.00000000000E+00 0. -1.
         13   -1    0    0    0    0 -0.00000000000E+00 -0.00000000000E+00 -0.10000000000E+04  0.10000000000E+04  0.00000000000E+00 0.  1.
    9000005    2    1    2  501    0  0.53008125670E+02 -0.17374373545E+02 -0.59898455435E+03  0.60158357070E+03  0.29267641456E+01 0.  0.
         13    1    3    3    0    0  0.43136193100E+02 -0.13975762215E+02 -0.49856481786E+03  0.50062254314E+03  0.00000000000E+00 0.  1.
          3    1    3    3  501    0  0.98719325706E+01 -0.33986113297E+01 -0.10041973648E+03  0.10096102756E+03  0.00000000000E+00 0.  1.
         -1    1    1    2    0  502 -0.53008125670E+02  0.17374373545E+02 -0.39776972396E+03  0.40166215100E+03  0.00000000000E+00 0. -1.
<mgrwt>
<rscale>  1 0.30000000E+03</rscale>
<asrwt>0</asrwt>
<pdfrwt beam="1">  1       21 0.11802649E-01 0.30000000E+03</pdfrwt>
<pdfrwt beam="2">0</pdfrwt>
<totfact> 0.63862825E+03</totfact>
</mgrwt>
</event>
<event>
 6    1  0.1270461E-001  0.3000000E+03  0.7818608E-02  0.1093470E+00
         21   -1    0    0  501  502  0.00000000000E+00  0.00000000000E+00  0.14842215539E+01  0.14842215539E+01  0.00000000000E+00 0. -1.
         13   -1    0    0    0    0 -0.00000000000E+00 -0.00000000000E+00 -0.10000000000E+04  0.10000000000E+04  0.00000000000E+00 0.  1.
    9000005    2    1    2  501    0 -0.35677608063E+02  0.14292376648E+02 -0.50676211161E+03  0.50823090672E+03  0.36950013957E+01 0.  0.
         13    1    3    3    0    0 -0.98051898517E+01  0.30366460621E+01 -0.11742204637E+03  0.11786984322E+03  0.00000000000E+00 0.  1.
          1    1    3    3  501    0 -0.25872418211E+02  0.11255730586E+02 -0.38934006524E+03  0.39036106349E+03  0.00000000000E+00 0.  1.
         -3    1    1    2    0  502  0.35677608063E+02 -0.14292376648E+02 -0.49175366684E+03  0.49325331484E+03  0.00000000000E+00 0. -1.
<mgrwt>
<rscale>  1 0.30000000E+03</rscale>
<asrwt>0</asrwt>
<pdfrwt beam="1">  1       21 0.53971807E-02 0.30000000E+03</pdfrwt>
<pdfrwt beam="2">0</pdfrwt>
<totfact> 0.25278487E+04</totfact>
</mgrwt>
</event>
<event>
 6    1  0.1270461E-001  0.3000000E+03  0.7818608E-02  0.1093470E+00
         21   -1    0    0  501  502  0.00000000000E+00  0.00000000000E+00  0.12476571620E+01  0.12476571620E+01  0.00000000000E+00 0. -1.
         13   -1    0    0    0    0 -0.00000000000E+00 -0.00000000000E+00 -0.10000000000E+04  0.10000000000E+04  0.00000000000E+00 0.  1.
    9000005    2    1    2  501    0  0.19182260832E+02 -0.27719206297E+02 -0.64696523688E+03  0.64784918313E+03  0.28692900582E+01 0.  0.
         13    1    3    3    0    0  0.14953709059E+02 -0.21146705722E+02 -0.47314294328E+03  0.47385128612E+03  0.00000000000E+00 0.  1.
          1    1    3    3  501    0  0.42285517731E+01 -0.65725005754E+01 -0.17382229359E+03  0.17399789701E+03  0.00000000000E+00 0.  1.
         -3    1    1    2    0  502 -0.19182260832E+02  0.27719206297E+02 -0.35178710596E+03  0.35339847403E+03  0.00000000000E+00 0. -1.
<mgrwt>
<rscale>  1 0.30000000E+03</rscale>
<asrwt>0</asrwt>
<pdfrwt beam="1">  1       21 0.45369447E-02 0.30000000E+03</pdfrwt>
<pdfrwt beam="2">0</pdfrwt>
<totfact> 0.33983241E+04</totfact>
</mgrwt>
</event>
<event>
 6    1  0.1270461E-001  0.3000000E+03  0.7818608E-02  0.1093470E+00
         21   -1    0    0  501  502  0.00000000000E+00  0.00000000000E+00  0.18045237600E+01  0.18045237600E+01  0.00000000000E+00 0. -1.
         13   -1    0    0    0    0 -0.00000000000E+00 -0.00000000000E+00 -0.10000000000E+04  0.10000000000E+04  0.00000000000E+00 0.  1.
    9000005    2    1    2  501    0  0.31799957478E+02 -0.26801152259E+02 -0.59673018382E+03  0.59819094610E+03  0.39945775303E+01 0.  0.
         13    1    3    3    0    0  0.36638924992E+01 -0.49268085934E+01 -0.88719289890E+02  0.88931490203E+02  0.00000000000E+00 0.  1.
          3    1    3    3  501    0  0.28136064979E+02 -0.21874343666E+02 -0.50801089393E+03  0.50925945589E+03  0.00000000000E+00 0.  1.
         -1    1    1    2    0  502 -0.31799957478E+02  0.26801152259E+02 -0.40146529242E+03  0.40361357766E+03  0.00000000000E+00 0. -1.
<mgrwt>
<rscale>  1 0.30000000E+03</rscale>
<asrwt>0</asrwt>
<pdfrwt beam="1">  1       21 0.65619184E-02 0.30000000E+03</pdfrwt>
<pdfrwt beam="2">0</pdfrwt>
<totfact> 0.18051203E+04</totfact>
</mgrwt>
</event>
<event>
 6    1  0.1270461E-001  0.3000000E+03  0.7818608E-02  0.1093470E+00
         21   -1    0    0  501  502  0.00000000000E+00  0.00000000000E+00  0.21326386950E+01  0.21326386950E+01  0.00000000000E+00 0. -1.
         13   -1    0    0    0    0 -0.00000000000E+00 -0.00000000000E+00 -0.10000000000E+04  0.10000000000E+04  0.00000000000E+00 0.  1.
    9000005    2    1    2  501    0 -0.59305683733E+01  0.31067857383E+02 -0.86382869423E+03  0.86441282285E+03  0.30219097620E+01 0.  0.
         13    1    3    3    0    0 -0.25659615171E+01  0.10716603343E+02 -0.26519195449E+03  0.26542080264E+03  0.00000000000E+00 0.  1.
          3    1    3    3  501    0 -0.33646068562E+01  0.20351254040E+02 -0.59863673974E+03  0.59899202022E+03  0.00000000000E+00 0.  1.
         -3    1    1    2    0  502  0.59305683733E+01 -0.31067857383E+02 -0.13403866708E+03  0.13771981584E+03  0.00000000000E+00 0. -1.
<mgrwt>
<rscale>  1 0.30000000E+03</rscale>
<asrwt>0</asrwt>
<pdfrwt beam="1">  1       21 0.77550662E-02 0.30000000E+03</pdfrwt>
<pdfrwt beam="2">0</pdfrwt>
<totfact> 0.13490327E+04</totfact>
</mgrwt>
</event>
<event>
 6    1  0.1270461E-001  0.3000000E+03  0.7818608E-02  0.1093470E+00
         21   -1    0    0  501  502  0.00000000000E+00  0.00000000000E+00  0.13403518357E+01  0.13403518357E+01  0.00000000000E+00 0. -1.
         13   -1    0    0    0    0 -0.00000000000E+00 -0.00000000000E+00 -0.10000000000E+04  0.10000000000E+04  0.00000000000E+00 0.  1.
    9000005    2    1    2  501    0  0.19246881302E+02  0.26436480363E+02 -0.72320682201E+03  0.72395327685E+03  0.33029869933E+01 0.  0.
         13    1    3    3    0    0  0.11563283855E+02  0.15058190720E+02 -0.38488392620E+03  0.38535191097E+03  0.00000000000E+00 0.  1.
          3    1    3    3  501    0  0.76835974475E+01  0.11378289643E+02 -0.33832289581E+03  0.33860136588E+03  0.00000000000E+00 0.  1.
         -1    1    1    2    0  502 -0.19246881302E+02 -0.26436480363E+02 -0.27545282615E+03  0.27738707499E+03  0.00000000000E+00 0. -1.
<mgrwt>
<rscale>  1 0.30000000E+03</rscale>
<asrwt>0</asrwt>
<pdfrwt beam="1">  1       21 0.48740170E-02 0.30000000E+03</pdfrwt>
<pdfrwt beam="2">0</pdfrwt>
<totfact> 0.30084629E+04</totfact>
</mgrwt>
</event>
<event>
 6    1  0.1270461E-001  0.3000000E+03  0.7818608E-02  0.1093470E+00
         21   -1    0    0  501  502  0.00000000000E+00  0.00000000000E+00  0.68175257585E+01  0.68175257585E+01  0.00000000000E+00 0. -1.
         13   -1    0    0    0    0 -0.00000000000E+00 -0.00000000000E+00 -0.10000000000E+04  0.10000000000E+04  0.00000000000E+00 0.  1.
    9000005    2    1    2  501    0 -0.74443607141E+01  0.37504238123E+02 -0.94266165466E+03  0.94345870953E+03  0.64307871214E+01 0.  0.
         13    1    3    3    0    0 -0.21243697503E+01  0.21624770747E+01 -0.76067745761E+02  0.76128123575E+02  0.00000000000E+00 0.  1.
          1    1    3    3  501    0 -0.53199909638E+01  0.35341761048E+02 -0.86659390890E+03  0.86733058595E+03  0.00000000000E+00 0.  1.
         -3    1    1    2    0  502  0.74443607141E+01 -0.37504238123E+02 -0.50520819577E+02  0.63358816232E+02  0.00000000000E+00 0. -1.
<mgrwt>
<rscale>  1 0.30000000E+03</rscale>
<asrwt>0</asrwt>
<pdfrwt beam="1">  1       21 0.24791055E-01 0.30000000E+03</pdfrwt>
<pdfrwt beam="2">0</pdfrwt>
<totfact> 0.15854122E+03</totfact>
</mgrwt>
</event>
<event>
 6    1  0.1270461E-001  0.3000000E+03  0.7818608E-02  0.1093470E+00
         21   -1    0    0  501  502  0.00000000000E+00  0.00000000000E+00  0.19649875062E+01  0.19649875062E+01  0.00000000000E+00 0. -1.
         13   -1    0    0    0    0 -0.00000000000E+00 -0.00000000000E+00 -0.10000000000E+04  0.10000000000E+04  0.00000000000E+00 0.  1.
    9000005    2    1    2  501    0 -0.57620926341E+01  0.29461373290E+02 -0.86742605664E+03  0.86795053464E+03  0.29987693326E+01 0.  0.
         13    1    3    3    0    0 -0.18966830870E+01  0.10034262795E+02 -0.33729590155E+03  0.33745045419E+03  0.00000000000E+00 0.  1.
          1    1    3    3  501    0 -0.38654095471E+01  0.19427110494E+02 -0.53013015509E+03  0.53050008044E+03  0.00000000000E+00 0.  1.
         -3    1    1    2    0  502  0.57620926341E+01 -0.29461373290E+02 -0.13060895586E+03  0.13401445287E+03  0.00000000000E+00 0. -1.
<mgrwt>
<rscale>  1 0.30000000E+03</rscale>
<asrwt>0</asrwt>
<pdfrwt beam="1">  1       21 0.71454242E-02 0.30000000E+03</pdfrwt>
<pdfrwt beam="2">0</pdfrwt>
<totfact> 0.15567622E+04</totfact>
</mgrwt>
</event>
<event>
 6    1  0.1270461E-001  0.3000000E+03  0.7818608E-02  0.1093470E+00
         21   -1    0    0  501  502  0.00000000000E+00  0.00000000000E+00  0.62631125165E+01  0.62631125165E+01  0.00000000000E+00 0. -1.
         13   -1    0    0    0    0 -0.00000000000E+00 -0.00000000000E+00 -0.10000000000E+04  0.10000000000E+04  0.00000000000E+00 0.  1.
    9000005    2    1    2  501    0 -0.27988248251E+02  0.56111342185E+02 -0.80363222070E+03  0.80608416983E+03  0.38881797928E+01 0.  0.
         13    1    3    3    0    0 -0.15791744883E+02  0.29718052606E+02 -0.45330692749E+03  0.45455441079E+03  0.00000000000E+00 0.  1.
          3    1    3    3  501    0 -0.12196503368E+02  0.26393289580E+02 -0.35032529321E+03  0.35152975904E+03  0.00000000000E+00 0.  1.
         -3    1    1    2    0  502  0.27988248251E+02 -0.56111342185E+02 -0.19010466678E+03  0.20017894268E+03  0.00000000000E+00 0. -1.
<mgrwt>
<rscale>  1 0.30000000E+03</rscale>
<asrwt>0</asrwt>
<pdfrwt beam="1">  1       21 0.22775003E-01 0.30000000E+03</pdfrwt>
<pdfrwt beam="2">0</pdfrwt>
<totfact> 0.18694815E+03</totfact>
</mgrwt>
</event>
<event>
 6    1  0.1270461E-001  0.3000000E+03  0.7818608E-02  0.1093470E+00
         21   -1    0    0  501  502  0.00000000000E+00  0.00000000000E+00  0.17445897988E+01  0.17445897988E+01  0.00000000000E+00 0. -1.
         13   -1    0    0    0    0 -0.00000000000E+00 -0.00000000000E+00 -0.10000000000E+04  0.10000000000E+04  0.00000000000E+00 0.  1.
    9000005    2    1    2  501    0  0.36918002110E+02  0.13806585736E+02 -0.66354489676E+03  0.66472131390E+03  0.30057357260E+01 0.  0.
         13    1    3    3    0    0  0.26650394662E+02  0.10838452336E+02 -0.46547740093E+03  0.46636565736E+03  0.00000000000E+00 0.  1.
          1    1    3    3  501    0  0.10267607447E+02  0.29681334004E+01 -0.19806749583E+03  0.19835565654E+03  0.00000000000E+00 0.  1.
         -3    1    1    2    0  502 -0.36918002110E+02 -0.13806585736E+02 -0.33471051344E+03  0.33702327589E+03  0.00000000000E+00 0. -1.
<mgrwt>
<rscale>  1 0.30000000E+03</rscale>
<asrwt>0</asrwt>
<pdfrwt beam="1">  1       21 0.63439763E-02 0.30000000E+03</pdfrwt>
<pdfrwt beam="2">0</pdfrwt>
<totfact> 0.19137883E+04</totfact>
</mgrwt>
</event>
<event>
 6    1  0.1270461E-001  0.3000000E+03  0.7818608E-02  0.1093470E+00
         21   -1    0    0  501  502  0.00000000000E+00  0.00000000000E+00  0.16707180840E+01  0.16707180840E+01  0.00000000000E+00 0. -1.
         13   -1    0    0    0    0 -0.00000000000E+00 -0.00000000000E+00 -0.10000000000E+04  0.10000000000E+04  0.00000000000E+00 0.  1.
    9000005    2    1    2  501    0  0.84329176887E+01 -0.33060721025E+02 -0.77446257736E+03  0.77521889808E+03  0.28161729380E+01 0.  0.
         13    1    3    3    0    0  0.19026019869E+00 -0.97510377663E+00 -0.35901693837E+02  0.35915437442E+02  0.00000000000E+00 0.  1.
          1    1    3    3  501    0  0.82426574900E+01 -0.32085617249E+02 -0.73856088353E+03  0.73930346064E+03  0.00000000000E+00 0.  1.
         -1    1    1    2    0  502 -0.84329176887E+01  0.33060721025E+02 -0.22386670455E+03  0.22645182000E+03  0.00000000000E+00 0. -1.
<mgrwt>
<rscale>  1 0.30000000E+03</rscale>
<asrwt>0</asrwt>
<pdfrwt beam="1">  1       21 0.60753513E-02 0.30000000E+03</pdfrwt>
<pdfrwt beam="2">0</pdfrwt>
<totfact> 0.20622851E+04</totfact>
</mgrwt>
</event>
<event>
 6    1  0.1270461E-001  0.3000000E+03  0.7818608E-02  0.1093470E+00
         21   -1    0    0  501  502  0.00000000000E+00  0.00000000000E+00  0.30151695245E+01  0.30151695245E+01  0.00000000000E+00 0. -1.
         13   -1    0    0    0    0 -0.00000000000E+00 -0.00000000000E+00 -0.10000000000E+04  0.10000000000E+04  0.00000000000E+00 0.  1.
    9000005    2    1    2  501    0  0.11487108569E+02  0.33672545220E+02 -0.87954744139E+03  0.88030683924E+03  0.84044988291E+01 0.  0.
         13    1    3    3    0    0  0.10768762238E+02  0.28198864137E+02 -0.65986136376E+03  0.66055140720E+03  0.00000000000E+00 0.  1.
          3    1    3    3  501    0  0.71834633149E+00  0.54736810824E+01 -0.21968607763E+03  0.21975543204E+03  0.00000000000E+00 0.  1.
         -3    1    1    2    0  502 -0.11487108569E+02 -0.33672545220E+02 -0.11743738909E+03  0.12270833028E+03  0.00000000000E+00 0. -1.
<mgrwt>
<rscale>  1 0.30000000E+03</rscale>
<asrwt>0</asrwt>
<pdfrwt beam="1">  1       21 0.10964276E-01 0.30000000E+03</pdfrwt>
<pdfrwt beam="2">0</pdfrwt>
<totfact> 0.72945833E+03</totfact>
</mgrwt>
</event>
<event>
 6    1  0.1270461E-001  0.3000000E+03  0.7818608E-02  0.1093470E+00
         21   -1    0    0  501  502  0.00000000000E+00  0.00000000000E+00  0.10620904955E+01  0.10620904955E+01  0.00000000000E+00 0. -1.
         13   -1    0    0    0    0 -0.00000000000E+00 -0.00000000000E+00 -0.10000000000E+04  0.10000000000E+04  0.00000000000E+00 0.  1.
    9000005    2    1    2  501    0  0.11615803997E+02  0.29207335930E+02 -0.62838270979E+03  0.62917615179E+03  0.31312358816E+01 0.  0.
         13    1    3    3    0    0  0.12424153422E+01  0.12251298060E+01 -0.34633162338E+02  0.34677088581E+02  0.00000000000E+00 0.  1.
          1    1    3    3  501    0  0.10373388655E+02  0.27982206124E+02 -0.59374954746E+03  0.59449906321E+03  0.00000000000E+00 0.  1.
         -1    1    1    2    0  502 -0.11615803997E+02 -0.29207335930E+02 -0.37055519971E+03  0.37188593871E+03  0.00000000000E+00 0. -1.
<mgrwt>
<rscale>  1 0.30000000E+03</rscale>
<asrwt>0</asrwt>
<pdfrwt beam="1">  1       21 0.38621554E-02 0.30000000E+03</pdfrwt>
<pdfrwt beam="2">0</pdfrwt>
<totfact> 0.44603097E+04</totfact>
</mgrwt>
</event>
<event>
 6    1  0.1270461E-001  0.3000000E+03  0.7818608E-02  0.1093470E+00
         21   -1    0    0  501  502  0.00000000000E+00  0.00000000000E+00  0.53597194615E+01  0.53597194615E+01  0.00000000000E+00 0. -1.
         13   -1    0    0    0    0 -0.00000000000E+00 -0.00000000000E+00 -0.10000000000E+04  0.10000000000E+04  0.00000000000E+00 0.  1.
    9000005    2    1    2  501    0 -0.33482140582E+02  0.16327490500E+02 -0.92991221830E+03  0.93067797655E+03  0.60927494999E+01 0.  0.
         13    1    3    3    0    0 -0.12111413434E+02  0.62772816297E+01 -0.41565343207E+03  0.41587722490E+03  0.00000000000E+00 0.  1.
          3    1    3    3  501    0 -0.21370727148E+02  0.10050208870E+02 -0.51425878624E+03  0.51480075165E+03  0.00000000000E+00 0.  1.
         -1    1    1    2    0  502  0.33482140582E+02 -0.16327490500E+02 -0.64728062236E+02  0.74681742915E+02  0.00000000000E+00 0. -1.
<mgrwt>
<rscale>  1 0.30000000E+03</rscale>
<asrwt>0</asrwt>
<pdfrwt beam="1">  1       21 0.19489930E-01 0.30000000E+03</pdfrwt>
<pdfrwt beam="2">0</pdfrwt>
<totfact> 0.25202769E+03</totfact>
</mgrwt>
</event>
<event>
 6    1  0.1270461E-001  0.3000000E+03  0.7818608E-02  0.1093470E+00
         21   -1    0    0  501  502  0.00000000000E+00  0.00000000000E+00  0.17061877909E+01  0.17061877909E+01  0.00000000000E+00 0. -1.
         13   -1    0    0    0    0 -0.00000000000E+00 -0.00000000000E+00 -0.10000000000E+04  0.10000000000E+04  0.00000000000E+00 0.  1.
    9000005    2    1    2  501    0 -0.31163032902E+02 -0.30231739874E+01 -0.82538551294E+03  0.82598608605E+03  0.33904530751E+01 0.  0.
         13    1    3    3    0    0 -0.13444295495E+02  0.16705061259E+00 -0.33159595357E+03  0.33186842787E+03  0.00000000000E+00 0.  1.
          1    1    3    3  501    0 -0.17718737407E+02 -0.31902246000E+01 -0.49378955936E+03  0.49411765818E+03  0.00000000000E+00 0.  1.
         -1    1    1    2    0  502  0.31163032902E+02  0.30231739874E+01 -0.17290829927E+03  0.17572010174E+03  0.00000000000E+00 0. -1.
<mgrwt>
<rscale>  1 0.30000000E+03</rscale>
<asrwt>0</asrwt>
<pdfrwt beam="1">  1       21 0.62043323E-02 0.30000000E+03</pdfrwt>
<pdfrwt beam="2">0</pdfrwt>
<totfact> 0.19888333E+04</totfact>
</mgrwt>
</event>
<event>
 6    1  0.1270461E-001  0.3000000E+03  0.7818608E-02  0.1093470E+00
         21   -1    0    0  501  502  0.00000000000E+00  0.00000000000E+00  0.13247313750E+01  0.13247313750E+01  0.00000000000E+00 0. -1.
         13   -1    0    0    0    0 -0.00000000000E+00 -0.00000000000E+00 -0.10000000000E+04  0.10000000000E+04  0.00000000000E+00 0.  1.
    9000005    2    1    2  501    0  0.20577362873E+02  0.28747460976E+02 -0.61455300586E+03  0.61557901575E+03  0.35047451076E+01 0.  0.
         13    1    3    3    0    0  0.13499284302E+02  0.20775744509E+02 -0.44910996173E+03  0.44979286339E+03  0.00000000000E+00 0.  1.
          1    1    3    3  501    0  0.70780785709E+01  0.79717164672E+01 -0.16544304413E+03  0.16578615235E+03  0.00000000000E+00 0.  1.
         -1    1    1    2    0  502 -0.20577362873E+02 -0.28747460976E+02 -0.38412226276E+03  0.38574571563E+03  0.00000000000E+00 0. -1.
<mgrwt>
<rscale>  1 0.30000000E+03</rscale>
<asrwt>0</asrwt>
<pdfrwt beam="1">  1       21 0.48172152E-02 0.30000000E+03</pdfrwt>
<pdfrwt beam="2">0</pdfrwt>
<totfact> 0.30690992E+04</totfact>
</mgrwt>
</event>
<event>
 6    1  0.1270461E-001  0.3000000E+03  0.7818608E-02  0.1093470E+00
         21   -1    0    0  501  502  0.00000000000E+00  0.00000000000E+00  0.18585207466E+01  0.18585207466E+01  0.00000000000E+00 0. -1.
         13   -1    0    0    0    0 -0.00000000000E+00 -0.00000000000E+00 -0.10000000000E+04  0.10000000000E+04  0.00000000000E+00 0.  1.
    9000005    2    1    2  501    0  0.28780070079E+02 -0.12809350195E+02 -0.84008364865E+03  0.84069199289E+03  0.54880137324E+01 0.  0.
         13    1    3    3    0    0  0.21399922796E+02 -0.11938351240E+02 -0.62619157805E+03  0.62667086525E+03  0.00000000000E+00 0.  1.
          1    1    3    3  501    0  0.73801472825E+01 -0.87099895488E+00 -0.21389207060E+03  0.21402112765E+03  0.00000000000E+00 0.  1.
         -3    1    1    2    0  502 -0.28780070079E+02  0.12809350195E+02 -0.15805783060E+03  0.16116652785E+03  0.00000000000E+00 0. -1.
<mgrwt>
<rscale>  1 0.30000000E+03</rscale>
<asrwt>0</asrwt>
<pdfrwt beam="1">  1       21 0.67582715E-02 0.30000000E+03</pdfrwt>
<pdfrwt beam="2">0</pdfrwt>
<totfact> 0.17151510E+04</totfact>
</mgrwt>
</event>
<event>
 6    1  0.1270461E-001  0.3000000E+03  0.7818608E-02  0.1093470E+00
         21   -1    0    0  501  502  0.00000000000E+00  0.00000000000E+00  0.21640974575E+01  0.21640974575E+01  0.00000000000E+00 0. -1.
         13   -1    0    0    0    0 -0.00000000000E+00 -0.00000000000E+00 -0.10000000000E+04  0.10000000000E+04  0.00000000000E+00 0.  1.
    9000005    2    1    2  501    0  0.18850622553E+02  0.23546996937E+02 -0.11894027500E+03  0.12275103686E+03  0.33497757877E+01 0.  0.
         13    1    3    3    0    0  0.17241600751E+02  0.22180958159E+02 -0.11322896455E+03  0.11666218803E+03  0.00000000000E+00 0.  1.
          3    1    3    3  501    0  0.16090218021E+01  0.13660387778E+01 -0.57113104439E+01  0.60888488312E+01  0.00000000000E+00 0.  1.
         -3    1    1    2    0  502 -0.18850622553E+02 -0.23546996937E+02 -0.87889562754E+03  0.87941306060E+03  0.00000000000E+00 0. -1.
<mgrwt>
<rscale>  1 0.30000000E+03</rscale>
<asrwt>0</asrwt>
<pdfrwt beam="1">  1       21 0.78694619E-02 0.30000000E+03</pdfrwt>
<pdfrwt beam="2">0</pdfrwt>
<totfact> 0.13148207E+04</totfact>
</mgrwt>
</event>
<event>
 6    1  0.1270461E-001  0.3000000E+03  0.7818608E-02  0.1093470E+00
         21   -1    0    0  501  502  0.00000000000E+00  0.00000000000E+00  0.34685033160E+01  0.34685033160E+01  0.00000000000E+00 0. -1.
         13   -1    0    0    0    0 -0.00000000000E+00 -0.00000000000E+00 -0.10000000000E+04  0.10000000000E+04  0.00000000000E+00 0.  1.
    9000005    2    1    2  501    0  0.27378215166E+02 -0.31539826933E+02 -0.85185491473E+03  0.85288417241E+03  0.32075612052E+01 0.  0.
         13    1    3    3    0    0  0.95008703439E+01 -0.10029323710E+02 -0.31055232764E+03  0.31085945711E+03  0.00000000000E+00 0.  1.
          1    1    3    3  501    0  0.17877344822E+02 -0.21510503223E+02 -0.54130258708E+03  0.54202471529E+03  0.00000000000E+00 0.  1.
         -1    1    1    2    0  502 -0.27378215166E+02  0.31539826933E+02 -0.14467658196E+03  0.15058433091E+03  0.00000000000E+00 0. -1.
<mgrwt>
<rscale>  1 0.30000000E+03</rscale>
<asrwt>0</asrwt>
<pdfrwt beam="1">  1       21 0.12612766E-01 0.30000000E+03</pdfrwt>
<pdfrwt beam="2">0</pdfrwt>
<totfact> 0.56603179E+03</totfact>
</mgrwt>
</event>
<event>
 6    1  0.1270461E-001  0.3000000E+03  0.7818608E-02  0.1093470E+00
         21   -1    0    0  501  502  0.00000000000E+00  0.00000000000E+00  0.11213590473E+01  0.11213590473E+01  0.00000000000E+00 0. -1.
         13   -1    0    0    0    0 -0.00000000000E+00 -0.00000000000E+00 -0.10000000000E+04  0.10000000000E+04  0.00000000000E+00 0.  1.
    9000005    2    1    2  501    0  0.22867174259E+02 -0.19593890838E+02 -0.71213070883E+03  0.71279653391E+03  0.64748800277E+01 0.  0.
         13    1    3    3    0    0  0.20341412497E+02 -0.14563367874E+02 -0.60685509365E+03  0.60737053718E+03  0.00000000000E+00 0.  1.
          1    1    3    3  501    0  0.25257617619E+01 -0.50305229637E+01 -0.10527561518E+03  0.10542599672E+03  0.00000000000E+00 0.  1.
         -1    1    1    2    0  502 -0.22867174259E+02  0.19593890838E+02 -0.28674793212E+03  0.28832482514E+03  0.00000000000E+00 0. -1.
<mgrwt>
<rscale>  1 0.30000000E+03</rscale>
<asrwt>0</asrwt>
<pdfrwt beam="1">  1       21 0.40776779E-02 0.30000000E+03</pdfrwt>
<pdfrwt beam="2">0</pdfrwt>
<totfact> 0.40706593E+04</totfact>
</mgrwt>
</event>
<event>
 6    1  0.1270461E-001  0.3000000E+03  0.7818608E-02  0.1093470E+00
         21   -1    0    0  501  502  0.00000000000E+00  0.00000000000E+00  0.32196610046E+01  0.32196610046E+01  0.00000000000E+00 0. -1.
         13   -1    0    0    0    0 -0.00000000000E+00 -0.00000000000E+00 -0.10000000000E+04  0.10000000000E+04  0.00000000000E+00 0.  1.
    9000005    2    1    2  501    0  0.53725951095E+01 -0.33319165831E+02 -0.90154710872E+03  0.90218303528E+03  0.28298955167E+01 0.  0.
         13    1    3    3    0    0  0.69444685577E+00 -0.10907034478E+01 -0.30709669891E+02  0.30736878749E+02  0.00000000000E+00 0.  1.
          3    1    3    3  501    0  0.46781482537E+01 -0.32228462383E+02 -0.87083743883E+03  0.87144615653E+03  0.00000000000E+00 0.  1.
         -1    1    1    2    0  502 -0.53725951095E+01  0.33319165831E+02 -0.95233230273E+02  0.10103662573E+03  0.00000000000E+00 0. -1.
<mgrwt>
<rscale>  1 0.30000000E+03</rscale>
<asrwt>0</asrwt>
<pdfrwt beam="1">  1       21 0.11707883E-01 0.30000000E+03</pdfrwt>
<pdfrwt beam="2">0</pdfrwt>
<totfact> 0.64801895E+03</totfact>
</mgrwt>
</event>
<event>
 6    1  0.1270461E-001  0.3000000E+03  0.7818608E-02  0.1093470E+00
         21   -1    0    0  501  502  0.00000000000E+00  0.00000000000E+00  0.10807867830E+01  0.10807867830E+01  0.00000000000E+00 0. -1.
         13   -1    0    0    0    0 -0.00000000000E+00 -0.00000000000E+00 -0.10000000000E+04  0.10000000000E+04  0.00000000000E+00 0.  1.
    9000005    2    1    2  501    0  0.32056799854E+02 -0.62967425975E+01 -0.45663140952E+03  0.45780981441E+03  0.32085239596E+01 0.  0.
         13    1    3    3    0    0  0.26056938482E+02 -0.53610307207E+01 -0.35331314331E+03  0.35431325396E+03  0.00000000000E+00 0.  1.
          1    1    3    3  501    0  0.59998613721E+01 -0.93571187685E+00 -0.10331826620E+03  0.10349656045E+03  0.00000000000E+00 0.  1.
         -3    1    1    2    0  502 -0.32056799854E+02  0.62967425975E+01 -0.54228780370E+03  0.54327097238E+03  0.00000000000E+00 0. -1.
<mgrwt>
<rscale>  1 0.30000000E+03</rscale>
<asrwt>0</asrwt>
<pdfrwt beam="1">  1       21 0.39301420E-02 0.30000000E+03</pdfrwt>
<pdfrwt beam="2">0</pdfrwt>
<totfact> 0.43313029E+04</totfact>
</mgrwt>
</event>
<event>
 6    1  0.1270461E-001  0.3000000E+03  0.7818608E-02  0.1093470E+00
         21   -1    0    0  501  502  0.00000000000E+00  0.00000000000E+00  0.13494625204E+01  0.13494625204E+01  0.00000000000E+00 0. -1.
         13   -1    0    0    0    0 -0.00000000000E+00 -0.00000000000E+00 -0.10000000000E+04  0.10000000000E+04  0.00000000000E+00 0.  1.
    9000005    2    1    2  501    0 -0.51068892271E+01  0.29670721850E+02 -0.78562278734E+03  0.78620473360E+03  0.28787314200E+01 0.  0.
         13    1    3    3    0    0 -0.44987863704E+01  0.25743825327E+02 -0.70473041689E+03  0.70521482125E+03  0.00000000000E+00 0.  1.
          3    1    3    3  501    0 -0.60810285672E+00  0.39268965228E+01 -0.80892370456E+02  0.80989912355E+02  0.00000000000E+00 0.  1.
         -1    1    1    2    0  502  0.51068892271E+01 -0.29670721850E+02 -0.21302775014E+03  0.21514472892E+03  0.00000000000E+00 0. -1.
<mgrwt>
<rscale>  1 0.30000000E+03</rscale>
<asrwt>0</asrwt>
<pdfrwt beam="1">  1       21 0.49071468E-02 0.30000000E+03</pdfrwt>
<pdfrwt beam="2">0</pdfrwt>
<totfact> 0.29739560E+04</totfact>
</mgrwt>
</event>
<event>
 6    1  0.1270461E-001  0.3000000E+03  0.7818608E-02  0.1093470E+00
         21   -1    0    0  501  502  0.00000000000E+00  0.00000000000E+00  0.13646140892E+01  0.13646140892E+01  0.00000000000E+00 0. -1.
         13   -1    0    0    0    0 -0.00000000000E+00 -0.00000000000E+00 -0.10000000000E+04  0.10000000000E+04  0.00000000000E+00 0.  1.
    9000005    2    1    2  501    0 -0.15120976754E+02  0.28114926863E+02 -0.75044276562E+03  0.75112738700E+03  0.29856308681E+01 0.  0.
         13    1    3    3    0    0 -0.11293957367E+02  0.22259142906E+02 -0.61011637833E+03  0.61062674198E+03  0.00000000000E+00 0.  1.
          1    1    3    3  501    0 -0.38270193864E+01  0.58557839570E+01 -0.14032638729E+03  0.14050064503E+03  0.00000000000E+00 0.  1.
         -1    1    1    2    0  502  0.15120976754E+02 -0.28114926863E+02 -0.24819262030E+03  0.25023722709E+03  0.00000000000E+00 0. -1.
<mgrwt>
<rscale>  1 0.30000000E+03</rscale>
<asrwt>0</asrwt>
<pdfrwt beam="1">  1       21 0.49622435E-02 0.30000000E+03</pdfrwt>
<pdfrwt beam="2">0</pdfrwt>
<totfact> 0.29179207E+04</totfact>
</mgrwt>
</event>
<event>
 6    1  0.1270461E-001  0.3000000E+03  0.7818608E-02  0.1093470E+00
         21   -1    0    0  501  502  0.00000000000E+00  0.00000000000E+00  0.21630275089E+01  0.21630275089E+01  0.00000000000E+00 0. -1.
         13   -1    0    0    0    0 -0.00000000000E+00 -0.00000000000E+00 -0.10000000000E+04  0.10000000000E+04  0.00000000000E+00 0.  1.
    9000005    2    1    2  501    0  0.77807442783E+01 -0.41516725324E+02 -0.70753352892E+03  0.70880272377E+03  0.36644519616E+01 0.  0.
         13    1    3    3    0    0  0.23822997567E+01 -0.19761532751E+02 -0.31132796096E+03  0.31196360815E+03  0.00000000000E+00 0.  1.
          3    1    3    3  501    0  0.53984445216E+01 -0.21755192573E+02 -0.39620556796E+03  0.39683911562E+03  0.00000000000E+00 0.  1.
         -1    1    1    2    0  502 -0.77807442783E+01  0.41516725324E+02 -0.29030344357E+03  0.29336030374E+03  0.00000000000E+00 0. -1.
<mgrwt>
<rscale>  1 0.30000000E+03</rscale>
<asrwt>0</asrwt>
<pdfrwt beam="1">  1       21 0.78655712E-02 0.30000000E+03</pdfrwt>
<pdfrwt beam="2">0</pdfrwt>
<totfact> 0.13159622E+04</totfact>
</mgrwt>
</event>
<event>
 6    1  0.1270461E-001  0.3000000E+03  0.7818608E-02  0.1093470E+00
         21   -1    0    0  501  502  0.00000000000E+00  0.00000000000E+00  0.12540519877E+01  0.12540519877E+01  0.00000000000E+00 0. -1.
         13   -1    0    0    0    0 -0.00000000000E+00 -0.00000000000E+00 -0.10000000000E+04  0.10000000000E+04  0.00000000000E+00 0.  1.
    9000005    2    1    2  501    0 -0.11272061450E+02  0.31416457053E+02 -0.65368550796E+03  0.65458308345E+03  0.77599400071E+01 0.  0.
         13    1    3    3    0    0 -0.75986155781E+01  0.10322154702E+02 -0.25996664558E+03  0.26028242862E+03  0.00000000000E+00 0.  1.
          1    1    3    3  501    0 -0.36734458723E+01  0.21094302351E+02 -0.39371886239E+03  0.39430065483E+03  0.00000000000E+00 0.  1.
         -3    1    1    2    0  502  0.11272061450E+02 -0.31416457053E+02 -0.34506044005E+03  0.34667096854E+03  0.00000000000E+00 0. -1.
<mgrwt>
<rscale>  1 0.30000000E+03</rscale>
<asrwt>0</asrwt>
<pdfrwt beam="1">  1       21 0.45601987E-02 0.30000000E+03</pdfrwt>
<pdfrwt beam="2">0</pdfrwt>
<totfact> 0.33689460E+04</totfact>
</mgrwt>
</event>
<event>
 6    1  0.1270461E-001  0.3000000E+03  0.7818608E-02  0.1093470E+00
         21   -1    0    0  501  502  0.00000000000E+00  0.00000000000E+00  0.21816609763E+01  0.21816609763E+01  0.00000000000E+00 0. -1.
         13   -1    0    0    0    0 -0.00000000000E+00 -0.00000000000E+00 -0.10000000000E+04  0.10000000000E+04  0.00000000000E+00 0.  1.
    9000005    2    1    2  501    0 -0.39643066168E+02 -0.11778345782E+02 -0.73082990911E+03  0.73200926447E+03  0.38607123747E+01 0.  0.
         13    1    3    3    0    0 -0.34075958781E+02 -0.99972980204E+01 -0.60158264235E+03  0.60262989679E+03  0.00000000000E+00 0.  1.
          1    1    3    3  501    0 -0.55671073867E+01 -0.17810477614E+01 -0.12924726676E+03  0.12937936768E+03  0.00000000000E+00 0.  1.
         -1    1    1    2    0  502  0.39643066168E+02  0.11778345782E+02 -0.26698842991E+03  0.27017239650E+03  0.00000000000E+00 0. -1.
<mgrwt>
<rscale>  1 0.30000000E+03</rscale>
<asrwt>0</asrwt>
<pdfrwt beam="1">  1       21 0.79333294E-02 0.30000000E+03</pdfrwt>
<pdfrwt beam="2">0</pdfrwt>
<totfact> 0.12962979E+04</totfact>
</mgrwt>
</event>
<event>
 6    1  0.1270461E-001  0.3000000E+03  0.7818608E-02  0.1093470E+00
         21   -1    0    0  501  502  0.00000000000E+00  0.00000000000E+00  0.78291071703E+01  0.78291071703E+01  0.00000000000E+00 0. -1.
         13   -1    0    0    0    0 -0.00000000000E+00 -0.00000000000E+00 -0.10000000000E+04  0.10000000000E+04  0.00000000000E+00 0.  1.
    9000005    2    1    2  501    0  0.66085956526E+01  0.37934337423E+02 -0.94961634035E+03  0.95043940923E+03  0.90105093818E+01 0.  0.
         13    1    3    3    0    0  0.22186621815E+01  0.33953003739E+01 -0.56897063954E+02  0.57041444697E+02  0.00000000000E+00 0.  1.
          3    1    3    3  501    0  0.43899334710E+01  0.34539037049E+02 -0.89271927639E+03  0.89339796454E+03  0.00000000000E+00 0.  1.
         -3    1    1    2    0  502 -0.66085956526E+01 -0.37934337423E+02 -0.42554552483E+02  0.57389697937E+02  0.00000000000E+00 0. -1.
<mgrwt>
<rscale>  1 0.30000000E+03</rscale>
<asrwt>0</asrwt>
<pdfrwt beam="1">  1       21 0.28469541E-01 0.30000000E+03</pdfrwt>
<pdfrwt beam="2">0</pdfrwt>
<totfact> 0.12069000E+03</totfact>
</mgrwt>
</event>
<event>
 6    1  0.1270461E-001  0.3000000E+03  0.7818608E-02  0.1093470E+00
         21   -1    0    0  501  502  0.00000000000E+00  0.00000000000E+00  0.14424336689E+01  0.14424336689E+01  0.00000000000E+00 0. -1.
         13   -1    0    0    0    0 -0.00000000000E+00 -0.00000000000E+00 -0.10000000000E+04  0.10000000000E+04  0.00000000000E+00 0.  1.
    9000005    2    1    2  501    0  0.31604091582E+02 -0.18118477707E+02 -0.63843230589E+03  0.63947931256E+03  0.32991122904E+01 0.  0.
         13    1    3    3    0    0  0.26809275431E+02 -0.16257695951E+02 -0.56232888990E+03  0.56320229966E+03  0.00000000000E+00 0.  1.
          3    1    3    3  501    0  0.47948161503E+01 -0.18607817564E+01 -0.76103415991E+02  0.76277012895E+02  0.00000000000E+00 0.  1.
         -1    1    1    2    0  502 -0.31604091582E+02  0.18118477707E+02 -0.36012526044E+03  0.36196312111E+03  0.00000000000E+00 0. -1.
<mgrwt>
<rscale>  1 0.30000000E+03</rscale>
<asrwt>0</asrwt>
<pdfrwt beam="1">  1       21 0.52452244E-02 0.30000000E+03</pdfrwt>
<pdfrwt beam="2">0</pdfrwt>
<totfact> 0.26544190E+04</totfact>
</mgrwt>
</event>
<event>
 6    1  0.1270461E-001  0.3000000E+03  0.7818608E-02  0.1093470E+00
         21   -1    0    0  501  502  0.00000000000E+00  0.00000000000E+00  0.32160033368E+01  0.32160033368E+01  0.00000000000E+00 0. -1.
         13   -1    0    0    0    0 -0.00000000000E+00 -0.00000000000E+00 -0.10000000000E+04  0.10000000000E+04  0.00000000000E+00 0.  1.
    9000005    2    1    2  501    0  0.50489748328E+02 -0.21860298868E+02 -0.60710714263E+03  0.60967421658E+03  0.98224426710E+01 0.  0.
         13    1    3    3    0    0  0.76107478044E+01  0.25801176289E+00 -0.89374264410E+02  0.89698100265E+02  0.00000000000E+00 0.  1.
          1    1    3    3  501    0  0.42879000523E+02 -0.22118310631E+02 -0.51773287822E+03  0.51997611632E+03  0.00000000000E+00 0.  1.
         -3    1    1    2    0  502 -0.50489748328E+02  0.21860298868E+02 -0.38967685403E+03  0.39354178675E+03  0.00000000000E+00 0. -1.
<mgrwt>
<rscale>  1 0.30000000E+03</rscale>
<asrwt>0</asrwt>
<pdfrwt beam="1">  1       21 0.11694582E-01 0.30000000E+03</pdfrwt>
<pdfrwt beam="2">0</pdfrwt>
<totfact> 0.64935343E+03</totfact>
</mgrwt>
</event>
<event>
 6    1  0.1270461E-001  0.3000000E+03  0.7818608E-02  0.1093470E+00
         21   -1    0    0  501  502  0.00000000000E+00  0.00000000000E+00  0.10292929573E+01  0.10292929573E+01  0.00000000000E+00 0. -1.
         13   -1    0    0    0    0 -0.00000000000E+00 -0.00000000000E+00 -0.10000000000E+04  0.10000000000E+04  0.00000000000E+00 0.  1.
    9000005    2    1    2  501    0 -0.60616437169E+01  0.30667519419E+02 -0.60509234125E+03  0.60591233899E+03  0.39725093430E+01 0.  0.
         13    1    3    3    0    0 -0.24273714348E+01  0.19658108878E+02 -0.40566321128E+03  0.40614649372E+03  0.00000000000E+00 0.  1.
          1    1    3    3  501    0 -0.36342722822E+01  0.11009410541E+02 -0.19942912996E+03  0.19976584526E+03  0.00000000000E+00 0.  1.
         -1    1    1    2    0  502  0.60616437169E+01 -0.30667519419E+02 -0.39387836580E+03  0.39511695397E+03  0.00000000000E+00 0. -1.
<mgrwt>
<rscale>  1 0.30000000E+03</rscale>
<asrwt>0</asrwt>
<pdfrwt beam="1">  1       21 0.37428914E-02 0.30000000E+03</pdfrwt>
<pdfrwt beam="2">0</pdfrwt>
<totfact> 0.47016841E+04</totfact>
</mgrwt>
</event>
<event>
 6    1  0.1270461E-001  0.3000000E+03  0.7818608E-02  0.1093470E+00
         21   -1    0    0  501  502  0.00000000000E+00  0.00000000000E+00  0.41684167701E+01  0.41684167701E+01  0.00000000000E+00 0. -1.
         13   -1    0    0    0    0 -0.00000000000E+00 -0.00000000000E+00 -0.10000000000E+04  0.10000000000E+04  0.00000000000E+00 0.  1.
    9000005    2    1    2  501    0  0.34008231193E+02 -0.38639169098E+02 -0.80062549993E+03  0.80228983907E+03  0.42719500575E+01 0.  0.
         13    1    3    3    0    0  0.15759591114E+02 -0.17611301751E+02 -0.40073140134E+03  0.40142767553E+03  0.00000000000E+00 0.  1.
          1    1    3    3  501    0  0.18248640078E+02 -0.21027867346E+02 -0.39989409859E+03  0.40086216354E+03  0.00000000000E+00 0.  1.
         -3    1    1    2    0  502 -0.34008231193E+02  0.38639169098E+02 -0.19520608330E+03  0.20187857770E+03  0.00000000000E+00 0. -1.
<mgrwt>
<rscale>  1 0.30000000E+03</rscale>
<asrwt>0</asrwt>
<pdfrwt beam="1">  1       21 0.15157911E-01 0.30000000E+03</pdfrwt>
<pdfrwt beam="2">0</pdfrwt>
<totfact> 0.40389342E+03</totfact>
</mgrwt>
</event>
<event>
 6    1  0.1270461E-001  0.3000000E+03  0.7818608E-02  0.1093470E+00
         21   -1    0    0  501  502  0.00000000000E+00  0.00000000000E+00  0.14206452431E+01  0.14206452431E+01  0.00000000000E+00 0. -1.
         13   -1    0    0    0    0 -0.00000000000E+00 -0.00000000000E+00 -0.10000000000E+04  0.10000000000E+04  0.00000000000E+00 0.  1.
    9000005    2    1    2  501    0 -0.36198837181E+02 -0.58866996192E+01 -0.39237649983E+03  0.39410943148E+03  0.42328848228E+01 0.  0.
         13    1    3    3    0    0 -0.12707057068E+02 -0.11368354393E+01 -0.15609692913E+03  0.15661740956E+03  0.00000000000E+00 0.  1.
          3    1    3    3  501    0 -0.23491780113E+02 -0.47498641799E+01 -0.23627957070E+03  0.23749202192E+03  0.00000000000E+00 0.  1.
         -1    1    1    2    0  502  0.36198837181E+02  0.58866996192E+01 -0.60620285492E+03  0.60731121376E+03  0.00000000000E+00 0. -1.
<mgrwt>
<rscale>  1 0.30000000E+03</rscale>
<asrwt>0</asrwt>
<pdfrwt beam="1">  1       21 0.51659936E-02 0.30000000E+03</pdfrwt>
<pdfrwt beam="2">0</pdfrwt>
<totfact> 0.27243483E+04</totfact>
</mgrwt>
</event>
<event>
 6    1  0.1270461E-001  0.3000000E+03  0.7818608E-02  0.1093470E+00
         21   -1    0    0  501  502  0.00000000000E+00  0.00000000000E+00  0.20985601763E+01  0.20985601763E+01  0.00000000000E+00 0. -1.
         13   -1    0    0    0    0 -0.00000000000E+00 -0.00000000000E+00 -0.10000000000E+04  0.10000000000E+04  0.00000000000E+00 0.  1.
    9000005    2    1    2  501    0  0.31656628687E+02  0.25181713988E+02 -0.73333032094E+03  0.73445301508E+03  0.34074770888E+01 0.  0.
         13    1    3    3    0    0  0.23351885804E+02  0.16917219714E+02 -0.53626962406E+03  0.53704433018E+03  0.00000000000E+00 0.  1.
          3    1    3    3  501    0  0.83047428836E+01  0.82644942734E+01 -0.19706069688E+03  0.19740868490E+03  0.00000000000E+00 0.  1.
         -3    1    1    2    0  502 -0.31656628687E+02 -0.25181713988E+02 -0.26457111889E+03  0.26764554509E+03  0.00000000000E+00 0. -1.
<mgrwt>
<rscale>  1 0.30000000E+03</rscale>
<asrwt>0</asrwt>
<pdfrwt beam="1">  1       21 0.76311440E-02 0.30000000E+03</pdfrwt>
<pdfrwt beam="2">0</pdfrwt>
<totfact> 0.13876673E+04</totfact>
</mgrwt>
</event>
<event>
 6    1  0.1270461E-001  0.3000000E+03  0.7818608E-02  0.1093470E+00
         21   -1    0    0  501  502  0.00000000000E+00  0.00000000000E+00  0.17951207325E+01  0.17951207325E+01  0.00000000000E+00 0. -1.
         13   -1    0    0    0    0 -0.00000000000E+00 -0.00000000000E+00 -0.10000000000E+04  0.10000000000E+04  0.00000000000E+00 0.  1.
    9000005    2    1    2  501    0 -0.30060805977E+02  0.25133034452E+02 -0.31208792920E+03  0.31456023319E+03  0.37340700926E+01 0.  0.
         13    1    3    3    0    0 -0.23863084498E+02  0.21767776438E+02 -0.25860563877E+03  0.26061496369E+03  0.00000000000E+00 0.  1.
          3    1    3    3  501    0 -0.61977214792E+01  0.33652580146E+01 -0.53482290422E+02  0.53945269504E+02  0.00000000000E+00 0.  1.
         -3    1    1    2    0  502  0.30060805977E+02 -0.25133034452E+02 -0.68611695007E+03  0.68723488754E+03  0.00000000000E+00 0. -1.
<mgrwt>
<rscale>  1 0.30000000E+03</rscale>
<asrwt>0</asrwt>
<pdfrwt beam="1">  1       21 0.65277255E-02 0.30000000E+03</pdfrwt>
<pdfrwt beam="2">0</pdfrwt>
<totfact> 0.18215295E+04</totfact>
</mgrwt>
</event>
<event>
 6    1  0.1270461E-001  0.3000000E+03  0.7818608E-02  0.1093470E+00
         21   -1    0    0  501  502  0.00000000000E+00  0.00000000000E+00  0.15610658452E+01  0.15610658452E+01  0.00000000000E+00 0. -1.
         13   -1    0    0    0    0 -0.00000000000E+00 -0.00000000000E+00 -0.10000000000E+04  0.10000000000E+04  0.00000000000E+00 0.  1.
    9000005    2    1    2  501    0  0.27543729375E+02  0.17714261013E+02 -0.77876302696E+03  0.77945758484E+03  0.31340611893E+01 0.  0.
         13    1    3    3    0    0  0.24993527999E+02  0.14935225933E+02 -0.69544896825E+03  0.69605819071E+03  0.00000000000E+00 0.  1.
          1    1    3    3  501    0  0.25502013762E+01  0.27790350796E+01 -0.83314058714E+02  0.83399394137E+02  0.00000000000E+00 0.  1.
         -1    1    1    2    0  502 -0.27543729375E+02 -0.17714261013E+02 -0.21967590720E+03  0.22210348100E+03  0.00000000000E+00 0. -1.
<mgrwt>
<rscale>  1 0.30000000E+03</rscale>
<asrwt>0</asrwt>
<pdfrwt beam="1">  1       21 0.56766150E-02 0.30000000E+03</pdfrwt>
<pdfrwt beam="2">0</pdfrwt>
<totfact> 0.23181527E+04</totfact>
</mgrwt>
</event>
<event>
 6    1  0.1270461E-001  0.3000000E+03  0.7818608E-02  0.1093470E+00
         21   -1    0    0  501  502  0.00000000000E+00  0.00000000000E+00  0.39442633197E+01  0.39442633197E+01  0.00000000000E+00 0. -1.
         13   -1    0    0    0    0 -0.00000000000E+00 -0.00000000000E+00 -0.10000000000E+04  0.10000000000E+04  0.00000000000E+00 0.  1.
    9000005    2    1    2  501    0  0.39396072814E+02  0.56996284332E+01 -0.88620736463E+03  0.88710590849E+03  0.29771521558E+01 0.  0.
         13    1    3    3    0    0  0.34366983814E+02  0.59523835032E+01 -0.77815134400E+03  0.77893262521E+03  0.00000000000E+00 0.  1.
          1    1    3    3  501    0  0.50290890001E+01 -0.25275507003E+00 -0.10805602063E+03  0.10817328328E+03  0.00000000000E+00 0.  1.
         -3    1    1    2    0  502 -0.39396072814E+02 -0.56996284332E+01 -0.10984837205E+03  0.11683835483E+03  0.00000000000E+00 0. -1.
<mgrwt>
<rscale>  1 0.30000000E+03</rscale>
<asrwt>0</asrwt>
<pdfrwt beam="1">  1       21 0.14342806E-01 0.30000000E+03</pdfrwt>
<pdfrwt beam="2">0</pdfrwt>
<totfact> 0.44731296E+03</totfact>
</mgrwt>
</event>
<event>
 6    1  0.1270461E-001  0.3000000E+03  0.7818608E-02  0.1093470E+00
         21   -1    0    0  501  502  0.00000000000E+00  0.00000000000E+00  0.32536489615E+01  0.32536489615E+01  0.00000000000E+00 0. -1.
         13   -1    0    0    0    0 -0.00000000000E+00 -0.00000000000E+00 -0.10000000000E+04  0.10000000000E+04  0.00000000000E+00 0.  1.
    9000005    2    1    2  501    0 -0.18908873978E+02  0.37533911424E+02 -0.83733026509E+03  0.83839058917E+03  0.32352999473E+01 0.  0.
         13    1    3    3    0    0 -0.15778144630E+02  0.28561112968E+02 -0.65887452415E+03  0.65968198823E+03  0.00000000000E+00 0.  1.
          3    1    3    3  501    0 -0.31307293477E+01  0.89727984556E+01 -0.17845574093E+03  0.17870860094E+03  0.00000000000E+00 0.  1.
         -1    1    1    2    0  502  0.18908873978E+02 -0.37533911424E+02 -0.15941608595E+03  0.16486305979E+03  0.00000000000E+00 0. -1.
<mgrwt>
<rscale>  1 0.30000000E+03</rscale>
<asrwt>0</asrwt>
<pdfrwt beam="1">  1       21 0.11831476E-01 0.30000000E+03</pdfrwt>
<pdfrwt beam="2">0</pdfrwt>
<totfact> 0.63581200E+03</totfact>
</mgrwt>
</event>
<event>
 6    1  0.1270461E-001  0.3000000E+03  0.7818608E-02  0.1093470E+00
         21   -1    0    0  501  502  0.00000000000E+00  0.00000000000E+00  0.93102457623E+00  0.93102457623E+00  0.00000000000E+00 0. -1.
         13   -1    0    0    0    0 -0.00000000000E+00 -0.00000000000E+00 -0.10000000000E+04  0.10000000000E+04  0.00000000000E+00 0.  1.
    9000005    2    1    2  501    0 -0.29977071088E+02  0.12513395742E+01 -0.58363289902E+03  0.58441292866E+03  0.33045019898E+01 0.  0.
         13    1    3    3    0    0 -0.29544385660E+02  0.16575595702E+01 -0.57181106528E+03  0.57257620681E+03  0.00000000000E+00 0.  1.
          1    1    3    3  501    0 -0.43268542838E+00 -0.40621999603E+00 -0.11821833736E+02  0.11836721854E+02  0.00000000000E+00 0.  1.
         -1    1    1    2    0  502  0.29977071088E+02 -0.12513395742E+01 -0.41543607641E+03  0.41651809591E+03  0.00000000000E+00 0. -1.
<mgrwt>
<rscale>  1 0.30000000E+03</rscale>
<asrwt>0</asrwt>
<pdfrwt beam="1">  1       21 0.33855511E-02 0.30000000E+03</pdfrwt>
<pdfrwt beam="2">0</pdfrwt>
<totfact> 0.55625438E+04</totfact>
</mgrwt>
</event>
<event>
 6    1  0.1270461E-001  0.3000000E+03  0.7818608E-02  0.1093470E+00
         21   -1    0    0  501  502  0.00000000000E+00  0.00000000000E+00  0.18743604266E+01  0.18743604266E+01  0.00000000000E+00 0. -1.
         13   -1    0    0    0    0 -0.00000000000E+00 -0.00000000000E+00 -0.10000000000E+04  0.10000000000E+04  0.00000000000E+00 0.  1.
    9000005    2    1    2  501    0  0.92667753002E+01  0.31115915829E+02 -0.82672606126E+03  0.82742697928E+03  0.10264128522E+02 0.  0.
         13    1    3    3    0    0  0.35496441500E+01  0.24089411766E+02 -0.52403377599E+03  0.52459917853E+03  0.00000000000E+00 0.  1.
          3    1    3    3  501    0  0.57171311502E+01  0.70265040630E+01 -0.30269228527E+03  0.30282780075E+03  0.00000000000E+00 0.  1.
         -3    1    1    2    0  502 -0.92667753002E+01 -0.31115915829E+02 -0.17139957832E+03  0.17444738115E+03  0.00000000000E+00 0. -1.
<mgrwt>
<rscale>  1 0.30000000E+03</rscale>
<asrwt>0</asrwt>
<pdfrwt beam="1">  1       21 0.68158705E-02 0.30000000E+03</pdfrwt>
<pdfrwt beam="2">0</pdfrwt>
<totfact> 0.16900637E+04</totfact>
</mgrwt>
</event>
<event>
 6    1  0.1270461E-001  0.3000000E+03  0.7818608E-02  0.1093470E+00
         21   -1    0    0  501  502  0.00000000000E+00  0.00000000000E+00  0.11276886543E+01  0.11276886543E+01  0.00000000000E+00 0. -1.
         13   -1    0    0    0    0 -0.00000000000E+00 -0.00000000000E+00 -0.10000000000E+04  0.10000000000E+04  0.00000000000E+00 0.  1.
    9000005    2    1    2  501    0  0.29702872296E+02 -0.14670262405E+02 -0.57571424602E+03  0.57667483441E+03  0.30812912274E+01 0.  0.
         13    1    3    3    0    0  0.23398575663E+02 -0.10737900793E+02 -0.46414460527E+03  0.46485805410E+03  0.00000000000E+00 0.  1.
          3    1    3    3  501    0  0.63042966323E+01 -0.39323616128E+01 -0.11156964075E+03  0.11181678031E+03  0.00000000000E+00 0.  1.
         -3    1    1    2    0  502 -0.29702872296E+02  0.14670262405E+02 -0.42315806533E+03  0.42445285424E+03  0.00000000000E+00 0. -1.
<mgrwt>
<rscale>  1 0.30000000E+03</rscale>
<asrwt>0</asrwt>
<pdfrwt beam="1">  1       21 0.41006947E-02 0.30000000E+03</pdfrwt>
<pdfrwt beam="2">0</pdfrwt>
<totfact> 0.40322115E+04</totfact>
</mgrwt>
</event>
<event>
 6    1  0.1270461E-001  0.3000000E+03  0.7818608E-02  0.1093470E+00
         21   -1    0    0  501  502  0.00000000000E+00  0.00000000000E+00  0.38961122766E+01  0.38961122766E+01  0.00000000000E+00 0. -1.
         13   -1    0    0    0    0 -0.00000000000E+00 -0.00000000000E+00 -0.10000000000E+04  0.10000000000E+04  0.00000000000E+00 0.  1.
    9000005    2    1    2  501    0 -0.49651802257E+02  0.27493079544E+02 -0.29009313442E+03  0.29560778492E+03  0.29605704157E+01 0.  0.
         13    1    3    3    0    0 -0.33220870211E+01  0.12743739392E+01 -0.15649637190E+02  0.16049032223E+02  0.00000000000E+00 0.  1.
          3    1    3    3  501    0 -0.46329715236E+02  0.26218705605E+02 -0.27444349723E+03  0.27955875269E+03  0.00000000000E+00 0.  1.
         -1    1    1    2    0  502  0.49651802257E+02 -0.27493079544E+02 -0.70601075331E+03  0.70828832736E+03  0.00000000000E+00 0. -1.
<mgrwt>
<rscale>  1 0.30000000E+03</rscale>
<asrwt>0</asrwt>
<pdfrwt beam="1">  1       21 0.14167711E-01 0.30000000E+03</pdfrwt>
<pdfrwt beam="2">0</pdfrwt>
<totfact> 0.45754086E+03</totfact>
</mgrwt>
</event>
<event>
 6    1  0.1270461E-001  0.3000000E+03  0.7818608E-02  0.1093470E+00
         21   -1    0    0  501  502  0.00000000000E+00  0.00000000000E+00  0.23504694250E+01  0.23504694250E+01  0.00000000000E+00 0. -1.
         13   -1    0    0    0    0 -0.00000000000E+00 -0.00000000000E+00 -0.10000000000E+04  0.10000000000E+04  0.00000000000E+00 0.  1.
    9000005    2    1    2  501    0  0.17226050376E+02  0.34298473011E+02 -0.80270484708E+03  0.80366339967E+03  0.81649489166E+01 0.  0.
         13    1    3    3    0    0  0.45057954518E+01  0.17729653377E+02 -0.39670718495E+03  0.39712873655E+03  0.00000000000E+00 0.  1.
          3    1    3    3  501    0  0.12720254924E+02  0.16568819634E+02 -0.40599766213E+03  0.40653466313E+03  0.00000000000E+00 0.  1.
         -1    1    1    2    0  502 -0.17226050376E+02 -0.34298473011E+02 -0.19494468350E+03  0.19868706975E+03  0.00000000000E+00 0. -1.
<mgrwt>
<rscale>  1 0.30000000E+03</rscale>
<asrwt>0</asrwt>
<pdfrwt beam="1">  1       21 0.85471796E-02 0.30000000E+03</pdfrwt>
<pdfrwt beam="2">0</pdfrwt>
<totfact> 0.11369720E+04</totfact>
</mgrwt>
</event>
<event>
 6    1  0.1270461E-001  0.3000000E+03  0.7818608E-02  0.1093470E+00
         21   -1    0    0  501  502  0.00000000000E+00  0.00000000000E+00  0.47907212307E+01  0.47907212307E+01  0.00000000000E+00 0. -1.
         13   -1    0    0    0    0 -0.00000000000E+00 -0.00000000000E+00 -0.10000000000E+04  0.10000000000E+04  0.00000000000E+00 0.  1.
    9000005    2    1    2  501    0 -0.24129879586E+02 -0.64799858906E+02 -0.48056978514E+03  0.48552674096E+03  0.27613393422E+01 0.  0.
         13    1    3    3    0    0 -0.19397574532E+02 -0.54960576290E+02 -0.40406750786E+03  0.40824928873E+03  0.00000000000E+00 0.  1.
          1    1    3    3  501    0 -0.47323050540E+01 -0.98392826169E+01 -0.76502277277E+02  0.77277452223E+02  0.00000000000E+00 0.  1.
         -3    1    1    2    0  502  0.24129879586E+02  0.64799858906E+02 -0.51463949363E+03  0.51926398028E+03  0.00000000000E+00 0. -1.
<mgrwt>
<rscale>  1 0.30000000E+03</rscale>
<asrwt>0</asrwt>
<pdfrwt beam="1">  1       21 0.17420841E-01 0.30000000E+03</pdfrwt>
<pdfrwt beam="2">0</pdfrwt>
<totfact> 0.31153507E+03</totfact>
</mgrwt>
</event>
<event>
 6    1  0.1270461E-001  0.3000000E+03  0.7818608E-02  0.1093470E+00
         21   -1    0    0  501  502  0.00000000000E+00  0.00000000000E+00  0.12421973363E+01  0.12421973363E+01  0.00000000000E+00 0. -1.
         13   -1    0    0    0    0 -0.00000000000E+00 -0.00000000000E+00 -0.10000000000E+04  0.10000000000E+04  0.00000000000E+00 0.  1.
    9000005    2    1    2  501    0  0.30131854609E+02 -0.20255003698E+01 -0.24475293846E+03  0.24663278409E+03  0.34202324848E+01 0.  0.
         13    1    3    3    0    0  0.28162424313E+02 -0.13166074582E+01 -0.23238674585E+03  0.23409069876E+03  0.00000000000E+00 0.  1.
          1    1    3    3  501    0  0.19694302961E+01 -0.70889291155E+00 -0.12366192608E+02  0.12542085331E+02  0.00000000000E+00 0.  1.
         -1    1    1    2    0  502 -0.30131854609E+02  0.20255003698E+01 -0.75400486421E+03  0.75460941325E+03  0.00000000000E+00 0. -1.
<mgrwt>
<rscale>  1 0.30000000E+03</rscale>
<asrwt>0</asrwt>
<pdfrwt beam="1">  1       21 0.45170907E-02 0.30000000E+03</pdfrwt>
<pdfrwt beam="2">0</pdfrwt>
<totfact> 0.34237213E+04</totfact>
</mgrwt>
</event>
<event>
 6    1  0.1270461E-001  0.3000000E+03  0.7818608E-02  0.1093470E+00
         21   -1    0    0  501  502  0.00000000000E+00  0.00000000000E+00  0.27703126497E+01  0.27703126497E+01  0.00000000000E+00 0. -1.
         13   -1    0    0    0    0 -0.00000000000E+00 -0.00000000000E+00 -0.10000000000E+04  0.10000000000E+04  0.00000000000E+00 0.  1.
    9000005    2    1    2  501    0  0.43004085223E+02 -0.10427918213E+02 -0.76966957429E+03  0.77094775576E+03  0.33310221697E+01 0.  0.
         13    1    3    3    0    0  0.31953837644E+02 -0.77843386445E+01 -0.54569370078E+03  0.54668387460E+03  0.00000000000E+00 0.  1.
          1    1    3    3  501    0  0.11050247579E+02 -0.26435795681E+01 -0.22397587350E+03  0.22426388116E+03  0.00000000000E+00 0.  1.
         -3    1    1    2    0  502 -0.43004085223E+02  0.10427918213E+02 -0.22756011307E+03  0.23182255689E+03  0.00000000000E+00 0. -1.
<mgrwt>
<rscale>  1 0.30000000E+03</rscale>
<asrwt>0</asrwt>
<pdfrwt beam="1">  1       21 0.10073885E-01 0.30000000E+03</pdfrwt>
<pdfrwt beam="2">0</pdfrwt>
<totfact> 0.84907511E+03</totfact>
</mgrwt>
</event>
<event>
 6    1  0.1270461E-001  0.3000000E+03  0.7818608E-02  0.1093470E+00
         21   -1    0    0  501  502  0.00000000000E+00  0.00000000000E+00  0.31656583519E+01  0.31656583519E+01  0.00000000000E+00 0. -1.
         13   -1    0    0    0    0 -0.00000000000E+00 -0.00000000000E+00 -0.10000000000E+04  0.10000000000E+04  0.00000000000E+00 0.  1.
    9000005    2    1    2  501    0 -0.52652464694E+02 -0.61734296954E+01 -0.66565246895E+03  0.66776764692E+03  0.31666344010E+01 0.  0.
         13    1    3    3    0    0 -0.44568736436E+02 -0.41811596407E+01 -0.55486192075E+03  0.55666471548E+03  0.00000000000E+00 0.  1.
          3    1    3    3  501    0 -0.80837282582E+01 -0.19922700547E+01 -0.11079054820E+03  0.11110293144E+03  0.00000000000E+00 0.  1.
         -1    1    1    2    0  502  0.52652464694E+02  0.61734296954E+01 -0.33118187270E+03  0.33539801143E+03  0.00000000000E+00 0. -1.
<mgrwt>
<rscale>  1 0.30000000E+03</rscale>
<asrwt>0</asrwt>
<pdfrwt beam="1">  1       21 0.11511509E-01 0.30000000E+03</pdfrwt>
<pdfrwt beam="2">0</pdfrwt>
<totfact> 0.66814679E+03</totfact>
</mgrwt>
</event>
<event>
 6    1  0.1270461E-001  0.3000000E+03  0.7818608E-02  0.1093470E+00
         21   -1    0    0  501  502  0.00000000000E+00  0.00000000000E+00  0.37341466850E+01  0.37341466850E+01  0.00000000000E+00 0. -1.
         13   -1    0    0    0    0 -0.00000000000E+00 -0.00000000000E+00 -0.10000000000E+04  0.10000000000E+04  0.00000000000E+00 0.  1.
    9000005    2    1    2  501    0 -0.39736706307E+02 -0.40600387416E+02 -0.68206754813E+03  0.68444122119E+03  0.40308526499E+01 0.  0.
         13    1    3    3    0    0 -0.20531385642E+02 -0.18452347855E+02 -0.34243899840E+03  0.34354984291E+03  0.00000000000E+00 0.  1.
          1    1    3    3  501    0 -0.19205320665E+02 -0.22148039561E+02 -0.33962854973E+03  0.34089137828E+03  0.00000000000E+00 0.  1.
         -1    1    1    2    0  502  0.39736706307E+02  0.40600387416E+02 -0.31419830519E+03  0.31929292549E+03  0.00000000000E+00 0. -1.
<mgrwt>
<rscale>  1 0.30000000E+03</rscale>
<asrwt>0</asrwt>
<pdfrwt beam="1">  1       21 0.13578744E-01 0.30000000E+03</pdfrwt>
<pdfrwt beam="2">0</pdfrwt>
<totfact> 0.49463204E+03</totfact>
</mgrwt>
</event>
<event>
 6    1  0.1270461E-001  0.3000000E+03  0.7818608E-02  0.1093470E+00
         21   -1    0    0  501  502  0.00000000000E+00  0.00000000000E+00  0.10166214101E+01  0.10166214101E+01  0.00000000000E+00 0. -1.
         13   -1    0    0    0    0 -0.00000000000E+00 -0.00000000000E+00 -0.10000000000E+04  0.10000000000E+04  0.00000000000E+00 0.  1.
    9000005    2    1    2  501    0  0.13266345409E+02  0.28862183304E+02 -0.52306230144E+03  0.52403664990E+03  0.33492843792E+01 0.  0.
         13    1    3    3    0    0  0.78580507317E+01  0.19701113295E+02 -0.32905329019E+03  0.32973618335E+03  0.00000000000E+00 0.  1.
          3    1    3    3  501    0  0.54082946771E+01  0.91610700094E+01 -0.19400901125E+03  0.19430046655E+03  0.00000000000E+00 0.  1.
         -3    1    1    2    0  502 -0.13266345409E+02 -0.28862183304E+02 -0.47592107715E+03  0.47697997151E+03  0.00000000000E+00 0. -1.
<mgrwt>
<rscale>  1 0.30000000E+03</rscale>
<asrwt>0</asrwt>
<pdfrwt beam="1">  1       21 0.36968129E-02 0.30000000E+03</pdfrwt>
<pdfrwt beam="2">0</pdfrwt>
<totfact> 0.48004821E+04</totfact>
</mgrwt>
</event>
<event>
 6    1  0.1270461E-001  0.3000000E+03  0.7818608E-02  0.1093470E+00
         21   -1    0    0  501  502  0.00000000000E+00  0.00000000000E+00  0.93175136640E+00  0.93175136640E+00  0.00000000000E+00 0. -1.
         13   -1    0    0    0    0 -0.00000000000E+00 -0.00000000000E+00 -0.10000000000E+04  0.10000000000E+04  0.00000000000E+00 0.  1.
    9000005    2    1    2  501    0  0.17991868107E+02 -0.24119209966E+02 -0.42168234041E+03  0.42276228605E+03  0.25516046811E+01 0.  0.
         13    1    3    3    0    0  0.17438693062E+02 -0.22831680907E+02 -0.39520165042E+03  0.39624454338E+03  0.00000000000E+00 0.  1.
          3    1    3    3  501    0  0.55317504520E+00 -0.12875290594E+01 -0.26480689997E+02  0.26517742672E+02  0.00000000000E+00 0.  1.
         -3    1    1    2    0  502 -0.17991868107E+02  0.24119209966E+02 -0.57738590822E+03  0.57816946531E+03  0.00000000000E+00 0. -1.
<mgrwt>
<rscale>  1 0.30000000E+03</rscale>
<asrwt>0</asrwt>
<pdfrwt beam="1">  1       21 0.33881939E-02 0.30000000E+03</pdfrwt>
<pdfrwt beam="2">0</pdfrwt>
<totfact> 0.55552967E+04</totfact>
</mgrwt>
</event>
<event>
 6    1  0.1270461E-001  0.3000000E+03  0.7818608E-02  0.1093470E+00
         21   -1    0    0  501  502  0.00000000000E+00  0.00000000000E+00  0.14105464832E+01  0.14105464832E+01  0.00000000000E+00 0. -1.
         13   -1    0    0    0    0 -0.00000000000E+00 -0.00000000000E+00 -0.10000000000E+04  0.10000000000E+04  0.00000000000E+00 0.  1.
    9000005    2    1    2  501    0  0.29657142528E+02 -0.19295224568E+02 -0.66468290633E+03  0.66563467772E+03  0.37823819064E+01 0.  0.
         13    1    3    3    0    0  0.18843002152E+02 -0.14272793597E+02 -0.43083248419E+03  0.43148047557E+03  0.00000000000E+00 0.  1.
          3    1    3    3  501    0  0.10814140375E+02 -0.50224309709E+01 -0.23385042215E+03  0.23415420215E+03  0.00000000000E+00 0.  1.
         -1    1    1    2    0  502 -0.29657142528E+02  0.19295224568E+02 -0.33390654718E+03  0.33577586877E+03  0.00000000000E+00 0. -1.
<mgrwt>
<rscale>  1 0.30000000E+03</rscale>
<asrwt>0</asrwt>
<pdfrwt beam="1">  1       21 0.51292708E-02 0.30000000E+03</pdfrwt>
<pdfrwt beam="2">0</pdfrwt>
<totfact> 0.27577341E+04</totfact>
</mgrwt>
</event>
<event>
 6    1  0.1270461E-001  0.3000000E+03  0.7818608E-02  0.1093470E+00
         21   -1    0    0  501  502  0.00000000000E+00  0.00000000000E+00  0.19464311283E+01  0.19464311283E+01  0.00000000000E+00 0. -1.
         13   -1    0    0    0    0 -0.00000000000E+00 -0.00000000000E+00 -0.10000000000E+04  0.10000000000E+04  0.00000000000E+00 0.  1.
    9000005    2    1    2  501    0 -0.10767652265E+02  0.42156090186E+02 -0.57911780926E+03  0.58075734181E+03  0.29282750749E+01 0.  0.
         13    1    3    3    0    0 -0.39574204667E+01  0.10691098288E+02 -0.15808394391E+03  0.15849446072E+03  0.00000000000E+00 0.  1.
          1    1    3    3  501    0 -0.68102317987E+01  0.31464991898E+02 -0.42103386535E+03  0.42226288109E+03  0.00000000000E+00 0.  1.
         -3    1    1    2    0  502  0.10767652265E+02 -0.42156090186E+02 -0.41893575962E+03  0.42118908932E+03  0.00000000000E+00 0. -1.
<mgrwt>
<rscale>  1 0.30000000E+03</rscale>
<asrwt>0</asrwt>
<pdfrwt beam="1">  1       21 0.70779463E-02 0.30000000E+03</pdfrwt>
<pdfrwt beam="2">0</pdfrwt>
<totfact> 0.15827169E+04</totfact>
</mgrwt>
</event>
<event>
 6    1  0.1270461E-001  0.3000000E+03  0.7818608E-02  0.1093470E+00
         21   -1    0    0  501  502  0.00000000000E+00  0.00000000000E+00  0.20000966137E+01  0.20000966137E+01  0.00000000000E+00 0. -1.
         13   -1    0    0    0    0 -0.00000000000E+00 -0.00000000000E+00 -0.10000000000E+04  0.10000000000E+04  0.00000000000E+00 0.  1.
    9000005    2    1    2  501    0  0.38123863770E+02 -0.21636932015E+02 -0.40572133415E+03  0.40810154518E+03  0.39350196805E+01 0.  0.
         13    1    3    3    0    0  0.15921122601E+02 -0.88292660382E+01 -0.18667091080E+03  0.18755657019E+03  0.00000000000E+00 0.  1.
          3    1    3    3  501    0  0.22202741169E+02 -0.12807665977E+02 -0.21905042335E+03  0.22054497499E+03  0.00000000000E+00 0.  1.
         -1    1    1    2    0  502 -0.38123863770E+02  0.21636932015E+02 -0.59227856924E+03  0.59389855143E+03  0.00000000000E+00 0. -1.
<mgrwt>
<rscale>  1 0.30000000E+03</rscale>
<asrwt>0</asrwt>
<pdfrwt beam="1">  1       21 0.72730939E-02 0.30000000E+03</pdfrwt>
<pdfrwt beam="2">0</pdfrwt>
<totfact> 0.15093959E+04</totfact>
</mgrwt>
</event>
<event>
 6    1  0.1270461E-001  0.3000000E+03  0.7818608E-02  0.1093470E+00
         21   -1    0    0  501  502  0.00000000000E+00  0.00000000000E+00  0.15800366245E+01  0.15800366245E+01  0.00000000000E+00 0. -1.
         13   -1    0    0    0    0 -0.00000000000E+00 -0.00000000000E+00 -0.10000000000E+04  0.10000000000E+04  0.00000000000E+00 0.  1.
    9000005    2    1    2  501    0 -0.95861744949E+01 -0.37989793481E+02 -0.57965767615E+03  0.58098881899E+03  0.31411972144E+01 0.  0.
         13    1    3    3    0    0 -0.43158455393E+01 -0.23357951443E+02 -0.35223303032E+03  0.35303304104E+03  0.00000000000E+00 0.  1.
          1    1    3    3  501    0 -0.52703289555E+01 -0.14631842037E+02 -0.22742464583E+03  0.22795577795E+03  0.00000000000E+00 0.  1.
         -1    1    1    2    0  502  0.95861744949E+01  0.37989793481E+02 -0.41876228723E+03  0.42059121764E+03  0.00000000000E+00 0. -1.
<mgrwt>
<rscale>  1 0.30000000E+03</rscale>
<asrwt>0</asrwt>
<pdfrwt beam="1">  1       21 0.57455998E-02 0.30000000E+03</pdfrwt>
<pdfrwt beam="2">0</pdfrwt>
<totfact> 0.22704921E+04</totfact>
</mgrwt>
</event>
<event>
 6    1  0.1270461E-001  0.3000000E+03  0.7818608E-02  0.1093470E+00
         21   -1    0    0  501  502  0.00000000000E+00  0.00000000000E+00  0.22266043757E+01  0.22266043757E+01  0.00000000000E+00 0. -1.
         13   -1    0    0    0    0 -0.00000000000E+00 -0.00000000000E+00 -0.10000000000E+04  0.10000000000E+04  0.00000000000E+00 0.  1.
    9000005    2    1    2  501    0 -0.26338181550E+02  0.21619324954E+02 -0.84466343564E+03  0.84537076334E+03  0.58577293949E+01 0.  0.
         13    1    3    3    0    0 -0.18816082158E+02  0.11950067830E+02 -0.52691424871E+03  0.52738550849E+03  0.00000000000E+00 0.  1.
          3    1    3    3  501    0 -0.75220993920E+01  0.96692571239E+01 -0.31774918692E+03  0.31798525485E+03  0.00000000000E+00 0.  1.
         -1    1    1    2    0  502  0.26338181550E+02 -0.21619324954E+02 -0.15310995999E+03  0.15685584103E+03  0.00000000000E+00 0. -1.
<mgrwt>
<rscale>  1 0.30000000E+03</rscale>
<asrwt>0</asrwt>
<pdfrwt beam="1">  1       21 0.80967603E-02 0.30000000E+03</pdfrwt>
<pdfrwt beam="2">0</pdfrwt>
<totfact> 0.12506859E+04</totfact>
</mgrwt>
</event>
<event>
 6    1  0.1270461E-001  0.3000000E+03  0.7818608E-02  0.1093470E+00
         21   -1    0    0  501  502  0.00000000000E+00  0.00000000000E+00  0.24718149267E+02  0.24718149267E+02  0.00000000000E+00 0. -1.
         13   -1    0    0    0    0 -0.00000000000E+00 -0.00000000000E+00 -0.10000000000E+04  0.10000000000E+04  0.00000000000E+00 0.  1.
    9000005    2    1    2  501    0  0.13516961994E+02 -0.64917437998E+02 -0.95219345790E+03  0.95450379246E+03  0.28507095299E+01 0.  0.
         13    1    3    3    0    0  0.12288721191E+02 -0.54209343338E+02 -0.80290812474E+03  0.80482987168E+03  0.00000000000E+00 0.  1.
          1    1    3    3  501    0  0.12282408036E+01 -0.10708094660E+02 -0.14928533315E+03  0.14967392078E+03  0.00000000000E+00 0.  1.
         -1    1    1    2    0  502 -0.13516961994E+02  0.64917437998E+02 -0.23088392837E+02  0.70214356805E+02  0.00000000000E+00 0. -1.
<mgrwt>
<rscale>  1 0.30000000E+03</rscale>
<asrwt>0</asrwt>
<pdfrwt beam="1">  1       21 0.89884369E-01 0.30000000E+03</pdfrwt>
<pdfrwt beam="2">0</pdfrwt>
<totfact> 0.96509942E+01</totfact>
</mgrwt>
</event>
<event>
 6    1  0.1270461E-001  0.3000000E+03  0.7818608E-02  0.1093470E+00
         21   -1    0    0  501  502  0.00000000000E+00  0.00000000000E+00  0.14940445781E+01  0.14940445781E+01  0.00000000000E+00 0. -1.
         13   -1    0    0    0    0 -0.00000000000E+00 -0.00000000000E+00 -0.10000000000E+04  0.10000000000E+04  0.00000000000E+00 0.  1.
    9000005    2    1    2  501    0 -0.17249925546E+02  0.27698233756E+02 -0.23544574047E+03  0.23773646280E+03  0.43791498683E+01 0.  0.
         13    1    3    3    0    0 -0.64523724700E+01  0.14498717714E+02 -0.11384052281E+03  0.11494133529E+03  0.00000000000E+00 0.  1.
          3    1    3    3  501    0 -0.10797553076E+02  0.13199516042E+02 -0.12160521766E+03  0.12279512751E+03  0.00000000000E+00 0.  1.
         -3    1    1    2    0  502  0.17249925546E+02 -0.27698233756E+02 -0.76306021495E+03  0.76375758178E+03  0.00000000000E+00 0. -1.
<mgrwt>
<rscale>  1 0.30000000E+03</rscale>
<asrwt>0</asrwt>
<pdfrwt beam="1">  1       21 0.54329008E-02 0.30000000E+03</pdfrwt>
<pdfrwt beam="2">0</pdfrwt>
<totfact> 0.24994492E+04</totfact>
</mgrwt>
</event>
<event>
 6    1  0.1270461E-001  0.3000000E+03  0.7818608E-02  0.1093470E+00
         21   -1    0    0  501  502  0.00000000000E+00  0.00000000000E+00  0.54548822999E+01  0.54548822999E+01  0.00000000000E+00 0. -1.
         13   -1    0    0    0    0 -0.00000000000E+00 -0.00000000000E+00 -0.10000000000E+04  0.10000000000E+04  0.00000000000E+00 0.  1.
    9000005    2    1    2  501    0 -0.66431949740E+02  0.64176862148E+01 -0.71213658709E+03  0.71526706588E+03  0.37504939051E+01 0.  0.
         13    1    3    3    0    0 -0.37778879235E+02  0.43078082197E+01 -0.38690788679E+03  0.38877180169E+03  0.00000000000E+00 0.  1.
          3    1    3    3  501    0 -0.28653070504E+02  0.21098779951E+01 -0.32522870031E+03  0.32649526419E+03  0.00000000000E+00 0.  1.
         -3    1    1    2    0  502  0.66431949740E+02 -0.64176862148E+01 -0.28240853061E+03  0.29018781642E+03  0.00000000000E+00 0. -1.
<mgrwt>
<rscale>  1 0.30000000E+03</rscale>
<asrwt>0</asrwt>
<pdfrwt beam="1">  1       21 0.19835977E-01 0.30000000E+03</pdfrwt>
<pdfrwt beam="2">0</pdfrwt>
<totfact> 0.24372136E+03</totfact>
</mgrwt>
</event>
<event>
 6    1  0.1270461E-001  0.3000000E+03  0.7818608E-02  0.1093470E+00
         21   -1    0    0  501  502  0.00000000000E+00  0.00000000000E+00  0.14217878688E+01  0.14217878688E+01  0.00000000000E+00 0. -1.
         13   -1    0    0    0    0 -0.00000000000E+00 -0.00000000000E+00 -0.10000000000E+04  0.10000000000E+04  0.00000000000E+00 0.  1.
    9000005    2    1    2  501    0  0.26957446689E+02 -0.15737872879E+02 -0.77922914282E+03  0.77986276913E+03  0.36738382658E+01 0.  0.
         13    1    3    3    0    0  0.16878564647E+02 -0.84429242946E+01 -0.50183408170E+03  0.50218882353E+03  0.00000000000E+00 0.  1.
          3    1    3    3  501    0  0.10078882042E+02 -0.72949485844E+01 -0.27739506111E+03  0.27767394561E+03  0.00000000000E+00 0.  1.
         -3    1    1    2    0  502 -0.26957446689E+02  0.15737872879E+02 -0.21934906931E+03  0.22155901874E+03  0.00000000000E+00 0. -1.
<mgrwt>
<rscale>  1 0.30000000E+03</rscale>
<asrwt>0</asrwt>
<pdfrwt beam="1">  1       21 0.51701486E-02 0.30000000E+03</pdfrwt>
<pdfrwt beam="2">0</pdfrwt>
<totfact> 0.27206105E+04</totfact>
</mgrwt>
</event>
<event>
 6    1  0.1270461E-001  0.3000000E+03  0.7818608E-02  0.1093470E+00
         21   -1    0    0  501  502  0.00000000000E+00  0.00000000000E+00  0.20313624670E+01  0.20313624670E+01  0.00000000000E+00 0. -1.
         13   -1    0    0    0    0 -0.00000000000E+00 -0.00000000000E+00 -0.10000000000E+04  0.10000000000E+04  0.00000000000E+00 0.  1.
    9000005    2    1    2  501    0  0.34705410013E+01 -0.39489618685E+02 -0.27075472055E+03  0.27373777078E+03  0.72645586738E+01 0.  0.
         13    1    3    3    0    0  0.28544925492E+01 -0.10776925820E+02 -0.58961196169E+02  0.60005940635E+02  0.00000000000E+00 0.  1.
          1    1    3    3  501    0  0.61604845207E+00 -0.28712692864E+02 -0.21179352438E+03  0.21373183014E+03  0.00000000000E+00 0.  1.
         -1    1    1    2    0  502 -0.34705410013E+01  0.39489618685E+02 -0.72721391699E+03  0.72829359169E+03  0.00000000000E+00 0. -1.
<mgrwt>
<rscale>  1 0.30000000E+03</rscale>
<asrwt>0</asrwt>
<pdfrwt beam="1">  1       21 0.73867882E-02 0.30000000E+03</pdfrwt>
<pdfrwt beam="2">0</pdfrwt>
<totfact> 0.14690328E+04</totfact>
</mgrwt>
</event>
<event>
 6    1  0.1270461E-001  0.3000000E+03  0.7818608E-02  0.1093470E+00
         21   -1    0    0  501  502  0.00000000000E+00  0.00000000000E+00  0.13184367208E+01  0.13184367208E+01  0.00000000000E+00 0. -1.
         13   -1    0    0    0    0 -0.00000000000E+00 -0.00000000000E+00 -0.10000000000E+04  0.10000000000E+04  0.00000000000E+00 0.  1.
    9000005    2    1    2  501    0 -0.11936179534E+02 -0.30170155172E+02 -0.72294331452E+03  0.72367785526E+03  0.31450818876E+01 0.  0.
         13    1    3    3    0    0 -0.88836035804E+01 -0.25285809112E+02 -0.60766978672E+03  0.60826052005E+03  0.00000000000E+00 0.  1.
          1    1    3    3  501    0 -0.30525759534E+01 -0.48843460594E+01 -0.11527352779E+03  0.11541733521E+03  0.00000000000E+00 0.  1.
         -1    1    1    2    0  502  0.11936179534E+02  0.30170155172E+02 -0.27573824876E+03  0.27764058146E+03  0.00000000000E+00 0. -1.
<mgrwt>
<rscale>  1 0.30000000E+03</rscale>
<asrwt>0</asrwt>
<pdfrwt beam="1">  1       21 0.47943255E-02 0.30000000E+03</pdfrwt>
<pdfrwt beam="2">0</pdfrwt>
<totfact> 0.30940756E+04</totfact>
</mgrwt>
</event>
<event>
 6    1  0.1270461E-001  0.3000000E+03  0.7818608E-02  0.1093470E+00
         21   -1    0    0  501  502  0.00000000000E+00  0.00000000000E+00  0.51128482334E+01  0.51128482334E+01  0.00000000000E+00 0. -1.
         13   -1    0    0    0    0 -0.00000000000E+00 -0.00000000000E+00 -0.10000000000E+04  0.10000000000E+04  0.00000000000E+00 0.  1.
    9000005    2    1    2  501    0  0.48094904079E+02 -0.45135374764E+02 -0.69048055846E+03  0.69364263152E+03  0.51358340736E+01 0.  0.
         13    1    3    3    0    0  0.13090394256E+01 -0.26438030497E+01 -0.29109427324E+02  0.29258537864E+02  0.00000000000E+00 0.  1.
          3    1    3    3  501    0  0.46785864653E+02 -0.42491571714E+02 -0.66137113114E+03  0.66438409366E+03  0.00000000000E+00 0.  1.
         -3    1    1    2    0  502 -0.48094904079E+02  0.45135374764E+02 -0.30440659330E+03  0.31147021671E+03  0.00000000000E+00 0. -1.
<mgrwt>
<rscale>  1 0.30000000E+03</rscale>
<asrwt>0</asrwt>
<pdfrwt beam="1">  1       21 0.18592215E-01 0.30000000E+03</pdfrwt>
<pdfrwt beam="2">0</pdfrwt>
<totfact> 0.27559758E+03</totfact>
</mgrwt>
</event>
<event>
 6    1  0.1270461E-001  0.3000000E+03  0.7818608E-02  0.1093470E+00
         21   -1    0    0  501  502  0.00000000000E+00  0.00000000000E+00  0.34458563325E+01  0.34458563325E+01  0.00000000000E+00 0. -1.
         13   -1    0    0    0    0 -0.00000000000E+00 -0.00000000000E+00 -0.10000000000E+04  0.10000000000E+04  0.00000000000E+00 0.  1.
    9000005    2    1    2  501    0  0.26838147997E+02 -0.15393225346E+02 -0.92456937054E+03  0.92509379742E+03  0.35742830204E+01 0.  0.
         13    1    3    3    0    0  0.63661900327E+01 -0.44073928133E+01 -0.27531564964E+03  0.27542450949E+03  0.00000000000E+00 0.  1.
          1    1    3    3  501    0  0.20471957965E+02 -0.10985832533E+02 -0.64925372090E+03  0.64966928793E+03  0.00000000000E+00 0.  1.
         -1    1    1    2    0  502 -0.26838147997E+02  0.15393225346E+02 -0.71984773123E+02  0.78352058914E+02  0.00000000000E+00 0. -1.
<mgrwt>
<rscale>  1 0.30000000E+03</rscale>
<asrwt>0</asrwt>
<pdfrwt beam="1">  1       21 0.12530413E-01 0.30000000E+03</pdfrwt>
<pdfrwt beam="2">0</pdfrwt>
<totfact> 0.57282821E+03</totfact>
</mgrwt>
</event>
<event>
 6    1  0.1270461E-001  0.3000000E+03  0.7818608E-02  0.1093470E+00
         21   -1    0    0  501  502  0.00000000000E+00  0.00000000000E+00  0.91445601975E+00  0.91445601975E+00  0.00000000000E+00 0. -1.
         13   -1    0    0    0    0 -0.00000000000E+00 -0.00000000000E+00 -0.10000000000E+04  0.10000000000E+04  0.00000000000E+00 0.  1.
    9000005    2    1    2  501    0  0.17668462089E+02 -0.24337753288E+02 -0.52708370839E+03  0.52795543709E+03  0.38996299306E+01 0.  0.
         13    1    3    3    0    0  0.50304546288E+01 -0.53701544271E+01 -0.10574337017E+03  0.10599907720E+03  0.00000000000E+00 0.  1.
          3    1    3    3  501    0  0.12638007460E+02 -0.18967598861E+02 -0.42134033822E+03  0.42195635989E+03  0.00000000000E+00 0.  1.
         -1    1    1    2    0  502 -0.17668462089E+02  0.24337753288E+02 -0.47200183559E+03  0.47295901893E+03  0.00000000000E+00 0. -1.
<mgrwt>
<rscale>  1 0.30000000E+03</rscale>
<asrwt>0</asrwt>
<pdfrwt beam="1">  1       21 0.33253016E-02 0.30000000E+03</pdfrwt>
<pdfrwt beam="2">0</pdfrwt>
<totfact> 0.57318431E+04</totfact>
</mgrwt>
</event>
<event>
 6    1  0.1270461E-001  0.3000000E+03  0.7818608E-02  0.1093470E+00
         21   -1    0    0  501  502  0.00000000000E+00  0.00000000000E+00  0.24116970128E+01  0.24116970128E+01  0.00000000000E+00 0. -1.
         13   -1    0    0    0    0 -0.00000000000E+00 -0.00000000000E+00 -0.10000000000E+04  0.10000000000E+04  0.00000000000E+00 0.  1.
    9000005    2    1    2  501    0  0.62265652388E+01  0.48015433741E+02 -0.57947221762E+03  0.58150159635E+03  0.34356337521E+01 0.  0.
         13    1    3    3    0    0  0.26221071702E+01  0.96905329038E+01 -0.11615031299E+03  0.11658334822E+03  0.00000000000E+00 0.  1.
          1    1    3    3  501    0  0.36044580687E+01  0.38324900838E+02 -0.46332190462E+03  0.46491824813E+03  0.00000000000E+00 0.  1.
         -1    1    1    2    0  502 -0.62265652388E+01 -0.48015433741E+02 -0.41811608537E+03  0.42091010066E+03  0.00000000000E+00 0. -1.
<mgrwt>
<rscale>  1 0.30000000E+03</rscale>
<asrwt>0</asrwt>
<pdfrwt beam="1">  1       21 0.87698258E-02 0.30000000E+03</pdfrwt>
<pdfrwt beam="2">0</pdfrwt>
<totfact> 0.10864969E+04</totfact>
</mgrwt>
</event>
<event>
 6    1  0.1270461E-001  0.3000000E+03  0.7818608E-02  0.1093470E+00
         21   -1    0    0  501  502  0.00000000000E+00  0.00000000000E+00  0.11654340715E+01  0.11654340715E+01  0.00000000000E+00 0. -1.
         13   -1    0    0    0    0 -0.00000000000E+00 -0.00000000000E+00 -0.10000000000E+04  0.10000000000E+04  0.00000000000E+00 0.  1.
    9000005    2    1    2  501    0  0.31398491162E+02 -0.35014453018E+01 -0.67986686315E+03  0.68063693178E+03  0.70395969153E+01 0.  0.
         13    1    3    3    0    0  0.23533426717E+02 -0.55045923850E+01 -0.48692060056E+03  0.48752004468E+03  0.00000000000E+00 0.  1.
          3    1    3    3  501    0  0.78650644452E+01  0.20031470832E+01 -0.19294626259E+03  0.19311688710E+03  0.00000000000E+00 0.  1.
         -3    1    1    2    0  502 -0.31398491162E+02  0.35014453018E+01 -0.31896770277E+03  0.32052850229E+03  0.00000000000E+00 0. -1.
<mgrwt>
<rscale>  1 0.30000000E+03</rscale>
<asrwt>0</asrwt>
<pdfrwt beam="1">  1       21 0.42379510E-02 0.30000000E+03</pdfrwt>
<pdfrwt beam="2">0</pdfrwt>
<totfact> 0.38142488E+04</totfact>
</mgrwt>
</event>
<event>
 6    1  0.1270461E-001  0.3000000E+03  0.7818608E-02  0.1093470E+00
         21   -1    0    0  501  502  0.00000000000E+00  0.00000000000E+00  0.25937006282E+01  0.25937006282E+01  0.00000000000E+00 0. -1.
         13   -1    0    0    0    0 -0.00000000000E+00 -0.00000000000E+00 -0.10000000000E+04  0.10000000000E+04  0.00000000000E+00 0.  1.
    9000005    2    1    2  501    0  0.11656577475E+02  0.49255428400E+02 -0.44931673301E+03  0.45217191166E+03  0.34551553899E+01 0.  0.
         13    1    3    3    0    0  0.56215981249E+00  0.74950676787E+01 -0.63663639179E+02  0.64105779900E+02  0.00000000000E+00 0.  1.
          3    1    3    3  501    0  0.11094417662E+02  0.41760360722E+02 -0.38565309384E+03  0.38806613176E+03  0.00000000000E+00 0.  1.
         -3    1    1    2    0  502 -0.11656577475E+02 -0.49255428400E+02 -0.54808956636E+03  0.55042178897E+03  0.00000000000E+00 0. -1.
<mgrwt>
<rscale>  1 0.30000000E+03</rscale>
<asrwt>0</asrwt>
<pdfrwt beam="1">  1       21 0.94316585E-02 0.30000000E+03</pdfrwt>
<pdfrwt beam="2">0</pdfrwt>
<totfact> 0.95497094E+03</totfact>
</mgrwt>
</event>
<event>
 6    1  0.1270461E-001  0.3000000E+03  0.7818608E-02  0.1093470E+00
         21   -1    0    0  501  502  0.00000000000E+00  0.00000000000E+00  0.17453610416E+01  0.17453610416E+01  0.00000000000E+00 0. -1.
         13   -1    0    0    0    0 -0.00000000000E+00 -0.00000000000E+00 -0.10000000000E+04  0.10000000000E+04  0.00000000000E+00 0.  1.
    9000005    2    1    2  501    0  0.42903516074E+01  0.36831394241E+02 -0.72837027752E+03  0.72932559805E+03  0.41961982657E+01 0.  0.
         13    1    3    3    0    0  0.17083560140E+01  0.29066311203E+02 -0.57763523125E+03  0.57836859295E+03  0.00000000000E+00 0.  1.
          1    1    3    3  501    0  0.25819955933E+01  0.77650830379E+01 -0.15073504626E+03  0.15095700510E+03  0.00000000000E+00 0.  1.
         -1    1    1    2    0  502 -0.42903516074E+01 -0.36831394241E+02 -0.26988436144E+03  0.27241976299E+03  0.00000000000E+00 0. -1.
<mgrwt>
<rscale>  1 0.30000000E+03</rscale>
<asrwt>0</asrwt>
<pdfrwt beam="1">  1       21 0.63467808E-02 0.30000000E+03</pdfrwt>
<pdfrwt beam="2">0</pdfrwt>
<totfact> 0.19123263E+04</totfact>
</mgrwt>
</event>
<event>
 6    1  0.1270461E-001  0.3000000E+03  0.7818608E-02  0.1093470E+00
         21   -1    0    0  501  502  0.00000000000E+00  0.00000000000E+00  0.14609092080E+01  0.14609092080E+01  0.00000000000E+00 0. -1.
         13   -1    0    0    0    0 -0.00000000000E+00 -0.00000000000E+00 -0.10000000000E+04  0.10000000000E+04  0.00000000000E+00 0.  1.
    9000005    2    1    2  501    0  0.22710490531E+02 -0.29817722497E+02 -0.40976160071E+03  0.41149159154E+03  0.39871721389E+01 0.  0.
         13    1    3    3    0    0  0.22605784758E+02 -0.29227044410E+02 -0.39695046672E+03  0.39866642028E+03  0.00000000000E+00 0.  1.
          1    1    3    3  501    0  0.10470577322E+00 -0.59067808720E+00 -0.12811133991E+02  0.12825171267E+02  0.00000000000E+00 0.  1.
         -1    1    1    2    0  502 -0.22710490531E+02  0.29817722497E+02 -0.58877749008E+03  0.58996931766E+03  0.00000000000E+00 0. -1.
<mgrwt>
<rscale>  1 0.30000000E+03</rscale>
<asrwt>0</asrwt>
<pdfrwt beam="1">  1       21 0.53124083E-02 0.30000000E+03</pdfrwt>
<pdfrwt beam="2">0</pdfrwt>
<totfact> 0.25972770E+04</totfact>
</mgrwt>
</event>
<event>
 6    1  0.1270461E-001  0.3000000E+03  0.7818608E-02  0.1093470E+00
         21   -1    0    0  501  502  0.00000000000E+00  0.00000000000E+00  0.18589346961E+01  0.18589346961E+01  0.00000000000E+00 0. -1.
         13   -1    0    0    0    0 -0.00000000000E+00 -0.00000000000E+00 -0.10000000000E+04  0.10000000000E+04  0.00000000000E+00 0.  1.
    9000005    2    1    2  501    0 -0.20407958410E+02  0.35556677286E+02 -0.65207714721E+03  0.65337507930E+03  0.36913776394E+01 0.  0.
         13    1    3    3    0    0 -0.16703550347E+02  0.31031788715E+02 -0.57209145104E+03  0.57317589696E+03  0.00000000000E+00 0.  1.
          3    1    3    3  501    0 -0.37044080631E+01  0.45248885715E+01 -0.79985696167E+02  0.80199182334E+02  0.00000000000E+00 0.  1.
         -1    1    1    2    0  502  0.20407958410E+02 -0.35556677286E+02 -0.34606391809E+03  0.34848385540E+03  0.00000000000E+00 0. -1.
<mgrwt>
<rscale>  1 0.30000000E+03</rscale>
<asrwt>0</asrwt>
<pdfrwt beam="1">  1       21 0.67597768E-02 0.30000000E+03</pdfrwt>
<pdfrwt beam="2">0</pdfrwt>
<totfact> 0.17144881E+04</totfact>
</mgrwt>
</event>
<event>
 6    1  0.1270461E-001  0.3000000E+03  0.7818608E-02  0.1093470E+00
         21   -1    0    0  501  502  0.00000000000E+00  0.00000000000E+00  0.23247585801E+01  0.23247585801E+01  0.00000000000E+00 0. -1.
         13   -1    0    0    0    0 -0.00000000000E+00 -0.00000000000E+00 -0.10000000000E+04  0.10000000000E+04  0.00000000000E+00 0.  1.
    9000005    2    1    2  501    0  0.36012127350E+02 -0.14538916651E+02 -0.79542849013E+03  0.79638301482E+03  0.33421515950E+01 0.  0.
         13    1    3    3    0    0  0.15078841896E+02 -0.45498081109E+01 -0.30527468609E+03  0.30568072592E+03  0.00000000000E+00 0.  1.
          1    1    3    3  501    0  0.20933285454E+02 -0.99891085399E+01 -0.49015380404E+03  0.49070228891E+03  0.00000000000E+00 0.  1.
         -1    1    1    2    0  502 -0.36012127350E+02  0.14538916651E+02 -0.20224675129E+03  0.20594174376E+03  0.00000000000E+00 0. -1.
<mgrwt>
<rscale>  1 0.30000000E+03</rscale>
<asrwt>0</asrwt>
<pdfrwt beam="1">  1       21 0.84536854E-02 0.30000000E+03</pdfrwt>
<pdfrwt beam="2">0</pdfrwt>
<totfact> 0.11592390E+04</totfact>
</mgrwt>
</event>
<event>
 6    1  0.1270461E-001  0.3000000E+03  0.7818608E-02  0.1093470E+00
         21   -1    0    0  501  502  0.00000000000E+00  0.00000000000E+00  0.10588786388E+01  0.10588786388E+01  0.00000000000E+00 0. -1.
         13   -1    0    0    0    0 -0.00000000000E+00 -0.00000000000E+00 -0.10000000000E+04  0.10000000000E+04  0.00000000000E+00 0.  1.
    9000005    2    1    2  501    0 -0.87919305458E+01  0.29896561862E+02 -0.63954730916E+03  0.64031656797E+03  0.36666220011E+01 0.  0.
         13    1    3    3    0    0 -0.53394237199E+01  0.12082901958E+02 -0.25760513848E+03  0.25794362434E+03  0.00000000000E+00 0.  1.
          3    1    3    3  501    0 -0.34525068259E+01  0.17813659904E+02 -0.38194217067E+03  0.38237294363E+03  0.00000000000E+00 0.  1.
         -1    1    1    2    0  502  0.87919305458E+01 -0.29896561862E+02 -0.35939381221E+03  0.36074231067E+03  0.00000000000E+00 0. -1.
<mgrwt>
<rscale>  1 0.30000000E+03</rscale>
<asrwt>0</asrwt>
<pdfrwt beam="1">  1       21 0.38504759E-02 0.30000000E+03</pdfrwt>
<pdfrwt beam="2">0</pdfrwt>
<totfact> 0.44830782E+04</totfact>
</mgrwt>
</event>
<event>
 6    1  0.1270461E-001  0.3000000E+03  0.7818608E-02  0.1093470E+00
         21   -1    0    0  501  502  0.00000000000E+00  0.00000000000E+00  0.15720373075E+01  0.15720373075E+01  0.00000000000E+00 0. -1.
         13   -1    0    0    0    0 -0.00000000000E+00 -0.00000000000E+00 -0.10000000000E+04  0.10000000000E+04  0.00000000000E+00 0.  1.
    9000005    2    1    2  501    0  0.12810063443E+01 -0.35733823400E+02 -0.71443557501E+03  0.71533747725E+03  0.33118576161E+01 0.  0.
         13    1    3    3    0    0 -0.90139156776E+00 -0.18700482737E+02 -0.38297038127E+03  0.38342774220E+03  0.00000000000E+00 0.  1.
          3    1    3    3  501    0  0.21823979121E+01 -0.17033340662E+02 -0.33146519375E+03  0.33190973505E+03  0.00000000000E+00 0.  1.
         -1    1    1    2    0  502 -0.12810063443E+01  0.35733823400E+02 -0.28399238768E+03  0.28623456006E+03  0.00000000000E+00 0. -1.
<mgrwt>
<rscale>  1 0.30000000E+03</rscale>
<asrwt>0</asrwt>
<pdfrwt beam="1">  1       21 0.57165114E-02 0.30000000E+03</pdfrwt>
<pdfrwt beam="2">0</pdfrwt>
<totfact> 0.22904042E+04</totfact>
</mgrwt>
</event>
<event>
 6    1  0.1270461E-001  0.3000000E+03  0.7818608E-02  0.1093470E+00
         21   -1    0    0  501  502  0.00000000000E+00  0.00000000000E+00  0.21883016074E+01  0.21883016074E+01  0.00000000000E+00 0. -1.
         13   -1    0    0    0    0 -0.00000000000E+00 -0.00000000000E+00 -0.10000000000E+04  0.10000000000E+04  0.00000000000E+00 0.  1.
    9000005    2    1    2  501    0  0.31218563802E+02 -0.13846737361E+02 -0.84096724970E+03  0.84166879517E+03  0.37569712245E+01 0.  0.
         13    1    3    3    0    0  0.26313481346E+02 -0.12072650512E+02 -0.67732656948E+03  0.67794500508E+03  0.00000000000E+00 0.  1.
          1    1    3    3  501    0  0.49050824560E+01 -0.17740868488E+01 -0.16364068022E+03  0.16372379009E+03  0.00000000000E+00 0.  1.
         -1    1    1    2    0  502 -0.31218563802E+02  0.13846737361E+02 -0.15684444869E+03  0.16051950644E+03  0.00000000000E+00 0. -1.
<mgrwt>
<rscale>  1 0.30000000E+03</rscale>
<asrwt>0</asrwt>
<pdfrwt beam="1">  1       21 0.79574772E-02 0.30000000E+03</pdfrwt>
<pdfrwt beam="2">0</pdfrwt>
<totfact> 0.12893990E+04</totfact>
</mgrwt>
</event>
<event>
 6    1  0.1270461E-001  0.3000000E+03  0.7818608E-02  0.1093470E+00
         21   -1    0    0  501  502  0.00000000000E+00  0.00000000000E+00  0.17719954319E+01  0.17719954319E+01  0.00000000000E+00 0. -1.
         13   -1    0    0    0    0 -0.00000000000E+00 -0.00000000000E+00 -0.10000000000E+04  0.10000000000E+04  0.00000000000E+00 0.  1.
    9000005    2    1    2  501    0 -0.19694357160E+02  0.36071812662E+02 -0.39541167622E+03  0.39755633104E+03  0.34057725405E+01 0.  0.
         13    1    3    3    0    0 -0.84060339816E+01  0.15377295744E+02 -0.18504771241E+03  0.18587570713E+03  0.00000000000E+00 0.  1.
          3    1    3    3  501    0 -0.11288323178E+02  0.20694516918E+02 -0.21036396381E+03  0.21168062391E+03  0.00000000000E+00 0.  1.
         -3    1    1    2    0  502  0.19694357160E+02 -0.36071812662E+02 -0.60281632835E+03  0.60421566439E+03  0.00000000000E+00 0. -1.
<mgrwt>
<rscale>  1 0.30000000E+03</rscale>
<asrwt>0</asrwt>
<pdfrwt beam="1">  1       21 0.64436333E-02 0.30000000E+03</pdfrwt>
<pdfrwt beam="2">0</pdfrwt>
<totfact> 0.18628785E+04</totfact>
</mgrwt>
</event>
<event>
 6    1  0.1270461E-001  0.3000000E+03  0.7818608E-02  0.1093470E+00
         21   -1    0    0  501  502  0.00000000000E+00  0.00000000000E+00  0.24022221985E+01  0.24022221985E+01  0.00000000000E+00 0. -1.
         13   -1    0    0    0    0 -0.00000000000E+00 -0.00000000000E+00 -0.10000000000E+04  0.10000000000E+04  0.00000000000E+00 0.  1.
    9000005    2    1    2  501    0  0.40970884633E+02 -0.94038462112E+01 -0.75610068719E+03  0.75727390787E+03  0.29114707224E+01 0.  0.
         13    1    3    3    0    0  0.40188177263E+02 -0.88148993961E+01 -0.74121762827E+03  0.74235864951E+03  0.00000000000E+00 0.  1.
          1    1    3    3  501    0  0.78270737034E+00 -0.58894681508E+00 -0.14883058919E+02  0.14915258360E+02  0.00000000000E+00 0.  1.
         -1    1    1    2    0  502 -0.40970884633E+02  0.94038462112E+01 -0.24149709061E+03  0.24512831433E+03  0.00000000000E+00 0. -1.
<mgrwt>
<rscale>  1 0.30000000E+03</rscale>
<asrwt>0</asrwt>
<pdfrwt beam="1">  1       21 0.87353719E-02 0.30000000E+03</pdfrwt>
<pdfrwt beam="2">0</pdfrwt>
<totfact> 0.10940822E+04</totfact>
</mgrwt>
</event>
<event>
 6    1  0.1270461E-001  0.3000000E+03  0.7818608E-02  0.1093470E+00
         21   -1    0    0  501  502  0.00000000000E+00  0.00000000000E+00  0.11762685643E+01  0.11762685643E+01  0.00000000000E+00 0. -1.
         13   -1    0    0    0    0 -0.00000000000E+00 -0.00000000000E+00 -0.10000000000E+04  0.10000000000E+04  0.00000000000E+00 0.  1.
    9000005    2    1    2  501    0  0.23748635639E+02  0.24018916635E+02 -0.57889363415E+03  0.57988991386E+03  0.36832716153E+01 0.  0.
         13    1    3    3    0    0  0.20901423906E+02  0.19439042836E+02 -0.47600219484E+03  0.47685724845E+03  0.00000000000E+00 0.  1.
          1    1    3    3  501    0  0.28472117328E+01  0.45798737992E+01 -0.10289143931E+03  0.10303266542E+03  0.00000000000E+00 0.  1.
         -1    1    1    2    0  502 -0.23748635639E+02 -0.24018916635E+02 -0.41993009728E+03  0.42128635470E+03  0.00000000000E+00 0. -1.
<mgrwt>
<rscale>  1 0.30000000E+03</rscale>
<asrwt>0</asrwt>
<pdfrwt beam="1">  1       21 0.42773493E-02 0.30000000E+03</pdfrwt>
<pdfrwt beam="2">0</pdfrwt>
<totfact> 0.37550601E+04</totfact>
</mgrwt>
</event>
<event>
 6    1  0.1270461E-001  0.3000000E+03  0.7818608E-02  0.1093470E+00
         21   -1    0    0  501  502  0.00000000000E+00  0.00000000000E+00  0.10602106179E+01  0.10602106179E+01  0.00000000000E+00 0. -1.
         13   -1    0    0    0    0 -0.00000000000E+00 -0.00000000000E+00 -0.10000000000E+04  0.10000000000E+04  0.00000000000E+00 0.  1.
    9000005    2    1    2  501    0 -0.26412387856E+02 -0.17968439270E+02 -0.41124765408E+03  0.41250050682E+03  0.33994258405E+01 0.  0.
         13    1    3    3    0    0 -0.64780679838E+01 -0.46511634238E+01 -0.12253311816E+03  0.12279236024E+03  0.00000000000E+00 0.  1.
          1    1    3    3  501    0 -0.19934319872E+02 -0.13317275846E+02 -0.28871453592E+03  0.28970814658E+03  0.00000000000E+00 0.  1.
         -1    1    1    2    0  502  0.26412387856E+02  0.17968439270E+02 -0.58769213530E+03  0.58855970380E+03  0.00000000000E+00 0. -1.
<mgrwt>
<rscale>  1 0.30000000E+03</rscale>
<asrwt>0</asrwt>
<pdfrwt beam="1">  1       21 0.38553195E-02 0.30000000E+03</pdfrwt>
<pdfrwt beam="2">0</pdfrwt>
<totfact> 0.44736139E+04</totfact>
</mgrwt>
</event>
<event>
 6    1  0.1270461E-001  0.3000000E+03  0.7818608E-02  0.1093470E+00
         21   -1    0    0  501  502  0.00000000000E+00  0.00000000000E+00  0.29629839898E+01  0.29629839898E+01  0.00000000000E+00 0. -1.
         13   -1    0    0    0    0 -0.00000000000E+00 -0.00000000000E+00 -0.10000000000E+04  0.10000000000E+04  0.00000000000E+00 0.  1.
    9000005    2    1    2  501    0 -0.43463823199E+02 -0.20359501268E+02 -0.73457224473E+03  0.73614587550E+03  0.32793400218E+01 0.  0.
         13    1    3    3    0    0 -0.10098595609E+02 -0.60397013170E+01 -0.19170996779E+03  0.19207074576E+03  0.00000000000E+00 0.  1.
          1    1    3    3  501    0 -0.33365227590E+02 -0.14319799951E+02 -0.54286227694E+03  0.54407512975E+03  0.00000000000E+00 0.  1.
         -1    1    1    2    0  502  0.43463823199E+02  0.20359501268E+02 -0.26246477128E+03  0.26681710849E+03  0.00000000000E+00 0. -1.
<mgrwt>
<rscale>  1 0.30000000E+03</rscale>
<asrwt>0</asrwt>
<pdfrwt beam="1">  1       21 0.10774510E-01 0.30000000E+03</pdfrwt>
<pdfrwt beam="2">0</pdfrwt>
<totfact> 0.75271167E+03</totfact>
</mgrwt>
</event>
<event>
 6    1  0.1270461E-001  0.3000000E+03  0.7818608E-02  0.1093470E+00
         21   -1    0    0  501  502  0.00000000000E+00  0.00000000000E+00  0.51469131202E+01  0.51469131202E+01  0.00000000000E+00 0. -1.
         13   -1    0    0    0    0 -0.00000000000E+00 -0.00000000000E+00 -0.10000000000E+04  0.10000000000E+04  0.00000000000E+00 0.  1.
    9000005    2    1    2  501    0  0.61024708835E+02 -0.34130452189E+02 -0.60909192903E+03  0.61310026569E+03  0.31709502786E+01 0.  0.
         13    1    3    3    0    0  0.10995110739E+02 -0.75261143083E+01 -0.11315355006E+03  0.11393533581E+03  0.00000000000E+00 0.  1.
          1    1    3    3  501    0  0.50029598096E+02 -0.26604337881E+02 -0.49593837898E+03  0.49916492988E+03  0.00000000000E+00 0.  1.
         -3    1    1    2    0  502 -0.61024708835E+02  0.34130452189E+02 -0.38576115785E+03  0.39204664743E+03  0.00000000000E+00 0. -1.
<mgrwt>
<rscale>  1 0.30000000E+03</rscale>
<asrwt>0</asrwt>
<pdfrwt beam="1">  1       21 0.18716087E-01 0.30000000E+03</pdfrwt>
<pdfrwt beam="2">0</pdfrwt>
<totfact> 0.27215834E+03</totfact>
</mgrwt>
</event>
<event>
 6    1  0.1270461E-001  0.3000000E+03  0.7818608E-02  0.1093470E+00
         21   -1    0    0  501  502  0.00000000000E+00  0.00000000000E+00  0.18918116780E+01  0.18918116780E+01  0.00000000000E+00 0. -1.
         13   -1    0    0    0    0 -0.00000000000E+00 -0.00000000000E+00 -0.10000000000E+04  0.10000000000E+04  0.00000000000E+00 0.  1.
    9000005    2    1    2  501    0  0.26658565930E+02 -0.34018124827E+02 -0.51636100686E+03  0.51820983061E+03  0.66953111167E+01 0.  0.
         13    1    3    3    0    0  0.12231456899E+02 -0.10564211800E+02 -0.18081613749E+03  0.18153701188E+03  0.00000000000E+00 0.  1.
          1    1    3    3  501    0  0.14427109030E+02 -0.23453913027E+02 -0.33554486937E+03  0.33667281873E+03  0.00000000000E+00 0.  1.
         -1    1    1    2    0  502 -0.26658565930E+02  0.34018124827E+02 -0.48174718147E+03  0.48368198106E+03  0.00000000000E+00 0. -1.
<mgrwt>
<rscale>  1 0.30000000E+03</rscale>
<asrwt>0</asrwt>
<pdfrwt beam="1">  1       21 0.68793297E-02 0.30000000E+03</pdfrwt>
<pdfrwt beam="2">0</pdfrwt>
<totfact> 0.16630699E+04</totfact>
</mgrwt>
</event>
<event>
 6    1  0.1270461E-001  0.3000000E+03  0.7818608E-02  0.1093470E+00
         21   -1    0    0  501  502  0.00000000000E+00  0.00000000000E+00  0.29081216411E+01  0.29081216411E+01  0.00000000000E+00 0. -1.
         13   -1    0    0    0    0 -0.00000000000E+00 -0.00000000000E+00 -0.10000000000E+04  0.10000000000E+04  0.00000000000E+00 0.  1.
    9000005    2    1    2  501    0  0.36779556388E+02  0.19368821070E+02 -0.81736322425E+03  0.81843515314E+03  0.50569309341E+01 0.  0.
         13    1    3    3    0    0  0.36486480235E+01  0.40949194340E+00 -0.81079428694E+02  0.81162516431E+02  0.00000000000E+00 0.  1.
          1    1    3    3  501    0  0.33130908364E+02  0.18959329127E+02 -0.73628379555E+03  0.73727263671E+03  0.00000000000E+00 0.  1.
         -1    1    1    2    0  502 -0.36779556388E+02 -0.19368821070E+02 -0.17972865411E+03  0.18447296850E+03  0.00000000000E+00 0. -1.
<mgrwt>
<rscale>  1 0.30000000E+03</rscale>
<asrwt>0</asrwt>
<pdfrwt beam="1">  1       21 0.10575010E-01 0.30000000E+03</pdfrwt>
<pdfrwt beam="2">0</pdfrwt>
<totfact> 0.77838824E+03</totfact>
</mgrwt>
</event>
<event>
 6    1  0.1270461E-001  0.3000000E+03  0.7818608E-02  0.1093470E+00
         21   -1    0    0  501  502  0.00000000000E+00  0.00000000000E+00  0.20765780121E+01  0.20765780121E+01  0.00000000000E+00 0. -1.
         13   -1    0    0    0    0 -0.00000000000E+00 -0.00000000000E+00 -0.10000000000E+04  0.10000000000E+04  0.00000000000E+00 0.  1.
    9000005    2    1    2  501    0  0.26472272499E+02  0.29538067867E+02 -0.74483646040E+03  0.74590029341E+03  0.35519445196E+01 0.  0.
         13    1    3    3    0    0  0.17666704654E+02  0.20519351812E+02 -0.53657912965E+03  0.53726187155E+03  0.00000000000E+00 0.  1.
          1    1    3    3  501    0  0.88055678452E+01  0.90187160552E+01 -0.20825733075E+03  0.20863842186E+03  0.00000000000E+00 0.  1.
         -3    1    1    2    0  502 -0.26472272499E+02 -0.29538067867E+02 -0.25308696159E+03  0.25617628460E+03  0.00000000000E+00 0. -1.
<mgrwt>
<rscale>  1 0.30000000E+03</rscale>
<asrwt>0</asrwt>
<pdfrwt beam="1">  1       21 0.75512087E-02 0.30000000E+03</pdfrwt>
<pdfrwt beam="2">0</pdfrwt>
<totfact> 0.14135026E+04</totfact>
</mgrwt>
</event>
<event>
 6    1  0.1270461E-001  0.3000000E+03  0.7818608E-02  0.1093470E+00
         21   -1    0    0  501  502  0.00000000000E+00  0.00000000000E+00  0.19703507062E+01  0.19703507062E+01  0.00000000000E+00 0. -1.
         13   -1    0    0    0    0 -0.00000000000E+00 -0.00000000000E+00 -0.10000000000E+04  0.10000000000E+04  0.00000000000E+00 0.  1.
    9000005    2    1    2  501    0  0.35598758859E+02  0.14105174194E+02 -0.26953137064E+03  0.27246643052E+03  0.11161022699E+02 0.  0.
         13    1    3    3    0    0  0.16263257496E+02  0.20112933277E+01 -0.13837967511E+03  0.13934659425E+03  0.00000000000E+00 0.  1.
          3    1    3    3  501    0  0.19335501363E+02  0.12093880867E+02 -0.13115169553E+03  0.13311983627E+03  0.00000000000E+00 0.  1.
         -3    1    1    2    0  502 -0.35598758859E+02 -0.14105174194E+02 -0.72849827865E+03  0.72950392019E+03  0.00000000000E+00 0. -1.
<mgrwt>
<rscale>  1 0.30000000E+03</rscale>
<asrwt>0</asrwt>
<pdfrwt beam="1">  1       21 0.71649268E-02 0.30000000E+03</pdfrwt>
<pdfrwt beam="2">0</pdfrwt>
<totfact> 0.15493814E+04</totfact>
</mgrwt>
</event>
<event>
 6    1  0.1270461E-001  0.3000000E+03  0.7818608E-02  0.1093470E+00
         21   -1    0    0  501  502  0.00000000000E+00  0.00000000000E+00  0.63115609421E+01  0.63115609421E+01  0.00000000000E+00 0. -1.
         13   -1    0    0    0    0 -0.00000000000E+00 -0.00000000000E+00 -0.10000000000E+04  0.10000000000E+04  0.00000000000E+00 0.  1.
    9000005    2    1    2  501    0  0.67375298726E+01 -0.63350597868E+02 -0.79731272839E+03  0.79986032627E+03  0.32034547090E+01 0.  0.
         13    1    3    3    0    0  0.77811318366E+00 -0.13924193547E+02 -0.18899470623E+03  0.18950854231E+03  0.00000000000E+00 0.  1.
          1    1    3    3  501    0  0.59594166889E+01 -0.49426404321E+02 -0.60831802216E+03  0.61035178396E+03  0.00000000000E+00 0.  1.
         -3    1    1    2    0  502 -0.67375298726E+01  0.63350597868E+02 -0.19637571066E+03  0.20645123467E+03  0.00000000000E+00 0. -1.
<mgrwt>
<rscale>  1 0.30000000E+03</rscale>
<asrwt>0</asrwt>
<pdfrwt beam="1">  1       21 0.22951179E-01 0.30000000E+03</pdfrwt>
<pdfrwt beam="2">0</pdfrwt>
<totfact> 0.18418339E+03</totfact>
</mgrwt>
</event>
<event>
 6    1  0.1270461E-001  0.3000000E+03  0.7818608E-02  0.1093470E+00
         21   -1    0    0  501  502  0.00000000000E+00  0.00000000000E+00  0.51911715061E+01  0.51911715061E+01  0.00000000000E+00 0. -1.
         13   -1    0    0    0    0 -0.00000000000E+00 -0.00000000000E+00 -0.10000000000E+04  0.10000000000E+04  0.00000000000E+00 0.  1.
    9000005    2    1    2  501    0  0.23651355355E+02 -0.21867476207E+02 -0.94694072841E+03  0.94749430737E+03  0.33385994965E+01 0.  0.
         13    1    3    3    0    0  0.99304591068E+00 -0.14427824025E+01 -0.74028258681E+02  0.74048975986E+02  0.00000000000E+00 0.  1.
          3    1    3    3  501    0  0.22658309444E+02 -0.20424693804E+02 -0.87291246973E+03  0.87344533138E+03  0.00000000000E+00 0.  1.
         -1    1    1    2    0  502 -0.23651355355E+02  0.21867476207E+02 -0.47868100085E+02  0.57696864140E+02  0.00000000000E+00 0. -1.
<mgrwt>
<rscale>  1 0.30000000E+03</rscale>
<asrwt>0</asrwt>
<pdfrwt beam="1">  1       21 0.18877027E-01 0.30000000E+03</pdfrwt>
<pdfrwt beam="2">0</pdfrwt>
<totfact> 0.26778305E+03</totfact>
</mgrwt>
</event>
<event>
 6    1  0.1270461E-001  0.3000000E+03  0.7818608E-02  0.1093470E+00
         21   -1    0    0  501  502  0.00000000000E+00  0.00000000000E+00  0.27214944184E+01  0.27214944184E+01  0.00000000000E+00 0. -1.
         13   -1    0    0    0    0 -0.00000000000E+00 -0.00000000000E+00 -0.10000000000E+04  0.10000000000E+04  0.00000000000E+00 0.  1.
    9000005    2    1    2  501    0 -0.48683838382E+02  0.15685562597E+02 -0.41870967055E+03  0.42189617656E+03  0.79020625000E+01 0.  0.
         13    1    3    3    0    0 -0.47491882266E+02  0.15550128873E+02 -0.41498573374E+03  0.41798378509E+03  0.00000000000E+00 0.  1.
          3    1    3    3  501    0 -0.11919561161E+01  0.13543372335E+00 -0.37239368121E+01  0.39123914754E+01  0.00000000000E+00 0.  1.
         -3    1    1    2    0  502  0.48683838382E+02 -0.15685562597E+02 -0.57856883503E+03  0.58082531785E+03  0.00000000000E+00 0. -1.
<mgrwt>
<rscale>  1 0.30000000E+03</rscale>
<asrwt>0</asrwt>
<pdfrwt beam="1">  1       21 0.98963642E-02 0.30000000E+03</pdfrwt>
<pdfrwt beam="2">0</pdfrwt>
<totfact> 0.87647930E+03</totfact>
</mgrwt>
</event>
<event>
 6    1  0.1270461E-001  0.3000000E+03  0.7818608E-02  0.1093470E+00
         21   -1    0    0  501  502  0.00000000000E+00  0.00000000000E+00  0.35723522137E+01  0.35723522137E+01  0.00000000000E+00 0. -1.
         13   -1    0    0    0    0 -0.00000000000E+00 -0.00000000000E+00 -0.10000000000E+04  0.10000000000E+04  0.00000000000E+00 0.  1.
    9000005    2    1    2  501    0 -0.28029659256E+02 -0.27131063016E+02 -0.87824168938E+03  0.87911482074E+03  0.35562177749E+01 0.  0.
         13    1    3    3    0    0 -0.51540281302E+01 -0.32065565150E+01 -0.13473506534E+03  0.13487173108E+03  0.00000000000E+00 0.  1.
          3    1    3    3  501    0 -0.22875631126E+02 -0.23924506501E+02 -0.74350662404E+03  0.74424308966E+03  0.00000000000E+00 0.  1.
         -1    1    1    2    0  502  0.28029659256E+02  0.27131063016E+02 -0.11818595840E+03  0.12445753148E+03  0.00000000000E+00 0. -1.
<mgrwt>
<rscale>  1 0.30000000E+03</rscale>
<asrwt>0</asrwt>
<pdfrwt beam="1">  1       21 0.12990399E-01 0.30000000E+03</pdfrwt>
<pdfrwt beam="2">0</pdfrwt>
<totfact> 0.53637558E+03</totfact>
</mgrwt>
</event>
<event>
 6    1  0.1270461E-001  0.3000000E+03  0.7818608E-02  0.1093470E+00
         21   -1    0    0  501  502  0.00000000000E+00  0.00000000000E+00  0.11237640016E+01  0.11237640016E+01  0.00000000000E+00 0. -1.
         13   -1    0    0    0    0 -0.00000000000E+00 -0.00000000000E+00 -0.10000000000E+04  0.10000000000E+04  0.00000000000E+00 0.  1.
    9000005    2    1    2  501    0 -0.33086811891E+02 -0.44787459517E+01 -0.52532035986E+03  0.52639229874E+03  0.35461810985E+01 0.  0.
         13    1    3    3    0    0 -0.32987315454E+02 -0.41678439514E+01 -0.52044403675E+03  0.52150506162E+03  0.00000000000E+00 0.  1.
          3    1    3    3  501    0 -0.99496437689E-01 -0.31090200034E+00 -0.48763231066E+01  0.48872371167E+01  0.00000000000E+00 0.  1.
         -1    1    1    2    0  502  0.33086811891E+02  0.44787459517E+01 -0.47355587614E+03  0.47473146527E+03  0.00000000000E+00 0. -1.
<mgrwt>
<rscale>  1 0.30000000E+03</rscale>
<asrwt>0</asrwt>
<pdfrwt beam="1">  1       21 0.40864232E-02 0.30000000E+03</pdfrwt>
<pdfrwt beam="2">0</pdfrwt>
<totfact> 0.40559838E+04</totfact>
</mgrwt>
</event>
<event>
 6    1  0.1270461E-001  0.3000000E+03  0.7818608E-02  0.1093470E+00
         21   -1    0    0  501  502  0.00000000000E+00  0.00000000000E+00  0.33675163254E+01  0.33675163254E+01  0.00000000000E+00 0. -1.
         13   -1    0    0    0    0 -0.00000000000E+00 -0.00000000000E+00 -0.10000000000E+04  0.10000000000E+04  0.00000000000E+00 0.  1.
    9000005    2    1    2  501    0  0.35021885619E+02  0.35342814686E+02 -0.75404004466E+03  0.75572515628E+03  0.82750141852E+01 0.  0.
         13    1    3    3    0    0  0.16622873388E+02  0.17882438277E+02 -0.43088326634E+03  0.43157443243E+03  0.00000000000E+00 0.  1.
          1    1    3    3  501    0  0.18399012231E+02  0.17460376409E+02 -0.32315677832E+03  0.32415072385E+03  0.00000000000E+00 0.  1.
         -3    1    1    2    0  502 -0.35021885619E+02 -0.35342814686E+02 -0.24259243901E+03  0.24764236004E+03  0.00000000000E+00 0. -1.
<mgrwt>
<rscale>  1 0.30000000E+03</rscale>
<asrwt>0</asrwt>
<pdfrwt beam="1">  1       21 0.12245540E-01 0.30000000E+03</pdfrwt>
<pdfrwt beam="2">0</pdfrwt>
<totfact> 0.59731771E+03</totfact>
</mgrwt>
</event>
<event>
 6    1  0.1270461E-001  0.3000000E+03  0.7818608E-02  0.1093470E+00
         21   -1    0    0  501  502  0.00000000000E+00  0.00000000000E+00  0.34376274093E+01  0.34376274093E+01  0.00000000000E+00 0. -1.
         13   -1    0    0    0    0 -0.00000000000E+00 -0.00000000000E+00 -0.10000000000E+04  0.10000000000E+04  0.00000000000E+00 0.  1.
    9000005    2    1    2  501    0  0.27296575985E+02  0.21266830952E+02 -0.90327198132E+03  0.90393648037E+03  0.18727364234E+01 0.  0.
         13    1    3    3    0    0  0.25502019699E+02  0.20224944804E+02 -0.83944294290E+03  0.84007372045E+03  0.00000000000E+00 0.  1.
          3    1    3    3  501    0  0.17945562861E+01  0.10418861486E+01 -0.63829038419E+02  0.63862759920E+02  0.00000000000E+00 0.  1.
         -1    1    1    2    0  502 -0.27296575985E+02 -0.21266830952E+02 -0.93290391270E+02  0.99501147041E+02  0.00000000000E+00 0. -1.
<mgrwt>
<rscale>  1 0.30000000E+03</rscale>
<asrwt>0</asrwt>
<pdfrwt beam="1">  1       21 0.12500490E-01 0.30000000E+03</pdfrwt>
<pdfrwt beam="2">0</pdfrwt>
<totfact> 0.57532837E+03</totfact>
</mgrwt>
</event>
<event>
 6    1  0.1270461E-001  0.3000000E+03  0.7818608E-02  0.1093470E+00
         21   -1    0    0  501  502  0.00000000000E+00  0.00000000000E+00  0.10007105908E+02  0.10007105908E+02  0.00000000000E+00 0. -1.
         13   -1    0    0    0    0 -0.00000000000E+00 -0.00000000000E+00 -0.10000000000E+04  0.10000000000E+04  0.00000000000E+00 0.  1.
    9000005    2    1    2  501    0  0.45241493943E+02  0.77317953902E+01 -0.94368971986E+03  0.94481080710E+03  0.32558276338E+01 0.  0.
         13    1    3    3    0    0  0.18666543417E+02  0.16179491692E+01 -0.37622418967E+03  0.37669045448E+03  0.00000000000E+00 0.  1.
          3    1    3    3  501    0  0.26574950525E+02  0.61138462210E+01 -0.56746553018E+03  0.56812035261E+03  0.00000000000E+00 0.  1.
         -1    1    1    2    0  502 -0.45241493943E+02 -0.77317953902E+01 -0.46303174236E+02  0.65196298810E+02  0.00000000000E+00 0. -1.
<mgrwt>
<rscale>  1 0.30000000E+03</rscale>
<asrwt>0</asrwt>
<pdfrwt beam="1">  1       21 0.36389553E-01 0.30000000E+03</pdfrwt>
<pdfrwt beam="2">0</pdfrwt>
<totfact> 0.73473298E+02</totfact>
</mgrwt>
</event>
<event>
 6    1  0.1270461E-001  0.3000000E+03  0.7818608E-02  0.1093470E+00
         21   -1    0    0  501  502  0.00000000000E+00  0.00000000000E+00  0.42838640412E+01  0.42838640412E+01  0.00000000000E+00 0. -1.
         13   -1    0    0    0    0 -0.00000000000E+00 -0.00000000000E+00 -0.10000000000E+04  0.10000000000E+04  0.00000000000E+00 0.  1.
    9000005    2    1    2  501    0 -0.18997216727E+02  0.30716027638E+02 -0.91657128684E+03  0.91728802655E+03  0.31672088499E+01 0.  0.
         13    1    3    3    0    0 -0.65151279704E+01  0.13491532641E+02 -0.37603436307E+03  0.37633271257E+03  0.00000000000E+00 0.  1.
          3    1    3    3  501    0 -0.12482088756E+02  0.17224494998E+02 -0.54053692377E+03  0.54095531398E+03  0.00000000000E+00 0.  1.
         -1    1    1    2    0  502  0.18997216727E+02 -0.30716027638E+02 -0.79144849123E+02  0.86995837486E+02  0.00000000000E+00 0. -1.
<mgrwt>
<rscale>  1 0.30000000E+03</rscale>
<asrwt>0</asrwt>
<pdfrwt beam="1">  1       21 0.15577720E-01 0.30000000E+03</pdfrwt>
<pdfrwt beam="2">0</pdfrwt>
<totfact> 0.38391959E+03</totfact>
</mgrwt>
</event>
<event>
 6    1  0.1270461E-001  0.3000000E+03  0.7818608E-02  0.1093470E+00
         21   -1    0    0  501  502  0.00000000000E+00  0.00000000000E+00  0.23193271063E+01  0.23193271063E+01  0.00000000000E+00 0. -1.
         13   -1    0    0    0    0 -0.00000000000E+00 -0.00000000000E+00 -0.10000000000E+04  0.10000000000E+04  0.00000000000E+00 0.  1.
    9000005    2    1    2  501    0 -0.35289765906E+02  0.53748942822E+01 -0.83491400254E+03  0.83568425863E+03  0.35399756503E+01 0.  0.
         13    1    3    3    0    0 -0.12449991502E+02  0.22232323499E+01 -0.25815525985E+03  0.25846485881E+03  0.00000000000E+00 0.  1.
          3    1    3    3  501    0 -0.22839774404E+02  0.31516619324E+01 -0.57675874269E+03  0.57721939982E+03  0.00000000000E+00 0.  1.
         -3    1    1    2    0  502  0.35289765906E+02 -0.53748942822E+01 -0.16276667035E+03  0.16663506847E+03  0.00000000000E+00 0. -1.
<mgrwt>
<rscale>  1 0.30000000E+03</rscale>
<asrwt>0</asrwt>
<pdfrwt beam="1">  1       21 0.84339345E-02 0.30000000E+03</pdfrwt>
<pdfrwt beam="2">0</pdfrwt>
<totfact> 0.11640281E+04</totfact>
</mgrwt>
</event>
<event>
 6    1  0.1270461E-001  0.3000000E+03  0.7818608E-02  0.1093470E+00
         21   -1    0    0  501  502  0.00000000000E+00  0.00000000000E+00  0.99832126462E+00  0.99832126462E+00  0.00000000000E+00 0. -1.
         13   -1    0    0    0    0 -0.00000000000E+00 -0.00000000000E+00 -0.10000000000E+04  0.10000000000E+04  0.00000000000E+00 0.  1.
    9000005    2    1    2  501    0 -0.26004417507E+02  0.17745881520E+02 -0.50265149945E+03  0.50365070991E+03  0.37896774884E+01 0.  0.
         13    1    3    3    0    0 -0.18614836651E+02  0.13820474234E+02 -0.39036407045E+03  0.39105194687E+03  0.00000000000E+00 0.  1.
          3    1    3    3  501    0 -0.73895808564E+01  0.39254072854E+01 -0.11228742899E+03  0.11259876304E+03  0.00000000000E+00 0.  1.
         -1    1    1    2    0  502  0.26004417507E+02 -0.17745881520E+02 -0.49635017929E+03  0.49734761136E+03  0.00000000000E+00 0. -1.
<mgrwt>
<rscale>  1 0.30000000E+03</rscale>
<asrwt>0</asrwt>
<pdfrwt beam="1">  1       21 0.36302668E-02 0.30000000E+03</pdfrwt>
<pdfrwt beam="2">0</pdfrwt>
<totfact> 0.49490476E+04</totfact>
</mgrwt>
</event>
<event>
 6    1  0.1270461E-001  0.3000000E+03  0.7818608E-02  0.1093470E+00
         21   -1    0    0  501  502  0.00000000000E+00  0.00000000000E+00  0.10170799439E+01  0.10170799439E+01  0.00000000000E+00 0. -1.
         13   -1    0    0    0    0 -0.00000000000E+00 -0.00000000000E+00 -0.10000000000E+04  0.10000000000E+04  0.00000000000E+00 0.  1.
    9000005    2    1    2  501    0  0.17976740478E+02 -0.24966044781E+02 -0.37563656195E+03  0.37691200165E+03  0.36556425847E+01 0.  0.
         13    1    3    3    0    0  0.22380591846E+01 -0.30981231081E+01 -0.33829806312E+02  0.34045015359E+02  0.00000000000E+00 0.  1.
          3    1    3    3  501    0  0.15738681293E+02 -0.21867921673E+02 -0.34180675564E+03  0.34286698629E+03  0.00000000000E+00 0.  1.
         -1    1    1    2    0  502 -0.17976740478E+02  0.24966044781E+02 -0.62334635811E+03  0.62410507830E+03  0.00000000000E+00 0. -1.
<mgrwt>
<rscale>  1 0.30000000E+03</rscale>
<asrwt>0</asrwt>
<pdfrwt beam="1">  1       21 0.36984803E-02 0.30000000E+03</pdfrwt>
<pdfrwt beam="2">0</pdfrwt>
<totfact> 0.47968502E+04</totfact>
</mgrwt>
</event>
<event>
 6    1  0.1270461E-001  0.3000000E+03  0.7818608E-02  0.1093470E+00
         21   -1    0    0  501  502  0.00000000000E+00  0.00000000000E+00  0.25432250169E+01  0.25432250169E+01  0.00000000000E+00 0. -1.
         13   -1    0    0    0    0 -0.00000000000E+00 -0.00000000000E+00 -0.10000000000E+04  0.10000000000E+04  0.00000000000E+00 0.  1.
    9000005    2    1    2  501    0 -0.39697445794E+02  0.24101127692E+02 -0.69320962799E+03  0.69477207950E+03  0.34500083874E+01 0.  0.
         13    1    3    3    0    0 -0.26547771865E+02  0.16004698174E+02 -0.43785875187E+03  0.43895469144E+03  0.00000000000E+00 0.  1.
          3    1    3    3  501    0 -0.13149673929E+02  0.80964295178E+01 -0.25535087612E+03  0.25581738806E+03  0.00000000000E+00 0.  1.
         -3    1    1    2    0  502  0.39697445794E+02 -0.24101127692E+02 -0.30424714699E+03  0.30777114552E+03  0.00000000000E+00 0. -1.
<mgrwt>
<rscale>  1 0.30000000E+03</rscale>
<asrwt>0</asrwt>
<pdfrwt beam="1">  1       21 0.92481105E-02 0.30000000E+03</pdfrwt>
<pdfrwt beam="2">0</pdfrwt>
<totfact> 0.98893180E+03</totfact>
</mgrwt>
</event>
<event>
 6    1  0.1270461E-001  0.3000000E+03  0.7818608E-02  0.1093470E+00
         21   -1    0    0  501  502  0.00000000000E+00  0.00000000000E+00  0.60178737400E+01  0.60178737400E+01  0.00000000000E+00 0. -1.
         13   -1    0    0    0    0 -0.00000000000E+00 -0.00000000000E+00 -0.10000000000E+04  0.10000000000E+04  0.00000000000E+00 0.  1.
    9000005    2    1    2  501    0 -0.16253900139E+02  0.33054695026E+02 -0.93963995713E+03  0.94036824709E+03  0.35197977063E+01 0.  0.
         13    1    3    3    0    0 -0.10199676169E+02  0.18008286364E+02 -0.55864045974E+03  0.55902369809E+03  0.00000000000E+00 0.  1.
          3    1    3    3  501    0 -0.60542239704E+01  0.15046408662E+02 -0.38099949739E+03  0.38134454900E+03  0.00000000000E+00 0.  1.
         -1    1    1    2    0  502  0.16253900139E+02 -0.33054695026E+02 -0.54342169134E+02  0.65649626649E+02  0.00000000000E+00 0. -1.
<mgrwt>
<rscale>  1 0.30000000E+03</rscale>
<asrwt>0</asrwt>
<pdfrwt beam="1">  1       21 0.21883223E-01 0.30000000E+03</pdfrwt>
<pdfrwt beam="2">0</pdfrwt>
<totfact> 0.20191729E+03</totfact>
</mgrwt>
</event>
<event>
 6    1  0.1270461E-001  0.3000000E+03  0.7818608E-02  0.1093470E+00
         21   -1    0    0  501  502  0.00000000000E+00  0.00000000000E+00  0.92532539472E+00  0.92532539472E+00  0.00000000000E+00 0. -1.
         13   -1    0    0    0    0 -0.00000000000E+00 -0.00000000000E+00 -0.10000000000E+04  0.10000000000E+04  0.00000000000E+00 0.  1.
    9000005    2    1    2  501    0 -0.81301375268E+01  0.29064985557E+02 -0.54609901654E+03  0.54694534861E+03  0.37690819496E+01 0.  0.
         13    1    3    3    0    0 -0.25041234215E+01  0.13771336738E+02 -0.22806713308E+03  0.22849625279E+03  0.00000000000E+00 0.  1.
          3    1    3    3  501    0 -0.56260141053E+01  0.15293648819E+02 -0.31803188346E+03  0.31844909582E+03  0.00000000000E+00 0.  1.
         -1    1    1    2    0  502  0.81301375268E+01 -0.29064985557E+02 -0.45297565806E+03  0.45397997678E+03  0.00000000000E+00 0. -1.
<mgrwt>
<rscale>  1 0.30000000E+03</rscale>
<asrwt>0</asrwt>
<pdfrwt beam="1">  1       21 0.33648267E-02 0.30000000E+03</pdfrwt>
<pdfrwt beam="2">0</pdfrwt>
<totfact> 0.56198875E+04</totfact>
</mgrwt>
</event>
<event>
 6    1  0.1270461E-001  0.3000000E+03  0.7818608E-02  0.1093470E+00
         21   -1    0    0  501  502  0.00000000000E+00  0.00000000000E+00  0.41751443126E+01  0.41751443126E+01  0.00000000000E+00 0. -1.
         13   -1    0    0    0    0 -0.00000000000E+00 -0.00000000000E+00 -0.10000000000E+04  0.10000000000E+04  0.00000000000E+00 0.  1.
    9000005    2    1    2  501    0 -0.22749411695E+02  0.55744315979E+02 -0.31676099331E+03  0.32244741737E+03  0.31377681411E+01 0.  0.
         13    1    3    3    0    0 -0.16556295327E+02  0.41188002879E+02 -0.22605848122E+03  0.23037577873E+03  0.00000000000E+00 0.  1.
          3    1    3    3  501    0 -0.61931163676E+01  0.14556313100E+02 -0.90702512091E+02  0.92071638636E+02  0.00000000000E+00 0.  1.
         -1    1    1    2    0  502  0.22749411695E+02 -0.55744315979E+02 -0.67906386238E+03  0.68172772694E+03  0.00000000000E+00 0. -1.
<mgrwt>
<rscale>  1 0.30000000E+03</rscale>
<asrwt>0</asrwt>
<pdfrwt beam="1">  1       21 0.15182375E-01 0.30000000E+03</pdfrwt>
<pdfrwt beam="2">0</pdfrwt>
<totfact> 0.40268802E+03</totfact>
</mgrwt>
</event>
<event>
 6    1  0.1270461E-001  0.3000000E+03  0.7818608E-02  0.1093470E+00
         21   -1    0    0  501  502  0.00000000000E+00  0.00000000000E+00  0.58194348482E+01  0.58194348482E+01  0.00000000000E+00 0. -1.
         13   -1    0    0    0    0 -0.00000000000E+00 -0.00000000000E+00 -0.10000000000E+04  0.10000000000E+04  0.00000000000E+00 0.  1.
    9000005    2    1    2  501    0 -0.50964018675E+02 -0.58216688907E+01 -0.86914765824E+03  0.87067339962E+03  0.48263802727E+01 0.  0.
         13    1    3    3    0    0 -0.50934089740E+02 -0.55384761405E+01 -0.86498256364E+03  0.86649858142E+03  0.00000000000E+00 0.  1.
          3    1    3    3  501    0 -0.29928934678E-01 -0.28319275021E+00 -0.41650946066E+01  0.41748181945E+01  0.00000000000E+00 0.  1.
         -3    1    1    2    0  502  0.50964018675E+02  0.58216688907E+01 -0.12503290691E+03  0.13514603523E+03  0.00000000000E+00 0. -1.
<mgrwt>
<rscale>  1 0.30000000E+03</rscale>
<asrwt>0</asrwt>
<pdfrwt beam="1">  1       21 0.21161626E-01 0.30000000E+03</pdfrwt>
<pdfrwt beam="2">0</pdfrwt>
<totfact> 0.21535283E+03</totfact>
</mgrwt>
</event>
<event>
 6    1  0.1270461E-001  0.3000000E+03  0.7818608E-02  0.1093470E+00
         21   -1    0    0  501  502  0.00000000000E+00  0.00000000000E+00  0.38906520808E+01  0.38906520808E+01  0.00000000000E+00 0. -1.
         13   -1    0    0    0    0 -0.00000000000E+00 -0.00000000000E+00 -0.10000000000E+04  0.10000000000E+04  0.00000000000E+00 0.  1.
    9000005    2    1    2  501    0 -0.26265830674E+02 -0.24155292804E+02 -0.90966971444E+03  0.91037497282E+03  0.31983962077E+01 0.  0.
         13    1    3    3    0    0 -0.49139897410E+00 -0.12071573265E+01 -0.38225893087E+02  0.38248105888E+02  0.00000000000E+00 0.  1.
          1    1    3    3  501    0 -0.25774431699E+02 -0.22948135478E+02 -0.87144382135E+03  0.87212686693E+03  0.00000000000E+00 0.  1.
         -3    1    1    2    0  502  0.26265830674E+02  0.24155292804E+02 -0.86439633484E+02  0.93515679264E+02  0.00000000000E+00 0. -1.
<mgrwt>
<rscale>  1 0.30000000E+03</rscale>
<asrwt>0</asrwt>
<pdfrwt beam="1">  1       21 0.14147856E-01 0.30000000E+03</pdfrwt>
<pdfrwt beam="2">0</pdfrwt>
<totfact> 0.45872262E+03</totfact>
</mgrwt>
</event>
<event>
 6    1  0.1270461E-001  0.3000000E+03  0.7818608E-02  0.1093470E+00
         21   -1    0    0  501  502  0.00000000000E+00  0.00000000000E+00  0.57130353344E+01  0.57130353344E+01  0.00000000000E+00 0. -1.
         13   -1    0    0    0    0 -0.00000000000E+00 -0.00000000000E+00 -0.10000000000E+04  0.10000000000E+04  0.00000000000E+00 0.  1.
    9000005    2    1    2  501    0  0.62313311580E+02 -0.11763426795E+02 -0.77062946578E+03  0.77323937270E+03  0.28331886364E+01 0.  0.
         13    1    3    3    0    0  0.39731672151E+02 -0.73041984521E+01 -0.47427969654E+03  0.47599704582E+03  0.00000000000E+00 0.  1.
          3    1    3    3  501    0  0.22581639429E+02 -0.44592283426E+01 -0.29634976925E+03  0.29724232688E+03  0.00000000000E+00 0.  1.
         -1    1    1    2    0  502 -0.62313311580E+02  0.11763426795E+02 -0.22365749888E+03  0.23247366263E+03  0.00000000000E+00 0. -1.
<mgrwt>
<rscale>  1 0.30000000E+03</rscale>
<asrwt>0</asrwt>
<pdfrwt beam="1">  1       21 0.20774718E-01 0.30000000E+03</pdfrwt>
<pdfrwt beam="2">0</pdfrwt>
<totfact> 0.22310549E+03</totfact>
</mgrwt>
</event>
<event>
 6    1  0.1270461E-001  0.3000000E+03  0.7818608E-02  0.1093470E+00
         21   -1    0    0  501  502  0.00000000000E+00  0.00000000000E+00  0.39024400536E+01  0.39024400536E+01  0.00000000000E+00 0. -1.
         13   -1    0    0    0    0 -0.00000000000E+00 -0.00000000000E+00 -0.10000000000E+04  0.10000000000E+04  0.00000000000E+00 0.  1.
    9000005    2    1    2  501    0 -0.14019247759E+02  0.30401238498E+02 -0.92176436486E+03  0.92237821972E+03  0.33557815863E+01 0.  0.
         13    1    3    3    0    0 -0.24212648534E+01  0.59172380272E+01 -0.14325899731E+03  0.14340159183E+03  0.00000000000E+00 0.  1.
          3    1    3    3  501    0 -0.11597982906E+02  0.24484000471E+02 -0.77850536755E+03  0.77897662789E+03  0.00000000000E+00 0.  1.
         -1    1    1    2    0  502  0.14019247759E+02 -0.30401238498E+02 -0.74333195084E+02  0.81524220336E+02  0.00000000000E+00 0. -1.
<mgrwt>
<rscale>  1 0.30000000E+03</rscale>
<asrwt>0</asrwt>
<pdfrwt beam="1">  1       21 0.14190721E-01 0.30000000E+03</pdfrwt>
<pdfrwt beam="2">0</pdfrwt>
<totfact> 0.45617700E+03</totfact>
</mgrwt>
</event>
<event>
 6    1  0.1270461E-001  0.3000000E+03  0.7818608E-02  0.1093470E+00
         21   -1    0    0  501  502  0.00000000000E+00  0.00000000000E+00  0.10121996257E+01  0.10121996257E+01  0.00000000000E+00 0. -1.
         13   -1    0    0    0    0 -0.00000000000E+00 -0.00000000000E+00 -0.10000000000E+04  0.10000000000E+04  0.00000000000E+00 0.  1.
    9000005    2    1    2  501    0  0.24503831903E+02  0.20124834051E+02 -0.52881468051E+03  0.52977106245E+03  0.26392353495E+01 0.  0.
         13    1    3    3    0    0  0.16340136292E+02  0.12462471357E+02 -0.35896552317E+03  0.35955327849E+03  0.00000000000E+00 0.  1.
          1    1    3    3  501    0  0.81636956114E+01  0.76623626944E+01 -0.16984915733E+03  0.17021778396E+03  0.00000000000E+00 0.  1.
         -1    1    1    2    0  502 -0.24503831903E+02 -0.20124834051E+02 -0.47017311987E+03  0.47124113718E+03  0.00000000000E+00 0. -1.
<mgrwt>
<rscale>  1 0.30000000E+03</rscale>
<asrwt>0</asrwt>
<pdfrwt beam="1">  1       21 0.36807337E-02 0.30000000E+03</pdfrwt>
<pdfrwt beam="2">0</pdfrwt>
<totfact> 0.48357293E+04</totfact>
</mgrwt>
</event>
<event>
 6    1  0.1270461E-001  0.3000000E+03  0.7818608E-02  0.1093470E+00
         21   -1    0    0  501  502  0.00000000000E+00  0.00000000000E+00  0.15005713191E+01  0.15005713191E+01  0.00000000000E+00 0. -1.
         13   -1    0    0    0    0 -0.00000000000E+00 -0.00000000000E+00 -0.10000000000E+04  0.10000000000E+04  0.00000000000E+00 0.  1.
    9000005    2    1    2  501    0 -0.27221305418E+02 -0.23428820309E+02 -0.68492912189E+03  0.68588015628E+03  0.37118288133E+01 0.  0.
         13    1    3    3    0    0 -0.96087947877E+01 -0.10638378082E+02 -0.26678575673E+03  0.26717062717E+03  0.00000000000E+00 0.  1.
          3    1    3    3  501    0 -0.17612510630E+02 -0.12790442227E+02 -0.41814336515E+03  0.41870952911E+03  0.00000000000E+00 0.  1.
         -3    1    1    2    0  502  0.27221305418E+02  0.23428820309E+02 -0.31357030679E+03  0.31562041504E+03  0.00000000000E+00 0. -1.
<mgrwt>
<rscale>  1 0.30000000E+03</rscale>
<asrwt>0</asrwt>
<pdfrwt beam="1">  1       21 0.54566345E-02 0.30000000E+03</pdfrwt>
<pdfrwt beam="2">0</pdfrwt>
<totfact> 0.24808508E+04</totfact>
</mgrwt>
</event>
<event>
 6    1  0.1423210E-001  0.3000000E+03  0.7818608E-02  0.1093470E+00
         21   -1    0    0  501  502  0.00000000000E+00  0.00000000000E+00  0.14472657441E+01  0.14472657441E+01  0.00000000000E+00 0. -1.
         13   -1    0    0    0    0 -0.00000000000E+00 -0.00000000000E+00 -0.10000000000E+04  0.10000000000E+04  0.00000000000E+00 0.  1.
    9000005    2    1    2  501    0  0.20617031507E+02 -0.26418420679E+02 -0.72973066955E+03  0.73054452044E+03  0.80901994333E+01 0.  0.
         13    1    3    3    0    0  0.30585514706E+01 -0.81146180500E+01 -0.24122928182E+03  0.24138510345E+03  0.00000000000E+00 0.  1.
          3    1    3    3  501    0  0.17558480037E+02 -0.18303802629E+02 -0.48850138773E+03  0.48915941699E+03  0.00000000000E+00 0.  1.
         -3    1    1    2    0  502 -0.20617031507E+02  0.26418420679E+02 -0.26882206471E+03  0.27090274530E+03  0.00000000000E+00 0. -1.
<mgrwt>
<rscale>  1 0.30000000E+03</rscale>
<asrwt>0</asrwt>
<pdfrwt beam="1">  1       21 0.52627956E-02 0.30000000E+03</pdfrwt>
<pdfrwt beam="2">0</pdfrwt>
<totfact> 0.26392875E+04</totfact>
</mgrwt>
</event>
<event>
 6    1  0.1270461E-001  0.3000000E+03  0.7818608E-02  0.1093470E+00
         21   -1    0    0  501  502  0.00000000000E+00  0.00000000000E+00  0.17974496074E+01  0.17974496074E+01  0.00000000000E+00 0. -1.
         13   -1    0    0    0    0 -0.00000000000E+00 -0.00000000000E+00 -0.10000000000E+04  0.10000000000E+04  0.00000000000E+00 0.  1.
    9000005    2    1    2  501    0  0.21146365025E+01 -0.35143846412E+02 -0.77765957713E+03  0.77846190679E+03  0.29934594110E+01 0.  0.
         13    1    3    3    0    0  0.28690445067E+01 -0.26581237181E+02 -0.58405100365E+03  0.58466261079E+03  0.00000000000E+00 0.  1.
          1    1    3    3  501    0 -0.75440800413E+00 -0.85626092317E+01 -0.19360857348E+03  0.19379929601E+03  0.00000000000E+00 0.  1.
         -3    1    1    2    0  502 -0.21146365025E+01  0.35143846412E+02 -0.22054297326E+03  0.22333554281E+03  0.00000000000E+00 0. -1.
<mgrwt>
<rscale>  1 0.30000000E+03</rscale>
<asrwt>0</asrwt>
<pdfrwt beam="1">  1       21 0.65361942E-02 0.30000000E+03</pdfrwt>
<pdfrwt beam="2">0</pdfrwt>
<totfact> 0.18174440E+04</totfact>
</mgrwt>
</event>
<event>
 6    1  0.1270461E-001  0.3000000E+03  0.7818608E-02  0.1093470E+00
         21   -1    0    0  501  502  0.00000000000E+00  0.00000000000E+00  0.27344932670E+01  0.27344932670E+01  0.00000000000E+00 0. -1.
         13   -1    0    0    0    0 -0.00000000000E+00 -0.00000000000E+00 -0.10000000000E+04  0.10000000000E+04  0.00000000000E+00 0.  1.
    9000005    2    1    2  501    0 -0.41145723181E+02  0.27504407856E+02 -0.65923931389E+03  0.66110432768E+03  0.36050129284E+01 0.  0.
         13    1    3    3    0    0 -0.38604800935E+02  0.26744131119E+02 -0.62647316679E+03  0.62823101476E+03  0.00000000000E+00 0.  1.
          1    1    3    3  501    0 -0.25409222457E+01  0.76027673760E+00 -0.32766147100E+02  0.32873312920E+02  0.00000000000E+00 0.  1.
         -1    1    1    2    0  502  0.41145723181E+02 -0.27504407856E+02 -0.33802619285E+03  0.34163016558E+03  0.00000000000E+00 0. -1.
<mgrwt>
<rscale>  1 0.30000000E+03</rscale>
<asrwt>0</asrwt>
<pdfrwt beam="1">  1       21 0.99436328E-02 0.30000000E+03</pdfrwt>
<pdfrwt beam="2">0</pdfrwt>
<totfact> 0.86905189E+03</totfact>
</mgrwt>
</event>
<event>
 6    1  0.1270461E-001  0.3000000E+03  0.7818608E-02  0.1093470E+00
         21   -1    0    0  501  502  0.00000000000E+00  0.00000000000E+00  0.11231272765E+01  0.11231272765E+01  0.00000000000E+00 0. -1.
         13   -1    0    0    0    0 -0.00000000000E+00 -0.00000000000E+00 -0.10000000000E+04  0.10000000000E+04  0.00000000000E+00 0.  1.
    9000005    2    1    2  501    0  0.22927401943E+02 -0.23603978116E+02 -0.58756782424E+03  0.58849987671E+03  0.36528432887E+01 0.  0.
         13    1    3    3    0    0  0.11824049810E+02 -0.13835071961E+02 -0.34881513189E+03  0.34928958417E+03  0.00000000000E+00 0.  1.
          3    1    3    3  501    0  0.11103352133E+02 -0.97689061556E+01 -0.23875269235E+03  0.23921029254E+03  0.00000000000E+00 0.  1.
         -1    1    1    2    0  502 -0.22927401943E+02  0.23603978116E+02 -0.41130904849E+03  0.41262325057E+03  0.00000000000E+00 0. -1.
<mgrwt>
<rscale>  1 0.30000000E+03</rscale>
<asrwt>0</asrwt>
<pdfrwt beam="1">  1       21 0.40841078E-02 0.30000000E+03</pdfrwt>
<pdfrwt beam="2">0</pdfrwt>
<totfact> 0.40598612E+04</totfact>
</mgrwt>
</event>
<event>
 6    1  0.1270461E-001  0.3000000E+03  0.7818608E-02  0.1093470E+00
         21   -1    0    0  501  502  0.00000000000E+00  0.00000000000E+00  0.66579801898E+01  0.66579801898E+01  0.00000000000E+00 0. -1.
         13   -1    0    0    0    0 -0.00000000000E+00 -0.00000000000E+00 -0.10000000000E+04  0.10000000000E+04  0.00000000000E+00 0.  1.
    9000005    2    1    2  501    0 -0.91055076980E+01 -0.32233393318E+02 -0.95560854406E+03  0.95620288028E+03  0.37890432527E+01 0.  0.
         13    1    3    3    0    0 -0.83850187008E+01 -0.31651091174E+02 -0.92066287666E+03  0.92124493625E+03  0.00000000000E+00 0.  1.
          3    1    3    3  501    0 -0.72048899717E+00 -0.58230214455E+00 -0.34945667400E+02  0.34957944022E+02  0.00000000000E+00 0.  1.
         -3    1    1    2    0  502  0.91055076980E+01  0.32233393318E+02 -0.37733475748E+02  0.50455099914E+02  0.00000000000E+00 0. -1.
<mgrwt>
<rscale>  1 0.30000000E+03</rscale>
<asrwt>0</asrwt>
<pdfrwt beam="1">  1       21 0.24210888E-01 0.30000000E+03</pdfrwt>
<pdfrwt beam="2">0</pdfrwt>
<totfact> 0.16603875E+03</totfact>
</mgrwt>
</event>
<event>
 6    1  0.1270461E-001  0.3000000E+03  0.7818608E-02  0.1093470E+00
         21   -1    0    0  501  502  0.00000000000E+00  0.00000000000E+00  0.27290600282E+01  0.27290600282E+01  0.00000000000E+00 0. -1.
         13   -1    0    0    0    0 -0.00000000000E+00 -0.00000000000E+00 -0.10000000000E+04  0.10000000000E+04  0.00000000000E+00 0.  1.
    9000005    2    1    2  501    0 -0.39549561371E+02  0.95089123774E+01 -0.81011225274E+03  0.81120109490E+03  0.10524595521E+02 0.  0.
         13    1    3    3    0    0 -0.79005183821E+01  0.81803552639E+00 -0.25159220492E+03  0.25171754994E+03  0.00000000000E+00 0.  1.
          3    1    3    3  501    0 -0.31649042989E+02  0.86908768511E+01 -0.55852004782E+03  0.55948354496E+03  0.00000000000E+00 0.  1.
         -3    1    1    2    0  502  0.39549561371E+02 -0.95089123774E+01 -0.18715868723E+03  0.19152796513E+03  0.00000000000E+00 0. -1.
<mgrwt>
<rscale>  1 0.30000000E+03</rscale>
<asrwt>0</asrwt>
<pdfrwt beam="1">  1       21 0.99238756E-02 0.30000000E+03</pdfrwt>
<pdfrwt beam="2">0</pdfrwt>
<totfact> 0.87214465E+03</totfact>
</mgrwt>
</event>
<event>
 6    1  0.1270461E-001  0.3000000E+03  0.7818608E-02  0.1093470E+00
         21   -1    0    0  501  502  0.00000000000E+00  0.00000000000E+00  0.76931976647E+01  0.76931976647E+01  0.00000000000E+00 0. -1.
         13   -1    0    0    0    0 -0.00000000000E+00 -0.00000000000E+00 -0.10000000000E+04  0.10000000000E+04  0.00000000000E+00 0.  1.
    9000005    2    1    2  501    0 -0.37807997203E+00  0.36555855642E+02 -0.95413013810E+03  0.95483554714E+03  0.31824737862E+01 0.  0.
         13    1    3    3    0    0 -0.89791832445E-01  0.46684852462E+01 -0.96785530547E+02  0.96898099777E+02  0.00000000000E+00 0.  1.
          1    1    3    3  501    0 -0.28828813959E+00  0.31887370396E+02 -0.85734460755E+03  0.85793744737E+03  0.00000000000E+00 0.  1.
         -1    1    1    2    0  502  0.37807997203E+00 -0.36555855642E+02 -0.38176664238E+02  0.52857650520E+02  0.00000000000E+00 0. -1.
<mgrwt>
<rscale>  1 0.30000000E+03</rscale>
<asrwt>0</asrwt>
<pdfrwt beam="1">  1       21 0.27975323E-01 0.30000000E+03</pdfrwt>
<pdfrwt beam="2">0</pdfrwt>
<totfact> 0.12495819E+03</totfact>
</mgrwt>
</event>
<event>
 6    1  0.1270461E-001  0.3000000E+03  0.7818608E-02  0.1093470E+00
         21   -1    0    0  501  502  0.00000000000E+00  0.00000000000E+00  0.16441708017E+01  0.16441708017E+01  0.00000000000E+00 0. -1.
         13   -1    0    0    0    0 -0.00000000000E+00 -0.00000000000E+00 -0.10000000000E+04  0.10000000000E+04  0.00000000000E+00 0.  1.
    9000005    2    1    2  501    0 -0.39326244264E+02  0.50431955210E+01 -0.60285803563E+03  0.60416399264E+03  0.20812442700E+01 0.  0.
         13    1    3    3    0    0 -0.57954896121E+01  0.62496187721E-01 -0.92503368927E+02  0.92684760713E+02  0.00000000000E+00 0.  1.
          1    1    3    3  501    0 -0.33530754652E+02  0.49806993332E+01 -0.51035466670E+03  0.51147923193E+03  0.00000000000E+00 0.  1.
         -3    1    1    2    0  502  0.39326244264E+02 -0.50431955210E+01 -0.39549779357E+03  0.39748017816E+03  0.00000000000E+00 0. -1.
<mgrwt>
<rscale>  1 0.30000000E+03</rscale>
<asrwt>0</asrwt>
<pdfrwt beam="1">  1       21 0.59788155E-02 0.30000000E+03</pdfrwt>
<pdfrwt beam="2">0</pdfrwt>
<totfact> 0.21200587E+04</totfact>
</mgrwt>
</event>
<event>
 6    1  0.1270461E-001  0.3000000E+03  0.7818608E-02  0.1093470E+00
         21   -1    0    0  501  502  0.00000000000E+00  0.00000000000E+00  0.23298037701E+01  0.23298037701E+01  0.00000000000E+00 0. -1.
         13   -1    0    0    0    0 -0.00000000000E+00 -0.00000000000E+00 -0.10000000000E+04  0.10000000000E+04  0.00000000000E+00 0.  1.
    9000005    2    1    2  501    0  0.15614541299E+02 -0.38617219612E+02 -0.75123211713E+03  0.75239615181E+03  0.38951127914E+01 0.  0.
         13    1    3    3    0    0  0.11912220998E+02 -0.29627746544E+02 -0.60382515613E+03  0.60466893715E+03  0.00000000000E+00 0.  1.
          3    1    3    3  501    0  0.37023203016E+01 -0.89894730681E+01 -0.14740696100E+03  0.14772721467E+03  0.00000000000E+00 0.  1.
         -1    1    1    2    0  502 -0.15614541299E+02  0.38617219612E+02 -0.24643807910E+03  0.24993365196E+03  0.00000000000E+00 0. -1.
<mgrwt>
<rscale>  1 0.30000000E+03</rscale>
<asrwt>0</asrwt>
<pdfrwt beam="1">  1       21 0.84720316E-02 0.30000000E+03</pdfrwt>
<pdfrwt beam="2">0</pdfrwt>
<totfact> 0.11548174E+04</totfact>
</mgrwt>
</event>
<event>
 6    1  0.1270461E-001  0.3000000E+03  0.7818608E-02  0.1093470E+00
         21   -1    0    0  501  502  0.00000000000E+00  0.00000000000E+00  0.12652554744E+01  0.12652554744E+01  0.00000000000E+00 0. -1.
         13   -1    0    0    0    0 -0.00000000000E+00 -0.00000000000E+00 -0.10000000000E+04  0.10000000000E+04  0.00000000000E+00 0.  1.
    9000005    2    1    2  501    0 -0.22462922076E+02  0.22700776102E+02 -0.28301370665E+03  0.28483206797E+03  0.35553743708E+01 0.  0.
         13    1    3    3    0    0 -0.50476372857E+01  0.69914936607E+01 -0.83797221179E+02  0.84239740640E+02  0.00000000000E+00 0.  1.
          1    1    3    3  501    0 -0.17415284790E+02  0.15709282441E+02 -0.19921648547E+03  0.20059232733E+03  0.00000000000E+00 0.  1.
         -3    1    1    2    0  502  0.22462922076E+02 -0.22700776102E+02 -0.71572103788E+03  0.71643318751E+03  0.00000000000E+00 0. -1.
<mgrwt>
<rscale>  1 0.30000000E+03</rscale>
<asrwt>0</asrwt>
<pdfrwt beam="1">  1       21 0.46009387E-02 0.30000000E+03</pdfrwt>
<pdfrwt beam="2">0</pdfrwt>
<totfact> 0.33184278E+04</totfact>
</mgrwt>
</event>
<event>
 6    1  0.1270461E-001  0.3000000E+03  0.7818608E-02  0.1093470E+00
         21   -1    0    0  501  502  0.00000000000E+00  0.00000000000E+00  0.12655646516E+01  0.12655646516E+01  0.00000000000E+00 0. -1.
         13   -1    0    0    0    0 -0.00000000000E+00 -0.00000000000E+00 -0.10000000000E+04  0.10000000000E+04  0.00000000000E+00 0.  1.
    9000005    2    1    2  501    0  0.14990704390E+02  0.30017890427E+02 -0.66340073656E+03  0.66425742750E+03  0.34055477991E+01 0.  0.
         13    1    3    3    0    0  0.14397081826E+02  0.26645632366E+02 -0.60172426231E+03  0.60248597788E+03  0.00000000000E+00 0.  1.
          1    1    3    3  501    0  0.59362256391E+00  0.33722580608E+01 -0.61676474251E+02  0.61771449620E+02  0.00000000000E+00 0.  1.
         -1    1    1    2    0  502 -0.14990704390E+02 -0.30017890427E+02 -0.33533369879E+03  0.33700813716E+03  0.00000000000E+00 0. -1.
<mgrwt>
<rscale>  1 0.30000000E+03</rscale>
<asrwt>0</asrwt>
<pdfrwt beam="1">  1       21 0.46020630E-02 0.30000000E+03</pdfrwt>
<pdfrwt beam="2">0</pdfrwt>
<totfact> 0.33170506E+04</totfact>
</mgrwt>
</event>
<event>
 6    1  0.1270461E-001  0.3000000E+03  0.7818608E-02  0.1093470E+00
         21   -1    0    0  501  502  0.00000000000E+00  0.00000000000E+00  0.14992616278E+01  0.14992616278E+01  0.00000000000E+00 0. -1.
         13   -1    0    0    0    0 -0.00000000000E+00 -0.00000000000E+00 -0.10000000000E+04  0.10000000000E+04  0.00000000000E+00 0.  1.
    9000005    2    1    2  501    0  0.38139740737E+02 -0.28243099455E+00 -0.54658494091E+03  0.54797681721E+03  0.82930684310E+01 0.  0.
         13    1    3    3    0    0  0.14300549728E+02  0.36417145000E+01 -0.22804665806E+03  0.22852362255E+03  0.00000000000E+00 0.  1.
          1    1    3    3  501    0  0.23839191010E+02 -0.39241454946E+01 -0.31853828284E+03  0.31945319466E+03  0.00000000000E+00 0.  1.
         -3    1    1    2    0  502 -0.38139740737E+02  0.28243099455E+00 -0.45191579747E+03  0.45352244442E+03  0.00000000000E+00 0. -1.
<mgrwt>
<rscale>  1 0.30000000E+03</rscale>
<asrwt>0</asrwt>
<pdfrwt beam="1">  1       21 0.54518720E-02 0.30000000E+03</pdfrwt>
<pdfrwt beam="2">0</pdfrwt>
<totfact> 0.24845657E+04</totfact>
</mgrwt>
</event>
<event>
 6    1  0.1270461E-001  0.3000000E+03  0.7818608E-02  0.1093470E+00
         21   -1    0    0  501  502  0.00000000000E+00  0.00000000000E+00  0.12772858716E+01  0.12772858716E+01  0.00000000000E+00 0. -1.
         13   -1    0    0    0    0 -0.00000000000E+00 -0.00000000000E+00 -0.10000000000E+04  0.10000000000E+04  0.00000000000E+00 0.  1.
    9000005    2    1    2  501    0 -0.83133675660E+01 -0.31204993278E+02 -0.70612727336E+03  0.70690514785E+03  0.75032117218E+01 0.  0.
         13    1    3    3    0    0 -0.42848658300E+01 -0.21313188322E+02 -0.53792296274E+03  0.53836207696E+03  0.00000000000E+00 0.  1.
          3    1    3    3  501    0 -0.40285017359E+01 -0.98918049569E+01 -0.16820431062E+03  0.16854307088E+03  0.00000000000E+00 0.  1.
         -1    1    1    2    0  502  0.83133675660E+01  0.31204993278E+02 -0.29259544077E+03  0.29437213803E+03  0.00000000000E+00 0. -1.
<mgrwt>
<rscale>  1 0.30000000E+03</rscale>
<asrwt>0</asrwt>
<pdfrwt beam="1">  1       21 0.46446857E-02 0.30000000E+03</pdfrwt>
<pdfrwt beam="2">0</pdfrwt>
<totfact> 0.32654925E+04</totfact>
</mgrwt>
</event>
<event>
 6    1  0.1270461E-001  0.3000000E+03  0.7818608E-02  0.1093470E+00
         21   -1    0    0  501  502  0.00000000000E+00  0.00000000000E+00  0.14610100453E+01  0.14610100453E+01  0.00000000000E+00 0. -1.
         13   -1    0    0    0    0 -0.00000000000E+00 -0.00000000000E+00 -0.10000000000E+04  0.10000000000E+04  0.00000000000E+00 0.  1.
    9000005    2    1    2  501    0  0.37079940619E+02 -0.79258671512E+01 -0.55230649281E+03  0.55362043252E+03  0.39217268849E+01 0.  0.
         13    1    3    3    0    0  0.27643085087E+02 -0.73280308516E+01 -0.40048869473E+03  0.40150844922E+03  0.00000000000E+00 0.  1.
          3    1    3    3  501    0  0.94368555315E+01 -0.59783629954E+00 -0.15181779808E+03  0.15211198330E+03  0.00000000000E+00 0.  1.
         -1    1    1    2    0  502 -0.37079940619E+02  0.79258671512E+01 -0.44623249715E+03  0.44784057752E+03  0.00000000000E+00 0. -1.
<mgrwt>
<rscale>  1 0.30000000E+03</rscale>
<asrwt>0</asrwt>
<pdfrwt beam="1">  1       21 0.53127750E-02 0.30000000E+03</pdfrwt>
<pdfrwt beam="2">0</pdfrwt>
<totfact> 0.25969704E+04</totfact>
</mgrwt>
</event>
<event>
 6    1  0.1270461E-001  0.3000000E+03  0.7818608E-02  0.1093470E+00
         21   -1    0    0  501  502  0.00000000000E+00  0.00000000000E+00  0.93279765242E+00  0.93279765242E+00  0.00000000000E+00 0. -1.
         13   -1    0    0    0    0 -0.00000000000E+00 -0.00000000000E+00 -0.10000000000E+04  0.10000000000E+04  0.00000000000E+00 0.  1.
    9000005    2    1    2  501    0  0.38989303161E+01  0.30016311100E+02 -0.45443480738E+03  0.45545995118E+03  0.40733747063E+01 0.  0.
         13    1    3    3    0    0  0.89391513907E+00  0.29364299361E+01 -0.31793245078E+02  0.31941072894E+02  0.00000000000E+00 0.  1.
          3    1    3    3  501    0  0.30050151770E+01  0.27079881164E+02 -0.42264156230E+03  0.42351887829E+03  0.00000000000E+00 0.  1.
         -3    1    1    2    0  502 -0.38989303161E+01 -0.30016311100E+02 -0.54463239497E+03  0.54547284647E+03  0.00000000000E+00 0. -1.
<mgrwt>
<rscale>  1 0.30000000E+03</rscale>
<asrwt>0</asrwt>
<pdfrwt beam="1">  1       21 0.33919986E-02 0.30000000E+03</pdfrwt>
<pdfrwt beam="2">0</pdfrwt>
<totfact> 0.55448896E+04</totfact>
</mgrwt>
</event>
<event>
 6    1  0.1270461E-001  0.3000000E+03  0.7818608E-02  0.1093470E+00
         21   -1    0    0  501  502  0.00000000000E+00  0.00000000000E+00  0.46990531594E+01  0.46990531594E+01  0.00000000000E+00 0. -1.
         13   -1    0    0    0    0 -0.00000000000E+00 -0.00000000000E+00 -0.10000000000E+04  0.10000000000E+04  0.00000000000E+00 0.  1.
    9000005    2    1    2  501    0 -0.18785334083E+02  0.63046646336E+02 -0.63764791987E+03  0.64104611959E+03  0.41820256773E+01 0.  0.
         13    1    3    3    0    0 -0.18905214653E+02  0.60906777809E+02 -0.61601715913E+03  0.61930944048E+03  0.00000000000E+00 0.  1.
          1    1    3    3  501    0  0.11988057033E+00  0.21398685271E+01 -0.21630760739E+02  0.21736679112E+02  0.00000000000E+00 0.  1.
         -3    1    1    2    0  502  0.18785334083E+02 -0.63046646336E+02 -0.35765302697E+03  0.36365293357E+03  0.00000000000E+00 0. -1.
<mgrwt>
<rscale>  1 0.30000000E+03</rscale>
<asrwt>0</asrwt>
<pdfrwt beam="1">  1       21 0.17087502E-01 0.30000000E+03</pdfrwt>
<pdfrwt beam="2">0</pdfrwt>
<totfact> 0.32303024E+03</totfact>
</mgrwt>
</event>
<event>
 6    1  0.1270461E-001  0.3000000E+03  0.7818608E-02  0.1093470E+00
         21   -1    0    0  501  502  0.00000000000E+00  0.00000000000E+00  0.13576737795E+01  0.13576737795E+01  0.00000000000E+00 0. -1.
         13   -1    0    0    0    0 -0.00000000000E+00 -0.00000000000E+00 -0.10000000000E+04  0.10000000000E+04  0.00000000000E+00 0.  1.
    9000005    2    1    2  501    0 -0.34706266342E+02  0.23926877197E+01 -0.33947893458E+03  0.34127690087E+03  0.37048846049E+01 0.  0.
         13    1    3    3    0    0 -0.11098429408E+02  0.22065529389E+01 -0.11964296122E+03  0.12017687873E+03  0.00000000000E+00 0.  1.
          3    1    3    3  501    0 -0.23607836934E+02  0.18613478079E+00 -0.21983597336E+03  0.22110002214E+03  0.00000000000E+00 0.  1.
         -1    1    1    2    0  502  0.34706266342E+02 -0.23926877197E+01 -0.65916339164E+03  0.66008077290E+03  0.00000000000E+00 0. -1.
<mgrwt>
<rscale>  1 0.30000000E+03</rscale>
<asrwt>0</asrwt>
<pdfrwt beam="1">  1       21 0.49370060E-02 0.30000000E+03</pdfrwt>
<pdfrwt beam="2">0</pdfrwt>
<totfact> 0.29433819E+04</totfact>
</mgrwt>
</event>
<event>
 6    1  0.1270461E-001  0.3000000E+03  0.7818608E-02  0.1093470E+00
         21   -1    0    0  501  502  0.00000000000E+00  0.00000000000E+00  0.44502805307E+01  0.44502805307E+01  0.00000000000E+00 0. -1.
         13   -1    0    0    0    0 -0.00000000000E+00 -0.00000000000E+00 -0.10000000000E+04  0.10000000000E+04  0.00000000000E+00 0.  1.
    9000005    2    1    2  501    0  0.22542652402E+02 -0.57677885236E+02 -0.68399585045E+03  0.68680153912E+03  0.33348274319E+01 0.  0.
         13    1    3    3    0    0  0.59500716853E+01 -0.11757917975E+02 -0.15117981510E+03  0.15175305098E+03  0.00000000000E+00 0.  1.
          3    1    3    3  501    0  0.16592580717E+02 -0.45919967262E+02 -0.53281603535E+03  0.53504848813E+03  0.00000000000E+00 0.  1.
         -3    1    1    2    0  502 -0.22542652402E+02  0.57677885236E+02 -0.31155386902E+03  0.31764874141E+03  0.00000000000E+00 0. -1.
<mgrwt>
<rscale>  1 0.30000000E+03</rscale>
<asrwt>0</asrwt>
<pdfrwt beam="1">  1       21 0.16182872E-01 0.30000000E+03</pdfrwt>
<pdfrwt beam="2">0</pdfrwt>
<totfact> 0.35760732E+03</totfact>
</mgrwt>
</event>
<event>
 6    1  0.1270461E-001  0.3000000E+03  0.7818608E-02  0.1093470E+00
         21   -1    0    0  501  502  0.00000000000E+00  0.00000000000E+00  0.37926085323E+01  0.37926085323E+01  0.00000000000E+00 0. -1.
         13   -1    0    0    0    0 -0.00000000000E+00 -0.00000000000E+00 -0.10000000000E+04  0.10000000000E+04  0.00000000000E+00 0.  1.
    9000005    2    1    2  501    0 -0.14573864082E+02  0.38648557011E+02 -0.86985961292E+03  0.87086454672E+03  0.65729803460E+01 0.  0.
         13    1    3    3    0    0 -0.60474098621E+01  0.10553804217E+02 -0.30493163676E+03  0.30517414216E+03  0.00000000000E+00 0.  1.
          1    1    3    3  501    0 -0.85264542202E+01  0.28094752794E+02 -0.56492797616E+03  0.56569040456E+03  0.00000000000E+00 0.  1.
         -3    1    1    2    0  502  0.14573864082E+02 -0.38648557011E+02 -0.12634777855E+03  0.13292806182E+03  0.00000000000E+00 0. -1.
<mgrwt>
<rscale>  1 0.30000000E+03</rscale>
<asrwt>0</asrwt>
<pdfrwt beam="1">  1       21 0.13791333E-01 0.30000000E+03</pdfrwt>
<pdfrwt beam="2">0</pdfrwt>
<totfact> 0.48074172E+03</totfact>
</mgrwt>
</event>
<event>
 6    1  0.1270461E-001  0.3000000E+03  0.7818608E-02  0.1093470E+00
         21   -1    0    0  501  502  0.00000000000E+00  0.00000000000E+00  0.20410803708E+01  0.20410803708E+01  0.00000000000E+00 0. -1.
         13   -1    0    0    0    0 -0.00000000000E+00 -0.00000000000E+00 -0.10000000000E+04  0.10000000000E+04  0.00000000000E+00 0.  1.
    9000005    2    1    2  501    0 -0.27169715597E+02 -0.36019768573E+02 -0.49789306650E+03  0.49994400346E+03  0.32990538007E+01 0.  0.
         13    1    3    3    0    0 -0.23402308776E+02 -0.30479231510E+02 -0.43558652856E+03  0.43727825863E+03  0.00000000000E+00 0.  1.
          3    1    3    3  501    0 -0.37674068212E+01 -0.55405370631E+01 -0.62306537934E+02  0.62665744825E+02  0.00000000000E+00 0.  1.
         -3    1    1    2    0  502  0.27169715597E+02  0.36019768573E+02 -0.50006585313E+03  0.50209707691E+03  0.00000000000E+00 0. -1.
<mgrwt>
<rscale>  1 0.30000000E+03</rscale>
<asrwt>0</asrwt>
<pdfrwt beam="1">  1       21 0.74221261E-02 0.30000000E+03</pdfrwt>
<pdfrwt beam="2">0</pdfrwt>
<totfact> 0.14568201E+04</totfact>
</mgrwt>
</event>
<event>
 6    1  0.1270461E-001  0.3000000E+03  0.7818608E-02  0.1093470E+00
         21   -1    0    0  501  502  0.00000000000E+00  0.00000000000E+00  0.12500309920E+01  0.12500309920E+01  0.00000000000E+00 0. -1.
         13   -1    0    0    0    0 -0.00000000000E+00 -0.00000000000E+00 -0.10000000000E+04  0.10000000000E+04  0.00000000000E+00 0.  1.
    9000005    2    1    2  501    0  0.30026879135E+02 -0.46302677399E+01 -0.75432751937E+03  0.75494658656E+03  0.33599458767E+01 0.  0.
         13    1    3    3    0    0  0.29750239503E+01  0.20517240042E+00 -0.94542693374E+02  0.94589712620E+02  0.00000000000E+00 0.  1.
          3    1    3    3  501    0  0.27051855185E+02 -0.48354401404E+01 -0.65978482600E+03  0.66035687394E+03  0.00000000000E+00 0.  1.
         -1    1    1    2    0  502 -0.30026879135E+02  0.46302677399E+01 -0.24442244964E+03  0.24630344443E+03  0.00000000000E+00 0. -1.
<mgrwt>
<rscale>  1 0.30000000E+03</rscale>
<asrwt>0</asrwt>
<pdfrwt beam="1">  1       21 0.45455768E-02 0.30000000E+03</pdfrwt>
<pdfrwt beam="2">0</pdfrwt>
<totfact> 0.33873723E+04</totfact>
</mgrwt>
</event>
<event>
 6    1  0.1270461E-001  0.3000000E+03  0.7818608E-02  0.1093470E+00
         21   -1    0    0  501  502  0.00000000000E+00  0.00000000000E+00  0.22539139841E+01  0.22539139841E+01  0.00000000000E+00 0. -1.
         13   -1    0    0    0    0 -0.00000000000E+00 -0.00000000000E+00 -0.10000000000E+04  0.10000000000E+04  0.00000000000E+00 0.  1.
    9000005    2    1    2  501    0 -0.31736786601E+02  0.27313359159E+01 -0.87023575783E+03  0.87082496887E+03  0.33419129803E+01 0.  0.
         13    1    3    3    0    0 -0.25575862285E+02  0.25873956667E+01 -0.73372571861E+03  0.73417589820E+03  0.00000000000E+00 0.  1.
          3    1    3    3  501    0 -0.61609243161E+01  0.14394024925E+00 -0.13651003923E+03  0.13664907068E+03  0.00000000000E+00 0.  1.
         -3    1    1    2    0  502  0.31736786601E+02 -0.27313359159E+01 -0.12751032818E+03  0.13142894511E+03  0.00000000000E+00 0. -1.
<mgrwt>
<rscale>  1 0.30000000E+03</rscale>
<asrwt>0</asrwt>
<pdfrwt beam="1">  1       21 0.81960681E-02 0.30000000E+03</pdfrwt>
<pdfrwt beam="2">0</pdfrwt>
<totfact> 0.12241626E+04</totfact>
</mgrwt>
</event>
<event>
 6    1  0.1270461E-001  0.3000000E+03  0.7818608E-02  0.1093470E+00
         21   -1    0    0  501  502  0.00000000000E+00  0.00000000000E+00  0.40572502694E+01  0.40572502694E+01  0.00000000000E+00 0. -1.
         13   -1    0    0    0    0 -0.00000000000E+00 -0.00000000000E+00 -0.10000000000E+04  0.10000000000E+04  0.00000000000E+00 0.  1.
    9000005    2    1    2  501    0 -0.43314565413E+02  0.39289200027E+02 -0.31074603231E+03  0.31636957816E+03  0.10335403675E+02 0.  0.
         13    1    3    3    0    0 -0.78069059705E+01  0.51399929434E+01 -0.71144813585E+02  0.71756197003E+02  0.00000000000E+00 0.  1.
          3    1    3    3  501    0 -0.35507659443E+02  0.34149207084E+02 -0.23960121873E+03  0.24461338115E+03  0.00000000000E+00 0.  1.
         -1    1    1    2    0  502  0.43314565413E+02 -0.39289200027E+02 -0.68519671742E+03  0.68768767211E+03  0.00000000000E+00 0. -1.
<mgrwt>
<rscale>  1 0.30000000E+03</rscale>
<asrwt>0</asrwt>
<pdfrwt beam="1">  1       21 0.14753668E-01 0.30000000E+03</pdfrwt>
<pdfrwt beam="2">0</pdfrwt>
<totfact> 0.42460723E+03</totfact>
</mgrwt>
</event>
<event>
 6    1  0.1270461E-001  0.3000000E+03  0.7818608E-02  0.1093470E+00
         21   -1    0    0  501  502  0.00000000000E+00  0.00000000000E+00  0.45815307317E+01  0.45815307317E+01  0.00000000000E+00 0. -1.
         13   -1    0    0    0    0 -0.00000000000E+00 -0.00000000000E+00 -0.10000000000E+04  0.10000000000E+04  0.00000000000E+00 0.  1.
    9000005    2    1    2  501    0  0.26072851273E+02 -0.59542617187E+02 -0.63718849897E+03  0.64050210471E+03  0.29404215309E+01 0.  0.
         13    1    3    3    0    0  0.13756733203E+02 -0.34784975785E+02 -0.37162316487E+03  0.37350102934E+03  0.00000000000E+00 0.  1.
          3    1    3    3  501    0  0.12316118070E+02 -0.24757641402E+02 -0.26556533410E+03  0.26700107537E+03  0.00000000000E+00 0.  1.
         -1    1    1    2    0  502 -0.26072851273E+02  0.59542617187E+02 -0.35822997030E+03  0.36407942602E+03  0.00000000000E+00 0. -1.
<mgrwt>
<rscale>  1 0.30000000E+03</rscale>
<asrwt>0</asrwt>
<pdfrwt beam="1">  1       21 0.16660147E-01 0.30000000E+03</pdfrwt>
<pdfrwt beam="2">0</pdfrwt>
<totfact> 0.33871296E+03</totfact>
</mgrwt>
</event>
<event>
 6    1  0.1270461E-001  0.3000000E+03  0.7818608E-02  0.1093470E+00
         21   -1    0    0  501  502  0.00000000000E+00  0.00000000000E+00  0.62846258016E+01  0.62846258016E+01  0.00000000000E+00 0. -1.
         13   -1    0    0    0    0 -0.00000000000E+00 -0.00000000000E+00 -0.10000000000E+04  0.10000000000E+04  0.00000000000E+00 0.  1.
    9000005    2    1    2  501    0  0.51221710947E+02 -0.23200327241E+02 -0.14272338081E+03  0.15343687170E+03  0.33153148053E+01 0.  0.
         13    1    3    3    0    0  0.39179321735E+02 -0.16701137007E+02 -0.10506795985E+03  0.11337205747E+03  0.00000000000E+00 0.  1.
          3    1    3    3  501    0  0.12042389211E+02 -0.64991902342E+01 -0.37655420958E+02  0.40064814228E+02  0.00000000000E+00 0.  1.
         -1    1    1    2    0  502 -0.51221710947E+02  0.23200327241E+02 -0.85099199339E+03  0.85284775410E+03  0.00000000000E+00 0. -1.
<mgrwt>
<rscale>  1 0.30000000E+03</rscale>
<asrwt>0</asrwt>
<pdfrwt beam="1">  1       21 0.22853233E-01 0.30000000E+03</pdfrwt>
<pdfrwt beam="2">0</pdfrwt>
<totfact> 0.18571306E+03</totfact>
</mgrwt>
</event>
<event>
 6    1  0.1270461E-001  0.3000000E+03  0.7818608E-02  0.1093470E+00
         21   -1    0    0  501  502  0.00000000000E+00  0.00000000000E+00  0.22947106784E+01  0.22947106784E+01  0.00000000000E+00 0. -1.
         13   -1    0    0    0    0 -0.00000000000E+00 -0.00000000000E+00 -0.10000000000E+04  0.10000000000E+04  0.00000000000E+00 0.  1.
    9000005    2    1    2  501    0  0.31867406539E+02  0.33999034516E+02 -0.61283636215E+03  0.61461500132E+03  0.34244889457E+01 0.  0.
         13    1    3    3    0    0  0.22825237258E+02  0.25874466613E+02 -0.43850472352E+03  0.43986005960E+03  0.00000000000E+00 0.  1.
          3    1    3    3  501    0  0.90421692805E+01  0.81245679026E+01 -0.17433163863E+03  0.17475494172E+03  0.00000000000E+00 0.  1.
         -1    1    1    2    0  502 -0.31867406539E+02 -0.33999034516E+02 -0.38486892717E+03  0.38767970936E+03  0.00000000000E+00 0. -1.
<mgrwt>
<rscale>  1 0.30000000E+03</rscale>
<asrwt>0</asrwt>
<pdfrwt beam="1">  1       21 0.83444201E-02 0.30000000E+03</pdfrwt>
<pdfrwt beam="2">0</pdfrwt>
<totfact> 0.11861167E+04</totfact>
</mgrwt>
</event>
<event>
 6    1  0.1270461E-001  0.3000000E+03  0.7818608E-02  0.1093470E+00
         21   -1    0    0  501  502  0.00000000000E+00  0.00000000000E+00  0.29764313403E+01  0.29764313403E+01  0.00000000000E+00 0. -1.
         13   -1    0    0    0    0 -0.00000000000E+00 -0.00000000000E+00 -0.10000000000E+04  0.10000000000E+04  0.00000000000E+00 0.  1.
    9000005    2    1    2  501    0 -0.20387533191E+02  0.49392882765E+02 -0.59753003062E+03  0.59992507567E+03  0.35567597014E+01 0.  0.
         13    1    3    3    0    0 -0.18589962978E+02  0.44635677736E+02 -0.52800862302E+03  0.53021791410E+03  0.00000000000E+00 0.  1.
          3    1    3    3  501    0 -0.17975702127E+01  0.47572050288E+01 -0.69521407603E+02  0.69707161566E+02  0.00000000000E+00 0.  1.
         -1    1    1    2    0  502  0.20387533191E+02 -0.49392882765E+02 -0.39949353804E+03  0.40305135567E+03  0.00000000000E+00 0. -1.
<mgrwt>
<rscale>  1 0.30000000E+03</rscale>
<asrwt>0</asrwt>
<pdfrwt beam="1">  1       21 0.10823410E-01 0.30000000E+03</pdfrwt>
<pdfrwt beam="2">0</pdfrwt>
<totfact> 0.74661367E+03</totfact>
</mgrwt>
</event>
<event>
 6    1  0.1270461E-001  0.3000000E+03  0.7818608E-02  0.1093470E+00
         21   -1    0    0  501  502  0.00000000000E+00  0.00000000000E+00  0.11063207240E+01  0.11063207240E+01  0.00000000000E+00 0. -1.
         13   -1    0    0    0    0 -0.00000000000E+00 -0.00000000000E+00 -0.10000000000E+04  0.10000000000E+04  0.00000000000E+00 0.  1.
    9000005    2    1    2  501    0 -0.17577450545E+02  0.27138900379E+02 -0.61263315391E+03  0.61349481401E+03  0.33194676458E+01 0.  0.
         13    1    3    3    0    0 -0.61412167164E+01  0.11548449925E+02 -0.22527466478E+03  0.22565406230E+03  0.00000000000E+00 0.  1.
          3    1    3    3  501    0 -0.11436233829E+02  0.15590450454E+02 -0.38735848913E+03  0.38784075171E+03  0.00000000000E+00 0.  1.
         -1    1    1    2    0  502  0.17577450545E+02 -0.27138900379E+02 -0.38626052537E+03  0.38761150672E+03  0.00000000000E+00 0. -1.
<mgrwt>
<rscale>  1 0.30000000E+03</rscale>
<asrwt>0</asrwt>
<pdfrwt beam="1">  1       21 0.40229929E-02 0.30000000E+03</pdfrwt>
<pdfrwt beam="2">0</pdfrwt>
<totfact> 0.41643356E+04</totfact>
</mgrwt>
</event>
<event>
 6    1  0.1270461E-001  0.3000000E+03  0.7818608E-02  0.1093470E+00
         21   -1    0    0  501  502  0.00000000000E+00  0.00000000000E+00  0.38211549166E+01  0.38211549166E+01  0.00000000000E+00 0. -1.
         13   -1    0    0    0    0 -0.00000000000E+00 -0.00000000000E+00 -0.10000000000E+04  0.10000000000E+04  0.00000000000E+00 0.  1.
    9000005    2    1    2  501    0 -0.20434587357E+02  0.22680074503E+02 -0.93447296708E+03  0.93497659434E+03  0.30899245284E+01 0.  0.
         13    1    3    3    0    0 -0.17734938583E+02  0.18350353130E+02 -0.75539817154E+03  0.75582912161E+03  0.00000000000E+00 0.  1.
          3    1    3    3  501    0 -0.26996487743E+01  0.43297213727E+01 -0.17907479554E+03  0.17914747274E+03  0.00000000000E+00 0.  1.
         -1    1    1    2    0  502  0.20434587357E+02 -0.22680074503E+02 -0.61705878008E+02  0.68844560574E+02  0.00000000000E+00 0. -1.
<mgrwt>
<rscale>  1 0.30000000E+03</rscale>
<asrwt>0</asrwt>
<pdfrwt beam="1">  1       21 0.13895138E-01 0.30000000E+03</pdfrwt>
<pdfrwt beam="2">0</pdfrwt>
<totfact> 0.47417046E+03</totfact>
</mgrwt>
</event>
<event>
 6    1  0.1270461E-001  0.3000000E+03  0.7818608E-02  0.1093470E+00
         21   -1    0    0  501  502  0.00000000000E+00  0.00000000000E+00  0.12309971038E+01  0.12309971038E+01  0.00000000000E+00 0. -1.
         13   -1    0    0    0    0 -0.00000000000E+00 -0.00000000000E+00 -0.10000000000E+04  0.10000000000E+04  0.00000000000E+00 0.  1.
    9000005    2    1    2  501    0 -0.22866132971E+02  0.24431344607E+02 -0.64763011544E+03  0.64850125790E+03  0.30601362754E+01 0.  0.
         13    1    3    3    0    0 -0.19571977864E+02  0.21836843856E+02 -0.58067323631E+03  0.58141320714E+03  0.00000000000E+00 0.  1.
          1    1    3    3  501    0 -0.32941551064E+01  0.25945007511E+01 -0.66956879127E+02  0.67088050758E+02  0.00000000000E+00 0.  1.
         -1    1    1    2    0  502  0.22866132971E+02 -0.24431344607E+02 -0.35113888746E+03  0.35272973921E+03  0.00000000000E+00 0. -1.
<mgrwt>
<rscale>  1 0.30000000E+03</rscale>
<asrwt>0</asrwt>
<pdfrwt beam="1">  1       21 0.44763625E-02 0.30000000E+03</pdfrwt>
<pdfrwt beam="2">0</pdfrwt>
<totfact> 0.34767454E+04</totfact>
</mgrwt>
</event>
<event>
 6    1  0.1270461E-001  0.3000000E+03  0.7818608E-02  0.1093470E+00
         21   -1    0    0  501  502  0.00000000000E+00  0.00000000000E+00  0.13980407222E+01  0.13980407222E+01  0.00000000000E+00 0. -1.
         13   -1    0    0    0    0 -0.00000000000E+00 -0.00000000000E+00 -0.10000000000E+04  0.10000000000E+04  0.00000000000E+00 0.  1.
    9000005    2    1    2  501    0  0.24126552337E+02  0.25428959801E+02 -0.67190874316E+03  0.67282966126E+03  0.31098896570E+01 0.  0.
         13    1    3    3    0    0  0.80406758643E+01  0.77702040225E+01 -0.24120855852E+03  0.24146759046E+03  0.00000000000E+00 0.  1.
          3    1    3    3  501    0  0.16085876473E+02  0.17658755779E+02 -0.43070018464E+03  0.43136207080E+03  0.00000000000E+00 0.  1.
         -3    1    1    2    0  502 -0.24126552337E+02 -0.25428959801E+02 -0.32669321612E+03  0.32856837946E+03  0.00000000000E+00 0. -1.
<mgrwt>
<rscale>  1 0.30000000E+03</rscale>
<asrwt>0</asrwt>
<pdfrwt beam="1">  1       21 0.50837952E-02 0.30000000E+03</pdfrwt>
<pdfrwt beam="2">0</pdfrwt>
<totfact> 0.27999659E+04</totfact>
</mgrwt>
</event>
<event>
 6    1  0.1270461E-001  0.3000000E+03  0.7818608E-02  0.1093470E+00
         21   -1    0    0  501  502  0.00000000000E+00  0.00000000000E+00  0.19650033228E+01  0.19650033228E+01  0.00000000000E+00 0. -1.
         13   -1    0    0    0    0 -0.00000000000E+00 -0.00000000000E+00 -0.10000000000E+04  0.10000000000E+04  0.00000000000E+00 0.  1.
    9000005    2    1    2  501    0  0.27979317646E+02  0.14213072045E+02 -0.85253554993E+03  0.85311963847E+03  0.33763922923E+01 0.  0.
         13    1    3    3    0    0  0.57830460110E+01  0.18368005862E+01 -0.14136798729E+03  0.14149814588E+03  0.00000000000E+00 0.  1.
          3    1    3    3  501    0  0.22196271635E+02  0.12376271459E+02 -0.71116756263E+03  0.71162149259E+03  0.00000000000E+00 0.  1.
         -1    1    1    2    0  502 -0.27979317646E+02 -0.14213072045E+02 -0.14549944675E+03  0.14884536485E+03  0.00000000000E+00 0. -1.
<mgrwt>
<rscale>  1 0.30000000E+03</rscale>
<asrwt>0</asrwt>
<pdfrwt beam="1">  1       21 0.71454817E-02 0.30000000E+03</pdfrwt>
<pdfrwt beam="2">0</pdfrwt>
<totfact> 0.15567403E+04</totfact>
</mgrwt>
</event>
<event>
 6    1  0.1270461E-001  0.3000000E+03  0.7818608E-02  0.1093470E+00
         21   -1    0    0  501  502  0.00000000000E+00  0.00000000000E+00  0.13708572921E+01  0.13708572921E+01  0.00000000000E+00 0. -1.
         13   -1    0    0    0    0 -0.00000000000E+00 -0.00000000000E+00 -0.10000000000E+04  0.10000000000E+04  0.00000000000E+00 0.  1.
    9000005    2    1    2  501    0  0.19007362022E+02 -0.24292954746E+02 -0.77550647782E+03  0.77612621019E+03  0.31889719869E+01 0.  0.
         13    1    3    3    0    0  0.92367985193E-01 -0.69207870367E+00 -0.11389561259E+02  0.11410942575E+02  0.00000000000E+00 0.  1.
          3    1    3    3  501    0  0.18914994037E+02 -0.23600876042E+02 -0.76411691656E+03  0.76471526761E+03  0.00000000000E+00 0.  1.
         -1    1    1    2    0  502 -0.19007362022E+02  0.24292954746E+02 -0.22312266489E+03  0.22524464710E+03  0.00000000000E+00 0. -1.
<mgrwt>
<rscale>  1 0.30000000E+03</rscale>
<asrwt>0</asrwt>
<pdfrwt beam="1">  1       21 0.49849461E-02 0.30000000E+03</pdfrwt>
<pdfrwt beam="2">0</pdfrwt>
<totfact> 0.28953090E+04</totfact>
</mgrwt>
</event>
<event>
 6    1  0.1270461E-001  0.3000000E+03  0.7818608E-02  0.1093470E+00
         21   -1    0    0  501  502  0.00000000000E+00  0.00000000000E+00  0.93733134835E+00  0.93733134835E+00  0.00000000000E+00 0. -1.
         13   -1    0    0    0    0 -0.00000000000E+00 -0.00000000000E+00 -0.10000000000E+04  0.10000000000E+04  0.00000000000E+00 0.  1.
    9000005    2    1    2  501    0 -0.25393568682E+01 -0.30374872217E+02 -0.46782220096E+03  0.46882313711E+03  0.29053371803E+01 0.  0.
         13    1    3    3    0    0 -0.31213726057E+01 -0.21842715506E+02 -0.33975729340E+03  0.34047300276E+03  0.00000000000E+00 0.  1.
          3    1    3    3  501    0  0.58201573752E+00 -0.85321567114E+01 -0.12806490756E+03  0.12835013435E+03  0.00000000000E+00 0.  1.
         -1    1    1    2    0  502  0.25393568682E+01  0.30374872217E+02 -0.53124046769E+03  0.53211419423E+03  0.00000000000E+00 0. -1.
<mgrwt>
<rscale>  1 0.30000000E+03</rscale>
<asrwt>0</asrwt>
<pdfrwt beam="1">  1       21 0.34084848E-02 0.30000000E+03</pdfrwt>
<pdfrwt beam="2">0</pdfrwt>
<totfact> 0.55001436E+04</totfact>
</mgrwt>
</event>
<event>
 6    1  0.1270461E-001  0.3000000E+03  0.7818608E-02  0.1093470E+00
         21   -1    0    0  501  502  0.00000000000E+00  0.00000000000E+00  0.29808942516E+01  0.29808942516E+01  0.00000000000E+00 0. -1.
         13   -1    0    0    0    0 -0.00000000000E+00 -0.00000000000E+00 -0.10000000000E+04  0.10000000000E+04  0.00000000000E+00 0.  1.
    9000005    2    1    2  501    0  0.25840391746E+02  0.30826159830E+02 -0.83610268542E+03  0.83711325935E+03  0.85399322622E+01 0.  0.
         13    1    3    3    0    0  0.11983646564E+02  0.17981352357E+02 -0.51734008090E+03  0.51779117038E+03  0.00000000000E+00 0.  1.
          1    1    3    3  501    0  0.13856745182E+02  0.12844807474E+02 -0.31876260452E+03  0.31932208897E+03  0.00000000000E+00 0.  1.
         -1    1    1    2    0  502 -0.25840391746E+02 -0.30826159830E+02 -0.16091642033E+03  0.16586763490E+03  0.00000000000E+00 0. -1.
<mgrwt>
<rscale>  1 0.30000000E+03</rscale>
<asrwt>0</asrwt>
<pdfrwt beam="1">  1       21 0.10839638E-01 0.30000000E+03</pdfrwt>
<pdfrwt beam="2">0</pdfrwt>
<totfact> 0.74460637E+03</totfact>
</mgrwt>
</event>
<event>
 6    1  0.1270461E-001  0.3000000E+03  0.7818608E-02  0.1093470E+00
         21   -1    0    0  501  502  0.00000000000E+00  0.00000000000E+00  0.19151515456E+01  0.19151515456E+01  0.00000000000E+00 0. -1.
         13   -1    0    0    0    0 -0.00000000000E+00 -0.00000000000E+00 -0.10000000000E+04  0.10000000000E+04  0.00000000000E+00 0.  1.
    9000005    2    1    2  501    0  0.37962486968E+02  0.19124944678E+02 -0.61550864749E+03  0.61698468578E+03  0.35061992673E+01 0.  0.
         13    1    3    3    0    0  0.21711006861E+02  0.96545291355E+01 -0.36237527443E+03  0.36315343489E+03  0.00000000000E+00 0.  1.
          3    1    3    3  501    0  0.16251480108E+02  0.94704155425E+01 -0.25313337306E+03  0.25383125090E+03  0.00000000000E+00 0.  1.
         -3    1    1    2    0  502 -0.37962486968E+02 -0.19124944678E+02 -0.38257620097E+03  0.38493046576E+03  0.00000000000E+00 0. -1.
<mgrwt>
<rscale>  1 0.30000000E+03</rscale>
<asrwt>0</asrwt>
<pdfrwt beam="1">  1       21 0.69642021E-02 0.30000000E+03</pdfrwt>
<pdfrwt beam="2">0</pdfrwt>
<totfact> 0.16279874E+04</totfact>
</mgrwt>
</event>
<event>
 6    1  0.1270461E-001  0.3000000E+03  0.7818608E-02  0.1093470E+00
         21   -1    0    0  501  502  0.00000000000E+00  0.00000000000E+00  0.10724519073E+02  0.10724519073E+02  0.00000000000E+00 0. -1.
         13   -1    0    0    0    0 -0.00000000000E+00 -0.00000000000E+00 -0.10000000000E+04  0.10000000000E+04  0.00000000000E+00 0.  1.
    9000005    2    1    2  501    0 -0.31129297537E+02  0.14756843978E+01 -0.97656294032E+03  0.97706713506E+03  0.37147281097E+01 0.  0.
         13    1    3    3    0    0 -0.15058053828E+01 -0.68014471007E+00 -0.62017315173E+02  0.62039321627E+02  0.00000000000E+00 0.  1.
          1    1    3    3  501    0 -0.29623492154E+02  0.21558291078E+01 -0.91454562515E+03  0.91502781344E+03  0.00000000000E+00 0.  1.
         -1    1    1    2    0  502  0.31129297537E+02 -0.14756843978E+01 -0.12712540606E+02  0.33657384008E+02  0.00000000000E+00 0. -1.
<mgrwt>
<rscale>  1 0.30000000E+03</rscale>
<asrwt>0</asrwt>
<pdfrwt beam="1">  1       21 0.38998333E-01 0.30000000E+03</pdfrwt>
<pdfrwt beam="2">0</pdfrwt>
<totfact> 0.63678313E+02</totfact>
</mgrwt>
</event>
<event>
 6    1  0.1270461E-001  0.3000000E+03  0.7818608E-02  0.1093470E+00
         21   -1    0    0  501  502  0.00000000000E+00  0.00000000000E+00  0.51285437024E+01  0.51285437024E+01  0.00000000000E+00 0. -1.
         13   -1    0    0    0    0 -0.00000000000E+00 -0.00000000000E+00 -0.10000000000E+04  0.10000000000E+04  0.00000000000E+00 0.  1.
    9000005    2    1    2  501    0  0.25135882225E+02 -0.35121131600E+02 -0.89823458867E+03  0.89927963891E+03  0.36312837084E+01 0.  0.
         13    1    3    3    0    0  0.14927972642E+02 -0.23786810416E+02 -0.57546834898E+03  0.57615317182E+03  0.00000000000E+00 0.  1.
          3    1    3    3  501    0  0.10207909584E+02 -0.11334321184E+02 -0.32276623969E+03  0.32312646709E+03  0.00000000000E+00 0.  1.
         -1    1    1    2    0  502 -0.25135882225E+02  0.35121131600E+02 -0.96636867630E+02  0.10584890479E+03  0.00000000000E+00 0. -1.
<mgrwt>
<rscale>  1 0.30000000E+03</rscale>
<asrwt>0</asrwt>
<pdfrwt beam="1">  1       21 0.18649289E-01 0.30000000E+03</pdfrwt>
<pdfrwt beam="2">0</pdfrwt>
<totfact> 0.27400508E+03</totfact>
</mgrwt>
</event>
<event>
 6    1  0.1270461E-001  0.3000000E+03  0.7818608E-02  0.1093470E+00
         21   -1    0    0  501  502  0.00000000000E+00  0.00000000000E+00  0.29902130804E+01  0.29902130804E+01  0.00000000000E+00 0. -1.
         13   -1    0    0    0    0 -0.00000000000E+00 -0.00000000000E+00 -0.10000000000E+04  0.10000000000E+04  0.00000000000E+00 0.  1.
    9000005    2    1    2  501    0 -0.18867820405E+02 -0.40969947256E+02 -0.78133721631E+03  0.78265140819E+03  0.45661727606E+01 0.  0.
         13    1    3    3    0    0 -0.13510079965E+02 -0.25064873491E+02 -0.51355277524E+03  0.51434154324E+03  0.00000000000E+00 0.  1.
          1    1    3    3  501    0 -0.53577404403E+01 -0.15905073765E+02 -0.26778444107E+03  0.26830986495E+03  0.00000000000E+00 0.  1.
         -1    1    1    2    0  502  0.18867820405E+02  0.40969947256E+02 -0.21567257061E+03  0.22033880489E+03  0.00000000000E+00 0. -1.
<mgrwt>
<rscale>  1 0.30000000E+03</rscale>
<asrwt>0</asrwt>
<pdfrwt beam="1">  1       21 0.10873525E-01 0.30000000E+03</pdfrwt>
<pdfrwt beam="2">0</pdfrwt>
<totfact> 0.74044120E+03</totfact>
</mgrwt>
</event>
<event>
 6    1  0.1270461E-001  0.3000000E+03  0.7818608E-02  0.1093470E+00
         21   -1    0    0  501  502  0.00000000000E+00  0.00000000000E+00  0.84568439250E+01  0.84568439250E+01  0.00000000000E+00 0. -1.
         13   -1    0    0    0    0 -0.00000000000E+00 -0.00000000000E+00 -0.10000000000E+04  0.10000000000E+04  0.00000000000E+00 0.  1.
    9000005    2    1    2  501    0 -0.23557452896E+02 -0.75078841157E+02 -0.75658257193E+03  0.76067011692E+03  0.31705923024E+01 0.  0.
         13    1    3    3    0    0 -0.15216963716E+02 -0.49402669920E+02 -0.51113149798E+03  0.51373883249E+03  0.00000000000E+00 0.  1.
          3    1    3    3  501    0 -0.83404891804E+01 -0.25676171237E+02 -0.24545107395E+03  0.24693128444E+03  0.00000000000E+00 0.  1.
         -1    1    1    2    0  502  0.23557452896E+02  0.75078841157E+02 -0.23496058414E+03  0.24778672700E+03  0.00000000000E+00 0. -1.
<mgrwt>
<rscale>  1 0.30000000E+03</rscale>
<asrwt>0</asrwt>
<pdfrwt beam="1">  1       21 0.30752225E-01 0.30000000E+03</pdfrwt>
<pdfrwt beam="2">0</pdfrwt>
<totfact> 0.10346324E+03</totfact>
</mgrwt>
</event>
<event>
 6    1  0.1270461E-001  0.3000000E+03  0.7818608E-02  0.1093470E+00
         21   -1    0    0  501  502  0.00000000000E+00  0.00000000000E+00  0.16948970802E+01  0.16948970802E+01  0.00000000000E+00 0. -1.
         13   -1    0    0    0    0 -0.00000000000E+00 -0.00000000000E+00 -0.10000000000E+04  0.10000000000E+04  0.00000000000E+00 0.  1.
    9000005    2    1    2  501    0 -0.39027852901E+01 -0.37863837679E+02 -0.68879558659E+03  0.68985352293E+03  0.31017814850E+01 0.  0.
         13    1    3    3    0    0 -0.52207923747E+00 -0.18236268278E+02 -0.31560436513E+03  0.31613122170E+03  0.00000000000E+00 0.  1.
          3    1    3    3  501    0 -0.33807060527E+01 -0.19627569401E+02 -0.37319122146E+03  0.37372230122E+03  0.00000000000E+00 0.  1.
         -3    1    1    2    0  502  0.39027852901E+01  0.37863837679E+02 -0.30950951633E+03  0.31184137415E+03  0.00000000000E+00 0. -1.
<mgrwt>
<rscale>  1 0.30000000E+03</rscale>
<asrwt>0</asrwt>
<pdfrwt beam="1">  1       21 0.61632751E-02 0.30000000E+03</pdfrwt>
<pdfrwt beam="2">0</pdfrwt>
<totfact> 0.20117676E+04</totfact>
</mgrwt>
</event>
<event>
 6    1  0.1270461E-001  0.3000000E+03  0.7818608E-02  0.1093470E+00
         21   -1    0    0  501  502  0.00000000000E+00  0.00000000000E+00  0.30576532382E+01  0.30576532382E+01  0.00000000000E+00 0. -1.
         13   -1    0    0    0    0 -0.00000000000E+00 -0.00000000000E+00 -0.10000000000E+04  0.10000000000E+04  0.00000000000E+00 0.  1.
    9000005    2    1    2  501    0  0.41084200458E+02 -0.13125908859E+02 -0.81205903008E+03  0.81321023609E+03  0.32891847084E+01 0.  0.
         13    1    3    3    0    0  0.17828683940E+02 -0.70568333379E+01 -0.34175141372E+03  0.34228889794E+03  0.00000000000E+00 0.  1.
          3    1    3    3  501    0  0.23255516518E+02 -0.60690755211E+01 -0.47030761636E+03  0.47092133815E+03  0.00000000000E+00 0.  1.
         -3    1    1    2    0  502 -0.41084200458E+02  0.13125908859E+02 -0.18488331668E+03  0.18984741715E+03  0.00000000000E+00 0. -1.
<mgrwt>
<rscale>  1 0.30000000E+03</rscale>
<asrwt>0</asrwt>
<pdfrwt beam="1">  1       21 0.11118762E-01 0.30000000E+03</pdfrwt>
<pdfrwt beam="2">0</pdfrwt>
<totfact> 0.71131917E+03</totfact>
</mgrwt>
</event>
<event>
 6    1  0.1270461E-001  0.3000000E+03  0.7818608E-02  0.1093470E+00
         21   -1    0    0  501  502  0.00000000000E+00  0.00000000000E+00  0.10856456314E+01  0.10856456314E+01  0.00000000000E+00 0. -1.
         13   -1    0    0    0    0 -0.00000000000E+00 -0.00000000000E+00 -0.10000000000E+04  0.10000000000E+04  0.00000000000E+00 0.  1.
    9000005    2    1    2  501    0 -0.18681112740E+02 -0.24665252386E+02 -0.66536680734E+03  0.66610605703E+03  0.51896298877E+01 0.  0.
         13    1    3    3    0    0 -0.13564609217E+02 -0.14796868263E+02 -0.39259584103E+03  0.39310868768E+03  0.00000000000E+00 0.  1.
          1    1    3    3  501    0 -0.51165035236E+01 -0.98683841229E+01 -0.27277096631E+03  0.27299736935E+03  0.00000000000E+00 0.  1.
         -1    1    1    2    0  502  0.18681112740E+02  0.24665252386E+02 -0.33354754703E+03  0.33497958860E+03  0.00000000000E+00 0. -1.
<mgrwt>
<rscale>  1 0.30000000E+03</rscale>
<asrwt>0</asrwt>
<pdfrwt beam="1">  1       21 0.39478106E-02 0.30000000E+03</pdfrwt>
<pdfrwt beam="2">0</pdfrwt>
<totfact> 0.42987324E+04</totfact>
</mgrwt>
</event>
<event>
 6    1  0.1270461E-001  0.3000000E+03  0.7818608E-02  0.1093470E+00
         21   -1    0    0  501  502  0.00000000000E+00  0.00000000000E+00  0.21215315887E+01  0.21215315887E+01  0.00000000000E+00 0. -1.
         13   -1    0    0    0    0 -0.00000000000E+00 -0.00000000000E+00 -0.10000000000E+04  0.10000000000E+04  0.00000000000E+00 0.  1.
    9000005    2    1    2  501    0  0.19083856861E+02  0.34436391593E+02 -0.24067668180E+03  0.24389689185E+03  0.32202536351E+01 0.  0.
         13    1    3    3    0    0  0.39881986845E+01  0.94540582857E+01 -0.57239004398E+02  0.58151427939E+02  0.00000000000E+00 0.  1.
          3    1    3    3  501    0  0.15095658176E+02  0.24982333307E+02 -0.18343767740E+03  0.18574546391E+03  0.00000000000E+00 0.  1.
         -3    1    1    2    0  502 -0.19083856861E+02 -0.34436391593E+02 -0.75720178661E+03  0.75822463974E+03  0.00000000000E+00 0. -1.
<mgrwt>
<rscale>  1 0.30000000E+03</rscale>
<asrwt>0</asrwt>
<pdfrwt beam="1">  1       21 0.77146766E-02 0.30000000E+03</pdfrwt>
<pdfrwt beam="2">0</pdfrwt>
<totfact> 0.13614405E+04</totfact>
</mgrwt>
</event>
<event>
 6    1  0.1270461E-001  0.3000000E+03  0.7818608E-02  0.1093470E+00
         21   -1    0    0  501  502  0.00000000000E+00  0.00000000000E+00  0.28807294429E+01  0.28807294429E+01  0.00000000000E+00 0. -1.
         13   -1    0    0    0    0 -0.00000000000E+00 -0.00000000000E+00 -0.10000000000E+04  0.10000000000E+04  0.00000000000E+00 0.  1.
    9000005    2    1    2  501    0 -0.30841089450E+02 -0.21898718900E+02 -0.85411433978E+03  0.85495798976E+03  0.33364882286E+01 0.  0.
         13    1    3    3    0    0 -0.30109002349E+02 -0.21760448525E+02 -0.84341135953E+03  0.84422911021E+03  0.00000000000E+00 0.  1.
          3    1    3    3  501    0 -0.73208710031E+00 -0.13827037496E+00 -0.10702980244E+02  0.10728879546E+02  0.00000000000E+00 0.  1.
         -1    1    1    2    0  502  0.30841089450E+02  0.21898718900E+02 -0.14300493078E+03  0.14792273968E+03  0.00000000000E+00 0. -1.
<mgrwt>
<rscale>  1 0.30000000E+03</rscale>
<asrwt>0</asrwt>
<pdfrwt beam="1">  1       21 0.10475402E-01 0.30000000E+03</pdfrwt>
<pdfrwt beam="2">0</pdfrwt>
<totfact> 0.79170821E+03</totfact>
</mgrwt>
</event>
<event>
 6    1  0.1270461E-001  0.3000000E+03  0.7818608E-02  0.1093470E+00
         21   -1    0    0  501  502  0.00000000000E+00  0.00000000000E+00  0.14588857911E+01  0.14588857911E+01  0.00000000000E+00 0. -1.
         13   -1    0    0    0    0 -0.00000000000E+00 -0.00000000000E+00 -0.10000000000E+04  0.10000000000E+04  0.00000000000E+00 0.  1.
    9000005    2    1    2  501    0 -0.32194705854E+02 -0.12871743088E+02 -0.70733933050E+03  0.70820019506E+03  0.40505497393E+01 0.  0.
         13    1    3    3    0    0 -0.23098987372E+02 -0.10760573306E+02 -0.53914935970E+03  0.53975122531E+03  0.00000000000E+00 0.  1.
          1    1    3    3  501    0 -0.90957184816E+01 -0.21111697825E+01 -0.16818997080E+03  0.16844896975E+03  0.00000000000E+00 0.  1.
         -3    1    1    2    0  502  0.32194705854E+02  0.12871743088E+02 -0.29120178370E+03  0.29325869073E+03  0.00000000000E+00 0. -1.
<mgrwt>
<rscale>  1 0.30000000E+03</rscale>
<asrwt>0</asrwt>
<pdfrwt beam="1">  1       21 0.53050504E-02 0.30000000E+03</pdfrwt>
<pdfrwt beam="2">0</pdfrwt>
<totfact> 0.26034418E+04</totfact>
</mgrwt>
</event>
<event>
 6    1  0.1270461E-001  0.3000000E+03  0.7818608E-02  0.1093470E+00
         21   -1    0    0  501  502  0.00000000000E+00  0.00000000000E+00  0.99500127579E+00  0.99500127579E+00  0.00000000000E+00 0. -1.
         13   -1    0    0    0    0 -0.00000000000E+00 -0.00000000000E+00 -0.10000000000E+04  0.10000000000E+04  0.00000000000E+00 0.  1.
    9000005    2    1    2  501    0 -0.20511221970E+02 -0.23722130303E+02 -0.46198659508E+03  0.46306171959E+03  0.33305289552E+01 0.  0.
         13    1    3    3    0    0 -0.15948969214E+02 -0.18664835937E+02 -0.34010701767E+03  0.34099197818E+03  0.00000000000E+00 0.  1.
          1    1    3    3  501    0 -0.45622527560E+01 -0.50572943663E+01 -0.12187957741E+03  0.12206974141E+03  0.00000000000E+00 0.  1.
         -3    1    1    2    0  502  0.20511221970E+02  0.23722130303E+02 -0.53701840364E+03  0.53793328169E+03  0.00000000000E+00 0. -1.
<mgrwt>
<rscale>  1 0.30000000E+03</rscale>
<asrwt>0</asrwt>
<pdfrwt beam="1">  1       21 0.36181941E-02 0.30000000E+03</pdfrwt>
<pdfrwt beam="2">0</pdfrwt>
<totfact> 0.49767767E+04</totfact>
</mgrwt>
</event>
<event>
 6    1  0.1270461E-001  0.3000000E+03  0.7818608E-02  0.1093470E+00
         21   -1    0    0  501  502  0.00000000000E+00  0.00000000000E+00  0.88545592858E+01  0.88545592858E+01  0.00000000000E+00 0. -1.
         13   -1    0    0    0    0 -0.00000000000E+00 -0.00000000000E+00 -0.10000000000E+04  0.10000000000E+04  0.00000000000E+00 0.  1.
    9000005    2    1    2  501    0 -0.47512295459E+02  0.14517228693E+02 -0.92391363585E+03  0.92525860403E+03  0.43485270070E+01 0.  0.
         13    1    3    3    0    0 -0.18014224142E+02  0.54298090459E+01 -0.38987015235E+03  0.39032387935E+03  0.00000000000E+00 0.  1.
          3    1    3    3  501    0 -0.29498071317E+02  0.90874196475E+01 -0.53404348350E+03  0.53493472468E+03  0.00000000000E+00 0.  1.
         -3    1    1    2    0  502  0.47512295459E+02 -0.14517228693E+02 -0.67231804868E+02  0.83595955252E+02  0.00000000000E+00 0. -1.
<mgrwt>
<rscale>  1 0.30000000E+03</rscale>
<asrwt>0</asrwt>
<pdfrwt beam="1">  1       21 0.32198465E-01 0.30000000E+03</pdfrwt>
<pdfrwt beam="2">0</pdfrwt>
<totfact> 0.94309991E+02</totfact>
</mgrwt>
</event>
<event>
 6    1  0.1270461E-001  0.3000000E+03  0.7818608E-02  0.1093470E+00
         21   -1    0    0  501  502  0.00000000000E+00  0.00000000000E+00  0.13276242477E+01  0.13276242477E+01  0.00000000000E+00 0. -1.
         13   -1    0    0    0    0 -0.00000000000E+00 -0.00000000000E+00 -0.10000000000E+04  0.10000000000E+04  0.00000000000E+00 0.  1.
    9000005    2    1    2  501    0  0.28337788432E+02 -0.14319719437E+02 -0.74402181458E+03  0.74470534750E+03  0.30837324300E+01 0.  0.
         13    1    3    3    0    0  0.24237290764E+02 -0.13246791636E+02 -0.63165111101E+03  0.63225473489E+03  0.00000000000E+00 0.  1.
          1    1    3    3  501    0  0.41004976677E+01 -0.10729278011E+01 -0.11237070357E+03  0.11245061261E+03  0.00000000000E+00 0.  1.
         -3    1    1    2    0  502 -0.28337788432E+02  0.14319719437E+02 -0.25465056117E+03  0.25662227675E+03  0.00000000000E+00 0. -1.
<mgrwt>
<rscale>  1 0.30000000E+03</rscale>
<asrwt>0</asrwt>
<pdfrwt beam="1">  1       21 0.48277347E-02 0.30000000E+03</pdfrwt>
<pdfrwt beam="2">0</pdfrwt>
<totfact> 0.30577262E+04</totfact>
</mgrwt>
</event>
<event>
 6    1  0.1270461E-001  0.3000000E+03  0.7818608E-02  0.1093470E+00
         21   -1    0    0  501  502  0.00000000000E+00  0.00000000000E+00  0.14483565094E+01  0.14483565094E+01  0.00000000000E+00 0. -1.
         13   -1    0    0    0    0 -0.00000000000E+00 -0.00000000000E+00 -0.10000000000E+04  0.10000000000E+04  0.00000000000E+00 0.  1.
    9000005    2    1    2  501    0 -0.27261439637E+02 -0.14164051220E+02 -0.79367267179E+03  0.79427886193E+03  0.43352195747E+01 0.  0.
         13    1    3    3    0    0 -0.16642068418E+02 -0.98376593399E+01 -0.45035428332E+03  0.45076903009E+03  0.00000000000E+00 0.  1.
          3    1    3    3  501    0 -0.10619371219E+02 -0.43263918803E+01 -0.34331838846E+03  0.34350983184E+03  0.00000000000E+00 0.  1.
         -1    1    1    2    0  502  0.27261439637E+02  0.14164051220E+02 -0.20487897170E+03  0.20716949458E+03  0.00000000000E+00 0. -1.
<mgrwt>
<rscale>  1 0.30000000E+03</rscale>
<asrwt>0</asrwt>
<pdfrwt beam="1">  1       21 0.52667620E-02 0.30000000E+03</pdfrwt>
<pdfrwt beam="2">0</pdfrwt>
<totfact> 0.26358903E+04</totfact>
</mgrwt>
</event>
<event>
 6    1  0.1270461E-001  0.3000000E+03  0.7818608E-02  0.1093470E+00
         21   -1    0    0  501  502  0.00000000000E+00  0.00000000000E+00  0.93840532555E+00  0.93840532555E+00  0.00000000000E+00 0. -1.
         13   -1    0    0    0    0 -0.00000000000E+00 -0.00000000000E+00 -0.10000000000E+04  0.10000000000E+04  0.00000000000E+00 0.  1.
    9000005    2    1    2  501    0 -0.17035726810E+02 -0.25306505996E+02 -0.52233858036E+03  0.52324031279E+03  0.34924438294E+01 0.  0.
         13    1    3    3    0    0 -0.87281620327E+01 -0.15980916104E+02 -0.30423699275E+03  0.30478142701E+03  0.00000000000E+00 0.  1.
          3    1    3    3  501    0 -0.83075647770E+01 -0.93255898926E+01 -0.21810158761E+03  0.21845888578E+03  0.00000000000E+00 0.  1.
         -3    1    1    2    0  502  0.17035726810E+02  0.25306505996E+02 -0.47672301431E+03  0.47769809253E+03  0.00000000000E+00 0. -1.
<mgrwt>
<rscale>  1 0.30000000E+03</rscale>
<asrwt>0</asrwt>
<pdfrwt beam="1">  1       21 0.34123902E-02 0.30000000E+03</pdfrwt>
<pdfrwt beam="2">0</pdfrwt>
<totfact> 0.54896263E+04</totfact>
</mgrwt>
</event>
<event>
 6    1  0.1270461E-001  0.3000000E+03  0.7818608E-02  0.1093470E+00
         21   -1    0    0  501  502  0.00000000000E+00  0.00000000000E+00  0.18668941663E+01  0.18668941663E+01  0.00000000000E+00 0. -1.
         13   -1    0    0    0    0 -0.00000000000E+00 -0.00000000000E+00 -0.10000000000E+04  0.10000000000E+04  0.00000000000E+00 0.  1.
    9000005    2    1    2  501    0 -0.26331353025E+02 -0.22019740077E+02 -0.80279454143E+03  0.80353544470E+03  0.34534084258E+01 0.  0.
         13    1    3    3    0    0 -0.18773133438E+02 -0.15302258869E+02 -0.52874146398E+03  0.52929587698E+03  0.00000000000E+00 0.  1.
          1    1    3    3  501    0 -0.75582195866E+01 -0.67174812076E+01 -0.27405307746E+03  0.27423956771E+03  0.00000000000E+00 0.  1.
         -1    1    1    2    0  502  0.26331353025E+02  0.22019740077E+02 -0.19533856440E+03  0.19833144947E+03  0.00000000000E+00 0. -1.
<mgrwt>
<rscale>  1 0.30000000E+03</rscale>
<asrwt>0</asrwt>
<pdfrwt beam="1">  1       21 0.67887204E-02 0.30000000E+03</pdfrwt>
<pdfrwt beam="2">0</pdfrwt>
<totfact> 0.17018183E+04</totfact>
</mgrwt>
</event>
<event>
 6    1  0.1270461E-001  0.3000000E+03  0.7818608E-02  0.1093470E+00
         21   -1    0    0  501  502  0.00000000000E+00  0.00000000000E+00  0.13478582685E+01  0.13478582685E+01  0.00000000000E+00 0. -1.
         13   -1    0    0    0    0 -0.00000000000E+00 -0.00000000000E+00 -0.10000000000E+04  0.10000000000E+04  0.00000000000E+00 0.  1.
    9000005    2    1    2  501    0  0.31188025755E+01  0.35943730283E+02 -0.58823108967E+03  0.58934407352E+03  0.29905612236E+01 0.  0.
         13    1    3    3    0    0  0.54405694011E+00  0.20281021789E+01 -0.25710233641E+02  0.25795839011E+02  0.00000000000E+00 0.  1.
          3    1    3    3  501    0  0.25747456354E+01  0.33915628104E+02 -0.56252085603E+03  0.56354823451E+03  0.00000000000E+00 0.  1.
         -1    1    1    2    0  502 -0.31188025755E+01 -0.35943730283E+02 -0.41042105206E+03  0.41200378475E+03  0.00000000000E+00 0. -1.
<mgrwt>
<rscale>  1 0.30000000E+03</rscale>
<asrwt>0</asrwt>
<pdfrwt beam="1">  1       21 0.49013131E-02 0.30000000E+03</pdfrwt>
<pdfrwt beam="2">0</pdfrwt>
<totfact> 0.29799872E+04</totfact>
</mgrwt>
</event>
<event>
 6    1  0.1270461E-001  0.3000000E+03  0.7818608E-02  0.1093470E+00
         21   -1    0    0  501  502  0.00000000000E+00  0.00000000000E+00  0.39891532162E+01  0.39891532162E+01  0.00000000000E+00 0. -1.
         13   -1    0    0    0    0 -0.00000000000E+00 -0.00000000000E+00 -0.10000000000E+04  0.10000000000E+04  0.00000000000E+00 0.  1.
    9000005    2    1    2  501    0 -0.18992508924E+02  0.58505838063E+02 -0.61068023974E+03  0.61377981810E+03  0.34148824498E+01 0.  0.
         13    1    3    3    0    0 -0.12216913811E+02  0.42527077342E+02 -0.43587687065E+03  0.43811693834E+03  0.00000000000E+00 0.  1.
          3    1    3    3  501    0 -0.67755951125E+01  0.15978760721E+02 -0.17480336909E+03  0.17566287976E+03  0.00000000000E+00 0.  1.
         -3    1    1    2    0  502  0.18992508924E+02 -0.58505838063E+02 -0.38533060705E+03  0.39020933511E+03  0.00000000000E+00 0. -1.
<mgrwt>
<rscale>  1 0.30000000E+03</rscale>
<asrwt>0</asrwt>
<pdfrwt beam="1">  1       21 0.14506042E-01 0.30000000E+03</pdfrwt>
<pdfrwt beam="2">0</pdfrwt>
<totfact> 0.43808106E+03</totfact>
</mgrwt>
</event>
<event>
 6    1  0.1270461E-001  0.3000000E+03  0.7818608E-02  0.1093470E+00
         21   -1    0    0  501  502  0.00000000000E+00  0.00000000000E+00  0.11724569096E+01  0.11724569096E+01  0.00000000000E+00 0. -1.
         13   -1    0    0    0    0 -0.00000000000E+00 -0.00000000000E+00 -0.10000000000E+04  0.10000000000E+04  0.00000000000E+00 0.  1.
    9000005    2    1    2  501    0 -0.27124112128E+02 -0.13972238063E+02 -0.72520215886E+03  0.72585120493E+03  0.32953893488E+01 0.  0.
         13    1    3    3    0    0 -0.20123092835E+02 -0.11636702994E+02 -0.52977556396E+03  0.53028530046E+03  0.00000000000E+00 0.  1.
          1    1    3    3  501    0 -0.70010192926E+01 -0.23355350684E+01 -0.19542659490E+03  0.19556590447E+03  0.00000000000E+00 0.  1.
         -3    1    1    2    0  502  0.27124112128E+02  0.13972238063E+02 -0.27362538423E+03  0.27532125198E+03  0.00000000000E+00 0. -1.
<mgrwt>
<rscale>  1 0.30000000E+03</rscale>
<asrwt>0</asrwt>
<pdfrwt beam="1">  1       21 0.42634887E-02 0.30000000E+03</pdfrwt>
<pdfrwt beam="2">0</pdfrwt>
<totfact> 0.37757195E+04</totfact>
</mgrwt>
</event>
<event>
 6    1  0.1270461E-001  0.3000000E+03  0.7818608E-02  0.1093470E+00
         21   -1    0    0  501  502  0.00000000000E+00  0.00000000000E+00  0.19223844450E+01  0.19223844450E+01  0.00000000000E+00 0. -1.
         13   -1    0    0    0    0 -0.00000000000E+00 -0.00000000000E+00 -0.10000000000E+04  0.10000000000E+04  0.00000000000E+00 0.  1.
    9000005    2    1    2  501    0 -0.72225542092E+01  0.35419079079E+02 -0.21734399115E+03  0.22035238200E+03  0.31757377128E+01 0.  0.
         13    1    3    3    0    0 -0.69413302715E+01  0.35217703596E+02 -0.21611271391E+03  0.21907344391E+03  0.00000000000E+00 0.  1.
          1    1    3    3  501    0 -0.28122393771E+00  0.20137548322E+00 -0.12312772419E+01  0.12789380887E+01  0.00000000000E+00 0.  1.
         -3    1    1    2    0  502  0.72225542092E+01 -0.35419079079E+02 -0.78073362440E+03  0.78157000245E+03  0.00000000000E+00 0. -1.
<mgrwt>
<rscale>  1 0.30000000E+03</rscale>
<asrwt>0</asrwt>
<pdfrwt beam="1">  1       21 0.69905036E-02 0.30000000E+03</pdfrwt>
<pdfrwt beam="2">0</pdfrwt>
<totfact> 0.16173451E+04</totfact>
</mgrwt>
</event>
<event>
 6    1  0.1270461E-001  0.3000000E+03  0.7818608E-02  0.1093470E+00
         21   -1    0    0  501  502  0.00000000000E+00  0.00000000000E+00  0.15371437856E+01  0.15371437856E+01  0.00000000000E+00 0. -1.
         13   -1    0    0    0    0 -0.00000000000E+00 -0.00000000000E+00 -0.10000000000E+04  0.10000000000E+04  0.00000000000E+00 0.  1.
    9000005    2    1    2  501    0 -0.15653597368E+02 -0.28747155334E+02 -0.22729624013E+03  0.22967615642E+03  0.40152211997E+01 0.  0.
         13    1    3    3    0    0 -0.14097111240E+02 -0.27512943512E+02 -0.20932772494E+03  0.21159817351E+03  0.00000000000E+00 0.  1.
          3    1    3    3  501    0 -0.15564861282E+01 -0.12342118227E+01 -0.17968515191E+02  0.18077982909E+02  0.00000000000E+00 0.  1.
         -1    1    1    2    0  502  0.15653597368E+02  0.28747155334E+02 -0.77116661609E+03  0.77186098737E+03  0.00000000000E+00 0. -1.
<mgrwt>
<rscale>  1 0.30000000E+03</rscale>
<asrwt>0</asrwt>
<pdfrwt beam="1">  1       21 0.55896256E-02 0.30000000E+03</pdfrwt>
<pdfrwt beam="2">0</pdfrwt>
<totfact> 0.23804727E+04</totfact>
</mgrwt>
</event>
<event>
 6    1  0.1270461E-001  0.3000000E+03  0.7818608E-02  0.1093470E+00
         21   -1    0    0  501  502  0.00000000000E+00  0.00000000000E+00  0.17943763357E+01  0.17943763357E+01  0.00000000000E+00 0. -1.
         13   -1    0    0    0    0 -0.00000000000E+00 -0.00000000000E+00 -0.10000000000E+04  0.10000000000E+04  0.00000000000E+00 0.  1.
    9000005    2    1    2  501    0 -0.32868024781E+02  0.25203544991E+02 -0.60288781095E+03  0.60431268017E+03  0.21394148298E+01 0.  0.
         13    1    3    3    0    0 -0.31938213275E+02  0.23989614356E+02 -0.58129458344E+03  0.58266537893E+03  0.00000000000E+00 0.  1.
          1    1    3    3  501    0 -0.92981150629E+00  0.12139306354E+01 -0.21593227506E+02  0.21647301244E+02  0.00000000000E+00 0.  1.
         -1    1    1    2    0  502  0.32868024781E+02 -0.25203544991E+02 -0.39531781272E+03  0.39748169616E+03  0.00000000000E+00 0. -1.
<mgrwt>
<rscale>  1 0.30000000E+03</rscale>
<asrwt>0</asrwt>
<pdfrwt beam="1">  1       21 0.65250186E-02 0.30000000E+03</pdfrwt>
<pdfrwt beam="2">0</pdfrwt>
<totfact> 0.18228383E+04</totfact>
</mgrwt>
</event>
<event>
 6    1  0.1270461E-001  0.3000000E+03  0.7818608E-02  0.1093470E+00
         21   -1    0    0  501  502  0.00000000000E+00  0.00000000000E+00  0.16788596618E+01  0.16788596618E+01  0.00000000000E+00 0. -1.
         13   -1    0    0    0    0 -0.00000000000E+00 -0.00000000000E+00 -0.10000000000E+04  0.10000000000E+04  0.00000000000E+00 0.  1.
    9000005    2    1    2  501    0  0.20028290331E+02  0.29822524428E+02 -0.73925054219E+03  0.74012945668E+03  0.31197974314E+01 0.  0.
         13    1    3    3    0    0  0.13576490486E+02  0.17652153877E+02 -0.46702133509E+03  0.46755197257E+03  0.00000000000E+00 0.  1.
          3    1    3    3  501    0  0.64517998445E+01  0.12170370552E+02 -0.27222920710E+03  0.27257748410E+03  0.00000000000E+00 0.  1.
         -1    1    1    2    0  502 -0.20028290331E+02 -0.29822524428E+02 -0.25907059815E+03  0.26154940298E+03  0.00000000000E+00 0. -1.
<mgrwt>
<rscale>  1 0.30000000E+03</rscale>
<asrwt>0</asrwt>
<pdfrwt beam="1">  1       21 0.61049571E-02 0.30000000E+03</pdfrwt>
<pdfrwt beam="2">0</pdfrwt>
<totfact> 0.20450567E+04</totfact>
</mgrwt>
</event>
<event>
 6    1  0.1270461E-001  0.3000000E+03  0.7818608E-02  0.1093470E+00
         21   -1    0    0  501  502  0.00000000000E+00  0.00000000000E+00  0.21725206412E+01  0.21725206412E+01  0.00000000000E+00 0. -1.
         13   -1    0    0    0    0 -0.00000000000E+00 -0.00000000000E+00 -0.10000000000E+04  0.10000000000E+04  0.00000000000E+00 0.  1.
    9000005    2    1    2  501    0  0.31675883389E+02 -0.33048917042E+01 -0.86455990762E+03  0.86515234120E+03  0.32335301918E+01 0.  0.
         13    1    3    3    0    0  0.11223626012E+02 -0.21231673191E+01 -0.27710247716E+03  0.27733780930E+03  0.00000000000E+00 0.  1.
          3    1    3    3  501    0  0.20452257377E+02 -0.11817243852E+01 -0.58745743046E+03  0.58781453190E+03  0.00000000000E+00 0.  1.
         -3    1    1    2    0  502 -0.31675883389E+02  0.33048917042E+01 -0.13326757174E+03  0.13702017944E+03  0.00000000000E+00 0. -1.
<mgrwt>
<rscale>  1 0.30000000E+03</rscale>
<asrwt>0</asrwt>
<pdfrwt beam="1">  1       21 0.79000917E-02 0.30000000E+03</pdfrwt>
<pdfrwt beam="2">0</pdfrwt>
<totfact> 0.13058870E+04</totfact>
</mgrwt>
</event>
<event>
 6    1  0.1270461E-001  0.3000000E+03  0.7818608E-02  0.1093470E+00
         21   -1    0    0  501  502  0.00000000000E+00  0.00000000000E+00  0.63983102631E+01  0.63983102631E+01  0.00000000000E+00 0. -1.
         13   -1    0    0    0    0 -0.00000000000E+00 -0.00000000000E+00 -0.10000000000E+04  0.10000000000E+04  0.00000000000E+00 0.  1.
    9000005    2    1    2  501    0  0.46251264818E+02 -0.30999234635E+02 -0.85734974858E+03  0.85920889654E+03  0.95501018350E+01 0.  0.
         13    1    3    3    0    0  0.45296198831E+02 -0.30116383831E+02 -0.80131567956E+03  0.80315973536E+03  0.00000000000E+00 0.  1.
          3    1    3    3  501    0  0.95506598671E+00 -0.88285080433E+00 -0.56034069026E+02  0.56049161173E+02  0.00000000000E+00 0.  1.
         -3    1    1    2    0  502 -0.46251264818E+02  0.30999234635E+02 -0.13625194115E+03  0.14718941373E+03  0.00000000000E+00 0. -1.
<mgrwt>
<rscale>  1 0.30000000E+03</rscale>
<asrwt>0</asrwt>
<pdfrwt beam="1">  1       21 0.23266632E-01 0.30000000E+03</pdfrwt>
<pdfrwt beam="2">0</pdfrwt>
<totfact> 0.17937951E+03</totfact>
</mgrwt>
</event>
<event>
 6    1  0.1270461E-001  0.3000000E+03  0.7818608E-02  0.1093470E+00
         21   -1    0    0  501  502  0.00000000000E+00  0.00000000000E+00  0.21274923593E+01  0.21274923593E+01  0.00000000000E+00 0. -1.
         13   -1    0    0    0    0 -0.00000000000E+00 -0.00000000000E+00 -0.10000000000E+04  0.10000000000E+04  0.00000000000E+00 0.  1.
    9000005    2    1    2  501    0  0.39435635761E+02 -0.79244746431E+01 -0.25562954811E+03  0.25879541472E+03  0.32610044250E+01 0.  0.
         13    1    3    3    0    0  0.47766209980E+01 -0.43518935990E+00 -0.36878686459E+02  0.37189286264E+02  0.00000000000E+00 0.  1.
          1    1    3    3  501    0  0.34659014763E+02 -0.74892852832E+01 -0.21875086165E+03  0.22160612846E+03  0.00000000000E+00 0.  1.
         -1    1    1    2    0  502 -0.39435635761E+02  0.79244746431E+01 -0.74224295953E+03  0.74333207764E+03  0.00000000000E+00 0. -1.
<mgrwt>
<rscale>  1 0.30000000E+03</rscale>
<asrwt>0</asrwt>
<pdfrwt beam="1">  1       21 0.77363522E-02 0.30000000E+03</pdfrwt>
<pdfrwt beam="2">0</pdfrwt>
<totfact> 0.13547599E+04</totfact>
</mgrwt>
</event>
<event>
 6    1  0.1270461E-001  0.3000000E+03  0.7818608E-02  0.1093470E+00
         21   -1    0    0  501  502  0.00000000000E+00  0.00000000000E+00  0.57372009691E+01  0.57372009691E+01  0.00000000000E+00 0. -1.
         13   -1    0    0    0    0 -0.00000000000E+00 -0.00000000000E+00 -0.10000000000E+04  0.10000000000E+04  0.00000000000E+00 0.  1.
    9000005    2    1    2  501    0  0.29635760188E+02 -0.19434767426E+02 -0.94153471670E+03  0.94220579824E+03  0.28556983517E+01 0.  0.
         13    1    3    3    0    0  0.13312527650E+02 -0.70453676902E+01 -0.39682653168E+03  0.39711227234E+03  0.00000000000E+00 0.  1.
          3    1    3    3  501    0  0.16323232537E+02 -0.12389399736E+02 -0.54470818502E+03  0.54509352590E+03  0.00000000000E+00 0.  1.
         -3    1    1    2    0  502 -0.29635760188E+02  0.19434767426E+02 -0.52728082331E+02  0.63531402732E+02  0.00000000000E+00 0. -1.
<mgrwt>
<rscale>  1 0.30000000E+03</rscale>
<asrwt>0</asrwt>
<pdfrwt beam="1">  1       21 0.20862593E-01 0.30000000E+03</pdfrwt>
<pdfrwt beam="2">0</pdfrwt>
<totfact> 0.22130894E+03</totfact>
</mgrwt>
</event>
<event>
 6    1  0.1270461E-001  0.3000000E+03  0.7818608E-02  0.1093470E+00
         21   -1    0    0  501  502  0.00000000000E+00  0.00000000000E+00  0.16727599639E+02  0.16727599639E+02  0.00000000000E+00 0. -1.
         13   -1    0    0    0    0 -0.00000000000E+00 -0.00000000000E+00 -0.10000000000E+04  0.10000000000E+04  0.00000000000E+00 0.  1.
    9000005    2    1    2  501    0 -0.28872799582E+02 -0.13945919240E+02 -0.98410882776E+03  0.98465226909E+03  0.64636624498E+01 0.  0.
         13    1    3    3    0    0 -0.21290007798E+02 -0.13209872480E+02 -0.73460476524E+03  0.73503192195E+03  0.00000000000E+00 0.  1.
          1    1    3    3  501    0 -0.75827917842E+01 -0.73604676007E+00 -0.24950406251E+03  0.24962034714E+03  0.00000000000E+00 0.  1.
         -3    1    1    2    0  502  0.28872799582E+02  0.13945919240E+02  0.83642739558E+00  0.32075330551E+02  0.00000000000E+00 0. -1.
<mgrwt>
<rscale>  1 0.30000000E+03</rscale>
<asrwt>0</asrwt>
<pdfrwt beam="1">  1       21 0.60827763E-01 0.30000000E+03</pdfrwt>
<pdfrwt beam="2">0</pdfrwt>
<totfact> 0.24348388E+02</totfact>
</mgrwt>
</event>
<event>
 6    1  0.1270461E-001  0.3000000E+03  0.7818608E-02  0.1093470E+00
         21   -1    0    0  501  502  0.00000000000E+00  0.00000000000E+00  0.13161041691E+02  0.13161041691E+02  0.00000000000E+00 0. -1.
         13   -1    0    0    0    0 -0.00000000000E+00 -0.00000000000E+00 -0.10000000000E+04  0.10000000000E+04  0.00000000000E+00 0.  1.
    9000005    2    1    2  501    0  0.31299429279E+02  0.10504690813E+01 -0.98075300835E+03  0.98125811792E+03  0.32051258572E+01 0.  0.
         13    1    3    3    0    0  0.73857079363E+00  0.52038514122E+00 -0.24021598747E+02  0.24038583441E+02  0.00000000000E+00 0.  1.
          1    1    3    3  501    0  0.30560858485E+02  0.53008394012E+00 -0.95673140960E+03  0.95721953447E+03  0.00000000000E+00 0.  1.
         -3    1    1    2    0  502 -0.31299429279E+02 -0.10504690813E+01 -0.60859499603E+01  0.31902923775E+02  0.00000000000E+00 0. -1.
<mgrwt>
<rscale>  1 0.30000000E+03</rscale>
<asrwt>0</asrwt>
<pdfrwt beam="1">  1       21 0.47858434E-01 0.30000000E+03</pdfrwt>
<pdfrwt beam="2">0</pdfrwt>
<totfact> 0.41295906E+02</totfact>
</mgrwt>
</event>
<event>
 6    1  0.1270461E-001  0.3000000E+03  0.7818608E-02  0.1093470E+00
         21   -1    0    0  501  502  0.00000000000E+00  0.00000000000E+00  0.47847878914E+01  0.47847878914E+01  0.00000000000E+00 0. -1.
         13   -1    0    0    0    0 -0.00000000000E+00 -0.00000000000E+00 -0.10000000000E+04  0.10000000000E+04  0.00000000000E+00 0.  1.
    9000005    2    1    2  501    0  0.34016133298E+02 -0.73220804056E+01 -0.93175521496E+03  0.93241157860E+03  0.35862379859E+01 0.  0.
         13    1    3    3    0    0  0.30491573893E+02 -0.62102120681E+01 -0.80117545625E+03  0.80177952987E+03  0.00000000000E+00 0.  1.
          3    1    3    3  501    0  0.35245594042E+01 -0.11118683375E+01 -0.13057975871E+03  0.13063204873E+03  0.00000000000E+00 0.  1.
         -1    1    1    2    0  502 -0.34016133298E+02  0.73220804056E+01 -0.63459997144E+02  0.72373209294E+02  0.00000000000E+00 0. -1.
<mgrwt>
<rscale>  1 0.30000000E+03</rscale>
<asrwt>0</asrwt>
<pdfrwt beam="1">  1       21 0.17399265E-01 0.30000000E+03</pdfrwt>
<pdfrwt beam="2">0</pdfrwt>
<totfact> 0.31226060E+03</totfact>
</mgrwt>
</event>
<event>
 6    1  0.1270461E-001  0.3000000E+03  0.7818608E-02  0.1093470E+00
         21   -1    0    0  501  502  0.00000000000E+00  0.00000000000E+00  0.10370022498E+01  0.10370022498E+01  0.00000000000E+00 0. -1.
         13   -1    0    0    0    0 -0.00000000000E+00 -0.00000000000E+00 -0.10000000000E+04  0.10000000000E+04  0.00000000000E+00 0.  1.
    9000005    2    1    2  501    0 -0.12646063593E+02 -0.27354034229E+02 -0.67195374730E+03  0.67264209365E+03  0.41691160799E+01 0.  0.
         13    1    3    3    0    0 -0.27026194634E+01 -0.28040606572E+01 -0.98514952612E+02  0.98591900257E+02  0.00000000000E+00 0.  1.
          3    1    3    3  501    0 -0.99434441298E+01 -0.24549973572E+02 -0.57343879469E+03  0.57405019340E+03  0.00000000000E+00 0.  1.
         -3    1    1    2    0  502  0.12646063593E+02  0.27354034229E+02 -0.32700925045E+03  0.32839490860E+03  0.00000000000E+00 0. -1.
<mgrwt>
<rscale>  1 0.30000000E+03</rscale>
<asrwt>0</asrwt>
<pdfrwt beam="1">  1       21 0.37709252E-02 0.30000000E+03</pdfrwt>
<pdfrwt beam="2">0</pdfrwt>
<totfact> 0.46431320E+04</totfact>
</mgrwt>
</event>
<event>
 6    1  0.1270461E-001  0.3000000E+03  0.7818608E-02  0.1093470E+00
         21   -1    0    0  501  502  0.00000000000E+00  0.00000000000E+00  0.12210789836E+01  0.12210789836E+01  0.00000000000E+00 0. -1.
         13   -1    0    0    0    0 -0.00000000000E+00 -0.00000000000E+00 -0.10000000000E+04  0.10000000000E+04  0.00000000000E+00 0.  1.
    9000005    2    1    2  501    0  0.18198280490E+02  0.29615996826E+02 -0.53893276421E+03  0.54006300131E+03  0.33520674541E+01 0.  0.
         13    1    3    3    0    0  0.98314989540E+01  0.14379120766E+02 -0.24739023484E+03  0.24800271325E+03  0.00000000000E+00 0.  1.
          3    1    3    3  501    0  0.83667815364E+01  0.15236876060E+02 -0.29154252938E+03  0.29206028806E+03  0.00000000000E+00 0.  1.
         -1    1    1    2    0  502 -0.18198280490E+02 -0.29615996826E+02 -0.45984615680E+03  0.46115807768E+03  0.00000000000E+00 0. -1.
<mgrwt>
<rscale>  1 0.30000000E+03</rscale>
<asrwt>0</asrwt>
<pdfrwt beam="1">  1       21 0.44402966E-02 0.30000000E+03</pdfrwt>
<pdfrwt beam="2">0</pdfrwt>
<totfact> 0.35247652E+04</totfact>
</mgrwt>
</event>
<event>
 6    1  0.1270461E-001  0.3000000E+03  0.7818608E-02  0.1093470E+00
         21   -1    0    0  501  502  0.00000000000E+00  0.00000000000E+00  0.22540367677E+01  0.22540367677E+01  0.00000000000E+00 0. -1.
         13   -1    0    0    0    0 -0.00000000000E+00 -0.00000000000E+00 -0.10000000000E+04  0.10000000000E+04  0.00000000000E+00 0.  1.
    9000005    2    1    2  501    0  0.63319488330E+01  0.30962631779E+02 -0.87121935467E+03  0.87184023069E+03  0.91348643333E+01 0.  0.
         13    1    3    3    0    0  0.73151076663E+01  0.24786206065E+02 -0.76544803650E+03  0.76588417100E+03  0.00000000000E+00 0.  1.
          3    1    3    3  501    0 -0.98315883335E+00  0.61764257143E+01 -0.10577131818E+03  0.10595605969E+03  0.00000000000E+00 0.  1.
         -3    1    1    2    0  502 -0.63319488330E+01 -0.30962631779E+02 -0.12652660856E+03  0.13041380608E+03  0.00000000000E+00 0. -1.
<mgrwt>
<rscale>  1 0.30000000E+03</rscale>
<asrwt>0</asrwt>
<pdfrwt beam="1">  1       21 0.81965146E-02 0.30000000E+03</pdfrwt>
<pdfrwt beam="2">0</pdfrwt>
<totfact> 0.12240453E+04</totfact>
</mgrwt>
</event>
<event>
 6    1  0.1270461E-001  0.3000000E+03  0.7818608E-02  0.1093470E+00
         21   -1    0    0  501  502  0.00000000000E+00  0.00000000000E+00  0.99284143362E+00  0.99284143362E+00  0.00000000000E+00 0. -1.
         13   -1    0    0    0    0 -0.00000000000E+00 -0.00000000000E+00 -0.10000000000E+04  0.10000000000E+04  0.00000000000E+00 0.  1.
    9000005    2    1    2  501    0 -0.19144413040E+02 -0.24276172814E+02 -0.58956029361E+03  0.59038040088E+03  0.34404681616E+01 0.  0.
         13    1    3    3    0    0 -0.12520205936E+01 -0.65474579977E+00 -0.20072836248E+02  0.20122499911E+02  0.00000000000E+00 0.  1.
          3    1    3    3  501    0 -0.17892392446E+02 -0.23621427014E+02 -0.56948745737E+03  0.57025790097E+03  0.00000000000E+00 0.  1.
         -3    1    1    2    0  502  0.19144413040E+02  0.24276172814E+02 -0.40944686495E+03  0.41061244055E+03  0.00000000000E+00 0. -1.
<mgrwt>
<rscale>  1 0.30000000E+03</rscale>
<asrwt>0</asrwt>
<pdfrwt beam="1">  1       21 0.36103401E-02 0.30000000E+03</pdfrwt>
<pdfrwt beam="2">0</pdfrwt>
<totfact> 0.49949479E+04</totfact>
</mgrwt>
</event>
<event>
 6    1  0.1270461E-001  0.3000000E+03  0.7818608E-02  0.1093470E+00
         21   -1    0    0  501  502  0.00000000000E+00  0.00000000000E+00  0.23086898567E+01  0.23086898567E+01  0.00000000000E+00 0. -1.
         13   -1    0    0    0    0 -0.00000000000E+00 -0.00000000000E+00 -0.10000000000E+04  0.10000000000E+04  0.00000000000E+00 0.  1.
    9000005    2    1    2  501    0 -0.29863262893E+02 -0.11587411921E+02 -0.87090251475E+03  0.87153605808E+03  0.88220033074E+01 0.  0.
         13    1    3    3    0    0 -0.30206798791E+02 -0.12097637956E+02 -0.84508262332E+03  0.84570884102E+03  0.00000000000E+00 0.  1.
          1    1    3    3  501    0  0.34353589754E+00  0.51022603571E+00 -0.25819891428E+02  0.25827217057E+02  0.00000000000E+00 0.  1.
         -3    1    1    2    0  502  0.29863262893E+02  0.11587411921E+02 -0.12678879539E+03  0.13077263178E+03  0.00000000000E+00 0. -1.
<mgrwt>
<rscale>  1 0.30000000E+03</rscale>
<asrwt>0</asrwt>
<pdfrwt beam="1">  1       21 0.83952535E-02 0.30000000E+03</pdfrwt>
<pdfrwt beam="2">0</pdfrwt>
<totfact> 0.11734952E+04</totfact>
</mgrwt>
</event>
<event>
 6    1  0.1270461E-001  0.3000000E+03  0.7818608E-02  0.1093470E+00
         21   -1    0    0  501  502  0.00000000000E+00  0.00000000000E+00  0.17765508975E+01  0.17765508975E+01  0.00000000000E+00 0. -1.
         13   -1    0    0    0    0 -0.00000000000E+00 -0.00000000000E+00 -0.10000000000E+04  0.10000000000E+04  0.00000000000E+00 0.  1.
    9000005    2    1    2  501    0  0.79986504059E+01  0.34064583205E+02 -0.77774205218E+03  0.77853582740E+03  0.33106773381E+01 0.  0.
         13    1    3    3    0    0 -0.11492240300E+00  0.40188034399E+01 -0.84928900150E+02  0.85024008780E+02  0.00000000000E+00 0.  1.
          1    1    3    3  501    0  0.81135728089E+01  0.30045779765E+02 -0.69281315203E+03  0.69351181862E+03  0.00000000000E+00 0.  1.
         -1    1    1    2    0  502 -0.79986504059E+01 -0.34064583205E+02 -0.22048139692E+03  0.22324072349E+03  0.00000000000E+00 0. -1.
<mgrwt>
<rscale>  1 0.30000000E+03</rscale>
<asrwt>0</asrwt>
<pdfrwt beam="1">  1       21 0.64601987E-02 0.30000000E+03</pdfrwt>
<pdfrwt beam="2">0</pdfrwt>
<totfact> 0.18546193E+04</totfact>
</mgrwt>
</event>
<event>
 6    1  0.1270461E-001  0.3000000E+03  0.7818608E-02  0.1093470E+00
         21   -1    0    0  501  502  0.00000000000E+00  0.00000000000E+00  0.38136626281E+01  0.38136626281E+01  0.00000000000E+00 0. -1.
         13   -1    0    0    0    0 -0.00000000000E+00 -0.00000000000E+00 -0.10000000000E+04  0.10000000000E+04  0.00000000000E+00 0.  1.
    9000005    2    1    2  501    0  0.57959125308E+02 -0.44475188440E+01 -0.66675121365E+03  0.66928931168E+03  0.34584975714E+01 0.  0.
         13    1    3    3    0    0  0.22375032385E+02 -0.33063301884E+01 -0.26565712480E+03  0.26661823240E+03  0.00000000000E+00 0.  1.
          3    1    3    3  501    0  0.35584092923E+02 -0.11411886556E+01 -0.40109408885E+03  0.40267107928E+03  0.00000000000E+00 0.  1.
         -3    1    1    2    0  502 -0.57959125308E+02  0.44475188440E+01 -0.32943512373E+03  0.33452435094E+03  0.00000000000E+00 0. -1.
<mgrwt>
<rscale>  1 0.30000000E+03</rscale>
<asrwt>0</asrwt>
<pdfrwt beam="1">  1       21 0.13867893E-01 0.30000000E+03</pdfrwt>
<pdfrwt beam="2">0</pdfrwt>
<totfact> 0.47588209E+03</totfact>
</mgrwt>
</event>
<event>
 6    1  0.1270461E-001  0.3000000E+03  0.7818608E-02  0.1093470E+00
         21   -1    0    0  501  502  0.00000000000E+00  0.00000000000E+00  0.78669662898E+01  0.78669662898E+01  0.00000000000E+00 0. -1.
         13   -1    0    0    0    0 -0.00000000000E+00 -0.00000000000E+00 -0.10000000000E+04  0.10000000000E+04  0.00000000000E+00 0.  1.
    9000005    2    1    2  501    0  0.34082052729E+02  0.34080802334E+02 -0.91908635145E+03  0.92035179506E+03  0.21489168476E+01 0.  0.
         13    1    3    3    0    0  0.30385306512E+02  0.29740471742E+02 -0.82001366386E+03  0.82111519986E+03  0.00000000000E+00 0.  1.
          1    1    3    3  501    0  0.36967462168E+01  0.43403305925E+01 -0.99072687589E+02  0.99236595207E+02  0.00000000000E+00 0.  1.
         -3    1    1    2    0  502 -0.34082052729E+02 -0.34080802334E+02 -0.73046682257E+02  0.87515171226E+02  0.00000000000E+00 0. -1.
<mgrwt>
<rscale>  1 0.30000000E+03</rscale>
<asrwt>0</asrwt>
<pdfrwt beam="1">  1       21 0.28607210E-01 0.30000000E+03</pdfrwt>
<pdfrwt beam="2">0</pdfrwt>
<totfact> 0.11953854E+03</totfact>
</mgrwt>
</event>
<event>
 6    1  0.1270461E-001  0.3000000E+03  0.7818608E-02  0.1093470E+00
         21   -1    0    0  501  502  0.00000000000E+00  0.00000000000E+00  0.16280455040E+01  0.16280455040E+01  0.00000000000E+00 0. -1.
         13   -1    0    0    0    0 -0.00000000000E+00 -0.00000000000E+00 -0.10000000000E+04  0.10000000000E+04  0.00000000000E+00 0.  1.
    9000005    2    1    2  501    0  0.94061224227E+01 -0.35436283616E+02 -0.29520926214E+03  0.29751017379E+03  0.44260280235E+01 0.  0.
         13    1    3    3    0    0  0.93647434135E+01 -0.31934540868E+02 -0.27402107980E+03  0.27603453677E+03  0.00000000000E+00 0.  1.
          3    1    3    3  501    0  0.41379009213E-01 -0.35017427481E+01 -0.21188182341E+02  0.21475637019E+02  0.00000000000E+00 0.  1.
         -1    1    1    2    0  502 -0.94061224227E+01  0.35436283616E+02 -0.70316269236E+03  0.70411787171E+03  0.00000000000E+00 0. -1.
<mgrwt>
<rscale>  1 0.30000000E+03</rscale>
<asrwt>0</asrwt>
<pdfrwt beam="1">  1       21 0.59201780E-02 0.30000000E+03</pdfrwt>
<pdfrwt beam="2">0</pdfrwt>
<totfact> 0.21563915E+04</totfact>
</mgrwt>
</event>
<event>
 6    1  0.1270461E-001  0.3000000E+03  0.7818608E-02  0.1093470E+00
         21   -1    0    0  501  502  0.00000000000E+00  0.00000000000E+00  0.38089052250E+01  0.38089052250E+01  0.00000000000E+00 0. -1.
         13   -1    0    0    0    0 -0.00000000000E+00 -0.00000000000E+00 -0.10000000000E+04  0.10000000000E+04  0.00000000000E+00 0.  1.
    9000005    2    1    2  501    0  0.13653152927E+02  0.32485368620E+02 -0.91006403225E+03  0.91075204810E+03  0.33230346775E+01 0.  0.
         13    1    3    3    0    0  0.87410666540E+01  0.24462250054E+02 -0.65854774782E+03  0.65905989416E+03  0.00000000000E+00 0.  1.
          3    1    3    3  501    0  0.49120862728E+01  0.80231185663E+01 -0.25151628443E+03  0.25169215395E+03  0.00000000000E+00 0.  1.
         -1    1    1    2    0  502 -0.13653152927E+02 -0.32485368620E+02 -0.86127062521E+02  0.93056857123E+02  0.00000000000E+00 0. -1.
<mgrwt>
<rscale>  1 0.30000000E+03</rscale>
<asrwt>0</asrwt>
<pdfrwt beam="1">  1       21 0.13850594E-01 0.30000000E+03</pdfrwt>
<pdfrwt beam="2">0</pdfrwt>
<totfact> 0.47697373E+03</totfact>
</mgrwt>
</event>
<event>
 6    1  0.1270461E-001  0.3000000E+03  0.7818608E-02  0.1093470E+00
         21   -1    0    0  501  502  0.00000000000E+00  0.00000000000E+00  0.12031782146E+01  0.12031782146E+01  0.00000000000E+00 0. -1.
         13   -1    0    0    0    0 -0.00000000000E+00 -0.00000000000E+00 -0.10000000000E+04  0.10000000000E+04  0.00000000000E+00 0.  1.
    9000005    2    1    2  501    0 -0.24383109633E+01 -0.31363570489E+02 -0.70911536084E+03  0.70981860805E+03  0.28709652837E+01 0.  0.
         13    1    3    3    0    0 -0.16969609041E+01 -0.28059010527E+02 -0.64809471398E+03  0.64870405120E+03  0.00000000000E+00 0.  1.
          3    1    3    3  501    0 -0.74135005914E+00 -0.33045599613E+01 -0.61020646854E+02  0.61114556850E+02  0.00000000000E+00 0.  1.
         -1    1    1    2    0  502  0.24383109633E+01  0.31363570489E+02 -0.28968146095E+03  0.29138457017E+03  0.00000000000E+00 0. -1.
<mgrwt>
<rscale>  1 0.30000000E+03</rscale>
<asrwt>0</asrwt>
<pdfrwt beam="1">  1       21 0.43752027E-02 0.30000000E+03</pdfrwt>
<pdfrwt beam="2">0</pdfrwt>
<totfact> 0.36140684E+04</totfact>
</mgrwt>
</event>
<event>
 6    1  0.1270461E-001  0.3000000E+03  0.7818608E-02  0.1093470E+00
         21   -1    0    0  501  502  0.00000000000E+00  0.00000000000E+00  0.32303378837E+01  0.32303378837E+01  0.00000000000E+00 0. -1.
         13   -1    0    0    0    0 -0.00000000000E+00 -0.00000000000E+00 -0.10000000000E+04  0.10000000000E+04  0.00000000000E+00 0.  1.
    9000005    2    1    2  501    0  0.35881402827E+02 -0.42577187400E+02 -0.59700333592E+03  0.59960500726E+03  0.35902204760E+01 0.  0.
         13    1    3    3    0    0  0.39819079647E+01 -0.66392865039E+01 -0.81684999404E+02  0.82051050230E+02  0.00000000000E+00 0.  1.
          3    1    3    3  501    0  0.31899494862E+02 -0.35937900896E+02 -0.51531833651E+03  0.51755395703E+03  0.00000000000E+00 0.  1.
         -1    1    1    2    0  502 -0.35881402827E+02  0.42577187400E+02 -0.39976632620E+03  0.40362533062E+03  0.00000000000E+00 0. -1.
<mgrwt>
<rscale>  1 0.30000000E+03</rscale>
<asrwt>0</asrwt>
<pdfrwt beam="1">  1       21 0.11746708E-01 0.30000000E+03</pdfrwt>
<pdfrwt beam="2">0</pdfrwt>
<totfact> 0.64414689E+03</totfact>
</mgrwt>
</event>
<event>
 6    1  0.1270461E-001  0.3000000E+03  0.7818608E-02  0.1093470E+00
         21   -1    0    0  501  502  0.00000000000E+00  0.00000000000E+00  0.51050373593E+01  0.51050373593E+01  0.00000000000E+00 0. -1.
         13   -1    0    0    0    0 -0.00000000000E+00 -0.00000000000E+00 -0.10000000000E+04  0.10000000000E+04  0.00000000000E+00 0.  1.
    9000005    2    1    2  501    0  0.57819142278E+02  0.97393854407E+01 -0.78435693000E+03  0.78655487829E+03  0.38566921710E+01 0.  0.
         13    1    3    3    0    0 -0.45006989559E-01  0.79480947883E-01 -0.90307683504E+00  0.90768420730E+00  0.00000000000E+00 0.  1.
          3    1    3    3  501    0  0.57864149268E+02  0.96599044929E+01 -0.78345385317E+03  0.78564719408E+03  0.00000000000E+00 0.  1.
         -1    1    1    2    0  502 -0.57819142278E+02 -0.97393854407E+01 -0.21053803264E+03  0.21855015907E+03  0.00000000000E+00 0. -1.
<mgrwt>
<rscale>  1 0.30000000E+03</rscale>
<asrwt>0</asrwt>
<pdfrwt beam="1">  1       21 0.18563811E-01 0.30000000E+03</pdfrwt>
<pdfrwt beam="2">0</pdfrwt>
<totfact> 0.27639514E+03</totfact>
</mgrwt>
</event>
<event>
 6    1  0.1270461E-001  0.3000000E+03  0.7818608E-02  0.1093470E+00
         21   -1    0    0  501  502  0.00000000000E+00  0.00000000000E+00  0.10297657161E+01  0.10297657161E+01  0.00000000000E+00 0. -1.
         13   -1    0    0    0    0 -0.00000000000E+00 -0.00000000000E+00 -0.10000000000E+04  0.10000000000E+04  0.00000000000E+00 0.  1.
    9000005    2    1    2  501    0 -0.53479642265E+01  0.31433704590E+02 -0.53022815551E+03  0.53120446316E+03  0.44278983013E+01 0.  0.
         13    1    3    3    0    0 -0.32735938018E+01  0.80884466724E+01 -0.13415079865E+03  0.13443428196E+03  0.00000000000E+00 0.  1.
          3    1    3    3  501    0 -0.20743704247E+01  0.23345257917E+02 -0.39607735685E+03  0.39677018120E+03  0.00000000000E+00 0.  1.
         -3    1    1    2    0  502  0.53479642265E+01 -0.31433704590E+02 -0.46874207878E+03  0.46982530256E+03  0.00000000000E+00 0. -1.
<mgrwt>
<rscale>  1 0.30000000E+03</rscale>
<asrwt>0</asrwt>
<pdfrwt beam="1">  1       21 0.37446105E-02 0.30000000E+03</pdfrwt>
<pdfrwt beam="2">0</pdfrwt>
<totfact> 0.46980601E+04</totfact>
</mgrwt>
</event>
<event>
 6    1  0.1270461E-001  0.3000000E+03  0.7818608E-02  0.1093470E+00
         21   -1    0    0  501  502  0.00000000000E+00  0.00000000000E+00  0.18857417767E+01  0.18857417767E+01  0.00000000000E+00 0. -1.
         13   -1    0    0    0    0 -0.00000000000E+00 -0.00000000000E+00 -0.10000000000E+04  0.10000000000E+04  0.00000000000E+00 0.  1.
    9000005    2    1    2  501    0  0.35690390757E+02 -0.15072776269E+02 -0.71994784345E+03  0.72103427412E+03  0.80333424640E+01 0.  0.
         13    1    3    3    0    0  0.15874619157E+02 -0.61897449919E+01 -0.24612778377E+03  0.24671684665E+03  0.00000000000E+00 0.  1.
          1    1    3    3  501    0  0.19815771600E+02 -0.88830312774E+01 -0.47382005968E+03  0.47431742747E+03  0.00000000000E+00 0.  1.
         -1    1    1    2    0  502 -0.35690390757E+02  0.15072776269E+02 -0.27816641478E+03  0.28085146766E+03  0.00000000000E+00 0. -1.
<mgrwt>
<rscale>  1 0.30000000E+03</rscale>
<asrwt>0</asrwt>
<pdfrwt beam="1">  1       21 0.68572573E-02 0.30000000E+03</pdfrwt>
<pdfrwt beam="2">0</pdfrwt>
<totfact> 0.16723834E+04</totfact>
</mgrwt>
</event>
<event>
 6    1  0.1270461E-001  0.3000000E+03  0.7818608E-02  0.1093470E+00
         21   -1    0    0  501  502  0.00000000000E+00  0.00000000000E+00  0.12382756725E+01  0.12382756725E+01  0.00000000000E+00 0. -1.
         13   -1    0    0    0    0 -0.00000000000E+00 -0.00000000000E+00 -0.10000000000E+04  0.10000000000E+04  0.00000000000E+00 0.  1.
    9000005    2    1    2  501    0  0.85541510642E+01 -0.33758049046E+02 -0.56588765009E+03  0.56696561532E+03  0.28977687717E+01 0.  0.
         13    1    3    3    0    0  0.40585706154E+01 -0.21690368479E+02 -0.35564917958E+03  0.35633310682E+03  0.00000000000E+00 0.  1.
          1    1    3    3  501    0  0.44955804488E+01 -0.12067680567E+02 -0.21023847050E+03  0.21063250850E+03  0.00000000000E+00 0.  1.
         -3    1    1    2    0  502 -0.85541510642E+01  0.33758049046E+02 -0.43287407424E+03  0.43427266035E+03  0.00000000000E+00 0. -1.
<mgrwt>
<rscale>  1 0.30000000E+03</rscale>
<asrwt>0</asrwt>
<pdfrwt beam="1">  1       21 0.45028301E-02 0.30000000E+03</pdfrwt>
<pdfrwt beam="2">0</pdfrwt>
<totfact> 0.34421445E+04</totfact>
</mgrwt>
</event>
<event>
 6    1  0.1270461E-001  0.3000000E+03  0.7818608E-02  0.1093470E+00
         21   -1    0    0  501  502  0.00000000000E+00  0.00000000000E+00  0.39697714311E+01  0.39697714311E+01  0.00000000000E+00 0. -1.
         13   -1    0    0    0    0 -0.00000000000E+00 -0.00000000000E+00 -0.10000000000E+04  0.10000000000E+04  0.00000000000E+00 0.  1.
    9000005    2    1    2  501    0 -0.12289334923E+02  0.32046449042E+02 -0.91892116865E+03  0.91956710696E+03  0.30898789082E+01 0.  0.
         13    1    3    3    0    0 -0.44448207107E+01  0.15891658060E+02 -0.44280979282E+03  0.44311715589E+03  0.00000000000E+00 0.  1.
          3    1    3    3  501    0 -0.78445142118E+01  0.16154790982E+02 -0.47611137583E+03  0.47644995107E+03  0.00000000000E+00 0.  1.
         -1    1    1    2    0  502  0.12289334923E+02 -0.32046449042E+02 -0.77109059916E+02  0.84402664473E+02  0.00000000000E+00 0. -1.
<mgrwt>
<rscale>  1 0.30000000E+03</rscale>
<asrwt>0</asrwt>
<pdfrwt beam="1">  1       21 0.14435563E-01 0.30000000E+03</pdfrwt>
<pdfrwt beam="2">0</pdfrwt>
<totfact> 0.44203200E+03</totfact>
</mgrwt>
</event>
<event>
 6    1  0.1270461E-001  0.3000000E+03  0.7818608E-02  0.1093470E+00
         21   -1    0    0  501  502  0.00000000000E+00  0.00000000000E+00  0.33969606084E+01  0.33969606084E+01  0.00000000000E+00 0. -1.
         13   -1    0    0    0    0 -0.00000000000E+00 -0.00000000000E+00 -0.10000000000E+04  0.10000000000E+04  0.00000000000E+00 0.  1.
    9000005    2    1    2  501    0 -0.46006732699E+02  0.21870857477E+02 -0.73999388781E+03  0.74178042724E+03  0.72314844981E+01 0.  0.
         13    1    3    3    0    0 -0.41310174309E+01  0.24343882855E-01 -0.48709231323E+02  0.48884098782E+02  0.00000000000E+00 0.  1.
          3    1    3    3  501    0 -0.41875715268E+02  0.21846513594E+02 -0.69128465649E+03  0.69289632845E+03  0.00000000000E+00 0.  1.
         -1    1    1    2    0  502  0.46006732699E+02 -0.21870857477E+02 -0.25660915158E+03  0.26161653337E+03  0.00000000000E+00 0. -1.
<mgrwt>
<rscale>  1 0.30000000E+03</rscale>
<asrwt>0</asrwt>
<pdfrwt beam="1">  1       21 0.12352610E-01 0.30000000E+03</pdfrwt>
<pdfrwt beam="2">0</pdfrwt>
<totfact> 0.58793025E+03</totfact>
</mgrwt>
</event>
<event>
 6    1  0.1270461E-001  0.3000000E+03  0.7818608E-02  0.1093470E+00
         21   -1    0    0  501  502  0.00000000000E+00  0.00000000000E+00  0.31231965296E+01  0.31231965296E+01  0.00000000000E+00 0. -1.
         13   -1    0    0    0    0 -0.00000000000E+00 -0.00000000000E+00 -0.10000000000E+04  0.10000000000E+04  0.00000000000E+00 0.  1.
    9000005    2    1    2  501    0  0.30490134701E+02 -0.27059788267E+02 -0.84136392096E+03  0.84235585817E+03  0.28746916896E+01 0.  0.
         13    1    3    3    0    0  0.27328833109E+02 -0.23635764533E+02 -0.72775046354E+03  0.72864686349E+03  0.00000000000E+00 0.  1.
          3    1    3    3  501    0  0.31613015920E+01 -0.34240237345E+01 -0.11361345741E+03  0.11370899468E+03  0.00000000000E+00 0.  1.
         -1    1    1    2    0  502 -0.30490134701E+02  0.27059788267E+02 -0.15551288251E+03  0.16076733836E+03  0.00000000000E+00 0. -1.
<mgrwt>
<rscale>  1 0.30000000E+03</rscale>
<asrwt>0</asrwt>
<pdfrwt beam="1">  1       21 0.11357102E-01 0.30000000E+03</pdfrwt>
<pdfrwt beam="2">0</pdfrwt>
<totfact> 0.68463790E+03</totfact>
</mgrwt>
</event>
<event>
 6    1  0.1270461E-001  0.3000000E+03  0.7818608E-02  0.1093470E+00
         21   -1    0    0  501  502  0.00000000000E+00  0.00000000000E+00  0.10994156867E+01  0.10994156867E+01  0.00000000000E+00 0. -1.
         13   -1    0    0    0    0 -0.00000000000E+00 -0.00000000000E+00 -0.10000000000E+04  0.10000000000E+04  0.00000000000E+00 0.  1.
    9000005    2    1    2  501    0  0.16400895922E+02  0.26137326187E+02 -0.68100427688E+03  0.68170904093E+03  0.28709145177E+01 0.  0.
         13    1    3    3    0    0  0.10401751770E+02  0.14147397545E+02 -0.39921970114E+03  0.39960569950E+03  0.00000000000E+00 0.  1.
          3    1    3    3  501    0  0.59991441522E+01  0.11989928641E+02 -0.28178457574E+03  0.28210334143E+03  0.00000000000E+00 0.  1.
         -3    1    1    2    0  502 -0.16400895922E+02 -0.26137326187E+02 -0.31789630743E+03  0.31939037476E+03  0.00000000000E+00 0. -1.
<mgrwt>
<rscale>  1 0.30000000E+03</rscale>
<asrwt>0</asrwt>
<pdfrwt beam="1">  1       21 0.39978837E-02 0.30000000E+03</pdfrwt>
<pdfrwt beam="2">0</pdfrwt>
<totfact> 0.42084814E+04</totfact>
</mgrwt>
</event>
<event>
 6    1  0.1270461E-001  0.3000000E+03  0.7818608E-02  0.1093470E+00
         21   -1    0    0  501  502  0.00000000000E+00  0.00000000000E+00  0.20104384832E+01  0.20104384832E+01  0.00000000000E+00 0. -1.
         13   -1    0    0    0    0 -0.00000000000E+00 -0.00000000000E+00 -0.10000000000E+04  0.10000000000E+04  0.00000000000E+00 0.  1.
    9000005    2    1    2  501    0  0.16187638543E+02 -0.34583497837E+02 -0.76103582896E+03  0.76199975261E+03  0.31673397861E+01 0.  0.
         13    1    3    3    0    0  0.15476732144E+02 -0.30977634073E+02 -0.69338495067E+03  0.69424911441E+03  0.00000000000E+00 0.  1.
          3    1    3    3  501    0  0.71090639929E+00 -0.36058637642E+01 -0.67650878294E+02  0.67750638191E+02  0.00000000000E+00 0.  1.
         -1    1    1    2    0  502 -0.16187638543E+02  0.34583497837E+02 -0.23695373255E+03  0.24001068588E+03  0.00000000000E+00 0. -1.
<mgrwt>
<rscale>  1 0.30000000E+03</rscale>
<asrwt>0</asrwt>
<pdfrwt beam="1">  1       21 0.73107008E-02 0.30000000E+03</pdfrwt>
<pdfrwt beam="2">0</pdfrwt>
<totfact> 0.14958606E+04</totfact>
</mgrwt>
</event>
<event>
 6    1  0.1270461E-001  0.3000000E+03  0.7818608E-02  0.1093470E+00
         21   -1    0    0  501  502  0.00000000000E+00  0.00000000000E+00  0.63928963905E+01  0.63928963905E+01  0.00000000000E+00 0. -1.
         13   -1    0    0    0    0 -0.00000000000E+00 -0.00000000000E+00 -0.10000000000E+04  0.10000000000E+04  0.00000000000E+00 0.  1.
    9000005    2    1    2  501    0  0.39034300785E+02 -0.18512065154E+02 -0.92018288458E+03  0.92120199820E+03  0.31948747124E+01 0.  0.
         13    1    3    3    0    0  0.12560991064E+02 -0.50367030225E+01 -0.31472577689E+03  0.31501660514E+03  0.00000000000E+00 0.  1.
          3    1    3    3  501    0  0.26473309721E+02 -0.13475362132E+02 -0.60545710769E+03  0.60618539306E+03  0.00000000000E+00 0.  1.
         -3    1    1    2    0  502 -0.39034300785E+02  0.18512065154E+02 -0.73424219033E+02  0.85190898192E+02  0.00000000000E+00 0. -1.
<mgrwt>
<rscale>  1 0.30000000E+03</rscale>
<asrwt>0</asrwt>
<pdfrwt beam="1">  1       21 0.23246945E-01 0.30000000E+03</pdfrwt>
<pdfrwt beam="2">0</pdfrwt>
<totfact> 0.17967395E+03</totfact>
</mgrwt>
</event>
<event>
 6    1  0.1270461E-001  0.3000000E+03  0.7818608E-02  0.1093470E+00
         21   -1    0    0  501  502  0.00000000000E+00  0.00000000000E+00  0.27497901753E+01  0.27497901753E+01  0.00000000000E+00 0. -1.
         13   -1    0    0    0    0 -0.00000000000E+00 -0.00000000000E+00 -0.10000000000E+04  0.10000000000E+04  0.00000000000E+00 0.  1.
    9000005    2    1    2  501    0 -0.31514108277E+02  0.10219966944E+02 -0.88708990485E+03  0.88771553642E+03  0.35759712302E+01 0.  0.
         13    1    3    3    0    0 -0.26837353095E+02  0.73848181522E+01 -0.75202319540E+03  0.75253814885E+03  0.00000000000E+00 0.  1.
          1    1    3    3  501    0 -0.46767551821E+01  0.28351487917E+01 -0.13506670946E+03  0.13517738757E+03  0.00000000000E+00 0.  1.
         -3    1    1    2    0  502  0.31514108277E+02 -0.10219966944E+02 -0.11016030497E+03  0.11503425375E+03  0.00000000000E+00 0. -1.
<mgrwt>
<rscale>  1 0.30000000E+03</rscale>
<asrwt>0</asrwt>
<pdfrwt beam="1">  1       21 0.99992581E-02 0.30000000E+03</pdfrwt>
<pdfrwt beam="2">0</pdfrwt>
<totfact> 0.86043383E+03</totfact>
</mgrwt>
</event>
<event>
 6    1  0.1270461E-001  0.3000000E+03  0.7818608E-02  0.1093470E+00
         21   -1    0    0  501  502  0.00000000000E+00  0.00000000000E+00  0.42531361860E+01  0.42531361860E+01  0.00000000000E+00 0. -1.
         13   -1    0    0    0    0 -0.00000000000E+00 -0.00000000000E+00 -0.10000000000E+04  0.10000000000E+04  0.00000000000E+00 0.  1.
    9000005    2    1    2  501    0 -0.25666071274E+01  0.39542951069E+02 -0.89657914118E+03  0.89746142459E+03  0.35524347029E+01 0.  0.
         13    1    3    3    0    0 -0.61225311073E+00  0.23541109253E+02 -0.49821571330E+03  0.49877194754E+03  0.00000000000E+00 0.  1.
          1    1    3    3  501    0 -0.19543540167E+01  0.16001841816E+02 -0.39836342788E+03  0.39868947705E+03  0.00000000000E+00 0.  1.
         -3    1    1    2    0  502  0.25666071274E+01 -0.39542951069E+02 -0.99167722639E+02  0.10679171159E+03  0.00000000000E+00 0. -1.
<mgrwt>
<rscale>  1 0.30000000E+03</rscale>
<asrwt>0</asrwt>
<pdfrwt beam="1">  1       21 0.15465982E-01 0.30000000E+03</pdfrwt>
<pdfrwt beam="2">0</pdfrwt>
<totfact> 0.38909178E+03</totfact>
</mgrwt>
</event>
<event>
 6    1  0.1270461E-001  0.3000000E+03  0.7818608E-02  0.1093470E+00
         21   -1    0    0  501  502  0.00000000000E+00  0.00000000000E+00  0.18766167967E+01  0.18766167967E+01  0.00000000000E+00 0. -1.
         13   -1    0    0    0    0 -0.00000000000E+00 -0.00000000000E+00 -0.10000000000E+04  0.10000000000E+04  0.00000000000E+00 0.  1.
    9000005    2    1    2  501    0 -0.18204645936E+02 -0.39060546488E+02 -0.54016057296E+03  0.54189067028E+03  0.38624515536E+01 0.  0.
         13    1    3    3    0    0 -0.84899048173E+01 -0.16105440266E+02 -0.24938653406E+03  0.25005020908E+03  0.00000000000E+00 0.  1.
          3    1    3    3  501    0 -0.97147411186E+01 -0.22955106222E+02 -0.29077403890E+03  0.29184046120E+03  0.00000000000E+00 0.  1.
         -1    1    1    2    0  502  0.18204645936E+02  0.39060546488E+02 -0.45796281025E+03  0.45998594652E+03  0.00000000000E+00 0. -1.
<mgrwt>
<rscale>  1 0.30000000E+03</rscale>
<asrwt>0</asrwt>
<pdfrwt beam="1">  1       21 0.68240755E-02 0.30000000E+03</pdfrwt>
<pdfrwt beam="2">0</pdfrwt>
<totfact> 0.16865358E+04</totfact>
</mgrwt>
</event>
<event>
 6    1  0.1270461E-001  0.3000000E+03  0.7818608E-02  0.1093470E+00
         21   -1    0    0  501  502  0.00000000000E+00  0.00000000000E+00  0.13547497079E+01  0.13547497079E+01  0.00000000000E+00 0. -1.
         13   -1    0    0    0    0 -0.00000000000E+00 -0.00000000000E+00 -0.10000000000E+04  0.10000000000E+04  0.00000000000E+00 0.  1.
    9000005    2    1    2  501    0  0.12602261279E+02 -0.29140604692E+02 -0.75060784726E+03  0.75129366690E+03  0.46948618050E+01 0.  0.
         13    1    3    3    0    0 -0.17242565606E+00 -0.23560779558E+01 -0.68210307735E+02  0.68251204496E+02  0.00000000000E+00 0.  1.
          3    1    3    3  501    0  0.12774686935E+02 -0.26784526736E+02 -0.68239753953E+03  0.68304246241E+03  0.00000000000E+00 0.  1.
         -1    1    1    2    0  502 -0.12602261279E+02  0.29140604692E+02 -0.24803740303E+03  0.25006108280E+03  0.00000000000E+00 0. -1.
<mgrwt>
<rscale>  1 0.30000000E+03</rscale>
<asrwt>0</asrwt>
<pdfrwt beam="1">  1       21 0.49263730E-02 0.30000000E+03</pdfrwt>
<pdfrwt beam="2">0</pdfrwt>
<totfact> 0.29542130E+04</totfact>
</mgrwt>
</event>
<event>
 6    1  0.1270461E-001  0.3000000E+03  0.7818608E-02  0.1093470E+00
         21   -1    0    0  501  502  0.00000000000E+00  0.00000000000E+00  0.10218203927E+01  0.10218203927E+01  0.00000000000E+00 0. -1.
         13   -1    0    0    0    0 -0.00000000000E+00 -0.00000000000E+00 -0.10000000000E+04  0.10000000000E+04  0.00000000000E+00 0.  1.
    9000005    2    1    2  501    0  0.13754710467E+02  0.28069710809E+02 -0.50355396482E+03  0.50461245976E+03  0.94888532126E+01 0.  0.
         13    1    3    3    0    0  0.61945371231E+01  0.44582085192E+01 -0.14662296817E+03  0.14682146542E+03  0.00000000000E+00 0.  1.
          1    1    3    3  501    0  0.75601733443E+01  0.23611502290E+02 -0.35693099665E+03  0.35779099434E+03  0.00000000000E+00 0.  1.
         -1    1    1    2    0  502 -0.13754710467E+02 -0.28069710809E+02 -0.49542421479E+03  0.49640936063E+03  0.00000000000E+00 0. -1.
<mgrwt>
<rscale>  1 0.30000000E+03</rscale>
<asrwt>0</asrwt>
<pdfrwt beam="1">  1       21 0.37157184E-02 0.30000000E+03</pdfrwt>
<pdfrwt beam="2">0</pdfrwt>
<totfact> 0.47595547E+04</totfact>
</mgrwt>
</event>
<event>
 6    1  0.1270461E-001  0.3000000E+03  0.7818608E-02  0.1093470E+00
         21   -1    0    0  501  502  0.00000000000E+00  0.00000000000E+00  0.26161539146E+01  0.26161539146E+01  0.00000000000E+00 0. -1.
         13   -1    0    0    0    0 -0.00000000000E+00 -0.00000000000E+00 -0.10000000000E+04  0.10000000000E+04  0.00000000000E+00 0.  1.
    9000005    2    1    2  501    0  0.47560184029E+02  0.14606194160E+02 -0.60850939159E+03  0.61057195568E+03  0.62547096834E+01 0.  0.
         13    1    3    3    0    0  0.23124076651E+02  0.62512336415E+01 -0.25624265932E+03  0.25735986730E+03  0.00000000000E+00 0.  1.
          1    1    3    3  501    0  0.24436107378E+02  0.83549605185E+01 -0.35226673228E+03  0.35321208838E+03  0.00000000000E+00 0.  1.
         -1    1    1    2    0  502 -0.47560184029E+02 -0.14606194160E+02 -0.38887445449E+03  0.39204419823E+03  0.00000000000E+00 0. -1.
<mgrwt>
<rscale>  1 0.30000000E+03</rscale>
<asrwt>0</asrwt>
<pdfrwt beam="1">  1       21 0.95133070E-02 0.30000000E+03</pdfrwt>
<pdfrwt beam="2">0</pdfrwt>
<totfact> 0.94042435E+03</totfact>
</mgrwt>
</event>
<event>
 6    1  0.1270461E-001  0.3000000E+03  0.7818608E-02  0.1093470E+00
         21   -1    0    0  501  502  0.00000000000E+00  0.00000000000E+00  0.74236210978E+01  0.74236210978E+01  0.00000000000E+00 0. -1.
         13   -1    0    0    0    0 -0.00000000000E+00 -0.00000000000E+00 -0.10000000000E+04  0.10000000000E+04  0.00000000000E+00 0.  1.
    9000005    2    1    2  501    0  0.90728549519E+01  0.39927969157E+02 -0.93945304406E+03  0.94035165883E+03  0.35582086659E+01 0.  0.
         13    1    3    3    0    0  0.45780010999E+01  0.24101861173E+02 -0.52731425429E+03  0.52788462810E+03  0.00000000000E+00 0.  1.
          3    1    3    3  501    0  0.44948538520E+01  0.15826107985E+02 -0.41213878977E+03  0.41246703073E+03  0.00000000000E+00 0.  1.
         -3    1    1    2    0  502 -0.90728549519E+01 -0.39927969157E+02 -0.53123334843E+02  0.67071962271E+02  0.00000000000E+00 0. -1.
<mgrwt>
<rscale>  1 0.30000000E+03</rscale>
<asrwt>0</asrwt>
<pdfrwt beam="1">  1       21 0.26995043E-01 0.30000000E+03</pdfrwt>
<pdfrwt beam="2">0</pdfrwt>
<totfact> 0.13409637E+03</totfact>
</mgrwt>
</event>
<event>
 6    1  0.1270461E-001  0.3000000E+03  0.7818608E-02  0.1093470E+00
         21   -1    0    0  501  502  0.00000000000E+00  0.00000000000E+00  0.11946572413E+01  0.11946572413E+01  0.00000000000E+00 0. -1.
         13   -1    0    0    0    0 -0.00000000000E+00 -0.00000000000E+00 -0.10000000000E+04  0.10000000000E+04  0.00000000000E+00 0.  1.
    9000005    2    1    2  501    0  0.16768974936E+02  0.29969677722E+02 -0.54778733205E+03  0.54887107164E+03  0.30186140714E+01 0.  0.
         13    1    3    3    0    0  0.59040402657E+01  0.10931394617E+02 -0.22164152717E+03  0.22198945841E+03  0.00000000000E+00 0.  1.
          3    1    3    3  501    0  0.10864934670E+02  0.19038283105E+02 -0.32614580488E+03  0.32688161323E+03  0.00000000000E+00 0.  1.
         -3    1    1    2    0  502 -0.16768974936E+02 -0.29969677722E+02 -0.45101801071E+03  0.45232358560E+03  0.00000000000E+00 0. -1.
<mgrwt>
<rscale>  1 0.30000000E+03</rscale>
<asrwt>0</asrwt>
<pdfrwt beam="1">  1       21 0.43442173E-02 0.30000000E+03</pdfrwt>
<pdfrwt beam="2">0</pdfrwt>
<totfact> 0.36578133E+04</totfact>
</mgrwt>
</event>
<event>
 6    1  0.1270461E-001  0.3000000E+03  0.7818608E-02  0.1093470E+00
         21   -1    0    0  501  502  0.00000000000E+00  0.00000000000E+00  0.32584730738E+01  0.32584730738E+01  0.00000000000E+00 0. -1.
         13   -1    0    0    0    0 -0.00000000000E+00 -0.00000000000E+00 -0.10000000000E+04  0.10000000000E+04  0.00000000000E+00 0.  1.
    9000005    2    1    2  501    0  0.15891175081E+02  0.39260350083E+02 -0.83443600923E+03  0.83551764439E+03  0.35179606720E+01 0.  0.
         13    1    3    3    0    0  0.13469290180E+02  0.35738983347E+02 -0.75994611876E+03  0.76090525043E+03  0.00000000000E+00 0.  1.
          1    1    3    3  501    0  0.24218849005E+01  0.35213667354E+01 -0.74489890475E+02  0.74612393965E+02  0.00000000000E+00 0.  1.
         -1    1    1    2    0  502 -0.15891175081E+02 -0.39260350083E+02 -0.16230551769E+03  0.16774082868E+03  0.00000000000E+00 0. -1.
<mgrwt>
<rscale>  1 0.30000000E+03</rscale>
<asrwt>0</asrwt>
<pdfrwt beam="1">  1       21 0.11849018E-01 0.30000000E+03</pdfrwt>
<pdfrwt beam="2">0</pdfrwt>
<totfact> 0.63410722E+03</totfact>
</mgrwt>
</event>
<event>
 6    1  0.1270461E-001  0.3000000E+03  0.7818608E-02  0.1093470E+00
         21   -1    0    0  501  502  0.00000000000E+00  0.00000000000E+00  0.13160603705E+01  0.13160603705E+01  0.00000000000E+00 0. -1.
         13   -1    0    0    0    0 -0.00000000000E+00 -0.00000000000E+00 -0.10000000000E+04  0.10000000000E+04  0.00000000000E+00 0.  1.
    9000005    2    1    2  501    0 -0.63018837077E+01 -0.34351031615E+02 -0.63215644677E+03  0.63312845855E+03  0.31882163796E+01 0.  0.
         13    1    3    3    0    0 -0.28224520239E+00 -0.10958401427E+00 -0.52589599204E+01  0.52676684078E+01  0.00000000000E+00 0.  1.
          1    1    3    3  501    0 -0.60196385053E+01 -0.34241447601E+02 -0.62689748685E+03  0.62786079014E+03  0.00000000000E+00 0.  1.
         -3    1    1    2    0  502  0.63018837077E+01  0.34351031615E+02 -0.36652749286E+03  0.36818760182E+03  0.00000000000E+00 0. -1.
<mgrwt>
<rscale>  1 0.30000000E+03</rscale>
<asrwt>0</asrwt>
<pdfrwt beam="1">  1       21 0.47856842E-02 0.30000000E+03</pdfrwt>
<pdfrwt beam="2">0</pdfrwt>
<totfact> 0.31035874E+04</totfact>
</mgrwt>
</event>
<event>
 6    1  0.1270461E-001  0.3000000E+03  0.7818608E-02  0.1093470E+00
         21   -1    0    0  501  502  0.00000000000E+00  0.00000000000E+00  0.12365745211E+01  0.12365745211E+01  0.00000000000E+00 0. -1.
         13   -1    0    0    0    0 -0.00000000000E+00 -0.00000000000E+00 -0.10000000000E+04  0.10000000000E+04  0.00000000000E+00 0.  1.
    9000005    2    1    2  501    0  0.13149109831E+02 -0.30046809810E+02 -0.32309358973E+03  0.32477117495E+03  0.33374373234E+01 0.  0.
         13    1    3    3    0    0  0.11604050140E+02 -0.26245918683E+02 -0.27055365998E+03  0.27207128691E+03  0.00000000000E+00 0.  1.
          3    1    3    3  501    0  0.15450596911E+01 -0.38008911269E+01 -0.52539929743E+02  0.52699888047E+02  0.00000000000E+00 0.  1.
         -1    1    1    2    0  502 -0.13149109831E+02  0.30046809810E+02 -0.67566983575E+03  0.67646539957E+03  0.00000000000E+00 0. -1.
<mgrwt>
<rscale>  1 0.30000000E+03</rscale>
<asrwt>0</asrwt>
<pdfrwt beam="1">  1       21 0.44966441E-02 0.30000000E+03</pdfrwt>
<pdfrwt beam="2">0</pdfrwt>
<totfact> 0.34501837E+04</totfact>
</mgrwt>
</event>
<event>
 6    1  0.1270461E-001  0.3000000E+03  0.7818608E-02  0.1093470E+00
         21   -1    0    0  501  502  0.00000000000E+00  0.00000000000E+00  0.15048265413E+01  0.15048265413E+01  0.00000000000E+00 0. -1.
         13   -1    0    0    0    0 -0.00000000000E+00 -0.00000000000E+00 -0.10000000000E+04  0.10000000000E+04  0.00000000000E+00 0.  1.
    9000005    2    1    2  501    0 -0.27820030118E+02  0.22178677450E+02 -0.69767440517E+03  0.69858737501E+03  0.29827978654E+01 0.  0.
         13    1    3    3    0    0 -0.19067430756E+02  0.14914767552E+02 -0.44692300583E+03  0.44757813882E+03  0.00000000000E+00 0.  1.
          1    1    3    3  501    0 -0.87525993616E+01  0.72639098982E+01 -0.25075139934E+03  0.25100923620E+03  0.00000000000E+00 0.  1.
         -1    1    1    2    0  502  0.27820030118E+02 -0.22178677450E+02 -0.30082076829E+03  0.30291745153E+03  0.00000000000E+00 0. -1.
<mgrwt>
<rscale>  1 0.30000000E+03</rscale>
<asrwt>0</asrwt>
<pdfrwt beam="1">  1       21 0.54721081E-02 0.30000000E+03</pdfrwt>
<pdfrwt beam="2">0</pdfrwt>
<totfact> 0.24688400E+04</totfact>
</mgrwt>
</event>
<event>
 6    1  0.1270461E-001  0.3000000E+03  0.7818608E-02  0.1093470E+00
         21   -1    0    0  501  502  0.00000000000E+00  0.00000000000E+00  0.23582301575E+01  0.23582301575E+01  0.00000000000E+00 0. -1.
         13   -1    0    0    0    0 -0.00000000000E+00 -0.00000000000E+00 -0.10000000000E+04  0.10000000000E+04  0.00000000000E+00 0.  1.
    9000005    2    1    2  501    0 -0.21327865534E+02  0.25660744648E+02 -0.86234650369E+03  0.86300916949E+03  0.54756317280E+01 0.  0.
         13    1    3    3    0    0 -0.12746037849E+02  0.14946019145E+02 -0.43710844599E+03  0.43754958408E+03  0.00000000000E+00 0.  1.
          3    1    3    3  501    0 -0.85818276847E+01  0.10714725503E+02 -0.42523805770E+03  0.42545958541E+03  0.00000000000E+00 0.  1.
         -3    1    1    2    0  502  0.21327865534E+02 -0.25660744648E+02 -0.13529526616E+03  0.13934906066E+03  0.00000000000E+00 0. -1.
<mgrwt>
<rscale>  1 0.30000000E+03</rscale>
<asrwt>0</asrwt>
<pdfrwt beam="1">  1       21 0.85754005E-02 0.30000000E+03</pdfrwt>
<pdfrwt beam="2">0</pdfrwt>
<totfact> 0.11303788E+04</totfact>
</mgrwt>
</event>
<event>
 6    1  0.1270461E-001  0.3000000E+03  0.7818608E-02  0.1093470E+00
         21   -1    0    0  501  502  0.00000000000E+00  0.00000000000E+00  0.25005522316E+01  0.25005522316E+01  0.00000000000E+00 0. -1.
         13   -1    0    0    0    0 -0.00000000000E+00 -0.00000000000E+00 -0.10000000000E+04  0.10000000000E+04  0.00000000000E+00 0.  1.
    9000005    2    1    2  501    0  0.44454677631E+02 -0.82458049402E+01 -0.71191656848E+03  0.71336080642E+03  0.37720027626E+01 0.  0.
         13    1    3    3    0    0  0.18219516364E+01  0.17899389944E+00 -0.38494588589E+02  0.38538096700E+02  0.00000000000E+00 0.  1.
          1    1    3    3  501    0  0.42632725994E+02 -0.84247988397E+01 -0.67342197989E+03  0.67482270972E+03  0.00000000000E+00 0.  1.
         -1    1    1    2    0  502 -0.44454677631E+02  0.82458049402E+01 -0.28558287929E+03  0.28913974581E+03  0.00000000000E+00 0. -1.
<mgrwt>
<rscale>  1 0.30000000E+03</rscale>
<asrwt>0</asrwt>
<pdfrwt beam="1">  1       21 0.90929364E-02 0.30000000E+03</pdfrwt>
<pdfrwt beam="2">0</pdfrwt>
<totfact> 0.10190820E+04</totfact>
</mgrwt>
</event>
<event>
 6    1  0.1270461E-001  0.3000000E+03  0.7818608E-02  0.1093470E+00
         21   -1    0    0  501  502  0.00000000000E+00  0.00000000000E+00  0.51042689661E+01  0.51042689661E+01  0.00000000000E+00 0. -1.
         13   -1    0    0    0    0 -0.00000000000E+00 -0.00000000000E+00 -0.10000000000E+04  0.10000000000E+04  0.00000000000E+00 0.  1.
    9000005    2    1    2  501    0 -0.26604399661E+02  0.14974232858E+02 -0.95177294649E+03  0.95226871013E+03  0.34544009355E+01 0.  0.
         13    1    3    3    0    0 -0.17582562451E+02  0.94844558792E+01 -0.57113599651E+03  0.57148528232E+03  0.00000000000E+00 0.  1.
          3    1    3    3  501    0 -0.90218372104E+01  0.54897769784E+01 -0.38063694998E+03  0.38078342781E+03  0.00000000000E+00 0.  1.
         -1    1    1    2    0  502  0.26604399661E+02 -0.14974232858E+02 -0.43122784544E+02  0.52835558839E+02  0.00000000000E+00 0. -1.
<mgrwt>
<rscale>  1 0.30000000E+03</rscale>
<asrwt>0</asrwt>
<pdfrwt beam="1">  1       21 0.18561017E-01 0.30000000E+03</pdfrwt>
<pdfrwt beam="2">0</pdfrwt>
<totfact> 0.27647379E+03</totfact>
</mgrwt>
</event>
<event>
 6    1  0.1270461E-001  0.3000000E+03  0.7818608E-02  0.1093470E+00
         21   -1    0    0  501  502  0.00000000000E+00  0.00000000000E+00  0.23353984179E+01  0.23353984179E+01  0.00000000000E+00 0. -1.
         13   -1    0    0    0    0 -0.00000000000E+00 -0.00000000000E+00 -0.10000000000E+04  0.10000000000E+04  0.00000000000E+00 0.  1.
    9000005    2    1    2  501    0 -0.12874064814E+02 -0.36129614979E+02 -0.80330344213E+03  0.80422595662E+03  0.34465273214E+01 0.  0.
         13    1    3    3    0    0 -0.12283352462E+02 -0.32358875239E+02 -0.73780192642E+03  0.73861333605E+03  0.00000000000E+00 0.  1.
          1    1    3    3  501    0 -0.59071235214E+00 -0.37707397398E+01 -0.65501515702E+02  0.65612620573E+02  0.00000000000E+00 0.  1.
         -1    1    1    2    0  502  0.12874064814E+02  0.36129614979E+02 -0.19436115946E+03  0.19810944179E+03  0.00000000000E+00 0. -1.
<mgrwt>
<rscale>  1 0.30000000E+03</rscale>
<asrwt>0</asrwt>
<pdfrwt beam="1">  1       21 0.84923758E-02 0.30000000E+03</pdfrwt>
<pdfrwt beam="2">0</pdfrwt>
<totfact> 0.11499443E+04</totfact>
</mgrwt>
</event>
<event>
 6    1  0.1270461E-001  0.3000000E+03  0.7818608E-02  0.1093470E+00
         21   -1    0    0  501  502  0.00000000000E+00  0.00000000000E+00  0.13103427812E+01  0.13103427812E+01  0.00000000000E+00 0. -1.
         13   -1    0    0    0    0 -0.00000000000E+00 -0.00000000000E+00 -0.10000000000E+04  0.10000000000E+04  0.00000000000E+00 0.  1.
    9000005    2    1    2  501    0  0.24156442036E+02  0.25920574124E+02 -0.40537645491E+03  0.40694011650E+03  0.38442642288E+01 0.  0.
         13    1    3    3    0    0  0.22263103205E+02  0.22074398706E+02 -0.35766056446E+03  0.35903203786E+03  0.00000000000E+00 0.  1.
          1    1    3    3  501    0  0.18933388304E+01  0.38461754182E+01 -0.47715890455E+02  0.47908078642E+02  0.00000000000E+00 0.  1.
         -3    1    1    2    0  502 -0.24156442036E+02 -0.25920574124E+02 -0.59331320231E+03  0.59437022628E+03  0.00000000000E+00 0. -1.
<mgrwt>
<rscale>  1 0.30000000E+03</rscale>
<asrwt>0</asrwt>
<pdfrwt beam="1">  1       21 0.47648929E-02 0.30000000E+03</pdfrwt>
<pdfrwt beam="2">0</pdfrwt>
<totfact> 0.31266615E+04</totfact>
</mgrwt>
</event>
<event>
 6    1  0.1270461E-001  0.3000000E+03  0.7818608E-02  0.1093470E+00
         21   -1    0    0  501  502  0.00000000000E+00  0.00000000000E+00  0.50143943299E+01  0.50143943299E+01  0.00000000000E+00 0. -1.
         13   -1    0    0    0    0 -0.00000000000E+00 -0.00000000000E+00 -0.10000000000E+04  0.10000000000E+04  0.00000000000E+00 0.  1.
    9000005    2    1    2  501    0  0.50577456038E+02  0.44941171649E+02 -0.64558288848E+03  0.64912108623E+03  0.17693856163E+01 0.  0.
         13    1    3    3    0    0  0.46097915432E+02  0.41483603806E+02 -0.59436444780E+03  0.59759100060E+03  0.00000000000E+00 0.  1.
          1    1    3    3  501    0  0.44795406063E+01  0.34575678433E+01 -0.51218440677E+02  0.51530085628E+02  0.00000000000E+00 0.  1.
         -1    1    1    2    0  502 -0.50577456038E+02 -0.44941171649E+02 -0.34940271719E+03  0.35589330810E+03  0.00000000000E+00 0. -1.
<mgrwt>
<rscale>  1 0.30000000E+03</rscale>
<asrwt>0</asrwt>
<pdfrwt beam="1">  1       21 0.18234200E-01 0.30000000E+03</pdfrwt>
<pdfrwt beam="2">0</pdfrwt>
<totfact> 0.28590381E+03</totfact>
</mgrwt>
</event>
<event>
 6    1  0.1270461E-001  0.3000000E+03  0.7818608E-02  0.1093470E+00
         21   -1    0    0  501  502  0.00000000000E+00  0.00000000000E+00  0.39260884974E+01  0.39260884974E+01  0.00000000000E+00 0. -1.
         13   -1    0    0    0    0 -0.00000000000E+00 -0.00000000000E+00 -0.10000000000E+04  0.10000000000E+04  0.00000000000E+00 0.  1.
    9000005    2    1    2  501    0  0.27442354923E+02  0.15941509190E+02 -0.93079066450E+03  0.93133740551E+03  0.32995783562E+01 0.  0.
         13    1    3    3    0    0  0.16121859239E+02  0.10824806572E+02 -0.59637350334E+03  0.59668957278E+03  0.00000000000E+00 0.  1.
          1    1    3    3  501    0  0.11320495684E+02  0.51167026182E+01 -0.33441716117E+03  0.33464783273E+03  0.00000000000E+00 0.  1.
         -1    1    1    2    0  502 -0.27442354923E+02 -0.15941509190E+02 -0.65283246998E+02  0.72588682986E+02  0.00000000000E+00 0. -1.
<mgrwt>
<rscale>  1 0.30000000E+03</rscale>
<asrwt>0</asrwt>
<pdfrwt beam="1">  1       21 0.14276716E-01 0.30000000E+03</pdfrwt>
<pdfrwt beam="2">0</pdfrwt>
<totfact> 0.45113316E+03</totfact>
</mgrwt>
</event>
<event>
 6    1  0.1270461E-001  0.3000000E+03  0.7818608E-02  0.1093470E+00
         21   -1    0    0  501  502  0.00000000000E+00  0.00000000000E+00  0.12172905930E+01  0.12172905930E+01  0.00000000000E+00 0. -1.
         13   -1    0    0    0    0 -0.00000000000E+00 -0.00000000000E+00 -0.10000000000E+04  0.10000000000E+04  0.00000000000E+00 0.  1.
    9000005    2    1    2  501    0  0.17435997154E+02 -0.29782328302E+02 -0.43494754569E+03  0.43632695352E+03  0.32926872970E+01 0.  0.
         13    1    3    3    0    0  0.12720309621E+02 -0.21775332478E+02 -0.29852547473E+03  0.29958876889E+03  0.00000000000E+00 0.  1.
          3    1    3    3  501    0  0.47156875328E+01 -0.80069958234E+01 -0.13642207096E+03  0.13673818463E+03  0.00000000000E+00 0.  1.
         -1    1    1    2    0  502 -0.17435997154E+02  0.29782328302E+02 -0.56383516371E+03  0.56489033707E+03  0.00000000000E+00 0. -1.
<mgrwt>
<rscale>  1 0.30000000E+03</rscale>
<asrwt>0</asrwt>
<pdfrwt beam="1">  1       21 0.44265206E-02 0.30000000E+03</pdfrwt>
<pdfrwt beam="2">0</pdfrwt>
<totfact> 0.35433780E+04</totfact>
</mgrwt>
</event>
<event>
 6    1  0.1270461E-001  0.3000000E+03  0.7818608E-02  0.1093470E+00
         21   -1    0    0  501  502  0.00000000000E+00  0.00000000000E+00  0.18181574877E+01  0.18181574877E+01  0.00000000000E+00 0. -1.
         13   -1    0    0    0    0 -0.00000000000E+00 -0.00000000000E+00 -0.10000000000E+04  0.10000000000E+04  0.00000000000E+00 0.  1.
    9000005    2    1    2  501    0  0.22547839783E+02 -0.23766798988E+02 -0.81927406288E+03  0.81993561455E+03  0.33400725054E+01 0.  0.
         13    1    3    3    0    0  0.13392336831E+02 -0.13311817625E+02 -0.43265101715E+03  0.43306288437E+03  0.00000000000E+00 0.  1.
          1    1    3    3  501    0  0.91555029521E+01 -0.10454981363E+02 -0.38662304572E+03  0.38687273018E+03  0.00000000000E+00 0.  1.
         -1    1    1    2    0  502 -0.22547839783E+02  0.23766798988E+02 -0.17890777963E+03  0.18188254294E+03  0.00000000000E+00 0. -1.
<mgrwt>
<rscale>  1 0.30000000E+03</rscale>
<asrwt>0</asrwt>
<pdfrwt beam="1">  1       21 0.66114957E-02 0.30000000E+03</pdfrwt>
<pdfrwt beam="2">0</pdfrwt>
<totfact> 0.17817299E+04</totfact>
</mgrwt>
</event>
<event>
 6    1  0.1270461E-001  0.3000000E+03  0.7818608E-02  0.1093470E+00
         21   -1    0    0  501  502  0.00000000000E+00  0.00000000000E+00  0.19566615599E+01  0.19566615599E+01  0.00000000000E+00 0. -1.
         13   -1    0    0    0    0 -0.00000000000E+00 -0.00000000000E+00 -0.10000000000E+04  0.10000000000E+04  0.00000000000E+00 0.  1.
    9000005    2    1    2  501    0  0.24029758962E+02 -0.22543354673E+02 -0.83169038663E+03  0.83237206105E+03  0.69797306857E+01 0.  0.
         13    1    3    3    0    0  0.14382389259E+02 -0.87146690340E+01 -0.41999964973E+03  0.42033618016E+03  0.00000000000E+00 0.  1.
          1    1    3    3  501    0  0.96473697032E+01 -0.13828685640E+02 -0.41169073690E+03  0.41203588089E+03  0.00000000000E+00 0.  1.
         -3    1    1    2    0  502 -0.24029758962E+02  0.22543354673E+02 -0.16635295181E+03  0.16958460051E+03  0.00000000000E+00 0. -1.
<mgrwt>
<rscale>  1 0.30000000E+03</rscale>
<asrwt>0</asrwt>
<pdfrwt beam="1">  1       21 0.71151479E-02 0.30000000E+03</pdfrwt>
<pdfrwt beam="2">0</pdfrwt>
<totfact> 0.15683268E+04</totfact>
</mgrwt>
</event>
<event>
 6    1  0.1270461E-001  0.3000000E+03  0.7818608E-02  0.1093470E+00
         21   -1    0    0  501  502  0.00000000000E+00  0.00000000000E+00  0.38102495390E+01  0.38102495390E+01  0.00000000000E+00 0. -1.
         13   -1    0    0    0    0 -0.00000000000E+00 -0.00000000000E+00 -0.10000000000E+04  0.10000000000E+04  0.00000000000E+00 0.  1.
    9000005    2    1    2  501    0 -0.35967828109E+02  0.41433654645E+01 -0.90451027497E+03  0.90524058705E+03  0.32910159528E+01 0.  0.
         13    1    3    3    0    0 -0.20459974141E+02  0.28293756507E+01 -0.55420130127E+03  0.55458606026E+03  0.00000000000E+00 0.  1.
          3    1    3    3  501    0 -0.15507853968E+02  0.13139898138E+01 -0.35030897370E+03  0.35065452679E+03  0.00000000000E+00 0.  1.
         -1    1    1    2    0  502  0.35967828109E+02 -0.41433654645E+01 -0.91679475490E+02  0.98569662485E+02  0.00000000000E+00 0. -1.
<mgrwt>
<rscale>  1 0.30000000E+03</rscale>
<asrwt>0</asrwt>
<pdfrwt beam="1">  1       21 0.13855482E-01 0.30000000E+03</pdfrwt>
<pdfrwt beam="2">0</pdfrwt>
<totfact> 0.47666488E+03</totfact>
</mgrwt>
</event>
<event>
 6    1  0.1270461E-001  0.3000000E+03  0.7818608E-02  0.1093470E+00
         21   -1    0    0  501  502  0.00000000000E+00  0.00000000000E+00  0.20698522605E+01  0.20698522605E+01  0.00000000000E+00 0. -1.
         13   -1    0    0    0    0 -0.00000000000E+00 -0.00000000000E+00 -0.10000000000E+04  0.10000000000E+04  0.00000000000E+00 0.  1.
    9000005    2    1    2  501    0 -0.19285890710E+02 -0.24801244710E+02 -0.86093163631E+03  0.86151509619E+03  0.42345303639E+01 0.  0.
         13    1    3    3    0    0 -0.17978140979E+02 -0.23846427039E+02 -0.83426001875E+03  0.83479437259E+03  0.00000000000E+00 0.  1.
          1    1    3    3  501    0 -0.13077497307E+01 -0.95481767029E+00 -0.26671617566E+02  0.26720723600E+02  0.00000000000E+00 0.  1.
         -3    1    1    2    0  502  0.19285890710E+02  0.24801244710E+02 -0.13699851143E+03  0.14055475607E+03  0.00000000000E+00 0. -1.
<mgrwt>
<rscale>  1 0.30000000E+03</rscale>
<asrwt>0</asrwt>
<pdfrwt beam="1">  1       21 0.75267514E-02 0.30000000E+03</pdfrwt>
<pdfrwt beam="2">0</pdfrwt>
<totfact> 0.14215560E+04</totfact>
</mgrwt>
</event>
<event>
 6    1  0.1270461E-001  0.3000000E+03  0.7818608E-02  0.1093470E+00
         21   -1    0    0  501  502  0.00000000000E+00  0.00000000000E+00  0.26496198842E+01  0.26496198842E+01  0.00000000000E+00 0. -1.
         13   -1    0    0    0    0 -0.00000000000E+00 -0.00000000000E+00 -0.10000000000E+04  0.10000000000E+04  0.00000000000E+00 0.  1.
    9000005    2    1    2  501    0 -0.29401730744E+02 -0.39860891393E+02 -0.63363040060E+03  0.63557254905E+03  0.34100011469E+01 0.  0.
         13    1    3    3    0    0 -0.27660985303E+02 -0.35888272080E+02 -0.57875173355E+03  0.58052275344E+03  0.00000000000E+00 0.  1.
          1    1    3    3  501    0 -0.17407454414E+01 -0.39726193128E+01 -0.54878667053E+02  0.55049795607E+02  0.00000000000E+00 0.  1.
         -3    1    1    2    0  502  0.29401730744E+02  0.39860891393E+02 -0.36371997951E+03  0.36707707083E+03  0.00000000000E+00 0. -1.
<mgrwt>
<rscale>  1 0.30000000E+03</rscale>
<asrwt>0</asrwt>
<pdfrwt beam="1">  1       21 0.96350017E-02 0.30000000E+03</pdfrwt>
<pdfrwt beam="2">0</pdfrwt>
<totfact> 0.91935602E+03</totfact>
</mgrwt>
</event>
<event>
 6    1  0.1270461E-001  0.3000000E+03  0.7818608E-02  0.1093470E+00
         21   -1    0    0  501  502  0.00000000000E+00  0.00000000000E+00  0.38881717586E+01  0.38881717586E+01  0.00000000000E+00 0. -1.
         13   -1    0    0    0    0 -0.00000000000E+00 -0.00000000000E+00 -0.10000000000E+04  0.10000000000E+04  0.00000000000E+00 0.  1.
    9000005    2    1    2  501    0  0.75158586196E+01  0.52364248375E+02 -0.76351249788E+03  0.76534896927E+03  0.30344204136E+01 0.  0.
         13    1    3    3    0    0  0.76247839045E+01  0.51159754226E+02 -0.74013679773E+03  0.74194200389E+03  0.00000000000E+00 0.  1.
          1    1    3    3  501    0 -0.10892528489E+00  0.12044941485E+01 -0.23375700151E+02  0.23406965383E+02  0.00000000000E+00 0.  1.
         -1    1    1    2    0  502 -0.75158586196E+01 -0.52364248375E+02 -0.23259933036E+03  0.23853920249E+03  0.00000000000E+00 0. -1.
<mgrwt>
<rscale>  1 0.30000000E+03</rscale>
<asrwt>0</asrwt>
<pdfrwt beam="1">  1       21 0.14138836E-01 0.30000000E+03</pdfrwt>
<pdfrwt beam="2">0</pdfrwt>
<totfact> 0.45926094E+03</totfact>
</mgrwt>
</event>
<event>
 6    1  0.1270461E-001  0.3000000E+03  0.7818608E-02  0.1093470E+00
         21   -1    0    0  501  502  0.00000000000E+00  0.00000000000E+00  0.43766514186E+01  0.43766514186E+01  0.00000000000E+00 0. -1.
         13   -1    0    0    0    0 -0.00000000000E+00 -0.00000000000E+00 -0.10000000000E+04  0.10000000000E+04  0.00000000000E+00 0.  1.
    9000005    2    1    2  501    0  0.42654795686E+02  0.10910096296E+01 -0.88147656174E+03  0.88251562055E+03  0.35028172658E+01 0.  0.
         13    1    3    3    0    0  0.34889126937E+01  0.49294348391E+00 -0.56626758510E+02  0.56736278380E+02  0.00000000000E+00 0.  1.
          3    1    3    3  501    0  0.39165882992E+02  0.59806614574E+00 -0.82484980323E+03  0.82577934217E+03  0.00000000000E+00 0.  1.
         -1    1    1    2    0  502 -0.42654795686E+02 -0.10910096296E+01 -0.11414678684E+03  0.12186103086E+03  0.00000000000E+00 0. -1.
<mgrwt>
<rscale>  1 0.30000000E+03</rscale>
<asrwt>0</asrwt>
<pdfrwt beam="1">  1       21 0.15915130E-01 0.30000000E+03</pdfrwt>
<pdfrwt beam="2">0</pdfrwt>
<totfact> 0.36890473E+03</totfact>
</mgrwt>
</event>
<event>
 6    1  0.1270461E-001  0.3000000E+03  0.7818608E-02  0.1093470E+00
         21   -1    0    0  501  502  0.00000000000E+00  0.00000000000E+00  0.17094282805E+01  0.17094282805E+01  0.00000000000E+00 0. -1.
         13   -1    0    0    0    0 -0.00000000000E+00 -0.00000000000E+00 -0.10000000000E+04  0.10000000000E+04  0.00000000000E+00 0.  1.
    9000005    2    1    2  501    0 -0.39040850978E+02 -0.99654253535E+01 -0.60969280715E+03  0.61102833023E+03  0.26083524750E+01 0.  0.
         13    1    3    3    0    0 -0.13017229836E+02 -0.42845789314E+01 -0.21956591011E+03  0.21999316982E+03  0.00000000000E+00 0.  1.
          1    1    3    3  501    0 -0.26023621142E+02 -0.56808464221E+01 -0.39012689705E+03  0.39103516040E+03  0.00000000000E+00 0.  1.
         -3    1    1    2    0  502  0.39040850978E+02  0.99654253535E+01 -0.38859776457E+03  0.39068109805E+03  0.00000000000E+00 0. -1.
<mgrwt>
<rscale>  1 0.30000000E+03</rscale>
<asrwt>0</asrwt>
<pdfrwt beam="1">  1       21 0.62161159E-02 0.30000000E+03</pdfrwt>
<pdfrwt beam="2">0</pdfrwt>
<totfact> 0.19823259E+04</totfact>
</mgrwt>
</event>
<event>
 6    1  0.1270461E-001  0.3000000E+03  0.7818608E-02  0.1093470E+00
         21   -1    0    0  501  502  0.00000000000E+00  0.00000000000E+00  0.13903287725E+01  0.13903287725E+01  0.00000000000E+00 0. -1.
         13   -1    0    0    0    0 -0.00000000000E+00 -0.00000000000E+00 -0.10000000000E+04  0.10000000000E+04  0.00000000000E+00 0.  1.
    9000005    2    1    2  501    0 -0.17924751390E+02 -0.31599318606E+02 -0.60899555178E+03  0.61008613033E+03  0.31129857050E+01 0.  0.
         13    1    3    3    0    0 -0.49451859927E+01 -0.67043660808E+01 -0.15408551310E+03  0.15431055938E+03  0.00000000000E+00 0.  1.
          3    1    3    3  501    0 -0.12979565397E+02 -0.24894952525E+02 -0.45491003868E+03  0.45577557095E+03  0.00000000000E+00 0.  1.
         -3    1    1    2    0  502  0.17924751390E+02  0.31599318606E+02 -0.38961411944E+03  0.39130419844E+03  0.00000000000E+00 0. -1.
<mgrwt>
<rscale>  1 0.30000000E+03</rscale>
<asrwt>0</asrwt>
<pdfrwt beam="1">  1       21 0.50557517E-02 0.30000000E+03</pdfrwt>
<pdfrwt beam="2">0</pdfrwt>
<totfact> 0.28265125E+04</totfact>
</mgrwt>
</event>
<event>
 6    1  0.1270461E-001  0.3000000E+03  0.7818608E-02  0.1093470E+00
         21   -1    0    0  501  502  0.00000000000E+00  0.00000000000E+00  0.10866716514E+01  0.10866716514E+01  0.00000000000E+00 0. -1.
         13   -1    0    0    0    0 -0.00000000000E+00 -0.00000000000E+00 -0.10000000000E+04  0.10000000000E+04  0.00000000000E+00 0.  1.
    9000005    2    1    2  501    0  0.16553169137E+02 -0.27985693217E+02 -0.42461762643E+03  0.42587126880E+03  0.30004137054E+01 0.  0.
         13    1    3    3    0    0  0.81310022536E+01 -0.12123790657E+02 -0.20672438242E+03  0.20723916083E+03  0.00000000000E+00 0.  1.
          1    1    3    3  501    0  0.84221668837E+01 -0.15861902560E+02 -0.21789324402E+03  0.21863210797E+03  0.00000000000E+00 0.  1.
         -3    1    1    2    0  502 -0.16553169137E+02  0.27985693217E+02 -0.57429570192E+03  0.57521540285E+03  0.00000000000E+00 0. -1.
<mgrwt>
<rscale>  1 0.30000000E+03</rscale>
<asrwt>0</asrwt>
<pdfrwt beam="1">  1       21 0.39515416E-02 0.30000000E+03</pdfrwt>
<pdfrwt beam="2">0</pdfrwt>
<totfact> 0.42919037E+04</totfact>
</mgrwt>
</event>
<event>
 6    1  0.1270461E-001  0.3000000E+03  0.7818608E-02  0.1093470E+00
         21   -1    0    0  501  502  0.00000000000E+00  0.00000000000E+00  0.14811690922E+01  0.14811690922E+01  0.00000000000E+00 0. -1.
         13   -1    0    0    0    0 -0.00000000000E+00 -0.00000000000E+00 -0.10000000000E+04  0.10000000000E+04  0.00000000000E+00 0.  1.
    9000005    2    1    2  501    0 -0.15302280043E+02  0.34490348576E+02 -0.58562824352E+03  0.58687004880E+03  0.56807258883E+01 0.  0.
         13    1    3    3    0    0 -0.63806984341E+01  0.15000226694E+02 -0.29696734705E+03  0.29741440000E+03  0.00000000000E+00 0.  1.
          1    1    3    3  501    0 -0.89215816094E+01  0.19490121882E+02 -0.28866089648E+03  0.28945564880E+03  0.00000000000E+00 0.  1.
         -1    1    1    2    0  502  0.15302280043E+02 -0.34490348576E+02 -0.41289058739E+03  0.41461112029E+03  0.00000000000E+00 0. -1.
<mgrwt>
<rscale>  1 0.30000000E+03</rscale>
<asrwt>0</asrwt>
<pdfrwt beam="1">  1       21 0.53860808E-02 0.30000000E+03</pdfrwt>
<pdfrwt beam="2">0</pdfrwt>
<totfact> 0.25367752E+04</totfact>
</mgrwt>
</event>
<event>
 6    1  0.1270461E-001  0.3000000E+03  0.7818608E-02  0.1093470E+00
         21   -1    0    0  501  502  0.00000000000E+00  0.00000000000E+00  0.93381667448E+00  0.93381667448E+00  0.00000000000E+00 0. -1.
         13   -1    0    0    0    0 -0.00000000000E+00 -0.00000000000E+00 -0.10000000000E+04  0.10000000000E+04  0.00000000000E+00 0.  1.
    9000005    2    1    2  501    0  0.20545926693E+02 -0.22521580011E+02 -0.50150803116E+03  0.50244262171E+03  0.29876619385E+01 0.  0.
         13    1    3    3    0    0  0.15981396400E+02 -0.15904118522E+02 -0.38143993738E+03  0.38210570768E+03  0.00000000000E+00 0.  1.
          3    1    3    3  501    0  0.45645302932E+01 -0.66174614891E+01 -0.12006809378E+03  0.12033691403E+03  0.00000000000E+00 0.  1.
         -3    1    1    2    0  502 -0.20545926693E+02  0.22521580011E+02 -0.49755815217E+03  0.49849119496E+03  0.00000000000E+00 0. -1.
<mgrwt>
<rscale>  1 0.30000000E+03</rscale>
<asrwt>0</asrwt>
<pdfrwt beam="1">  1       21 0.33957042E-02 0.30000000E+03</pdfrwt>
<pdfrwt beam="2">0</pdfrwt>
<totfact> 0.55347829E+04</totfact>
</mgrwt>
</event>
<event>
 6    1  0.1270461E-001  0.3000000E+03  0.7818608E-02  0.1093470E+00
         21   -1    0    0  501  502  0.00000000000E+00  0.00000000000E+00  0.19751448816E+01  0.19751448816E+01  0.00000000000E+00 0. -1.
         13   -1    0    0    0    0 -0.00000000000E+00 -0.00000000000E+00 -0.10000000000E+04  0.10000000000E+04  0.00000000000E+00 0.  1.
    9000005    2    1    2  501    0 -0.16065368507E+02  0.41250283638E+02 -0.53588846731E+03  0.53772335662E+03  0.32057597596E+01 0.  0.
         13    1    3    3    0    0 -0.10776662979E+02  0.24542748438E+02 -0.33699020034E+03  0.33805454899E+03  0.00000000000E+00 0.  1.
          1    1    3    3  501    0 -0.52887055283E+01  0.16707535201E+02 -0.19889826696E+03  0.19966880763E+03  0.00000000000E+00 0.  1.
         -1    1    1    2    0  502  0.16065368507E+02 -0.41250283638E+02 -0.46213638781E+03  0.46425178826E+03  0.00000000000E+00 0. -1.
<mgrwt>
<rscale>  1 0.30000000E+03</rscale>
<asrwt>0</asrwt>
<pdfrwt beam="1">  1       21 0.71823602E-02 0.30000000E+03</pdfrwt>
<pdfrwt beam="2">0</pdfrwt>
<totfact> 0.15428288E+04</totfact>
</mgrwt>
</event>
<event>
 6    1  0.1270461E-001  0.3000000E+03  0.7818608E-02  0.1093470E+00
         21   -1    0    0  501  502  0.00000000000E+00  0.00000000000E+00  0.10401162054E+01  0.10401162054E+01  0.00000000000E+00 0. -1.
         13   -1    0    0    0    0 -0.00000000000E+00 -0.00000000000E+00 -0.10000000000E+04  0.10000000000E+04  0.00000000000E+00 0.  1.
    9000005    2    1    2  501    0  0.25931238770E+02  0.18037028566E+02 -0.58981271974E+03  0.59067544253E+03  0.45464823632E+01 0.  0.
         13    1    3    3    0    0  0.19849288218E+02  0.15047163552E+02 -0.43227476458E+03  0.43299178221E+03  0.00000000000E+00 0.  1.
          1    1    3    3  501    0  0.60819505517E+01  0.29898650145E+01 -0.15753795516E+03  0.15768366032E+03  0.00000000000E+00 0.  1.
         -3    1    1    2    0  502 -0.25931238770E+02 -0.18037028566E+02 -0.40914716406E+03  0.41036467368E+03  0.00000000000E+00 0. -1.
<mgrwt>
<rscale>  1 0.30000000E+03</rscale>
<asrwt>0</asrwt>
<pdfrwt beam="1">  1       21 0.37822487E-02 0.30000000E+03</pdfrwt>
<pdfrwt beam="2">0</pdfrwt>
<totfact> 0.46198061E+04</totfact>
</mgrwt>
</event>
<event>
 6    1  0.1270461E-001  0.3000000E+03  0.7818608E-02  0.1093470E+00
         21   -1    0    0  501  502  0.00000000000E+00  0.00000000000E+00  0.28284061616E+01  0.28284061616E+01  0.00000000000E+00 0. -1.
         13   -1    0    0    0    0 -0.00000000000E+00 -0.00000000000E+00 -0.10000000000E+04  0.10000000000E+04  0.00000000000E+00 0.  1.
    9000005    2    1    2  501    0  0.29617675218E+02  0.40301967921E+02 -0.66819462127E+03  0.67007128184E+03  0.31647361194E+01 0.  0.
         13    1    3    3    0    0  0.55387788234E+01  0.89398266908E+01 -0.15402150956E+03  0.15438012819E+03  0.00000000000E+00 0.  1.
          3    1    3    3  501    0  0.24078896395E+02  0.31362141230E+02 -0.51417311171E+03  0.51569115365E+03  0.00000000000E+00 0.  1.
         -1    1    1    2    0  502 -0.29617675218E+02 -0.40301967921E+02 -0.32897697257E+03  0.33275712432E+03  0.00000000000E+00 0. -1.
<mgrwt>
<rscale>  1 0.30000000E+03</rscale>
<asrwt>0</asrwt>
<pdfrwt beam="1">  1       21 0.10285135E-01 0.30000000E+03</pdfrwt>
<pdfrwt beam="2">0</pdfrwt>
<totfact> 0.81813258E+03</totfact>
</mgrwt>
</event>
<event>
 6    1  0.1270461E-001  0.3000000E+03  0.7818608E-02  0.1093470E+00
         21   -1    0    0  501  502  0.00000000000E+00  0.00000000000E+00  0.20580950536E+01  0.20580950536E+01  0.00000000000E+00 0. -1.
         13   -1    0    0    0    0 -0.00000000000E+00 -0.00000000000E+00 -0.10000000000E+04  0.10000000000E+04  0.00000000000E+00 0.  1.
    9000005    2    1    2  501    0  0.37650097192E+02  0.23076616592E+01 -0.77687153807E+03  0.77779271157E+03  0.30430868780E+01 0.  0.
         13    1    3    3    0    0  0.27370674827E+02  0.10414111129E+01 -0.53814733578E+03  0.53884394159E+03  0.00000000000E+00 0.  1.
          1    1    3    3  501    0  0.10279422365E+02  0.12662505463E+01 -0.23872420229E+03  0.23894876998E+03  0.00000000000E+00 0.  1.
         -3    1    1    2    0  502 -0.37650097192E+02 -0.23076616592E+01 -0.22107036687E+03  0.22426538349E+03  0.00000000000E+00 0. -1.
<mgrwt>
<rscale>  1 0.30000000E+03</rscale>
<asrwt>0</asrwt>
<pdfrwt beam="1">  1       21 0.74839978E-02 0.30000000E+03</pdfrwt>
<pdfrwt beam="2">0</pdfrwt>
<totfact> 0.14358055E+04</totfact>
</mgrwt>
</event>
<event>
 6    1  0.1270461E-001  0.3000000E+03  0.7818608E-02  0.1093470E+00
         21   -1    0    0  501  502  0.00000000000E+00  0.00000000000E+00  0.46520036162E+01  0.46520036162E+01  0.00000000000E+00 0. -1.
         13   -1    0    0    0    0 -0.00000000000E+00 -0.00000000000E+00 -0.10000000000E+04  0.10000000000E+04  0.00000000000E+00 0.  1.
    9000005    2    1    2  501    0 -0.31037652395E+02  0.12158807388E+02 -0.93572164359E+03  0.93634040570E+03  0.68693949338E+01 0.  0.
         13    1    3    3    0    0 -0.29260723746E+02  0.12932164684E+02 -0.89700840207E+03  0.89757868971E+03  0.00000000000E+00 0.  1.
          1    1    3    3  501    0 -0.17769286485E+01 -0.77335729612E+00 -0.38713241523E+02  0.38761715986E+02  0.00000000000E+00 0.  1.
         -1    1    1    2    0  502  0.31037652395E+02 -0.12158807388E+02 -0.59626352790E+02  0.68311597919E+02  0.00000000000E+00 0. -1.
<mgrwt>
<rscale>  1 0.30000000E+03</rscale>
<asrwt>0</asrwt>
<pdfrwt beam="1">  1       21 0.16916412E-01 0.30000000E+03</pdfrwt>
<pdfrwt beam="2">0</pdfrwt>
<totfact> 0.32917636E+03</totfact>
</mgrwt>
</event>
<event>
 6    1  0.1270461E-001  0.3000000E+03  0.7818608E-02  0.1093470E+00
         21   -1    0    0  501  502  0.00000000000E+00  0.00000000000E+00  0.10998190308E+01  0.10998190308E+01  0.00000000000E+00 0. -1.
         13   -1    0    0    0    0 -0.00000000000E+00 -0.00000000000E+00 -0.10000000000E+04  0.10000000000E+04  0.00000000000E+00 0.  1.
    9000005    2    1    2  501    0 -0.77926447522E+01 -0.31184681718E+02 -0.61304443961E+03  0.61390753757E+03  0.50764217139E+01 0.  0.
         13    1    3    3    0    0 -0.67991959447E+01 -0.21537360823E+02 -0.39148404830E+03  0.39213498575E+03  0.00000000000E+00 0.  1.
          3    1    3    3  501    0 -0.99344880746E+00 -0.96473208958E+01 -0.22156039131E+03  0.22177255182E+03  0.00000000000E+00 0.  1.
         -1    1    1    2    0  502  0.77926447522E+01  0.31184681718E+02 -0.38585574136E+03  0.38719228146E+03  0.00000000000E+00 0. -1.
<mgrwt>
<rscale>  1 0.30000000E+03</rscale>
<asrwt>0</asrwt>
<pdfrwt beam="1">  1       21 0.39993504E-02 0.30000000E+03</pdfrwt>
<pdfrwt beam="2">0</pdfrwt>
<totfact> 0.42058826E+04</totfact>
</mgrwt>
</event>
<event>
 6    1  0.1270461E-001  0.3000000E+03  0.7818608E-02  0.1093470E+00
         21   -1    0    0  501  502  0.00000000000E+00  0.00000000000E+00  0.43315945666E+01  0.43315945666E+01  0.00000000000E+00 0. -1.
         13   -1    0    0    0    0 -0.00000000000E+00 -0.00000000000E+00 -0.10000000000E+04  0.10000000000E+04  0.00000000000E+00 0.  1.
    9000005    2    1    2  501    0  0.40694250051E+02 -0.20870851374E+00 -0.89238571071E+03  0.89332087177E+03  0.37225952066E+01 0.  0.
         13    1    3    3    0    0  0.37603884180E+02 -0.41999229759E-02 -0.80006118120E+03  0.80094440867E+03  0.00000000000E+00 0.  1.
          3    1    3    3  501    0  0.30903658705E+01 -0.20450859076E+00 -0.92324529507E+02  0.92376463093E+02  0.00000000000E+00 0.  1.
         -1    1    1    2    0  502 -0.40694250051E+02  0.20870851374E+00 -0.10328269473E+03  0.11101072280E+03  0.00000000000E+00 0. -1.
<mgrwt>
<rscale>  1 0.30000000E+03</rscale>
<asrwt>0</asrwt>
<pdfrwt beam="1">  1       21 0.15751286E-01 0.30000000E+03</pdfrwt>
<pdfrwt beam="2">0</pdfrwt>
<totfact> 0.37608391E+03</totfact>
</mgrwt>
</event>
<event>
 6    1  0.1270461E-001  0.3000000E+03  0.7818608E-02  0.1093470E+00
         21   -1    0    0  501  502  0.00000000000E+00  0.00000000000E+00  0.93843426544E+00  0.93843426544E+00  0.00000000000E+00 0. -1.
         13   -1    0    0    0    0 -0.00000000000E+00 -0.00000000000E+00 -0.10000000000E+04  0.10000000000E+04  0.00000000000E+00 0.  1.
    9000005    2    1    2  501    0  0.47050678750E+01  0.30134740887E+02 -0.52984130524E+03  0.53072795679E+03  0.31804252442E+01 0.  0.
         13    1    3    3    0    0  0.12263221242E+01  0.46567060847E+01 -0.10339133570E+03  0.10350341577E+03  0.00000000000E+00 0.  1.
          3    1    3    3  501    0  0.34787457507E+01  0.25478034802E+02 -0.42644996954E+03  0.42722454102E+03  0.00000000000E+00 0.  1.
         -1    1    1    2    0  502 -0.47050678750E+01 -0.30134740887E+02 -0.46922026049E+03  0.47021047748E+03  0.00000000000E+00 0. -1.
<mgrwt>
<rscale>  1 0.30000000E+03</rscale>
<asrwt>0</asrwt>
<pdfrwt beam="1">  1       21 0.34124954E-02 0.30000000E+03</pdfrwt>
<pdfrwt beam="2">0</pdfrwt>
<totfact> 0.54893433E+04</totfact>
</mgrwt>
</event>
<event>
 6    1  0.1270461E-001  0.3000000E+03  0.7818608E-02  0.1093470E+00
         21   -1    0    0  501  502  0.00000000000E+00  0.00000000000E+00  0.14407214103E+02  0.14407214103E+02  0.00000000000E+00 0. -1.
         13   -1    0    0    0    0 -0.00000000000E+00 -0.00000000000E+00 -0.10000000000E+04  0.10000000000E+04  0.00000000000E+00 0.  1.
    9000005    2    1    2  501    0  0.97680466157E+02 -0.29993673188E+02 -0.22690863481E+03  0.24887293335E+03  0.30190234186E+01 0.  0.
         13    1    3    3    0    0  0.66992700386E+02 -0.19393762281E+02 -0.15276784137E+03  0.16793496741E+03  0.00000000000E+00 0.  1.
          1    1    3    3  501    0  0.30687765771E+02 -0.10599910907E+02 -0.74140793438E+02  0.80937965943E+02  0.00000000000E+00 0.  1.
         -3    1    1    2    0  502 -0.97680466157E+02  0.29993673188E+02 -0.75868415109E+03  0.76553428076E+03  0.00000000000E+00 0. -1.
<mgrwt>
<rscale>  1 0.30000000E+03</rscale>
<asrwt>0</asrwt>
<pdfrwt beam="1">  1       21 0.52389980E-01 0.30000000E+03</pdfrwt>
<pdfrwt beam="2">0</pdfrwt>
<totfact> 0.33937476E+02</totfact>
</mgrwt>
</event>
<event>
 6    1  0.1270461E-001  0.3000000E+03  0.7818608E-02  0.1093470E+00
         21   -1    0    0  501  502  0.00000000000E+00  0.00000000000E+00  0.35952383734E+01  0.35952383734E+01  0.00000000000E+00 0. -1.
         13   -1    0    0    0    0 -0.00000000000E+00 -0.00000000000E+00 -0.10000000000E+04  0.10000000000E+04  0.00000000000E+00 0.  1.
    9000005    2    1    2  501    0 -0.84853861189E+01 -0.29032026344E+02 -0.93141511052E+03  0.93191180178E+03  0.32615726324E+01 0.  0.
         13    1    3    3    0    0 -0.80210971911E+00 -0.40579424281E+01 -0.98173853922E+02  0.98260958019E+02  0.00000000000E+00 0.  1.
          3    1    3    3  501    0 -0.76832763997E+01 -0.24974083916E+02 -0.83324125660E+03  0.83365084376E+03  0.00000000000E+00 0.  1.
         -1    1    1    2    0  502  0.84853861189E+01  0.29032026344E+02 -0.64989651105E+02  0.71683436594E+02  0.00000000000E+00 0. -1.
<mgrwt>
<rscale>  1 0.30000000E+03</rscale>
<asrwt>0</asrwt>
<pdfrwt beam="1">  1       21 0.13073622E-01 0.30000000E+03</pdfrwt>
<pdfrwt beam="2">0</pdfrwt>
<totfact> 0.53015570E+03</totfact>
</mgrwt>
</event>
<event>
 6    1  0.1270461E-001  0.3000000E+03  0.7818608E-02  0.1093470E+00
         21   -1    0    0  501  502  0.00000000000E+00  0.00000000000E+00  0.94322821261E+00  0.94322821261E+00  0.00000000000E+00 0. -1.
         13   -1    0    0    0    0 -0.00000000000E+00 -0.00000000000E+00 -0.10000000000E+04  0.10000000000E+04  0.00000000000E+00 0.  1.
    9000005    2    1    2  501    0 -0.28632315673E+02  0.10077920266E+02 -0.56755032387E+03  0.56837047297E+03  0.32016323524E+01 0.  0.
         13    1    3    3    0    0 -0.22594897987E+02  0.65369563161E+01 -0.43998380819E+03  0.44061208867E+03  0.00000000000E+00 0.  1.
          1    1    3    3  501    0 -0.60374176855E+01  0.35409639499E+01 -0.12756651567E+03  0.12775838430E+03  0.00000000000E+00 0.  1.
         -3    1    1    2    0  502  0.28632315673E+02 -0.10077920266E+02 -0.43150644792E+03  0.43257275524E+03  0.00000000000E+00 0. -1.
<mgrwt>
<rscale>  1 0.30000000E+03</rscale>
<asrwt>0</asrwt>
<pdfrwt beam="1">  1       21 0.34299280E-02 0.30000000E+03</pdfrwt>
<pdfrwt beam="2">0</pdfrwt>
<totfact> 0.54427806E+04</totfact>
</mgrwt>
</event>
<event>
 6    1  0.1270461E-001  0.3000000E+03  0.7818608E-02  0.1093470E+00
         21   -1    0    0  501  502  0.00000000000E+00  0.00000000000E+00  0.13504456563E+01  0.13504456563E+01  0.00000000000E+00 0. -1.
         13   -1    0    0    0    0 -0.00000000000E+00 -0.00000000000E+00 -0.10000000000E+04  0.10000000000E+04  0.00000000000E+00 0.  1.
    9000005    2    1    2  501    0  0.30799066982E+02 -0.90076020628E+01 -0.74230643220E+03  0.74300665206E+03  0.32134546608E+01 0.  0.
         13    1    3    3    0    0  0.22899098039E+02 -0.72665265286E+01 -0.58337994881E+03  0.58387441781E+03  0.00000000000E+00 0.  1.
          1    1    3    3  501    0  0.78999689430E+01 -0.17410755342E+01 -0.15892648339E+03  0.15913223425E+03  0.00000000000E+00 0.  1.
         -3    1    1    2    0  502 -0.30799066982E+02  0.90076020628E+01 -0.25634312214E+03  0.25834379360E+03  0.00000000000E+00 0. -1.
<mgrwt>
<rscale>  1 0.30000000E+03</rscale>
<asrwt>0</asrwt>
<pdfrwt beam="1">  1       21 0.49107218E-02 0.30000000E+03</pdfrwt>
<pdfrwt beam="2">0</pdfrwt>
<totfact> 0.29702693E+04</totfact>
</mgrwt>
</event>
<event>
 6    1  0.1270461E-001  0.3000000E+03  0.7818608E-02  0.1093470E+00
         21   -1    0    0  501  502  0.00000000000E+00  0.00000000000E+00  0.94821251436E+00  0.94821251436E+00  0.00000000000E+00 0. -1.
         13   -1    0    0    0    0 -0.00000000000E+00 -0.00000000000E+00 -0.10000000000E+04  0.10000000000E+04  0.00000000000E+00 0.  1.
    9000005    2    1    2  501    0 -0.28442226618E+02 -0.10550900905E+02 -0.57821236515E+03  0.57901681861E+03  0.32642401018E+01 0.  0.
         13    1    3    3    0    0 -0.54219459504E+01 -0.68372815362E+00 -0.10487832335E+03  0.10502060603E+03  0.00000000000E+00 0.  1.
          1    1    3    3  501    0 -0.23020280667E+02 -0.98671727512E+01 -0.47333404180E+03  0.47399621259E+03  0.00000000000E+00 0.  1.
         -1    1    1    2    0  502  0.28442226618E+02  0.10550900905E+02 -0.42083942234E+03  0.42193139390E+03  0.00000000000E+00 0. -1.
<mgrwt>
<rscale>  1 0.30000000E+03</rscale>
<asrwt>0</asrwt>
<pdfrwt beam="1">  1       21 0.34480528E-02 0.30000000E+03</pdfrwt>
<pdfrwt beam="2">0</pdfrwt>
<totfact> 0.53950180E+04</totfact>
</mgrwt>
</event>
<event>
 6    1  0.1270461E-001  0.3000000E+03  0.7818608E-02  0.1093470E+00
         21   -1    0    0  501  502  0.00000000000E+00  0.00000000000E+00  0.17120145004E+01  0.17120145004E+01  0.00000000000E+00 0. -1.
         13   -1    0    0    0    0 -0.00000000000E+00 -0.00000000000E+00 -0.10000000000E+04  0.10000000000E+04  0.00000000000E+00 0.  1.
    9000005    2    1    2  501    0  0.73752981150E+01  0.40524375312E+02 -0.46507073792E+03  0.46690620569E+03  0.37408059724E+01 0.  0.
         13    1    3    3    0    0  0.43751195656E+01  0.31453902963E+02 -0.36681002899E+03  0.36818213842E+03  0.00000000000E+00 0.  1.
          1    1    3    3  501    0  0.30001785494E+01  0.90704723496E+01 -0.98260708930E+02  0.98724067275E+02  0.00000000000E+00 0.  1.
         -3    1    1    2    0  502 -0.73752981150E+01 -0.40524375312E+02 -0.53321724758E+03  0.53480580881E+03  0.00000000000E+00 0. -1.
<mgrwt>
<rscale>  1 0.30000000E+03</rscale>
<asrwt>0</asrwt>
<pdfrwt beam="1">  1       21 0.62255204E-02 0.30000000E+03</pdfrwt>
<pdfrwt beam="2">0</pdfrwt>
<totfact> 0.19771561E+04</totfact>
</mgrwt>
</event>
<event>
 6    1  0.1270461E-001  0.3000000E+03  0.7818608E-02  0.1093470E+00
         21   -1    0    0  501  502  0.00000000000E+00  0.00000000000E+00  0.19734106673E+01  0.19734106673E+01  0.00000000000E+00 0. -1.
         13   -1    0    0    0    0 -0.00000000000E+00 -0.00000000000E+00 -0.10000000000E+04  0.10000000000E+04  0.00000000000E+00 0.  1.
    9000005    2    1    2  501    0  0.22080059157E+02 -0.34026610881E+02 -0.70226520112E+03  0.70344344899E+03  0.33066546824E+01 0.  0.
         13    1    3    3    0    0  0.21414561395E+02 -0.31720831643E+02 -0.65465174716E+03  0.65576955149E+03  0.00000000000E+00 0.  1.
          1    1    3    3  501    0  0.66549776211E+00 -0.23057792375E+01 -0.47613453959E+02  0.47673897502E+02  0.00000000000E+00 0.  1.
         -3    1    1    2    0  502 -0.22080059157E+02  0.34026610881E+02 -0.29576138821E+03  0.29852996167E+03  0.00000000000E+00 0. -1.
<mgrwt>
<rscale>  1 0.30000000E+03</rscale>
<asrwt>0</asrwt>
<pdfrwt beam="1">  1       21 0.71760539E-02 0.30000000E+03</pdfrwt>
<pdfrwt beam="2">0</pdfrwt>
<totfact> 0.15451942E+04</totfact>
</mgrwt>
</event>
<event>
 6    1  0.1270461E-001  0.3000000E+03  0.7818608E-02  0.1093470E+00
         21   -1    0    0  501  502  0.00000000000E+00  0.00000000000E+00  0.19625781893E+01  0.19625781893E+01  0.00000000000E+00 0. -1.
         13   -1    0    0    0    0 -0.00000000000E+00 -0.00000000000E+00 -0.10000000000E+04  0.10000000000E+04  0.00000000000E+00 0.  1.
    9000005    2    1    2  501    0  0.38472075099E+02  0.20122570740E+02 -0.59601769593E+03  0.59760521346E+03  0.31430676809E+01 0.  0.
         13    1    3    3    0    0  0.27041136818E+02  0.12501644867E+02 -0.40622329510E+03  0.40731422721E+03  0.00000000000E+00 0.  1.
          3    1    3    3  501    0  0.11430938280E+02  0.76209258726E+01 -0.18979440083E+03  0.19029098625E+03  0.00000000000E+00 0.  1.
         -3    1    1    2    0  502 -0.38472075099E+02 -0.20122570740E+02 -0.40201972588E+03  0.40435736473E+03  0.00000000000E+00 0. -1.
<mgrwt>
<rscale>  1 0.30000000E+03</rscale>
<asrwt>0</asrwt>
<pdfrwt beam="1">  1       21 0.71366630E-02 0.30000000E+03</pdfrwt>
<pdfrwt beam="2">0</pdfrwt>
<totfact> 0.15600953E+04</totfact>
</mgrwt>
</event>
<event>
 6    1  0.1270461E-001  0.3000000E+03  0.7818608E-02  0.1093470E+00
         21   -1    0    0  501  502  0.00000000000E+00  0.00000000000E+00  0.32827303699E+01  0.32827303699E+01  0.00000000000E+00 0. -1.
         13   -1    0    0    0    0 -0.00000000000E+00 -0.00000000000E+00 -0.10000000000E+04  0.10000000000E+04  0.00000000000E+00 0.  1.
    9000005    2    1    2  501    0 -0.37314476845E+02 -0.27275216784E+02 -0.79316812566E+03  0.79455189497E+03  0.77929850549E+01 0.  0.
         13    1    3    3    0    0 -0.24759873861E+02 -0.22218798735E+02 -0.54353748840E+03  0.54455461404E+03  0.00000000000E+00 0.  1.
          3    1    3    3  501    0 -0.12554602984E+02 -0.50564180487E+01 -0.24963063726E+03  0.24999728094E+03  0.00000000000E+00 0.  1.
         -1    1    1    2    0  502  0.37314476845E+02  0.27275216784E+02 -0.20354914397E+03  0.20873083540E+03  0.00000000000E+00 0. -1.
<mgrwt>
<rscale>  1 0.30000000E+03</rscale>
<asrwt>0</asrwt>
<pdfrwt beam="1">  1       21 0.11937227E-01 0.30000000E+03</pdfrwt>
<pdfrwt beam="2">0</pdfrwt>
<totfact> 0.62563739E+03</totfact>
</mgrwt>
</event>
<event>
 6    1  0.1270461E-001  0.3000000E+03  0.7818608E-02  0.1093470E+00
         21   -1    0    0  501  502  0.00000000000E+00  0.00000000000E+00  0.35152681221E+01  0.35152681221E+01  0.00000000000E+00 0. -1.
         13   -1    0    0    0    0 -0.00000000000E+00 -0.00000000000E+00 -0.10000000000E+04  0.10000000000E+04  0.00000000000E+00 0.  1.
    9000005    2    1    2  501    0  0.33983518609E+02  0.46771203538E+02 -0.39044262436E+03  0.39472182113E+03  0.41770971363E+01 0.  0.
         13    1    3    3    0    0  0.24820429839E+02  0.31233413214E+02 -0.26277906585E+03  0.26579017531E+03  0.00000000000E+00 0.  1.
          3    1    3    3  501    0  0.91630887703E+01  0.15537790324E+02 -0.12766355850E+03  0.12893164582E+03  0.00000000000E+00 0.  1.
         -1    1    1    2    0  502 -0.33983518609E+02 -0.46771203538E+02 -0.60604210752E+03  0.60879344700E+03  0.00000000000E+00 0. -1.
<mgrwt>
<rscale>  1 0.30000000E+03</rscale>
<asrwt>0</asrwt>
<pdfrwt beam="1">  1       21 0.12782820E-01 0.30000000E+03</pdfrwt>
<pdfrwt beam="2">0</pdfrwt>
<totfact> 0.55237813E+03</totfact>
</mgrwt>
</event>
<event>
 6    1  0.1270461E-001  0.3000000E+03  0.7818608E-02  0.1093470E+00
         21   -1    0    0  501  502  0.00000000000E+00  0.00000000000E+00  0.13242456528E+01  0.13242456528E+01  0.00000000000E+00 0. -1.
         13   -1    0    0    0    0 -0.00000000000E+00 -0.00000000000E+00 -0.10000000000E+04  0.10000000000E+04  0.00000000000E+00 0.  1.
    9000005    2    1    2  501    0  0.92240508097E+00  0.36352570008E+02 -0.50309291335E+03  0.50440904920E+03  0.19103067879E+01 0.  0.
         13    1    3    3    0    0  0.10674244907E+01  0.21131319924E+02 -0.30329863310E+03  0.30403574282E+03  0.00000000000E+00 0.  1.
          3    1    3    3  501    0 -0.14501940975E+00  0.15221250084E+02 -0.19979428026E+03  0.20037330637E+03  0.00000000000E+00 0.  1.
         -1    1    1    2    0  502 -0.92240508097E+00 -0.36352570008E+02 -0.49558284100E+03  0.49691519645E+03  0.00000000000E+00 0. -1.
<mgrwt>
<rscale>  1 0.30000000E+03</rscale>
<asrwt>0</asrwt>
<pdfrwt beam="1">  1       21 0.48154489E-02 0.30000000E+03</pdfrwt>
<pdfrwt beam="2">0</pdfrwt>
<totfact> 0.30710152E+04</totfact>
</mgrwt>
</event>
<event>
 6    1  0.1270461E-001  0.3000000E+03  0.7818608E-02  0.1093470E+00
         21   -1    0    0  501  502  0.00000000000E+00  0.00000000000E+00  0.28387949969E+01  0.28387949969E+01  0.00000000000E+00 0. -1.
         13   -1    0    0    0    0 -0.00000000000E+00 -0.00000000000E+00 -0.10000000000E+04  0.10000000000E+04  0.00000000000E+00 0.  1.
    9000005    2    1    2  501    0  0.12112736069E+02 -0.34387763055E+02 -0.86414767785E+03  0.86491912625E+03  0.21561973782E+01 0.  0.
         13    1    3    3    0    0  0.40212408373E+01 -0.14595938558E+02 -0.35560861324E+03  0.35593074833E+03  0.00000000000E+00 0.  1.
          3    1    3    3  501    0  0.80914952318E+01 -0.19791824497E+02 -0.50853906462E+03  0.50898837791E+03  0.00000000000E+00 0.  1.
         -1    1    1    2    0  502 -0.12112736069E+02  0.34387763055E+02 -0.13301352715E+03  0.13791966875E+03  0.00000000000E+00 0. -1.
<mgrwt>
<rscale>  1 0.30000000E+03</rscale>
<asrwt>0</asrwt>
<pdfrwt beam="1">  1       21 0.10322913E-01 0.30000000E+03</pdfrwt>
<pdfrwt beam="2">0</pdfrwt>
<totfact> 0.81278035E+03</totfact>
</mgrwt>
</event>
<event>
 6    1  0.1270461E-001  0.3000000E+03  0.7818608E-02  0.1093470E+00
         21   -1    0    0  501  502  0.00000000000E+00  0.00000000000E+00  0.18815861582E+01  0.18815861582E+01  0.00000000000E+00 0. -1.
         13   -1    0    0    0    0 -0.00000000000E+00 -0.00000000000E+00 -0.10000000000E+04  0.10000000000E+04  0.00000000000E+00 0.  1.
    9000005    2    1    2  501    0  0.39976402533E+02 -0.12982591451E+02 -0.61941040709E+03  0.62084823484E+03  0.40764997137E+01 0.  0.
         13    1    3    3    0    0  0.24290171573E+02 -0.95112809458E+01 -0.40128397778E+03  0.40213095842E+03  0.00000000000E+00 0.  1.
          1    1    3    3  501    0  0.15686230961E+02 -0.34713105054E+01 -0.21812642931E+03  0.21871727642E+03  0.00000000000E+00 0.  1.
         -3    1    1    2    0  502 -0.39976402533E+02  0.12982591451E+02 -0.37870800675E+03  0.38103335132E+03  0.00000000000E+00 0. -1.
<mgrwt>
<rscale>  1 0.30000000E+03</rscale>
<asrwt>0</asrwt>
<pdfrwt beam="1">  1       21 0.68421459E-02 0.30000000E+03</pdfrwt>
<pdfrwt beam="2">0</pdfrwt>
<totfact> 0.16788059E+04</totfact>
</mgrwt>
</event>
<event>
 6    1  0.1270461E-001  0.3000000E+03  0.7818608E-02  0.1093470E+00
         21   -1    0    0  501  502  0.00000000000E+00  0.00000000000E+00  0.20496470438E+01  0.20496470438E+01  0.00000000000E+00 0. -1.
         13   -1    0    0    0    0 -0.00000000000E+00 -0.00000000000E+00 -0.10000000000E+04  0.10000000000E+04  0.00000000000E+00 0.  1.
    9000005    2    1    2  501    0  0.28229235106E+02  0.30472777441E+02 -0.30233132533E+03  0.30519147534E+03  0.34823070812E+01 0.  0.
         13    1    3    3    0    0  0.23715163437E+02  0.27153896673E+02 -0.26544878431E+03  0.26788579689E+03  0.00000000000E+00 0.  1.
          1    1    3    3  501    0  0.45140716693E+01  0.33188807675E+01 -0.36882541015E+02  0.37305678446E+02  0.00000000000E+00 0.  1.
         -1    1    1    2    0  502 -0.28229235106E+02 -0.30472777441E+02 -0.69561902763E+03  0.69685817171E+03  0.00000000000E+00 0. -1.
<mgrwt>
<rscale>  1 0.30000000E+03</rscale>
<asrwt>0</asrwt>
<pdfrwt beam="1">  1       21 0.74532777E-02 0.30000000E+03</pdfrwt>
<pdfrwt beam="2">0</pdfrwt>
<totfact> 0.14461812E+04</totfact>
</mgrwt>
</event>
<event>
 6    1  0.1270461E-001  0.3000000E+03  0.7818608E-02  0.1093470E+00
         21   -1    0    0  501  502  0.00000000000E+00  0.00000000000E+00  0.15043780238E+01  0.15043780238E+01  0.00000000000E+00 0. -1.
         13   -1    0    0    0    0 -0.00000000000E+00 -0.00000000000E+00 -0.10000000000E+04  0.10000000000E+04  0.00000000000E+00 0.  1.
    9000005    2    1    2  501    0 -0.33885195703E+02 -0.14610552781E+02 -0.34803180546E+03  0.34999470708E+03  0.29124954507E+01 0.  0.
         13    1    3    3    0    0 -0.30882190524E+02 -0.13981290994E+02 -0.31385401231E+03  0.31567946914E+03  0.00000000000E+00 0.  1.
          1    1    3    3  501    0 -0.30030051787E+01 -0.62926178667E+00 -0.34177793149E+02  0.34315237942E+02  0.00000000000E+00 0.  1.
         -3    1    1    2    0  502  0.33885195703E+02  0.14610552781E+02 -0.65046381651E+03  0.65150967095E+03  0.00000000000E+00 0. -1.
<mgrwt>
<rscale>  1 0.30000000E+03</rscale>
<asrwt>0</asrwt>
<pdfrwt beam="1">  1       21 0.54704771E-02 0.30000000E+03</pdfrwt>
<pdfrwt beam="2">0</pdfrwt>
<totfact> 0.24701017E+04</totfact>
</mgrwt>
</event>
<event>
 6    1  0.1270461E-001  0.3000000E+03  0.7818608E-02  0.1093470E+00
         21   -1    0    0  501  502  0.00000000000E+00  0.00000000000E+00  0.16637360876E+01  0.16637360876E+01  0.00000000000E+00 0. -1.
         13   -1    0    0    0    0 -0.00000000000E+00 -0.00000000000E+00 -0.10000000000E+04  0.10000000000E+04  0.00000000000E+00 0.  1.
    9000005    2    1    2  501    0 -0.36620818802E+02 -0.12061703755E+02 -0.66131857144E+03  0.66244773689E+03  0.28604408505E+01 0.  0.
         13    1    3    3    0    0 -0.57875944149E+01 -0.25361057251E+01 -0.94134904901E+02  0.94346745582E+02  0.00000000000E+00 0.  1.
          1    1    3    3  501    0 -0.30833224387E+02 -0.95255980297E+01 -0.56718366654E+03  0.56810099131E+03  0.00000000000E+00 0.  1.
         -3    1    1    2    0  502  0.36620818802E+02  0.12061703755E+02 -0.33701769248E+03  0.33921599919E+03  0.00000000000E+00 0. -1.
<mgrwt>
<rscale>  1 0.30000000E+03</rscale>
<asrwt>0</asrwt>
<pdfrwt beam="1">  1       21 0.60499622E-02 0.30000000E+03</pdfrwt>
<pdfrwt beam="2">0</pdfrwt>
<totfact> 0.20772401E+04</totfact>
</mgrwt>
</event>
<event>
 6    1  0.1270461E-001  0.3000000E+03  0.7818608E-02  0.1093470E+00
         21   -1    0    0  501  502  0.00000000000E+00  0.00000000000E+00  0.20796770494E+01  0.20796770494E+01  0.00000000000E+00 0. -1.
         13   -1    0    0    0    0 -0.00000000000E+00 -0.00000000000E+00 -0.10000000000E+04  0.10000000000E+04  0.00000000000E+00 0.  1.
    9000005    2    1    2  501    0  0.28457005887E+02  0.15477082675E+02 -0.85138300626E+03  0.85200460765E+03  0.30800710056E+01 0.  0.
         13    1    3    3    0    0  0.21731661447E+02  0.12724237067E+02 -0.63300050660E+03  0.63350123337E+03  0.00000000000E+00 0.  1.
          3    1    3    3  501    0  0.67253444400E+01  0.27528456081E+01 -0.21838249965E+03  0.21850337428E+03  0.00000000000E+00 0.  1.
         -3    1    1    2    0  502 -0.28457005887E+02 -0.15477082675E+02 -0.14653731669E+03  0.15007506940E+03  0.00000000000E+00 0. -1.
<mgrwt>
<rscale>  1 0.30000000E+03</rscale>
<asrwt>0</asrwt>
<pdfrwt beam="1">  1       21 0.75624779E-02 0.30000000E+03</pdfrwt>
<pdfrwt beam="2">0</pdfrwt>
<totfact> 0.14098156E+04</totfact>
</mgrwt>
</event>
<event>
 6    1  0.1270461E-001  0.3000000E+03  0.7818608E-02  0.1093470E+00
         21   -1    0    0  501  502  0.00000000000E+00  0.00000000000E+00  0.41374782536E+01  0.41374782536E+01  0.00000000000E+00 0. -1.
         13   -1    0    0    0    0 -0.00000000000E+00 -0.00000000000E+00 -0.10000000000E+04  0.10000000000E+04  0.00000000000E+00 0.  1.
    9000005    2    1    2  501    0 -0.40571782380E+02  0.38877055674E+02 -0.74169981548E+03  0.74383731260E+03  0.42233099934E+01 0.  0.
         13    1    3    3    0    0 -0.25473017752E+02  0.21785298579E+02 -0.43020706001E+03  0.43151082067E+03  0.00000000000E+00 0.  1.
          1    1    3    3  501    0 -0.15098764629E+02  0.17091757095E+02 -0.31149275547E+03  0.31232649193E+03  0.00000000000E+00 0.  1.
         -3    1    1    2    0  502  0.40571782380E+02 -0.38877055674E+02 -0.25416270626E+03  0.26030016565E+03  0.00000000000E+00 0. -1.
<mgrwt>
<rscale>  1 0.30000000E+03</rscale>
<asrwt>0</asrwt>
<pdfrwt beam="1">  1       21 0.15045407E-01 0.30000000E+03</pdfrwt>
<pdfrwt beam="2">0</pdfrwt>
<totfact> 0.40950580E+03</totfact>
</mgrwt>
</event>
<event>
 6    1  0.1270461E-001  0.3000000E+03  0.7818608E-02  0.1093470E+00
         21   -1    0    0  501  502  0.00000000000E+00  0.00000000000E+00  0.48614210104E+01  0.48614210104E+01  0.00000000000E+00 0. -1.
         13   -1    0    0    0    0 -0.00000000000E+00 -0.00000000000E+00 -0.10000000000E+04  0.10000000000E+04  0.00000000000E+00 0.  1.
    9000005    2    1    2  501    0 -0.54486306834E+02 -0.41636715349E+02 -0.58703846058E+03  0.59104010650E+03  0.34466785961E+01 0.  0.
         13    1    3    3    0    0 -0.73546177814E+01 -0.59104191809E+01 -0.91322790253E+02  0.91808907396E+02  0.00000000000E+00 0.  1.
          3    1    3    3  501    0 -0.47131689053E+02 -0.35726296168E+02 -0.49571567033E+03  0.49923119910E+03  0.00000000000E+00 0.  1.
         -1    1    1    2    0  502  0.54486306834E+02  0.41636715349E+02 -0.40810011841E+03  0.41382131451E+03  0.00000000000E+00 0. -1.
<mgrwt>
<rscale>  1 0.30000000E+03</rscale>
<asrwt>0</asrwt>
<pdfrwt beam="1">  1       21 0.17677932E-01 0.30000000E+03</pdfrwt>
<pdfrwt beam="2">0</pdfrwt>
<totfact> 0.30307854E+03</totfact>
</mgrwt>
</event>
<event>
 6    1  0.1270461E-001  0.3000000E+03  0.7818608E-02  0.1093470E+00
         21   -1    0    0  501  502  0.00000000000E+00  0.00000000000E+00  0.21078868507E+01  0.21078868507E+01  0.00000000000E+00 0. -1.
         13   -1    0    0    0    0 -0.00000000000E+00 -0.00000000000E+00 -0.10000000000E+04  0.10000000000E+04  0.00000000000E+00 0.  1.
    9000005    2    1    2  501    0 -0.38792616865E+02  0.11021568925E+02 -0.73784625338E+03  0.73895357606E+03  0.29919624986E+01 0.  0.
         13    1    3    3    0    0 -0.32092091808E+01  0.17963701510E+01 -0.68759275311E+02  0.68857562479E+02  0.00000000000E+00 0.  1.
          3    1    3    3  501    0 -0.35583407684E+02  0.92251987744E+01 -0.66908697807E+03  0.67009601358E+03  0.00000000000E+00 0.  1.
         -3    1    1    2    0  502  0.38792616865E+02 -0.11021568925E+02 -0.26004585977E+03  0.26315431079E+03  0.00000000000E+00 0. -1.
<mgrwt>
<rscale>  1 0.30000000E+03</rscale>
<asrwt>0</asrwt>
<pdfrwt beam="1">  1       21 0.76650593E-02 0.30000000E+03</pdfrwt>
<pdfrwt beam="2">0</pdfrwt>
<totfact> 0.13769256E+04</totfact>
</mgrwt>
</event>
<event>
 6    1  0.1270461E-001  0.3000000E+03  0.7818608E-02  0.1093470E+00
         21   -1    0    0  501  502  0.00000000000E+00  0.00000000000E+00  0.17493530626E+01  0.17493530626E+01  0.00000000000E+00 0. -1.
         13   -1    0    0    0    0 -0.00000000000E+00 -0.00000000000E+00 -0.10000000000E+04  0.10000000000E+04  0.00000000000E+00 0.  1.
    9000005    2    1    2  501    0 -0.17153435146E+02 -0.34938789098E+02 -0.68104417315E+03  0.68216383034E+03  0.33713976761E+01 0.  0.
         13    1    3    3    0    0 -0.53594620669E+01 -0.77571072842E+01 -0.15800116680E+03  0.15828223291E+03  0.00000000000E+00 0.  1.
          3    1    3    3  501    0 -0.11793973079E+02 -0.27181681814E+02 -0.52304300635E+03  0.52388159743E+03  0.00000000000E+00 0.  1.
         -1    1    1    2    0  502  0.17153435146E+02  0.34938789098E+02 -0.31720647379E+03  0.31958552272E+03  0.00000000000E+00 0. -1.
<mgrwt>
<rscale>  1 0.30000000E+03</rscale>
<asrwt>0</asrwt>
<pdfrwt beam="1">  1       21 0.63612973E-02 0.30000000E+03</pdfrwt>
<pdfrwt beam="2">0</pdfrwt>
<totfact> 0.19047865E+04</totfact>
</mgrwt>
</event>
<event>
 6    1  0.1270461E-001  0.3000000E+03  0.7818608E-02  0.1093470E+00
         21   -1    0    0  501  502  0.00000000000E+00  0.00000000000E+00  0.38656690180E+01  0.38656690180E+01  0.00000000000E+00 0. -1.
         13   -1    0    0    0    0 -0.00000000000E+00 -0.00000000000E+00 -0.10000000000E+04  0.10000000000E+04  0.00000000000E+00 0.  1.
    9000005    2    1    2  501    0 -0.59684914956E+02 -0.72651095287E+01 -0.62421845911E+03  0.62712107829E+03  0.41341573128E+01 0.  0.
         13    1    3    3    0    0 -0.34676505170E+02 -0.28889145453E+01 -0.34457797624E+03  0.34633046004E+03  0.00000000000E+00 0.  1.
          3    1    3    3  501    0 -0.25008409786E+02 -0.43761949833E+01 -0.27964048287E+03  0.28079061826E+03  0.00000000000E+00 0.  1.
         -1    1    1    2    0  502  0.59684914956E+02  0.72651095287E+01 -0.37191587187E+03  0.37674459072E+03  0.00000000000E+00 0. -1.
<mgrwt>
<rscale>  1 0.30000000E+03</rscale>
<asrwt>0</asrwt>
<pdfrwt beam="1">  1       21 0.14057008E-01 0.30000000E+03</pdfrwt>
<pdfrwt beam="2">0</pdfrwt>
<totfact> 0.46418821E+03</totfact>
</mgrwt>
</event>
<event>
 6    1  0.1270461E-001  0.3000000E+03  0.7818608E-02  0.1093470E+00
         21   -1    0    0  501  502  0.00000000000E+00  0.00000000000E+00  0.14833092118E+01  0.14833092118E+01  0.00000000000E+00 0. -1.
         13   -1    0    0    0    0 -0.00000000000E+00 -0.00000000000E+00 -0.10000000000E+04  0.10000000000E+04  0.00000000000E+00 0.  1.
    9000005    2    1    2  501    0 -0.20323740680E+02 -0.23451587506E+02 -0.79508365736E+03  0.79569693823E+03  0.35445616061E+01 0.  0.
         13    1    3    3    0    0 -0.77321578059E+01 -0.10420658935E+02 -0.29550473999E+03  0.29578949906E+03  0.00000000000E+00 0.  1.
          1    1    3    3  501    0 -0.12591582874E+02 -0.13030928571E+02 -0.49957891737E+03  0.49990743917E+03  0.00000000000E+00 0.  1.
         -3    1    1    2    0  502  0.20323740680E+02  0.23451587506E+02 -0.20343303342E+03  0.20578637098E+03  0.00000000000E+00 0. -1.
<mgrwt>
<rscale>  1 0.30000000E+03</rscale>
<asrwt>0</asrwt>
<pdfrwt beam="1">  1       21 0.53938631E-02 0.30000000E+03</pdfrwt>
<pdfrwt beam="2">0</pdfrwt>
<totfact> 0.25305116E+04</totfact>
</mgrwt>
</event>
<event>
 6    1  0.1270461E-001  0.3000000E+03  0.7818608E-02  0.1093470E+00
         21   -1    0    0  501  502  0.00000000000E+00  0.00000000000E+00  0.12888440022E+01  0.12888440022E+01  0.00000000000E+00 0. -1.
         13   -1    0    0    0    0 -0.00000000000E+00 -0.00000000000E+00 -0.10000000000E+04  0.10000000000E+04  0.00000000000E+00 0.  1.
    9000005    2    1    2  501    0 -0.28056660366E+02  0.21855436914E+02 -0.43992600359E+03  0.44137306206E+03  0.32334140194E+01 0.  0.
         13    1    3    3    0    0 -0.87573891961E+00  0.14748299260E+00 -0.14574497598E+02  0.14601529033E+02  0.00000000000E+00 0.  1.
          1    1    3    3  501    0 -0.27180921447E+02  0.21707953922E+02 -0.42535150599E+03  0.42677153302E+03  0.00000000000E+00 0.  1.
         -1    1    1    2    0  502  0.28056660366E+02 -0.21855436914E+02 -0.55878515241E+03  0.55991578194E+03  0.00000000000E+00 0. -1.
<mgrwt>
<rscale>  1 0.30000000E+03</rscale>
<asrwt>0</asrwt>
<pdfrwt beam="1">  1       21 0.46867153E-02 0.30000000E+03</pdfrwt>
<pdfrwt beam="2">0</pdfrwt>
<totfact> 0.32158718E+04</totfact>
</mgrwt>
</event>
<event>
 6    1  0.1270461E-001  0.3000000E+03  0.7818608E-02  0.1093470E+00
         21   -1    0    0  501  502  0.00000000000E+00  0.00000000000E+00  0.25365109206E+01  0.25365109206E+01  0.00000000000E+00 0. -1.
         13   -1    0    0    0    0 -0.00000000000E+00 -0.00000000000E+00 -0.10000000000E+04  0.10000000000E+04  0.00000000000E+00 0.  1.
    9000005    2    1    2  501    0 -0.37856271883E+02  0.67496699755E+01 -0.82212710761E+03  0.82303302340E+03  0.34236197918E+01 0.  0.
         13    1    3    3    0    0 -0.36325945671E+01  0.17016633866E+01 -0.85685515257E+02  0.85779361891E+02  0.00000000000E+00 0.  1.
          3    1    3    3  501    0 -0.34223677316E+02  0.50480065889E+01 -0.73644159235E+03  0.73725366150E+03  0.00000000000E+00 0.  1.
         -3    1    1    2    0  502  0.37856271883E+02 -0.67496699755E+01 -0.17533638147E+03  0.17950348753E+03  0.00000000000E+00 0. -1.
<mgrwt>
<rscale>  1 0.30000000E+03</rscale>
<asrwt>0</asrwt>
<pdfrwt beam="1">  1       21 0.92236955E-02 0.30000000E+03</pdfrwt>
<pdfrwt beam="2">0</pdfrwt>
<totfact> 0.99358573E+03</totfact>
</mgrwt>
</event>
<event>
 6    1  0.1270461E-001  0.3000000E+03  0.7818608E-02  0.1093470E+00
         21   -1    0    0  501  502  0.00000000000E+00  0.00000000000E+00  0.37817031994E+01  0.37817031994E+01  0.00000000000E+00 0. -1.
         13   -1    0    0    0    0 -0.00000000000E+00 -0.00000000000E+00 -0.10000000000E+04  0.10000000000E+04  0.00000000000E+00 0.  1.
    9000005    2    1    2  501    0  0.12847315864E+02 -0.30405628022E+02 -0.92148504168E+03  0.92208338522E+03  0.36785203012E+01 0.  0.
         13    1    3    3    0    0  0.56488509819E+01 -0.98023242796E+01 -0.34456042610E+03  0.34474611284E+03  0.00000000000E+00 0.  1.
          3    1    3    3  501    0  0.71984648817E+01 -0.20603303743E+02 -0.57692461558E+03  0.57733727238E+03  0.00000000000E+00 0.  1.
         -1    1    1    2    0  502 -0.12847315864E+02  0.30405628022E+02 -0.74733255118E+02  0.81698317981E+02  0.00000000000E+00 0. -1.
<mgrwt>
<rscale>  1 0.30000000E+03</rscale>
<asrwt>0</asrwt>
<pdfrwt beam="1">  1       21 0.13751677E-01 0.30000000E+03</pdfrwt>
<pdfrwt beam="2">0</pdfrwt>
<totfact> 0.48328810E+03</totfact>
</mgrwt>
</event>
<event>
 6    1  0.1270461E-001  0.3000000E+03  0.7818608E-02  0.1093470E+00
         21   -1    0    0  501  502  0.00000000000E+00  0.00000000000E+00  0.14549850682E+01  0.14549850682E+01  0.00000000000E+00 0. -1.
         13   -1    0    0    0    0 -0.00000000000E+00 -0.00000000000E+00 -0.10000000000E+04  0.10000000000E+04  0.00000000000E+00 0.  1.
    9000005    2    1    2  501    0 -0.29737344025E+02  0.95962084833E+01 -0.21365697149E+03  0.21594519036E+03  0.25742816227E+01 0.  0.
         13    1    3    3    0    0 -0.36083553032E+01  0.10282024219E+01 -0.20467673137E+02  0.20808725859E+02  0.00000000000E+00 0.  1.
          3    1    3    3  501    0 -0.26128988722E+02  0.85680060615E+01 -0.19318929836E+03  0.19513646450E+03  0.00000000000E+00 0.  1.
         -1    1    1    2    0  502  0.29737344025E+02 -0.95962084833E+01 -0.78488804344E+03  0.78550979471E+03  0.00000000000E+00 0. -1.
<mgrwt>
<rscale>  1 0.30000000E+03</rscale>
<asrwt>0</asrwt>
<pdfrwt beam="1">  1       21 0.52908660E-02 0.30000000E+03</pdfrwt>
<pdfrwt beam="2">0</pdfrwt>
<totfact> 0.26153904E+04</totfact>
</mgrwt>
</event>
<event>
 6    1  0.1270461E-001  0.3000000E+03  0.7818608E-02  0.1093470E+00
         21   -1    0    0  501  502  0.00000000000E+00  0.00000000000E+00  0.43133036774E+01  0.43133036774E+01  0.00000000000E+00 0. -1.
         13   -1    0    0    0    0 -0.00000000000E+00 -0.00000000000E+00 -0.10000000000E+04  0.10000000000E+04  0.00000000000E+00 0.  1.
    9000005    2    1    2  501    0 -0.28407315438E+02 -0.22141882879E+02 -0.91769002541E+03  0.91840219135E+03  0.32192844504E+01 0.  0.
         13    1    3    3    0    0 -0.16102652655E+02 -0.14282169338E+02 -0.52642533971E+03  0.52686517637E+03  0.00000000000E+00 0.  1.
          1    1    3    3  501    0 -0.12304662783E+02 -0.78597135414E+01 -0.39126468570E+03  0.39153701498E+03  0.00000000000E+00 0.  1.
         -1    1    1    2    0  502  0.28407315438E+02  0.22141882879E+02 -0.77996670913E+02  0.85911112327E+02  0.00000000000E+00 0. -1.
<mgrwt>
<rscale>  1 0.30000000E+03</rscale>
<asrwt>0</asrwt>
<pdfrwt beam="1">  1       21 0.15684774E-01 0.30000000E+03</pdfrwt>
<pdfrwt beam="2">0</pdfrwt>
<totfact> 0.37905824E+03</totfact>
</mgrwt>
</event>
<event>
 6    1  0.1270461E-001  0.3000000E+03  0.7818608E-02  0.1093470E+00
         21   -1    0    0  501  502  0.00000000000E+00  0.00000000000E+00  0.43389032855E+01  0.43389032855E+01  0.00000000000E+00 0. -1.
         13   -1    0    0    0    0 -0.00000000000E+00 -0.00000000000E+00 -0.10000000000E+04  0.10000000000E+04  0.00000000000E+00 0.  1.
    9000005    2    1    2  501    0 -0.91553221490E+01  0.31312287622E+02 -0.93402780417E+03  0.93460410544E+03  0.35518551688E+01 0.  0.
         13    1    3    3    0    0 -0.34371060764E+01  0.74230385780E+01 -0.20758707400E+03  0.20774818529E+03  0.00000000000E+00 0.  1.
          1    1    3    3  501    0 -0.57182160726E+01  0.23889249044E+02 -0.72644073017E+03  0.72685592015E+03  0.00000000000E+00 0.  1.
         -3    1    1    2    0  502  0.91553221490E+01 -0.31312287622E+02 -0.61633292547E+02  0.69734797841E+02  0.00000000000E+00 0. -1.
<mgrwt>
<rscale>  1 0.30000000E+03</rscale>
<asrwt>0</asrwt>
<pdfrwt beam="1">  1       21 0.15777863E-01 0.30000000E+03</pdfrwt>
<pdfrwt beam="2">0</pdfrwt>
<totfact> 0.37490520E+03</totfact>
</mgrwt>
</event>
<event>
 6    1  0.1270461E-001  0.3000000E+03  0.7818608E-02  0.1093470E+00
         21   -1    0    0  501  502  0.00000000000E+00  0.00000000000E+00  0.20267306337E+01  0.20267306337E+01  0.00000000000E+00 0. -1.
         13   -1    0    0    0    0 -0.00000000000E+00 -0.00000000000E+00 -0.10000000000E+04  0.10000000000E+04  0.00000000000E+00 0.  1.
    9000005    2    1    2  501    0  0.24892534370E+02  0.37343079786E+02 -0.53087181744E+03  0.53277422902E+03  0.30575619124E+01 0.  0.
         13    1    3    3    0    0  0.22181653670E+02  0.34665772832E+02 -0.48991915913E+03  0.49164471324E+03  0.00000000000E+00 0.  1.
          3    1    3    3  501    0  0.27108806997E+01  0.26773069543E+01 -0.40952658305E+02  0.41129515788E+02  0.00000000000E+00 0.  1.
         -3    1    1    2    0  502 -0.24892534370E+02 -0.37343079786E+02 -0.46710145193E+03  0.46925250161E+03  0.00000000000E+00 0. -1.
<mgrwt>
<rscale>  1 0.30000000E+03</rscale>
<asrwt>0</asrwt>
<pdfrwt beam="1">  1       21 0.73699451E-02 0.30000000E+03</pdfrwt>
<pdfrwt beam="2">0</pdfrwt>
<totfact> 0.14749083E+04</totfact>
</mgrwt>
</event>
<event>
 6    1  0.1270461E-001  0.3000000E+03  0.7818608E-02  0.1093470E+00
         21   -1    0    0  501  502  0.00000000000E+00  0.00000000000E+00  0.18777833696E+01  0.18777833696E+01  0.00000000000E+00 0. -1.
         13   -1    0    0    0    0 -0.00000000000E+00 -0.00000000000E+00 -0.10000000000E+04  0.10000000000E+04  0.00000000000E+00 0.  1.
    9000005    2    1    2  501    0 -0.64809451188E+01 -0.35975953625E+02 -0.76239000864E+03  0.76332811187E+03  0.97472666443E+01 0.  0.
         13    1    3    3    0    0 -0.22323059483E+01 -0.27205088768E+01 -0.13231997855E+03  0.13236676729E+03  0.00000000000E+00 0.  1.
          1    1    3    3  501    0 -0.42486391705E+01 -0.33255444748E+02 -0.63007003008E+03  0.63096134457E+03  0.00000000000E+00 0.  1.
         -3    1    1    2    0  502  0.64809451188E+01  0.35975953625E+02 -0.23573220799E+03  0.23854967150E+03  0.00000000000E+00 0. -1.
<mgrwt>
<rscale>  1 0.30000000E+03</rscale>
<asrwt>0</asrwt>
<pdfrwt beam="1">  1       21 0.68283176E-02 0.30000000E+03</pdfrwt>
<pdfrwt beam="2">0</pdfrwt>
<totfact> 0.16847163E+04</totfact>
</mgrwt>
</event>
<event>
 6    1  0.1270461E-001  0.3000000E+03  0.7818608E-02  0.1093470E+00
         21   -1    0    0  501  502  0.00000000000E+00  0.00000000000E+00  0.33008719700E+01  0.33008719700E+01  0.00000000000E+00 0. -1.
         13   -1    0    0    0    0 -0.00000000000E+00 -0.00000000000E+00 -0.10000000000E+04  0.10000000000E+04  0.00000000000E+00 0.  1.
    9000005    2    1    2  501    0 -0.43076180657E+02  0.36198038170E+02 -0.39855797067E+03  0.40251913171E+03  0.27092613172E+01 0.  0.
         13    1    3    3    0    0 -0.10961646015E+02  0.92673704506E+01 -0.11033922523E+03  0.11126898248E+03  0.00000000000E+00 0.  1.
          1    1    3    3  501    0 -0.32114534642E+02  0.26930667720E+02 -0.28821874544E+03  0.29125014923E+03  0.00000000000E+00 0.  1.
         -1    1    1    2    0  502  0.43076180657E+02 -0.36198038170E+02 -0.59814115736E+03  0.60078174026E+03  0.00000000000E+00 0. -1.
<mgrwt>
<rscale>  1 0.30000000E+03</rscale>
<asrwt>0</asrwt>
<pdfrwt beam="1">  1       21 0.12003196E-01 0.30000000E+03</pdfrwt>
<pdfrwt beam="2">0</pdfrwt>
<totfact> 0.61941253E+03</totfact>
</mgrwt>
</event>
<event>
 6    1  0.1270461E-001  0.3000000E+03  0.7818608E-02  0.1093470E+00
         21   -1    0    0  501  502  0.00000000000E+00  0.00000000000E+00  0.13488085123E+01  0.13488085123E+01  0.00000000000E+00 0. -1.
         13   -1    0    0    0    0 -0.00000000000E+00 -0.00000000000E+00 -0.10000000000E+04  0.10000000000E+04  0.00000000000E+00 0.  1.
    9000005    2    1    2  501    0 -0.34519465245E+02  0.33052759683E+01 -0.66202856438E+03  0.66294474322E+03  0.33755250083E+01 0.  0.
         13    1    3    3    0    0 -0.31298482658E+02  0.21607413202E+01 -0.60681421909E+03  0.60762468705E+03  0.00000000000E+00 0.  1.
          3    1    3    3  501    0 -0.32209825869E+01  0.11445346481E+01 -0.55214345295E+02  0.55320056170E+02  0.00000000000E+00 0.  1.
         -3    1    1    2    0  502  0.34519465245E+02 -0.33052759683E+01 -0.33662262710E+03  0.33840406529E+03  0.00000000000E+00 0. -1.
<mgrwt>
<rscale>  1 0.30000000E+03</rscale>
<asrwt>0</asrwt>
<pdfrwt beam="1">  1       21 0.49047686E-02 0.30000000E+03</pdfrwt>
<pdfrwt beam="2">0</pdfrwt>
<totfact> 0.29764124E+04</totfact>
</mgrwt>
</event>
<event>
 6    1  0.1270461E-001  0.3000000E+03  0.7818608E-02  0.1093470E+00
         21   -1    0    0  501  502  0.00000000000E+00  0.00000000000E+00  0.22441863707E+01  0.22441863707E+01  0.00000000000E+00 0. -1.
         13   -1    0    0    0    0 -0.00000000000E+00 -0.00000000000E+00 -0.10000000000E+04  0.10000000000E+04  0.00000000000E+00 0.  1.
    9000005    2    1    2  501    0  0.85329664579E+01 -0.45485264130E+02 -0.60321375041E+03  0.60499720977E+03  0.36158506008E+01 0.  0.
         13    1    3    3    0    0  0.15502310559E+01 -0.15824269015E+02 -0.19398102045E+03  0.19463156733E+03  0.00000000000E+00 0.  1.
          1    1    3    3  501    0  0.69827354021E+01 -0.29660995115E+02 -0.40923272996E+03  0.41036564244E+03  0.00000000000E+00 0.  1.
         -1    1    1    2    0  502 -0.85329664579E+01  0.45485264130E+02 -0.39454206322E+03  0.39724697660E+03  0.00000000000E+00 0. -1.
<mgrwt>
<rscale>  1 0.30000000E+03</rscale>
<asrwt>0</asrwt>
<pdfrwt beam="1">  1       21 0.81606949E-02 0.30000000E+03</pdfrwt>
<pdfrwt beam="2">0</pdfrwt>
<totfact> 0.12335104E+04</totfact>
</mgrwt>
</event>
<event>
 6    1  0.1270461E-001  0.3000000E+03  0.7818608E-02  0.1093470E+00
         21   -1    0    0  501  502  0.00000000000E+00  0.00000000000E+00  0.11801028715E+01  0.11801028715E+01  0.00000000000E+00 0. -1.
         13   -1    0    0    0    0 -0.00000000000E+00 -0.00000000000E+00 -0.10000000000E+04  0.10000000000E+04  0.00000000000E+00 0.  1.
    9000005    2    1    2  501    0 -0.28403596642E+02 -0.16327739034E+02 -0.64675716832E+03  0.64759627352E+03  0.35692207927E+01 0.  0.
         13    1    3    3    0    0 -0.24888872164E+02 -0.14256742461E+02 -0.54006442909E+03  0.54082557098E+03  0.00000000000E+00 0.  1.
          1    1    3    3  501    0 -0.35147244780E+01 -0.20709965729E+01 -0.10669273924E+03  0.10677070254E+03  0.00000000000E+00 0.  1.
         -3    1    1    2    0  502  0.28403596642E+02  0.16327739034E+02 -0.35206272880E+03  0.35358382935E+03  0.00000000000E+00 0. -1.
<mgrwt>
<rscale>  1 0.30000000E+03</rscale>
<asrwt>0</asrwt>
<pdfrwt beam="1">  1       21 0.42912922E-02 0.30000000E+03</pdfrwt>
<pdfrwt beam="2">0</pdfrwt>
<totfact> 0.37344544E+04</totfact>
</mgrwt>
</event>
<event>
 6    1  0.1270461E-001  0.3000000E+03  0.7818608E-02  0.1093470E+00
         21   -1    0    0  501  502  0.00000000000E+00  0.00000000000E+00  0.20435238933E+01  0.20435238933E+01  0.00000000000E+00 0. -1.
         13   -1    0    0    0    0 -0.00000000000E+00 -0.00000000000E+00 -0.10000000000E+04  0.10000000000E+04  0.00000000000E+00 0.  1.
    9000005    2    1    2  501    0  0.41728436285E+01  0.31833984178E+02 -0.85146305090E+03  0.85207306413E+03  0.28921266505E+01 0.  0.
         13    1    3    3    0    0  0.75776907521E+00  0.38621235631E+01 -0.82450581867E+02  0.82544464760E+02  0.00000000000E+00 0.  1.
          3    1    3    3  501    0  0.34150745533E+01  0.27971860615E+02 -0.76901246904E+03  0.76952859937E+03  0.00000000000E+00 0.  1.
         -3    1    1    2    0  502 -0.41728436285E+01 -0.31833984178E+02 -0.14649342520E+03  0.14997045976E+03  0.00000000000E+00 0. -1.
<mgrwt>
<rscale>  1 0.30000000E+03</rscale>
<asrwt>0</asrwt>
<pdfrwt beam="1">  1       21 0.74310116E-02 0.30000000E+03</pdfrwt>
<pdfrwt beam="2">0</pdfrwt>
<totfact> 0.14537735E+04</totfact>
</mgrwt>
</event>
<event>
 6    1  0.1270461E-001  0.3000000E+03  0.7818608E-02  0.1093470E+00
         21   -1    0    0  501  502  0.00000000000E+00  0.00000000000E+00  0.20567079212E+01  0.20567079212E+01  0.00000000000E+00 0. -1.
         13   -1    0    0    0    0 -0.00000000000E+00 -0.00000000000E+00 -0.10000000000E+04  0.10000000000E+04  0.00000000000E+00 0.  1.
    9000005    2    1    2  501    0  0.27163091519E+02 -0.35833870193E+02 -0.56047082896E+03  0.56227942817E+03  0.29504982079E+01 0.  0.
         13    1    3    3    0    0  0.62936486474E+00 -0.12412905296E+01 -0.12566451798E+02  0.12643283319E+02  0.00000000000E+00 0.  1.
          1    1    3    3  501    0  0.26533726654E+02 -0.34592579664E+02 -0.54790437716E+03  0.54963614485E+03  0.00000000000E+00 0.  1.
         -1    1    1    2    0  502 -0.27163091519E+02  0.35833870193E+02 -0.43747246312E+03  0.43977727975E+03  0.00000000000E+00 0. -1.
<mgrwt>
<rscale>  1 0.30000000E+03</rscale>
<asrwt>0</asrwt>
<pdfrwt beam="1">  1       21 0.74789537E-02 0.30000000E+03</pdfrwt>
<pdfrwt beam="2">0</pdfrwt>
<totfact> 0.14375012E+04</totfact>
</mgrwt>
</event>
<event>
 6    1  0.1270461E-001  0.3000000E+03  0.7818608E-02  0.1093470E+00
         21   -1    0    0  501  502  0.00000000000E+00  0.00000000000E+00  0.25001582792E+01  0.25001582792E+01  0.00000000000E+00 0. -1.
         13   -1    0    0    0    0 -0.00000000000E+00 -0.00000000000E+00 -0.10000000000E+04  0.10000000000E+04  0.00000000000E+00 0.  1.
    9000005    2    1    2  501    0 -0.28321080595E+02  0.41092131703E+02 -0.48146589660E+03  0.48405857101E+03  0.35557959361E+01 0.  0.
         13    1    3    3    0    0 -0.58000431075E+01  0.77755767473E+01 -0.10743222796E+03  0.10786928988E+03  0.00000000000E+00 0.  1.
          1    1    3    3  501    0 -0.22521037487E+02  0.33316554956E+02 -0.37403366864E+03  0.37618928114E+03  0.00000000000E+00 0.  1.
         -3    1    1    2    0  502  0.28321080595E+02 -0.41092131703E+02 -0.51603394512E+03  0.51844158727E+03  0.00000000000E+00 0. -1.
<mgrwt>
<rscale>  1 0.30000000E+03</rscale>
<asrwt>0</asrwt>
<pdfrwt beam="1">  1       21 0.90915038E-02 0.30000000E+03</pdfrwt>
<pdfrwt beam="2">0</pdfrwt>
<totfact> 0.10193668E+04</totfact>
</mgrwt>
</event>
<event>
 6    1  0.1270461E-001  0.3000000E+03  0.7818608E-02  0.1093470E+00
         21   -1    0    0  501  502  0.00000000000E+00  0.00000000000E+00  0.15352712973E+01  0.15352712973E+01  0.00000000000E+00 0. -1.
         13   -1    0    0    0    0 -0.00000000000E+00 -0.00000000000E+00 -0.10000000000E+04  0.10000000000E+04  0.00000000000E+00 0.  1.
    9000005    2    1    2  501    0  0.29265539632E+02 -0.13864486616E+02 -0.77371112571E+03  0.77446066273E+03  0.10569591540E+02 0.  0.
         13    1    3    3    0    0  0.21635618040E+02 -0.68536252343E+01 -0.43562546622E+03  0.43621625253E+03  0.00000000000E+00 0.  1.
          3    1    3    3  501    0  0.76299215920E+01 -0.70108613818E+01 -0.33808565948E+03  0.33824441020E+03  0.00000000000E+00 0.  1.
         -3    1    1    2    0  502 -0.29265539632E+02  0.13864486616E+02 -0.22475360299E+03  0.22707460857E+03  0.00000000000E+00 0. -1.
<mgrwt>
<rscale>  1 0.30000000E+03</rscale>
<asrwt>0</asrwt>
<pdfrwt beam="1">  1       21 0.55828165E-02 0.30000000E+03</pdfrwt>
<pdfrwt beam="2">0</pdfrwt>
<totfact> 0.23854590E+04</totfact>
</mgrwt>
</event>
<event>
 6    1  0.1270461E-001  0.3000000E+03  0.7818608E-02  0.1093470E+00
         21   -1    0    0  501  502  0.00000000000E+00  0.00000000000E+00  0.25368650058E+01  0.25368650058E+01  0.00000000000E+00 0. -1.
         13   -1    0    0    0    0 -0.00000000000E+00 -0.00000000000E+00 -0.10000000000E+04  0.10000000000E+04  0.00000000000E+00 0.  1.
    9000005    2    1    2  501    0 -0.11052922325E+02 -0.39179312086E+02 -0.21319206649E+03  0.21720999390E+03  0.84934473823E+01 0.  0.
         13    1    3    3    0    0 -0.26003068568E+01 -0.21236263330E+02 -0.12473181390E+03  0.12655341116E+03  0.00000000000E+00 0.  1.
          3    1    3    3  501    0 -0.84526154681E+01 -0.17943048756E+02 -0.88460252584E+02  0.90656582740E+02  0.00000000000E+00 0.  1.
         -3    1    1    2    0  502  0.11052922325E+02  0.39179312086E+02 -0.78427106851E+03  0.78532687111E+03  0.00000000000E+00 0. -1.
<mgrwt>
<rscale>  1 0.30000000E+03</rscale>
<asrwt>0</asrwt>
<pdfrwt beam="1">  1       21 0.92249831E-02 0.30000000E+03</pdfrwt>
<pdfrwt beam="2">0</pdfrwt>
<totfact> 0.99333947E+03</totfact>
</mgrwt>
</event>
<event>
 6    1  0.1270461E-001  0.3000000E+03  0.7818608E-02  0.1093470E+00
         21   -1    0    0  501  502  0.00000000000E+00  0.00000000000E+00  0.10226537919E+02  0.10226537919E+02  0.00000000000E+00 0. -1.
         13   -1    0    0    0    0 -0.00000000000E+00 -0.00000000000E+00 -0.10000000000E+04  0.10000000000E+04  0.00000000000E+00 0.  1.
    9000005    2    1    2  501    0 -0.22527913672E+02 -0.26100243585E+02 -0.96972419984E+03  0.97034292567E+03  0.34117497145E+01 0.  0.
         13    1    3    3    0    0  0.52304632986E-01 -0.49083271234E+00 -0.16913215957E+02  0.16920417446E+02  0.00000000000E+00 0.  1.
          1    1    3    3  501    0 -0.22580218305E+02 -0.25609410873E+02 -0.95281098388E+03  0.95342250822E+03  0.00000000000E+00 0.  1.
         -3    1    1    2    0  502  0.22527913672E+02  0.26100243585E+02 -0.20049262246E+02  0.39883612252E+02  0.00000000000E+00 0. -1.
<mgrwt>
<rscale>  1 0.30000000E+03</rscale>
<asrwt>0</asrwt>
<pdfrwt beam="1">  1       21 0.37187489E-01 0.30000000E+03</pdfrwt>
<pdfrwt beam="2">0</pdfrwt>
<totfact> 0.70264184E+02</totfact>
</mgrwt>
</event>
<event>
 6    1  0.1270461E-001  0.3000000E+03  0.7818608E-02  0.1093470E+00
         21   -1    0    0  501  502  0.00000000000E+00  0.00000000000E+00  0.31326579743E+01  0.31326579743E+01  0.00000000000E+00 0. -1.
         13   -1    0    0    0    0 -0.00000000000E+00 -0.00000000000E+00 -0.10000000000E+04  0.10000000000E+04  0.00000000000E+00 0.  1.
    9000005    2    1    2  501    0 -0.13909899447E+01 -0.48860968806E+02 -0.74199516482E+03  0.74361549893E+03  0.42256957614E+01 0.  0.
         13    1    3    3    0    0  0.45750140768E+00 -0.47228631305E+01 -0.56907437969E+02  0.57104914323E+02  0.00000000000E+00 0.  1.
          1    1    3    3  501    0 -0.18484913524E+01 -0.44138105675E+02 -0.68508772685E+03  0.68651058460E+03  0.00000000000E+00 0.  1.
         -3    1    1    2    0  502  0.13909899447E+01  0.48860968806E+02 -0.25487217721E+03  0.25951715905E+03  0.00000000000E+00 0. -1.
<mgrwt>
<rscale>  1 0.30000000E+03</rscale>
<asrwt>0</asrwt>
<pdfrwt beam="1">  1       21 0.11391508E-01 0.30000000E+03</pdfrwt>
<pdfrwt beam="2">0</pdfrwt>
<totfact> 0.68091086E+03</totfact>
</mgrwt>
</event>
<event>
 6    1  0.1270461E-001  0.3000000E+03  0.7818608E-02  0.1093470E+00
         21   -1    0    0  501  502  0.00000000000E+00  0.00000000000E+00  0.19704646837E+01  0.19704646837E+01  0.00000000000E+00 0. -1.
         13   -1    0    0    0    0 -0.00000000000E+00 -0.00000000000E+00 -0.10000000000E+04  0.10000000000E+04  0.00000000000E+00 0.  1.
    9000005    2    1    2  501    0  0.41443357876E+02 -0.79010215622E+01 -0.65383724604E+03  0.65520208370E+03  0.25783948324E+01 0.  0.
         13    1    3    3    0    0  0.25335520723E+02 -0.59711764832E+01 -0.39402493354E+03  0.39488377000E+03  0.00000000000E+00 0.  1.
          3    1    3    3  501    0  0.16107837153E+02 -0.19298450790E+01 -0.25981231250E+03  0.26031831370E+03  0.00000000000E+00 0.  1.
         -3    1    1    2    0  502 -0.41443357876E+02  0.79010215622E+01 -0.34419228927E+03  0.34676838098E+03  0.00000000000E+00 0. -1.
<mgrwt>
<rscale>  1 0.30000000E+03</rscale>
<asrwt>0</asrwt>
<pdfrwt beam="1">  1       21 0.71653412E-02 0.30000000E+03</pdfrwt>
<pdfrwt beam="2">0</pdfrwt>
<totfact> 0.15492252E+04</totfact>
</mgrwt>
</event>
<event>
 6    1  0.1270461E-001  0.3000000E+03  0.7818608E-02  0.1093470E+00
         21   -1    0    0  501  502  0.00000000000E+00  0.00000000000E+00  0.12744787105E+01  0.12744787105E+01  0.00000000000E+00 0. -1.
         13   -1    0    0    0    0 -0.00000000000E+00 -0.00000000000E+00 -0.10000000000E+04  0.10000000000E+04  0.00000000000E+00 0.  1.
    9000005    2    1    2  501    0 -0.12276459937E+02 -0.29769201784E+02 -0.71437878571E+03  0.71511022015E+03  0.29428973988E+01 0.  0.
         13    1    3    3    0    0 -0.87891820404E+01 -0.23323523593E+02 -0.57244528610E+03  0.57298764563E+03  0.00000000000E+00 0.  1.
          3    1    3    3  501    0 -0.34872778966E+01 -0.64456781917E+01 -0.14193349962E+03  0.14212257452E+03  0.00000000000E+00 0.  1.
         -3    1    1    2    0  502  0.12276459937E+02  0.29769201784E+02 -0.28434673558E+03  0.28616425856E+03  0.00000000000E+00 0. -1.
<mgrwt>
<rscale>  1 0.30000000E+03</rscale>
<asrwt>0</asrwt>
<pdfrwt beam="1">  1       21 0.46344778E-02 0.30000000E+03</pdfrwt>
<pdfrwt beam="2">0</pdfrwt>
<totfact> 0.32777253E+04</totfact>
</mgrwt>
</event>
<event>
 6    1  0.1270461E-001  0.3000000E+03  0.7818608E-02  0.1093470E+00
         21   -1    0    0  501  502  0.00000000000E+00  0.00000000000E+00  0.39922242271E+01  0.39922242271E+01  0.00000000000E+00 0. -1.
         13   -1    0    0    0    0 -0.00000000000E+00 -0.00000000000E+00 -0.10000000000E+04  0.10000000000E+04  0.00000000000E+00 0.  1.
    9000005    2    1    2  501    0 -0.72498664092E+00 -0.60542881473E+02 -0.63996722507E+03  0.64284012351E+03  0.44055801759E+01 0.  0.
         13    1    3    3    0    0 -0.15837796359E+01 -0.49028720201E+02 -0.53232672465E+03  0.53458214106E+03  0.00000000000E+00 0.  1.
          3    1    3    3  501    0  0.85879299502E+00 -0.11514161272E+02 -0.10764050041E+03  0.10825798245E+03  0.00000000000E+00 0.  1.
         -3    1    1    2    0  502  0.72498664092E+00  0.60542881473E+02 -0.35604055071E+03  0.36115210071E+03  0.00000000000E+00 0. -1.
<mgrwt>
<rscale>  1 0.30000000E+03</rscale>
<asrwt>0</asrwt>
<pdfrwt beam="1">  1       21 0.14517210E-01 0.30000000E+03</pdfrwt>
<pdfrwt beam="2">0</pdfrwt>
<totfact> 0.43745986E+03</totfact>
</mgrwt>
</event>
<event>
 6    1  0.1270461E-001  0.3000000E+03  0.7818608E-02  0.1093470E+00
         21   -1    0    0  501  502  0.00000000000E+00  0.00000000000E+00  0.11882147579E+01  0.11882147579E+01  0.00000000000E+00 0. -1.
         13   -1    0    0    0    0 -0.00000000000E+00 -0.00000000000E+00 -0.10000000000E+04  0.10000000000E+04  0.00000000000E+00 0.  1.
    9000005    2    1    2  501    0  0.14038463582E+02  0.29080058757E+02 -0.67173853978E+03  0.67252480613E+03  0.37710410661E+01 0.  0.
         13    1    3    3    0    0  0.21699857806E+00  0.15709999483E+00 -0.18036728248E+01  0.18234594732E+01  0.00000000000E+00 0.  1.
          1    1    3    3  501    0  0.13821465004E+02  0.28922958762E+02 -0.66993486696E+03  0.67070134666E+03  0.00000000000E+00 0.  1.
         -1    1    1    2    0  502 -0.14038463582E+02 -0.29080058757E+02 -0.32707324546E+03  0.32866340863E+03  0.00000000000E+00 0. -1.
<mgrwt>
<rscale>  1 0.30000000E+03</rscale>
<asrwt>0</asrwt>
<pdfrwt beam="1">  1       21 0.43207900E-02 0.30000000E+03</pdfrwt>
<pdfrwt beam="2">0</pdfrwt>
<totfact> 0.36914348E+04</totfact>
</mgrwt>
</event>
<event>
 6    1  0.1270461E-001  0.3000000E+03  0.7818608E-02  0.1093470E+00
         21   -1    0    0  501  502  0.00000000000E+00  0.00000000000E+00  0.25490841039E+01  0.25490841039E+01  0.00000000000E+00 0. -1.
         13   -1    0    0    0    0 -0.00000000000E+00 -0.00000000000E+00 -0.10000000000E+04  0.10000000000E+04  0.00000000000E+00 0.  1.
    9000005    2    1    2  501    0 -0.54624741740E+00  0.44839304360E+02 -0.72800220812E+03  0.72939442512E+03  0.42603718858E+01 0.  0.
         13    1    3    3    0    0  0.10464779017E+01  0.14251710551E+02 -0.25768186261E+03  0.25807779580E+03  0.00000000000E+00 0.  1.
          1    1    3    3  501    0 -0.15927253191E+01  0.30587593809E+02 -0.47032034551E+03  0.47131662932E+03  0.00000000000E+00 0.  1.
         -3    1    1    2    0  502  0.54624741740E+00 -0.44839304360E+02 -0.26944870778E+03  0.27315465898E+03  0.00000000000E+00 0. -1.
<mgrwt>
<rscale>  1 0.30000000E+03</rscale>
<asrwt>0</asrwt>
<pdfrwt beam="1">  1       21 0.92694163E-02 0.30000000E+03</pdfrwt>
<pdfrwt beam="2">0</pdfrwt>
<totfact> 0.98489730E+03</totfact>
</mgrwt>
</event>
<event>
 6    1  0.1270461E-001  0.3000000E+03  0.7818608E-02  0.1093470E+00
         21   -1    0    0  501  502  0.00000000000E+00  0.00000000000E+00  0.70149640036E+01  0.70149640036E+01  0.00000000000E+00 0. -1.
         13   -1    0    0    0    0 -0.00000000000E+00 -0.00000000000E+00 -0.10000000000E+04  0.10000000000E+04  0.00000000000E+00 0.  1.
    9000005    2    1    2  501    0  0.31087526858E+02  0.31434294022E+02 -0.92408506358E+03  0.92515071439E+03  0.40112873636E+01 0.  0.
         13    1    3    3    0    0  0.21320870341E+02  0.21929038583E+02 -0.59957998591E+03  0.60035957704E+03  0.00000000000E+00 0.  1.
          1    1    3    3  501    0  0.97666565169E+01  0.95052554387E+01 -0.32450507767E+03  0.32479113734E+03  0.00000000000E+00 0.  1.
         -3    1    1    2    0  502 -0.31087526858E+02 -0.31434294022E+02 -0.68899972415E+02  0.81864249618E+02  0.00000000000E+00 0. -1.
<mgrwt>
<rscale>  1 0.30000000E+03</rscale>
<asrwt>0</asrwt>
<pdfrwt beam="1">  1       21 0.25509014E-01 0.30000000E+03</pdfrwt>
<pdfrwt beam="2">0</pdfrwt>
<totfact> 0.14991722E+03</totfact>
</mgrwt>
</event>
<event>
 6    1  0.1270461E-001  0.3000000E+03  0.7818608E-02  0.1093470E+00
         21   -1    0    0  501  502  0.00000000000E+00  0.00000000000E+00  0.29256281618E+01  0.29256281618E+01  0.00000000000E+00 0. -1.
         13   -1    0    0    0    0 -0.00000000000E+00 -0.00000000000E+00 -0.10000000000E+04  0.10000000000E+04  0.00000000000E+00 0.  1.
    9000005    2    1    2  501    0 -0.26121649898E+02 -0.16670633153E+02 -0.90944792303E+03  0.90998131616E+03  0.31969437945E+01 0.  0.
         13    1    3    3    0    0 -0.21562201970E+02 -0.15053166275E+02 -0.77887968299E+03  0.77932348030E+03  0.00000000000E+00 0.  1.
          1    1    3    3  501    0 -0.45594479288E+01 -0.16174668781E+01 -0.13056824004E+03  0.13065783586E+03  0.00000000000E+00 0.  1.
         -1    1    1    2    0  502  0.26121649898E+02  0.16670633153E+02 -0.87626448807E+02  0.92944312003E+02  0.00000000000E+00 0. -1.
<mgrwt>
<rscale>  1 0.30000000E+03</rscale>
<asrwt>0</asrwt>
<pdfrwt beam="1">  1       21 0.10638670E-01 0.30000000E+03</pdfrwt>
<pdfrwt beam="2">0</pdfrwt>
<totfact> 0.77005257E+03</totfact>
</mgrwt>
</event>
<event>
 6    1  0.1270461E-001  0.3000000E+03  0.7818608E-02  0.1093470E+00
         21   -1    0    0  501  502  0.00000000000E+00  0.00000000000E+00  0.13096806975E+01  0.13096806975E+01  0.00000000000E+00 0. -1.
         13   -1    0    0    0    0 -0.00000000000E+00 -0.00000000000E+00 -0.10000000000E+04  0.10000000000E+04  0.00000000000E+00 0.  1.
    9000005    2    1    2  501    0  0.30067950630E+02  0.71490788935E+01 -0.75889303198E+03  0.75952893293E+03  0.32210223251E+01 0.  0.
         13    1    3    3    0    0  0.19119617615E+01  0.11591371820E+01 -0.44410148079E+02  0.44466396854E+02  0.00000000000E+00 0.  1.
          1    1    3    3  501    0  0.28155988869E+02  0.59899417115E+01 -0.71448288390E+03  0.71506253608E+03  0.00000000000E+00 0.  1.
         -1    1    1    2    0  502 -0.30067950630E+02 -0.71490788935E+01 -0.23979728732E+03  0.24178074776E+03  0.00000000000E+00 0. -1.
<mgrwt>
<rscale>  1 0.30000000E+03</rscale>
<asrwt>0</asrwt>
<pdfrwt beam="1">  1       21 0.47624853E-02 0.30000000E+03</pdfrwt>
<pdfrwt beam="2">0</pdfrwt>
<totfact> 0.31293507E+04</totfact>
</mgrwt>
</event>
<event>
 6    1  0.1270461E-001  0.3000000E+03  0.7818608E-02  0.1093470E+00
         21   -1    0    0  501  502  0.00000000000E+00  0.00000000000E+00  0.19974446680E+01  0.19974446680E+01  0.00000000000E+00 0. -1.
         13   -1    0    0    0    0 -0.00000000000E+00 -0.00000000000E+00 -0.10000000000E+04  0.10000000000E+04  0.00000000000E+00 0.  1.
    9000005    2    1    2  501    0 -0.35084729439E+02 -0.23131269538E+02 -0.65890486276E+03  0.66030571375E+03  0.90566865575E+01 0.  0.
         13    1    3    3    0    0 -0.29588854552E+02 -0.20066498700E+02 -0.60038150128E+03  0.60144501974E+03  0.00000000000E+00 0.  1.
          3    1    3    3  501    0 -0.54958748874E+01 -0.30647708384E+01 -0.58523361476E+02  0.58860694012E+02  0.00000000000E+00 0.  1.
         -3    1    1    2    0  502  0.35084729439E+02  0.23131269538E+02 -0.33909769257E+03  0.34169173092E+03  0.00000000000E+00 0. -1.
<mgrwt>
<rscale>  1 0.30000000E+03</rscale>
<asrwt>0</asrwt>
<pdfrwt beam="1">  1       21 0.72634505E-02 0.30000000E+03</pdfrwt>
<pdfrwt beam="2">0</pdfrwt>
<totfact> 0.15128967E+04</totfact>
</mgrwt>
</event>
<event>
 6    1  0.1270461E-001  0.3000000E+03  0.7818608E-02  0.1093470E+00
         21   -1    0    0  501  502  0.00000000000E+00  0.00000000000E+00  0.13039822456E+01  0.13039822456E+01  0.00000000000E+00 0. -1.
         13   -1    0    0    0    0 -0.00000000000E+00 -0.00000000000E+00 -0.10000000000E+04  0.10000000000E+04  0.00000000000E+00 0.  1.
    9000005    2    1    2  501    0 -0.22401930888E+02 -0.28226400450E+02 -0.50036610546E+03  0.50167284063E+03  0.32898841295E+01 0.  0.
         13    1    3    3    0    0 -0.78540507584E+00 -0.16627398721E+01 -0.34976504912E+02  0.35024812075E+02  0.00000000000E+00 0.  1.
          3    1    3    3  501    0 -0.21616525812E+02 -0.26563660578E+02 -0.46538960055E+03  0.46664802855E+03  0.00000000000E+00 0.  1.
         -3    1    1    2    0  502  0.22401930888E+02  0.28226400450E+02 -0.49832991229E+03  0.49963114162E+03  0.00000000000E+00 0. -1.
<mgrwt>
<rscale>  1 0.30000000E+03</rscale>
<asrwt>0</asrwt>
<pdfrwt beam="1">  1       21 0.47417636E-02 0.30000000E+03</pdfrwt>
<pdfrwt beam="2">0</pdfrwt>
<totfact> 0.31526472E+04</totfact>
</mgrwt>
</event>
<event>
 6    1  0.1270461E-001  0.3000000E+03  0.7818608E-02  0.1093470E+00
         21   -1    0    0  501  502  0.00000000000E+00  0.00000000000E+00  0.25338027622E+01  0.25338027622E+01  0.00000000000E+00 0. -1.
         13   -1    0    0    0    0 -0.00000000000E+00 -0.00000000000E+00 -0.10000000000E+04  0.10000000000E+04  0.00000000000E+00 0.  1.
    9000005    2    1    2  501    0 -0.15514949114E+02  0.34892420379E+02 -0.82325040527E+03  0.82418208055E+03  0.87565673862E+01 0.  0.
         13    1    3    3    0    0 -0.56335714826E+01  0.86500949326E+01 -0.30384215375E+03  0.30401745947E+03  0.00000000000E+00 0.  1.
          3    1    3    3  501    0 -0.98813776319E+01  0.26242325447E+02 -0.51940825153E+03  0.52016462108E+03  0.00000000000E+00 0.  1.
         -3    1    1    2    0  502  0.15514949114E+02 -0.34892420379E+02 -0.17421579197E+03  0.17835172221E+03  0.00000000000E+00 0. -1.
<mgrwt>
<rscale>  1 0.30000000E+03</rscale>
<asrwt>0</asrwt>
<pdfrwt beam="1">  1       21 0.92138477E-02 0.30000000E+03</pdfrwt>
<pdfrwt beam="2">0</pdfrwt>
<totfact> 0.99547225E+03</totfact>
</mgrwt>
</event>
<event>
 6    1  0.1270461E-001  0.3000000E+03  0.7818608E-02  0.1093470E+00
         21   -1    0    0  501  502  0.00000000000E+00  0.00000000000E+00  0.17607807137E+01  0.17607807137E+01  0.00000000000E+00 0. -1.
         13   -1    0    0    0    0 -0.00000000000E+00 -0.00000000000E+00 -0.10000000000E+04  0.10000000000E+04  0.00000000000E+00 0.  1.
    9000005    2    1    2  501    0  0.22791558918E+02  0.26546759053E+02 -0.77408313665E+03  0.77489047645E+03  0.51344398080E+01 0.  0.
         13    1    3    3    0    0  0.20837962570E+02  0.25601008656E+02 -0.74208823042E+03  0.74282203390E+03  0.00000000000E+00 0.  1.
          1    1    3    3  501    0  0.19535963482E+01  0.94575039659E+00 -0.31994906233E+02  0.32068442546E+02  0.00000000000E+00 0.  1.
         -1    1    1    2    0  502 -0.22791558918E+02 -0.26546759053E+02 -0.22415608264E+03  0.22687030426E+03  0.00000000000E+00 0. -1.
<mgrwt>
<rscale>  1 0.30000000E+03</rscale>
<asrwt>0</asrwt>
<pdfrwt beam="1">  1       21 0.64028525E-02 0.30000000E+03</pdfrwt>
<pdfrwt beam="2">0</pdfrwt>
<totfact> 0.18834553E+04</totfact>
</mgrwt>
</event>
<event>
 6    1  0.1270461E-001  0.3000000E+03  0.7818608E-02  0.1093470E+00
         21   -1    0    0  501  502  0.00000000000E+00  0.00000000000E+00  0.31312130526E+01  0.31312130526E+01  0.00000000000E+00 0. -1.
         13   -1    0    0    0    0 -0.00000000000E+00 -0.00000000000E+00 -0.10000000000E+04  0.10000000000E+04  0.00000000000E+00 0.  1.
    9000005    2    1    2  501    0 -0.14777071716E+02  0.53344984695E+02 -0.42869011548E+03  0.43226253117E+03  0.34104992378E+01 0.  0.
         13    1    3    3    0    0 -0.11680631503E+02  0.40795574220E+02 -0.31730870255E+03  0.32013361076E+03  0.00000000000E+00 0.  1.
          3    1    3    3  501    0 -0.30964402126E+01  0.12549410475E+02 -0.11138141293E+03  0.11212892041E+03  0.00000000000E+00 0.  1.
         -1    1    1    2    0  502  0.14777071716E+02 -0.53344984695E+02 -0.56817867147E+03  0.57086868188E+03  0.00000000000E+00 0. -1.
<mgrwt>
<rscale>  1 0.30000000E+03</rscale>
<asrwt>0</asrwt>
<pdfrwt beam="1">  1       21 0.11386253E-01 0.30000000E+03</pdfrwt>
<pdfrwt beam="2">0</pdfrwt>
<totfact> 0.68147807E+03</totfact>
</mgrwt>
</event>
<event>
 6    1  0.1270461E-001  0.3000000E+03  0.7818608E-02  0.1093470E+00
         21   -1    0    0  501  502  0.00000000000E+00  0.00000000000E+00  0.23900240575E+01  0.23900240575E+01  0.00000000000E+00 0. -1.
         13   -1    0    0    0    0 -0.00000000000E+00 -0.00000000000E+00 -0.10000000000E+04  0.10000000000E+04  0.00000000000E+00 0.  1.
    9000005    2    1    2  501    0  0.30759318116E+02 -0.25121142070E+00 -0.88816956212E+03  0.88870887815E+03  0.34785428558E+01 0.  0.
         13    1    3    3    0    0  0.23072171493E+02 -0.30947844134E+00 -0.62024149318E+03  0.62067054927E+03  0.00000000000E+00 0.  1.
          1    1    3    3  501    0  0.76871466232E+01  0.58267020638E-01 -0.26792806895E+03  0.26803832888E+03  0.00000000000E+00 0.  1.
         -1    1    1    2    0  502 -0.30759318116E+02  0.25121142070E+00 -0.10944041382E+03  0.11368114591E+03  0.00000000000E+00 0. -1.
<mgrwt>
<rscale>  1 0.30000000E+03</rscale>
<asrwt>0</asrwt>
<pdfrwt beam="1">  1       21 0.86910149E-02 0.30000000E+03</pdfrwt>
<pdfrwt beam="2">0</pdfrwt>
<totfact> 0.11039669E+04</totfact>
</mgrwt>
</event>
<event>
 6    1  0.1270461E-001  0.3000000E+03  0.7818608E-02  0.1093470E+00
         21   -1    0    0  501  502  0.00000000000E+00  0.00000000000E+00  0.25020309800E+01  0.25020309800E+01  0.00000000000E+00 0. -1.
         13   -1    0    0    0    0 -0.00000000000E+00 -0.00000000000E+00 -0.10000000000E+04  0.10000000000E+04  0.00000000000E+00 0.  1.
    9000005    2    1    2  501    0  0.38542547126E+02  0.11022507282E+02 -0.79823938452E+03  0.79925093725E+03  0.29869866789E+01 0.  0.
         13    1    3    3    0    0  0.67796088605E+01  0.13961689952E+01 -0.11895386008E+03  0.11915508052E+03  0.00000000000E+00 0.  1.
          3    1    3    3  501    0  0.31762938265E+02  0.96263382863E+01 -0.67928552444E+03  0.68009585673E+03  0.00000000000E+00 0.  1.
         -1    1    1    2    0  502 -0.38542547126E+02 -0.11022507282E+02 -0.19925858450E+03  0.20325109373E+03  0.00000000000E+00 0. -1.
<mgrwt>
<rscale>  1 0.30000000E+03</rscale>
<asrwt>0</asrwt>
<pdfrwt beam="1">  1       21 0.90983137E-02 0.30000000E+03</pdfrwt>
<pdfrwt beam="2">0</pdfrwt>
<totfact> 0.10180142E+04</totfact>
</mgrwt>
</event>
<event>
 6    1  0.1270461E-001  0.3000000E+03  0.7818608E-02  0.1093470E+00
         21   -1    0    0  501  502  0.00000000000E+00  0.00000000000E+00  0.40997581984E+01  0.40997581984E+01  0.00000000000E+00 0. -1.
         13   -1    0    0    0    0 -0.00000000000E+00 -0.00000000000E+00 -0.10000000000E+04  0.10000000000E+04  0.00000000000E+00 0.  1.
    9000005    2    1    2  501    0 -0.42621093775E+02 -0.66596115031E+01 -0.86884240622E+03  0.86991853133E+03  0.31962874712E+01 0.  0.
         13    1    3    3    0    0 -0.24097124514E+02 -0.38533681851E+01 -0.52300329287E+03  0.52357231039E+03  0.00000000000E+00 0.  1.
          1    1    3    3  501    0 -0.18523969261E+02 -0.28062433180E+01 -0.34583911335E+03  0.34634622094E+03  0.00000000000E+00 0.  1.
         -1    1    1    2    0  502  0.42621093775E+02  0.66596115031E+01 -0.12705783558E+03  0.13418122686E+03  0.00000000000E+00 0. -1.
<mgrwt>
<rscale>  1 0.30000000E+03</rscale>
<asrwt>0</asrwt>
<pdfrwt beam="1">  1       21 0.14908243E-01 0.30000000E+03</pdfrwt>
<pdfrwt beam="2">0</pdfrwt>
<totfact> 0.41650535E+03</totfact>
</mgrwt>
</event>
<event>
 6    1  0.1270461E-001  0.3000000E+03  0.7818608E-02  0.1093470E+00
         21   -1    0    0  501  502  0.00000000000E+00  0.00000000000E+00  0.17375266282E+01  0.17375266282E+01  0.00000000000E+00 0. -1.
         13   -1    0    0    0    0 -0.00000000000E+00 -0.00000000000E+00 -0.10000000000E+04  0.10000000000E+04  0.00000000000E+00 0.  1.
    9000005    2    1    2  501    0  0.32056837450E+02  0.26453851715E+02 -0.51611003662E+03  0.51779701441E+03  0.40903712214E+01 0.  0.
         13    1    3    3    0    0  0.30707053336E+02  0.24644584970E+02 -0.47722180510E+03  0.47884332506E+03  0.00000000000E+00 0.  1.
          3    1    3    3  501    0  0.13497841134E+01  0.18092667459E+01 -0.38888231522E+02  0.38953689353E+02  0.00000000000E+00 0.  1.
         -3    1    1    2    0  502 -0.32056837450E+02 -0.26453851715E+02 -0.48215243675E+03  0.48394051222E+03  0.00000000000E+00 0. -1.
<mgrwt>
<rscale>  1 0.30000000E+03</rscale>
<asrwt>0</asrwt>
<pdfrwt beam="1">  1       21 0.63182920E-02 0.30000000E+03</pdfrwt>
<pdfrwt beam="2">0</pdfrwt>
<totfact> 0.19272583E+04</totfact>
</mgrwt>
</event>
<event>
 6    1  0.1270461E-001  0.3000000E+03  0.7818608E-02  0.1093470E+00
         21   -1    0    0  501  502  0.00000000000E+00  0.00000000000E+00  0.14360756944E+01  0.14360756944E+01  0.00000000000E+00 0. -1.
         13   -1    0    0    0    0 -0.00000000000E+00 -0.00000000000E+00 -0.10000000000E+04  0.10000000000E+04  0.00000000000E+00 0.  1.
    9000005    2    1    2  501    0  0.21158376634E+02  0.24930148026E+02 -0.75130128802E+03  0.75202075843E+03  0.35222931690E+01 0.  0.
         13    1    3    3    0    0  0.19584656344E+02  0.22768689756E+02 -0.66456544593E+03  0.66524371768E+03  0.00000000000E+00 0.  1.
          3    1    3    3  501    0  0.15737202895E+01  0.21614582705E+01 -0.86735842096E+02  0.86777040751E+02  0.00000000000E+00 0.  1.
         -3    1    1    2    0  502 -0.21158376634E+02 -0.24930148026E+02 -0.24726263628E+03  0.24941531726E+03  0.00000000000E+00 0. -1.
<mgrwt>
<rscale>  1 0.30000000E+03</rscale>
<asrwt>0</asrwt>
<pdfrwt beam="1">  1       21 0.52221044E-02 0.30000000E+03</pdfrwt>
<pdfrwt beam="2">0</pdfrwt>
<totfact> 0.26745345E+04</totfact>
</mgrwt>
</event>
<event>
 6    1  0.1270461E-001  0.3000000E+03  0.7818608E-02  0.1093470E+00
         21   -1    0    0  501  502  0.00000000000E+00  0.00000000000E+00  0.22473324414E+01  0.22473324414E+01  0.00000000000E+00 0. -1.
         13   -1    0    0    0    0 -0.00000000000E+00 -0.00000000000E+00 -0.10000000000E+04  0.10000000000E+04  0.00000000000E+00 0.  1.
    9000005    2    1    2  501    0 -0.29483800411E+02 -0.17804951468E+02 -0.84287039463E+03  0.84358155399E+03  0.36090592350E+01 0.  0.
         13    1    3    3    0    0 -0.25127410201E+02 -0.15034654164E+02 -0.68195435862E+03  0.68258272379E+03  0.00000000000E+00 0.  1.
          3    1    3    3  501    0 -0.43563902096E+01 -0.27702973041E+01 -0.16091603601E+03  0.16099883020E+03  0.00000000000E+00 0.  1.
         -1    1    1    2    0  502  0.29483800411E+02  0.17804951468E+02 -0.15488227293E+03  0.15866577845E+03  0.00000000000E+00 0. -1.
<mgrwt>
<rscale>  1 0.30000000E+03</rscale>
<asrwt>0</asrwt>
<pdfrwt beam="1">  1       21 0.81721352E-02 0.30000000E+03</pdfrwt>
<pdfrwt beam="2">0</pdfrwt>
<totfact> 0.12304752E+04</totfact>
</mgrwt>
</event>
<event>
 6    1  0.1270461E-001  0.3000000E+03  0.7818608E-02  0.1093470E+00
         21   -1    0    0  501  502  0.00000000000E+00  0.00000000000E+00  0.11513611296E+01  0.11513611296E+01  0.00000000000E+00 0. -1.
         13   -1    0    0    0    0 -0.00000000000E+00 -0.00000000000E+00 -0.10000000000E+04  0.10000000000E+04  0.00000000000E+00 0.  1.
    9000005    2    1    2  501    0 -0.49381556673E+01  0.33494134678E+02 -0.50744606036E+03  0.50858386666E+03  0.31309447302E+01 0.  0.
         13    1    3    3    0    0  0.34324749885E+00  0.12978192715E+01 -0.24781958663E+02  0.24818292224E+02  0.00000000000E+00 0.  1.
          3    1    3    3  501    0 -0.52814031661E+01  0.32196315406E+02 -0.48266410170E+03  0.48376557444E+03  0.00000000000E+00 0.  1.
         -3    1    1    2    0  502  0.49381556673E+01 -0.33494134678E+02 -0.49140257851E+03  0.49256749447E+03  0.00000000000E+00 0. -1.
<mgrwt>
<rscale>  1 0.30000000E+03</rscale>
<asrwt>0</asrwt>
<pdfrwt beam="1">  1       21 0.41867766E-02 0.30000000E+03</pdfrwt>
<pdfrwt beam="2">0</pdfrwt>
<totfact> 0.38933205E+04</totfact>
</mgrwt>
</event>
<event>
 6    1  0.1270461E-001  0.3000000E+03  0.7818608E-02  0.1093470E+00
         21   -1    0    0  501  502  0.00000000000E+00  0.00000000000E+00  0.60784866371E+01  0.60784866371E+01  0.00000000000E+00 0. -1.
         13   -1    0    0    0    0 -0.00000000000E+00 -0.00000000000E+00 -0.10000000000E+04  0.10000000000E+04  0.00000000000E+00 0.  1.
    9000005    2    1    2  501    0  0.52721226796E+02  0.46009957168E+02 -0.27585864666E+03  0.28461419476E+03  0.32867931646E+01 0.  0.
         13    1    3    3    0    0  0.33048970732E+02  0.30863880201E+02 -0.17650117140E+03  0.18220174827E+03  0.00000000000E+00 0.  1.
          1    1    3    3  501    0  0.19672256064E+02  0.15146076967E+02 -0.99357475258E+02  0.10241244649E+03  0.00000000000E+00 0.  1.
         -3    1    1    2    0  502 -0.52721226796E+02 -0.46009957168E+02 -0.71806286670E+03  0.72146429187E+03  0.00000000000E+00 0. -1.
<mgrwt>
<rscale>  1 0.30000000E+03</rscale>
<asrwt>0</asrwt>
<pdfrwt beam="1">  1       21 0.22103634E-01 0.30000000E+03</pdfrwt>
<pdfrwt beam="2">0</pdfrwt>
<totfact> 0.19805861E+03</totfact>
</mgrwt>
</event>
<event>
 6    1  0.1270461E-001  0.3000000E+03  0.7818608E-02  0.1093470E+00
         21   -1    0    0  501  502  0.00000000000E+00  0.00000000000E+00  0.15357691829E+01  0.15357691829E+01  0.00000000000E+00 0. -1.
         13   -1    0    0    0    0 -0.00000000000E+00 -0.00000000000E+00 -0.10000000000E+04  0.10000000000E+04  0.00000000000E+00 0.  1.
    9000005    2    1    2  501    0  0.19575231280E+02 -0.30602390600E+02 -0.68505486091E+03  0.68602803689E+03  0.38221662395E+01 0.  0.
         13    1    3    3    0    0  0.16546798743E+02 -0.24386986324E+02 -0.52932140989E+03  0.53014118555E+03  0.00000000000E+00 0.  1.
          3    1    3    3  501    0  0.30284325376E+01 -0.62154042760E+01 -0.15573345102E+03  0.15588685134E+03  0.00000000000E+00 0.  1.
         -3    1    1    2    0  502 -0.19575231280E+02  0.30602390600E+02 -0.31340936991E+03  0.31550773229E+03  0.00000000000E+00 0. -1.
<mgrwt>
<rscale>  1 0.30000000E+03</rscale>
<asrwt>0</asrwt>
<pdfrwt beam="1">  1       21 0.55846270E-02 0.30000000E+03</pdfrwt>
<pdfrwt beam="2">0</pdfrwt>
<totfact> 0.23841316E+04</totfact>
</mgrwt>
</event>
<event>
 6    1  0.1270461E-001  0.3000000E+03  0.7818608E-02  0.1093470E+00
         21   -1    0    0  501  502  0.00000000000E+00  0.00000000000E+00  0.19414305468E+01  0.19414305468E+01  0.00000000000E+00 0. -1.
         13   -1    0    0    0    0 -0.00000000000E+00 -0.00000000000E+00 -0.10000000000E+04  0.10000000000E+04  0.00000000000E+00 0.  1.
    9000005    2    1    2  501    0 -0.99434974852E+01  0.29661507106E+02 -0.85170559955E+03  0.85228225125E+03  0.19822608524E+01 0.  0.
         13    1    3    3    0    0 -0.97311652023E+01  0.29488661736E+02 -0.84661015222E+03  0.84717945360E+03  0.00000000000E+00 0.  1.
          1    1    3    3  501    0 -0.21233228292E+00  0.17284536962E+00 -0.50954473239E+01  0.51027976593E+01  0.00000000000E+00 0.  1.
         -3    1    1    2    0  502  0.99434974852E+01 -0.29661507106E+02 -0.14635296991E+03  0.14965917929E+03  0.00000000000E+00 0. -1.
<mgrwt>
<rscale>  1 0.30000000E+03</rscale>
<asrwt>0</asrwt>
<pdfrwt beam="1">  1       21 0.70597623E-02 0.30000000E+03</pdfrwt>
<pdfrwt beam="2">0</pdfrwt>
<totfact> 0.15898241E+04</totfact>
</mgrwt>
</event>
<event>
 6    1  0.1270461E-001  0.3000000E+03  0.7818608E-02  0.1093470E+00
         21   -1    0    0  501  502  0.00000000000E+00  0.00000000000E+00  0.61585491582E+01  0.61585491582E+01  0.00000000000E+00 0. -1.
         13   -1    0    0    0    0 -0.00000000000E+00 -0.00000000000E+00 -0.10000000000E+04  0.10000000000E+04  0.00000000000E+00 0.  1.
    9000005    2    1    2  501    0 -0.42718853932E+02  0.47009855438E+01 -0.91776593998E+03  0.91878301998E+03  0.45735619146E+01 0.  0.
         13    1    3    3    0    0 -0.50644490360E+01 -0.44612793727E+00 -0.87268491959E+02  0.87416459336E+02  0.00000000000E+00 0.  1.
          3    1    3    3  501    0 -0.37654404896E+02  0.51471134810E+01 -0.83049744803E+03  0.83136656065E+03  0.00000000000E+00 0.  1.
         -1    1    1    2    0  502  0.42718853932E+02 -0.47009855438E+01 -0.76075510858E+02  0.87375529175E+02  0.00000000000E+00 0. -1.
<mgrwt>
<rscale>  1 0.30000000E+03</rscale>
<asrwt>0</asrwt>
<pdfrwt beam="1">  1       21 0.22394771E-01 0.30000000E+03</pdfrwt>
<pdfrwt beam="2">0</pdfrwt>
<totfact> 0.19312521E+03</totfact>
</mgrwt>
</event>
<event>
 6    1  0.1270461E-001  0.3000000E+03  0.7818608E-02  0.1093470E+00
         21   -1    0    0  501  502  0.00000000000E+00  0.00000000000E+00  0.30272762363E+01  0.30272762363E+01  0.00000000000E+00 0. -1.
         13   -1    0    0    0    0 -0.00000000000E+00 -0.00000000000E+00 -0.10000000000E+04  0.10000000000E+04  0.00000000000E+00 0.  1.
    9000005    2    1    2  501    0 -0.31062749578E+02 -0.10816553154E+02 -0.90038775340E+03  0.90099517965E+03  0.35092801696E+01 0.  0.
         13    1    3    3    0    0 -0.26353745925E+02 -0.10384189280E+02 -0.75903722137E+03  0.75956556974E+03  0.00000000000E+00 0.  1.
          3    1    3    3  501    0 -0.47090036540E+01 -0.43236387439E+00 -0.14135053203E+03  0.14142960991E+03  0.00000000000E+00 0.  1.
         -3    1    1    2    0  502  0.31062749578E+02  0.10816553154E+02 -0.96584970363E+02  0.10203209658E+03  0.00000000000E+00 0. -1.
<mgrwt>
<rscale>  1 0.30000000E+03</rscale>
<asrwt>0</asrwt>
<pdfrwt beam="1">  1       21 0.11008300E-01 0.30000000E+03</pdfrwt>
<pdfrwt beam="2">0</pdfrwt>
<totfact> 0.72421875E+03</totfact>
</mgrwt>
</event>
<event>
 6    1  0.1270461E-001  0.3000000E+03  0.7818608E-02  0.1093470E+00
         21   -1    0    0  501  502  0.00000000000E+00  0.00000000000E+00  0.34091906364E+01  0.34091906364E+01  0.00000000000E+00 0. -1.
         13   -1    0    0    0    0 -0.00000000000E+00 -0.00000000000E+00 -0.10000000000E+04  0.10000000000E+04  0.00000000000E+00 0.  1.
    9000005    2    1    2  501    0  0.24062414836E+02 -0.41099327613E+02 -0.20955547152E+03  0.21493422112E+03  0.38819102026E+01 0.  0.
         13    1    3    3    0    0  0.15097150128E+02 -0.23558340421E+02 -0.12984690349E+03  0.13282747341E+03  0.00000000000E+00 0.  1.
          3    1    3    3  501    0  0.89652647083E+01 -0.17540987192E+02 -0.79708568026E+02  0.82106747711E+02  0.00000000000E+00 0.  1.
         -1    1    1    2    0  502 -0.24062414836E+02  0.41099327613E+02 -0.78703533784E+03  0.78847496952E+03  0.00000000000E+00 0. -1.
<mgrwt>
<rscale>  1 0.30000000E+03</rscale>
<asrwt>0</asrwt>
<pdfrwt beam="1">  1       21 0.12397083E-01 0.30000000E+03</pdfrwt>
<pdfrwt beam="2">0</pdfrwt>
<totfact> 0.58409674E+03</totfact>
</mgrwt>
</event>
<event>
 6    1  0.1270461E-001  0.3000000E+03  0.7818608E-02  0.1093470E+00
         21   -1    0    0  501  502  0.00000000000E+00  0.00000000000E+00  0.11377612544E+01  0.11377612544E+01  0.00000000000E+00 0. -1.
         13   -1    0    0    0    0 -0.00000000000E+00 -0.00000000000E+00 -0.10000000000E+04  0.10000000000E+04  0.00000000000E+00 0.  1.
    9000005    2    1    2  501    0  0.17040931021E+02 -0.27255686049E+02 -0.64842434998E+03  0.64922871103E+03  0.32428101842E+01 0.  0.
         13    1    3    3    0    0  0.13506659073E+02 -0.20598011212E+02 -0.52049865162E+03  0.52108113979E+03  0.00000000000E+00 0.  1.
          1    1    3    3  501    0  0.35342719482E+01 -0.66576748373E+01 -0.12792569836E+03  0.12814757124E+03  0.00000000000E+00 0.  1.
         -1    1    1    2    0  502 -0.17040931021E+02  0.27255686049E+02 -0.35043788876E+03  0.35190905023E+03  0.00000000000E+00 0. -1.
<mgrwt>
<rscale>  1 0.30000000E+03</rscale>
<asrwt>0</asrwt>
<pdfrwt beam="1">  1       21 0.41373224E-02 0.30000000E+03</pdfrwt>
<pdfrwt beam="2">0</pdfrwt>
<totfact> 0.39721848E+04</totfact>
</mgrwt>
</event>
<event>
 6    1  0.1270461E-001  0.3000000E+03  0.7818608E-02  0.1093470E+00
         21   -1    0    0  501  502  0.00000000000E+00  0.00000000000E+00  0.22868571297E+01  0.22868571297E+01  0.00000000000E+00 0. -1.
         13   -1    0    0    0    0 -0.00000000000E+00 -0.00000000000E+00 -0.10000000000E+04  0.10000000000E+04  0.00000000000E+00 0.  1.
    9000005    2    1    2  501    0  0.48878851281E+01  0.35359442656E+02 -0.83215691394E+03  0.83292615760E+03  0.25832146325E+01 0.  0.
         13    1    3    3    0    0  0.49604097484E+01  0.29307393001E+02 -0.68298960190E+03  0.68363610587E+03  0.00000000000E+00 0.  1.
          1    1    3    3  501    0 -0.72524620305E-01  0.60520496556E+01 -0.14916731204E+03  0.14929005173E+03  0.00000000000E+00 0.  1.
         -1    1    1    2    0  502 -0.48878851281E+01 -0.35359442656E+02 -0.16555622893E+03  0.16936069953E+03  0.00000000000E+00 0. -1.
<mgrwt>
<rscale>  1 0.30000000E+03</rscale>
<asrwt>0</asrwt>
<pdfrwt beam="1">  1       21 0.83158616E-02 0.30000000E+03</pdfrwt>
<pdfrwt beam="2">0</pdfrwt>
<totfact> 0.11932987E+04</totfact>
</mgrwt>
</event>
<event>
 6    1  0.1270461E-001  0.3000000E+03  0.7818608E-02  0.1093470E+00
         21   -1    0    0  501  502  0.00000000000E+00  0.00000000000E+00  0.13507718182E+01  0.13507718182E+01  0.00000000000E+00 0. -1.
         13   -1    0    0    0    0 -0.00000000000E+00 -0.00000000000E+00 -0.10000000000E+04  0.10000000000E+04  0.00000000000E+00 0.  1.
    9000005    2    1    2  501    0  0.22629911342E+02  0.26419691395E+02 -0.34383714934E+03  0.34561532854E+03  0.39820938350E+01 0.  0.
         13    1    3    3    0    0  0.36300886234E+01  0.33077315945E+01 -0.37401721056E+02  0.37722769910E+02  0.00000000000E+00 0.  1.
          1    1    3    3  501    0  0.18999822719E+02  0.23111959801E+02 -0.30643542829E+03  0.30789255863E+03  0.00000000000E+00 0.  1.
         -3    1    1    2    0  502 -0.22629911342E+02 -0.26419691395E+02 -0.65481207884E+03  0.65573544328E+03  0.00000000000E+00 0. -1.
<mgrwt>
<rscale>  1 0.30000000E+03</rscale>
<asrwt>0</asrwt>
<pdfrwt beam="1">  1       21 0.49119079E-02 0.30000000E+03</pdfrwt>
<pdfrwt beam="2">0</pdfrwt>
<totfact> 0.29690478E+04</totfact>
</mgrwt>
</event>
<event>
 6    1  0.1270461E-001  0.3000000E+03  0.7818608E-02  0.1093470E+00
         21   -1    0    0  501  502  0.00000000000E+00  0.00000000000E+00  0.37462394350E+01  0.37462394350E+01  0.00000000000E+00 0. -1.
         13   -1    0    0    0    0 -0.00000000000E+00 -0.00000000000E+00 -0.10000000000E+04  0.10000000000E+04  0.00000000000E+00 0.  1.
    9000005    2    1    2  501    0  0.32977906783E+02  0.17270230336E+02 -0.89643505157E+03  0.89721184190E+03  0.27357594312E+01 0.  0.
         13    1    3    3    0    0  0.84857127753E+01  0.57600976092E+01 -0.25513937166E+03  0.25534542294E+03  0.00000000000E+00 0.  1.
          3    1    3    3  501    0  0.24492194007E+02  0.11510132727E+02 -0.64129567990E+03  0.64186641896E+03  0.00000000000E+00 0.  1.
         -1    1    1    2    0  502 -0.32977906783E+02 -0.17270230336E+02 -0.99818708996E+02  0.10653439753E+03  0.00000000000E+00 0. -1.
<mgrwt>
<rscale>  1 0.30000000E+03</rscale>
<asrwt>0</asrwt>
<pdfrwt beam="1">  1       21 0.13622718E-01 0.30000000E+03</pdfrwt>
<pdfrwt beam="2">0</pdfrwt>
<totfact> 0.49170995E+03</totfact>
</mgrwt>
</event>
<event>
 6    1  0.1270461E-001  0.3000000E+03  0.7818608E-02  0.1093470E+00
         21   -1    0    0  501  502  0.00000000000E+00  0.00000000000E+00  0.24139820207E+01  0.24139820207E+01  0.00000000000E+00 0. -1.
         13   -1    0    0    0    0 -0.00000000000E+00 -0.00000000000E+00 -0.10000000000E+04  0.10000000000E+04  0.00000000000E+00 0.  1.
    9000005    2    1    2  501    0  0.44244007274E+02  0.19946246082E+02 -0.42503804353E+03  0.42781275686E+03  0.33213807657E+01 0.  0.
         13    1    3    3    0    0  0.83363888119E+01  0.38699336095E+01 -0.69676535309E+02  0.70280092041E+02  0.00000000000E+00 0.  1.
          1    1    3    3  501    0  0.35907618463E+02  0.16076312472E+02 -0.35536150822E+03  0.35753266482E+03  0.00000000000E+00 0.  1.
         -3    1    1    2    0  502 -0.44244007274E+02 -0.19946246082E+02 -0.57254797445E+03  0.57460122516E+03  0.00000000000E+00 0. -1.
<mgrwt>
<rscale>  1 0.30000000E+03</rscale>
<asrwt>0</asrwt>
<pdfrwt beam="1">  1       21 0.87781349E-02 0.30000000E+03</pdfrwt>
<pdfrwt beam="2">0</pdfrwt>
<totfact> 0.10846795E+04</totfact>
</mgrwt>
</event>
<event>
 6    1  0.1270461E-001  0.3000000E+03  0.7818608E-02  0.1093470E+00
         21   -1    0    0  501  502  0.00000000000E+00  0.00000000000E+00  0.16754389328E+01  0.16754389328E+01  0.00000000000E+00 0. -1.
         13   -1    0    0    0    0 -0.00000000000E+00 -0.00000000000E+00 -0.10000000000E+04  0.10000000000E+04  0.00000000000E+00 0.  1.
    9000005    2    1    2  501    0  0.23545394163E+02 -0.32719574499E+02 -0.45139115591E+03  0.45325853017E+03  0.80226800406E+01 0.  0.
         13    1    3    3    0    0  0.53605376599E+01 -0.12637753870E+02 -0.12775844719E+03  0.12849384816E+03  0.00000000000E+00 0.  1.
          3    1    3    3  501    0  0.18184856503E+02 -0.20081820629E+02 -0.32363270872E+03  0.32476468201E+03  0.00000000000E+00 0.  1.
         -1    1    1    2    0  502 -0.23545394163E+02  0.32719574499E+02 -0.54693340516E+03  0.54841690876E+03  0.00000000000E+00 0. -1.
<mgrwt>
<rscale>  1 0.30000000E+03</rscale>
<asrwt>0</asrwt>
<pdfrwt beam="1">  1       21 0.60925181E-02 0.30000000E+03</pdfrwt>
<pdfrwt beam="2">0</pdfrwt>
<totfact> 0.20522679E+04</totfact>
</mgrwt>
</event>
<event>
 6    1  0.1270461E-001  0.3000000E+03  0.7818608E-02  0.1093470E+00
         21   -1    0    0  501  502  0.00000000000E+00  0.00000000000E+00  0.27159686472E+01  0.27159686472E+01  0.00000000000E+00 0. -1.
         13   -1    0    0    0    0 -0.00000000000E+00 -0.00000000000E+00 -0.10000000000E+04  0.10000000000E+04  0.00000000000E+00 0.  1.
    9000005    2    1    2  501    0 -0.27043632274E+02  0.40773215127E+02 -0.67000565286E+03  0.67180064693E+03  0.38368258609E+01 0.  0.
         13    1    3    3    0    0 -0.21957884621E+02  0.34395316269E+02 -0.57434931854E+03  0.57579712242E+03  0.00000000000E+00 0.  1.
          3    1    3    3  501    0 -0.50857476532E+01  0.63778988575E+01 -0.95656334323E+02  0.96003524514E+02  0.00000000000E+00 0.  1.
         -1    1    1    2    0  502  0.27043632274E+02 -0.40773215127E+02 -0.32727837849E+03  0.33091532171E+03  0.00000000000E+00 0. -1.
<mgrwt>
<rscale>  1 0.30000000E+03</rscale>
<asrwt>0</asrwt>
<pdfrwt beam="1">  1       21 0.98762705E-02 0.30000000E+03</pdfrwt>
<pdfrwt beam="2">0</pdfrwt>
<totfact> 0.87966609E+03</totfact>
</mgrwt>
</event>
<event>
 6    1  0.1270461E-001  0.3000000E+03  0.7818608E-02  0.1093470E+00
         21   -1    0    0  501  502  0.00000000000E+00  0.00000000000E+00  0.91458291865E+00  0.91458291865E+00  0.00000000000E+00 0. -1.
         13   -1    0    0    0    0 -0.00000000000E+00 -0.00000000000E+00 -0.10000000000E+04  0.10000000000E+04  0.00000000000E+00 0.  1.
    9000005    2    1    2  501    0 -0.29760560099E+02  0.42709391723E+01 -0.53937464574E+03  0.54022170784E+03  0.32485840221E+01 0.  0.
         13    1    3    3    0    0 -0.13674823603E+02  0.11419386133E+01 -0.27102267449E+03  0.27136984894E+03  0.00000000000E+00 0.  1.
          3    1    3    3  501    0 -0.16085736496E+02  0.31290005590E+01 -0.26835197125E+03  0.26885185891E+03  0.00000000000E+00 0.  1.
         -1    1    1    2    0  502  0.29760560099E+02 -0.42709391723E+01 -0.45971077134E+03  0.46069287508E+03  0.00000000000E+00 0. -1.
<mgrwt>
<rscale>  1 0.30000000E+03</rscale>
<asrwt>0</asrwt>
<pdfrwt beam="1">  1       21 0.33257631E-02 0.30000000E+03</pdfrwt>
<pdfrwt beam="2">0</pdfrwt>
<totfact> 0.57305160E+04</totfact>
</mgrwt>
</event>
<event>
 6    1  0.1270461E-001  0.3000000E+03  0.7818608E-02  0.1093470E+00
         21   -1    0    0  501  502  0.00000000000E+00  0.00000000000E+00  0.18644306375E+01  0.18644306375E+01  0.00000000000E+00 0. -1.
         13   -1    0    0    0    0 -0.00000000000E+00 -0.00000000000E+00 -0.10000000000E+04  0.10000000000E+04  0.00000000000E+00 0.  1.
    9000005    2    1    2  501    0 -0.11806916154E+02  0.31918011738E+02 -0.80686116111E+03  0.80758611997E+03  0.34993031798E+01 0.  0.
         13    1    3    3    0    0 -0.33016519213E+01  0.64247236989E+01 -0.14560443245E+03  0.14578349951E+03  0.00000000000E+00 0.  1.
          3    1    3    3  501    0 -0.85052642330E+01  0.25493288039E+02 -0.66125672866E+03  0.66180262046E+03  0.00000000000E+00 0.  1.
         -1    1    1    2    0  502  0.11806916154E+02 -0.31918011738E+02 -0.19127440825E+03  0.19427831067E+03  0.00000000000E+00 0. -1.
<mgrwt>
<rscale>  1 0.30000000E+03</rscale>
<asrwt>0</asrwt>
<pdfrwt beam="1">  1       21 0.67797621E-02 0.30000000E+03</pdfrwt>
<pdfrwt beam="2">0</pdfrwt>
<totfact> 0.17057243E+04</totfact>
</mgrwt>
</event>
<event>
 6    1  0.1270461E-001  0.3000000E+03  0.7818608E-02  0.1093470E+00
         21   -1    0    0  501  502  0.00000000000E+00  0.00000000000E+00  0.20540945098E+01  0.20540945098E+01  0.00000000000E+00 0. -1.
         13   -1    0    0    0    0 -0.00000000000E+00 -0.00000000000E+00 -0.10000000000E+04  0.10000000000E+04  0.00000000000E+00 0.  1.
    9000005    2    1    2  501    0  0.23062042469E+02 -0.38348248169E+02 -0.56434671396E+03  0.56615192104E+03  0.61917847871E+01 0.  0.
         13    1    3    3    0    0  0.99485002790E+01 -0.14562433690E+02 -0.18747266058E+03  0.18830038661E+03  0.00000000000E+00 0.  1.
          3    1    3    3  501    0  0.13113542190E+02 -0.23785814479E+02 -0.37687405338E+03  0.37785153443E+03  0.00000000000E+00 0.  1.
         -3    1    1    2    0  502 -0.23062042469E+02  0.38348248169E+02 -0.43359919153E+03  0.43590217347E+03  0.00000000000E+00 0. -1.
<mgrwt>
<rscale>  1 0.30000000E+03</rscale>
<asrwt>0</asrwt>
<pdfrwt beam="1">  1       21 0.74694503E-02 0.30000000E+03</pdfrwt>
<pdfrwt beam="2">0</pdfrwt>
<totfact> 0.14407045E+04</totfact>
</mgrwt>
</event>
<event>
 6    1  0.1270461E-001  0.3000000E+03  0.7818608E-02  0.1093470E+00
         21   -1    0    0  501  502  0.00000000000E+00  0.00000000000E+00  0.11125991770E+01  0.11125991770E+01  0.00000000000E+00 0. -1.
         13   -1    0    0    0    0 -0.00000000000E+00 -0.00000000000E+00 -0.10000000000E+04  0.10000000000E+04  0.00000000000E+00 0.  1.
    9000005    2    1    2  501    0 -0.27261410107E+02 -0.17010856145E+02 -0.63047973025E+03  0.63130621004E+03  0.32073157323E+01 0.  0.
         13    1    3    3    0    0 -0.25189832678E+02 -0.16542239029E+02 -0.58128686874E+03  0.58206751937E+03  0.00000000000E+00 0.  1.
          3    1    3    3  501    0 -0.20715774284E+01 -0.46861711543E+00 -0.49192861517E+02  0.49238690673E+02  0.00000000000E+00 0.  1.
         -3    1    1    2    0  502  0.27261410107E+02  0.17010856145E+02 -0.36840767057E+03  0.36980638913E+03  0.00000000000E+00 0. -1.
<mgrwt>
<rscale>  1 0.30000000E+03</rscale>
<asrwt>0</asrwt>
<pdfrwt beam="1">  1       21 0.40458237E-02 0.30000000E+03</pdfrwt>
<pdfrwt beam="2">0</pdfrwt>
<totfact> 0.41248207E+04</totfact>
</mgrwt>
</event>
<event>
 6    1  0.1270461E-001  0.3000000E+03  0.7818608E-02  0.1093470E+00
         21   -1    0    0  501  502  0.00000000000E+00  0.00000000000E+00  0.41128090487E+01  0.41128090487E+01  0.00000000000E+00 0. -1.
         13   -1    0    0    0    0 -0.00000000000E+00 -0.00000000000E+00 -0.10000000000E+04  0.10000000000E+04  0.00000000000E+00 0.  1.
    9000005    2    1    2  501    0 -0.62824033491E+02  0.59323501025E+01 -0.40988467925E+03  0.41472244971E+03  0.26847807020E+01 0.  0.
         13    1    3    3    0    0 -0.49699710742E+02  0.46429902086E+01 -0.31684784818E+03  0.32075563518E+03  0.00000000000E+00 0.  1.
          3    1    3    3  501    0 -0.13124322748E+02  0.12893598939E+01 -0.93036831073E+02  0.93966814529E+02  0.00000000000E+00 0.  1.
         -1    1    1    2    0  502  0.62824033491E+02 -0.59323501025E+01 -0.58600251170E+03  0.58939035934E+03  0.00000000000E+00 0. -1.
<mgrwt>
<rscale>  1 0.30000000E+03</rscale>
<asrwt>0</asrwt>
<pdfrwt beam="1">  1       21 0.14955701E-01 0.30000000E+03</pdfrwt>
<pdfrwt beam="2">0</pdfrwt>
<totfact> 0.41406371E+03</totfact>
</mgrwt>
</event>
<event>
 6    1  0.1270461E-001  0.3000000E+03  0.7818608E-02  0.1093470E+00
         21   -1    0    0  501  502  0.00000000000E+00  0.00000000000E+00  0.14324248417E+01  0.14324248417E+01  0.00000000000E+00 0. -1.
         13   -1    0    0    0    0 -0.00000000000E+00 -0.00000000000E+00 -0.10000000000E+04  0.10000000000E+04  0.00000000000E+00 0.  1.
    9000005    2    1    2  501    0  0.75996023259E+01 -0.36333998554E+02 -0.40648418169E+03  0.40818655825E+03  0.29938212738E+01 0.  0.
         13    1    3    3    0    0  0.19174813332E+01 -0.97073405991E+01 -0.94488889032E+02  0.95005575345E+02  0.00000000000E+00 0.  1.
          1    1    3    3  501    0  0.56821209927E+01 -0.26626657955E+02 -0.31199529265E+03  0.31318098290E+03  0.00000000000E+00 0.  1.
         -3    1    1    2    0  502 -0.75996023259E+01  0.36333998554E+02 -0.59208339347E+03  0.59324586659E+03  0.00000000000E+00 0. -1.
<mgrwt>
<rscale>  1 0.30000000E+03</rscale>
<asrwt>0</asrwt>
<pdfrwt beam="1">  1       21 0.52088286E-02 0.30000000E+03</pdfrwt>
<pdfrwt beam="2">0</pdfrwt>
<totfact> 0.26861922E+04</totfact>
</mgrwt>
</event>
<event>
 6    1  0.1270461E-001  0.3000000E+03  0.7818608E-02  0.1093470E+00
         21   -1    0    0  501  502  0.00000000000E+00  0.00000000000E+00  0.10251177237E+01  0.10251177237E+01  0.00000000000E+00 0. -1.
         13   -1    0    0    0    0 -0.00000000000E+00 -0.00000000000E+00 -0.10000000000E+04  0.10000000000E+04  0.00000000000E+00 0.  1.
    9000005    2    1    2  501    0 -0.10346543349E+02  0.29984577629E+02 -0.56111984837E+03  0.56202266149E+03  0.28039165291E+01 0.  0.
         13    1    3    3    0    0 -0.46937423158E+01  0.17201574117E+02 -0.30128376304E+03  0.30181091969E+03  0.00000000000E+00 0.  1.
          1    1    3    3  501    0 -0.56528010332E+01  0.12783003512E+02 -0.25983608532E+03  0.26021174181E+03  0.00000000000E+00 0.  1.
         -3    1    1    2    0  502  0.10346543349E+02 -0.29984577629E+02 -0.43785503391E+03  0.43900245623E+03  0.00000000000E+00 0. -1.
<mgrwt>
<rscale>  1 0.30000000E+03</rscale>
<asrwt>0</asrwt>
<pdfrwt beam="1">  1       21 0.37277087E-02 0.30000000E+03</pdfrwt>
<pdfrwt beam="2">0</pdfrwt>
<totfact> 0.47338814E+04</totfact>
</mgrwt>
</event>
<event>
 6    1  0.1270461E-001  0.3000000E+03  0.7818608E-02  0.1093470E+00
         21   -1    0    0  501  502  0.00000000000E+00  0.00000000000E+00  0.12519729130E+01  0.12519729130E+01  0.00000000000E+00 0. -1.
         13   -1    0    0    0    0 -0.00000000000E+00 -0.00000000000E+00 -0.10000000000E+04  0.10000000000E+04  0.00000000000E+00 0.  1.
    9000005    2    1    2  501    0  0.29476648963E+02 -0.17604783531E+02 -0.61529358336E+03  0.61626351640E+03  0.39656877817E+01 0.  0.
         13    1    3    3    0    0  0.72178957613E+01 -0.63783521898E+01 -0.17108645083E+03  0.17135738984E+03  0.00000000000E+00 0.  1.
          1    1    3    3  501    0  0.22258753202E+02 -0.11226431341E+02 -0.44420713253E+03  0.44490612656E+03  0.00000000000E+00 0.  1.
         -1    1    1    2    0  502 -0.29476648963E+02  0.17604783531E+02 -0.38345444372E+03  0.38498845651E+03  0.00000000000E+00 0. -1.
<mgrwt>
<rscale>  1 0.30000000E+03</rscale>
<asrwt>0</asrwt>
<pdfrwt beam="1">  1       21 0.45526384E-02 0.30000000E+03</pdfrwt>
<pdfrwt beam="2">0</pdfrwt>
<totfact> 0.33784537E+04</totfact>
</mgrwt>
</event>
<event>
 6    1  0.1270461E-001  0.3000000E+03  0.7818608E-02  0.1093470E+00
         21   -1    0    0  501  502  0.00000000000E+00  0.00000000000E+00  0.13424516184E+01  0.13424516184E+01  0.00000000000E+00 0. -1.
         13   -1    0    0    0    0 -0.00000000000E+00 -0.00000000000E+00 -0.10000000000E+04  0.10000000000E+04  0.00000000000E+00 0.  1.
    9000005    2    1    2  501    0  0.29569372363E+01  0.36317002178E+02 -0.46046441412E+03  0.46191727804E+03  0.35251886463E+01 0.  0.
         13    1    3    3    0    0  0.92374230586E+00  0.15163251115E+02 -0.17070911177E+03  0.17138371663E+03  0.00000000000E+00 0.  1.
          3    1    3    3  501    0  0.20331949304E+01  0.21153751062E+02 -0.28975530235E+03  0.29053356141E+03  0.00000000000E+00 0.  1.
         -3    1    1    2    0  502 -0.29569372363E+01 -0.36317002178E+02 -0.53819313426E+03  0.53942517358E+03  0.00000000000E+00 0. -1.
<mgrwt>
<rscale>  1 0.30000000E+03</rscale>
<asrwt>0</asrwt>
<pdfrwt beam="1">  1       21 0.48816525E-02 0.30000000E+03</pdfrwt>
<pdfrwt beam="2">0</pdfrwt>
<totfact> 0.30004547E+04</totfact>
</mgrwt>
</event>
<event>
 6    1  0.1270461E-001  0.3000000E+03  0.7818608E-02  0.1093470E+00
         21   -1    0    0  501  502  0.00000000000E+00  0.00000000000E+00  0.13394903507E+02  0.13394903507E+02  0.00000000000E+00 0. -1.
         13   -1    0    0    0    0 -0.00000000000E+00 -0.00000000000E+00 -0.10000000000E+04  0.10000000000E+04  0.00000000000E+00 0.  1.
    9000005    2    1    2  501    0  0.24167483379E+02 -0.37614411010E+02 -0.96065539164E+03  0.96170062577E+03  0.32250510860E+01 0.  0.
         13    1    3    3    0    0  0.10993127480E+02 -0.20023624177E+02 -0.48221985287E+03  0.48276058340E+03  0.00000000000E+00 0.  1.
          3    1    3    3  501    0  0.13174355899E+02 -0.17590786833E+02 -0.47843553877E+03  0.47894004237E+03  0.00000000000E+00 0.  1.
         -1    1    1    2    0  502 -0.24167483379E+02  0.37614411010E+02 -0.25949704853E+02  0.51694277734E+02  0.00000000000E+00 0. -1.
<mgrwt>
<rscale>  1 0.30000000E+03</rscale>
<asrwt>0</asrwt>
<pdfrwt beam="1">  1       21 0.48708843E-01 0.30000000E+03</pdfrwt>
<pdfrwt beam="2">0</pdfrwt>
<totfact> 0.39759177E+02</totfact>
</mgrwt>
</event>
<event>
 6    1  0.1270461E-001  0.3000000E+03  0.7818608E-02  0.1093470E+00
         21   -1    0    0  501  502  0.00000000000E+00  0.00000000000E+00  0.11189285728E+01  0.11189285728E+01  0.00000000000E+00 0. -1.
         13   -1    0    0    0    0 -0.00000000000E+00 -0.00000000000E+00 -0.10000000000E+04  0.10000000000E+04  0.00000000000E+00 0.  1.
    9000005    2    1    2  501    0 -0.21767208185E+01 -0.33320309249E+02 -0.51772723982E+03  0.51880783520E+03  0.22569646086E+01 0.  0.
         13    1    3    3    0    0 -0.25915141101E+01 -0.24730980551E+02 -0.38702571534E+03  0.38782372501E+03  0.00000000000E+00 0.  1.
          1    1    3    3  501    0  0.41479329153E+00 -0.85893286980E+01 -0.13070152447E+03  0.13098411018E+03  0.00000000000E+00 0.  1.
         -3    1    1    2    0  502  0.21767208185E+01  0.33320309249E+02 -0.48115383161E+03  0.48231109338E+03  0.00000000000E+00 0. -1.
<mgrwt>
<rscale>  1 0.30000000E+03</rscale>
<asrwt>0</asrwt>
<pdfrwt beam="1">  1       21 0.40688398E-02 0.30000000E+03</pdfrwt>
<pdfrwt beam="2">0</pdfrwt>
<totfact> 0.40855749E+04</totfact>
</mgrwt>
</event>
<event>
 6    1  0.1270461E-001  0.3000000E+03  0.7818608E-02  0.1093470E+00
         21   -1    0    0  501  502  0.00000000000E+00  0.00000000000E+00  0.16361484661E+01  0.16361484661E+01  0.00000000000E+00 0. -1.
         13   -1    0    0    0    0 -0.00000000000E+00 -0.00000000000E+00 -0.10000000000E+04  0.10000000000E+04  0.00000000000E+00 0.  1.
    9000005    2    1    2  501    0  0.25675329923E+02  0.16257492198E+02 -0.82925412822E+03  0.82981756059E+03  0.33535175941E+01 0.  0.
         13    1    3    3    0    0  0.79292893780E+01  0.61801741747E+01 -0.30827648103E+03  0.30844036204E+03  0.00000000000E+00 0.  1.
          1    1    3    3  501    0  0.17746040545E+02  0.10077318024E+02 -0.52097764719E+03  0.52137719855E+03  0.00000000000E+00 0.  1.
         -1    1    1    2    0  502 -0.25675329923E+02 -0.16257492198E+02 -0.16910972332E+03  0.17181858788E+03  0.00000000000E+00 0. -1.
<mgrwt>
<rscale>  1 0.30000000E+03</rscale>
<asrwt>0</asrwt>
<pdfrwt beam="1">  1       21 0.59496433E-02 0.30000000E+03</pdfrwt>
<pdfrwt beam="2">0</pdfrwt>
<totfact> 0.21380141E+04</totfact>
</mgrwt>
</event>
<event>
 6    1  0.1270461E-001  0.3000000E+03  0.7818608E-02  0.1093470E+00
         21   -1    0    0  501  502  0.00000000000E+00  0.00000000000E+00  0.36662687108E+01  0.36662687108E+01  0.00000000000E+00 0. -1.
         13   -1    0    0    0    0 -0.00000000000E+00 -0.00000000000E+00 -0.10000000000E+04  0.10000000000E+04  0.00000000000E+00 0.  1.
    9000005    2    1    2  501    0 -0.39168383580E+02  0.43109853753E+02 -0.63457033785E+03  0.63724386956E+03  0.27593217949E+01 0.  0.
         13    1    3    3    0    0 -0.30403738191E+02  0.31707379720E+02 -0.47652851039E+03  0.47854902198E+03  0.00000000000E+00 0.  1.
          1    1    3    3  501    0 -0.87646453892E+01  0.11402474032E+02 -0.15804182745E+03  0.15869484758E+03  0.00000000000E+00 0.  1.
         -1    1    1    2    0  502  0.39168383580E+02 -0.43109853753E+02 -0.36176339344E+03  0.36642239915E+03  0.00000000000E+00 0. -1.
<mgrwt>
<rscale>  1 0.30000000E+03</rscale>
<asrwt>0</asrwt>
<pdfrwt beam="1">  1       21 0.13331914E-01 0.30000000E+03</pdfrwt>
<pdfrwt beam="2">0</pdfrwt>
<totfact> 0.51152830E+03</totfact>
</mgrwt>
</event>
<event>
 6    1  0.1270461E-001  0.3000000E+03  0.7818608E-02  0.1093470E+00
         21   -1    0    0  501  502  0.00000000000E+00  0.00000000000E+00  0.10441853430E+01  0.10441853430E+01  0.00000000000E+00 0. -1.
         13   -1    0    0    0    0 -0.00000000000E+00 -0.00000000000E+00 -0.10000000000E+04  0.10000000000E+04  0.00000000000E+00 0.  1.
    9000005    2    1    2  501    0 -0.14879125128E+01  0.31213123116E+02 -0.62208994269E+03  0.62288501464E+03  0.36567363066E+01 0.  0.
         13    1    3    3    0    0 -0.16496939449E+01  0.25418586833E+02 -0.47749704492E+03  0.47817596547E+03  0.00000000000E+00 0.  1.
          3    1    3    3  501    0  0.16178143201E+00  0.57945362830E+01 -0.14459289778E+03  0.14470904917E+03  0.00000000000E+00 0.  1.
         -1    1    1    2    0  502  0.14879125128E+01 -0.31213123116E+02 -0.37686587196E+03  0.37815917071E+03  0.00000000000E+00 0. -1.
<mgrwt>
<rscale>  1 0.30000000E+03</rscale>
<asrwt>0</asrwt>
<pdfrwt beam="1">  1       21 0.37970456E-02 0.30000000E+03</pdfrwt>
<pdfrwt beam="2">0</pdfrwt>
<totfact> 0.45896016E+04</totfact>
</mgrwt>
</event>
<event>
 6    1  0.1270461E-001  0.3000000E+03  0.7818608E-02  0.1093470E+00
         21   -1    0    0  501  502  0.00000000000E+00  0.00000000000E+00  0.28403526114E+01  0.28403526114E+01  0.00000000000E+00 0. -1.
         13   -1    0    0    0    0 -0.00000000000E+00 -0.00000000000E+00 -0.10000000000E+04  0.10000000000E+04  0.00000000000E+00 0.  1.
    9000005    2    1    2  501    0 -0.46445264718E+02  0.40896967583E+01 -0.74096942458E+03  0.74244196841E+03  0.32403785297E+01 0.  0.
         13    1    3    3    0    0 -0.33158505478E+01 -0.37213894735E+00 -0.61550648444E+02  0.61641022673E+02  0.00000000000E+00 0.  1.
          1    1    3    3  501    0 -0.43129414171E+02  0.44618357057E+01 -0.67941877614E+03  0.68080094574E+03  0.00000000000E+00 0.  1.
         -1    1    1    2    0  502  0.46445264718E+02 -0.40896967583E+01 -0.25619022281E+03  0.26039838420E+03  0.00000000000E+00 0. -1.
<mgrwt>
<rscale>  1 0.30000000E+03</rscale>
<asrwt>0</asrwt>
<pdfrwt beam="1">  1       21 0.10328577E-01 0.30000000E+03</pdfrwt>
<pdfrwt beam="2">0</pdfrwt>
<totfact> 0.81198248E+03</totfact>
</mgrwt>
</event>
<event>
 6    1  0.1270461E-001  0.3000000E+03  0.7818608E-02  0.1093470E+00
         21   -1    0    0  501  502  0.00000000000E+00  0.00000000000E+00  0.14376135752E+01  0.14376135752E+01  0.00000000000E+00 0. -1.
         13   -1    0    0    0    0 -0.00000000000E+00 -0.00000000000E+00 -0.10000000000E+04  0.10000000000E+04  0.00000000000E+00 0.  1.
    9000005    2    1    2  501    0 -0.91690993873E+01  0.31111885342E+02 -0.75797439016E+03  0.75867310682E+03  0.27721978832E+01 0.  0.
         13    1    3    3    0    0 -0.79189397626E+01  0.22547914632E+02 -0.55794664818E+03  0.55845821713E+03  0.00000000000E+00 0.  1.
          3    1    3    3  501    0 -0.12501596246E+01  0.85639707104E+01 -0.20002774198E+03  0.20021488969E+03  0.00000000000E+00 0.  1.
         -1    1    1    2    0  502  0.91690993873E+01 -0.31111885342E+02 -0.24058799626E+03  0.24276450675E+03  0.00000000000E+00 0. -1.
<mgrwt>
<rscale>  1 0.30000000E+03</rscale>
<asrwt>0</asrwt>
<pdfrwt beam="1">  1       21 0.52276968E-02 0.30000000E+03</pdfrwt>
<pdfrwt beam="2">0</pdfrwt>
<totfact> 0.26696473E+04</totfact>
</mgrwt>
</event>
<event>
 6    1  0.1270461E-001  0.3000000E+03  0.7818608E-02  0.1093470E+00
         21   -1    0    0  501  502  0.00000000000E+00  0.00000000000E+00  0.16371467683E+01  0.16371467683E+01  0.00000000000E+00 0. -1.
         13   -1    0    0    0    0 -0.00000000000E+00 -0.00000000000E+00 -0.10000000000E+04  0.10000000000E+04  0.00000000000E+00 0.  1.
    9000005    2    1    2  501    0  0.40312028386E+02 -0.19596834871E+01 -0.51569665630E+03  0.51728649109E+03  0.36568506925E+01 0.  0.
         13    1    3    3    0    0  0.28034820035E+02 -0.29393895146E+01 -0.35126923039E+03  0.35239844404E+03  0.00000000000E+00 0.  1.
          3    1    3    3  501    0  0.12277208351E+02  0.97970602750E+00 -0.16442742591E+03  0.16488804705E+03  0.00000000000E+00 0.  1.
         -1    1    1    2    0  502 -0.40312028386E+02  0.19596834871E+01 -0.48266619693E+03  0.48435065568E+03  0.00000000000E+00 0. -1.
<mgrwt>
<rscale>  1 0.30000000E+03</rscale>
<asrwt>0</asrwt>
<pdfrwt beam="1">  1       21 0.59532735E-02 0.30000000E+03</pdfrwt>
<pdfrwt beam="2">0</pdfrwt>
<totfact> 0.21357668E+04</totfact>
</mgrwt>
</event>
<event>
 6    1  0.1270461E-001  0.3000000E+03  0.7818608E-02  0.1093470E+00
         21   -1    0    0  501  502  0.00000000000E+00  0.00000000000E+00  0.15088112306E+01  0.15088112306E+01  0.00000000000E+00 0. -1.
         13   -1    0    0    0    0 -0.00000000000E+00 -0.00000000000E+00 -0.10000000000E+04  0.10000000000E+04  0.00000000000E+00 0.  1.
    9000005    2    1    2  501    0  0.31187601645E+02  0.17541409771E+02 -0.69098523726E+03  0.69192800148E+03  0.48366895229E+01 0.  0.
         13    1    3    3    0    0  0.17420640342E+02  0.11861620023E+02 -0.43436213339E+03  0.43487313054E+03  0.00000000000E+00 0.  1.
          3    1    3    3  501    0  0.13766961303E+02  0.56797897476E+01 -0.25662310387E+03  0.25705487095E+03  0.00000000000E+00 0.  1.
         -3    1    1    2    0  502 -0.31187601645E+02 -0.17541409771E+02 -0.30750595151E+03  0.30958080975E+03  0.00000000000E+00 0. -1.
<mgrwt>
<rscale>  1 0.30000000E+03</rscale>
<asrwt>0</asrwt>
<pdfrwt beam="1">  1       21 0.54865979E-02 0.30000000E+03</pdfrwt>
<pdfrwt beam="2">0</pdfrwt>
<totfact> 0.24576738E+04</totfact>
</mgrwt>
</event>
<event>
 6    1  0.1270461E-001  0.3000000E+03  0.7818608E-02  0.1093470E+00
         21   -1    0    0  501  502  0.00000000000E+00  0.00000000000E+00  0.11820560000E+01  0.11820560000E+01  0.00000000000E+00 0. -1.
         13   -1    0    0    0    0 -0.00000000000E+00 -0.00000000000E+00 -0.10000000000E+04  0.10000000000E+04  0.00000000000E+00 0.  1.
    9000005    2    1    2  501    0 -0.11310998947E+02 -0.32187738275E+02 -0.55258083090E+03  0.55364261606E+03  0.32530676434E+01 0.  0.
         13    1    3    3    0    0 -0.78886878735E+01 -0.18005264208E+02 -0.32754963472E+03  0.32813897077E+03  0.00000000000E+00 0.  1.
          3    1    3    3  501    0 -0.34223110736E+01 -0.14182474067E+02 -0.22503119618E+03  0.22550364529E+03  0.00000000000E+00 0.  1.
         -3    1    1    2    0  502  0.11310998947E+02  0.32187738275E+02 -0.44623711310E+03  0.44753943994E+03  0.00000000000E+00 0. -1.
<mgrwt>
<rscale>  1 0.30000000E+03</rscale>
<asrwt>0</asrwt>
<pdfrwt beam="1">  1       21 0.42983945E-02 0.30000000E+03</pdfrwt>
<pdfrwt beam="2">0</pdfrwt>
<totfact> 0.37240256E+04</totfact>
</mgrwt>
</event>
<event>
 6    1  0.1270461E-001  0.3000000E+03  0.7818608E-02  0.1093470E+00
         21   -1    0    0  501  502  0.00000000000E+00  0.00000000000E+00  0.15110053802E+01  0.15110053802E+01  0.00000000000E+00 0. -1.
         13   -1    0    0    0    0 -0.00000000000E+00 -0.00000000000E+00 -0.10000000000E+04  0.10000000000E+04  0.00000000000E+00 0.  1.
    9000005    2    1    2  501    0 -0.28267848498E+01  0.38526475562E+02 -0.54676793960E+03  0.54814118771E+03  0.33618225653E+01 0.  0.
         13    1    3    3    0    0 -0.24227919198E+01  0.31369383611E+02 -0.46246789962E+03  0.46353690935E+03  0.00000000000E+00 0.  1.
          1    1    3    3  501    0 -0.40399293000E+00  0.71570919511E+01 -0.84300039983E+02  0.84604278359E+02  0.00000000000E+00 0.  1.
         -3    1    1    2    0  502  0.28267848498E+01 -0.38526475562E+02 -0.45172105502E+03  0.45336981767E+03  0.00000000000E+00 0. -1.
<mgrwt>
<rscale>  1 0.30000000E+03</rscale>
<asrwt>0</asrwt>
<pdfrwt beam="1">  1       21 0.54945766E-02 0.30000000E+03</pdfrwt>
<pdfrwt beam="2">0</pdfrwt>
<totfact> 0.24515584E+04</totfact>
</mgrwt>
</event>
<event>
 6    1  0.1270461E-001  0.3000000E+03  0.7818608E-02  0.1093470E+00
         21   -1    0    0  501  502  0.00000000000E+00  0.00000000000E+00  0.16024781759E+01  0.16024781759E+01  0.00000000000E+00 0. -1.
         13   -1    0    0    0    0 -0.00000000000E+00 -0.00000000000E+00 -0.10000000000E+04  0.10000000000E+04  0.00000000000E+00 0.  1.
    9000005    2    1    2  501    0 -0.24914692205E+02  0.30506229475E+02 -0.58523382684E+03  0.58656559936E+03  0.30328781998E+01 0.  0.
         13    1    3    3    0    0 -0.73243987012E+01  0.11125073196E+02 -0.19090267651E+03  0.19136678387E+03  0.00000000000E+00 0.  1.
          1    1    3    3  501    0 -0.17590293504E+02  0.19381156279E+02 -0.39433115033E+03  0.39519881549E+03  0.00000000000E+00 0.  1.
         -1    1    1    2    0  502  0.24914692205E+02 -0.30506229475E+02 -0.41316369498E+03  0.41503687882E+03  0.00000000000E+00 0. -1.
<mgrwt>
<rscale>  1 0.30000000E+03</rscale>
<asrwt>0</asrwt>
<pdfrwt beam="1">  1       21 0.58272057E-02 0.30000000E+03</pdfrwt>
<pdfrwt beam="2">0</pdfrwt>
<totfact> 0.22160223E+04</totfact>
</mgrwt>
</event>
<event>
 6    1  0.1270461E-001  0.3000000E+03  0.7818608E-02  0.1093470E+00
         21   -1    0    0  501  502  0.00000000000E+00  0.00000000000E+00  0.76563084297E+01  0.76563084297E+01  0.00000000000E+00 0. -1.
         13   -1    0    0    0    0 -0.00000000000E+00 -0.00000000000E+00 -0.10000000000E+04  0.10000000000E+04  0.00000000000E+00 0.  1.
    9000005    2    1    2  501    0 -0.49447648759E+02  0.54200109991E+02 -0.77058626934E+03  0.77407746477E+03  0.31624483308E+01 0.  0.
         13    1    3    3    0    0 -0.10190957050E+02  0.12981319426E+02 -0.17855167750E+03  0.17931277645E+03  0.00000000000E+00 0.  1.
          3    1    3    3  501    0 -0.39256691709E+02  0.41218790565E+02 -0.59203459184E+03  0.59476468832E+03  0.00000000000E+00 0.  1.
         -3    1    1    2    0  502  0.49447648759E+02 -0.54200109991E+02 -0.22175742223E+03  0.23357884366E+03  0.00000000000E+00 0. -1.
<mgrwt>
<rscale>  1 0.30000000E+03</rscale>
<asrwt>0</asrwt>
<pdfrwt beam="1">  1       21 0.27841180E-01 0.30000000E+03</pdfrwt>
<pdfrwt beam="2">0</pdfrwt>
<totfact> 0.12615433E+03</totfact>
</mgrwt>
</event>
<event>
 6    1  0.1270461E-001  0.3000000E+03  0.7818608E-02  0.1093470E+00
         21   -1    0    0  501  502  0.00000000000E+00  0.00000000000E+00  0.18937583805E+01  0.18937583805E+01  0.00000000000E+00 0. -1.
         13   -1    0    0    0    0 -0.00000000000E+00 -0.00000000000E+00 -0.10000000000E+04  0.10000000000E+04  0.00000000000E+00 0.  1.
    9000005    2    1    2  501    0 -0.37172902885E+02  0.14334239566E+02 -0.69939795641E+03  0.70054025370E+03  0.34424533401E+01 0.  0.
         13    1    3    3    0    0 -0.63498626320E+01  0.15653784809E+01 -0.13268285710E+03  0.13284393751E+03  0.00000000000E+00 0.  1.
          1    1    3    3  501    0 -0.30823040253E+02  0.12768861086E+02 -0.56671509931E+03  0.56769631619E+03  0.00000000000E+00 0.  1.
         -3    1    1    2    0  502  0.37172902885E+02 -0.14334239566E+02 -0.29870828521E+03  0.30135350468E+03  0.00000000000E+00 0. -1.
<mgrwt>
<rscale>  1 0.30000000E+03</rscale>
<asrwt>0</asrwt>
<pdfrwt beam="1">  1       21 0.68864086E-02 0.30000000E+03</pdfrwt>
<pdfrwt beam="2">0</pdfrwt>
<totfact> 0.16600997E+04</totfact>
</mgrwt>
</event>
<event>
 6    1  0.1270461E-001  0.3000000E+03  0.7818608E-02  0.1093470E+00
         21   -1    0    0  501  502  0.00000000000E+00  0.00000000000E+00  0.91068911808E+00  0.91068911808E+00  0.00000000000E+00 0. -1.
         13   -1    0    0    0    0 -0.00000000000E+00 -0.00000000000E+00 -0.10000000000E+04  0.10000000000E+04  0.00000000000E+00 0.  1.
    9000005    2    1    2  501    0  0.71814090865E+00  0.30064747075E+02 -0.48310150274E+03  0.48404724207E+03  0.32040385601E+01 0.  0.
         13    1    3    3    0    0  0.59009978819E+00  0.10496917383E+02 -0.19347178207E+03  0.19375722941E+03  0.00000000000E+00 0.  1.
          3    1    3    3  501    0  0.12804112045E+00  0.19567829692E+02 -0.28962972067E+03  0.29029001266E+03  0.00000000000E+00 0.  1.
         -3    1    1    2    0  502 -0.71814090865E+00 -0.30064747075E+02 -0.51598780814E+03  0.51686344704E+03  0.00000000000E+00 0. -1.
<mgrwt>
<rscale>  1 0.30000000E+03</rscale>
<asrwt>0</asrwt>
<pdfrwt beam="1">  1       21 0.33116038E-02 0.30000000E+03</pdfrwt>
<pdfrwt beam="2">0</pdfrwt>
<totfact> 0.57714574E+04</totfact>
</mgrwt>
</event>
<event>
 6    1  0.1270461E-001  0.3000000E+03  0.7818608E-02  0.1093470E+00
         21   -1    0    0  501  502  0.00000000000E+00  0.00000000000E+00  0.20451611109E+01  0.20451611109E+01  0.00000000000E+00 0. -1.
         13   -1    0    0    0    0 -0.00000000000E+00 -0.00000000000E+00 -0.10000000000E+04  0.10000000000E+04  0.00000000000E+00 0.  1.
    9000005    2    1    2  501    0  0.33007684232E+02  0.12616855594E+02 -0.81075962490E+03  0.81154387396E+03  0.48577505591E+01 0.  0.
         13    1    3    3    0    0  0.23482479807E+02  0.68261481958E+01 -0.57946089041E+03  0.57997667770E+03  0.00000000000E+00 0.  1.
          3    1    3    3  501    0  0.95252044251E+01  0.57907073981E+01 -0.23129873448E+03  0.23156719626E+03  0.00000000000E+00 0.  1.
         -1    1    1    2    0  502 -0.33007684232E+02 -0.12616855594E+02 -0.18719521399E+03  0.19050128715E+03  0.00000000000E+00 0. -1.
<mgrwt>
<rscale>  1 0.30000000E+03</rscale>
<asrwt>0</asrwt>
<pdfrwt beam="1">  1       21 0.74369652E-02 0.30000000E+03</pdfrwt>
<pdfrwt beam="2">0</pdfrwt>
<totfact> 0.14517376E+04</totfact>
</mgrwt>
</event>
<event>
 6    1  0.1270461E-001  0.3000000E+03  0.7818608E-02  0.1093470E+00
         21   -1    0    0  501  502  0.00000000000E+00  0.00000000000E+00  0.67499057421E+01  0.67499057421E+01  0.00000000000E+00 0. -1.
         13   -1    0    0    0    0 -0.00000000000E+00 -0.00000000000E+00 -0.10000000000E+04  0.10000000000E+04  0.00000000000E+00 0.  1.
    9000005    2    1    2  501    0  0.57831162683E+02  0.18782082749E+02 -0.15854563105E+03  0.16983369076E+03  0.30911778768E+01 0.  0.
         13    1    3    3    0    0  0.52491143247E+02  0.17470309605E+02 -0.14628699249E+03  0.15639826088E+03  0.00000000000E+00 0.  1.
          3    1    3    3  501    0  0.53400194357E+01  0.13117731445E+01 -0.12258638565E+02  0.13435429871E+02  0.00000000000E+00 0.  1.
         -3    1    1    2    0  502 -0.57831162683E+02 -0.18782082749E+02 -0.83470446321E+03  0.83691621499E+03  0.00000000000E+00 0. -1.
<mgrwt>
<rscale>  1 0.30000000E+03</rscale>
<asrwt>0</asrwt>
<pdfrwt beam="1">  1       21 0.24545164E-01 0.30000000E+03</pdfrwt>
<pdfrwt beam="2">0</pdfrwt>
<totfact> 0.16165826E+03</totfact>
</mgrwt>
</event>
<event>
 6    1  0.1270461E-001  0.3000000E+03  0.7818608E-02  0.1093470E+00
         21   -1    0    0  501  502  0.00000000000E+00  0.00000000000E+00  0.10148142993E+01  0.10148142993E+01  0.00000000000E+00 0. -1.
         13   -1    0    0    0    0 -0.00000000000E+00 -0.00000000000E+00 -0.10000000000E+04  0.10000000000E+04  0.00000000000E+00 0.  1.
    9000005    2    1    2  501    0 -0.31448972187E+02  0.10635692436E+01 -0.56637258338E+03  0.56725931553E+03  0.38805686387E+01 0.  0.
         13    1    3    3    0    0 -0.10098539574E+01  0.63862837460E+00 -0.15329942954E+02  0.15376436589E+02  0.00000000000E+00 0.  1.
          3    1    3    3  501    0 -0.30439118230E+02  0.42494086899E+00 -0.55104264043E+03  0.55188287894E+03  0.00000000000E+00 0.  1.
         -1    1    1    2    0  502  0.31448972187E+02 -0.10635692436E+01 -0.43261260232E+03  0.43375549877E+03  0.00000000000E+00 0. -1.
<mgrwt>
<rscale>  1 0.30000000E+03</rscale>
<asrwt>0</asrwt>
<pdfrwt beam="1">  1       21 0.36902416E-02 0.30000000E+03</pdfrwt>
<pdfrwt beam="2">0</pdfrwt>
<totfact> 0.48148380E+04</totfact>
</mgrwt>
</event>
<event>
 6    1  0.1270461E-001  0.3000000E+03  0.7818608E-02  0.1093470E+00
         21   -1    0    0  501  502  0.00000000000E+00  0.00000000000E+00  0.21758178652E+01  0.21758178652E+01  0.00000000000E+00 0. -1.
         13   -1    0    0    0    0 -0.00000000000E+00 -0.00000000000E+00 -0.10000000000E+04  0.10000000000E+04  0.00000000000E+00 0.  1.
    9000005    2    1    2  501    0  0.35994399530E+02  0.26320946885E+02 -0.64425456298E+03  0.64580541416E+03  0.35074214346E+01 0.  0.
         13    1    3    3    0    0  0.11687464196E+02  0.10245654375E+02 -0.23805100904E+03  0.23855786123E+03  0.00000000000E+00 0.  1.
          3    1    3    3  501    0  0.24306935334E+02  0.16075292510E+02 -0.40620355394E+03  0.40724755293E+03  0.00000000000E+00 0.  1.
         -3    1    1    2    0  502 -0.35994399530E+02 -0.26320946885E+02 -0.35356961916E+03  0.35637040370E+03  0.00000000000E+00 0. -1.
<mgrwt>
<rscale>  1 0.30000000E+03</rscale>
<asrwt>0</asrwt>
<pdfrwt beam="1">  1       21 0.79120816E-02 0.30000000E+03</pdfrwt>
<pdfrwt beam="2">0</pdfrwt>
<totfact> 0.13024153E+04</totfact>
</mgrwt>
</event>
<event>
 6    1  0.1270461E-001  0.3000000E+03  0.7818608E-02  0.1093470E+00
         21   -1    0    0  501  502  0.00000000000E+00  0.00000000000E+00  0.22313184403E+01  0.22313184403E+01  0.00000000000E+00 0. -1.
         13   -1    0    0    0    0 -0.00000000000E+00 -0.00000000000E+00 -0.10000000000E+04  0.10000000000E+04  0.00000000000E+00 0.  1.
    9000005    2    1    2  501    0  0.31487883435E+02  0.28365116380E+02 -0.71949215739E+03  0.72074616691E+03  0.31632156673E+01 0.  0.
         13    1    3    3    0    0  0.65598966753E+01  0.42625841198E+01 -0.13214547899E+03  0.13237684648E+03  0.00000000000E+00 0.  1.
          3    1    3    3  501    0  0.24927986759E+02  0.24102532260E+02 -0.58734667840E+03  0.58836932043E+03  0.00000000000E+00 0.  1.
         -1    1    1    2    0  502 -0.31487883435E+02 -0.28365116380E+02 -0.27827652417E+03  0.28148515153E+03  0.00000000000E+00 0. -1.
<mgrwt>
<rscale>  1 0.30000000E+03</rscale>
<asrwt>0</asrwt>
<pdfrwt beam="1">  1       21 0.81139023E-02 0.30000000E+03</pdfrwt>
<pdfrwt beam="2">0</pdfrwt>
<totfact> 0.12460450E+04</totfact>
</mgrwt>
</event>
<event>
 6    1  0.1270461E-001  0.3000000E+03  0.7818608E-02  0.1093470E+00
         21   -1    0    0  501  502  0.00000000000E+00  0.00000000000E+00  0.20207133318E+01  0.20207133318E+01  0.00000000000E+00 0. -1.
         13   -1    0    0    0    0 -0.00000000000E+00 -0.00000000000E+00 -0.10000000000E+04  0.10000000000E+04  0.00000000000E+00 0.  1.
    9000005    2    1    2  501    0  0.22483936883E+02  0.37103765247E+02 -0.37265046390E+03  0.37518871559E+03  0.39984053070E+01 0.  0.
         13    1    3    3    0    0  0.10301293816E+02  0.13309094667E+02 -0.14709777909E+03  0.14805743908E+03  0.00000000000E+00 0.  1.
          3    1    3    3  501    0  0.12182643066E+02  0.23794670580E+02 -0.22555268482E+03  0.22713127651E+03  0.00000000000E+00 0.  1.
         -3    1    1    2    0  502 -0.22483936883E+02 -0.37103765247E+02 -0.62532882277E+03  0.62683199774E+03  0.00000000000E+00 0. -1.
<mgrwt>
<rscale>  1 0.30000000E+03</rscale>
<asrwt>0</asrwt>
<pdfrwt beam="1">  1       21 0.73480640E-02 0.30000000E+03</pdfrwt>
<pdfrwt beam="2">0</pdfrwt>
<totfact> 0.14825947E+04</totfact>
</mgrwt>
</event>
<event>
 6    1  0.1270461E-001  0.3000000E+03  0.7818608E-02  0.1093470E+00
         21   -1    0    0  501  502  0.00000000000E+00  0.00000000000E+00  0.15292016860E+01  0.15292016860E+01  0.00000000000E+00 0. -1.
         13   -1    0    0    0    0 -0.00000000000E+00 -0.00000000000E+00 -0.10000000000E+04  0.10000000000E+04  0.00000000000E+00 0.  1.
    9000005    2    1    2  501    0  0.36918288701E+02 -0.54352627853E+01 -0.37568273069E+03  0.37762417743E+03  0.83667864606E+01 0.  0.
         13    1    3    3    0    0  0.11101610815E+02 -0.55788886304E+01 -0.12338740158E+03  0.12401137298E+03  0.00000000000E+00 0.  1.
          1    1    3    3  501    0  0.25816677887E+02  0.14362584513E+00 -0.25229532911E+03  0.25361280444E+03  0.00000000000E+00 0.  1.
         -3    1    1    2    0  502 -0.36918288701E+02  0.54352627853E+01 -0.62278806762E+03  0.62390502426E+03  0.00000000000E+00 0. -1.
<mgrwt>
<rscale>  1 0.30000000E+03</rscale>
<asrwt>0</asrwt>
<pdfrwt beam="1">  1       21 0.55607451E-02 0.30000000E+03</pdfrwt>
<pdfrwt beam="2">0</pdfrwt>
<totfact> 0.24017330E+04</totfact>
</mgrwt>
</event>
<event>
 6    1  0.1270461E-001  0.3000000E+03  0.7818608E-02  0.1093470E+00
         21   -1    0    0  501  502  0.00000000000E+00  0.00000000000E+00  0.18997034108E+01  0.18997034108E+01  0.00000000000E+00 0. -1.
         13   -1    0    0    0    0 -0.00000000000E+00 -0.00000000000E+00 -0.10000000000E+04  0.10000000000E+04  0.00000000000E+00 0.  1.
    9000005    2    1    2  501    0  0.34868062632E+02 -0.11492688743E+02 -0.23115086808E+03  0.23407206027E+03  0.33379480149E+01 0.  0.
         13    1    3    3    0    0  0.25442201958E+00  0.11785213919E-01 -0.42926446217E+01  0.43001938682E+01  0.00000000000E+00 0.  1.
          3    1    3    3  501    0  0.34613640612E+02 -0.11504473957E+02 -0.22685822346E+03  0.22977186640E+03  0.00000000000E+00 0.  1.
         -1    1    1    2    0  502 -0.34868062632E+02  0.11492688743E+02 -0.76694942850E+03  0.76782764314E+03  0.00000000000E+00 0. -1.
<mgrwt>
<rscale>  1 0.30000000E+03</rscale>
<asrwt>0</asrwt>
<pdfrwt beam="1">  1       21 0.69080270E-02 0.30000000E+03</pdfrwt>
<pdfrwt beam="2">0</pdfrwt>
<totfact> 0.16510793E+04</totfact>
</mgrwt>
</event>
<event>
 6    1  0.1270461E-001  0.3000000E+03  0.7818608E-02  0.1093470E+00
         21   -1    0    0  501  502  0.00000000000E+00  0.00000000000E+00  0.14996871379E+01  0.14996871379E+01  0.00000000000E+00 0. -1.
         13   -1    0    0    0    0 -0.00000000000E+00 -0.00000000000E+00 -0.10000000000E+04  0.10000000000E+04  0.00000000000E+00 0.  1.
    9000005    2    1    2  501    0 -0.29095279900E+02 -0.25259785476E+02 -0.54019418838E+03  0.54157676336E+03  0.33222555299E+01 0.  0.
         13    1    3    3    0    0 -0.88533343011E+01 -0.61627773043E+01 -0.16452405479E+03  0.16487730576E+03  0.00000000000E+00 0.  1.
          3    1    3    3  501    0 -0.20241945599E+02 -0.19097008172E+02 -0.37567013359E+03  0.37669945760E+03  0.00000000000E+00 0.  1.
         -3    1    1    2    0  502  0.29095279900E+02  0.25259785476E+02 -0.45830612448E+03  0.45992292377E+03  0.00000000000E+00 0. -1.
<mgrwt>
<rscale>  1 0.30000000E+03</rscale>
<asrwt>0</asrwt>
<pdfrwt beam="1">  1       21 0.54534193E-02 0.30000000E+03</pdfrwt>
<pdfrwt beam="2">0</pdfrwt>
<totfact> 0.24833578E+04</totfact>
</mgrwt>
</event>
<event>
 6    1  0.1270461E-001  0.3000000E+03  0.7818608E-02  0.1093470E+00
         21   -1    0    0  501  502  0.00000000000E+00  0.00000000000E+00  0.42570985445E+01  0.42570985445E+01  0.00000000000E+00 0. -1.
         13   -1    0    0    0    0 -0.00000000000E+00 -0.00000000000E+00 -0.10000000000E+04  0.10000000000E+04  0.00000000000E+00 0.  1.
    9000005    2    1    2  501    0  0.17759950625E+02 -0.46447945867E+02 -0.82262263318E+03  0.82413643119E+03  0.44758316326E+01 0.  0.
         13    1    3    3    0    0  0.28698175582E+01 -0.60468640274E+01 -0.89014658862E+02  0.89265950450E+02  0.00000000000E+00 0.  1.
          1    1    3    3  501    0  0.14890133067E+02 -0.40401081839E+02 -0.73360797432E+03  0.73487048074E+03  0.00000000000E+00 0.  1.
         -1    1    1    2    0  502 -0.17759950625E+02  0.46447945867E+02 -0.17312026828E+03  0.18012066736E+03  0.00000000000E+00 0. -1.
<mgrwt>
<rscale>  1 0.30000000E+03</rscale>
<asrwt>0</asrwt>
<pdfrwt beam="1">  1       21 0.15480391E-01 0.30000000E+03</pdfrwt>
<pdfrwt beam="2">0</pdfrwt>
<totfact> 0.38841911E+03</totfact>
</mgrwt>
</event>
<event>
 6    1  0.1270461E-001  0.3000000E+03  0.7818608E-02  0.1093470E+00
         21   -1    0    0  501  502  0.00000000000E+00  0.00000000000E+00  0.10258013542E+01  0.10258013542E+01  0.00000000000E+00 0. -1.
         13   -1    0    0    0    0 -0.00000000000E+00 -0.00000000000E+00 -0.10000000000E+04  0.10000000000E+04  0.00000000000E+00 0.  1.
    9000005    2    1    2  501    0  0.30128431467E+02  0.44771006102E+01 -0.64692865355E+03  0.64766503297E+03  0.50542391343E+01 0.  0.
         13    1    3    3    0    0  0.19119290253E+02  0.14515963639E+01 -0.44640699328E+03  0.44681859635E+03  0.00000000000E+00 0.  1.
          1    1    3    3  501    0  0.11009141214E+02  0.30255042463E+01 -0.20052166027E+03  0.20084643662E+03  0.00000000000E+00 0.  1.
         -3    1    1    2    0  502 -0.30128431467E+02 -0.44771006102E+01 -0.35204554509E+03  0.35336076838E+03  0.00000000000E+00 0. -1.
<mgrwt>
<rscale>  1 0.30000000E+03</rscale>
<asrwt>0</asrwt>
<pdfrwt beam="1">  1       21 0.37301946E-02 0.30000000E+03</pdfrwt>
<pdfrwt beam="2">0</pdfrwt>
<totfact> 0.47285858E+04</totfact>
</mgrwt>
</event>
<event>
 6    1  0.1270461E-001  0.3000000E+03  0.7818608E-02  0.1093470E+00
         21   -1    0    0  501  502  0.00000000000E+00  0.00000000000E+00  0.12453342953E+01  0.12453342953E+01  0.00000000000E+00 0. -1.
         13   -1    0    0    0    0 -0.00000000000E+00 -0.00000000000E+00 -0.10000000000E+04  0.10000000000E+04  0.00000000000E+00 0.  1.
    9000005    2    1    2  501    0 -0.22242345155E+02  0.25581200306E+02 -0.63586300965E+03  0.63677383505E+03  0.31670550318E+01 0.  0.
         13    1    3    3    0    0 -0.45126024687E+01  0.72402321854E+01 -0.15449635457E+03  0.15473172951E+03  0.00000000000E+00 0.  1.
          3    1    3    3  501    0 -0.17729742686E+02  0.18340968121E+02 -0.48136665508E+03  0.48204210554E+03  0.00000000000E+00 0.  1.
         -3    1    1    2    0  502  0.22242345155E+02 -0.25581200306E+02 -0.36289165605E+03  0.36447149924E+03  0.00000000000E+00 0. -1.
<mgrwt>
<rscale>  1 0.30000000E+03</rscale>
<asrwt>0</asrwt>
<pdfrwt beam="1">  1       21 0.45284979E-02 0.30000000E+03</pdfrwt>
<pdfrwt beam="2">0</pdfrwt>
<totfact> 0.34090937E+04</totfact>
</mgrwt>
</event>
<event>
 6    1  0.1270461E-001  0.3000000E+03  0.7818608E-02  0.1093470E+00
         21   -1    0    0  501  502  0.00000000000E+00  0.00000000000E+00  0.28129709127E+01  0.28129709127E+01  0.00000000000E+00 0. -1.
         13   -1    0    0    0    0 -0.00000000000E+00 -0.00000000000E+00 -0.10000000000E+04  0.10000000000E+04  0.00000000000E+00 0.  1.
    9000005    2    1    2  501    0 -0.28309648933E+02  0.29517976208E+02 -0.81728971307E+03  0.81832505409E+03  0.45466388708E+01 0.  0.
         13    1    3    3    0    0 -0.88476637105E+01  0.63683357684E+01 -0.22294358315E+03  0.22320994181E+03  0.00000000000E+00 0.  1.
          3    1    3    3  501    0 -0.19461985222E+02  0.23149640439E+02 -0.59434612992E+03  0.59511511229E+03  0.00000000000E+00 0.  1.
         -1    1    1    2    0  502  0.28309648933E+02 -0.29517976208E+02 -0.17989731602E+03  0.18448791682E+03  0.00000000000E+00 0. -1.
<mgrwt>
<rscale>  1 0.30000000E+03</rscale>
<asrwt>0</asrwt>
<pdfrwt beam="1">  1       21 0.10229007E-01 0.30000000E+03</pdfrwt>
<pdfrwt beam="2">0</pdfrwt>
<totfact> 0.82618425E+03</totfact>
</mgrwt>
</event>
<event>
 6    1  0.1270461E-001  0.3000000E+03  0.7818608E-02  0.1093470E+00
         21   -1    0    0  501  502  0.00000000000E+00  0.00000000000E+00  0.95677904701E+00  0.95677904701E+00  0.00000000000E+00 0. -1.
         13   -1    0    0    0    0 -0.00000000000E+00 -0.00000000000E+00 -0.10000000000E+04  0.10000000000E+04  0.00000000000E+00 0.  1.
    9000005    2    1    2  501    0  0.20660110922E+02  0.22685036540E+02 -0.54557770317E+03  0.54645438424E+03  0.39890843446E+01 0.  0.
         13    1    3    3    0    0  0.10585234850E+02  0.13455952809E+02 -0.33050073873E+03  0.33094387464E+03  0.00000000000E+00 0.  1.
          3    1    3    3  501    0  0.10074876072E+02  0.92290837311E+01 -0.21507696444E+03  0.21551050960E+03  0.00000000000E+00 0.  1.
         -3    1    1    2    0  502 -0.20660110922E+02 -0.22685036540E+02 -0.45346551779E+03  0.45450239481E+03  0.00000000000E+00 0. -1.
<mgrwt>
<rscale>  1 0.30000000E+03</rscale>
<asrwt>0</asrwt>
<pdfrwt beam="1">  1       21 0.34792039E-02 0.30000000E+03</pdfrwt>
<pdfrwt beam="2">0</pdfrwt>
<totfact> 0.53144382E+04</totfact>
</mgrwt>
</event>
<event>
 6    1  0.1270461E-001  0.3000000E+03  0.7818608E-02  0.1093470E+00
         21   -1    0    0  501  502  0.00000000000E+00  0.00000000000E+00  0.19545985849E+01  0.19545985849E+01  0.00000000000E+00 0. -1.
         13   -1    0    0    0    0 -0.00000000000E+00 -0.00000000000E+00 -0.10000000000E+04  0.10000000000E+04  0.00000000000E+00 0.  1.
    9000005    2    1    2  501    0  0.23267092393E+02  0.30126499472E+02 -0.75316345037E+03  0.75413181209E+03  0.32624335390E+01 0.  0.
         13    1    3    3    0    0  0.17491135392E+02  0.23874558170E+02 -0.56149569928E+03  0.56227515920E+03  0.00000000000E+00 0.  1.
          1    1    3    3  501    0  0.57759570014E+01  0.62519413024E+01 -0.19166775109E+03  0.19185665289E+03  0.00000000000E+00 0.  1.
         -3    1    1    2    0  502 -0.23267092393E+02 -0.30126499472E+02 -0.24488195105E+03  0.24782278650E+03  0.00000000000E+00 0. -1.
<mgrwt>
<rscale>  1 0.30000000E+03</rscale>
<asrwt>0</asrwt>
<pdfrwt beam="1">  1       21 0.71076462E-02 0.30000000E+03</pdfrwt>
<pdfrwt beam="2">0</pdfrwt>
<totfact> 0.15712125E+04</totfact>
</mgrwt>
</event>
<event>
 6    1  0.1270461E-001  0.3000000E+03  0.7818608E-02  0.1093470E+00
         21   -1    0    0  501  502  0.00000000000E+00  0.00000000000E+00  0.12612003206E+01  0.12612003206E+01  0.00000000000E+00 0. -1.
         13   -1    0    0    0    0 -0.00000000000E+00 -0.00000000000E+00 -0.10000000000E+04  0.10000000000E+04  0.00000000000E+00 0.  1.
    9000005    2    1    2  501    0  0.28753023388E+02  0.17935475760E+02 -0.64769144097E+03  0.64858193286E+03  0.24296651296E+01 0.  0.
         13    1    3    3    0    0  0.26640128373E+02  0.16528498869E+02 -0.60999134943E+03  0.61079647518E+03  0.00000000000E+00 0.  1.
          1    1    3    3  501    0  0.21128950149E+01  0.14069768907E+01 -0.37700091543E+02  0.37785457675E+02  0.00000000000E+00 0.  1.
         -1    1    1    2    0  502 -0.28753023388E+02 -0.17935475760E+02 -0.35104735871E+03  0.35267926746E+03  0.00000000000E+00 0. -1.
<mgrwt>
<rscale>  1 0.30000000E+03</rscale>
<asrwt>0</asrwt>
<pdfrwt beam="1">  1       21 0.45861927E-02 0.30000000E+03</pdfrwt>
<pdfrwt beam="2">0</pdfrwt>
<totfact> 0.33365750E+04</totfact>
</mgrwt>
</event>
<event>
 6    1  0.1270461E-001  0.3000000E+03  0.7818608E-02  0.1093470E+00
         21   -1    0    0  501  502  0.00000000000E+00  0.00000000000E+00  0.12531009276E+01  0.12531009276E+01  0.00000000000E+00 0. -1.
         13   -1    0    0    0    0 -0.00000000000E+00 -0.00000000000E+00 -0.10000000000E+04  0.10000000000E+04  0.00000000000E+00 0.  1.
    9000005    2    1    2  501    0 -0.20054625479E+02  0.24244060583E+02 -0.72746210204E+03  0.72814981721E+03  0.33292523716E+01 0.  0.
         13    1    3    3    0    0 -0.13487472888E+01  0.12005275528E+01 -0.27890677982E+02  0.27949066245E+02  0.00000000000E+00 0.  1.
          1    1    3    3  501    0 -0.18705878190E+02  0.23043533030E+02 -0.69957142406E+03  0.70020075097E+03  0.00000000000E+00 0.  1.
         -3    1    1    2    0  502  0.20054625479E+02 -0.24244060583E+02 -0.27128479703E+03  0.27310328372E+03  0.00000000000E+00 0. -1.
<mgrwt>
<rscale>  1 0.30000000E+03</rscale>
<asrwt>0</asrwt>
<pdfrwt beam="1">  1       21 0.45567403E-02 0.30000000E+03</pdfrwt>
<pdfrwt beam="2">0</pdfrwt>
<totfact> 0.33732900E+04</totfact>
</mgrwt>
</event>
<event>
 6    1  0.1270461E-001  0.3000000E+03  0.7818608E-02  0.1093470E+00
         21   -1    0    0  501  502  0.00000000000E+00  0.00000000000E+00  0.25798865700E+01  0.25798865700E+01  0.00000000000E+00 0. -1.
         13   -1    0    0    0    0 -0.00000000000E+00 -0.00000000000E+00 -0.10000000000E+04  0.10000000000E+04  0.00000000000E+00 0.  1.
    9000005    2    1    2  501    0 -0.32370825048E+02  0.16511603707E+01 -0.88413988977E+03  0.88475371920E+03  0.59331533694E+01 0.  0.
         13    1    3    3    0    0 -0.29205443235E+02 -0.28721004346E-01 -0.81170342080E+03  0.81222866366E+03  0.00000000000E+00 0.  1.
          3    1    3    3  501    0 -0.31653818130E+01  0.16798813751E+01 -0.72436468976E+02  0.72525055540E+02  0.00000000000E+00 0.  1.
         -3    1    1    2    0  502  0.32370825048E+02 -0.16511603707E+01 -0.11328022366E+03  0.11782616737E+03  0.00000000000E+00 0. -1.
<mgrwt>
<rscale>  1 0.30000000E+03</rscale>
<asrwt>0</asrwt>
<pdfrwt beam="1">  1       21 0.93814255E-02 0.30000000E+03</pdfrwt>
<pdfrwt beam="2">0</pdfrwt>
<totfact> 0.96408892E+03</totfact>
</mgrwt>
</event>
<event>
 6    1  0.1270461E-001  0.3000000E+03  0.7818608E-02  0.1093470E+00
         21   -1    0    0  501  502  0.00000000000E+00  0.00000000000E+00  0.27909821061E+01  0.27909821061E+01  0.00000000000E+00 0. -1.
         13   -1    0    0    0    0 -0.00000000000E+00 -0.00000000000E+00 -0.10000000000E+04  0.10000000000E+04  0.00000000000E+00 0.  1.
    9000005    2    1    2  501    0 -0.43700412233E+02  0.23100377552E+02 -0.66779378866E+03  0.66968777479E+03  0.94772390079E+01 0.  0.
         13    1    3    3    0    0 -0.25239540761E+02  0.12663819812E+02 -0.44164542192E+03  0.44254726918E+03  0.00000000000E+00 0.  1.
          3    1    3    3  501    0 -0.18460871472E+02  0.10436557740E+02 -0.22614836674E+03  0.22714050561E+03  0.00000000000E+00 0.  1.
         -1    1    1    2    0  502  0.43700412233E+02 -0.23100377552E+02 -0.32941522923E+03  0.33310320732E+03  0.00000000000E+00 0. -1.
<mgrwt>
<rscale>  1 0.30000000E+03</rscale>
<asrwt>0</asrwt>
<pdfrwt beam="1">  1       21 0.10149047E-01 0.30000000E+03</pdfrwt>
<pdfrwt beam="2">0</pdfrwt>
<totfact> 0.83786459E+03</totfact>
</mgrwt>
</event>
<event>
 6    1  0.1270461E-001  0.3000000E+03  0.7818608E-02  0.1093470E+00
         21   -1    0    0  501  502  0.00000000000E+00  0.00000000000E+00  0.16351508330E+01  0.16351508330E+01  0.00000000000E+00 0. -1.
         13   -1    0    0    0    0 -0.00000000000E+00 -0.00000000000E+00 -0.10000000000E+04  0.10000000000E+04  0.00000000000E+00 0.  1.
    9000005    2    1    2  501    0 -0.97905538785E+01 -0.38694259510E+02 -0.57076949113E+03  0.57218097297E+03  0.44892278174E+01 0.  0.
         13    1    3    3    0    0 -0.31685688495E+01 -0.11921859053E+02 -0.20726026130E+03  0.20762703693E+03  0.00000000000E+00 0.  1.
          1    1    3    3  501    0 -0.66219850290E+01 -0.26772400457E+02 -0.36350922983E+03  0.36455393604E+03  0.00000000000E+00 0.  1.
         -3    1    1    2    0  502  0.97905538785E+01  0.38694259510E+02 -0.42759535804E+03  0.42945417786E+03  0.00000000000E+00 0. -1.
<mgrwt>
<rscale>  1 0.30000000E+03</rscale>
<asrwt>0</asrwt>
<pdfrwt beam="1">  1       21 0.59460156E-02 0.30000000E+03</pdfrwt>
<pdfrwt beam="2">0</pdfrwt>
<totfact> 0.21402635E+04</totfact>
</mgrwt>
</event>
<event>
 6    1  0.1270461E-001  0.3000000E+03  0.7818608E-02  0.1093470E+00
         21   -1    0    0  501  502  0.00000000000E+00  0.00000000000E+00  0.12774541104E+01  0.12774541104E+01  0.00000000000E+00 0. -1.
         13   -1    0    0    0    0 -0.00000000000E+00 -0.00000000000E+00 -0.10000000000E+04  0.10000000000E+04  0.00000000000E+00 0.  1.
    9000005    2    1    2  501    0  0.30014415517E+02 -0.17441391350E+02 -0.61534909038E+03  0.61633554465E+03  0.31517128947E+01 0.  0.
         13    1    3    3    0    0  0.63498175213E+01 -0.51771675521E+01 -0.15109254035E+03  0.15131450359E+03  0.00000000000E+00 0.  1.
          3    1    3    3  501    0  0.23664597996E+02 -0.12264223798E+02 -0.46425655003E+03  0.46502104106E+03  0.00000000000E+00 0.  1.
         -3    1    1    2    0  502 -0.30014415517E+02  0.17441391350E+02 -0.38337345551E+03  0.38494190946E+03  0.00000000000E+00 0. -1.
<mgrwt>
<rscale>  1 0.30000000E+03</rscale>
<asrwt>0</asrwt>
<pdfrwt beam="1">  1       21 0.46452975E-02 0.30000000E+03</pdfrwt>
<pdfrwt beam="2">0</pdfrwt>
<totfact> 0.32647616E+04</totfact>
</mgrwt>
</event>
<event>
 6    1  0.1270461E-001  0.3000000E+03  0.7818608E-02  0.1093470E+00
         21   -1    0    0  501  502  0.00000000000E+00  0.00000000000E+00  0.23216026184E+01  0.23216026184E+01  0.00000000000E+00 0. -1.
         13   -1    0    0    0    0 -0.00000000000E+00 -0.00000000000E+00 -0.10000000000E+04  0.10000000000E+04  0.00000000000E+00 0.  1.
    9000005    2    1    2  501    0  0.29981354932E+02  0.23233667952E+01 -0.10837292405E+03  0.11250785549E+03  0.30078569650E+01 0.  0.
         13    1    3    3    0    0  0.17141988467E+02  0.18628674426E+01 -0.67204876802E+02  0.69381651102E+02  0.00000000000E+00 0.  1.
          3    1    3    3  501    0  0.12839366465E+02  0.46049935263E+00 -0.41168047245E+02  0.43126204388E+02  0.00000000000E+00 0.  1.
         -3    1    1    2    0  502 -0.29981354932E+02 -0.23233667952E+01 -0.88930547333E+03  0.88981374713E+03  0.00000000000E+00 0. -1.
<mgrwt>
<rscale>  1 0.30000000E+03</rscale>
<asrwt>0</asrwt>
<pdfrwt beam="1">  1       21 0.84422091E-02 0.30000000E+03</pdfrwt>
<pdfrwt beam="2">0</pdfrwt>
<totfact> 0.11620181E+04</totfact>
</mgrwt>
</event>
<event>
 6    1  0.1270461E-001  0.3000000E+03  0.7818608E-02  0.1093470E+00
         21   -1    0    0  501  502  0.00000000000E+00  0.00000000000E+00  0.11403189606E+01  0.11403189606E+01  0.00000000000E+00 0. -1.
         13   -1    0    0    0    0 -0.00000000000E+00 -0.00000000000E+00 -0.10000000000E+04  0.10000000000E+04  0.00000000000E+00 0.  1.
    9000005    2    1    2  501    0 -0.20340368964E+02  0.26610017306E+02 -0.55606068695E+03  0.55707639023E+03  0.29653588143E+01 0.  0.
         13    1    3    3    0    0 -0.18221132440E+02  0.25032340191E+02 -0.50675370160E+03  0.50769867226E+03  0.00000000000E+00 0.  1.
          1    1    3    3  501    0 -0.21192365241E+01  0.15776771154E+01 -0.49306985345E+02  0.49377717974E+02  0.00000000000E+00 0.  1.
         -1    1    1    2    0  502  0.20340368964E+02 -0.26610017306E+02 -0.44279899409E+03  0.44406392873E+03  0.00000000000E+00 0. -1.
<mgrwt>
<rscale>  1 0.30000000E+03</rscale>
<asrwt>0</asrwt>
<pdfrwt beam="1">  1       21 0.41466231E-02 0.30000000E+03</pdfrwt>
<pdfrwt beam="2">0</pdfrwt>
<totfact> 0.39571640E+04</totfact>
</mgrwt>
</event>
<event>
 6    1  0.1270461E-001  0.3000000E+03  0.7818608E-02  0.1093470E+00
         21   -1    0    0  501  502  0.00000000000E+00  0.00000000000E+00  0.11577876434E+01  0.11577876434E+01  0.00000000000E+00 0. -1.
         13   -1    0    0    0    0 -0.00000000000E+00 -0.00000000000E+00 -0.10000000000E+04  0.10000000000E+04  0.00000000000E+00 0.  1.
    9000005    2    1    2  501    0  0.11213524190E+02 -0.29522402500E+02 -0.31712486492E+03  0.31870935943E+03  0.31875482779E+01 0.  0.
         13    1    3    3    0    0  0.32557934102E+01 -0.63061619355E+01 -0.61053336366E+02  0.61464442977E+02  0.00000000000E+00 0.  1.
          3    1    3    3  501    0  0.79577307799E+01 -0.23216240565E+02 -0.25607152856E+03  0.25724491646E+03  0.00000000000E+00 0.  1.
         -1    1    1    2    0  502 -0.11213524190E+02  0.29522402500E+02 -0.68171734743E+03  0.68244842821E+03  0.00000000000E+00 0. -1.
<mgrwt>
<rscale>  1 0.30000000E+03</rscale>
<asrwt>0</asrwt>
<pdfrwt beam="1">  1       21 0.42101458E-02 0.30000000E+03</pdfrwt>
<pdfrwt beam="2">0</pdfrwt>
<totfact> 0.38568986E+04</totfact>
</mgrwt>
</event>
<event>
 6    1  0.1270461E-001  0.3000000E+03  0.7818608E-02  0.1093470E+00
         21   -1    0    0  501  502  0.00000000000E+00  0.00000000000E+00  0.10070993249E+01  0.10070993249E+01  0.00000000000E+00 0. -1.
         13   -1    0    0    0    0 -0.00000000000E+00 -0.00000000000E+00 -0.10000000000E+04  0.10000000000E+04  0.00000000000E+00 0.  1.
    9000005    2    1    2  501    0  0.11440485622E+02  0.28205215764E+02 -0.36255600799E+03  0.36384280554E+03  0.28825863073E+01 0.  0.
         13    1    3    3    0    0  0.57747765574E+01  0.17394675551E+02 -0.22663633964E+03  0.22737623716E+03  0.00000000000E+00 0.  1.
          1    1    3    3  501    0  0.56657090650E+01  0.10810540214E+02 -0.13591966835E+03  0.13646656838E+03  0.00000000000E+00 0.  1.
         -1    1    1    2    0  502 -0.11440485622E+02 -0.28205215764E+02 -0.63643689268E+03  0.63716429378E+03  0.00000000000E+00 0. -1.
<mgrwt>
<rscale>  1 0.30000000E+03</rscale>
<asrwt>0</asrwt>
<pdfrwt beam="1">  1       21 0.36621871E-02 0.30000000E+03</pdfrwt>
<pdfrwt beam="2">0</pdfrwt>
<totfact> 0.48768940E+04</totfact>
</mgrwt>
</event>
<event>
 6    1  0.1270461E-001  0.3000000E+03  0.7818608E-02  0.1093470E+00
         21   -1    0    0  501  502  0.00000000000E+00  0.00000000000E+00  0.37946931544E+01  0.37946931544E+01  0.00000000000E+00 0. -1.
         13   -1    0    0    0    0 -0.00000000000E+00 -0.00000000000E+00 -0.10000000000E+04  0.10000000000E+04  0.00000000000E+00 0.  1.
    9000005    2    1    2  501    0 -0.42999158603E+02  0.19232104901E+02 -0.82139690940E+03  0.82275111465E+03  0.27771189485E+01 0.  0.
         13    1    3    3    0    0 -0.45685423688E+00  0.39052221434E+00 -0.16076811456E+02  0.16088041832E+02  0.00000000000E+00 0.  1.
          1    1    3    3  501    0 -0.42542304366E+02  0.18841582687E+02 -0.80532009794E+03  0.80666307282E+03  0.00000000000E+00 0.  1.
         -3    1    1    2    0  502  0.42999158603E+02 -0.19232104901E+02 -0.17480839745E+03  0.18104357850E+03  0.00000000000E+00 0. -1.
<mgrwt>
<rscale>  1 0.30000000E+03</rscale>
<asrwt>0</asrwt>
<pdfrwt beam="1">  1       21 0.13798913E-01 0.30000000E+03</pdfrwt>
<pdfrwt beam="2">0</pdfrwt>
<totfact> 0.48025725E+03</totfact>
</mgrwt>
</event>
<event>
 6    1  0.1270461E-001  0.3000000E+03  0.7818608E-02  0.1093470E+00
         21   -1    0    0  501  502  0.00000000000E+00  0.00000000000E+00  0.57454901962E+01  0.57454901962E+01  0.00000000000E+00 0. -1.
         13   -1    0    0    0    0 -0.00000000000E+00 -0.00000000000E+00 -0.10000000000E+04  0.10000000000E+04  0.00000000000E+00 0.  1.
    9000005    2    1    2  501    0  0.32683132863E+02 -0.32873472991E+02 -0.89491418381E+03  0.89612180312E+03  0.37466300714E+01 0.  0.
         13    1    3    3    0    0  0.17388045008E+00 -0.70051835113E+00 -0.97117167381E+01  0.97385010331E+01  0.00000000000E+00 0.  1.
          1    1    3    3  501    0  0.32509252413E+02 -0.32172954640E+02 -0.88520246707E+03  0.88638330209E+03  0.00000000000E+00 0.  1.
         -3    1    1    2    0  502 -0.32683132863E+02  0.32873472991E+02 -0.99340325992E+02  0.10962368708E+03  0.00000000000E+00 0. -1.
<mgrwt>
<rscale>  1 0.30000000E+03</rscale>
<asrwt>0</asrwt>
<pdfrwt beam="1">  1       21 0.20892736E-01 0.30000000E+03</pdfrwt>
<pdfrwt beam="2">0</pdfrwt>
<totfact> 0.22069761E+03</totfact>
</mgrwt>
</event>
<event>
 6    1  0.1270461E-001  0.3000000E+03  0.7818608E-02  0.1093470E+00
         21   -1    0    0  501  502  0.00000000000E+00  0.00000000000E+00  0.28849484044E+01  0.28849484044E+01  0.00000000000E+00 0. -1.
         13   -1    0    0    0    0 -0.00000000000E+00 -0.00000000000E+00 -0.10000000000E+04  0.10000000000E+04  0.00000000000E+00 0.  1.
    9000005    2    1    2  501    0  0.81759263319E+01  0.35424750292E+02 -0.13070180054E+03  0.13570925668E+03  0.35047083973E+01 0.  0.
         13    1    3    3    0    0  0.64930865539E+00  0.90385108560E+01 -0.30366127707E+02  0.31689398734E+02  0.00000000000E+00 0.  1.
          1    1    3    3  501    0  0.75266176765E+01  0.26386239436E+02 -0.10033567283E+03  0.10401985795E+03  0.00000000000E+00 0.  1.
         -1    1    1    2    0  502 -0.81759263319E+01 -0.35424750292E+02 -0.86641325106E+03  0.86717569172E+03  0.00000000000E+00 0. -1.
<mgrwt>
<rscale>  1 0.30000000E+03</rscale>
<asrwt>0</asrwt>
<pdfrwt beam="1">  1       21 0.10490744E-01 0.30000000E+03</pdfrwt>
<pdfrwt beam="2">0</pdfrwt>
<totfact> 0.78963423E+03</totfact>
</mgrwt>
</event>
<event>
 6    1  0.1270461E-001  0.3000000E+03  0.7818608E-02  0.1093470E+00
         21   -1    0    0  501  502  0.00000000000E+00  0.00000000000E+00  0.10917893297E+01  0.10917893297E+01  0.00000000000E+00 0. -1.
         13   -1    0    0    0    0 -0.00000000000E+00 -0.00000000000E+00 -0.10000000000E+04  0.10000000000E+04  0.00000000000E+00 0.  1.
    9000005    2    1    2  501    0 -0.25053781997E+02 -0.19091959483E+02 -0.64807176240E+03  0.64884413732E+03  0.30838950983E+01 0.  0.
         13    1    3    3    0    0 -0.82070706289E+01 -0.77410823522E+01 -0.21357003397E+03  0.21386780912E+03  0.00000000000E+00 0.  1.
          1    1    3    3  501    0 -0.16846711368E+02 -0.11350877131E+02 -0.43450172842E+03  0.43497632820E+03  0.00000000000E+00 0.  1.
         -1    1    1    2    0  502  0.25053781997E+02  0.19091959483E+02 -0.35083644827E+03  0.35224765201E+03  0.00000000000E+00 0. -1.
<mgrwt>
<rscale>  1 0.30000000E+03</rscale>
<asrwt>0</asrwt>
<pdfrwt beam="1">  1       21 0.39701514E-02 0.30000000E+03</pdfrwt>
<pdfrwt beam="2">0</pdfrwt>
<totfact> 0.42580951E+04</totfact>
</mgrwt>
</event>
<event>
 6    1  0.1270461E-001  0.3000000E+03  0.7818608E-02  0.1093470E+00
         21   -1    0    0  501  502  0.00000000000E+00  0.00000000000E+00  0.21337064463E+01  0.21337064463E+01  0.00000000000E+00 0. -1.
         13   -1    0    0    0    0 -0.00000000000E+00 -0.00000000000E+00 -0.10000000000E+04  0.10000000000E+04  0.00000000000E+00 0.  1.
    9000005    2    1    2  501    0  0.19646040671E+02  0.35306965944E+02 -0.74104537433E+03  0.74215383548E+03  0.33941036222E+01 0.  0.
         13    1    3    3    0    0  0.21308193554E+01  0.48044938321E+01 -0.78856315140E+02  0.79031272225E+02  0.00000000000E+00 0.  1.
          3    1    3    3  501    0  0.17515221315E+02  0.30502472112E+02 -0.66218905919E+03  0.66312256325E+03  0.00000000000E+00 0.  1.
         -1    1    1    2    0  502 -0.19646040671E+02 -0.35306965944E+02 -0.25682091922E+03  0.25997987097E+03  0.00000000000E+00 0. -1.
<mgrwt>
<rscale>  1 0.30000000E+03</rscale>
<asrwt>0</asrwt>
<pdfrwt beam="1">  1       21 0.77589489E-02 0.30000000E+03</pdfrwt>
<pdfrwt beam="2">0</pdfrwt>
<totfact> 0.13478491E+04</totfact>
</mgrwt>
</event>
<event>
 6    1  0.1270461E-001  0.3000000E+03  0.7818608E-02  0.1093470E+00
         21   -1    0    0  501  502  0.00000000000E+00  0.00000000000E+00  0.28979904431E+01  0.28979904431E+01  0.00000000000E+00 0. -1.
         13   -1    0    0    0    0 -0.00000000000E+00 -0.00000000000E+00 -0.10000000000E+04  0.10000000000E+04  0.00000000000E+00 0.  1.
    9000005    2    1    2  501    0  0.21209550990E+02  0.49167251441E+02 -0.54594563620E+03  0.54857504706E+03  0.32681645003E+01 0.  0.
         13    1    3    3    0    0  0.13844069750E+02  0.28059199006E+02 -0.32054993014E+03  0.32207333735E+03  0.00000000000E+00 0.  1.
          3    1    3    3  501    0  0.73654812400E+01  0.21108052435E+02 -0.22539570606E+03  0.22650170971E+03  0.00000000000E+00 0.  1.
         -3    1    1    2    0  502 -0.21209550990E+02 -0.49167251441E+02 -0.45115637336E+03  0.45432294339E+03  0.00000000000E+00 0. -1.
<mgrwt>
<rscale>  1 0.30000000E+03</rscale>
<asrwt>0</asrwt>
<pdfrwt beam="1">  1       21 0.10538169E-01 0.30000000E+03</pdfrwt>
<pdfrwt beam="2">0</pdfrwt>
<totfact> 0.78327482E+03</totfact>
</mgrwt>
</event>
<event>
 6    1  0.1270461E-001  0.3000000E+03  0.7818608E-02  0.1093470E+00
         21   -1    0    0  501  502  0.00000000000E+00  0.00000000000E+00  0.14583714468E+01  0.14583714468E+01  0.00000000000E+00 0. -1.
         13   -1    0    0    0    0 -0.00000000000E+00 -0.00000000000E+00 -0.10000000000E+04  0.10000000000E+04  0.00000000000E+00 0.  1.
    9000005    2    1    2  501    0  0.24825414211E+02  0.18967874723E+02 -0.78666037823E+03  0.78728613772E+03  0.29716160862E+01 0.  0.
         13    1    3    3    0    0  0.11804168614E+02  0.10811805042E+02 -0.41194178812E+03  0.41225267777E+03  0.00000000000E+00 0.  1.
          1    1    3    3  501    0  0.13021245596E+02  0.81560696809E+01 -0.37471859011E+03  0.37503345995E+03  0.00000000000E+00 0.  1.
         -1    1    1    2    0  502 -0.24825414211E+02 -0.18967874723E+02 -0.21188125032E+03  0.21417223373E+03  0.00000000000E+00 0. -1.
<mgrwt>
<rscale>  1 0.30000000E+03</rscale>
<asrwt>0</asrwt>
<pdfrwt beam="1">  1       21 0.53031801E-02 0.30000000E+03</pdfrwt>
<pdfrwt beam="2">0</pdfrwt>
<totfact> 0.26050125E+04</totfact>
</mgrwt>
</event>
<event>
 6    1  0.1270461E-001  0.3000000E+03  0.7818608E-02  0.1093470E+00
         21   -1    0    0  501  502  0.00000000000E+00  0.00000000000E+00  0.42127076351E+01  0.42127076351E+01  0.00000000000E+00 0. -1.
         13   -1    0    0    0    0 -0.00000000000E+00 -0.00000000000E+00 -0.10000000000E+04  0.10000000000E+04  0.00000000000E+00 0.  1.
    9000005    2    1    2  501    0 -0.21141469320E+02  0.60908683871E+02 -0.55375070147E+03  0.55749895456E+03  0.29009415094E+01 0.  0.
         13    1    3    3    0    0 -0.12838153629E+02  0.37042988787E+02 -0.32436726066E+03  0.32672790054E+03  0.00000000000E+00 0.  1.
          3    1    3    3  501    0 -0.83033156910E+01  0.23865695084E+02 -0.22938344082E+03  0.23077105402E+03  0.00000000000E+00 0.  1.
         -3    1    1    2    0  502  0.21141469320E+02 -0.60908683871E+02 -0.44203659089E+03  0.44671375307E+03  0.00000000000E+00 0. -1.
<mgrwt>
<rscale>  1 0.30000000E+03</rscale>
<asrwt>0</asrwt>
<pdfrwt beam="1">  1       21 0.15318969E-01 0.30000000E+03</pdfrwt>
<pdfrwt beam="2">0</pdfrwt>
<totfact> 0.39605395E+03</totfact>
</mgrwt>
</event>
<event>
 6    1  0.1270461E-001  0.3000000E+03  0.7818608E-02  0.1093470E+00
         21   -1    0    0  501  502  0.00000000000E+00  0.00000000000E+00  0.10962537987E+01  0.10962537987E+01  0.00000000000E+00 0. -1.
         13   -1    0    0    0    0 -0.00000000000E+00 -0.00000000000E+00 -0.10000000000E+04  0.10000000000E+04  0.00000000000E+00 0.  1.
    9000005    2    1    2  501    0 -0.29118329747E+02  0.75903178960E+01 -0.70603182777E+03  0.70668251320E+03  0.37070975949E+01 0.  0.
         13    1    3    3    0    0 -0.86111748451E+00  0.47495422616E+00 -0.12420907832E+02  0.12459777534E+02  0.00000000000E+00 0.  1.
          1    1    3    3  501    0 -0.28257212262E+02  0.71153636699E+01 -0.69361091994E+03  0.69422273566E+03  0.00000000000E+00 0.  1.
         -1    1    1    2    0  502  0.29118329747E+02 -0.75903178960E+01 -0.29287191843E+03  0.29441374060E+03  0.00000000000E+00 0. -1.
<mgrwt>
<rscale>  1 0.30000000E+03</rscale>
<asrwt>0</asrwt>
<pdfrwt beam="1">  1       21 0.39863859E-02 0.30000000E+03</pdfrwt>
<pdfrwt beam="2">0</pdfrwt>
<totfact> 0.42289409E+04</totfact>
</mgrwt>
</event>
<event>
 6    1  0.1270461E-001  0.3000000E+03  0.7818608E-02  0.1093470E+00
         21   -1    0    0  501  502  0.00000000000E+00  0.00000000000E+00  0.16267434859E+01  0.16267434859E+01  0.00000000000E+00 0. -1.
         13   -1    0    0    0    0 -0.00000000000E+00 -0.00000000000E+00 -0.10000000000E+04  0.10000000000E+04  0.00000000000E+00 0.  1.
    9000005    2    1    2  501    0 -0.19579459304E+02  0.33333789263E+02 -0.64118437906E+03  0.64235193097E+03  0.20244836016E+01 0.  0.
         13    1    3    3    0    0 -0.15412674131E+02  0.26401237581E+02 -0.52013479458E+03  0.52103241781E+03  0.00000000000E+00 0.  1.
          3    1    3    3  501    0 -0.41667851729E+01  0.69325516815E+01 -0.12104958448E+03  0.12131951316E+03  0.00000000000E+00 0.  1.
         -3    1    1    2    0  502  0.19579459304E+02 -0.33333789263E+02 -0.35718887745E+03  0.35927481252E+03  0.00000000000E+00 0. -1.
<mgrwt>
<rscale>  1 0.30000000E+03</rscale>
<asrwt>0</asrwt>
<pdfrwt beam="1">  1       21 0.59154433E-02 0.30000000E+03</pdfrwt>
<pdfrwt beam="2">0</pdfrwt>
<totfact> 0.21593675E+04</totfact>
</mgrwt>
</event>
<event>
 6    1  0.1270461E-001  0.3000000E+03  0.7818608E-02  0.1093470E+00
         21   -1    0    0  501  502  0.00000000000E+00  0.00000000000E+00  0.19687704290E+01  0.19687704290E+01  0.00000000000E+00 0. -1.
         13   -1    0    0    0    0 -0.00000000000E+00 -0.00000000000E+00 -0.10000000000E+04  0.10000000000E+04  0.00000000000E+00 0.  1.
    9000005    2    1    2  501    0 -0.40130220285E+02 -0.18683830959E+02 -0.47643257736E+03  0.47849510910E+03  0.31699433784E+01 0.  0.
         13    1    3    3    0    0 -0.17585731382E+02 -0.92666255865E+01 -0.22713839493E+03  0.22800653225E+03  0.00000000000E+00 0.  1.
          1    1    3    3  501    0 -0.22544488903E+02 -0.94172053725E+01 -0.24929418243E+03  0.25048857684E+03  0.00000000000E+00 0.  1.
         -1    1    1    2    0  502  0.40130220285E+02  0.18683830959E+02 -0.52159865221E+03  0.52347366133E+03  0.00000000000E+00 0. -1.
<mgrwt>
<rscale>  1 0.30000000E+03</rscale>
<asrwt>0</asrwt>
<pdfrwt beam="1">  1       21 0.71591803E-02 0.30000000E+03</pdfrwt>
<pdfrwt beam="2">0</pdfrwt>
<totfact> 0.15515506E+04</totfact>
</mgrwt>
</event>
<event>
 6    1  0.1270461E-001  0.3000000E+03  0.7818608E-02  0.1093470E+00
         21   -1    0    0  501  502  0.00000000000E+00  0.00000000000E+00  0.15778209944E+02  0.15778209944E+02  0.00000000000E+00 0. -1.
         13   -1    0    0    0    0 -0.00000000000E+00 -0.00000000000E+00 -0.10000000000E+04  0.10000000000E+04  0.00000000000E+00 0.  1.
    9000005    2    1    2  501    0  0.17208238544E+02  0.34523190248E+02 -0.97545022381E+03  0.97621920954E+03  0.35821498998E+01 0.  0.
         13    1    3    3    0    0  0.14735796130E+02  0.27403883360E+02 -0.75760656968E+03  0.75824523140E+03  0.00000000000E+00 0.  1.
          3    1    3    3  501    0  0.24724424141E+01  0.71193068872E+01 -0.21784365413E+03  0.21797397814E+03  0.00000000000E+00 0.  1.
         -1    1    1    2    0  502 -0.17208238544E+02 -0.34523190248E+02 -0.87715662420E+01  0.39559000404E+02  0.00000000000E+00 0. -1.
<mgrwt>
<rscale>  1 0.30000000E+03</rscale>
<asrwt>0</asrwt>
<pdfrwt beam="1">  1       21 0.57375430E-01 0.30000000E+03</pdfrwt>
<pdfrwt beam="2">0</pdfrwt>
<totfact> 0.27755554E+02</totfact>
</mgrwt>
</event>
<event>
 6    1  0.1270461E-001  0.3000000E+03  0.7818608E-02  0.1093470E+00
         21   -1    0    0  501  502  0.00000000000E+00  0.00000000000E+00  0.19135395370E+01  0.19135395370E+01  0.00000000000E+00 0. -1.
         13   -1    0    0    0    0 -0.00000000000E+00 -0.00000000000E+00 -0.10000000000E+04  0.10000000000E+04  0.00000000000E+00 0.  1.
    9000005    2    1    2  501    0  0.23899981715E+02  0.32405462384E+02 -0.69389440540E+03  0.69506809069E+03  0.29802220593E+01 0.  0.
         13    1    3    3    0    0  0.16949608579E+02  0.21776241904E+02 -0.49509765861E+03  0.49586609635E+03  0.00000000000E+00 0.  1.
          1    1    3    3  501    0  0.69503731356E+01  0.10629220480E+02 -0.19879674679E+03  0.19920199434E+03  0.00000000000E+00 0.  1.
         -1    1    1    2    0  502 -0.23899981715E+02 -0.32405462384E+02 -0.30419205506E+03  0.30684544885E+03  0.00000000000E+00 0. -1.
<mgrwt>
<rscale>  1 0.30000000E+03</rscale>
<asrwt>0</asrwt>
<pdfrwt beam="1">  1       21 0.69583403E-02 0.30000000E+03</pdfrwt>
<pdfrwt beam="2">0</pdfrwt>
<totfact> 0.16303739E+04</totfact>
</mgrwt>
</event>
<event>
 6    1  0.1270461E-001  0.3000000E+03  0.7818608E-02  0.1093470E+00
         21   -1    0    0  501  502  0.00000000000E+00  0.00000000000E+00  0.24165906781E+01  0.24165906781E+01  0.00000000000E+00 0. -1.
         13   -1    0    0    0    0 -0.00000000000E+00 -0.00000000000E+00 -0.10000000000E+04  0.10000000000E+04  0.00000000000E+00 0.  1.
    9000005    2    1    2  501    0  0.18222256548E+02 -0.25471653238E+02 -0.88496783934E+03  0.88552723122E+03  0.30894679287E+01 0.  0.
         13    1    3    3    0    0  0.10692863770E+00 -0.92884026019E+00 -0.33905573445E+02  0.33918462356E+02  0.00000000000E+00 0.  1.
          1    1    3    3  501    0  0.18115327910E+02 -0.24542812977E+02 -0.85106226590E+03  0.85160876887E+03  0.00000000000E+00 0.  1.
         -1    1    1    2    0  502 -0.18222256548E+02  0.25471653238E+02 -0.11261556998E+03  0.11688935946E+03  0.00000000000E+00 0. -1.
<mgrwt>
<rscale>  1 0.30000000E+03</rscale>
<asrwt>0</asrwt>
<pdfrwt beam="1">  1       21 0.87876210E-02 0.30000000E+03</pdfrwt>
<pdfrwt beam="2">0</pdfrwt>
<totfact> 0.10826104E+04</totfact>
</mgrwt>
</event>
<event>
 6    1  0.1270461E-001  0.3000000E+03  0.7818608E-02  0.1093470E+00
         21   -1    0    0  501  502  0.00000000000E+00  0.00000000000E+00  0.10322600816E+01  0.10322600816E+01  0.00000000000E+00 0. -1.
         13   -1    0    0    0    0 -0.00000000000E+00 -0.00000000000E+00 -0.10000000000E+04  0.10000000000E+04  0.00000000000E+00 0.  1.
    9000005    2    1    2  501    0 -0.29907883120E+02  0.54756085638E+01 -0.65694851442E+03  0.65766421501E+03  0.40503520425E+01 0.  0.
         13    1    3    3    0    0 -0.25572946910E+02  0.58866938779E+01 -0.54590440391E+03  0.54653476283E+03  0.00000000000E+00 0.  1.
          1    1    3    3  501    0 -0.43349362101E+01 -0.41108531413E+00 -0.11104411051E+03  0.11112945218E+03  0.00000000000E+00 0.  1.
         -1    1    1    2    0  502  0.29907883120E+02 -0.54756085638E+01 -0.34201922550E+03  0.34336804507E+03  0.00000000000E+00 0. -1.
<mgrwt>
<rscale>  1 0.30000000E+03</rscale>
<asrwt>0</asrwt>
<pdfrwt beam="1">  1       21 0.37536809E-02 0.30000000E+03</pdfrwt>
<pdfrwt beam="2">0</pdfrwt>
<totfact> 0.46790120E+04</totfact>
</mgrwt>
</event>
<event>
 6    1  0.1270461E-001  0.3000000E+03  0.7818608E-02  0.1093470E+00
         21   -1    0    0  501  502  0.00000000000E+00  0.00000000000E+00  0.19092086265E+01  0.19092086265E+01  0.00000000000E+00 0. -1.
         13   -1    0    0    0    0 -0.00000000000E+00 -0.00000000000E+00 -0.10000000000E+04  0.10000000000E+04  0.00000000000E+00 0.  1.
    9000005    2    1    2  501    0  0.28365480060E+02 -0.19996013544E+02 -0.80292226918E+03  0.80367905685E+03  0.33786185491E+01 0.  0.
         13    1    3    3    0    0  0.20112606928E+02 -0.12449688158E+02 -0.56104676261E+03  0.56154517319E+03  0.00000000000E+00 0.  1.
          1    1    3    3  501    0  0.82528731319E+01 -0.75463253854E+01 -0.24187550657E+03  0.24213388367E+03  0.00000000000E+00 0.  1.
         -3    1    1    2    0  502 -0.28365480060E+02  0.19996013544E+02 -0.19516852219E+03  0.19823015177E+03  0.00000000000E+00 0. -1.
<mgrwt>
<rscale>  1 0.30000000E+03</rscale>
<asrwt>0</asrwt>
<pdfrwt beam="1">  1       21 0.69425915E-02 0.30000000E+03</pdfrwt>
<pdfrwt beam="2">0</pdfrwt>
<totfact> 0.16368120E+04</totfact>
</mgrwt>
</event>
<event>
 6    1  0.1270461E-001  0.3000000E+03  0.7818608E-02  0.1093470E+00
         21   -1    0    0  501  502  0.00000000000E+00  0.00000000000E+00  0.30803553540E+01  0.30803553540E+01  0.00000000000E+00 0. -1.
         13   -1    0    0    0    0 -0.00000000000E+00 -0.00000000000E+00 -0.10000000000E+04  0.10000000000E+04  0.00000000000E+00 0.  1.
    9000005    2    1    2  501    0 -0.46352926707E+00 -0.52108269615E+02 -0.32757510643E+03  0.33171041452E+03  0.32957736309E+01 0.  0.
         13    1    3    3    0    0 -0.45941569518E+00 -0.40466399907E+02 -0.26273961185E+03  0.26583800371E+03  0.00000000000E+00 0.  1.
          1    1    3    3  501    0 -0.41135718900E-02 -0.11641869708E+02 -0.64835494583E+02  0.65872410804E+02  0.00000000000E+00 0.  1.
         -3    1    1    2    0  502  0.46352926707E+00  0.52108269615E+02 -0.66934453821E+03  0.67136994084E+03  0.00000000000E+00 0. -1.
<mgrwt>
<rscale>  1 0.30000000E+03</rscale>
<asrwt>0</asrwt>
<pdfrwt beam="1">  1       21 0.11201316E-01 0.30000000E+03</pdfrwt>
<pdfrwt beam="2">0</pdfrwt>
<totfact> 0.70190332E+03</totfact>
</mgrwt>
</event>
<event>
 6    1  0.1270461E-001  0.3000000E+03  0.7818608E-02  0.1093470E+00
         21   -1    0    0  501  502  0.00000000000E+00  0.00000000000E+00  0.19433889639E+01  0.19433889639E+01  0.00000000000E+00 0. -1.
         13   -1    0    0    0    0 -0.00000000000E+00 -0.00000000000E+00 -0.10000000000E+04  0.10000000000E+04  0.00000000000E+00 0.  1.
    9000005    2    1    2  501    0 -0.31913447003E+02 -0.18960307709E+02 -0.76589337668E+03  0.76683122689E+03  0.77139305517E+01 0.  0.
         13    1    3    3    0    0 -0.18549561168E+02 -0.68985763810E+01 -0.37039135489E+03  0.37091971147E+03  0.00000000000E+00 0.  1.
          3    1    3    3  501    0 -0.13363885835E+02 -0.12061731328E+02 -0.39550202178E+03  0.39591151542E+03  0.00000000000E+00 0.  1.
         -3    1    1    2    0  502  0.31913447003E+02  0.18960307709E+02 -0.23216323436E+03  0.23511216208E+03  0.00000000000E+00 0. -1.
<mgrwt>
<rscale>  1 0.30000000E+03</rscale>
<asrwt>0</asrwt>
<pdfrwt beam="1">  1       21 0.70668839E-02 0.30000000E+03</pdfrwt>
<pdfrwt beam="2">0</pdfrwt>
<totfact> 0.15870349E+04</totfact>
</mgrwt>
</event>
<event>
 6    1  0.1270461E-001  0.3000000E+03  0.7818608E-02  0.1093470E+00
         21   -1    0    0  501  502  0.00000000000E+00  0.00000000000E+00  0.12517170424E+01  0.12517170424E+01  0.00000000000E+00 0. -1.
         13   -1    0    0    0    0 -0.00000000000E+00 -0.00000000000E+00 -0.10000000000E+04  0.10000000000E+04  0.00000000000E+00 0.  1.
    9000005    2    1    2  501    0 -0.46509034766E+01 -0.32311377145E+02 -0.69050928563E+03  0.69128892013E+03  0.34119726043E+01 0.  0.
         13    1    3    3    0    0 -0.41458978602E-01 -0.83236067153E+01 -0.19616130973E+03  0.19633783024E+03  0.00000000000E+00 0.  1.
          1    1    3    3  501    0 -0.46094444980E+01 -0.23987770430E+02 -0.49434797590E+03  0.49495108989E+03  0.00000000000E+00 0.  1.
         -3    1    1    2    0  502  0.46509034766E+01  0.32311377145E+02 -0.30823899732E+03  0.30996279691E+03  0.00000000000E+00 0. -1.
<mgrwt>
<rscale>  1 0.30000000E+03</rscale>
<asrwt>0</asrwt>
<pdfrwt beam="1">  1       21 0.45517079E-02 0.30000000E+03</pdfrwt>
<pdfrwt beam="2">0</pdfrwt>
<totfact> 0.33796267E+04</totfact>
</mgrwt>
</event>
<event>
 6    1  0.1270461E-001  0.3000000E+03  0.7818608E-02  0.1093470E+00
         21   -1    0    0  501  502  0.00000000000E+00  0.00000000000E+00  0.14203866630E+01  0.14203866630E+01  0.00000000000E+00 0. -1.
         13   -1    0    0    0    0 -0.00000000000E+00 -0.00000000000E+00 -0.10000000000E+04  0.10000000000E+04  0.00000000000E+00 0.  1.
    9000005    2    1    2  501    0 -0.27930333610E+02 -0.11356367893E+02 -0.20120052972E+03  0.20347146999E+03  0.31488591002E+01 0.  0.
         13    1    3    3    0    0 -0.14006379958E+02 -0.40183471242E+01 -0.95041663197E+02  0.96152189452E+02  0.00000000000E+00 0.  1.
          1    1    3    3  501    0 -0.13923953651E+02 -0.73380207685E+01 -0.10615886652E+03  0.10731928054E+03  0.00000000000E+00 0.  1.
         -1    1    1    2    0  502  0.27930333610E+02  0.11356367893E+02 -0.79737908362E+03  0.79794891667E+03  0.00000000000E+00 0. -1.
<mgrwt>
<rscale>  1 0.30000000E+03</rscale>
<asrwt>0</asrwt>
<pdfrwt beam="1">  1       21 0.51650533E-02 0.30000000E+03</pdfrwt>
<pdfrwt beam="2">0</pdfrwt>
<totfact> 0.27251953E+04</totfact>
</mgrwt>
</event>
<event>
 6    1  0.1270461E-001  0.3000000E+03  0.7818608E-02  0.1093470E+00
         21   -1    0    0  501  502  0.00000000000E+00  0.00000000000E+00  0.10675869336E+01  0.10675869336E+01  0.00000000000E+00 0. -1.
         13   -1    0    0    0    0 -0.00000000000E+00 -0.00000000000E+00 -0.10000000000E+04  0.10000000000E+04  0.00000000000E+00 0.  1.
    9000005    2    1    2  501    0  0.17882666141E+02  0.25049367260E+02 -0.33869526195E+03  0.34011346124E+03  0.39275317063E+01 0.  0.
         13    1    3    3    0    0  0.88310734492E+01  0.15664534431E+02 -0.19967191253E+03  0.20048001933E+03  0.00000000000E+00 0.  1.
          3    1    3    3  501    0  0.90515926917E+01  0.93848328290E+01 -0.13902334942E+03  0.13963344191E+03  0.00000000000E+00 0.  1.
         -1    1    1    2    0  502 -0.17882666141E+02 -0.25049367260E+02 -0.66023715112E+03  0.66095412569E+03  0.00000000000E+00 0. -1.
<mgrwt>
<rscale>  1 0.30000000E+03</rscale>
<asrwt>0</asrwt>
<pdfrwt beam="1">  1       21 0.38821425E-02 0.30000000E+03</pdfrwt>
<pdfrwt beam="2">0</pdfrwt>
<totfact> 0.44217648E+04</totfact>
</mgrwt>
</event>
<event>
 6    1  0.1270461E-001  0.3000000E+03  0.7818608E-02  0.1093470E+00
         21   -1    0    0  501  502  0.00000000000E+00  0.00000000000E+00  0.42866530591E+01  0.42866530591E+01  0.00000000000E+00 0. -1.
         13   -1    0    0    0    0 -0.00000000000E+00 -0.00000000000E+00 -0.10000000000E+04  0.10000000000E+04  0.00000000000E+00 0.  1.
    9000005    2    1    2  501    0 -0.36058731681E+02 -0.10168914100E+02 -0.90958037091E+03  0.91035833729E+03  0.34945919345E+01 0.  0.
         13    1    3    3    0    0 -0.21212030237E+02 -0.44078151520E+01 -0.50405760075E+03  0.50452298653E+03  0.00000000000E+00 0.  1.
          1    1    3    3  501    0 -0.14846701444E+02 -0.57610989479E+01 -0.40552277016E+03  0.40583535076E+03  0.00000000000E+00 0.  1.
         -1    1    1    2    0  502  0.36058731681E+02  0.10168914100E+02 -0.86132976027E+02  0.93928315771E+02  0.00000000000E+00 0. -1.
<mgrwt>
<rscale>  1 0.30000000E+03</rscale>
<asrwt>0</asrwt>
<pdfrwt beam="1">  1       21 0.15587862E-01 0.30000000E+03</pdfrwt>
<pdfrwt beam="2">0</pdfrwt>
<totfact> 0.38345513E+03</totfact>
</mgrwt>
</event>
<event>
 6    1  0.1270461E-001  0.3000000E+03  0.7818608E-02  0.1093470E+00
         21   -1    0    0  501  502  0.00000000000E+00  0.00000000000E+00  0.26938315337E+01  0.26938315337E+01  0.00000000000E+00 0. -1.
         13   -1    0    0    0    0 -0.00000000000E+00 -0.00000000000E+00 -0.10000000000E+04  0.10000000000E+04  0.00000000000E+00 0.  1.
    9000005    2    1    2  501    0  0.39394991696E+02 -0.15747598437E+02 -0.78711001973E+03  0.78825882233E+03  0.31361758782E+01 0.  0.
         13    1    3    3    0    0  0.14438837467E+02 -0.67475737005E+01 -0.31832224828E+03  0.31872098069E+03  0.00000000000E+00 0.  1.
          1    1    3    3  501    0  0.24956154229E+02 -0.90000247369E+01 -0.46878777144E+03  0.46953784164E+03  0.00000000000E+00 0.  1.
         -1    1    1    2    0  502 -0.39394991696E+02  0.15747598437E+02 -0.21019614874E+03  0.21443500920E+03  0.00000000000E+00 0. -1.
<mgrwt>
<rscale>  1 0.30000000E+03</rscale>
<asrwt>0</asrwt>
<pdfrwt beam="1">  1       21 0.97957717E-02 0.30000000E+03</pdfrwt>
<pdfrwt beam="2">0</pdfrwt>
<totfact> 0.89261215E+03</totfact>
</mgrwt>
</event>
<event>
 6    1  0.1270461E-001  0.3000000E+03  0.7818608E-02  0.1093470E+00
         21   -1    0    0  501  502  0.00000000000E+00  0.00000000000E+00  0.10518992029E+01  0.10518992029E+01  0.00000000000E+00 0. -1.
         13   -1    0    0    0    0 -0.00000000000E+00 -0.00000000000E+00 -0.10000000000E+04  0.10000000000E+04  0.00000000000E+00 0.  1.
    9000005    2    1    2  501    0  0.31797255346E+02 -0.33136530547E+01 -0.57438079244E+03  0.57528265997E+03  0.38468693429E+01 0.  0.
         13    1    3    3    0    0  0.27094175931E+02 -0.40028674585E+01 -0.50102812478E+03  0.50177614444E+03  0.00000000000E+00 0.  1.
          1    1    3    3  501    0  0.47030794151E+01  0.68921440387E+00 -0.73352667659E+02  0.73506515529E+02  0.00000000000E+00 0.  1.
         -3    1    1    2    0  502 -0.31797255346E+02  0.33136530547E+01 -0.42456730836E+03  0.42576923923E+03  0.00000000000E+00 0. -1.
<mgrwt>
<rscale>  1 0.30000000E+03</rscale>
<asrwt>0</asrwt>
<pdfrwt beam="1">  1       21 0.38250961E-02 0.30000000E+03</pdfrwt>
<pdfrwt beam="2">0</pdfrwt>
<totfact> 0.45331881E+04</totfact>
</mgrwt>
</event>
<event>
 6    1  0.1270461E-001  0.3000000E+03  0.7818608E-02  0.1093470E+00
         21   -1    0    0  501  502  0.00000000000E+00  0.00000000000E+00  0.19936059396E+01  0.19936059396E+01  0.00000000000E+00 0. -1.
         13   -1    0    0    0    0 -0.00000000000E+00 -0.00000000000E+00 -0.10000000000E+04  0.10000000000E+04  0.00000000000E+00 0.  1.
    9000005    2    1    2  501    0 -0.25285834399E+02  0.31758957859E+02 -0.70673067640E+03  0.70790255112E+03  0.31253949567E+01 0.  0.
         13    1    3    3    0    0 -0.63341450693E+01  0.68740859572E+01 -0.14377352448E+03  0.14407706546E+03  0.00000000000E+00 0.  1.
          1    1    3    3  501    0 -0.18951689329E+02  0.24884871902E+02 -0.56295715192E+03  0.56382548566E+03  0.00000000000E+00 0.  1.
         -1    1    1    2    0  502  0.25285834399E+02 -0.31758957859E+02 -0.29127571766E+03  0.29409105482E+03  0.00000000000E+00 0. -1.
<mgrwt>
<rscale>  1 0.30000000E+03</rscale>
<asrwt>0</asrwt>
<pdfrwt beam="1">  1       21 0.72494914E-02 0.30000000E+03</pdfrwt>
<pdfrwt beam="2">0</pdfrwt>
<totfact> 0.15179860E+04</totfact>
</mgrwt>
</event>
<event>
 6    1  0.1270461E-001  0.3000000E+03  0.7818608E-02  0.1093470E+00
         21   -1    0    0  501  502  0.00000000000E+00  0.00000000000E+00  0.13391667126E+01  0.13391667126E+01  0.00000000000E+00 0. -1.
         13   -1    0    0    0    0 -0.00000000000E+00 -0.00000000000E+00 -0.10000000000E+04  0.10000000000E+04  0.00000000000E+00 0.  1.
    9000005    2    1    2  501    0  0.22077868148E+02 -0.24752021690E+02 -0.70961144609E+03  0.71039304957E+03  0.31281974398E+01 0.  0.
         13    1    3    3    0    0  0.13521510243E+02 -0.16094031019E+02 -0.47797576703E+03  0.47843775242E+03  0.00000000000E+00 0.  1.
          1    1    3    3  501    0  0.85563579058E+01 -0.86579906712E+01 -0.23163567906E+03  0.23195529715E+03  0.00000000000E+00 0.  1.
         -1    1    1    2    0  502 -0.22077868148E+02  0.24752021690E+02 -0.28904938720E+03  0.29094611714E+03  0.00000000000E+00 0. -1.
<mgrwt>
<rscale>  1 0.30000000E+03</rscale>
<asrwt>0</asrwt>
<pdfrwt beam="1">  1       21 0.48697074E-02 0.30000000E+03</pdfrwt>
<pdfrwt beam="2">0</pdfrwt>
<totfact> 0.30129975E+04</totfact>
</mgrwt>
</event>
<event>
 6    1  0.1270461E-001  0.3000000E+03  0.7818608E-02  0.1093470E+00
         21   -1    0    0  501  502  0.00000000000E+00  0.00000000000E+00  0.19985964438E+01  0.19985964438E+01  0.00000000000E+00 0. -1.
         13   -1    0    0    0    0 -0.00000000000E+00 -0.00000000000E+00 -0.10000000000E+04  0.10000000000E+04  0.00000000000E+00 0.  1.
    9000005    2    1    2  501    0  0.27414166359E+02 -0.29477405531E+02 -0.71489892615E+03  0.71604848425E+03  0.49500729841E+01 0.  0.
         13    1    3    3    0    0  0.13433993797E+02 -0.11282273510E+02 -0.33062962250E+03  0.33109471327E+03  0.00000000000E+00 0.  1.
          3    1    3    3  501    0  0.13980172562E+02 -0.18195132021E+02 -0.38426930366E+03  0.38495377097E+03  0.00000000000E+00 0.  1.
         -1    1    1    2    0  502 -0.27414166359E+02  0.29477405531E+02 -0.28310247740E+03  0.28595011220E+03  0.00000000000E+00 0. -1.
<mgrwt>
<rscale>  1 0.30000000E+03</rscale>
<asrwt>0</asrwt>
<pdfrwt beam="1">  1       21 0.72676388E-02 0.30000000E+03</pdfrwt>
<pdfrwt beam="2">0</pdfrwt>
<totfact> 0.15113747E+04</totfact>
</mgrwt>
</event>
<event>
 6    1  0.1270461E-001  0.3000000E+03  0.7818608E-02  0.1093470E+00
         21   -1    0    0  501  502  0.00000000000E+00  0.00000000000E+00  0.93418951996E+00  0.93418951996E+00  0.00000000000E+00 0. -1.
         13   -1    0    0    0    0 -0.00000000000E+00 -0.00000000000E+00 -0.10000000000E+04  0.10000000000E+04  0.00000000000E+00 0.  1.
    9000005    2    1    2  501    0  0.30145867748E+02  0.80583552367E+00 -0.42941571684E+03  0.43048642513E+03  0.33588151250E+01 0.  0.
         13    1    3    3    0    0  0.24242303803E+02 -0.39498490501E+00 -0.35527210363E+03  0.35609845959E+03  0.00000000000E+00 0.  1.
          3    1    3    3  501    0  0.59035639442E+01  0.12008204287E+01 -0.74143613219E+02  0.74387965546E+02  0.00000000000E+00 0.  1.
         -1    1    1    2    0  502 -0.30145867748E+02 -0.80583552367E+00 -0.56965009364E+03  0.57044776439E+03  0.00000000000E+00 0. -1.
<mgrwt>
<rscale>  1 0.30000000E+03</rscale>
<asrwt>0</asrwt>
<pdfrwt beam="1">  1       21 0.33970600E-02 0.30000000E+03</pdfrwt>
<pdfrwt beam="2">0</pdfrwt>
<totfact> 0.55310921E+04</totfact>
</mgrwt>
</event>
<event>
 6    1  0.1270461E-001  0.3000000E+03  0.7818608E-02  0.1093470E+00
         21   -1    0    0  501  502  0.00000000000E+00  0.00000000000E+00  0.21675359231E+01  0.21675359231E+01  0.00000000000E+00 0. -1.
         13   -1    0    0    0    0 -0.00000000000E+00 -0.00000000000E+00 -0.10000000000E+04  0.10000000000E+04  0.00000000000E+00 0.  1.
    9000005    2    1    2  501    0  0.32002683543E+02 -0.12905595364E+01 -0.86236337393E+03  0.86296368654E+03  0.31461552749E+01 0.  0.
         13    1    3    3    0    0  0.24625362684E+02  0.31445629267E+00 -0.65313419598E+03  0.65359833638E+03  0.00000000000E+00 0.  1.
          3    1    3    3  501    0  0.73773208584E+01 -0.16050158291E+01 -0.20922917795E+03  0.20936535016E+03  0.00000000000E+00 0.  1.
         -1    1    1    2    0  502 -0.32002683543E+02  0.12905595364E+01 -0.13546909015E+03  0.13920384938E+03  0.00000000000E+00 0. -1.
<mgrwt>
<rscale>  1 0.30000000E+03</rscale>
<asrwt>0</asrwt>
<pdfrwt beam="1">  1       21 0.78819654E-02 0.30000000E+03</pdfrwt>
<pdfrwt beam="2">0</pdfrwt>
<totfact> 0.13111625E+04</totfact>
</mgrwt>
</event>
<event>
 6    1  0.1270461E-001  0.3000000E+03  0.7818608E-02  0.1093470E+00
         21   -1    0    0  501  502  0.00000000000E+00  0.00000000000E+00  0.37795343347E+01  0.37795343347E+01  0.00000000000E+00 0. -1.
         13   -1    0    0    0    0 -0.00000000000E+00 -0.00000000000E+00 -0.10000000000E+04  0.10000000000E+04  0.00000000000E+00 0.  1.
    9000005    2    1    2  501    0  0.47469956342E+02  0.14049367770E+02 -0.79541970724E+03  0.79696627056E+03  0.34560456385E+01 0.  0.
         13    1    3    3    0    0  0.44566771065E+02  0.13797416992E+02 -0.73873116583E+03  0.74020287839E+03  0.00000000000E+00 0.  1.
          1    1    3    3  501    0  0.29031852771E+01  0.25195077746E+00 -0.56688541409E+02  0.56763392173E+02  0.00000000000E+00 0.  1.
         -3    1    1    2    0  502 -0.47469956342E+02 -0.14049367770E+02 -0.20080075842E+03  0.20681326378E+03  0.00000000000E+00 0. -1.
<mgrwt>
<rscale>  1 0.30000000E+03</rscale>
<asrwt>0</asrwt>
<pdfrwt beam="1">  1       21 0.13743790E-01 0.30000000E+03</pdfrwt>
<pdfrwt beam="2">0</pdfrwt>
<totfact> 0.48379693E+03</totfact>
</mgrwt>
</event>
<event>
 6    1  0.1270461E-001  0.3000000E+03  0.7818608E-02  0.1093470E+00
         21   -1    0    0  501  502  0.00000000000E+00  0.00000000000E+00  0.21861795735E+02  0.21861795735E+02  0.00000000000E+00 0. -1.
         13   -1    0    0    0    0 -0.00000000000E+00 -0.00000000000E+00 -0.10000000000E+04  0.10000000000E+04  0.00000000000E+00 0.  1.
    9000005    2    1    2  501    0 -0.58642567051E+02  0.58580758128E+01 -0.95763989281E+03  0.95946429182E+03  0.49290211585E+01 0.  0.
         13    1    3    3    0    0 -0.45590655260E+02  0.30149920199E+01 -0.76258108049E+03  0.76394862546E+03  0.00000000000E+00 0.  1.
          1    1    3    3  501    0 -0.13051911791E+02  0.28430837929E+01 -0.19505881232E+03  0.19551566636E+03  0.00000000000E+00 0.  1.
         -3    1    1    2    0  502  0.58642567051E+02 -0.58580758128E+01 -0.20498311455E+02  0.62397503917E+02  0.00000000000E+00 0. -1.
<mgrwt>
<rscale>  1 0.30000000E+03</rscale>
<asrwt>0</asrwt>
<pdfrwt beam="1">  1       21 0.79497607E-01 0.30000000E+03</pdfrwt>
<pdfrwt beam="2">0</pdfrwt>
<totfact> 0.13066014E+02</totfact>
</mgrwt>
</event>
<event>
 6    1  0.1270461E-001  0.3000000E+03  0.7818608E-02  0.1093470E+00
         21   -1    0    0  501  502  0.00000000000E+00  0.00000000000E+00  0.13099578820E+01  0.13099578820E+01  0.00000000000E+00 0. -1.
         13   -1    0    0    0    0 -0.00000000000E+00 -0.00000000000E+00 -0.10000000000E+04  0.10000000000E+04  0.00000000000E+00 0.  1.
    9000005    2    1    2  501    0 -0.33869162000E+02 -0.26921676784E+01 -0.66871322071E+03  0.66958858298E+03  0.41389613658E+01 0.  0.
         13    1    3    3    0    0 -0.10801868896E+02 -0.21603124350E+01 -0.18893832603E+03  0.18925918304E+03  0.00000000000E+00 0.  1.
          3    1    3    3  501    0 -0.23067293105E+02 -0.53185524339E+00 -0.47977489468E+03  0.48032939994E+03  0.00000000000E+00 0.  1.
         -3    1    1    2    0  502  0.33869162000E+02  0.26921676784E+01 -0.32997682141E+03  0.33172137490E+03  0.00000000000E+00 0. -1.
<mgrwt>
<rscale>  1 0.30000000E+03</rscale>
<asrwt>0</asrwt>
<pdfrwt beam="1">  1       21 0.47634933E-02 0.30000000E+03</pdfrwt>
<pdfrwt beam="2">0</pdfrwt>
<totfact> 0.31282244E+04</totfact>
</mgrwt>
</event>
<event>
 6    1  0.1270461E-001  0.3000000E+03  0.7818608E-02  0.1093470E+00
         21   -1    0    0  501  502  0.00000000000E+00  0.00000000000E+00  0.85322116487E+01  0.85322116487E+01  0.00000000000E+00 0. -1.
         13   -1    0    0    0    0 -0.00000000000E+00 -0.00000000000E+00 -0.10000000000E+04  0.10000000000E+04  0.00000000000E+00 0.  1.
    9000005    2    1    2  501    0  0.61234841692E+02 -0.26727596261E+02 -0.84323974982E+03  0.84594186247E+03  0.10014427856E+02 0.  0.
         13    1    3    3    0    0  0.55205347210E+02 -0.23392639482E+02 -0.78722026559E+03  0.78950021691E+03  0.00000000000E+00 0.  1.
          3    1    3    3  501    0  0.60294944819E+01 -0.33349567794E+01 -0.56019484228E+02  0.56441645561E+02  0.00000000000E+00 0.  1.
         -1    1    1    2    0  502 -0.61234841692E+02  0.26727596261E+02 -0.14822803853E+03  0.16259034918E+03  0.00000000000E+00 0. -1.
<mgrwt>
<rscale>  1 0.30000000E+03</rscale>
<asrwt>0</asrwt>
<pdfrwt beam="1">  1       21 0.31026290E-01 0.30000000E+03</pdfrwt>
<pdfrwt beam="2">0</pdfrwt>
<totfact> 0.10163504E+03</totfact>
</mgrwt>
</event>
<event>
 6    1  0.1270461E-001  0.3000000E+03  0.7818608E-02  0.1093470E+00
         21   -1    0    0  501  502  0.00000000000E+00  0.00000000000E+00  0.99297217021E+00  0.99297217021E+00  0.00000000000E+00 0. -1.
         13   -1    0    0    0    0 -0.00000000000E+00 -0.00000000000E+00 -0.10000000000E+04  0.10000000000E+04  0.00000000000E+00 0.  1.
    9000005    2    1    2  501    0 -0.26046584767E+02 -0.17394631583E+02 -0.46885274210E+03  0.46991429206E+03  0.39433900601E+01 0.  0.
         13    1    3    3    0    0 -0.11888880176E+02 -0.10298957779E+02 -0.23071954977E+03  0.23125510729E+03  0.00000000000E+00 0.  1.
          1    1    3    3  501    0 -0.14157704591E+02 -0.70956738042E+01 -0.23813319233E+03  0.23865918477E+03  0.00000000000E+00 0.  1.
         -3    1    1    2    0  502  0.26046584767E+02  0.17394631583E+02 -0.53015428573E+03  0.53107868011E+03  0.00000000000E+00 0. -1.
<mgrwt>
<rscale>  1 0.30000000E+03</rscale>
<asrwt>0</asrwt>
<pdfrwt beam="1">  1       21 0.36108155E-02 0.30000000E+03</pdfrwt>
<pdfrwt beam="2">0</pdfrwt>
<totfact> 0.49938450E+04</totfact>
</mgrwt>
</event>
<event>
 6    1  0.1270461E-001  0.3000000E+03  0.7818608E-02  0.1093470E+00
         21   -1    0    0  501  502  0.00000000000E+00  0.00000000000E+00  0.58912655590E+01  0.58912655590E+01  0.00000000000E+00 0. -1.
         13   -1    0    0    0    0 -0.00000000000E+00 -0.00000000000E+00 -0.10000000000E+04  0.10000000000E+04  0.00000000000E+00 0.  1.
    9000005    2    1    2  501    0 -0.69778751303E+02  0.16010181346E+02 -0.31863850424E+03  0.32663768115E+03  0.60231490746E+01 0.  0.
         13    1    3    3    0    0 -0.18905858309E+02  0.45096989217E+01 -0.74849153625E+02  0.77331524369E+02  0.00000000000E+00 0.  1.
          1    1    3    3  501    0 -0.50872892994E+02  0.11500482425E+02 -0.24378935061E+03  0.24930615678E+03  0.00000000000E+00 0.  1.
         -1    1    1    2    0  502  0.69778751303E+02 -0.16010181346E+02 -0.67547023020E+03  0.67925358441E+03  0.00000000000E+00 0. -1.
<mgrwt>
<rscale>  1 0.30000000E+03</rscale>
<asrwt>0</asrwt>
<pdfrwt beam="1">  1       21 0.21422829E-01 0.30000000E+03</pdfrwt>
<pdfrwt beam="2">0</pdfrwt>
<totfact> 0.21034158E+03</totfact>
</mgrwt>
</event>
<event>
 6    1  0.1270461E-001  0.3000000E+03  0.7818608E-02  0.1093470E+00
         21   -1    0    0  501  502  0.00000000000E+00  0.00000000000E+00  0.19975942202E+01  0.19975942202E+01  0.00000000000E+00 0. -1.
         13   -1    0    0    0    0 -0.00000000000E+00 -0.00000000000E+00 -0.10000000000E+04  0.10000000000E+04  0.00000000000E+00 0.  1.
    9000005    2    1    2  501    0 -0.38960612990E+02  0.21716614002E+01 -0.74227062368E+03  0.74330590542E+03  0.39172410836E+01 0.  0.
         13    1    3    3    0    0 -0.24841359285E+02  0.51264713580E+00 -0.43964921736E+03  0.44035075822E+03  0.00000000000E+00 0.  1.
          1    1    3    3  501    0 -0.14119253706E+02  0.16590142644E+01 -0.30262140632E+03  0.30295514720E+03  0.00000000000E+00 0.  1.
         -1    1    1    2    0  502  0.38960612990E+02 -0.21716614002E+01 -0.25573178210E+03  0.25869168880E+03  0.00000000000E+00 0. -1.
<mgrwt>
<rscale>  1 0.30000000E+03</rscale>
<asrwt>0</asrwt>
<pdfrwt beam="1">  1       21 0.72639943E-02 0.30000000E+03</pdfrwt>
<pdfrwt beam="2">0</pdfrwt>
<totfact> 0.15126989E+04</totfact>
</mgrwt>
</event>
<event>
 6    1  0.1270461E-001  0.3000000E+03  0.7818608E-02  0.1093470E+00
         21   -1    0    0  501  502  0.00000000000E+00  0.00000000000E+00  0.13175121251E+01  0.13175121251E+01  0.00000000000E+00 0. -1.
         13   -1    0    0    0    0 -0.00000000000E+00 -0.00000000000E+00 -0.10000000000E+04  0.10000000000E+04  0.00000000000E+00 0.  1.
    9000005    2    1    2  501    0 -0.29545504943E+02 -0.97051654320E+01 -0.75150343112E+03  0.75218980753E+03  0.80605501772E+01 0.  0.
         13    1    3    3    0    0 -0.13097006646E+02 -0.66925469334E+01 -0.43042927326E+03  0.43068048603E+03  0.00000000000E+00 0.  1.
          1    1    3    3  501    0 -0.16448498297E+02 -0.30126184986E+01 -0.32107415786E+03  0.32150932150E+03  0.00000000000E+00 0.  1.
         -1    1    1    2    0  502  0.29545504943E+02  0.97051654320E+01 -0.24717905675E+03  0.24912770459E+03  0.00000000000E+00 0. -1.
<mgrwt>
<rscale>  1 0.30000000E+03</rscale>
<asrwt>0</asrwt>
<pdfrwt beam="1">  1       21 0.47909633E-02 0.30000000E+03</pdfrwt>
<pdfrwt beam="2">0</pdfrwt>
<totfact> 0.30977710E+04</totfact>
</mgrwt>
</event>
<event>
 6    1  0.1270461E-001  0.3000000E+03  0.7818608E-02  0.1093470E+00
         21   -1    0    0  501  502  0.00000000000E+00  0.00000000000E+00  0.22969255141E+01  0.22969255141E+01  0.00000000000E+00 0. -1.
         13   -1    0    0    0    0 -0.00000000000E+00 -0.00000000000E+00 -0.10000000000E+04  0.10000000000E+04  0.00000000000E+00 0.  1.
    9000005    2    1    2  501    0  0.26014505768E+02 -0.15162605650E+02 -0.88858752109E+03  0.88910300734E+03  0.31170322489E+01 0.  0.
         13    1    3    3    0    0  0.22787298454E+02 -0.14144088941E+02 -0.76871321817E+03  0.76918094621E+03  0.00000000000E+00 0.  1.
          3    1    3    3  501    0  0.32272073142E+01 -0.10185167085E+01 -0.11987430292E+03  0.11992206112E+03  0.00000000000E+00 0.  1.
         -3    1    1    2    0  502 -0.26014505768E+02  0.15162605650E+02 -0.10911555339E+03  0.11319391818E+03  0.00000000000E+00 0. -1.
<mgrwt>
<rscale>  1 0.30000000E+03</rscale>
<asrwt>0</asrwt>
<pdfrwt beam="1">  1       21 0.83524740E-02 0.30000000E+03</pdfrwt>
<pdfrwt beam="2">0</pdfrwt>
<totfact> 0.11841032E+04</totfact>
</mgrwt>
</event>
<event>
 6    1  0.1270461E-001  0.3000000E+03  0.7818608E-02  0.1093470E+00
         21   -1    0    0  501  502  0.00000000000E+00  0.00000000000E+00  0.10677555075E+01  0.10677555075E+01  0.00000000000E+00 0. -1.
         13   -1    0    0    0    0 -0.00000000000E+00 -0.00000000000E+00 -0.10000000000E+04  0.10000000000E+04  0.00000000000E+00 0.  1.
    9000005    2    1    2  501    0  0.31016707518E+02  0.87058676717E+01 -0.42933954419E+03  0.43056475594E+03  0.39669352856E+01 0.  0.
         13    1    3    3    0    0  0.18182717623E+02  0.64209499313E+01 -0.23622965902E+03  0.23701538266E+03  0.00000000000E+00 0.  1.
          1    1    3    3  501    0  0.12833989895E+02  0.22849177405E+01 -0.19310988517E+03  0.19354937328E+03  0.00000000000E+00 0.  1.
         -3    1    1    2    0  502 -0.31016707518E+02 -0.87058676717E+01 -0.56959270030E+03  0.57050299957E+03  0.00000000000E+00 0. -1.
<mgrwt>
<rscale>  1 0.30000000E+03</rscale>
<asrwt>0</asrwt>
<pdfrwt beam="1">  1       21 0.38827555E-02 0.30000000E+03</pdfrwt>
<pdfrwt beam="2">0</pdfrwt>
<totfact> 0.44205909E+04</totfact>
</mgrwt>
</event>
<event>
 6    1  0.1270461E-001  0.3000000E+03  0.7818608E-02  0.1093470E+00
         21   -1    0    0  501  502  0.00000000000E+00  0.00000000000E+00  0.21924657602E+01  0.21924657602E+01  0.00000000000E+00 0. -1.
         13   -1    0    0    0    0 -0.00000000000E+00 -0.00000000000E+00 -0.10000000000E+04  0.10000000000E+04  0.00000000000E+00 0.  1.
    9000005    2    1    2  501    0  0.18576691434E+01  0.38876969711E+02 -0.77699601140E+03  0.77797694817E+03  0.32342614050E+01 0.  0.
         13    1    3    3    0    0  0.43639735401E+00  0.37360441186E+01 -0.58628100891E+02  0.58748639834E+02  0.00000000000E+00 0.  1.
          1    1    3    3  501    0  0.14212717894E+01  0.35140925593E+02 -0.71836791051E+03  0.71922830834E+03  0.00000000000E+00 0.  1.
         -1    1    1    2    0  502 -0.18576691434E+01 -0.38876969711E+02 -0.22081152284E+03  0.22421551759E+03  0.00000000000E+00 0. -1.
<mgrwt>
<rscale>  1 0.30000000E+03</rscale>
<asrwt>0</asrwt>
<pdfrwt beam="1">  1       21 0.79726196E-02 0.30000000E+03</pdfrwt>
<pdfrwt beam="2">0</pdfrwt>
<totfact> 0.12851016E+04</totfact>
</mgrwt>
</event>
<event>
 6    1  0.1270461E-001  0.3000000E+03  0.7818608E-02  0.1093470E+00
         21   -1    0    0  501  502  0.00000000000E+00  0.00000000000E+00  0.22510950335E+01  0.22510950335E+01  0.00000000000E+00 0. -1.
         13   -1    0    0    0    0 -0.00000000000E+00 -0.00000000000E+00 -0.10000000000E+04  0.10000000000E+04  0.00000000000E+00 0.  1.
    9000005    2    1    2  501    0 -0.49127264902E+00 -0.39785802971E+02 -0.22757045931E+03  0.23104555199E+03  0.32529489700E+01 0.  0.
         13    1    3    3    0    0 -0.42213030891E+00 -0.34398171271E+02 -0.18973672803E+03  0.19283007634E+03  0.00000000000E+00 0.  1.
          3    1    3    3  501    0 -0.69142340113E-01 -0.53876316997E+01 -0.37833731280E+02  0.38215475643E+02  0.00000000000E+00 0.  1.
         -1    1    1    2    0  502  0.49127264902E+00  0.39785802971E+02 -0.77017844566E+03  0.77120554305E+03  0.00000000000E+00 0. -1.
<mgrwt>
<rscale>  1 0.30000000E+03</rscale>
<asrwt>0</asrwt>
<pdfrwt beam="1">  1       21 0.81858174E-02 0.30000000E+03</pdfrwt>
<pdfrwt beam="2">0</pdfrwt>
<totfact> 0.12268603E+04</totfact>
</mgrwt>
</event>
<event>
 6    1  0.1270461E-001  0.3000000E+03  0.7818608E-02  0.1093470E+00
         21   -1    0    0  501  502  0.00000000000E+00  0.00000000000E+00  0.13034120756E+01  0.13034120756E+01  0.00000000000E+00 0. -1.
         13   -1    0    0    0    0 -0.00000000000E+00 -0.00000000000E+00 -0.10000000000E+04  0.10000000000E+04  0.00000000000E+00 0.  1.
    9000005    2    1    2  501    0 -0.13346474753E+02  0.33442594110E+02 -0.48091327429E+03  0.48226960261E+03  0.31395421873E+01 0.  0.
         13    1    3    3    0    0 -0.55901724254E+01  0.16845312789E+02 -0.22111826366E+03  0.22182944149E+03  0.00000000000E+00 0.  1.
          3    1    3    3  501    0 -0.77563023279E+01  0.16597281321E+02 -0.25979501063E+03  0.26044016111E+03  0.00000000000E+00 0.  1.
         -3    1    1    2    0  502  0.13346474753E+02 -0.33442594110E+02 -0.51778331364E+03  0.51903380947E+03  0.00000000000E+00 0. -1.
<mgrwt>
<rscale>  1 0.30000000E+03</rscale>
<asrwt>0</asrwt>
<pdfrwt beam="1">  1       21 0.47396903E-02 0.30000000E+03</pdfrwt>
<pdfrwt beam="2">0</pdfrwt>
<totfact> 0.31549931E+04</totfact>
</mgrwt>
</event>
<event>
 6    1  0.1270461E-001  0.3000000E+03  0.7818608E-02  0.1093470E+00
         21   -1    0    0  501  502  0.00000000000E+00  0.00000000000E+00  0.16368536799E+01  0.16368536799E+01  0.00000000000E+00 0. -1.
         13   -1    0    0    0    0 -0.00000000000E+00 -0.00000000000E+00 -0.10000000000E+04  0.10000000000E+04  0.00000000000E+00 0.  1.
    9000005    2    1    2  501    0 -0.10005942782E+02 -0.30435701850E+02 -0.80388697987E+03  0.80453933935E+03  0.47771663816E+01 0.  0.
         13    1    3    3    0    0 -0.91727370380E+01 -0.28818291906E+02 -0.77851979888E+03  0.77910699541E+03  0.00000000000E+00 0.  1.
          3    1    3    3  501    0 -0.83320574440E+00 -0.16174099440E+01 -0.25367180990E+02  0.25432343937E+02  0.00000000000E+00 0.  1.
         -3    1    1    2    0  502  0.10005942782E+02  0.30435701850E+02 -0.19447616645E+03  0.19709751433E+03  0.00000000000E+00 0. -1.
<mgrwt>
<rscale>  1 0.30000000E+03</rscale>
<asrwt>0</asrwt>
<pdfrwt beam="1">  1       21 0.59522078E-02 0.30000000E+03</pdfrwt>
<pdfrwt beam="2">0</pdfrwt>
<totfact> 0.21364262E+04</totfact>
</mgrwt>
</event>
<event>
 6    1  0.1270461E-001  0.3000000E+03  0.7818608E-02  0.1093470E+00
         21   -1    0    0  501  502  0.00000000000E+00  0.00000000000E+00  0.11242982074E+01  0.11242982074E+01  0.00000000000E+00 0. -1.
         13   -1    0    0    0    0 -0.00000000000E+00 -0.00000000000E+00 -0.10000000000E+04  0.10000000000E+04  0.00000000000E+00 0.  1.
    9000005    2    1    2  501    0 -0.22991107614E+02  0.20405352313E+02 -0.69657415285E+03  0.69726381060E+03  0.40375400452E+01 0.  0.
         13    1    3    3    0    0 -0.10075622418E+02  0.11613834245E+02 -0.33900658849E+03  0.33935507415E+03  0.00000000000E+00 0.  1.
          1    1    3    3  501    0 -0.12915485196E+02  0.87915180682E+01 -0.35756756436E+03  0.35790873645E+03  0.00000000000E+00 0.  1.
         -1    1    1    2    0  502  0.22991107614E+02 -0.20405352313E+02 -0.30230154895E+03  0.30386048760E+03  0.00000000000E+00 0. -1.
<mgrwt>
<rscale>  1 0.30000000E+03</rscale>
<asrwt>0</asrwt>
<pdfrwt beam="1">  1       21 0.40883657E-02 0.30000000E+03</pdfrwt>
<pdfrwt beam="2">0</pdfrwt>
<totfact> 0.40527352E+04</totfact>
</mgrwt>
</event>
<event>
 6    1  0.1270461E-001  0.3000000E+03  0.7818608E-02  0.1093470E+00
         21   -1    0    0  501  502  0.00000000000E+00  0.00000000000E+00  0.36583063638E+01  0.36583063638E+01  0.00000000000E+00 0. -1.
         13   -1    0    0    0    0 -0.00000000000E+00 -0.00000000000E+00 -0.10000000000E+04  0.10000000000E+04  0.00000000000E+00 0.  1.
    9000005    2    1    2  501    0  0.39719627219E+02 -0.74611268765E+01 -0.87141893033E+03  0.87236088068E+03  0.30392091628E+01 0.  0.
         13    1    3    3    0    0  0.27438554421E+02 -0.43220390530E+01 -0.62247415845E+03  0.62309359829E+03  0.00000000000E+00 0.  1.
          3    1    3    3  501    0  0.12281072798E+02 -0.31390878234E+01 -0.24894477188E+03  0.24926728239E+03  0.00000000000E+00 0.  1.
         -1    1    1    2    0  502 -0.39719627219E+02  0.74611268765E+01 -0.12492276330E+03  0.13129742569E+03  0.00000000000E+00 0. -1.
<mgrwt>
<rscale>  1 0.30000000E+03</rscale>
<asrwt>0</asrwt>
<pdfrwt beam="1">  1       21 0.13302960E-01 0.30000000E+03</pdfrwt>
<pdfrwt beam="2">0</pdfrwt>
<totfact> 0.51356696E+03</totfact>
</mgrwt>
</event>
<event>
 6    1  0.1270461E-001  0.3000000E+03  0.7818608E-02  0.1093470E+00
         21   -1    0    0  501  502  0.00000000000E+00  0.00000000000E+00  0.12924496147E+01  0.12924496147E+01  0.00000000000E+00 0. -1.
         13   -1    0    0    0    0 -0.00000000000E+00 -0.00000000000E+00 -0.10000000000E+04  0.10000000000E+04  0.00000000000E+00 0.  1.
    9000005    2    1    2  501    0  0.35642331337E+02 -0.31104732156E+01 -0.53872265687E+03  0.53991824889E+03  0.30925133757E+01 0.  0.
         13    1    3    3    0    0  0.19358031292E+02 -0.46907286794E+00 -0.27658715213E+03  0.27726414504E+03  0.00000000000E+00 0.  1.
          3    1    3    3  501    0  0.16284300044E+02 -0.26414003477E+01 -0.26213550474E+03  0.26265410385E+03  0.00000000000E+00 0.  1.
         -3    1    1    2    0  502 -0.35642331337E+02  0.31104732156E+01 -0.45998489352E+03  0.46137420072E+03  0.00000000000E+00 0. -1.
<mgrwt>
<rscale>  1 0.30000000E+03</rscale>
<asrwt>0</asrwt>
<pdfrwt beam="1">  1       21 0.46998267E-02 0.30000000E+03</pdfrwt>
<pdfrwt beam="2">0</pdfrwt>
<totfact> 0.32006340E+04</totfact>
</mgrwt>
</event>
<event>
 6    1  0.1270461E-001  0.3000000E+03  0.7818608E-02  0.1093470E+00
         21   -1    0    0  501  502  0.00000000000E+00  0.00000000000E+00  0.33566724159E+01  0.33566724159E+01  0.00000000000E+00 0. -1.
         13   -1    0    0    0    0 -0.00000000000E+00 -0.00000000000E+00 -0.10000000000E+04  0.10000000000E+04  0.00000000000E+00 0.  1.
    9000005    2    1    2  501    0 -0.11817282753E+02  0.37591526676E+02 -0.86587777621E+03  0.86678288109E+03  0.39330111063E+01 0.  0.
         13    1    3    3    0    0 -0.65718329677E+01  0.14490119278E+02 -0.35058918284E+03  0.35095003586E+03  0.00000000000E+00 0.  1.
          1    1    3    3  501    0 -0.52454497851E+01  0.23101407398E+02 -0.51528859336E+03  0.51583284523E+03  0.00000000000E+00 0.  1.
         -3    1    1    2    0  502  0.11817282753E+02 -0.37591526676E+02 -0.13076555138E+03  0.13657379132E+03  0.00000000000E+00 0. -1.
<mgrwt>
<rscale>  1 0.30000000E+03</rscale>
<asrwt>0</asrwt>
<pdfrwt beam="1">  1       21 0.12206107E-01 0.30000000E+03</pdfrwt>
<pdfrwt beam="2">0</pdfrwt>
<totfact> 0.60083230E+03</totfact>
</mgrwt>
</event>
<event>
 6    1  0.1270461E-001  0.3000000E+03  0.7818608E-02  0.1093470E+00
         21   -1    0    0  501  502  0.00000000000E+00  0.00000000000E+00  0.19309214552E+01  0.19309214552E+01  0.00000000000E+00 0. -1.
         13   -1    0    0    0    0 -0.00000000000E+00 -0.00000000000E+00 -0.10000000000E+04  0.10000000000E+04  0.00000000000E+00 0.  1.
    9000005    2    1    2  501    0 -0.35856782720E+02  0.17347437729E+02 -0.70948258935E+03  0.71060841253E+03  0.34826570001E+01 0.  0.
         13    1    3    3    0    0 -0.20738968575E+02  0.81351855255E+01 -0.39054141661E+03  0.39117628270E+03  0.00000000000E+00 0.  1.
          1    1    3    3  501    0 -0.15117814145E+02  0.92122522039E+01 -0.31894117275E+03  0.31943212983E+03  0.00000000000E+00 0.  1.
         -3    1    1    2    0  502  0.35856782720E+02 -0.17347437729E+02 -0.28858648919E+03  0.29132250892E+03  0.00000000000E+00 0. -1.
<mgrwt>
<rscale>  1 0.30000000E+03</rscale>
<asrwt>0</asrwt>
<pdfrwt beam="1">  1       21 0.70215474E-02 0.30000000E+03</pdfrwt>
<pdfrwt beam="2">0</pdfrwt>
<totfact> 0.16049201E+04</totfact>
</mgrwt>
</event>
<event>
 6    1  0.1270461E-001  0.3000000E+03  0.7818608E-02  0.1093470E+00
         21   -1    0    0  501  502  0.00000000000E+00  0.00000000000E+00  0.11406268269E+01  0.11406268269E+01  0.00000000000E+00 0. -1.
         13   -1    0    0    0    0 -0.00000000000E+00 -0.00000000000E+00 -0.10000000000E+04  0.10000000000E+04  0.00000000000E+00 0.  1.
    9000005    2    1    2  501    0 -0.18313046702E+02 -0.28177160629E+02 -0.49954466458E+03  0.50069632596E+03  0.47559279730E+01 0.  0.
         13    1    3    3    0    0 -0.39662041830E+00 -0.92556701259E-01 -0.22096866560E+01  0.22469066774E+01  0.00000000000E+00 0.  1.
          3    1    3    3  501    0 -0.17916426283E+02 -0.28084603928E+02 -0.49733497793E+03  0.49844941928E+03  0.00000000000E+00 0.  1.
         -1    1    1    2    0  502  0.18313046702E+02  0.28177160629E+02 -0.49931470859E+03  0.50044430087E+03  0.00000000000E+00 0. -1.
<mgrwt>
<rscale>  1 0.30000000E+03</rscale>
<asrwt>0</asrwt>
<pdfrwt beam="1">  1       21 0.41477427E-02 0.30000000E+03</pdfrwt>
<pdfrwt beam="2">0</pdfrwt>
<totfact> 0.39553620E+04</totfact>
</mgrwt>
</event>
<event>
 6    1  0.1270461E-001  0.3000000E+03  0.7818608E-02  0.1093470E+00
         21   -1    0    0  501  502  0.00000000000E+00  0.00000000000E+00  0.24238439802E+01  0.24238439802E+01  0.00000000000E+00 0. -1.
         13   -1    0    0    0    0 -0.00000000000E+00 -0.00000000000E+00 -0.10000000000E+04  0.10000000000E+04  0.00000000000E+00 0.  1.
    9000005    2    1    2  501    0 -0.37605997674E+02  0.17127179657E+02 -0.22770979315E+03  0.23144928666E+03  0.30775085161E+01 0.  0.
         13    1    3    3    0    0 -0.16693853601E+02  0.68685867640E+01 -0.91821080810E+02  0.93578700105E+02  0.00000000000E+00 0.  1.
          1    1    3    3  501    0 -0.20912144074E+02  0.10258592893E+02 -0.13588871234E+03  0.13787058656E+03  0.00000000000E+00 0.  1.
         -1    1    1    2    0  502  0.37605997674E+02 -0.17127179657E+02 -0.76986636287E+03  0.77097455732E+03  0.00000000000E+00 0. -1.
<mgrwt>
<rscale>  1 0.30000000E+03</rscale>
<asrwt>0</asrwt>
<pdfrwt beam="1">  1       21 0.88139967E-02 0.30000000E+03</pdfrwt>
<pdfrwt beam="2">0</pdfrwt>
<totfact> 0.10768886E+04</totfact>
</mgrwt>
</event>
<event>
 6    1  0.1270461E-001  0.3000000E+03  0.7818608E-02  0.1093470E+00
         21   -1    0    0  501  502  0.00000000000E+00  0.00000000000E+00  0.13536341896E+01  0.13536341896E+01  0.00000000000E+00 0. -1.
         13   -1    0    0    0    0 -0.00000000000E+00 -0.00000000000E+00 -0.10000000000E+04  0.10000000000E+04  0.00000000000E+00 0.  1.
    9000005    2    1    2  501    0 -0.28252838419E+02 -0.18935659816E+02 -0.68791619807E+03  0.68876761525E+03  0.39179281736E+01 0.  0.
         13    1    3    3    0    0 -0.21960852198E+02 -0.14798065258E+02 -0.50030474123E+03  0.50100508566E+03  0.00000000000E+00 0.  1.
          3    1    3    3  501    0 -0.62919862210E+01 -0.41375945572E+01 -0.18761145684E+03  0.18776252958E+03  0.00000000000E+00 0.  1.
         -3    1    1    2    0  502  0.28252838419E+02  0.18935659816E+02 -0.31073016775E+03  0.31258601894E+03  0.00000000000E+00 0. -1.
<mgrwt>
<rscale>  1 0.30000000E+03</rscale>
<asrwt>0</asrwt>
<pdfrwt beam="1">  1       21 0.49223165E-02 0.30000000E+03</pdfrwt>
<pdfrwt beam="2">0</pdfrwt>
<totfact> 0.29583615E+04</totfact>
</mgrwt>
</event>
<event>
 6    1  0.1270461E-001  0.3000000E+03  0.7818608E-02  0.1093470E+00
         21   -1    0    0  501  502  0.00000000000E+00  0.00000000000E+00  0.22706172847E+01  0.22706172847E+01  0.00000000000E+00 0. -1.
         13   -1    0    0    0    0 -0.00000000000E+00 -0.00000000000E+00 -0.10000000000E+04  0.10000000000E+04  0.00000000000E+00 0.  1.
    9000005    2    1    2  501    0  0.26184110423E+02 -0.38971510552E+02 -0.41888831748E+03  0.42152853592E+03  0.38075969389E+01 0.  0.
         13    1    3    3    0    0  0.13388266663E+02 -0.16673976540E+02 -0.18529404764E+03  0.18652386246E+03  0.00000000000E+00 0.  1.
          3    1    3    3  501    0  0.12795843760E+02 -0.22297534012E+02 -0.23359426985E+03  0.23500467345E+03  0.00000000000E+00 0.  1.
         -3    1    1    2    0  502 -0.26184110423E+02  0.38971510552E+02 -0.57884106523E+03  0.58074208137E+03  0.00000000000E+00 0. -1.
<mgrwt>
<rscale>  1 0.30000000E+03</rscale>
<asrwt>0</asrwt>
<pdfrwt beam="1">  1       21 0.82568075E-02 0.30000000E+03</pdfrwt>
<pdfrwt beam="2">0</pdfrwt>
<totfact> 0.12083627E+04</totfact>
</mgrwt>
</event>
<event>
 6    1  0.1270461E-001  0.3000000E+03  0.7818608E-02  0.1093470E+00
         21   -1    0    0  501  502  0.00000000000E+00  0.00000000000E+00  0.40215861642E+01  0.40215861642E+01  0.00000000000E+00 0. -1.
         13   -1    0    0    0    0 -0.00000000000E+00 -0.00000000000E+00 -0.10000000000E+04  0.10000000000E+04  0.00000000000E+00 0.  1.
    9000005    2    1    2  501    0 -0.22851649556E+02  0.21429146566E+02 -0.93442040255E+03  0.93495064464E+03  0.31325700951E+01 0.  0.
         13    1    3    3    0    0 -0.19996945157E+02  0.18404989697E+02 -0.77638881865E+03  0.77686435057E+03  0.00000000000E+00 0.  1.
          1    1    3    3  501    0 -0.28547043983E+01  0.30241568686E+01 -0.15803158390E+03  0.15808629407E+03  0.00000000000E+00 0.  1.
         -3    1    1    2    0  502  0.22851649556E+02 -0.21429146566E+02 -0.61558011283E+02  0.69070941524E+02  0.00000000000E+00 0. -1.
<mgrwt>
<rscale>  1 0.30000000E+03</rscale>
<asrwt>0</asrwt>
<pdfrwt beam="1">  1       21 0.14623981E-01 0.30000000E+03</pdfrwt>
<pdfrwt beam="2">0</pdfrwt>
<totfact> 0.43158596E+03</totfact>
</mgrwt>
</event>
<event>
 6    1  0.1270461E-001  0.3000000E+03  0.7818608E-02  0.1093470E+00
         21   -1    0    0  501  502  0.00000000000E+00  0.00000000000E+00  0.12395620253E+01  0.12395620253E+01  0.00000000000E+00 0. -1.
         13   -1    0    0    0    0 -0.00000000000E+00 -0.00000000000E+00 -0.10000000000E+04  0.10000000000E+04  0.00000000000E+00 0.  1.
    9000005    2    1    2  501    0  0.21928022813E+02  0.26770690948E+02 -0.53888540291E+03  0.54006437193E+03  0.86336716727E+01 0.  0.
         13    1    3    3    0    0  0.18110184512E+02  0.21041288584E+02 -0.47461702097E+03  0.47542826084E+03  0.00000000000E+00 0.  1.
          1    1    3    3  501    0  0.38178383016E+01  0.57294023639E+01 -0.64268381934E+02  0.64636111093E+02  0.00000000000E+00 0.  1.
         -3    1    1    2    0  502 -0.21928022813E+02 -0.26770690948E+02 -0.45987503507E+03  0.46117519009E+03  0.00000000000E+00 0. -1.
<mgrwt>
<rscale>  1 0.30000000E+03</rscale>
<asrwt>0</asrwt>
<pdfrwt beam="1">  1       21 0.45075078E-02 0.30000000E+03</pdfrwt>
<pdfrwt beam="2">0</pdfrwt>
<totfact> 0.34360847E+04</totfact>
</mgrwt>
</event>
<event>
 6    1  0.1270461E-001  0.3000000E+03  0.7818608E-02  0.1093470E+00
         21   -1    0    0  501  502  0.00000000000E+00  0.00000000000E+00  0.26034235511E+02  0.26034235511E+02  0.00000000000E+00 0. -1.
         13   -1    0    0    0    0 -0.00000000000E+00 -0.00000000000E+00 -0.10000000000E+04  0.10000000000E+04  0.00000000000E+00 0.  1.
    9000005    2    1    2  501    0 -0.17222190405E+02 -0.41289246192E+02 -0.97987442601E+03  0.98090865547E+03  0.51472253738E+01 0.  0.
         13    1    3    3    0    0 -0.98692827720E+01 -0.17116418187E+02 -0.43914068715E+03  0.43958493789E+03  0.00000000000E+00 0.  1.
          1    1    3    3  501    0 -0.73529076327E+01 -0.24172828005E+02 -0.54073373886E+03  0.54132371758E+03  0.00000000000E+00 0.  1.
         -3    1    1    2    0  502  0.17222190405E+02  0.41289246192E+02  0.59086615187E+01  0.45125580045E+02  0.00000000000E+00 0. -1.
<mgrwt>
<rscale>  1 0.30000000E+03</rscale>
<asrwt>0</asrwt>
<pdfrwt beam="1">  1       21 0.94670147E-01 0.30000000E+03</pdfrwt>
<pdfrwt beam="2">0</pdfrwt>
<totfact> 0.84711456E+01</totfact>
</mgrwt>
</event>
<event>
 6    1  0.1270461E-001  0.3000000E+03  0.7818608E-02  0.1093470E+00
         21   -1    0    0  501  502  0.00000000000E+00  0.00000000000E+00  0.38864965957E+01  0.38864965957E+01  0.00000000000E+00 0. -1.
         13   -1    0    0    0    0 -0.00000000000E+00 -0.00000000000E+00 -0.10000000000E+04  0.10000000000E+04  0.00000000000E+00 0.  1.
    9000005    2    1    2  501    0  0.18005950542E+02 -0.49223338470E+02 -0.76954929319E+03  0.77133866785E+03  0.31740453237E+01 0.  0.
         13    1    3    3    0    0  0.69387585249E+01 -0.19372815266E+02 -0.27974859013E+03  0.28050441355E+03  0.00000000000E+00 0.  1.
          3    1    3    3  501    0  0.11067192018E+02 -0.29850523204E+02 -0.48980070307E+03  0.49083425430E+03  0.00000000000E+00 0.  1.
         -1    1    1    2    0  502 -0.18005950542E+02  0.49223338470E+02 -0.22656421021E+03  0.23254782874E+03  0.00000000000E+00 0. -1.
<mgrwt>
<rscale>  1 0.30000000E+03</rscale>
<asrwt>0</asrwt>
<pdfrwt beam="1">  1       21 0.14132745E-01 0.30000000E+03</pdfrwt>
<pdfrwt beam="2">0</pdfrwt>
<totfact> 0.45962505E+03</totfact>
</mgrwt>
</event>
<event>
 6    1  0.1270461E-001  0.3000000E+03  0.7818608E-02  0.1093470E+00
         21   -1    0    0  501  502  0.00000000000E+00  0.00000000000E+00  0.27881042285E+01  0.27881042285E+01  0.00000000000E+00 0. -1.
         13   -1    0    0    0    0 -0.00000000000E+00 -0.00000000000E+00 -0.10000000000E+04  0.10000000000E+04  0.00000000000E+00 0.  1.
    9000005    2    1    2  501    0  0.24889682357E+02  0.29941310818E+02 -0.83708205698E+03  0.83799264418E+03  0.30533915143E+01 0.  0.
         13    1    3    3    0    0  0.61398866964E+01  0.92509336891E+01 -0.25322761945E+03  0.25347091595E+03  0.00000000000E+00 0.  1.
          1    1    3    3  501    0  0.18749795660E+02  0.20690377129E+02 -0.58385443754E+03  0.58452172823E+03  0.00000000000E+00 0.  1.
         -1    1    1    2    0  502 -0.24889682357E+02 -0.29941310818E+02 -0.16012983879E+03  0.16479546005E+03  0.00000000000E+00 0. -1.
<mgrwt>
<rscale>  1 0.30000000E+03</rscale>
<asrwt>0</asrwt>
<pdfrwt beam="1">  1       21 0.10138582E-01 0.30000000E+03</pdfrwt>
<pdfrwt beam="2">0</pdfrwt>
<totfact> 0.83941190E+03</totfact>
</mgrwt>
</event>
<event>
 6    1  0.1270461E-001  0.3000000E+03  0.7818608E-02  0.1093470E+00
         21   -1    0    0  501  502  0.00000000000E+00  0.00000000000E+00  0.13339129873E+01  0.13339129873E+01  0.00000000000E+00 0. -1.
         13   -1    0    0    0    0 -0.00000000000E+00 -0.00000000000E+00 -0.10000000000E+04  0.10000000000E+04  0.00000000000E+00 0.  1.
    9000005    2    1    2  501    0 -0.32325203598E+02 -0.16109704004E+02 -0.56930287773E+03  0.57045433952E+03  0.28187813747E+01 0.  0.
         13    1    3    3    0    0 -0.11808204440E+01 -0.54256574434E+00 -0.13679231036E+02  0.13740817888E+02  0.00000000000E+00 0.  1.
          3    1    3    3  501    0 -0.31144383154E+02 -0.15567138259E+02 -0.55562364670E+03  0.55671352163E+03  0.00000000000E+00 0.  1.
         -1    1    1    2    0  502  0.32325203598E+02  0.16109704004E+02 -0.42936320928E+03  0.43087957347E+03  0.00000000000E+00 0. -1.
<mgrwt>
<rscale>  1 0.30000000E+03</rscale>
<asrwt>0</asrwt>
<pdfrwt beam="1">  1       21 0.48506029E-02 0.30000000E+03</pdfrwt>
<pdfrwt beam="2">0</pdfrwt>
<totfact> 0.30332288E+04</totfact>
</mgrwt>
</event>
<event>
 6    1  0.1270461E-001  0.3000000E+03  0.7818608E-02  0.1093470E+00
         21   -1    0    0  501  502  0.00000000000E+00  0.00000000000E+00  0.11929702910E+01  0.11929702910E+01  0.00000000000E+00 0. -1.
         13   -1    0    0    0    0 -0.00000000000E+00 -0.00000000000E+00 -0.10000000000E+04  0.10000000000E+04  0.00000000000E+00 0.  1.
    9000005    2    1    2  501    0  0.21912864531E+02 -0.21265302977E+02 -0.73183283100E+03  0.73247823396E+03  0.35614547323E+01 0.  0.
         13    1    3    3    0    0  0.68729191626E-01 -0.58963656145E+00 -0.87435481976E+01  0.87636767432E+01  0.00000000000E+00 0.  1.
          1    1    3    3  501    0  0.21844135339E+02 -0.20675666415E+02 -0.72308928280E+03  0.72371455722E+03  0.00000000000E+00 0.  1.
         -1    1    1    2    0  502 -0.21912864531E+02  0.21265302977E+02 -0.26697419871E+03  0.26871473633E+03  0.00000000000E+00 0. -1.
<mgrwt>
<rscale>  1 0.30000000E+03</rscale>
<asrwt>0</asrwt>
<pdfrwt beam="1">  1       21 0.43380829E-02 0.30000000E+03</pdfrwt>
<pdfrwt beam="2">0</pdfrwt>
<totfact> 0.36665710E+04</totfact>
</mgrwt>
</event>
<event>
 6    1  0.1270461E-001  0.3000000E+03  0.7818608E-02  0.1093470E+00
         21   -1    0    0  501  502  0.00000000000E+00  0.00000000000E+00  0.11889527431E+01  0.11889527431E+01  0.00000000000E+00 0. -1.
         13   -1    0    0    0    0 -0.00000000000E+00 -0.00000000000E+00 -0.10000000000E+04  0.10000000000E+04  0.00000000000E+00 0.  1.
    9000005    2    1    2  501    0 -0.93500673520E+00 -0.33114659425E+02 -0.61336871841E+03  0.61432561282E+03  0.87931189675E+01 0.  0.
         13    1    3    3    0    0 -0.43051847870E+01 -0.16504116452E+02 -0.26918817885E+03  0.26972800394E+03  0.00000000000E+00 0.  1.
          3    1    3    3  501    0  0.33701780518E+01 -0.16610542972E+02 -0.34418053956E+03  0.34459760888E+03  0.00000000000E+00 0.  1.
         -3    1    1    2    0  502  0.93500673520E+00  0.33114659425E+02 -0.38544232885E+03  0.38686333992E+03  0.00000000000E+00 0. -1.
<mgrwt>
<rscale>  1 0.30000000E+03</rscale>
<asrwt>0</asrwt>
<pdfrwt beam="1">  1       21 0.43234736E-02 0.30000000E+03</pdfrwt>
<pdfrwt beam="2">0</pdfrwt>
<totfact> 0.36875592E+04</totfact>
</mgrwt>
</event>
<event>
 6    1  0.1270461E-001  0.3000000E+03  0.7818608E-02  0.1093470E+00
         21   -1    0    0  501  502  0.00000000000E+00  0.00000000000E+00  0.15803890037E+01  0.15803890037E+01  0.00000000000E+00 0. -1.
         13   -1    0    0    0    0 -0.00000000000E+00 -0.00000000000E+00 -0.10000000000E+04  0.10000000000E+04  0.00000000000E+00 0.  1.
    9000005    2    1    2  501    0  0.26196009275E+02  0.15535015290E+02 -0.17984085212E+03  0.18243525407E+03  0.35103040198E+01 0.  0.
         13    1    3    3    0    0  0.19475894527E+02  0.97463432841E+01 -0.12569873013E+03  0.12757144050E+03  0.00000000000E+00 0.  1.
          3    1    3    3  501    0  0.67201147486E+01  0.57886720063E+01 -0.54142121987E+02  0.54863813567E+02  0.00000000000E+00 0.  1.
         -1    1    1    2    0  502 -0.26196009275E+02 -0.15535015290E+02 -0.81857875888E+03  0.81914513494E+03  0.00000000000E+00 0. -1.
<mgrwt>
<rscale>  1 0.30000000E+03</rscale>
<asrwt>0</asrwt>
<pdfrwt beam="1">  1       21 0.57468812E-02 0.30000000E+03</pdfrwt>
<pdfrwt beam="2">0</pdfrwt>
<totfact> 0.22696211E+04</totfact>
</mgrwt>
</event>
<event>
 6    1  0.1270461E-001  0.3000000E+03  0.7818608E-02  0.1093470E+00
         21   -1    0    0  501  502  0.00000000000E+00  0.00000000000E+00  0.39221195060E+01  0.39221195060E+01  0.00000000000E+00 0. -1.
         13   -1    0    0    0    0 -0.00000000000E+00 -0.00000000000E+00 -0.10000000000E+04  0.10000000000E+04  0.00000000000E+00 0.  1.
    9000005    2    1    2  501    0  0.40411942069E+02 -0.15665426151E+02 -0.86005629691E+03  0.86116217471E+03  0.49926599481E+01 0.  0.
         13    1    3    3    0    0  0.89736659893E+01 -0.56931684678E+01 -0.19876593829E+03  0.19904983565E+03  0.00000000000E+00 0.  1.
          3    1    3    3  501    0  0.31438276079E+02 -0.99722576836E+01 -0.66129035862E+03  0.66211233906E+03  0.00000000000E+00 0.  1.
         -1    1    1    2    0  502 -0.40411942069E+02  0.15665426151E+02 -0.13602158358E+03  0.14275994479E+03  0.00000000000E+00 0. -1.
<mgrwt>
<rscale>  1 0.30000000E+03</rscale>
<asrwt>0</asrwt>
<pdfrwt beam="1">  1       21 0.14262283E-01 0.30000000E+03</pdfrwt>
<pdfrwt beam="2">0</pdfrwt>
<totfact> 0.45197386E+03</totfact>
</mgrwt>
</event>
<event>
 6    1  0.1270461E-001  0.3000000E+03  0.7818608E-02  0.1093470E+00
         21   -1    0    0  501  502  0.00000000000E+00  0.00000000000E+00  0.11684962099E+01  0.11684962099E+01  0.00000000000E+00 0. -1.
         13   -1    0    0    0    0 -0.00000000000E+00 -0.00000000000E+00 -0.10000000000E+04  0.10000000000E+04  0.00000000000E+00 0.  1.
    9000005    2    1    2  501    0  0.73736325945E+00 -0.34013070296E+02 -0.53686453638E+03  0.53795050041E+03  0.31269493829E+01 0.  0.
         13    1    3    3    0    0  0.14629765629E+01 -0.21508360067E+02 -0.35704675879E+03  0.35769699162E+03  0.00000000000E+00 0.  1.
          3    1    3    3  501    0 -0.72561330349E+00 -0.12504710229E+02 -0.17981777759E+03  0.18025350879E+03  0.00000000000E+00 0.  1.
         -3    1    1    2    0  502 -0.73736325945E+00  0.34013070296E+02 -0.46196696741E+03  0.46321799580E+03  0.00000000000E+00 0. -1.
<mgrwt>
<rscale>  1 0.30000000E+03</rscale>
<asrwt>0</asrwt>
<pdfrwt beam="1">  1       21 0.42490861E-02 0.30000000E+03</pdfrwt>
<pdfrwt beam="2">0</pdfrwt>
<totfact> 0.37973743E+04</totfact>
</mgrwt>
</event>
<event>
 6    1  0.1270461E-001  0.3000000E+03  0.7818608E-02  0.1093470E+00
         21   -1    0    0  501  502  0.00000000000E+00  0.00000000000E+00  0.12120652014E+01  0.12120652014E+01  0.00000000000E+00 0. -1.
         13   -1    0    0    0    0 -0.00000000000E+00 -0.00000000000E+00 -0.10000000000E+04  0.10000000000E+04  0.00000000000E+00 0.  1.
    9000005    2    1    2  501    0  0.31472199973E+02 -0.14239691264E+02 -0.55309718985E+03  0.55418465183E+03  0.32952569651E+01 0.  0.
         13    1    3    3    0    0  0.15179492471E+02 -0.73980024261E+01 -0.29547249375E+03  0.29595462827E+03  0.00000000000E+00 0.  1.
          1    1    3    3  501    0  0.16292707502E+02 -0.68416888377E+01 -0.25762469610E+03  0.25823002355E+03  0.00000000000E+00 0.  1.
         -1    1    1    2    0  502 -0.31472199973E+02  0.14239691264E+02 -0.44569074495E+03  0.44702741338E+03  0.00000000000E+00 0. -1.
<mgrwt>
<rscale>  1 0.30000000E+03</rscale>
<asrwt>0</asrwt>
<pdfrwt beam="1">  1       21 0.44075191E-02 0.30000000E+03</pdfrwt>
<pdfrwt beam="2">0</pdfrwt>
<totfact> 0.35693012E+04</totfact>
</mgrwt>
</event>
<event>
 6    1  0.1270461E-001  0.3000000E+03  0.7818608E-02  0.1093470E+00
         21   -1    0    0  501  502  0.00000000000E+00  0.00000000000E+00  0.85327881202E+01  0.85327881202E+01  0.00000000000E+00 0. -1.
         13   -1    0    0    0    0 -0.00000000000E+00 -0.00000000000E+00 -0.10000000000E+04  0.10000000000E+04  0.00000000000E+00 0.  1.
    9000005    2    1    2  501    0 -0.66117825432E+02  0.19382969713E+02 -0.83153480829E+03  0.83439020265E+03  0.30994408333E+01 0.  0.
         13    1    3    3    0    0 -0.24603017876E+02  0.58757332671E+01 -0.29584986813E+03  0.29692924613E+03  0.00000000000E+00 0.  1.
          3    1    3    3  501    0 -0.41514807556E+02  0.13507236446E+02 -0.53568494015E+03  0.53746095652E+03  0.00000000000E+00 0.  1.
         -1    1    1    2    0  502  0.66117825432E+02 -0.19382969713E+02 -0.15993240359E+03  0.17414258547E+03  0.00000000000E+00 0. -1.
<mgrwt>
<rscale>  1 0.30000000E+03</rscale>
<asrwt>0</asrwt>
<pdfrwt beam="1">  1       21 0.31028386E-01 0.30000000E+03</pdfrwt>
<pdfrwt beam="2">0</pdfrwt>
<totfact> 0.10162123E+03</totfact>
</mgrwt>
</event>
<event>
 6    1  0.1270461E-001  0.3000000E+03  0.7818608E-02  0.1093470E+00
         21   -1    0    0  501  502  0.00000000000E+00  0.00000000000E+00  0.47185578352E+01  0.47185578352E+01  0.00000000000E+00 0. -1.
         13   -1    0    0    0    0 -0.00000000000E+00 -0.00000000000E+00 -0.10000000000E+04  0.10000000000E+04  0.00000000000E+00 0.  1.
    9000005    2    1    2  501    0 -0.75266734122E+01 -0.29070876513E+02 -0.94944107811E+03  0.94991795884E+03  0.20002606626E+01 0.  0.
         13    1    3    3    0    0 -0.70775912679E+01 -0.27499766569E+02 -0.91030763823E+03  0.91075041899E+03  0.00000000000E+00 0.  1.
          1    1    3    3  501    0 -0.44908214426E+00 -0.15711099438E+01 -0.39133439883E+02  0.39167539855E+02  0.00000000000E+00 0.  1.
         -3    1    1    2    0  502  0.75266734122E+01  0.29070876513E+02 -0.45840364050E+02  0.54800598995E+02  0.00000000000E+00 0. -1.
<mgrwt>
<rscale>  1 0.30000000E+03</rscale>
<asrwt>0</asrwt>
<pdfrwt beam="1">  1       21 0.17158428E-01 0.30000000E+03</pdfrwt>
<pdfrwt beam="2">0</pdfrwt>
<totfact> 0.32053223E+03</totfact>
</mgrwt>
</event>
<event>
 6    1  0.1270461E-001  0.3000000E+03  0.7818608E-02  0.1093470E+00
         21   -1    0    0  501  502  0.00000000000E+00  0.00000000000E+00  0.14817536066E+01  0.14817536066E+01  0.00000000000E+00 0. -1.
         13   -1    0    0    0    0 -0.00000000000E+00 -0.00000000000E+00 -0.10000000000E+04  0.10000000000E+04  0.00000000000E+00 0.  1.
    9000005    2    1    2  501    0  0.11083337338E+02  0.35828598944E+02 -0.39072659945E+03  0.39253412453E+03  0.30388370667E+01 0.  0.
         13    1    3    3    0    0  0.52780253888E+01  0.16497595977E+02 -0.19625745271E+03  0.19702034404E+03  0.00000000000E+00 0.  1.
          1    1    3    3  501    0  0.58053119488E+01  0.19331002966E+02 -0.19446914675E+03  0.19551378048E+03  0.00000000000E+00 0.  1.
         -1    1    1    2    0  502 -0.11083337338E+02 -0.35828598944E+02 -0.60779164694E+03  0.60894762908E+03  0.00000000000E+00 0. -1.
<mgrwt>
<rscale>  1 0.30000000E+03</rscale>
<asrwt>0</asrwt>
<pdfrwt beam="1">  1       21 0.53882063E-02 0.30000000E+03</pdfrwt>
<pdfrwt beam="2">0</pdfrwt>
<totfact> 0.25350621E+04</totfact>
</mgrwt>
</event>
<event>
 6    1  0.1270461E-001  0.3000000E+03  0.7818608E-02  0.1093470E+00
         21   -1    0    0  501  502  0.00000000000E+00  0.00000000000E+00  0.30039259240E+01  0.30039259240E+01  0.00000000000E+00 0. -1.
         13   -1    0    0    0    0 -0.00000000000E+00 -0.00000000000E+00 -0.10000000000E+04  0.10000000000E+04  0.00000000000E+00 0.  1.
    9000005    2    1    2  501    0 -0.41320099338E+02 -0.13528668970E+02 -0.80353151800E+03  0.80471396160E+03  0.33591789586E+01 0.  0.
         13    1    3    3    0    0 -0.35051313257E+02 -0.10192154457E+02 -0.66884026958E+03  0.66983563714E+03  0.00000000000E+00 0.  1.
          1    1    3    3  501    0 -0.62687860809E+01 -0.33365145126E+01 -0.13469124842E+03  0.13487832446E+03  0.00000000000E+00 0.  1.
         -3    1    1    2    0  502  0.41320099338E+02  0.13528668970E+02 -0.19346455608E+03  0.19828996432E+03  0.00000000000E+00 0. -1.
<mgrwt>
<rscale>  1 0.30000000E+03</rscale>
<asrwt>0</asrwt>
<pdfrwt beam="1">  1       21 0.10923390E-01 0.30000000E+03</pdfrwt>
<pdfrwt beam="2">0</pdfrwt>
<totfact> 0.73437578E+03</totfact>
</mgrwt>
</event>
<event>
 6    1  0.1270461E-001  0.3000000E+03  0.7818608E-02  0.1093470E+00
         21   -1    0    0  501  502  0.00000000000E+00  0.00000000000E+00  0.16515884594E+01  0.16515884594E+01  0.00000000000E+00 0. -1.
         13   -1    0    0    0    0 -0.00000000000E+00 -0.00000000000E+00 -0.10000000000E+04  0.10000000000E+04  0.00000000000E+00 0.  1.
    9000005    2    1    2  501    0  0.34488339831E+02  0.14943601191E+02 -0.31162850787E+03  0.31390382736E+03  0.32448594311E+01 0.  0.
         13    1    3    3    0    0  0.60619923474E+00 -0.87482247536E-01 -0.74689964067E+01  0.74940668518E+01  0.00000000000E+00 0.  1.
          1    1    3    3  501    0  0.33882140596E+02  0.15031083439E+02 -0.30415951146E+03  0.30640976051E+03  0.00000000000E+00 0.  1.
         -3    1    1    2    0  502 -0.34488339831E+02 -0.14943601191E+02 -0.68671990367E+03  0.68774776110E+03  0.00000000000E+00 0. -1.
<mgrwt>
<rscale>  1 0.30000000E+03</rscale>
<asrwt>0</asrwt>
<pdfrwt beam="1">  1       21 0.60057889E-02 0.30000000E+03</pdfrwt>
<pdfrwt beam="2">0</pdfrwt>
<totfact> 0.21036648E+04</totfact>
</mgrwt>
</event>
<event>
 6    1  0.1270461E-001  0.3000000E+03  0.7818608E-02  0.1093470E+00
         21   -1    0    0  501  502  0.00000000000E+00  0.00000000000E+00  0.11370243856E+01  0.11370243856E+01  0.00000000000E+00 0. -1.
         13   -1    0    0    0    0 -0.00000000000E+00 -0.00000000000E+00 -0.10000000000E+04  0.10000000000E+04  0.00000000000E+00 0.  1.
    9000005    2    1    2  501    0  0.21499045117E+02 -0.22935053595E+02 -0.32263731928E+03  0.32418107020E+03  0.32094950696E+01 0.  0.
         13    1    3    3    0    0  0.27643293895E+01 -0.25786834240E+01 -0.50433165170E+02  0.50574650511E+02  0.00000000000E+00 0.  1.
          3    1    3    3  501    0  0.18734715728E+02 -0.20356370171E+02 -0.27220415411E+03  0.27360641969E+03  0.00000000000E+00 0.  1.
         -1    1    1    2    0  502 -0.21499045117E+02  0.22935053595E+02 -0.67622565633E+03  0.67695595419E+03  0.00000000000E+00 0. -1.
<mgrwt>
<rscale>  1 0.30000000E+03</rscale>
<asrwt>0</asrwt>
<pdfrwt beam="1">  1       21 0.41346428E-02 0.30000000E+03</pdfrwt>
<pdfrwt beam="2">0</pdfrwt>
<totfact> 0.39765287E+04</totfact>
</mgrwt>
</event>
<event>
 6    1  0.1270461E-001  0.3000000E+03  0.7818608E-02  0.1093470E+00
         21   -1    0    0  501  502  0.00000000000E+00  0.00000000000E+00  0.33155238085E+01  0.33155238085E+01  0.00000000000E+00 0. -1.
         13   -1    0    0    0    0 -0.00000000000E+00 -0.00000000000E+00 -0.10000000000E+04  0.10000000000E+04  0.00000000000E+00 0.  1.
    9000005    2    1    2  501    0  0.38368549953E+02  0.13382042162E+02 -0.85354934000E+03  0.85452408625E+03  0.37031730251E+01 0.  0.
         13    1    3    3    0    0  0.69717974948E+01  0.99145577168E+00 -0.14087984805E+03  0.14105573555E+03  0.00000000000E+00 0.  1.
          1    1    3    3  501    0  0.31396752458E+02  0.12390586390E+02 -0.71266949195E+03  0.71346835070E+03  0.00000000000E+00 0.  1.
         -3    1    1    2    0  502 -0.38368549953E+02 -0.13382042162E+02 -0.14313513619E+03  0.14879143756E+03  0.00000000000E+00 0. -1.
<mgrwt>
<rscale>  1 0.30000000E+03</rscale>
<asrwt>0</asrwt>
<pdfrwt beam="1">  1       21 0.12056476E-01 0.30000000E+03</pdfrwt>
<pdfrwt beam="2">0</pdfrwt>
<totfact> 0.61445209E+03</totfact>
</mgrwt>
</event>
<event>
 6    1  0.1270461E-001  0.3000000E+03  0.7818608E-02  0.1093470E+00
         21   -1    0    0  501  502  0.00000000000E+00  0.00000000000E+00  0.18787005158E+01  0.18787005158E+01  0.00000000000E+00 0. -1.
         13   -1    0    0    0    0 -0.00000000000E+00 -0.00000000000E+00 -0.10000000000E+04  0.10000000000E+04  0.00000000000E+00 0.  1.
    9000005    2    1    2  501    0 -0.12655205982E+02  0.41382148386E+02 -0.49550184760E+03  0.49739981111E+03  0.34430617299E+01 0.  0.
         13    1    3    3    0    0 -0.21988501403E+01  0.52244855767E+01 -0.77312603007E+02  0.77520118519E+02  0.00000000000E+00 0.  1.
          1    1    3    3  501    0 -0.10456355842E+02  0.36157662809E+02 -0.41818924459E+03  0.41987969259E+03  0.00000000000E+00 0.  1.
         -1    1    1    2    0  502  0.12655205982E+02 -0.41382148386E+02 -0.50261945189E+03  0.50447888941E+03  0.00000000000E+00 0. -1.
<mgrwt>
<rscale>  1 0.30000000E+03</rscale>
<asrwt>0</asrwt>
<pdfrwt beam="1">  1       21 0.68316526E-02 0.30000000E+03</pdfrwt>
<pdfrwt beam="2">0</pdfrwt>
<totfact> 0.16832880E+04</totfact>
</mgrwt>
</event>
<event>
 6    1  0.1270461E-001  0.3000000E+03  0.7818608E-02  0.1093470E+00
         21   -1    0    0  501  502  0.00000000000E+00  0.00000000000E+00  0.21919191586E+01  0.21919191586E+01  0.00000000000E+00 0. -1.
         13   -1    0    0    0    0 -0.00000000000E+00 -0.00000000000E+00 -0.10000000000E+04  0.10000000000E+04  0.00000000000E+00 0.  1.
    9000005    2    1    2  501    0 -0.40906053726E+02  0.66919475873E+01 -0.73125076909E+03  0.73243112171E+03  0.30940839300E+01 0.  0.
         13    1    3    3    0    0 -0.11262559206E+02  0.46569457802E+00 -0.20201675018E+03  0.20233098988E+03  0.00000000000E+00 0.  1.
          3    1    3    3  501    0 -0.29643494520E+02  0.62262530092E+01 -0.52923401891E+03  0.53010013183E+03  0.00000000000E+00 0.  1.
         -1    1    1    2    0  502  0.40906053726E+02 -0.66919475873E+01 -0.26655731175E+03  0.26976079745E+03  0.00000000000E+00 0. -1.
<mgrwt>
<rscale>  1 0.30000000E+03</rscale>
<asrwt>0</asrwt>
<pdfrwt beam="1">  1       21 0.79706319E-02 0.30000000E+03</pdfrwt>
<pdfrwt beam="2">0</pdfrwt>
<totfact> 0.12856644E+04</totfact>
</mgrwt>
</event>
<event>
 6    1  0.1270461E-001  0.3000000E+03  0.7818608E-02  0.1093470E+00
         21   -1    0    0  501  502  0.00000000000E+00  0.00000000000E+00  0.32013245714E+01  0.32013245714E+01  0.00000000000E+00 0. -1.
         13   -1    0    0    0    0 -0.00000000000E+00 -0.00000000000E+00 -0.10000000000E+04  0.10000000000E+04  0.00000000000E+00 0.  1.
    9000005    2    1    2  501    0  0.36024449427E+02 -0.20678119355E+02 -0.83876753617E+03  0.83980246732E+03  0.34436612588E+01 0.  0.
         13    1    3    3    0    0  0.31292297791E+02 -0.17045236073E+02 -0.69901145344E+03  0.69991910962E+03  0.00000000000E+00 0.  1.
          3    1    3    3  501    0  0.47321516358E+01 -0.36328832824E+01 -0.13975608273E+03  0.13988335769E+03  0.00000000000E+00 0.  1.
         -3    1    1    2    0  502 -0.36024449427E+02  0.20678119355E+02 -0.15803113926E+03  0.16339885726E+03  0.00000000000E+00 0. -1.
<mgrwt>
<rscale>  1 0.30000000E+03</rscale>
<asrwt>0</asrwt>
<pdfrwt beam="1">  1       21 0.11641205E-01 0.30000000E+03</pdfrwt>
<pdfrwt beam="2">0</pdfrwt>
<totfact> 0.65475041E+03</totfact>
</mgrwt>
</event>
<event>
 6    1  0.1270461E-001  0.3000000E+03  0.7818608E-02  0.1093470E+00
         21   -1    0    0  501  502  0.00000000000E+00  0.00000000000E+00  0.13976670633E+01  0.13976670633E+01  0.00000000000E+00 0. -1.
         13   -1    0    0    0    0 -0.00000000000E+00 -0.00000000000E+00 -0.10000000000E+04  0.10000000000E+04  0.00000000000E+00 0.  1.
    9000005    2    1    2  501    0 -0.21000274655E+02 -0.27672157518E+02 -0.33645648690E+03  0.33834119792E+03  0.80646637625E+01 0.  0.
         13    1    3    3    0    0 -0.35963095497E+01 -0.10013983263E+02 -0.84332053943E+02  0.85000638970E+02  0.00000000000E+00 0.  1.
          3    1    3    3  501    0 -0.17403965105E+02 -0.17658174255E+02 -0.25212443295E+03  0.25334055895E+03  0.00000000000E+00 0.  1.
         -1    1    1    2    0  502  0.21000274655E+02  0.27672157518E+02 -0.66214584604E+03  0.66305646914E+03  0.00000000000E+00 0. -1.
<mgrwt>
<rscale>  1 0.30000000E+03</rscale>
<asrwt>0</asrwt>
<pdfrwt beam="1">  1       21 0.50824364E-02 0.30000000E+03</pdfrwt>
<pdfrwt beam="2">0</pdfrwt>
<totfact> 0.28012432E+04</totfact>
</mgrwt>
</event>
<event>
 6    1  0.1270461E-001  0.3000000E+03  0.7818608E-02  0.1093470E+00
         21   -1    0    0  501  502  0.00000000000E+00  0.00000000000E+00  0.32078753627E+01  0.32078753627E+01  0.00000000000E+00 0. -1.
         13   -1    0    0    0    0 -0.00000000000E+00 -0.00000000000E+00 -0.10000000000E+04  0.10000000000E+04  0.00000000000E+00 0.  1.
    9000005    2    1    2  501    0 -0.32064600733E+02  0.25437919150E+01 -0.91117489258E+03  0.91174793920E+03  0.31639014076E+01 0.  0.
         13    1    3    3    0    0 -0.49515043092E+01  0.14884521120E+01 -0.15686100708E+03  0.15694619596E+03  0.00000000000E+00 0.  1.
          3    1    3    3  501    0 -0.27113096424E+02  0.10553398030E+01 -0.75431388550E+03  0.75480174324E+03  0.00000000000E+00 0.  1.
         -3    1    1    2    0  502  0.32064600733E+02 -0.25437919150E+01 -0.85617232058E+02  0.91459936162E+02  0.00000000000E+00 0. -1.
<mgrwt>
<rscale>  1 0.30000000E+03</rscale>
<asrwt>0</asrwt>
<pdfrwt beam="1">  1       21 0.11665026E-01 0.30000000E+03</pdfrwt>
<pdfrwt beam="2">0</pdfrwt>
<totfact> 0.65233361E+03</totfact>
</mgrwt>
</event>
<event>
 6    1  0.1270461E-001  0.3000000E+03  0.7818608E-02  0.1093470E+00
         21   -1    0    0  501  502  0.00000000000E+00  0.00000000000E+00  0.18756774238E+01  0.18756774238E+01  0.00000000000E+00 0. -1.
         13   -1    0    0    0    0 -0.00000000000E+00 -0.00000000000E+00 -0.10000000000E+04  0.10000000000E+04  0.00000000000E+00 0.  1.
    9000005    2    1    2  501    0  0.19332763609E+02 -0.36366287800E+02 -0.65249011745E+03  0.65379628075E+03  0.31560596455E+01 0.  0.
         13    1    3    3    0    0  0.15835761012E+02 -0.30771665234E+02 -0.53009391638E+03  0.53122238930E+03  0.00000000000E+00 0.  1.
          3    1    3    3  501    0  0.34970025966E+01 -0.55946225664E+01 -0.12239620107E+03  0.12257389145E+03  0.00000000000E+00 0.  1.
         -3    1    1    2    0  502 -0.19332763609E+02  0.36366287800E+02 -0.34563420512E+03  0.34807939667E+03  0.00000000000E+00 0. -1.
<mgrwt>
<rscale>  1 0.30000000E+03</rscale>
<asrwt>0</asrwt>
<pdfrwt beam="1">  1       21 0.68206596E-02 0.30000000E+03</pdfrwt>
<pdfrwt beam="2">0</pdfrwt>
<totfact> 0.16880032E+04</totfact>
</mgrwt>
</event>
<event>
 6    1  0.1270461E-001  0.3000000E+03  0.7818608E-02  0.1093470E+00
         21   -1    0    0  501  502  0.00000000000E+00  0.00000000000E+00  0.26064764293E+01  0.26064764293E+01  0.00000000000E+00 0. -1.
         13   -1    0    0    0    0 -0.00000000000E+00 -0.00000000000E+00 -0.10000000000E+04  0.10000000000E+04  0.00000000000E+00 0.  1.
    9000005    2    1    2  501    0  0.46139474179E+02  0.16105499984E+02 -0.35644410770E+03  0.35979671304E+03  0.36103450173E+01 0.  0.
         13    1    3    3    0    0  0.50196750675E+01  0.28852042669E+01 -0.38903519158E+02  0.39331988818E+02  0.00000000000E+00 0.  1.
          1    1    3    3  501    0  0.41119799111E+02  0.13220295717E+02 -0.31754058854E+03  0.32046472422E+03  0.00000000000E+00 0.  1.
         -1    1    1    2    0  502 -0.46139474179E+02 -0.16105499984E+02 -0.64094941587E+03  0.64280976339E+03  0.00000000000E+00 0. -1.
<mgrwt>
<rscale>  1 0.30000000E+03</rscale>
<asrwt>0</asrwt>
<pdfrwt beam="1">  1       21 0.94781161E-02 0.30000000E+03</pdfrwt>
<pdfrwt beam="2">0</pdfrwt>
<totfact> 0.94665298E+03</totfact>
</mgrwt>
</event>
<event>
 6    1  0.1270461E-001  0.3000000E+03  0.7818608E-02  0.1093470E+00
         21   -1    0    0  501  502  0.00000000000E+00  0.00000000000E+00  0.34659528881E+01  0.34659528881E+01  0.00000000000E+00 0. -1.
         13   -1    0    0    0    0 -0.00000000000E+00 -0.00000000000E+00 -0.10000000000E+04  0.10000000000E+04  0.00000000000E+00 0.  1.
    9000005    2    1    2  501    0 -0.46189051577E+02  0.15068889537E+02 -0.21609828450E+03  0.22151935658E+03  0.34433787711E+01 0.  0.
         13    1    3    3    0    0 -0.42943190067E+02  0.13201760386E+02 -0.20160044401E+03  0.20654574088E+03  0.00000000000E+00 0.  1.
          3    1    3    3  501    0 -0.32458615102E+01  0.18671291514E+01 -0.14497840490E+02  0.14973615698E+02  0.00000000000E+00 0.  1.
         -1    1    1    2    0  502  0.46189051577E+02 -0.15068889537E+02 -0.78043576261E+03  0.78194659631E+03  0.00000000000E+00 0. -1.
<mgrwt>
<rscale>  1 0.30000000E+03</rscale>
<asrwt>0</asrwt>
<pdfrwt beam="1">  1       21 0.12603492E-01 0.30000000E+03</pdfrwt>
<pdfrwt beam="2">0</pdfrwt>
<totfact> 0.56679106E+03</totfact>
</mgrwt>
</event>
<event>
 6    1  0.1270461E-001  0.3000000E+03  0.7818608E-02  0.1093470E+00
         21   -1    0    0  501  502  0.00000000000E+00  0.00000000000E+00  0.51632354453E+01  0.51632354453E+01  0.00000000000E+00 0. -1.
         13   -1    0    0    0    0 -0.00000000000E+00 -0.00000000000E+00 -0.10000000000E+04  0.10000000000E+04  0.00000000000E+00 0.  1.
    9000005    2    1    2  501    0  0.28172156541E+02  0.43037862316E+02 -0.84822993319E+03  0.84979434860E+03  0.32384185948E+01 0.  0.
         13    1    3    3    0    0  0.22452381677E+02  0.31757348154E+02 -0.63985186122E+03  0.64103279395E+03  0.00000000000E+00 0.  1.
          1    1    3    3  501    0  0.57197748636E+01  0.11280514162E+02 -0.20837807197E+03  0.20876155466E+03  0.00000000000E+00 0.  1.
         -3    1    1    2    0  502 -0.28172156541E+02 -0.43037862316E+02 -0.14660683136E+03  0.15536888684E+03  0.00000000000E+00 0. -1.
<mgrwt>
<rscale>  1 0.30000000E+03</rscale>
<asrwt>0</asrwt>
<pdfrwt beam="1">  1       21 0.18775441E-01 0.30000000E+03</pdfrwt>
<pdfrwt beam="2">0</pdfrwt>
<totfact> 0.27053266E+03</totfact>
</mgrwt>
</event>
<event>
 6    1  0.1270461E-001  0.3000000E+03  0.7818608E-02  0.1093470E+00
         21   -1    0    0  501  502  0.00000000000E+00  0.00000000000E+00  0.10459343920E+01  0.10459343920E+01  0.00000000000E+00 0. -1.
         13   -1    0    0    0    0 -0.00000000000E+00 -0.00000000000E+00 -0.10000000000E+04  0.10000000000E+04  0.00000000000E+00 0.  1.
    9000005    2    1    2  501    0  0.23184868244E+02  0.22141327142E+02 -0.51930615941E+03  0.52032783570E+03  0.58645483450E+01 0.  0.
         13    1    3    3    0    0  0.56129806779E+01  0.65674400955E+01 -0.10386761649E+03  0.10422628545E+03  0.00000000000E+00 0.  1.
          3    1    3    3  501    0  0.17571887567E+02  0.15573887047E+02 -0.41543854291E+03  0.41610155026E+03  0.00000000000E+00 0.  1.
         -1    1    1    2    0  502 -0.23184868244E+02 -0.22141327142E+02 -0.47964790620E+03  0.48071809869E+03  0.00000000000E+00 0. -1.
<mgrwt>
<rscale>  1 0.30000000E+03</rscale>
<asrwt>0</asrwt>
<pdfrwt beam="1">  1       21 0.38034058E-02 0.30000000E+03</pdfrwt>
<pdfrwt beam="2">0</pdfrwt>
<totfact> 0.45767140E+04</totfact>
</mgrwt>
</event>
<event>
 6    1  0.1270461E-001  0.3000000E+03  0.7818608E-02  0.1093470E+00
         21   -1    0    0  501  502  0.00000000000E+00  0.00000000000E+00  0.21840509806E+01  0.21840509806E+01  0.00000000000E+00 0. -1.
         13   -1    0    0    0    0 -0.00000000000E+00 -0.00000000000E+00 -0.10000000000E+04  0.10000000000E+04  0.00000000000E+00 0.  1.
    9000005    2    1    2  501    0  0.28271537400E+02  0.13024639470E+02 -0.87216355354E+03  0.87273349845E+03  0.50570877339E+01 0.  0.
         13    1    3    3    0    0  0.11287231297E+02  0.54559503149E+01 -0.28501826924E+03  0.28529385340E+03  0.00000000000E+00 0.  1.
          3    1    3    3  501    0  0.16984306103E+02  0.75686891547E+01 -0.58714528430E+03  0.58743964505E+03  0.00000000000E+00 0.  1.
         -3    1    1    2    0  502 -0.28271537400E+02 -0.13024639470E+02 -0.12565239548E+03  0.12945055253E+03  0.00000000000E+00 0. -1.
<mgrwt>
<rscale>  1 0.30000000E+03</rscale>
<asrwt>0</asrwt>
<pdfrwt beam="1">  1       21 0.79420203E-02 0.30000000E+03</pdfrwt>
<pdfrwt beam="2">0</pdfrwt>
<totfact> 0.12938084E+04</totfact>
</mgrwt>
</event>
<event>
 6    1  0.1270461E-001  0.3000000E+03  0.7818608E-02  0.1093470E+00
         21   -1    0    0  501  502  0.00000000000E+00  0.00000000000E+00  0.18389153208E+01  0.18389153208E+01  0.00000000000E+00 0. -1.
         13   -1    0    0    0    0 -0.00000000000E+00 -0.00000000000E+00 -0.10000000000E+04  0.10000000000E+04  0.00000000000E+00 0.  1.
    9000005    2    1    2  501    0 -0.33453523760E+02 -0.16888869520E+02 -0.74163783871E+03  0.74259280081E+03  0.36071935349E+01 0.  0.
         13    1    3    3    0    0 -0.10092973986E+02 -0.65100224921E+01 -0.21568847336E+03  0.21602260543E+03  0.00000000000E+00 0.  1.
          3    1    3    3  501    0 -0.23360549773E+02 -0.10378847028E+02 -0.52594936535E+03  0.52657019538E+03  0.00000000000E+00 0.  1.
         -3    1    1    2    0  502  0.33453523760E+02  0.16888869520E+02 -0.25652324597E+03  0.25924611451E+03  0.00000000000E+00 0. -1.
<mgrwt>
<rscale>  1 0.30000000E+03</rscale>
<asrwt>0</asrwt>
<pdfrwt beam="1">  1       21 0.66869789E-02 0.30000000E+03</pdfrwt>
<pdfrwt beam="2">0</pdfrwt>
<totfact> 0.17470031E+04</totfact>
</mgrwt>
</event>
<event>
 6    1  0.1270461E-001  0.3000000E+03  0.7818608E-02  0.1093470E+00
         21   -1    0    0  501  502  0.00000000000E+00  0.00000000000E+00  0.13879229155E+01  0.13879229155E+01  0.00000000000E+00 0. -1.
         13   -1    0    0    0    0 -0.00000000000E+00 -0.00000000000E+00 -0.10000000000E+04  0.10000000000E+04  0.00000000000E+00 0.  1.
    9000005    2    1    2  501    0  0.32800290714E+02  0.12491192779E+02 -0.66578860850E+03  0.66671890701E+03  0.27822267068E+01 0.  0.
         13    1    3    3    0    0  0.25598637496E+02  0.10889845223E+02 -0.53322924825E+03  0.53395440831E+03  0.00000000000E+00 0.  1.
          3    1    3    3  501    0  0.72016532177E+01  0.16013475566E+01 -0.13255936026E+03  0.13276449870E+03  0.00000000000E+00 0.  1.
         -3    1    1    2    0  502 -0.32800290714E+02 -0.12491192779E+02 -0.33282346858E+03  0.33466901590E+03  0.00000000000E+00 0. -1.
<mgrwt>
<rscale>  1 0.30000000E+03</rscale>
<asrwt>0</asrwt>
<pdfrwt beam="1">  1       21 0.50470031E-02 0.30000000E+03</pdfrwt>
<pdfrwt beam="2">0</pdfrwt>
<totfact> 0.28348743E+04</totfact>
</mgrwt>
</event>
<event>
 6    1  0.1270461E-001  0.3000000E+03  0.7818608E-02  0.1093470E+00
         21   -1    0    0  501  502  0.00000000000E+00  0.00000000000E+00  0.19071066301E+01  0.19071066301E+01  0.00000000000E+00 0. -1.
         13   -1    0    0    0    0 -0.00000000000E+00 -0.00000000000E+00 -0.10000000000E+04  0.10000000000E+04  0.00000000000E+00 0.  1.
    9000005    2    1    2  501    0  0.20118504624E+00 -0.31167942419E+02 -0.84871274079E+03  0.84930988813E+03  0.65183265639E+01 0.  0.
         13    1    3    3    0    0  0.22500970815E+01 -0.27853386373E+02 -0.74163877564E+03  0.74216504068E+03  0.00000000000E+00 0.  1.
          3    1    3    3  501    0 -0.20489120352E+01 -0.33145560463E+01 -0.10707396515E+03  0.10714484745E+03  0.00000000000E+00 0.  1.
         -1    1    1    2    0  502 -0.20118504624E+00  0.31167942419E+02 -0.14938015258E+03  0.15259721850E+03  0.00000000000E+00 0. -1.
<mgrwt>
<rscale>  1 0.30000000E+03</rscale>
<asrwt>0</asrwt>
<pdfrwt beam="1">  1       21 0.69349478E-02 0.30000000E+03</pdfrwt>
<pdfrwt beam="2">0</pdfrwt>
<totfact> 0.16399508E+04</totfact>
</mgrwt>
</event>
<event>
 6    1  0.1270461E-001  0.3000000E+03  0.7818608E-02  0.1093470E+00
         21   -1    0    0  501  502  0.00000000000E+00  0.00000000000E+00  0.14390498411E+01  0.14390498411E+01  0.00000000000E+00 0. -1.
         13   -1    0    0    0    0 -0.00000000000E+00 -0.00000000000E+00 -0.10000000000E+04  0.10000000000E+04  0.00000000000E+00 0.  1.
    9000005    2    1    2  501    0  0.25657301431E+02  0.15985073361E+02 -0.80124475500E+03  0.80182066252E+03  0.30655720932E+01 0.  0.
         13    1    3    3    0    0  0.18149974770E+02  0.96562480710E+01 -0.55002420137E+03  0.55040829100E+03  0.00000000000E+00 0.  1.
          3    1    3    3  501    0  0.75073266618E+01  0.63288252900E+01 -0.25122055363E+03  0.25141237152E+03  0.00000000000E+00 0.  1.
         -1    1    1    2    0  502 -0.25657301431E+02 -0.15985073361E+02 -0.19731619516E+03  0.19961838732E+03  0.00000000000E+00 0. -1.
<mgrwt>
<rscale>  1 0.30000000E+03</rscale>
<asrwt>0</asrwt>
<pdfrwt beam="1">  1       21 0.52329195E-02 0.30000000E+03</pdfrwt>
<pdfrwt beam="2">0</pdfrwt>
<totfact> 0.26650955E+04</totfact>
</mgrwt>
</event>
<event>
 6    1  0.1270461E-001  0.3000000E+03  0.7818608E-02  0.1093470E+00
         21   -1    0    0  501  502  0.00000000000E+00  0.00000000000E+00  0.30656205720E+01  0.30656205720E+01  0.00000000000E+00 0. -1.
         13   -1    0    0    0    0 -0.00000000000E+00 -0.00000000000E+00 -0.10000000000E+04  0.10000000000E+04  0.00000000000E+00 0.  1.
    9000005    2    1    2  501    0 -0.20881860545E+02  0.50538048892E+02 -0.57371730708E+03  0.57633053084E+03  0.38969018836E+01 0.  0.
         13    1    3    3    0    0 -0.18383726034E+02  0.46187346603E+02 -0.51064468731E+03  0.51305869942E+03  0.00000000000E+00 0.  1.
          3    1    3    3  501    0 -0.24981345111E+01  0.43507022891E+01 -0.63072619772E+02  0.63271831421E+02  0.00000000000E+00 0.  1.
         -3    1    1    2    0  502  0.20881860545E+02 -0.50538048892E+02 -0.42321707234E+03  0.42673508973E+03  0.00000000000E+00 0. -1.
<mgrwt>
<rscale>  1 0.30000000E+03</rscale>
<asrwt>0</asrwt>
<pdfrwt beam="1">  1       21 0.11147735E-01 0.30000000E+03</pdfrwt>
<pdfrwt beam="2">0</pdfrwt>
<totfact> 0.70799313E+03</totfact>
</mgrwt>
</event>
<event>
 6    1  0.1270461E-001  0.3000000E+03  0.7818608E-02  0.1093470E+00
         21   -1    0    0  501  502  0.00000000000E+00  0.00000000000E+00  0.84347674257E+01  0.84347674257E+01  0.00000000000E+00 0. -1.
         13   -1    0    0    0    0 -0.00000000000E+00 -0.00000000000E+00 -0.10000000000E+04  0.10000000000E+04  0.00000000000E+00 0.  1.
    9000005    2    1    2  501    0  0.25979299896E+01 -0.52718213650E+02 -0.90837439599E+03  0.90991231018E+03  0.32263958359E+01 0.  0.
         13    1    3    3    0    0  0.33461334176E+01 -0.40823345448E+02 -0.70698526501E+03  0.70817081773E+03  0.00000000000E+00 0.  1.
          1    1    3    3  501    0 -0.74820342801E+00 -0.11894868202E+02 -0.20138913098E+03  0.20174149245E+03  0.00000000000E+00 0.  1.
         -1    1    1    2    0  502 -0.25979299896E+01  0.52718213650E+02 -0.83190836582E+02  0.98522457247E+02  0.00000000000E+00 0. -1.
<mgrwt>
<rscale>  1 0.30000000E+03</rscale>
<asrwt>0</asrwt>
<pdfrwt beam="1">  1       21 0.30671946E-01 0.30000000E+03</pdfrwt>
<pdfrwt beam="2">0</pdfrwt>
<totfact> 0.10400759E+03</totfact>
</mgrwt>
</event>
<event>
 6    1  0.1270461E-001  0.3000000E+03  0.7818608E-02  0.1093470E+00
         21   -1    0    0  501  502  0.00000000000E+00  0.00000000000E+00  0.27829480923E+02  0.27829480923E+02  0.00000000000E+00 0. -1.
         13   -1    0    0    0    0 -0.00000000000E+00 -0.00000000000E+00 -0.10000000000E+04  0.10000000000E+04  0.00000000000E+00 0.  1.
    9000005    2    1    2  501    0  0.11401659652E+03 -0.11029441124E+03 -0.64491875539E+03  0.66415605838E+03  0.42927136417E+01 0.  0.
         13    1    3    3    0    0  0.74733077591E+02 -0.74725585662E+02 -0.42524017810E+03  0.43817594081E+03  0.00000000000E+00 0.  1.
          3    1    3    3  501    0  0.39283518927E+02 -0.35568825576E+02 -0.21967857729E+03  0.22598011756E+03  0.00000000000E+00 0.  1.
         -3    1    1    2    0  502 -0.11401659652E+03  0.11029441124E+03 -0.32725176368E+03  0.36367342255E+03  0.00000000000E+00 0. -1.
<mgrwt>
<rscale>  1 0.30000000E+03</rscale>
<asrwt>0</asrwt>
<pdfrwt beam="1">  1       21 0.10119833E+00 0.30000000E+03</pdfrwt>
<pdfrwt beam="2">0</pdfrwt>
<totfact> 0.71463939E+01</totfact>
</mgrwt>
</event>
<event>
 6    1  0.1270461E-001  0.3000000E+03  0.7818608E-02  0.1093470E+00
         21   -1    0    0  501  502  0.00000000000E+00  0.00000000000E+00  0.24522098907E+01  0.24522098907E+01  0.00000000000E+00 0. -1.
         13   -1    0    0    0    0 -0.00000000000E+00 -0.00000000000E+00 -0.10000000000E+04  0.10000000000E+04  0.00000000000E+00 0.  1.
    9000005    2    1    2  501    0  0.17323932369E+02  0.45334931085E+02 -0.59568155066E+03  0.59766603298E+03  0.35780681361E+01 0.  0.
         13    1    3    3    0    0  0.14958367008E+02  0.35048540977E+02 -0.46428429250E+03  0.46584552937E+03  0.00000000000E+00 0.  1.
          1    1    3    3  501    0  0.23655653606E+01  0.10286390108E+02 -0.13139725816E+03  0.13182050361E+03  0.00000000000E+00 0.  1.
         -3    1    1    2    0  502 -0.17323932369E+02 -0.45334931085E+02 -0.40186623945E+03  0.40478617691E+03  0.00000000000E+00 0. -1.
<mgrwt>
<rscale>  1 0.30000000E+03</rscale>
<asrwt>0</asrwt>
<pdfrwt beam="1">  1       21 0.89171457E-02 0.30000000E+03</pdfrwt>
<pdfrwt beam="2">0</pdfrwt>
<totfact> 0.10549468E+04</totfact>
</mgrwt>
</event>
<event>
 6    1  0.1270461E-001  0.3000000E+03  0.7818608E-02  0.1093470E+00
         21   -1    0    0  501  502  0.00000000000E+00  0.00000000000E+00  0.27893198827E+01  0.27893198827E+01  0.00000000000E+00 0. -1.
         13   -1    0    0    0    0 -0.00000000000E+00 -0.00000000000E+00 -0.10000000000E+04  0.10000000000E+04  0.00000000000E+00 0.  1.
    9000005    2    1    2  501    0 -0.36528460368E+02  0.37656653321E+02 -0.44360498566E+03  0.44670334012E+03  0.24776628751E+01 0.  0.
         13    1    3    3    0    0 -0.31409173785E+02  0.32304716091E+02 -0.37329643014E+03  0.37600579203E+03  0.00000000000E+00 0.  1.
          1    1    3    3  501    0 -0.51192865835E+01  0.53519372292E+01 -0.70308555519E+02  0.70697548093E+02  0.00000000000E+00 0.  1.
         -1    1    1    2    0  502  0.36528460368E+02 -0.37656653321E+02 -0.55360569445E+03  0.55608597976E+03  0.00000000000E+00 0. -1.
<mgrwt>
<rscale>  1 0.30000000E+03</rscale>
<asrwt>0</asrwt>
<pdfrwt beam="1">  1       21 0.10143003E-01 0.30000000E+03</pdfrwt>
<pdfrwt beam="2">0</pdfrwt>
<totfact> 0.83875776E+03</totfact>
</mgrwt>
</event>
<event>
 6    1  0.1270461E-001  0.3000000E+03  0.7818608E-02  0.1093470E+00
         21   -1    0    0  501  502  0.00000000000E+00  0.00000000000E+00  0.10394296029E+01  0.10394296029E+01  0.00000000000E+00 0. -1.
         13   -1    0    0    0    0 -0.00000000000E+00 -0.00000000000E+00 -0.10000000000E+04  0.10000000000E+04  0.00000000000E+00 0.  1.
    9000005    2    1    2  501    0  0.69782103981E+01  0.31078768261E+02 -0.57045116879E+03  0.57134780469E+03  0.30319449355E+01 0.  0.
         13    1    3    3    0    0  0.25207717352E+01  0.17903544162E+02 -0.32856471946E+03  0.32906179672E+03  0.00000000000E+00 0.  1.
          1    1    3    3  501    0  0.44574386629E+01  0.13175224100E+02 -0.24188644933E+03  0.24228600797E+03  0.00000000000E+00 0.  1.
         -1    1    1    2    0  502 -0.69782103981E+01 -0.31078768261E+02 -0.42850940161E+03  0.42969162492E+03  0.00000000000E+00 0. -1.
<mgrwt>
<rscale>  1 0.30000000E+03</rscale>
<asrwt>0</asrwt>
<pdfrwt beam="1">  1       21 0.37797520E-02 0.30000000E+03</pdfrwt>
<pdfrwt beam="2">0</pdfrwt>
<totfact> 0.46249334E+04</totfact>
</mgrwt>
</event>
<event>
 6    1  0.1270461E-001  0.3000000E+03  0.7818608E-02  0.1093470E+00
         21   -1    0    0  501  502  0.00000000000E+00  0.00000000000E+00  0.37060012741E+01  0.37060012741E+01  0.00000000000E+00 0. -1.
         13   -1    0    0    0    0 -0.00000000000E+00 -0.00000000000E+00 -0.10000000000E+04  0.10000000000E+04  0.00000000000E+00 0.  1.
    9000005    2    1    2  501    0 -0.46259147293E+01  0.31089134282E+02 -0.92787491489E+03  0.92841254611E+03  0.31724968980E+01 0.  0.
         13    1    3    3    0    0 -0.11953429343E+01  0.29330261098E+01 -0.11177868345E+03  0.11182354654E+03  0.00000000000E+00 0.  1.
          1    1    3    3  501    0 -0.34305717950E+01  0.28156108172E+02 -0.81609623144E+03  0.81658899957E+03  0.00000000000E+00 0.  1.
         -3    1    1    2    0  502  0.46259147293E+01 -0.31089134282E+02 -0.68419083836E+02  0.75293455163E+02  0.00000000000E+00 0. -1.
<mgrwt>
<rscale>  1 0.30000000E+03</rscale>
<asrwt>0</asrwt>
<pdfrwt beam="1">  1       21 0.13476397E-01 0.30000000E+03</pdfrwt>
<pdfrwt beam="2">0</pdfrwt>
<totfact> 0.50153482E+03</totfact>
</mgrwt>
</event>
<event>
 6    1  0.1270461E-001  0.3000000E+03  0.7818608E-02  0.1093470E+00
         21   -1    0    0  501  502  0.00000000000E+00  0.00000000000E+00  0.44007543513E+01  0.44007543513E+01  0.00000000000E+00 0. -1.
         13   -1    0    0    0    0 -0.00000000000E+00 -0.00000000000E+00 -0.10000000000E+04  0.10000000000E+04  0.00000000000E+00 0.  1.
    9000005    2    1    2  501    0  0.29909464008E+02 -0.18840678788E+02 -0.92270809585E+03  0.92339046529E+03  0.31896757087E+01 0.  0.
         13    1    3    3    0    0  0.18352683251E+02 -0.10069133095E+02 -0.56897063323E+03  0.56935559179E+03  0.00000000000E+00 0.  1.
          1    1    3    3  501    0  0.11556780758E+02 -0.87715456937E+01 -0.35373746262E+03  0.35403487350E+03  0.00000000000E+00 0.  1.
         -3    1    1    2    0  502 -0.29909464008E+02  0.18840678788E+02 -0.72891149799E+02  0.81010289060E+02  0.00000000000E+00 0. -1.
<mgrwt>
<rscale>  1 0.30000000E+03</rscale>
<asrwt>0</asrwt>
<pdfrwt beam="1">  1       21 0.16002777E-01 0.30000000E+03</pdfrwt>
<pdfrwt beam="2">0</pdfrwt>
<totfact> 0.36514831E+03</totfact>
</mgrwt>
</event>
<event>
 6    1  0.1270461E-001  0.3000000E+03  0.7818608E-02  0.1093470E+00
         21   -1    0    0  501  502  0.00000000000E+00  0.00000000000E+00  0.25668995908E+01  0.25668995908E+01  0.00000000000E+00 0. -1.
         13   -1    0    0    0    0 -0.00000000000E+00 -0.00000000000E+00 -0.10000000000E+04  0.10000000000E+04  0.00000000000E+00 0.  1.
    9000005    2    1    2  501    0  0.22163662715E+02  0.24620594118E+02 -0.87780569641E+03  0.87843746156E+03  0.34830463819E+01 0.  0.
         13    1    3    3    0    0  0.10724311739E+02  0.14349848911E+02 -0.48812453496E+03  0.48845316117E+03  0.00000000000E+00 0.  1.
          3    1    3    3  501    0  0.11439350976E+02  0.10270745207E+02 -0.38968116145E+03  0.38998430039E+03  0.00000000000E+00 0.  1.
         -1    1    1    2    0  502 -0.22163662715E+02 -0.24620594118E+02 -0.11962740400E+03  0.12412943803E+03  0.00000000000E+00 0. -1.
<mgrwt>
<rscale>  1 0.30000000E+03</rscale>
<asrwt>0</asrwt>
<pdfrwt beam="1">  1       21 0.93342000E-02 0.30000000E+03</pdfrwt>
<pdfrwt beam="2">0</pdfrwt>
<totfact> 0.97278079E+03</totfact>
</mgrwt>
</event>
<event>
 6    1  0.1270461E-001  0.3000000E+03  0.7818608E-02  0.1093470E+00
         21   -1    0    0  501  502  0.00000000000E+00  0.00000000000E+00  0.25824642232E+01  0.25824642232E+01  0.00000000000E+00 0. -1.
         13   -1    0    0    0    0 -0.00000000000E+00 -0.00000000000E+00 -0.10000000000E+04  0.10000000000E+04  0.00000000000E+00 0.  1.
    9000005    2    1    2  501    0  0.27564208406E+02  0.19138063617E+02 -0.87497873647E+03  0.87562849366E+03  0.33791396217E+01 0.  0.
         13    1    3    3    0    0  0.62775769484E+01  0.52189312326E+01 -0.24721890693E+03  0.24735366009E+03  0.00000000000E+00 0.  1.
          3    1    3    3  501    0  0.21286631458E+02  0.13919132384E+02 -0.62775982954E+03  0.62827483358E+03  0.00000000000E+00 0.  1.
         -1    1    1    2    0  502 -0.27564208406E+02 -0.19138063617E+02 -0.12243879931E+03  0.12695397056E+03  0.00000000000E+00 0. -1.
<mgrwt>
<rscale>  1 0.30000000E+03</rscale>
<asrwt>0</asrwt>
<pdfrwt beam="1">  1       21 0.93907988E-02 0.30000000E+03</pdfrwt>
<pdfrwt beam="2">0</pdfrwt>
<totfact> 0.96237764E+03</totfact>
</mgrwt>
</event>
<event>
 6    1  0.1270461E-001  0.3000000E+03  0.7818608E-02  0.1093470E+00
         21   -1    0    0  501  502  0.00000000000E+00  0.00000000000E+00  0.26235288631E+01  0.26235288631E+01  0.00000000000E+00 0. -1.
         13   -1    0    0    0    0 -0.00000000000E+00 -0.00000000000E+00 -0.10000000000E+04  0.10000000000E+04  0.00000000000E+00 0.  1.
    9000005    2    1    2  501    0 -0.40339308987E+02 -0.31124909108E+02 -0.48044838713E+03  0.48319050734E+03  0.68113044629E+01 0.  0.
         13    1    3    3    0    0 -0.32884015870E+02 -0.28442173596E+02 -0.40836381271E+03  0.41067179021E+03  0.00000000000E+00 0.  1.
          3    1    3    3  501    0 -0.74552931169E+01 -0.26827355118E+01 -0.72084574416E+02  0.72518717129E+02  0.00000000000E+00 0.  1.
         -3    1    1    2    0  502  0.40339308987E+02  0.31124909108E+02 -0.51692808401E+03  0.51943302153E+03  0.00000000000E+00 0. -1.
<mgrwt>
<rscale>  1 0.30000000E+03</rscale>
<asrwt>0</asrwt>
<pdfrwt beam="1">  1       21 0.95401251E-02 0.30000000E+03</pdfrwt>
<pdfrwt beam="2">0</pdfrwt>
<totfact> 0.93571883E+03</totfact>
</mgrwt>
</event>
<event>
 6    1  0.1270461E-001  0.3000000E+03  0.7818608E-02  0.1093470E+00
         21   -1    0    0  501  502  0.00000000000E+00  0.00000000000E+00  0.14583708660E+01  0.14583708660E+01  0.00000000000E+00 0. -1.
         13   -1    0    0    0    0 -0.00000000000E+00 -0.00000000000E+00 -0.10000000000E+04  0.10000000000E+04  0.00000000000E+00 0.  1.
    9000005    2    1    2  501    0  0.53965095432E+01 -0.33357414575E+02 -0.26872042396E+03  0.27085531110E+03  0.31770857272E+01 0.  0.
         13    1    3    3    0    0  0.91618776064E+00 -0.32632810705E+01 -0.20707695272E+02  0.20983256345E+02  0.00000000000E+00 0.  1.
          1    1    3    3  501    0  0.44803217826E+01 -0.30094133505E+02 -0.24801272869E+03  0.24987205476E+03  0.00000000000E+00 0.  1.
         -1    1    1    2    0  502 -0.53965095432E+01  0.33357414575E+02 -0.72982120517E+03  0.73060305977E+03  0.00000000000E+00 0. -1.
<mgrwt>
<rscale>  1 0.30000000E+03</rscale>
<asrwt>0</asrwt>
<pdfrwt beam="1">  1       21 0.53031780E-02 0.30000000E+03</pdfrwt>
<pdfrwt beam="2">0</pdfrwt>
<totfact> 0.26050143E+04</totfact>
</mgrwt>
</event>
<event>
 6    1  0.1270461E-001  0.3000000E+03  0.7818608E-02  0.1093470E+00
         21   -1    0    0  501  502  0.00000000000E+00  0.00000000000E+00  0.14440431442E+01  0.14440431442E+01  0.00000000000E+00 0. -1.
         13   -1    0    0    0    0 -0.00000000000E+00 -0.00000000000E+00 -0.10000000000E+04  0.10000000000E+04  0.00000000000E+00 0.  1.
    9000005    2    1    2  501    0 -0.93394015402E+01  0.35290018337E+02 -0.63555626989E+03  0.63661342141E+03  0.35023294569E+01 0.  0.
         13    1    3    3    0    0 -0.43711756644E+01  0.16556331455E+02 -0.32864545781E+03  0.32909125821E+03  0.00000000000E+00 0.  1.
          1    1    3    3  501    0 -0.49682258758E+01  0.18733686882E+02 -0.30691081207E+03  0.30752216320E+03  0.00000000000E+00 0.  1.
         -3    1    1    2    0  502  0.93394015402E+01 -0.35290018337E+02 -0.36299968697E+03  0.36483062174E+03  0.00000000000E+00 0. -1.
<mgrwt>
<rscale>  1 0.30000000E+03</rscale>
<asrwt>0</asrwt>
<pdfrwt beam="1">  1       21 0.52510771E-02 0.30000000E+03</pdfrwt>
<pdfrwt beam="2">0</pdfrwt>
<totfact> 0.26493641E+04</totfact>
</mgrwt>
</event>
<event>
 6    1  0.1270461E-001  0.3000000E+03  0.7818608E-02  0.1093470E+00
         21   -1    0    0  501  502  0.00000000000E+00  0.00000000000E+00  0.42372058152E+01  0.42372058152E+01  0.00000000000E+00 0. -1.
         13   -1    0    0    0    0 -0.00000000000E+00 -0.00000000000E+00 -0.10000000000E+04  0.10000000000E+04  0.00000000000E+00 0.  1.
    9000005    2    1    2  501    0  0.37947734965E+02 -0.51413552676E+02 -0.40565812265E+03  0.41068273708E+03  0.42911625809E+01 0.  0.
         13    1    3    3    0    0  0.29666505282E+02 -0.39883999399E+02 -0.30365598835E+03  0.30769756938E+03  0.00000000000E+00 0.  1.
          1    1    3    3  501    0  0.82812296829E+01 -0.11529553277E+02 -0.10200213430E+03  0.10298516770E+03  0.00000000000E+00 0.  1.
         -1    1    1    2    0  502 -0.37947734965E+02  0.51413552676E+02 -0.59010467154E+03  0.59355446874E+03  0.00000000000E+00 0. -1.
<mgrwt>
<rscale>  1 0.30000000E+03</rscale>
<asrwt>0</asrwt>
<pdfrwt beam="1">  1       21 0.15408054E-01 0.30000000E+03</pdfrwt>
<pdfrwt beam="2">0</pdfrwt>
<totfact> 0.39181352E+03</totfact>
</mgrwt>
</event>
<event>
 6    1  0.1270461E-001  0.3000000E+03  0.7818608E-02  0.1093470E+00
         21   -1    0    0  501  502  0.00000000000E+00  0.00000000000E+00  0.22227426707E+01  0.22227426707E+01  0.00000000000E+00 0. -1.
         13   -1    0    0    0    0 -0.00000000000E+00 -0.00000000000E+00 -0.10000000000E+04  0.10000000000E+04  0.00000000000E+00 0.  1.
    9000005    2    1    2  501    0  0.26281865415E+02  0.20857076715E+02 -0.85057815606E+03  0.85124814377E+03  0.38011322520E+01 0.  0.
         13    1    3    3    0    0  0.19235709115E+02  0.17190884172E+02 -0.66416453989E+03  0.66466538577E+03  0.00000000000E+00 0.  1.
          1    1    3    3  501    0  0.70461563006E+01  0.36661925432E+01 -0.18641361618E+03  0.18658275800E+03  0.00000000000E+00 0.  1.
         -1    1    1    2    0  502 -0.26281865415E+02 -0.20857076715E+02 -0.14719910127E+03  0.15097459890E+03  0.00000000000E+00 0. -1.
<mgrwt>
<rscale>  1 0.30000000E+03</rscale>
<asrwt>0</asrwt>
<pdfrwt beam="1">  1       21 0.80827177E-02 0.30000000E+03</pdfrwt>
<pdfrwt beam="2">0</pdfrwt>
<totfact> 0.12545075E+04</totfact>
</mgrwt>
</event>
<event>
 6    1  0.1270461E-001  0.3000000E+03  0.7818608E-02  0.1093470E+00
         21   -1    0    0  501  502  0.00000000000E+00  0.00000000000E+00  0.16638676255E+01  0.16638676255E+01  0.00000000000E+00 0. -1.
         13   -1    0    0    0    0 -0.00000000000E+00 -0.00000000000E+00 -0.10000000000E+04  0.10000000000E+04  0.00000000000E+00 0.  1.
    9000005    2    1    2  501    0  0.28549392344E+02  0.18294780277E+02 -0.77602441096E+03  0.77678107979E+03  0.50192347884E+01 0.  0.
         13    1    3    3    0    0  0.14393173746E+01 -0.18979611616E+00 -0.28720881012E+02  0.28757549673E+02  0.00000000000E+00 0.  1.
          3    1    3    3  501    0  0.27110074969E+02  0.18484576393E+02 -0.74730352995E+03  0.74802353011E+03  0.00000000000E+00 0.  1.
         -3    1    1    2    0  502 -0.28549392344E+02 -0.18294780277E+02 -0.22231172141E+03  0.22488278784E+03  0.00000000000E+00 0. -1.
<mgrwt>
<rscale>  1 0.30000000E+03</rscale>
<asrwt>0</asrwt>
<pdfrwt beam="1">  1       21 0.60504405E-02 0.30000000E+03</pdfrwt>
<pdfrwt beam="2">0</pdfrwt>
<totfact> 0.20769568E+04</totfact>
</mgrwt>
</event>
<event>
 6    1  0.1270461E-001  0.3000000E+03  0.7818608E-02  0.1093470E+00
         21   -1    0    0  501  502  0.00000000000E+00  0.00000000000E+00  0.21511897675E+01  0.21511897675E+01  0.00000000000E+00 0. -1.
         13   -1    0    0    0    0 -0.00000000000E+00 -0.00000000000E+00 -0.10000000000E+04  0.10000000000E+04  0.00000000000E+00 0.  1.
    9000005    2    1    2  501    0 -0.53368151952E+01 -0.39883040817E+02 -0.74745369872E+03  0.74854351951E+03  0.33511695582E+01 0.  0.
         13    1    3    3    0    0 -0.18801974161E+01 -0.25187329987E+02 -0.48011421775E+03  0.48077811808E+03  0.00000000000E+00 0.  1.
          1    1    3    3  501    0 -0.34566177791E+01 -0.14695710830E+02 -0.26733948097E+03  0.26776540144E+03  0.00000000000E+00 0.  1.
         -3    1    1    2    0  502  0.53368151952E+01  0.39883040817E+02 -0.25039511152E+03  0.25360767025E+03  0.00000000000E+00 0. -1.
<mgrwt>
<rscale>  1 0.30000000E+03</rscale>
<asrwt>0</asrwt>
<pdfrwt beam="1">  1       21 0.78225247E-02 0.30000000E+03</pdfrwt>
<pdfrwt beam="2">0</pdfrwt>
<totfact> 0.13286945E+04</totfact>
</mgrwt>
</event>
<event>
 6    1  0.1270461E-001  0.3000000E+03  0.7818608E-02  0.1093470E+00
         21   -1    0    0  501  502  0.00000000000E+00  0.00000000000E+00  0.19633866036E+01  0.19633866036E+01  0.00000000000E+00 0. -1.
         13   -1    0    0    0    0 -0.00000000000E+00 -0.00000000000E+00 -0.10000000000E+04  0.10000000000E+04  0.00000000000E+00 0.  1.
    9000005    2    1    2  501    0  0.27636726354E+02 -0.12116682585E+02 -0.86568747189E+03  0.86621767618E+03  0.27678334907E+01 0.  0.
         13    1    3    3    0    0  0.19211937066E+02 -0.89376548977E+01 -0.63987760487E+03  0.64022834162E+03  0.00000000000E+00 0.  1.
          3    1    3    3  501    0  0.84247892879E+01 -0.31790276868E+01 -0.22580986702E+03  0.22598933456E+03  0.00000000000E+00 0.  1.
         -3    1    1    2    0  502 -0.27636726354E+02  0.12116682585E+02 -0.13234914151E+03  0.13574571042E+03  0.00000000000E+00 0. -1.
<mgrwt>
<rscale>  1 0.30000000E+03</rscale>
<asrwt>0</asrwt>
<pdfrwt beam="1">  1       21 0.71396027E-02 0.30000000E+03</pdfrwt>
<pdfrwt beam="2">0</pdfrwt>
<totfact> 0.15589757E+04</totfact>
</mgrwt>
</event>
<event>
 6    1  0.1270461E-001  0.3000000E+03  0.7818608E-02  0.1093470E+00
         21   -1    0    0  501  502  0.00000000000E+00  0.00000000000E+00  0.50270291972E+01  0.50270291972E+01  0.00000000000E+00 0. -1.
         13   -1    0    0    0    0 -0.00000000000E+00 -0.00000000000E+00 -0.10000000000E+04  0.10000000000E+04  0.00000000000E+00 0.  1.
    9000005    2    1    2  501    0  0.15576179989E+02  0.68062808218E+02 -0.41280983040E+03  0.41869172812E+03  0.39552339628E+01 0.  0.
         13    1    3    3    0    0  0.83458294750E+01  0.28699554546E+02 -0.17106984559E+03  0.17366119132E+03  0.00000000000E+00 0.  1.
          1    1    3    3  501    0  0.72303505138E+01  0.39363253673E+02 -0.24173998480E+03  0.24503053679E+03  0.00000000000E+00 0.  1.
         -3    1    1    2    0  502 -0.15576179989E+02 -0.68062808218E+02 -0.58216314041E+03  0.58633530108E+03  0.00000000000E+00 0. -1.
<mgrwt>
<rscale>  1 0.30000000E+03</rscale>
<asrwt>0</asrwt>
<pdfrwt beam="1">  1       21 0.18280145E-01 0.30000000E+03</pdfrwt>
<pdfrwt beam="2">0</pdfrwt>
<totfact> 0.28454982E+03</totfact>
</mgrwt>
</event>
<event>
 6    1  0.1270461E-001  0.3000000E+03  0.7818608E-02  0.1093470E+00
         21   -1    0    0  501  502  0.00000000000E+00  0.00000000000E+00  0.53794279358E+01  0.53794279358E+01  0.00000000000E+00 0. -1.
         13   -1    0    0    0    0 -0.00000000000E+00 -0.00000000000E+00 -0.10000000000E+04  0.10000000000E+04  0.00000000000E+00 0.  1.
    9000005    2    1    2  501    0  0.43046976388E+02 -0.14441903335E+02 -0.89201691390E+03  0.89317817385E+03  0.33859746036E+01 0.  0.
         13    1    3    3    0    0  0.98693449403E+01 -0.48377756154E+01 -0.21565542981E+03  0.21593534322E+03  0.00000000000E+00 0.  1.
          1    1    3    3  501    0  0.33177631448E+02 -0.96041277196E+01 -0.67636148408E+03  0.67724283064E+03  0.00000000000E+00 0.  1.
         -1    1    1    2    0  502 -0.43046976388E+02  0.14441903335E+02 -0.10260365817E+03  0.11220125408E+03  0.00000000000E+00 0. -1.
<mgrwt>
<rscale>  1 0.30000000E+03</rscale>
<asrwt>0</asrwt>
<pdfrwt beam="1">  1       21 0.19561597E-01 0.30000000E+03</pdfrwt>
<pdfrwt beam="2">0</pdfrwt>
<totfact> 0.25027407E+03</totfact>
</mgrwt>
</event>
<event>
 6    1  0.1270461E-001  0.3000000E+03  0.7818608E-02  0.1093470E+00
         21   -1    0    0  501  502  0.00000000000E+00  0.00000000000E+00  0.37099533614E+01  0.37099533614E+01  0.00000000000E+00 0. -1.
         13   -1    0    0    0    0 -0.00000000000E+00 -0.00000000000E+00 -0.10000000000E+04  0.10000000000E+04  0.00000000000E+00 0.  1.
    9000005    2    1    2  501    0  0.43979743683E+02  0.53750734929E+01 -0.84228119571E+03  0.84345442169E+03  0.38261649882E+01 0.  0.
         13    1    3    3    0    0  0.15612806055E+02  0.18308157096E+01 -0.26503579782E+03  0.26550157386E+03  0.00000000000E+00 0.  1.
          3    1    3    3  501    0  0.28366937628E+02  0.35442577834E+01 -0.57724539790E+03  0.57795284782E+03  0.00000000000E+00 0.  1.
         -3    1    1    2    0  502 -0.43979743683E+02 -0.53750734929E+01 -0.15400885092E+03  0.16025553168E+03  0.00000000000E+00 0. -1.
<mgrwt>
<rscale>  1 0.30000000E+03</rscale>
<asrwt>0</asrwt>
<pdfrwt beam="1">  1       21 0.13490768E-01 0.30000000E+03</pdfrwt>
<pdfrwt beam="2">0</pdfrwt>
<totfact> 0.50055686E+03</totfact>
</mgrwt>
</event>
<event>
 6    1  0.1270461E-001  0.3000000E+03  0.7818608E-02  0.1093470E+00
         21   -1    0    0  501  502  0.00000000000E+00  0.00000000000E+00  0.15575902635E+01  0.15575902635E+01  0.00000000000E+00 0. -1.
         13   -1    0    0    0    0 -0.00000000000E+00 -0.00000000000E+00 -0.10000000000E+04  0.10000000000E+04  0.00000000000E+00 0.  1.
    9000005    2    1    2  501    0  0.47978976066E+01 -0.38985910002E+02 -0.49318200077E+03  0.49477262416E+03  0.53425400199E+01 0.  0.
         13    1    3    3    0    0  0.17174303350E+01 -0.81685162806E+01 -0.81104446441E+02  0.81532848949E+02  0.00000000000E+00 0.  1.
          1    1    3    3  501    0  0.30804672716E+01 -0.30817393722E+02 -0.41207755433E+03  0.41323977521E+03  0.00000000000E+00 0.  1.
         -3    1    1    2    0  502 -0.47978976066E+01  0.38985910002E+02 -0.50526040897E+03  0.50678496610E+03  0.00000000000E+00 0. -1.
<mgrwt>
<rscale>  1 0.30000000E+03</rscale>
<asrwt>0</asrwt>
<pdfrwt beam="1">  1       21 0.56639765E-02 0.30000000E+03</pdfrwt>
<pdfrwt beam="2">0</pdfrwt>
<totfact> 0.23270505E+04</totfact>
</mgrwt>
</event>
<event>
 6    1  0.1270461E-001  0.3000000E+03  0.7818608E-02  0.1093470E+00
         21   -1    0    0  501  502  0.00000000000E+00  0.00000000000E+00  0.22874099609E+01  0.22874099609E+01  0.00000000000E+00 0. -1.
         13   -1    0    0    0    0 -0.00000000000E+00 -0.00000000000E+00 -0.10000000000E+04  0.10000000000E+04  0.00000000000E+00 0.  1.
    9000005    2    1    2  501    0  0.75519250090E+00  0.47378709602E+02 -0.50985478802E+03  0.51213381421E+03  0.91556730230E+01 0.  0.
         13    1    3    3    0    0 -0.28896457656E+01  0.11768955464E+02 -0.10405401061E+03  0.10475731711E+03  0.00000000000E+00 0.  1.
          3    1    3    3  501    0  0.36448382665E+01  0.35609754138E+02 -0.40580077741E+03  0.40737649709E+03  0.00000000000E+00 0.  1.
         -3    1    1    2    0  502 -0.75519250090E+00 -0.47378709602E+02 -0.48785780202E+03  0.49015359575E+03  0.00000000000E+00 0. -1.
<mgrwt>
<rscale>  1 0.30000000E+03</rscale>
<asrwt>0</asrwt>
<pdfrwt beam="1">  1       21 0.83178719E-02 0.30000000E+03</pdfrwt>
<pdfrwt beam="2">0</pdfrwt>
<totfact> 0.11927910E+04</totfact>
</mgrwt>
</event>
<event>
 6    1  0.1270461E-001  0.3000000E+03  0.7818608E-02  0.1093470E+00
         21   -1    0    0  501  502  0.00000000000E+00  0.00000000000E+00  0.15482190300E+01  0.15482190300E+01  0.00000000000E+00 0. -1.
         13   -1    0    0    0    0 -0.00000000000E+00 -0.00000000000E+00 -0.10000000000E+04  0.10000000000E+04  0.00000000000E+00 0.  1.
    9000005    2    1    2  501    0 -0.33457719109E+02  0.10788054162E+02 -0.72295404344E+03  0.72381668596E+03  0.34992654221E+01 0.  0.
         13    1    3    3    0    0 -0.15358824727E+02  0.63949123404E+01 -0.31905263700E+03  0.31948610858E+03  0.00000000000E+00 0.  1.
          3    1    3    3  501    0 -0.18098894382E+02  0.43931418212E+01 -0.40390140645E+03  0.40433057738E+03  0.00000000000E+00 0.  1.
         -1    1    1    2    0  502  0.33457719109E+02 -0.10788054162E+02 -0.27549773753E+03  0.27773153307E+03  0.00000000000E+00 0. -1.
<mgrwt>
<rscale>  1 0.30000000E+03</rscale>
<asrwt>0</asrwt>
<pdfrwt beam="1">  1       21 0.56298993E-02 0.30000000E+03</pdfrwt>
<pdfrwt beam="2">0</pdfrwt>
<totfact> 0.23513046E+04</totfact>
</mgrwt>
</event>
<event>
 6    1  0.1270461E-001  0.3000000E+03  0.7818608E-02  0.1093470E+00
         21   -1    0    0  501  502  0.00000000000E+00  0.00000000000E+00  0.13822622289E+01  0.13822622289E+01  0.00000000000E+00 0. -1.
         13   -1    0    0    0    0 -0.00000000000E+00 -0.00000000000E+00 -0.10000000000E+04  0.10000000000E+04  0.00000000000E+00 0.  1.
    9000005    2    1    2  501    0  0.92079991240E+01 -0.34902292645E+02 -0.61645273139E+03  0.61751633592E+03  0.30818514479E+01 0.  0.
         13    1    3    3    0    0  0.55014538566E+01 -0.21789561531E+02 -0.35808666948E+03  0.35879118418E+03  0.00000000000E+00 0.  1.
          3    1    3    3  501    0  0.37065452674E+01 -0.13112731115E+02 -0.25836606191E+03  0.25872515174E+03  0.00000000000E+00 0.  1.
         -3    1    1    2    0  502 -0.92079991240E+01  0.34902292645E+02 -0.38216500638E+03  0.38386592631E+03  0.00000000000E+00 0. -1.
<mgrwt>
<rscale>  1 0.30000000E+03</rscale>
<asrwt>0</asrwt>
<pdfrwt beam="1">  1       21 0.50264187E-02 0.30000000E+03</pdfrwt>
<pdfrwt beam="2">0</pdfrwt>
<totfact> 0.28547011E+04</totfact>
</mgrwt>
</event>
<event>
 6    1  0.1270461E-001  0.3000000E+03  0.7818608E-02  0.1093470E+00
         21   -1    0    0  501  502  0.00000000000E+00  0.00000000000E+00  0.47749533739E+01  0.47749533739E+01  0.00000000000E+00 0. -1.
         13   -1    0    0    0    0 -0.00000000000E+00 -0.00000000000E+00 -0.10000000000E+04  0.10000000000E+04  0.00000000000E+00 0.  1.
    9000005    2    1    2  501    0 -0.28781506827E+02 -0.24917944074E+02 -0.91682584971E+03  0.91762156475E+03  0.32277421473E+01 0.  0.
         13    1    3    3    0    0 -0.17652198492E+02 -0.14467121518E+02 -0.58379152756E+03  0.58423749055E+03  0.00000000000E+00 0.  1.
          1    1    3    3  501    0 -0.11129308335E+02 -0.10450822556E+02 -0.33303432215E+03  0.33338407420E+03  0.00000000000E+00 0.  1.
         -3    1    1    2    0  502  0.28781506827E+02  0.24917944074E+02 -0.78399196916E+02  0.87153388627E+02  0.00000000000E+00 0. -1.
<mgrwt>
<rscale>  1 0.30000000E+03</rscale>
<asrwt>0</asrwt>
<pdfrwt beam="1">  1       21 0.17363503E-01 0.30000000E+03</pdfrwt>
<pdfrwt beam="2">0</pdfrwt>
<totfact> 0.31346871E+03</totfact>
</mgrwt>
</event>
<event>
 6    1  0.1270461E-001  0.3000000E+03  0.7818608E-02  0.1093470E+00
         21   -1    0    0  501  502  0.00000000000E+00  0.00000000000E+00  0.23258575313E+01  0.23258575313E+01  0.00000000000E+00 0. -1.
         13   -1    0    0    0    0 -0.00000000000E+00 -0.00000000000E+00 -0.10000000000E+04  0.10000000000E+04  0.00000000000E+00 0.  1.
    9000005    2    1    2  501    0 -0.11132282106E+01 -0.46265869028E+02 -0.63775791297E+03  0.63944645308E+03  0.38523881916E+01 0.  0.
         13    1    3    3    0    0 -0.24764065791E+01 -0.25847724130E+02 -0.36312340756E+03  0.36405060988E+03  0.00000000000E+00 0.  1.
          1    1    3    3  501    0  0.13631783685E+01 -0.20418144898E+02 -0.27463450540E+03  0.27539584320E+03  0.00000000000E+00 0.  1.
         -3    1    1    2    0  502  0.11132282106E+01  0.46265869028E+02 -0.35991622950E+03  0.36287940445E+03  0.00000000000E+00 0. -1.
<mgrwt>
<rscale>  1 0.30000000E+03</rscale>
<asrwt>0</asrwt>
<pdfrwt beam="1">  1       21 0.84576816E-02 0.30000000E+03</pdfrwt>
<pdfrwt beam="2">0</pdfrwt>
<totfact> 0.11582737E+04</totfact>
</mgrwt>
</event>
<event>
 6    1  0.1270461E-001  0.3000000E+03  0.7818608E-02  0.1093470E+00
         21   -1    0    0  501  502  0.00000000000E+00  0.00000000000E+00  0.25403496196E+01  0.25403496196E+01  0.00000000000E+00 0. -1.
         13   -1    0    0    0    0 -0.00000000000E+00 -0.00000000000E+00 -0.10000000000E+04  0.10000000000E+04  0.00000000000E+00 0.  1.
    9000005    2    1    2  501    0 -0.40049546843E+02  0.17270517364E+02 -0.24946297243E+03  0.25327319619E+03  0.36469612213E+01 0.  0.
         13    1    3    3    0    0 -0.31801929157E+02  0.15144314949E+02 -0.19735168897E+03  0.20047045197E+03  0.00000000000E+00 0.  1.
          3    1    3    3  501    0 -0.82476176856E+01  0.21262024144E+01 -0.52111283455E+02  0.52802744223E+02  0.00000000000E+00 0.  1.
         -1    1    1    2    0  502  0.40049546843E+02 -0.17270517364E+02 -0.74799667795E+03  0.74926715343E+03  0.00000000000E+00 0. -1.
<mgrwt>
<rscale>  1 0.30000000E+03</rscale>
<asrwt>0</asrwt>
<pdfrwt beam="1">  1       21 0.92376545E-02 0.30000000E+03</pdfrwt>
<pdfrwt beam="2">0</pdfrwt>
<totfact> 0.99092087E+03</totfact>
</mgrwt>
</event>
<event>
 6    1  0.1270461E-001  0.3000000E+03  0.7818608E-02  0.1093470E+00
         21   -1    0    0  501  502  0.00000000000E+00  0.00000000000E+00  0.11776290514E+01  0.11776290514E+01  0.00000000000E+00 0. -1.
         13   -1    0    0    0    0 -0.00000000000E+00 -0.00000000000E+00 -0.10000000000E+04  0.10000000000E+04  0.00000000000E+00 0.  1.
    9000005    2    1    2  501    0 -0.89415722572E+01 -0.31002633384E+02 -0.66832025228E+03  0.66910419525E+03  0.27109969445E+01 0.  0.
         13    1    3    3    0    0 -0.14663701477E+01 -0.34915216658E+01 -0.64103800790E+02  0.64215560736E+02  0.00000000000E+00 0.  1.
          3    1    3    3  501    0 -0.74752021095E+01 -0.27511111719E+02 -0.60421645149E+03  0.60488863451E+03  0.00000000000E+00 0.  1.
         -1    1    1    2    0  502  0.89415722572E+01  0.31002633384E+02 -0.33050211867E+03  0.33207343380E+03  0.00000000000E+00 0. -1.
<mgrwt>
<rscale>  1 0.30000000E+03</rscale>
<asrwt>0</asrwt>
<pdfrwt beam="1">  1       21 0.42822965E-02 0.30000000E+03</pdfrwt>
<pdfrwt beam="2">0</pdfrwt>
<totfact> 0.37477286E+04</totfact>
</mgrwt>
</event>
<event>
 6    1  0.1270461E-001  0.3000000E+03  0.7818608E-02  0.1093470E+00
         21   -1    0    0  501  502  0.00000000000E+00  0.00000000000E+00  0.14247055634E+01  0.14247055634E+01  0.00000000000E+00 0. -1.
         13   -1    0    0    0    0 -0.00000000000E+00 -0.00000000000E+00 -0.10000000000E+04  0.10000000000E+04  0.00000000000E+00 0.  1.
    9000005    2    1    2  501    0 -0.13499957018E+02  0.35167451502E+02 -0.49344033936E+03  0.49488712420E+03  0.33013201831E+01 0.  0.
         13    1    3    3    0    0 -0.91477172484E+01  0.19678703356E+02 -0.27452491321E+03  0.27538129942E+03  0.00000000000E+00 0.  1.
          1    1    3    3  501    0 -0.43522397696E+01  0.15488748145E+02 -0.21891542614E+03  0.21950582478E+03  0.00000000000E+00 0.  1.
         -1    1    1    2    0  502  0.13499957018E+02 -0.35167451502E+02 -0.50513495508E+03  0.50653758136E+03  0.00000000000E+00 0. -1.
<mgrwt>
<rscale>  1 0.30000000E+03</rscale>
<asrwt>0</asrwt>
<pdfrwt beam="1">  1       21 0.51807584E-02 0.30000000E+03</pdfrwt>
<pdfrwt beam="2">0</pdfrwt>
<totfact> 0.27111018E+04</totfact>
</mgrwt>
</event>
<event>
 6    1  0.1270461E-001  0.3000000E+03  0.7818608E-02  0.1093470E+00
         21   -1    0    0  501  502  0.00000000000E+00  0.00000000000E+00  0.16352749686E+01  0.16352749686E+01  0.00000000000E+00 0. -1.
         13   -1    0    0    0    0 -0.00000000000E+00 -0.00000000000E+00 -0.10000000000E+04  0.10000000000E+04  0.00000000000E+00 0.  1.
    9000005    2    1    2  501    0 -0.13989930596E+02 -0.37763888619E+02 -0.53600364925E+03  0.53752365710E+03  0.31528546440E+01 0.  0.
         13    1    3    3    0    0 -0.11992868334E+02 -0.31733203878E+02 -0.46542646025E+03  0.46666113511E+03  0.00000000000E+00 0.  1.
          1    1    3    3  501    0 -0.19970622621E+01 -0.60306847407E+01 -0.70577188997E+02  0.70862521990E+02  0.00000000000E+00 0.  1.
         -1    1    1    2    0  502  0.13989930596E+02  0.37763888619E+02 -0.46236107578E+03  0.46411161787E+03  0.00000000000E+00 0. -1.
<mgrwt>
<rscale>  1 0.30000000E+03</rscale>
<asrwt>0</asrwt>
<pdfrwt beam="1">  1       21 0.59464670E-02 0.30000000E+03</pdfrwt>
<pdfrwt beam="2">0</pdfrwt>
<totfact> 0.21399834E+04</totfact>
</mgrwt>
</event>
<event>
 6    1  0.1270461E-001  0.3000000E+03  0.7818608E-02  0.1093470E+00
         21   -1    0    0  501  502  0.00000000000E+00  0.00000000000E+00  0.98474671211E+00  0.98474671211E+00  0.00000000000E+00 0. -1.
         13   -1    0    0    0    0 -0.00000000000E+00 -0.00000000000E+00 -0.10000000000E+04  0.10000000000E+04  0.00000000000E+00 0.  1.
    9000005    2    1    2  501    0 -0.29351670501E+02 -0.92405224583E+01 -0.57585437529E+03  0.57670649310E+03  0.59337872888E+01 0.  0.
         13    1    3    3    0    0 -0.98000196623E+01 -0.53033240034E+00 -0.15840056756E+03  0.15870432080E+03  0.00000000000E+00 0.  1.
          1    1    3    3  501    0 -0.19551650839E+02 -0.87101900580E+01 -0.41745380773E+03  0.41800217230E+03  0.00000000000E+00 0.  1.
         -1    1    1    2    0  502  0.29351670501E+02  0.92405224583E+01 -0.42316087800E+03  0.42427825361E+03  0.00000000000E+00 0. -1.
<mgrwt>
<rscale>  1 0.30000000E+03</rscale>
<asrwt>0</asrwt>
<pdfrwt beam="1">  1       21 0.35809047E-02 0.30000000E+03</pdfrwt>
<pdfrwt beam="2">0</pdfrwt>
<totfact> 0.50639907E+04</totfact>
</mgrwt>
</event>
<event>
 6    1  0.1270461E-001  0.3000000E+03  0.7818608E-02  0.1093470E+00
         21   -1    0    0  501  502  0.00000000000E+00  0.00000000000E+00  0.19888179665E+01  0.19888179665E+01  0.00000000000E+00 0. -1.
         13   -1    0    0    0    0 -0.00000000000E+00 -0.00000000000E+00 -0.10000000000E+04  0.10000000000E+04  0.00000000000E+00 0.  1.
    9000005    2    1    2  501    0 -0.30000661265E+02 -0.13080218305E+02 -0.83873479334E+03  0.83938469815E+03  0.44143103461E+01 0.  0.
         13    1    3    3    0    0 -0.15006816505E+02 -0.89101166926E+01 -0.45309657084E+03  0.45343257187E+03  0.00000000000E+00 0.  1.
          3    1    3    3  501    0 -0.14993844760E+02 -0.41701016120E+01 -0.38563822250E+03  0.38595212628E+03  0.00000000000E+00 0.  1.
         -3    1    1    2    0  502  0.30000661265E+02  0.13080218305E+02 -0.15927638869E+03  0.16260411982E+03  0.00000000000E+00 0. -1.
<mgrwt>
<rscale>  1 0.30000000E+03</rscale>
<asrwt>0</asrwt>
<pdfrwt beam="1">  1       21 0.72320806E-02 0.30000000E+03</pdfrwt>
<pdfrwt beam="2">0</pdfrwt>
<totfact> 0.15243704E+04</totfact>
</mgrwt>
</event>
<event>
 6    1  0.1270461E-001  0.3000000E+03  0.7818608E-02  0.1093470E+00
         21   -1    0    0  501  502  0.00000000000E+00  0.00000000000E+00  0.16405678404E+01  0.16405678404E+01  0.00000000000E+00 0. -1.
         13   -1    0    0    0    0 -0.00000000000E+00 -0.00000000000E+00 -0.10000000000E+04  0.10000000000E+04  0.00000000000E+00 0.  1.
    9000005    2    1    2  501    0  0.32312406473E+02  0.79393449750E+00 -0.80060287792E+03  0.80125998823E+03  0.28068924665E+01 0.  0.
         13    1    3    3    0    0  0.26090579759E+02 -0.24273337660E+00 -0.62744446355E+03  0.62798672925E+03  0.00000000000E+00 0.  1.
          1    1    3    3  501    0  0.62218267143E+01  0.10366678741E+01 -0.17315841438E+03  0.17327325898E+03  0.00000000000E+00 0.  1.
         -1    1    1    2    0  502 -0.32312406473E+02 -0.79393449750E+00 -0.19775655423E+03  0.20038057962E+03  0.00000000000E+00 0. -1.
<mgrwt>
<rscale>  1 0.30000000E+03</rscale>
<asrwt>0</asrwt>
<pdfrwt beam="1">  1       21 0.59657138E-02 0.30000000E+03</pdfrwt>
<pdfrwt beam="2">0</pdfrwt>
<totfact> 0.21280936E+04</totfact>
</mgrwt>
</event>
<event>
 6    1  0.1270461E-001  0.3000000E+03  0.7818608E-02  0.1093470E+00
         21   -1    0    0  501  502  0.00000000000E+00  0.00000000000E+00  0.94603663951E+00  0.94603663951E+00  0.00000000000E+00 0. -1.
         13   -1    0    0    0    0 -0.00000000000E+00 -0.00000000000E+00 -0.10000000000E+04  0.10000000000E+04  0.00000000000E+00 0.  1.
    9000005    2    1    2  501    0  0.91885896175E+01  0.29075797384E+02 -0.54233240398E+03  0.54320766707E+03  0.45056614300E+01 0.  0.
         13    1    3    3    0    0  0.94445413578E+01  0.24859971667E+02 -0.47191822816E+03  0.47266693519E+03  0.00000000000E+00 0.  1.
          1    1    3    3  501    0 -0.25595174033E+00  0.42158257171E+01 -0.70414175819E+02  0.70540731879E+02  0.00000000000E+00 0.  1.
         -1    1    1    2    0  502 -0.91885896175E+01 -0.29075797384E+02 -0.45672155938E+03  0.45773836957E+03  0.00000000000E+00 0. -1.
<mgrwt>
<rscale>  1 0.30000000E+03</rscale>
<asrwt>0</asrwt>
<pdfrwt beam="1">  1       21 0.34401405E-02 0.30000000E+03</pdfrwt>
<pdfrwt beam="2">0</pdfrwt>
<totfact> 0.54157879E+04</totfact>
</mgrwt>
</event>
<event>
 6    1  0.1270461E-001  0.3000000E+03  0.7818608E-02  0.1093470E+00
         21   -1    0    0  501  502  0.00000000000E+00  0.00000000000E+00  0.13928066856E+01  0.13928066856E+01  0.00000000000E+00 0. -1.
         13   -1    0    0    0    0 -0.00000000000E+00 -0.00000000000E+00 -0.10000000000E+04  0.10000000000E+04  0.00000000000E+00 0.  1.
    9000005    2    1    2  501    0 -0.23008905114E+02  0.23745991626E+02 -0.73042780883E+03  0.73118276969E+03  0.31901317859E+01 0.  0.
         13    1    3    3    0    0 -0.55262941589E+01  0.40543080829E+01 -0.13831367573E+03  0.13848339336E+03  0.00000000000E+00 0.  1.
          1    1    3    3  501    0 -0.17482610955E+02  0.19691683543E+02 -0.59211413310E+03  0.59269937633E+03  0.00000000000E+00 0.  1.
         -3    1    1    2    0  502  0.23008905114E+02 -0.23745991626E+02 -0.26817938448E+03  0.27021003700E+03  0.00000000000E+00 0. -1.
<mgrwt>
<rscale>  1 0.30000000E+03</rscale>
<asrwt>0</asrwt>
<pdfrwt beam="1">  1       21 0.50647623E-02 0.30000000E+03</pdfrwt>
<pdfrwt beam="2">0</pdfrwt>
<totfact> 0.28179403E+04</totfact>
</mgrwt>
</event>
<event>
 6    1  0.1270461E-001  0.3000000E+03  0.7818608E-02  0.1093470E+00
         21   -1    0    0  501  502  0.00000000000E+00  0.00000000000E+00  0.47388427799E+01  0.47388427799E+01  0.00000000000E+00 0. -1.
         13   -1    0    0    0    0 -0.00000000000E+00 -0.00000000000E+00 -0.10000000000E+04  0.10000000000E+04  0.00000000000E+00 0.  1.
    9000005    2    1    2  501    0  0.39532938158E+02  0.84484793586E+01 -0.90418198073E+03  0.90509123170E+03  0.32944543978E+01 0.  0.
         13    1    3    3    0    0  0.78575129899E+01  0.16271462735E+01 -0.21062526866E+03  0.21077806317E+03  0.00000000000E+00 0.  1.
          1    1    3    3  501    0  0.31675425168E+02  0.68213330851E+01 -0.69355671207E+03  0.69431316853E+03  0.00000000000E+00 0.  1.
         -1    1    1    2    0  502 -0.39532938158E+02 -0.84484793586E+01 -0.91079176494E+02  0.99647611078E+02  0.00000000000E+00 0. -1.
<mgrwt>
<rscale>  1 0.30000000E+03</rscale>
<asrwt>0</asrwt>
<pdfrwt beam="1">  1       21 0.17232192E-01 0.30000000E+03</pdfrwt>
<pdfrwt beam="2">0</pdfrwt>
<totfact> 0.31796460E+03</totfact>
</mgrwt>
</event>
<event>
 6    1  0.1270461E-001  0.3000000E+03  0.7818608E-02  0.1093470E+00
         21   -1    0    0  501  502  0.00000000000E+00  0.00000000000E+00  0.68824702162E+01  0.68824702162E+01  0.00000000000E+00 0. -1.
         13   -1    0    0    0    0 -0.00000000000E+00 -0.00000000000E+00 -0.10000000000E+04  0.10000000000E+04  0.00000000000E+00 0.  1.
    9000005    2    1    2  501    0 -0.74014143777E+02  0.68447729332E+01 -0.71977609390E+03  0.72361495537E+03  0.40042341576E+01 0.  0.
         13    1    3    3    0    0 -0.37879388497E+02  0.32419254723E+01 -0.34882171208E+03  0.35088736793E+03  0.00000000000E+00 0.  1.
          1    1    3    3  501    0 -0.36134755280E+02  0.36028474610E+01 -0.37095438182E+03  0.37272758744E+03  0.00000000000E+00 0.  1.
         -1    1    1    2    0  502  0.74014143777E+02 -0.68447729332E+01 -0.27334143588E+03  0.28326751484E+03  0.00000000000E+00 0. -1.
<mgrwt>
<rscale>  1 0.30000000E+03</rscale>
<asrwt>0</asrwt>
<pdfrwt beam="1">  1       21 0.25027217E-01 0.30000000E+03</pdfrwt>
<pdfrwt beam="2">0</pdfrwt>
<totfact> 0.15562797E+03</totfact>
</mgrwt>
</event>
<event>
 6    1  0.1270461E-001  0.3000000E+03  0.7818608E-02  0.1093470E+00
         21   -1    0    0  501  502  0.00000000000E+00  0.00000000000E+00  0.14173299761E+01  0.14173299761E+01  0.00000000000E+00 0. -1.
         13   -1    0    0    0    0 -0.00000000000E+00 -0.00000000000E+00 -0.10000000000E+04  0.10000000000E+04  0.00000000000E+00 0.  1.
    9000005    2    1    2  501    0 -0.24995701419E+02  0.28062852712E+02 -0.49594361817E+03  0.49737534240E+03  0.31384759913E+01 0.  0.
         13    1    3    3    0    0 -0.10793512919E+02  0.13356871636E+02 -0.24403587459E+03  0.24463935502E+03  0.00000000000E+00 0.  1.
          3    1    3    3  501    0 -0.14202188500E+02  0.14705981076E+02 -0.25190774359E+03  0.25273598738E+03  0.00000000000E+00 0.  1.
         -3    1    1    2    0  502  0.24995701419E+02 -0.28062852712E+02 -0.50263905185E+03  0.50404198757E+03  0.00000000000E+00 0. -1.
<mgrwt>
<rscale>  1 0.30000000E+03</rscale>
<asrwt>0</asrwt>
<pdfrwt beam="1">  1       21 0.51539381E-02 0.30000000E+03</pdfrwt>
<pdfrwt beam="2">0</pdfrwt>
<totfact> 0.27352389E+04</totfact>
</mgrwt>
</event>
<event>
 6    1  0.1270461E-001  0.3000000E+03  0.7818608E-02  0.1093470E+00
         21   -1    0    0  501  502  0.00000000000E+00  0.00000000000E+00  0.13586967734E+01  0.13586967734E+01  0.00000000000E+00 0. -1.
         13   -1    0    0    0    0 -0.00000000000E+00 -0.00000000000E+00 -0.10000000000E+04  0.10000000000E+04  0.00000000000E+00 0.  1.
    9000005    2    1    2  501    0  0.27362943124E+02 -0.19906413414E+02 -0.69641044762E+03  0.69723949969E+03  0.32268293978E+01 0.  0.
         13    1    3    3    0    0  0.12870479084E+02 -0.11101312771E+02 -0.33235466370E+03  0.33278898849E+03  0.00000000000E+00 0.  1.
          1    1    3    3  501    0  0.14492464040E+02 -0.88051006436E+01 -0.36405578391E+03  0.36445051120E+03  0.00000000000E+00 0.  1.
         -3    1    1    2    0  502 -0.27362943124E+02  0.19906413414E+02 -0.30223085561E+03  0.30411919708E+03  0.00000000000E+00 0. -1.
<mgrwt>
<rscale>  1 0.30000000E+03</rscale>
<asrwt>0</asrwt>
<pdfrwt beam="1">  1       21 0.49407260E-02 0.30000000E+03</pdfrwt>
<pdfrwt beam="2">0</pdfrwt>
<totfact> 0.29396072E+04</totfact>
</mgrwt>
</event>
<event>
 6    1  0.1270461E-001  0.3000000E+03  0.7818608E-02  0.1093470E+00
         21   -1    0    0  501  502  0.00000000000E+00  0.00000000000E+00  0.11895391587E+01  0.11895391587E+01  0.00000000000E+00 0. -1.
         13   -1    0    0    0    0 -0.00000000000E+00 -0.00000000000E+00 -0.10000000000E+04  0.10000000000E+04  0.00000000000E+00 0.  1.
    9000005    2    1    2  501    0  0.31864447583E+02  0.42271981336E+00 -0.31128600328E+03  0.31292694286E+03  0.29620974068E+01 0.  0.
         13    1    3    3    0    0  0.12875534238E+01 -0.34417517137E+00 -0.91255809678E+01  0.92223900572E+01  0.00000000000E+00 0.  1.
          1    1    3    3  501    0  0.30576894160E+02  0.76689498473E+00 -0.30216042231E+03  0.30370455281E+03  0.00000000000E+00 0.  1.
         -1    1    1    2    0  502 -0.31864447583E+02 -0.42271981336E+00 -0.68752445756E+03  0.68826259629E+03  0.00000000000E+00 0. -1.
<mgrwt>
<rscale>  1 0.30000000E+03</rscale>
<asrwt>0</asrwt>
<pdfrwt beam="1">  1       21 0.43256061E-02 0.30000000E+03</pdfrwt>
<pdfrwt beam="2">0</pdfrwt>
<totfact> 0.36844841E+04</totfact>
</mgrwt>
</event>
<event>
 6    1  0.1270461E-001  0.3000000E+03  0.7818608E-02  0.1093470E+00
         21   -1    0    0  501  502  0.00000000000E+00  0.00000000000E+00  0.22287238818E+01  0.22287238818E+01  0.00000000000E+00 0. -1.
         13   -1    0    0    0    0 -0.00000000000E+00 -0.00000000000E+00 -0.10000000000E+04  0.10000000000E+04  0.00000000000E+00 0.  1.
    9000005    2    1    2  501    0 -0.56383524478E+01  0.40255671907E+02 -0.75304414333E+03  0.75414873747E+03  0.35392476305E+01 0.  0.
         13    1    3    3    0    0 -0.31654111127E+01  0.14589884475E+02 -0.30048612614E+03  0.30085677084E+03  0.00000000000E+00 0.  1.
          1    1    3    3  501    0 -0.24729413352E+01  0.25665787432E+02 -0.45255801720E+03  0.45329196663E+03  0.00000000000E+00 0.  1.
         -1    1    1    2    0  502  0.56383524478E+01 -0.40255671907E+02 -0.24472713278E+03  0.24807998641E+03  0.00000000000E+00 0. -1.
<mgrwt>
<rscale>  1 0.30000000E+03</rscale>
<asrwt>0</asrwt>
<pdfrwt beam="1">  1       21 0.81044676E-02 0.30000000E+03</pdfrwt>
<pdfrwt beam="2">0</pdfrwt>
<totfact> 0.12485960E+04</totfact>
</mgrwt>
</event>
<event>
 6    1  0.1270461E-001  0.3000000E+03  0.7818608E-02  0.1093470E+00
         21   -1    0    0  501  502  0.00000000000E+00  0.00000000000E+00  0.12671695938E+01  0.12671695938E+01  0.00000000000E+00 0. -1.
         13   -1    0    0    0    0 -0.00000000000E+00 -0.00000000000E+00 -0.10000000000E+04  0.10000000000E+04  0.00000000000E+00 0.  1.
    9000005    2    1    2  501    0 -0.30711954653E+02  0.16848654237E+02 -0.43076685979E+03  0.43222196481E+03  0.53514543436E+01 0.  0.
         13    1    3    3    0    0 -0.39391359646E+01  0.44163204925E+01 -0.71872644015E+02  0.72115862586E+02  0.00000000000E+00 0.  1.
          3    1    3    3  501    0 -0.26772818688E+02  0.12432333745E+02 -0.35889421578E+03  0.36010610223E+03  0.00000000000E+00 0.  1.
         -3    1    1    2    0  502  0.30711954653E+02 -0.16848654237E+02 -0.56796597061E+03  0.56904520478E+03  0.00000000000E+00 0. -1.
<mgrwt>
<rscale>  1 0.30000000E+03</rscale>
<asrwt>0</asrwt>
<pdfrwt beam="1">  1       21 0.46078991E-02 0.30000000E+03</pdfrwt>
<pdfrwt beam="2">0</pdfrwt>
<totfact> 0.33099158E+04</totfact>
</mgrwt>
</event>
<event>
 6    1  0.1270461E-001  0.3000000E+03  0.7818608E-02  0.1093470E+00
         21   -1    0    0  501  502  0.00000000000E+00  0.00000000000E+00  0.13055091659E+01  0.13055091659E+01  0.00000000000E+00 0. -1.
         13   -1    0    0    0    0 -0.00000000000E+00 -0.00000000000E+00 -0.10000000000E+04  0.10000000000E+04  0.00000000000E+00 0.  1.
    9000005    2    1    2  501    0  0.32124521604E+02  0.15595064633E+02 -0.56905718785E+03  0.57018672850E+03  0.34104812334E+01 0.  0.
         13    1    3    3    0    0  0.82111471721E+01  0.44736359053E+01 -0.17288695364E+03  0.17313964045E+03  0.00000000000E+00 0.  1.
          1    1    3    3  501    0  0.23913374431E+02  0.11121428728E+02 -0.39617023420E+03  0.39704708804E+03  0.00000000000E+00 0.  1.
         -1    1    1    2    0  502 -0.32124521604E+02 -0.15595064633E+02 -0.42963730299E+03  0.43111878067E+03  0.00000000000E+00 0. -1.
<mgrwt>
<rscale>  1 0.30000000E+03</rscale>
<asrwt>0</asrwt>
<pdfrwt beam="1">  1       21 0.47473161E-02 0.30000000E+03</pdfrwt>
<pdfrwt beam="2">0</pdfrwt>
<totfact> 0.31463783E+04</totfact>
</mgrwt>
</event>
<event>
 6    1  0.1270461E-001  0.3000000E+03  0.7818608E-02  0.1093470E+00
         21   -1    0    0  501  502  0.00000000000E+00  0.00000000000E+00  0.16485347813E+01  0.16485347813E+01  0.00000000000E+00 0. -1.
         13   -1    0    0    0    0 -0.00000000000E+00 -0.00000000000E+00 -0.10000000000E+04  0.10000000000E+04  0.00000000000E+00 0.  1.
    9000005    2    1    2  501    0  0.28503901618E+02  0.27768974261E+02 -0.59413010908E+03  0.59547308858E+03  0.37449122085E+01 0.  0.
         13    1    3    3    0    0  0.18566075651E+02  0.17510197579E+02 -0.35418621695E+03  0.35510446697E+03  0.00000000000E+00 0.  1.
          3    1    3    3  501    0  0.99378259665E+01  0.10258776683E+02 -0.23994389213E+03  0.24036862161E+03  0.00000000000E+00 0.  1.
         -3    1    1    2    0  502 -0.28503901618E+02 -0.27768974261E+02 -0.40422135614E+03  0.40617544620E+03  0.00000000000E+00 0. -1.
<mgrwt>
<rscale>  1 0.30000000E+03</rscale>
<asrwt>0</asrwt>
<pdfrwt beam="1">  1       21 0.59946846E-02 0.30000000E+03</pdfrwt>
<pdfrwt beam="2">0</pdfrwt>
<totfact> 0.21103898E+04</totfact>
</mgrwt>
</event>
<event>
 6    1  0.1270461E-001  0.3000000E+03  0.7818608E-02  0.1093470E+00
         21   -1    0    0  501  502  0.00000000000E+00  0.00000000000E+00  0.63822851511E+01  0.63822851511E+01  0.00000000000E+00 0. -1.
         13   -1    0    0    0    0 -0.00000000000E+00 -0.00000000000E+00 -0.10000000000E+04  0.10000000000E+04  0.00000000000E+00 0.  1.
    9000005    2    1    2  501    0  0.17426761580E+02 -0.32625248920E+02 -0.94278009359E+03  0.94351287588E+03  0.37607453809E+01 0.  0.
         13    1    3    3    0    0  0.11235679652E+02 -0.23409638556E+02 -0.62605219887E+03  0.62659046225E+03  0.00000000000E+00 0.  1.
          3    1    3    3  501    0  0.61910819287E+01 -0.92156103637E+01 -0.31672789471E+03  0.31692241363E+03  0.00000000000E+00 0.  1.
         -3    1    1    2    0  502 -0.17426761580E+02  0.32625248920E+02 -0.50837621264E+02  0.62869409270E+02  0.00000000000E+00 0. -1.
<mgrwt>
<rscale>  1 0.30000000E+03</rscale>
<asrwt>0</asrwt>
<pdfrwt beam="1">  1       21 0.23208359E-01 0.30000000E+03</pdfrwt>
<pdfrwt beam="2">0</pdfrwt>
<totfact> 0.18025310E+03</totfact>
</mgrwt>
</event>
<event>
 6    1  0.1270461E-001  0.3000000E+03  0.7818608E-02  0.1093470E+00
         21   -1    0    0  501  502  0.00000000000E+00  0.00000000000E+00  0.54214569057E+01  0.54214569057E+01  0.00000000000E+00 0. -1.
         13   -1    0    0    0    0 -0.00000000000E+00 -0.00000000000E+00 -0.10000000000E+04  0.10000000000E+04  0.00000000000E+00 0.  1.
    9000005    2    1    2  501    0  0.47615340207E+01  0.51175279125E+02 -0.85713053642E+03  0.85867836188E+03  0.37671332582E+01 0.  0.
         13    1    3    3    0    0  0.13928545618E+01  0.19201005973E+02 -0.29188778353E+03  0.29252195960E+03  0.00000000000E+00 0.  1.
          1    1    3    3  501    0  0.33686794589E+01  0.31974273152E+02 -0.56524275289E+03  0.56615640227E+03  0.00000000000E+00 0.  1.
         -1    1    1    2    0  502 -0.47615340207E+01 -0.51175279125E+02 -0.13744800667E+03  0.14674309503E+03  0.00000000000E+00 0. -1.
<mgrwt>
<rscale>  1 0.30000000E+03</rscale>
<asrwt>0</asrwt>
<pdfrwt beam="1">  1       21 0.19714430E-01 0.30000000E+03</pdfrwt>
<pdfrwt beam="2">0</pdfrwt>
<totfact> 0.24659308E+03</totfact>
</mgrwt>
</event>
<event>
 6    1  0.1270461E-001  0.3000000E+03  0.7818608E-02  0.1093470E+00
         21   -1    0    0  501  502  0.00000000000E+00  0.00000000000E+00  0.35688867962E+01  0.35688867962E+01  0.00000000000E+00 0. -1.
         13   -1    0    0    0    0 -0.00000000000E+00 -0.00000000000E+00 -0.10000000000E+04  0.10000000000E+04  0.00000000000E+00 0.  1.
    9000005    2    1    2  501    0 -0.50906788653E+02  0.12160754329E+01 -0.76023670849E+03  0.76194774370E+03  0.33957666920E+01 0.  0.
         13    1    3    3    0    0 -0.48872187179E+02  0.58517308936E+00 -0.72298452067E+03  0.72463470124E+03  0.00000000000E+00 0.  1.
          3    1    3    3  501    0 -0.20346014744E+01  0.63090234353E+00 -0.37252187815E+02  0.37313042464E+02  0.00000000000E+00 0.  1.
         -3    1    1    2    0  502  0.50906788653E+02 -0.12160754329E+01 -0.23619440472E+03  0.24162114309E+03  0.00000000000E+00 0. -1.
<mgrwt>
<rscale>  1 0.30000000E+03</rscale>
<asrwt>0</asrwt>
<pdfrwt beam="1">  1       21 0.12977798E-01 0.30000000E+03</pdfrwt>
<pdfrwt beam="2">0</pdfrwt>
<totfact> 0.53732698E+03</totfact>
</mgrwt>
</event>
<event>
 6    1  0.1270461E-001  0.3000000E+03  0.7818608E-02  0.1093470E+00
         21   -1    0    0  501  502  0.00000000000E+00  0.00000000000E+00  0.25532542485E+01  0.25532542485E+01  0.00000000000E+00 0. -1.
         13   -1    0    0    0    0 -0.00000000000E+00 -0.00000000000E+00 -0.10000000000E+04  0.10000000000E+04  0.00000000000E+00 0.  1.
    9000005    2    1    2  501    0 -0.19934328516E+02  0.25117438914E+02 -0.11252583619E+03  0.11705154371E+03  0.32767183530E+01 0.  0.
         13    1    3    3    0    0 -0.12972422158E+02  0.17587321571E+02 -0.81219831101E+02  0.84108611811E+02  0.00000000000E+00 0.  1.
          3    1    3    3  501    0 -0.69619063581E+01  0.75301173437E+01 -0.31306005090E+02  0.32942931898E+02  0.00000000000E+00 0.  1.
         -3    1    1    2    0  502  0.19934328516E+02 -0.25117438914E+02 -0.88492090956E+03  0.88550171054E+03  0.00000000000E+00 0. -1.
<mgrwt>
<rscale>  1 0.30000000E+03</rscale>
<asrwt>0</asrwt>
<pdfrwt beam="1">  1       21 0.92845805E-02 0.30000000E+03</pdfrwt>
<pdfrwt beam="2">0</pdfrwt>
<totfact> 0.98204086E+03</totfact>
</mgrwt>
</event>
<event>
 6    1  0.1270461E-001  0.3000000E+03  0.7818608E-02  0.1093470E+00
         21   -1    0    0  501  502  0.00000000000E+00  0.00000000000E+00  0.27153388897E+01  0.27153388897E+01  0.00000000000E+00 0. -1.
         13   -1    0    0    0    0 -0.00000000000E+00 -0.00000000000E+00 -0.10000000000E+04  0.10000000000E+04  0.00000000000E+00 0.  1.
    9000005    2    1    2  501    0 -0.46153924588E+02  0.22154664655E+02 -0.41620793178E+03  0.41938766143E+03  0.59961789980E+01 0.  0.
         13    1    3    3    0    0 -0.32203337146E+02  0.16205695459E+02 -0.31349933457E+03  0.31556538509E+03  0.00000000000E+00 0.  1.
          1    1    3    3  501    0 -0.13950587442E+02  0.59489691960E+01 -0.10270859721E+03  0.10382227634E+03  0.00000000000E+00 0.  1.
         -3    1    1    2    0  502  0.46153924588E+02 -0.22154664655E+02 -0.58107672933E+03  0.58332767746E+03  0.00000000000E+00 0. -1.
<mgrwt>
<rscale>  1 0.30000000E+03</rscale>
<asrwt>0</asrwt>
<pdfrwt beam="1">  1       21 0.98739804E-02 0.30000000E+03</pdfrwt>
<pdfrwt beam="2">0</pdfrwt>
<totfact> 0.88003040E+03</totfact>
</mgrwt>
</event>
<event>
 6    1  0.1270461E-001  0.3000000E+03  0.7818608E-02  0.1093470E+00
         21   -1    0    0  501  502  0.00000000000E+00  0.00000000000E+00  0.11528529131E+02  0.11528529131E+02  0.00000000000E+00 0. -1.
         13   -1    0    0    0    0 -0.00000000000E+00 -0.00000000000E+00 -0.10000000000E+04  0.10000000000E+04  0.00000000000E+00 0.  1.
    9000005    2    1    2  501    0  0.71691166738E+02  0.71304139641E+02 -0.66427453057E+03  0.67192941279E+03  0.21401155666E+01 0.  0.
         13    1    3    3    0    0  0.69687986013E+02  0.68836332891E+02 -0.64443248414E+03  0.65183439825E+03  0.00000000000E+00 0.  1.
          1    1    3    3  501    0  0.20031807241E+01  0.24678067503E+01 -0.19842046427E+02  0.20095014546E+02  0.00000000000E+00 0.  1.
         -1    1    1    2    0  502 -0.71691166738E+02 -0.71304139641E+02 -0.32419694030E+03  0.33959911634E+03  0.00000000000E+00 0. -1.
<mgrwt>
<rscale>  1 0.30000000E+03</rscale>
<asrwt>0</asrwt>
<pdfrwt beam="1">  1       21 0.41922013E-01 0.30000000E+03</pdfrwt>
<pdfrwt beam="2">0</pdfrwt>
<totfact> 0.54738413E+02</totfact>
</mgrwt>
</event>
<event>
 6    1  0.1270461E-001  0.3000000E+03  0.7818608E-02  0.1093470E+00
         21   -1    0    0  501  502  0.00000000000E+00  0.00000000000E+00  0.15696024185E+01  0.15696024185E+01  0.00000000000E+00 0. -1.
         13   -1    0    0    0    0 -0.00000000000E+00 -0.00000000000E+00 -0.10000000000E+04  0.10000000000E+04  0.00000000000E+00 0.  1.
    9000005    2    1    2  501    0  0.99290946103E+01  0.30416898054E+02 -0.79387977857E+03  0.79453160991E+03  0.34061275882E+01 0.  0.
         13    1    3    3    0    0  0.25124632608E+01  0.51185427635E+01 -0.16836665163E+03  0.16846317500E+03  0.00000000000E+00 0.  1.
          3    1    3    3  501    0  0.74166313496E+01  0.25298355291E+02 -0.62551312695E+03  0.62606843490E+03  0.00000000000E+00 0.  1.
         -1    1    1    2    0  502 -0.99290946103E+01 -0.30416898054E+02 -0.20455061901E+03  0.20703799251E+03  0.00000000000E+00 0. -1.
<mgrwt>
<rscale>  1 0.30000000E+03</rscale>
<asrwt>0</asrwt>
<pdfrwt beam="1">  1       21 0.57076572E-02 0.30000000E+03</pdfrwt>
<pdfrwt beam="2">0</pdfrwt>
<totfact> 0.22965183E+04</totfact>
</mgrwt>
</event>
<event>
 6    1  0.1270461E-001  0.3000000E+03  0.7818608E-02  0.1093470E+00
         21   -1    0    0  501  502  0.00000000000E+00  0.00000000000E+00  0.16249763248E+01  0.16249763248E+01  0.00000000000E+00 0. -1.
         13   -1    0    0    0    0 -0.00000000000E+00 -0.00000000000E+00 -0.10000000000E+04  0.10000000000E+04  0.00000000000E+00 0.  1.
    9000005    2    1    2  501    0 -0.28802646917E+02 -0.28100583473E+02 -0.50732367023E+03  0.50892763821E+03  0.32862291140E+01 0.  0.
         13    1    3    3    0    0 -0.20661121749E+02 -0.22116181264E+02 -0.38332162682E+03  0.38451459922E+03  0.00000000000E+00 0.  1.
          3    1    3    3  501    0 -0.81415251683E+01 -0.59844022092E+01 -0.12400204341E+03  0.12441303899E+03  0.00000000000E+00 0.  1.
         -1    1    1    2    0  502  0.28802646917E+02  0.28100583473E+02 -0.49105135345E+03  0.49269733811E+03  0.00000000000E+00 0. -1.
<mgrwt>
<rscale>  1 0.30000000E+03</rscale>
<asrwt>0</asrwt>
<pdfrwt beam="1">  1       21 0.59090173E-02 0.30000000E+03</pdfrwt>
<pdfrwt beam="2">0</pdfrwt>
<totfact> 0.21634168E+04</totfact>
</mgrwt>
</event>
<event>
 6    1  0.1270461E-001  0.3000000E+03  0.7818608E-02  0.1093470E+00
         21   -1    0    0  501  502  0.00000000000E+00  0.00000000000E+00  0.13637540683E+01  0.13637540683E+01  0.00000000000E+00 0. -1.
         13   -1    0    0    0    0 -0.00000000000E+00 -0.00000000000E+00 -0.10000000000E+04  0.10000000000E+04  0.00000000000E+00 0.  1.
    9000005    2    1    2  501    0  0.10829241438E+02 -0.34953865627E+02 -0.55937960073E+03  0.56058552690E+03  0.33985384657E+01 0.  0.
         13    1    3    3    0    0  0.18520118121E+01 -0.58998439839E+01 -0.11559837537E+03  0.11576364928E+03  0.00000000000E+00 0.  1.
          1    1    3    3  501    0  0.89772296255E+01 -0.29054021643E+02 -0.44378122536E+03  0.44482187762E+03  0.00000000000E+00 0.  1.
         -1    1    1    2    0  502 -0.10829241438E+02  0.34953865627E+02 -0.43925664520E+03  0.44077822717E+03  0.00000000000E+00 0. -1.
<mgrwt>
<rscale>  1 0.30000000E+03</rscale>
<asrwt>0</asrwt>
<pdfrwt beam="1">  1       21 0.49591162E-02 0.30000000E+03</pdfrwt>
<pdfrwt beam="2">0</pdfrwt>
<totfact> 0.29210571E+04</totfact>
</mgrwt>
</event>
<event>
 6    1  0.1270461E-001  0.3000000E+03  0.7818608E-02  0.1093470E+00
         21   -1    0    0  501  502  0.00000000000E+00  0.00000000000E+00  0.20944117131E+01  0.20944117131E+01  0.00000000000E+00 0. -1.
         13   -1    0    0    0    0 -0.00000000000E+00 -0.00000000000E+00 -0.10000000000E+04  0.10000000000E+04  0.00000000000E+00 0.  1.
    9000005    2    1    2  501    0  0.37527968155E+02  0.16183854770E+02 -0.72324181717E+03  0.72440672255E+03  0.40134800490E+01 0.  0.
         13    1    3    3    0    0  0.22946192818E+02  0.89330633645E+01 -0.40381416240E+03  0.40456421634E+03  0.00000000000E+00 0.  1.
          3    1    3    3  501    0  0.14581775338E+02  0.72507914051E+01 -0.31942765476E+03  0.31984250620E+03  0.00000000000E+00 0.  1.
         -1    1    1    2    0  502 -0.37527968155E+02 -0.16183854770E+02 -0.27466377112E+03  0.27768768917E+03  0.00000000000E+00 0. -1.
<mgrwt>
<rscale>  1 0.30000000E+03</rscale>
<asrwt>0</asrwt>
<pdfrwt beam="1">  1       21 0.76160587E-02 0.30000000E+03</pdfrwt>
<pdfrwt beam="2">0</pdfrwt>
<totfact> 0.13924868E+04</totfact>
</mgrwt>
</event>
<event>
 6    1  0.1270461E-001  0.3000000E+03  0.7818608E-02  0.1093470E+00
         21   -1    0    0  501  502  0.00000000000E+00  0.00000000000E+00  0.13015857450E+01  0.13015857450E+01  0.00000000000E+00 0. -1.
         13   -1    0    0    0    0 -0.00000000000E+00 -0.00000000000E+00 -0.10000000000E+04  0.10000000000E+04  0.00000000000E+00 0.  1.
    9000005    2    1    2  501    0  0.24840109779E+02  0.17930117794E+02 -0.76365137926E+03  0.76426650640E+03  0.11591326776E+01 0.  0.
         13    1    3    3    0    0  0.67884032496E+01  0.55446023074E+01 -0.21914188436E+03  0.21931710037E+03  0.00000000000E+00 0.  1.
          1    1    3    3  501    0  0.18051706529E+02  0.12385515486E+02 -0.54450949489E+03  0.54494940603E+03  0.00000000000E+00 0.  1.
         -3    1    1    2    0  502 -0.24840109779E+02 -0.17930117794E+02 -0.23504703500E+03  0.23703507934E+03  0.00000000000E+00 0. -1.
<mgrwt>
<rscale>  1 0.30000000E+03</rscale>
<asrwt>0</asrwt>
<pdfrwt beam="1">  1       21 0.47330491E-02 0.30000000E+03</pdfrwt>
<pdfrwt beam="2">0</pdfrwt>
<totfact> 0.31625258E+04</totfact>
</mgrwt>
</event>
<event>
 6    1  0.1270461E-001  0.3000000E+03  0.7818608E-02  0.1093470E+00
         21   -1    0    0  501  502  0.00000000000E+00  0.00000000000E+00  0.35337351777E+01  0.35337351777E+01  0.00000000000E+00 0. -1.
         13   -1    0    0    0    0 -0.00000000000E+00 -0.00000000000E+00 -0.10000000000E+04  0.10000000000E+04  0.00000000000E+00 0.  1.
    9000005    2    1    2  501    0 -0.36456346575E+02  0.38163889968E+02 -0.72849363063E+03  0.73041310180E+03  0.38446980314E+01 0.  0.
         13    1    3    3    0    0 -0.32615270445E+02  0.32294424816E+02 -0.63524067105E+03  0.63689669170E+03  0.00000000000E+00 0.  1.
          1    1    3    3  501    0 -0.38410761301E+01  0.58694651519E+01 -0.93252959577E+02  0.93516410095E+02  0.00000000000E+00 0.  1.
         -3    1    1    2    0  502  0.36456346575E+02 -0.38163889968E+02 -0.26797263419E+03  0.27312063338E+03  0.00000000000E+00 0. -1.
<mgrwt>
<rscale>  1 0.30000000E+03</rscale>
<asrwt>0</asrwt>
<pdfrwt beam="1">  1       21 0.12849973E-01 0.30000000E+03</pdfrwt>
<pdfrwt beam="2">0</pdfrwt>
<totfact> 0.54712320E+03</totfact>
</mgrwt>
</event>
<event>
 6    1  0.1270461E-001  0.3000000E+03  0.7818608E-02  0.1093470E+00
         21   -1    0    0  501  502  0.00000000000E+00  0.00000000000E+00  0.81060342780E+01  0.81060342780E+01  0.00000000000E+00 0. -1.
         13   -1    0    0    0    0 -0.00000000000E+00 -0.00000000000E+00 -0.10000000000E+04  0.10000000000E+04  0.00000000000E+00 0.  1.
    9000005    2    1    2  501    0 -0.10088881796E+02 -0.38909340950E+02 -0.94687312394E+03  0.94775209038E+03  0.70419909550E+01 0.  0.
         13    1    3    3    0    0 -0.62087477439E+01 -0.11958641546E+02 -0.28224570610E+03  0.28256715356E+03  0.00000000000E+00 0.  1.
          3    1    3    3  501    0 -0.38801340523E+01 -0.26950699404E+02 -0.66462741783E+03  0.66518493682E+03  0.00000000000E+00 0.  1.
         -1    1    1    2    0  502  0.10088881796E+02  0.38909340950E+02 -0.45020841787E+02  0.60353943900E+02  0.00000000000E+00 0. -1.
<mgrwt>
<rscale>  1 0.30000000E+03</rscale>
<asrwt>0</asrwt>
<pdfrwt beam="1">  1       21 0.29476550E-01 0.30000000E+03</pdfrwt>
<pdfrwt beam="2">0</pdfrwt>
<totfact> 0.11261982E+03</totfact>
</mgrwt>
</event>
<event>
 6    1  0.1270461E-001  0.3000000E+03  0.7818608E-02  0.1093470E+00
         21   -1    0    0  501  502  0.00000000000E+00  0.00000000000E+00  0.10761080868E+01  0.10761080868E+01  0.00000000000E+00 0. -1.
         13   -1    0    0    0    0 -0.00000000000E+00 -0.00000000000E+00 -0.10000000000E+04  0.10000000000E+04  0.00000000000E+00 0.  1.
    9000005    2    1    2  501    0  0.32049159756E+01 -0.30660381372E+02 -0.33346526766E+03  0.33490382476E+03  0.33401549137E+01 0.  0.
         13    1    3    3    0    0  0.93676956679E-01 -0.15843946115E+00 -0.68911207489E+01  0.68935784330E+01  0.00000000000E+00 0.  1.
          1    1    3    3  501    0  0.31112390189E+01 -0.30501941911E+02 -0.32657414691E+03  0.32801024633E+03  0.00000000000E+00 0.  1.
         -3    1    1    2    0  502 -0.32049159756E+01  0.30660381372E+02 -0.66545862425E+03  0.66617228332E+03  0.00000000000E+00 0. -1.
<mgrwt>
<rscale>  1 0.30000000E+03</rscale>
<asrwt>0</asrwt>
<pdfrwt beam="1">  1       21 0.39131286E-02 0.30000000E+03</pdfrwt>
<pdfrwt beam="2">0</pdfrwt>
<totfact> 0.43630326E+04</totfact>
</mgrwt>
</event>
<event>
 6    1  0.1270461E-001  0.3000000E+03  0.7818608E-02  0.1093470E+00
         21   -1    0    0  501  502  0.00000000000E+00  0.00000000000E+00  0.25763067700E+01  0.25763067700E+01  0.00000000000E+00 0. -1.
         13   -1    0    0    0    0 -0.00000000000E+00 -0.00000000000E+00 -0.10000000000E+04  0.10000000000E+04  0.00000000000E+00 0.  1.
    9000005    2    1    2  501    0 -0.36770740379E+02 -0.23981655615E+02 -0.74973514524E+03  0.75102745673E+03  0.34993701328E+01 0.  0.
         13    1    3    3    0    0 -0.33807352201E+02 -0.20846615334E+02 -0.67211977005E+03  0.67329228700E+03  0.00000000000E+00 0.  1.
          1    1    3    3  501    0 -0.29633881780E+01 -0.31350402815E+01 -0.77615375190E+02  0.77735169730E+02  0.00000000000E+00 0.  1.
         -1    1    1    2    0  502  0.36770740379E+02  0.23981655615E+02 -0.24768854799E+03  0.25154885004E+03  0.00000000000E+00 0. -1.
<mgrwt>
<rscale>  1 0.30000000E+03</rscale>
<asrwt>0</asrwt>
<pdfrwt beam="1">  1       21 0.93684080E-02 0.30000000E+03</pdfrwt>
<pdfrwt beam="2">0</pdfrwt>
<totfact> 0.96647310E+03</totfact>
</mgrwt>
</event>
<event>
 6    1  0.1270461E-001  0.3000000E+03  0.7818608E-02  0.1093470E+00
         21   -1    0    0  501  502  0.00000000000E+00  0.00000000000E+00  0.25925781878E+01  0.25925781878E+01  0.00000000000E+00 0. -1.
         13   -1    0    0    0    0 -0.00000000000E+00 -0.00000000000E+00 -0.10000000000E+04  0.10000000000E+04  0.00000000000E+00 0.  1.
    9000005    2    1    2  501    0  0.38290363623E+01 -0.31283851504E+02 -0.89227587832E+03  0.89283838774E+03  0.32867462978E+01 0.  0.
         13    1    3    3    0    0  0.12372948334E+01 -0.22330046341E+02 -0.63493168750E+03  0.63532543602E+03  0.00000000000E+00 0.  1.
          1    1    3    3  501    0  0.25917415289E+01 -0.89538051630E+01 -0.25734419082E+03  0.25751295171E+03  0.00000000000E+00 0.  1.
         -3    1    1    2    0  502 -0.38290363623E+01  0.31283851504E+02 -0.10513154349E+03  0.10975419045E+03  0.00000000000E+00 0. -1.
<mgrwt>
<rscale>  1 0.30000000E+03</rscale>
<asrwt>0</asrwt>
<pdfrwt beam="1">  1       21 0.94275769E-02 0.30000000E+03</pdfrwt>
<pdfrwt beam="2">0</pdfrwt>
<totfact> 0.95570696E+03</totfact>
</mgrwt>
</event>
<event>
 6    1  0.1270461E-001  0.3000000E+03  0.7818608E-02  0.1093470E+00
         21   -1    0    0  501  502  0.00000000000E+00  0.00000000000E+00  0.14386895518E+01  0.14386895518E+01  0.00000000000E+00 0. -1.
         13   -1    0    0    0    0 -0.00000000000E+00 -0.00000000000E+00 -0.10000000000E+04  0.10000000000E+04  0.00000000000E+00 0.  1.
    9000005    2    1    2  501    0  0.36221066420E+02  0.61814498769E+01 -0.62011250008E+03  0.62121023448E+03  0.35308207730E+01 0.  0.
         13    1    3    3    0    0  0.16116476349E+02  0.39409824891E+01 -0.25757947776E+03  0.25811326877E+03  0.00000000000E+00 0.  1.
          3    1    3    3  501    0  0.20104590071E+02  0.22404673878E+01 -0.36253302231E+03  0.36309696571E+03  0.00000000000E+00 0.  1.
         -3    1    1    2    0  502 -0.36221066420E+02 -0.61814498769E+01 -0.37844881037E+03  0.38022845507E+03  0.00000000000E+00 0. -1.
<mgrwt>
<rscale>  1 0.30000000E+03</rscale>
<asrwt>0</asrwt>
<pdfrwt beam="1">  1       21 0.52316094E-02 0.30000000E+03</pdfrwt>
<pdfrwt beam="2">0</pdfrwt>
<totfact> 0.26662362E+04</totfact>
</mgrwt>
</event>
<event>
 6    1  0.1270461E-001  0.3000000E+03  0.7818608E-02  0.1093470E+00
         21   -1    0    0  501  502  0.00000000000E+00  0.00000000000E+00  0.32183284388E+01  0.32183284388E+01  0.00000000000E+00 0. -1.
         13   -1    0    0    0    0 -0.00000000000E+00 -0.00000000000E+00 -0.10000000000E+04  0.10000000000E+04  0.00000000000E+00 0.  1.
    9000005    2    1    2  501    0 -0.37599137248E+02 -0.26528368362E+02 -0.79149697987E+03  0.79283949373E+03  0.30893734917E+01 0.  0.
         13    1    3    3    0    0 -0.35470640606E+02 -0.25819868650E+02 -0.75096255384E+03  0.75224303867E+03  0.00000000000E+00 0.  1.
          3    1    3    3  501    0 -0.21284966417E+01 -0.70849971145E+00 -0.40534426026E+02  0.40596455055E+02  0.00000000000E+00 0.  1.
         -1    1    1    2    0  502  0.37599137248E+02  0.26528368362E+02 -0.20528469169E+03  0.21037883471E+03  0.00000000000E+00 0. -1.
<mgrwt>
<rscale>  1 0.30000000E+03</rscale>
<asrwt>0</asrwt>
<pdfrwt beam="1">  1       21 0.11703037E-01 0.30000000E+03</pdfrwt>
<pdfrwt beam="2">0</pdfrwt>
<totfact> 0.64850465E+03</totfact>
</mgrwt>
</event>
<event>
 6    1  0.1270461E-001  0.3000000E+03  0.7818608E-02  0.1093470E+00
         21   -1    0    0  501  502  0.00000000000E+00  0.00000000000E+00  0.34481865197E+01  0.34481865197E+01  0.00000000000E+00 0. -1.
         13   -1    0    0    0    0 -0.00000000000E+00 -0.00000000000E+00 -0.10000000000E+04  0.10000000000E+04  0.00000000000E+00 0.  1.
    9000005    2    1    2  501    0  0.34230777758E+02  0.21056811950E+02 -0.86391958633E+03  0.86486087414E+03  0.34848942342E+01 0.  0.
         13    1    3    3    0    0  0.32425771378E+02  0.20346544264E+02 -0.80553825511E+03  0.80644732807E+03  0.00000000000E+00 0.  1.
          1    1    3    3  501    0  0.18050063798E+01  0.71026768551E+00 -0.58381331224E+02  0.58413546063E+02  0.00000000000E+00 0.  1.
         -3    1    1    2    0  502 -0.34230777758E+02 -0.21056811950E+02 -0.13263222715E+03  0.13858731238E+03  0.00000000000E+00 0. -1.
<mgrwt>
<rscale>  1 0.30000000E+03</rscale>
<asrwt>0</asrwt>
<pdfrwt beam="1">  1       21 0.12538887E-01 0.30000000E+03</pdfrwt>
<pdfrwt beam="2">0</pdfrwt>
<totfact> 0.57212322E+03</totfact>
</mgrwt>
</event>
<event>
 6    1  0.1270461E-001  0.3000000E+03  0.7818608E-02  0.1093470E+00
         21   -1    0    0  501  502  0.00000000000E+00  0.00000000000E+00  0.10757687383E+01  0.10757687383E+01  0.00000000000E+00 0. -1.
         13   -1    0    0    0    0 -0.00000000000E+00 -0.00000000000E+00 -0.10000000000E+04  0.10000000000E+04  0.00000000000E+00 0.  1.
    9000005    2    1    2  501    0  0.22292808399E+02  0.23486101025E+02 -0.46229807494E+03  0.46347350136E+03  0.62936568731E+01 0.  0.
         13    1    3    3    0    0  0.18516332754E+02  0.19243528713E+02 -0.34181624906E+03  0.34285786573E+03  0.00000000000E+00 0.  1.
          3    1    3    3  501    0  0.37764756451E+01  0.42425723117E+01 -0.12048182589E+03  0.12061563562E+03  0.00000000000E+00 0.  1.
         -1    1    1    2    0  502 -0.22292808399E+02 -0.23486101025E+02 -0.53662615632E+03  0.53760226738E+03  0.00000000000E+00 0. -1.
<mgrwt>
<rscale>  1 0.30000000E+03</rscale>
<asrwt>0</asrwt>
<pdfrwt beam="1">  1       21 0.39118946E-02 0.30000000E+03</pdfrwt>
<pdfrwt beam="2">0</pdfrwt>
<totfact> 0.43653481E+04</totfact>
</mgrwt>
</event>
<event>
 6    1  0.1230141E+000  0.3000000E+03  0.7818608E-02  0.1093470E+00
         21   -1    0    0  501  502  0.00000000000E+00  0.00000000000E+00  0.96255939640E+00  0.96255939640E+00  0.00000000000E+00 0. -1.
         13   -1    0    0    0    0 -0.00000000000E+00 -0.00000000000E+00 -0.10000000000E+04  0.10000000000E+04  0.00000000000E+00 0.  1.
    9000005    2    1    2  501    0 -0.30086378570E+02 -0.47254917890E-01 -0.61697239392E+03  0.61771473839E+03  0.33720552868E+01 0.  0.
         13    1    3    3    0    0 -0.12969348849E+02  0.11582051002E+01 -0.24230506601E+03  0.24265467328E+03  0.00000000000E+00 0.  1.
          1    1    3    3  501    0 -0.17117029722E+02 -0.12054600181E+01 -0.37466732791E+03  0.37506006511E+03  0.00000000000E+00 0.  1.
         -3    1    1    2    0  502  0.30086378570E+02  0.47254917890E-01 -0.38206504668E+03  0.38324782101E+03  0.00000000000E+00 0. -1.
<mgrwt>
<rscale>  1 0.30000000E+03</rscale>
<asrwt>0</asrwt>
<pdfrwt beam="1">  1       21 0.35002234E-02 0.30000000E+03</pdfrwt>
<pdfrwt beam="2">0</pdfrwt>
<totfact> 0.52611185E+04</totfact>
</mgrwt>
</event>
<event>
 6    1  0.1270461E-001  0.3000000E+03  0.7818608E-02  0.1093470E+00
         21   -1    0    0  501  502  0.00000000000E+00  0.00000000000E+00  0.21086136064E+01  0.21086136064E+01  0.00000000000E+00 0. -1.
         13   -1    0    0    0    0 -0.00000000000E+00 -0.00000000000E+00 -0.10000000000E+04  0.10000000000E+04  0.00000000000E+00 0.  1.
    9000005    2    1    2  501    0  0.28812101497E+02  0.26771261233E+02 -0.75680963728E+03  0.75783981213E+03  0.36764308234E+01 0.  0.
         13    1    3    3    0    0  0.14192199218E+02  0.12690986995E+02 -0.40094912529E+03  0.40140089778E+03  0.00000000000E+00 0.  1.
          1    1    3    3  501    0  0.14619902279E+02  0.14080274237E+02 -0.35586051199E+03  0.35643891435E+03  0.00000000000E+00 0.  1.
         -3    1    1    2    0  502 -0.28812101497E+02 -0.26771261233E+02 -0.24108174911E+03  0.24426880148E+03  0.00000000000E+00 0. -1.
<mgrwt>
<rscale>  1 0.30000000E+03</rscale>
<asrwt>0</asrwt>
<pdfrwt beam="1">  1       21 0.76677020E-02 0.30000000E+03</pdfrwt>
<pdfrwt beam="2">0</pdfrwt>
<totfact> 0.13760940E+04</totfact>
</mgrwt>
</event>
<event>
 6    1  0.1270461E-001  0.3000000E+03  0.7818608E-02  0.1093470E+00
         21   -1    0    0  501  502  0.00000000000E+00  0.00000000000E+00  0.32222833800E+01  0.32222833800E+01  0.00000000000E+00 0. -1.
         13   -1    0    0    0    0 -0.00000000000E+00 -0.00000000000E+00 -0.10000000000E+04  0.10000000000E+04  0.00000000000E+00 0.  1.
    9000005    2    1    2  501    0  0.43572549595E+02 -0.33135626942E+02 -0.62980824497E+03  0.63219245981E+03  0.35133978746E+01 0.  0.
         13    1    3    3    0    0  0.19497629443E+02 -0.14345104702E+02 -0.25899620087E+03  0.26012491547E+03  0.00000000000E+00 0.  1.
          1    1    3    3  501    0  0.24074920152E+02 -0.18790522239E+02 -0.37081204410E+03  0.37206754434E+03  0.00000000000E+00 0.  1.
         -1    1    1    2    0  502 -0.43572549595E+02  0.33135626942E+02 -0.36696947165E+03  0.37102982357E+03  0.00000000000E+00 0. -1.
<mgrwt>
<rscale>  1 0.30000000E+03</rscale>
<asrwt>0</asrwt>
<pdfrwt beam="1">  1       21 0.11717419E-01 0.30000000E+03</pdfrwt>
<pdfrwt beam="2">0</pdfrwt>
<totfact> 0.64706471E+03</totfact>
</mgrwt>
</event>
<event>
 6    1  0.1270461E-001  0.3000000E+03  0.7818608E-02  0.1093470E+00
         21   -1    0    0  501  502  0.00000000000E+00  0.00000000000E+00  0.13552993785E+01  0.13552993785E+01  0.00000000000E+00 0. -1.
         13   -1    0    0    0    0 -0.00000000000E+00 -0.00000000000E+00 -0.10000000000E+04  0.10000000000E+04  0.00000000000E+00 0.  1.
    9000005    2    1    2  501    0  0.34307945933E+02 -0.52142754293E+01 -0.66462783300E+03  0.66554063074E+03  0.31545101865E+01 0.  0.
         13    1    3    3    0    0  0.29457643363E+02 -0.55610232197E+01 -0.56815085231E+03  0.56894118212E+03  0.00000000000E+00 0.  1.
          3    1    3    3  501    0  0.48503025701E+01  0.34674779040E+00 -0.96476980690E+02  0.96599448612E+02  0.00000000000E+00 0.  1.
         -1    1    1    2    0  502 -0.34307945933E+02  0.52142754293E+01 -0.33401686762E+03  0.33581466864E+03  0.00000000000E+00 0. -1.
<mgrwt>
<rscale>  1 0.30000000E+03</rscale>
<asrwt>0</asrwt>
<pdfrwt beam="1">  1       21 0.49283718E-02 0.30000000E+03</pdfrwt>
<pdfrwt beam="2">0</pdfrwt>
<totfact> 0.29521723E+04</totfact>
</mgrwt>
</event>
<event>
 6    1  0.1270461E-001  0.3000000E+03  0.7818608E-02  0.1093470E+00
         21   -1    0    0  501  502  0.00000000000E+00  0.00000000000E+00  0.11047064237E+01  0.11047064237E+01  0.00000000000E+00 0. -1.
         13   -1    0    0    0    0 -0.00000000000E+00 -0.00000000000E+00 -0.10000000000E+04  0.10000000000E+04  0.00000000000E+00 0.  1.
    9000005    2    1    2  501    0  0.27191157031E+02  0.18802061350E+02 -0.52603108777E+03  0.52708631684E+03  0.42899378267E+01 0.  0.
         13    1    3    3    0    0  0.59649266779E+01  0.21259940100E+01 -0.10511485406E+03  0.10530542600E+03  0.00000000000E+00 0.  1.
          3    1    3    3  501    0  0.21226230353E+02  0.16676067340E+02 -0.42091623371E+03  0.42178089084E+03  0.00000000000E+00 0.  1.
         -3    1    1    2    0  502 -0.27191157031E+02 -0.18802061350E+02 -0.47286420581E+03  0.47401838959E+03  0.00000000000E+00 0. -1.
<mgrwt>
<rscale>  1 0.30000000E+03</rscale>
<asrwt>0</asrwt>
<pdfrwt beam="1">  1       21 0.40171227E-02 0.30000000E+03</pdfrwt>
<pdfrwt beam="2">0</pdfrwt>
<totfact> 0.41745912E+04</totfact>
</mgrwt>
</event>
<event>
 6    1  0.1270461E-001  0.3000000E+03  0.7818608E-02  0.1093470E+00
         21   -1    0    0  501  502  0.00000000000E+00  0.00000000000E+00  0.10279209100E+01  0.10279209100E+01  0.00000000000E+00 0. -1.
         13   -1    0    0    0    0 -0.00000000000E+00 -0.00000000000E+00 -0.10000000000E+04  0.10000000000E+04  0.00000000000E+00 0.  1.
    9000005    2    1    2  501    0 -0.16777208357E+02  0.26732340865E+02 -0.57856801720E+03  0.57944083854E+03  0.38264960194E+01 0.  0.
         13    1    3    3    0    0 -0.67019059662E+01  0.92882359229E+01 -0.17996900707E+03  0.18033310948E+03  0.00000000000E+00 0.  1.
          1    1    3    3  501    0 -0.10075302391E+02  0.17444104942E+02 -0.39859901013E+03  0.39910772906E+03  0.00000000000E+00 0.  1.
         -1    1    1    2    0  502  0.16777208357E+02 -0.26732340865E+02 -0.42040406189E+03  0.42158708237E+03  0.00000000000E+00 0. -1.
<mgrwt>
<rscale>  1 0.30000000E+03</rscale>
<asrwt>0</asrwt>
<pdfrwt beam="1">  1       21 0.37379021E-02 0.30000000E+03</pdfrwt>
<pdfrwt beam="2">0</pdfrwt>
<totfact> 0.47122265E+04</totfact>
</mgrwt>
</event>
<event>
 6    1  0.1270461E-001  0.3000000E+03  0.7818608E-02  0.1093470E+00
         21   -1    0    0  501  502  0.00000000000E+00  0.00000000000E+00  0.41521942534E+01  0.41521942534E+01  0.00000000000E+00 0. -1.
         13   -1    0    0    0    0 -0.00000000000E+00 -0.00000000000E+00 -0.10000000000E+04  0.10000000000E+04  0.00000000000E+00 0.  1.
    9000005    2    1    2  501    0 -0.15873562781E+02 -0.25658742627E+02 -0.94149929630E+03  0.94199029638E+03  0.38016397901E+01 0.  0.
         13    1    3    3    0    0 -0.66833775839E+01 -0.85687714323E+01 -0.38239151891E+03  0.38254589936E+03  0.00000000000E+00 0.  1.
          1    1    3    3  501    0 -0.91901851972E+01 -0.17089971195E+02 -0.55910777739E+03  0.55944439702E+03  0.00000000000E+00 0.  1.
         -1    1    1    2    0  502  0.15873562781E+02  0.25658742627E+02 -0.54348509444E+02  0.62161897875E+02  0.00000000000E+00 0. -1.
<mgrwt>
<rscale>  1 0.30000000E+03</rscale>
<asrwt>0</asrwt>
<pdfrwt beam="1">  1       21 0.15098920E-01 0.30000000E+03</pdfrwt>
<pdfrwt beam="2">0</pdfrwt>
<totfact> 0.40682202E+03</totfact>
</mgrwt>
</event>
<event>
 6    1  0.1270461E-001  0.3000000E+03  0.7818608E-02  0.1093470E+00
         21   -1    0    0  501  502  0.00000000000E+00  0.00000000000E+00  0.12506037450E+01  0.12506037450E+01  0.00000000000E+00 0. -1.
         13   -1    0    0    0    0 -0.00000000000E+00 -0.00000000000E+00 -0.10000000000E+04  0.10000000000E+04  0.00000000000E+00 0.  1.
    9000005    2    1    2  501    0  0.29424784015E+02 -0.84459638226E+01 -0.74827017748E+03  0.74890760056E+03  0.41452923346E+01 0.  0.
         13    1    3    3    0    0  0.80190336543E+01 -0.13097559269E+01 -0.16252304117E+03  0.16272602518E+03  0.00000000000E+00 0.  1.
          1    1    3    3  501    0  0.21405750361E+02 -0.71362078956E+01 -0.58574713632E+03  0.58618157538E+03  0.00000000000E+00 0.  1.
         -1    1    1    2    0  502 -0.29424784015E+02  0.84459638226E+01 -0.25047921877E+03  0.25234300318E+03  0.00000000000E+00 0. -1.
<mgrwt>
<rscale>  1 0.30000000E+03</rscale>
<asrwt>0</asrwt>
<pdfrwt beam="1">  1       21 0.45476596E-02 0.30000000E+03</pdfrwt>
<pdfrwt beam="2">0</pdfrwt>
<totfact> 0.33847380E+04</totfact>
</mgrwt>
</event>
<event>
 6    1  0.1270461E-001  0.3000000E+03  0.7818608E-02  0.1093470E+00
         21   -1    0    0  501  502  0.00000000000E+00  0.00000000000E+00  0.11950229779E+01  0.11950229779E+01  0.00000000000E+00 0. -1.
         13   -1    0    0    0    0 -0.00000000000E+00 -0.00000000000E+00 -0.10000000000E+04  0.10000000000E+04  0.00000000000E+00 0.  1.
    9000005    2    1    2  501    0  0.13861434901E+01 -0.32548330656E+02 -0.66007183115E+03  0.66089888821E+03  0.55859594989E+01 0.  0.
         13    1    3    3    0    0 -0.13854458582E+00 -0.22547930802E+02 -0.40587929957E+03  0.40650514658E+03  0.00000000000E+00 0.  1.
          3    1    3    3  501    0  0.15246880759E+01 -0.10000399854E+02 -0.25419253158E+03  0.25439374163E+03  0.00000000000E+00 0.  1.
         -1    1    1    2    0  502 -0.13861434901E+01  0.32548330656E+02 -0.33873314587E+03  0.34029613477E+03  0.00000000000E+00 0. -1.
<mgrwt>
<rscale>  1 0.30000000E+03</rscale>
<asrwt>0</asrwt>
<pdfrwt beam="1">  1       21 0.43455473E-02 0.30000000E+03</pdfrwt>
<pdfrwt beam="2">0</pdfrwt>
<totfact> 0.36559189E+04</totfact>
</mgrwt>
</event>
<event>
 6    1  0.1270461E-001  0.3000000E+03  0.7818608E-02  0.1093470E+00
         21   -1    0    0  501  502  0.00000000000E+00  0.00000000000E+00  0.19804874269E+01  0.19804874269E+01  0.00000000000E+00 0. -1.
         13   -1    0    0    0    0 -0.00000000000E+00 -0.00000000000E+00 -0.10000000000E+04  0.10000000000E+04  0.00000000000E+00 0.  1.
    9000005    2    1    2  501    0 -0.22289034942E+02 -0.38390386721E+02 -0.47489308694E+03  0.47697393502E+03  0.31729791762E+01 0.  0.
         13    1    3    3    0    0 -0.74062250250E+01 -0.10250411777E+02 -0.14243736335E+03  0.14299764190E+03  0.00000000000E+00 0.  1.
          3    1    3    3  501    0 -0.14882809917E+02 -0.28139974944E+02 -0.33245572358E+03  0.33397629312E+03  0.00000000000E+00 0.  1.
         -1    1    1    2    0  502  0.22289034942E+02  0.38390386721E+02 -0.52312642564E+03  0.52500655241E+03  0.00000000000E+00 0. -1.
<mgrwt>
<rscale>  1 0.30000000E+03</rscale>
<asrwt>0</asrwt>
<pdfrwt beam="1">  1       21 0.72017876E-02 0.30000000E+03</pdfrwt>
<pdfrwt beam="2">0</pdfrwt>
<totfact> 0.15355762E+04</totfact>
</mgrwt>
</event>
<event>
 6    1  0.1270461E-001  0.3000000E+03  0.7818608E-02  0.1093470E+00
         21   -1    0    0  501  502  0.00000000000E+00  0.00000000000E+00  0.19441821598E+01  0.19441821598E+01  0.00000000000E+00 0. -1.
         13   -1    0    0    0    0 -0.00000000000E+00 -0.00000000000E+00 -0.10000000000E+04  0.10000000000E+04  0.00000000000E+00 0.  1.
    9000005    2    1    2  501    0  0.26002166187E+02  0.16110246482E+02 -0.85959713364E+03  0.86014693283E+03  0.31402547340E+01 0.  0.
         13    1    3    3    0    0  0.10246642455E+02  0.67003967719E+01 -0.30261901021E+03  0.30286656193E+03  0.00000000000E+00 0.  1.
          1    1    3    3  501    0  0.15755523733E+02  0.94098497099E+01 -0.55697812344E+03  0.55728037090E+03  0.00000000000E+00 0.  1.
         -1    1    1    2    0  502 -0.26002166187E+02 -0.16110246482E+02 -0.13845868420E+03  0.14179724933E+03  0.00000000000E+00 0. -1.
<mgrwt>
<rscale>  1 0.30000000E+03</rscale>
<asrwt>0</asrwt>
<pdfrwt beam="1">  1       21 0.70697682E-02 0.30000000E+03</pdfrwt>
<pdfrwt beam="2">0</pdfrwt>
<totfact> 0.15859073E+04</totfact>
</mgrwt>
</event>
<event>
 6    1  0.1270461E-001  0.3000000E+03  0.7818608E-02  0.1093470E+00
         21   -1    0    0  501  502  0.00000000000E+00  0.00000000000E+00  0.26240768797E+01  0.26240768797E+01  0.00000000000E+00 0. -1.
         13   -1    0    0    0    0 -0.00000000000E+00 -0.00000000000E+00 -0.10000000000E+04  0.10000000000E+04  0.00000000000E+00 0.  1.
    9000005    2    1    2  501    0  0.22005494127E+02  0.45093661853E+02 -0.40089707931E+03  0.40403850135E+03  0.33109315940E+01 0.  0.
         13    1    3    3    0    0  0.12617128940E+02  0.25200053883E+02 -0.23804651189E+03  0.23970894118E+03  0.00000000000E+00 0.  1.
          1    1    3    3  501    0  0.93883651868E+01  0.19893607970E+02 -0.16285056742E+03  0.16432956017E+03  0.00000000000E+00 0.  1.
         -1    1    1    2    0  502 -0.22005494127E+02 -0.45093661853E+02 -0.59647884381E+03  0.59858557553E+03  0.00000000000E+00 0. -1.
<mgrwt>
<rscale>  1 0.30000000E+03</rscale>
<asrwt>0</asrwt>
<pdfrwt beam="1">  1       21 0.95421179E-02 0.30000000E+03</pdfrwt>
<pdfrwt beam="2">0</pdfrwt>
<totfact> 0.93537059E+03</totfact>
</mgrwt>
</event>
<event>
 6    1  0.1270461E-001  0.3000000E+03  0.7818608E-02  0.1093470E+00
         21   -1    0    0  501  502  0.00000000000E+00  0.00000000000E+00  0.10413761320E+01  0.10413761320E+01  0.00000000000E+00 0. -1.
         13   -1    0    0    0    0 -0.00000000000E+00 -0.00000000000E+00 -0.10000000000E+04  0.10000000000E+04  0.00000000000E+00 0.  1.
    9000005    2    1    2  501    0 -0.10297894142E+02 -0.28670432849E+02 -0.66049604510E+03  0.66121059829E+03  0.40483765538E+01 0.  0.
         13    1    3    3    0    0 -0.10014090300E+02 -0.28658409552E+02 -0.64727971302E+03  0.64799121393E+03  0.00000000000E+00 0.  1.
          1    1    3    3  501    0 -0.28380384211E+00 -0.12023296736E-01 -0.13216332074E+02  0.13219384353E+02  0.00000000000E+00 0.  1.
         -1    1    1    2    0  502  0.10297894142E+02  0.28670432849E+02 -0.33846257877E+03  0.33983077785E+03  0.00000000000E+00 0. -1.
<mgrwt>
<rscale>  1 0.30000000E+03</rscale>
<asrwt>0</asrwt>
<pdfrwt beam="1">  1       21 0.37868303E-02 0.30000000E+03</pdfrwt>
<pdfrwt beam="2">0</pdfrwt>
<totfact> 0.46104206E+04</totfact>
</mgrwt>
</event>
<event>
 6    1  0.1270461E-001  0.3000000E+03  0.7818608E-02  0.1093470E+00
         21   -1    0    0  501  502  0.00000000000E+00  0.00000000000E+00  0.16052388997E+01  0.16052388997E+01  0.00000000000E+00 0. -1.
         13   -1    0    0    0    0 -0.00000000000E+00 -0.00000000000E+00 -0.10000000000E+04  0.10000000000E+04  0.00000000000E+00 0.  1.
    9000005    2    1    2  501    0  0.72860575779E+01 -0.30407071499E+02 -0.19618584635E+03  0.19878719006E+03  0.70557772882E+01 0.  0.
         13    1    3    3    0    0  0.41448566256E+01 -0.64203310050E+01 -0.37829583293E+02  0.38593754142E+02  0.00000000000E+00 0.  1.
          3    1    3    3  501    0  0.31412009523E+01 -0.23986740494E+02 -0.15835626306E+03  0.16019343592E+03  0.00000000000E+00 0.  1.
         -1    1    1    2    0  502 -0.72860575779E+01  0.30407071499E+02 -0.80220891475E+03  0.80281804884E+03  0.00000000000E+00 0. -1.
<mgrwt>
<rscale>  1 0.30000000E+03</rscale>
<asrwt>0</asrwt>
<pdfrwt beam="1">  1       21 0.58372447E-02 0.30000000E+03</pdfrwt>
<pdfrwt beam="2">0</pdfrwt>
<totfact> 0.22094603E+04</totfact>
</mgrwt>
</event>
<event>
 6    1  0.1270461E-001  0.3000000E+03  0.7818608E-02  0.1093470E+00
         21   -1    0    0  501  502  0.00000000000E+00  0.00000000000E+00  0.46768899389E+01  0.46768899389E+01  0.00000000000E+00 0. -1.
         13   -1    0    0    0    0 -0.00000000000E+00 -0.00000000000E+00 -0.10000000000E+04  0.10000000000E+04  0.00000000000E+00 0.  1.
    9000005    2    1    2  501    0 -0.34794750522E+00  0.52495811824E+02 -0.81947234706E+03  0.82115734827E+03  0.29209064171E+01 0.  0.
         13    1    3    3    0    0 -0.14110540118E+01  0.15794471109E+02 -0.25187155616E+03  0.25237023833E+03  0.00000000000E+00 0.  1.
          1    1    3    3  501    0  0.10631065066E+01  0.36701340716E+02 -0.56760079089E+03  0.56878710994E+03  0.00000000000E+00 0.  1.
         -3    1    1    2    0  502  0.34794750522E+00 -0.52495811824E+02 -0.17585076301E+03  0.18351954167E+03  0.00000000000E+00 0. -1.
<mgrwt>
<rscale>  1 0.30000000E+03</rscale>
<asrwt>0</asrwt>
<pdfrwt beam="1">  1       21 0.17006908E-01 0.30000000E+03</pdfrwt>
<pdfrwt beam="2">0</pdfrwt>
<totfact> 0.32590399E+03</totfact>
</mgrwt>
</event>
<event>
 6    1  0.1270461E-001  0.3000000E+03  0.7818608E-02  0.1093470E+00
         21   -1    0    0  501  502  0.00000000000E+00  0.00000000000E+00  0.11150216441E+01  0.11150216441E+01  0.00000000000E+00 0. -1.
         13   -1    0    0    0    0 -0.00000000000E+00 -0.00000000000E+00 -0.10000000000E+04  0.10000000000E+04  0.00000000000E+00 0.  1.
    9000005    2    1    2  501    0  0.23253865255E+02  0.19107230614E+02 -0.71456178488E+03  0.71520331000E+03  0.33766407339E+01 0.  0.
         13    1    3    3    0    0  0.76252428464E+01  0.44953324680E+01 -0.22595565772E+03  0.22612897116E+03  0.00000000000E+00 0.  1.
          1    1    3    3  501    0  0.15628622409E+02  0.14611898146E+02 -0.48860612716E+03  0.48907433883E+03  0.00000000000E+00 0.  1.
         -3    1    1    2    0  502 -0.23253865255E+02 -0.19107230614E+02 -0.28432319347E+03  0.28591171165E+03  0.00000000000E+00 0. -1.
<mgrwt>
<rscale>  1 0.30000000E+03</rscale>
<asrwt>0</asrwt>
<pdfrwt beam="1">  1       21 0.40546327E-02 0.30000000E+03</pdfrwt>
<pdfrwt beam="2">0</pdfrwt>
<totfact> 0.41097308E+04</totfact>
</mgrwt>
</event>
<event>
 6    1  0.1270461E-001  0.3000000E+03  0.7818608E-02  0.1093470E+00
         21   -1    0    0  501  502  0.00000000000E+00  0.00000000000E+00  0.25995138067E+01  0.25995138067E+01  0.00000000000E+00 0. -1.
         13   -1    0    0    0    0 -0.00000000000E+00 -0.00000000000E+00 -0.10000000000E+04  0.10000000000E+04  0.00000000000E+00 0.  1.
    9000005    2    1    2  501    0  0.89943482104E+01 -0.40004778197E+02 -0.20181858606E+03  0.20596167866E+03  0.28619601909E+01 0.  0.
         13    1    3    3    0    0  0.17801348209E+00 -0.18094278437E+01 -0.12085735617E+02  0.12221731601E+02  0.00000000000E+00 0.  1.
          1    1    3    3  501    0  0.88163347283E+01 -0.38195350353E+02 -0.18973285045E+03  0.19373994706E+03  0.00000000000E+00 0.  1.
         -1    1    1    2    0  502 -0.89943482104E+01  0.40004778197E+02 -0.79558190013E+03  0.79663783515E+03  0.00000000000E+00 0. -1.
<mgrwt>
<rscale>  1 0.30000000E+03</rscale>
<asrwt>0</asrwt>
<pdfrwt beam="1">  1       21 0.94527974E-02 0.30000000E+03</pdfrwt>
<pdfrwt beam="2">0</pdfrwt>
<totfact> 0.95117260E+03</totfact>
</mgrwt>
</event>
<event>
 6    1  0.1270461E-001  0.3000000E+03  0.7818608E-02  0.1093470E+00
         21   -1    0    0  501  502  0.00000000000E+00  0.00000000000E+00  0.20734946547E+01  0.20734946547E+01  0.00000000000E+00 0. -1.
         13   -1    0    0    0    0 -0.00000000000E+00 -0.00000000000E+00 -0.10000000000E+04  0.10000000000E+04  0.00000000000E+00 0.  1.
    9000005    2    1    2  501    0  0.71554819576E+01 -0.38108458320E+02 -0.76098876954E+03  0.76198404015E+03  0.35092099026E+01 0.  0.
         13    1    3    3    0    0  0.74777491567E+00 -0.91292640679E+00 -0.20371099947E+02  0.20405252142E+02  0.00000000000E+00 0.  1.
          1    1    3    3  501    0  0.64077070419E+01 -0.37195531913E+02 -0.74061766959E+03  0.74157878801E+03  0.00000000000E+00 0.  1.
         -1    1    1    2    0  502 -0.71554819576E+01  0.38108458320E+02 -0.23693773580E+03  0.24008945451E+03  0.00000000000E+00 0. -1.
<mgrwt>
<rscale>  1 0.30000000E+03</rscale>
<asrwt>0</asrwt>
<pdfrwt beam="1">  1       21 0.75399965E-02 0.30000000E+03</pdfrwt>
<pdfrwt beam="2">0</pdfrwt>
<totfact> 0.14171858E+04</totfact>
</mgrwt>
</event>
<event>
 6    1  0.1270461E-001  0.3000000E+03  0.7818608E-02  0.1093470E+00
         21   -1    0    0  501  502  0.00000000000E+00  0.00000000000E+00  0.22997525238E+01  0.22997525238E+01  0.00000000000E+00 0. -1.
         13   -1    0    0    0    0 -0.00000000000E+00 -0.00000000000E+00 -0.10000000000E+04  0.10000000000E+04  0.00000000000E+00 0.  1.
    9000005    2    1    2  501    0 -0.62066963081E+01  0.41554434328E+02 -0.26030440348E+03  0.26370789985E+03  0.42637872220E+01 0.  0.
         13    1    3    3    0    0 -0.56289052716E+00  0.16285558869E+02 -0.10649767471E+03  0.10773713841E+03  0.00000000000E+00 0.  1.
          3    1    3    3  501    0 -0.56438057809E+01  0.25268875459E+02 -0.15380672876E+03  0.15597076144E+03  0.00000000000E+00 0.  1.
         -3    1    1    2    0  502  0.62066963081E+01 -0.41554434328E+02 -0.73739584400E+03  0.73859185268E+03  0.00000000000E+00 0. -1.
<mgrwt>
<rscale>  1 0.30000000E+03</rscale>
<asrwt>0</asrwt>
<pdfrwt beam="1">  1       21 0.83627541E-02 0.30000000E+03</pdfrwt>
<pdfrwt beam="2">0</pdfrwt>
<totfact> 0.11815407E+04</totfact>
</mgrwt>
</event>
<event>
 6    1  0.1270461E-001  0.3000000E+03  0.7818608E-02  0.1093470E+00
         21   -1    0    0  501  502  0.00000000000E+00  0.00000000000E+00  0.40202849905E+01  0.40202849905E+01  0.00000000000E+00 0. -1.
         13   -1    0    0    0    0 -0.00000000000E+00 -0.00000000000E+00 -0.10000000000E+04  0.10000000000E+04  0.00000000000E+00 0.  1.
    9000005    2    1    2  501    0 -0.40576051603E+02  0.11760394911E+02 -0.87178237590E+03  0.87283453159E+03  0.71334257392E+01 0.  0.
         13    1    3    3    0    0 -0.28097973570E+02  0.68163265918E+01 -0.65416895230E+03  0.65480758745E+03  0.00000000000E+00 0.  1.
          3    1    3    3  501    0 -0.12478078033E+02  0.49440683190E+01 -0.21761342360E+03  0.21802694414E+03  0.00000000000E+00 0.  1.
         -1    1    1    2    0  502  0.40576051603E+02 -0.11760394911E+02 -0.12419733911E+03  0.13118575340E+03  0.00000000000E+00 0. -1.
<mgrwt>
<rscale>  1 0.30000000E+03</rscale>
<asrwt>0</asrwt>
<pdfrwt beam="1">  1       21 0.14619249E-01 0.30000000E+03</pdfrwt>
<pdfrwt beam="2">0</pdfrwt>
<totfact> 0.43184378E+03</totfact>
</mgrwt>
</event>
<event>
 6    1  0.1270461E-001  0.3000000E+03  0.7818608E-02  0.1093470E+00
         21   -1    0    0  501  502  0.00000000000E+00  0.00000000000E+00  0.22888540104E+01  0.22888540104E+01  0.00000000000E+00 0. -1.
         13   -1    0    0    0    0 -0.00000000000E+00 -0.00000000000E+00 -0.10000000000E+04  0.10000000000E+04  0.00000000000E+00 0.  1.
    9000005    2    1    2  501    0 -0.26502432289E+02  0.38903697739E+02 -0.58546598103E+03  0.58736482163E+03  0.33379827746E+01 0.  0.
         13    1    3    3    0    0 -0.17431501801E+02  0.24154543979E+02 -0.38728730767E+03  0.38843114954E+03  0.00000000000E+00 0.  1.
          1    1    3    3  501    0 -0.90709304881E+01  0.14749153760E+02 -0.19817867336E+03  0.19893367209E+03  0.00000000000E+00 0.  1.
         -3    1    1    2    0  502  0.26502432289E+02 -0.38903697739E+02 -0.41224516496E+03  0.41492403238E+03  0.00000000000E+00 0. -1.
<mgrwt>
<rscale>  1 0.30000000E+03</rscale>
<asrwt>0</asrwt>
<pdfrwt beam="1">  1       21 0.83231230E-02 0.30000000E+03</pdfrwt>
<pdfrwt beam="2">0</pdfrwt>
<totfact> 0.11914663E+04</totfact>
</mgrwt>
</event>
<event>
 6    1  0.1270461E-001  0.3000000E+03  0.7818608E-02  0.1093470E+00
         21   -1    0    0  501  502  0.00000000000E+00  0.00000000000E+00  0.13716101787E+01  0.13716101787E+01  0.00000000000E+00 0. -1.
         13   -1    0    0    0    0 -0.00000000000E+00 -0.00000000000E+00 -0.10000000000E+04  0.10000000000E+04  0.00000000000E+00 0.  1.
    9000005    2    1    2  501    0  0.28109464494E+02  0.15820922543E+02 -0.74456951536E+03  0.74527327891E+03  0.28378644888E+01 0.  0.
         13    1    3    3    0    0  0.26245934708E+02  0.14669919879E+02 -0.70806458059E+03  0.70870269219E+03  0.00000000000E+00 0.  1.
          3    1    3    3  501    0  0.18635297861E+01  0.11510026646E+01 -0.36504934770E+02  0.36570586719E+02  0.00000000000E+00 0.  1.
         -3    1    1    2    0  502 -0.28109464494E+02 -0.15820922543E+02 -0.25405887446E+03  0.25609833127E+03  0.00000000000E+00 0. -1.
<mgrwt>
<rscale>  1 0.30000000E+03</rscale>
<asrwt>0</asrwt>
<pdfrwt beam="1">  1       21 0.49876839E-02 0.30000000E+03</pdfrwt>
<pdfrwt beam="2">0</pdfrwt>
<totfact> 0.28926006E+04</totfact>
</mgrwt>
</event>
<event>
 6    1  0.1270461E-001  0.3000000E+03  0.7818608E-02  0.1093470E+00
         21   -1    0    0  501  502  0.00000000000E+00  0.00000000000E+00  0.22673969546E+01  0.22673969546E+01  0.00000000000E+00 0. -1.
         13   -1    0    0    0    0 -0.00000000000E+00 -0.00000000000E+00 -0.10000000000E+04  0.10000000000E+04  0.00000000000E+00 0.  1.
    9000005    2    1    2  501    0 -0.34350945774E+02  0.15482061783E+02 -0.80488699848E+03  0.80577538970E+03  0.33491223025E+01 0.  0.
         13    1    3    3    0    0 -0.30811036463E+02  0.14953227771E+02 -0.72813553033E+03  0.72894051165E+03  0.00000000000E+00 0.  1.
          1    1    3    3  501    0 -0.35399093116E+01  0.52883401142E+00 -0.76751468144E+02  0.76834878054E+02  0.00000000000E+00 0.  1.
         -3    1    1    2    0  502  0.34350945774E+02 -0.15482061783E+02 -0.19284560457E+03  0.19649200725E+03  0.00000000000E+00 0. -1.
<mgrwt>
<rscale>  1 0.30000000E+03</rscale>
<asrwt>0</asrwt>
<pdfrwt beam="1">  1       21 0.82450972E-02 0.30000000E+03</pdfrwt>
<pdfrwt beam="2">0</pdfrwt>
<totfact> 0.12113845E+04</totfact>
</mgrwt>
</event>
<event>
 6    1  0.1270461E-001  0.3000000E+03  0.7818608E-02  0.1093470E+00
         21   -1    0    0  501  502  0.00000000000E+00  0.00000000000E+00  0.29702295154E+01  0.29702295154E+01  0.00000000000E+00 0. -1.
         13   -1    0    0    0    0 -0.00000000000E+00 -0.00000000000E+00 -0.10000000000E+04  0.10000000000E+04  0.00000000000E+00 0.  1.
    9000005    2    1    2  501    0  0.50474578558E+02 -0.17759429532E+02 -0.59225949575E+03  0.59467859879E+03  0.28714327155E+01 0.  0.
         13    1    3    3    0    0  0.14853559321E+02 -0.63948506882E+01 -0.17090040873E+03  0.17166383441E+03  0.00000000000E+00 0.  1.
          3    1    3    3  501    0  0.35621019237E+02 -0.11364578844E+02 -0.42135908703E+03  0.42301476438E+03  0.00000000000E+00 0.  1.
         -1    1    1    2    0  502 -0.50474578558E+02  0.17759429532E+02 -0.40477027473E+03  0.40829163073E+03  0.00000000000E+00 0. -1.
<mgrwt>
<rscale>  1 0.30000000E+03</rscale>
<asrwt>0</asrwt>
<pdfrwt beam="1">  1       21 0.10800857E-01 0.30000000E+03</pdfrwt>
<pdfrwt beam="2">0</pdfrwt>
<totfact> 0.74941671E+03</totfact>
</mgrwt>
</event>
<event>
 6    1  0.1270461E-001  0.3000000E+03  0.7818608E-02  0.1093470E+00
         21   -1    0    0  501  502  0.00000000000E+00  0.00000000000E+00  0.36625720810E+01  0.36625720810E+01  0.00000000000E+00 0. -1.
         13   -1    0    0    0    0 -0.00000000000E+00 -0.00000000000E+00 -0.10000000000E+04  0.10000000000E+04  0.00000000000E+00 0.  1.
    9000005    2    1    2  501    0  0.38291023457E+02  0.23385547955E+02 -0.16221451499E+03  0.16833382230E+03  0.31049198802E+01 0.  0.
         13    1    3    3    0    0  0.27782842161E+02  0.15314772943E+02 -0.11402755702E+03  0.11835840633E+03  0.00000000000E+00 0.  1.
          3    1    3    3  501    0  0.10508181297E+02  0.80707750121E+01 -0.48186957967E+02  0.49975415972E+02  0.00000000000E+00 0.  1.
         -3    1    1    2    0  502 -0.38291023457E+02 -0.23385547955E+02 -0.83412291293E+03  0.83532874978E+03  0.00000000000E+00 0. -1.
<mgrwt>
<rscale>  1 0.30000000E+03</rscale>
<asrwt>0</asrwt>
<pdfrwt beam="1">  1       21 0.13318472E-01 0.30000000E+03</pdfrwt>
<pdfrwt beam="2">0</pdfrwt>
<totfact> 0.51247326E+03</totfact>
</mgrwt>
</event>
<event>
 6    1  0.1270461E-001  0.3000000E+03  0.7818608E-02  0.1093470E+00
         21   -1    0    0  501  502  0.00000000000E+00  0.00000000000E+00  0.27346050519E+01  0.27346050519E+01  0.00000000000E+00 0. -1.
         13   -1    0    0    0    0 -0.00000000000E+00 -0.00000000000E+00 -0.10000000000E+04  0.10000000000E+04  0.00000000000E+00 0.  1.
    9000005    2    1    2  501    0 -0.28664010604E+02 -0.93650582338E+01 -0.90792294446E+03  0.90844036727E+03  0.55224984451E+01 0.  0.
         13    1    3    3    0    0 -0.14359889273E+02 -0.65751575864E+01 -0.53406256610E+03  0.53429604493E+03  0.00000000000E+00 0.  1.
          3    1    3    3  501    0 -0.14304121331E+02 -0.27899006474E+01 -0.37386037836E+03  0.37414432234E+03  0.00000000000E+00 0.  1.
         -3    1    1    2    0  502  0.28664010604E+02  0.93650582338E+01 -0.89342450485E+02  0.94294237779E+02  0.00000000000E+00 0. -1.
<mgrwt>
<rscale>  1 0.30000000E+03</rscale>
<asrwt>0</asrwt>
<pdfrwt beam="1">  1       21 0.99440393E-02 0.30000000E+03</pdfrwt>
<pdfrwt beam="2">0</pdfrwt>
<totfact> 0.86898843E+03</totfact>
</mgrwt>
</event>
<event>
 6    1  0.1270461E-001  0.3000000E+03  0.7818608E-02  0.1093470E+00
         21   -1    0    0  501  502  0.00000000000E+00  0.00000000000E+00  0.16138668091E+01  0.16138668091E+01  0.00000000000E+00 0. -1.
         13   -1    0    0    0    0 -0.00000000000E+00 -0.00000000000E+00 -0.10000000000E+04  0.10000000000E+04  0.00000000000E+00 0.  1.
    9000005    2    1    2  501    0 -0.10912403756E+01  0.30693167138E+02 -0.82173090362E+03  0.82230873177E+03  0.25905745686E+01 0.  0.
         13    1    3    3    0    0 -0.14645876912E+00  0.49105506748E+00 -0.24561312361E+02  0.24566657284E+02  0.00000000000E+00 0.  1.
          3    1    3    3  501    0 -0.94478160648E+00  0.30202112070E+02 -0.79716959126E+03  0.79774207449E+03  0.00000000000E+00 0.  1.
         -3    1    1    2    0  502  0.10912403756E+01 -0.30693167138E+02 -0.17665522957E+03  0.17930513503E+03  0.00000000000E+00 0. -1.
<mgrwt>
<rscale>  1 0.30000000E+03</rscale>
<asrwt>0</asrwt>
<pdfrwt beam="1">  1       21 0.58686190E-02 0.30000000E+03</pdfrwt>
<pdfrwt beam="2">0</pdfrwt>
<totfact> 0.21891468E+04</totfact>
</mgrwt>
</event>
<event>
 6    1  0.1270461E-001  0.3000000E+03  0.7818608E-02  0.1093470E+00
         21   -1    0    0  501  502  0.00000000000E+00  0.00000000000E+00  0.49076756471E+01  0.49076756471E+01  0.00000000000E+00 0. -1.
         13   -1    0    0    0    0 -0.00000000000E+00 -0.00000000000E+00 -0.10000000000E+04  0.10000000000E+04  0.00000000000E+00 0.  1.
    9000005    2    1    2  501    0 -0.12390757392E+02  0.59841334823E+02 -0.74142858449E+03  0.74398659726E+03  0.80743291331E+01 0.  0.
         13    1    3    3    0    0 -0.90249653870E+01  0.28582787545E+02 -0.32992059117E+03  0.33127937186E+03  0.00000000000E+00 0.  1.
          3    1    3    3  501    0 -0.33657920051E+01  0.31258547278E+02 -0.41150799332E+03  0.41270722540E+03  0.00000000000E+00 0.  1.
         -1    1    1    2    0  502  0.12390757392E+02 -0.59841334823E+02 -0.25366373987E+03  0.26092107838E+03  0.00000000000E+00 0. -1.
<mgrwt>
<rscale>  1 0.30000000E+03</rscale>
<asrwt>0</asrwt>
<pdfrwt beam="1">  1       21 0.17846131E-01 0.30000000E+03</pdfrwt>
<pdfrwt beam="2">0</pdfrwt>
<totfact> 0.29772837E+03</totfact>
</mgrwt>
</event>
<event>
 6    1  0.1270461E-001  0.3000000E+03  0.7818608E-02  0.1093470E+00
         21   -1    0    0  501  502  0.00000000000E+00  0.00000000000E+00  0.36173207118E+01  0.36173207118E+01  0.00000000000E+00 0. -1.
         13   -1    0    0    0    0 -0.00000000000E+00 -0.00000000000E+00 -0.10000000000E+04  0.10000000000E+04  0.00000000000E+00 0.  1.
    9000005    2    1    2  501    0  0.21498698790E+02  0.24543297579E+02 -0.91970295771E+03  0.92028457081E+03  0.23650231888E+01 0.  0.
         13    1    3    3    0    0  0.83022646497E+01  0.90579263338E+01 -0.37813916566E+03  0.37833874006E+03  0.00000000000E+00 0.  1.
          3    1    3    3  501    0  0.13196434141E+02  0.15485371246E+02 -0.54156379206E+03  0.54194583075E+03  0.00000000000E+00 0.  1.
         -1    1    1    2    0  502 -0.21498698790E+02 -0.24543297579E+02 -0.76679721574E+02  0.83332749903E+02  0.00000000000E+00 0. -1.
<mgrwt>
<rscale>  1 0.30000000E+03</rscale>
<asrwt>0</asrwt>
<pdfrwt beam="1">  1       21 0.13153921E-01 0.30000000E+03</pdfrwt>
<pdfrwt beam="2">0</pdfrwt>
<totfact> 0.52425677E+03</totfact>
</mgrwt>
</event>
<event>
 6    1  0.1270461E-001  0.3000000E+03  0.7818608E-02  0.1093470E+00
         21   -1    0    0  501  502  0.00000000000E+00  0.00000000000E+00  0.16948823713E+01  0.16948823713E+01  0.00000000000E+00 0. -1.
         13   -1    0    0    0    0 -0.00000000000E+00 -0.00000000000E+00 -0.10000000000E+04  0.10000000000E+04  0.00000000000E+00 0.  1.
    9000005    2    1    2  501    0 -0.21824187487E+02  0.33108610199E+02 -0.63182984780E+03  0.63308045153E+03  0.30702294678E+01 0.  0.
         13    1    3    3    0    0 -0.73661965505E+01  0.13892412661E+02 -0.24779024079E+03  0.24828866952E+03  0.00000000000E+00 0.  1.
          3    1    3    3  501    0 -0.14457990937E+02  0.19216197538E+02 -0.38403960700E+03  0.38479178200E+03  0.00000000000E+00 0.  1.
         -1    1    1    2    0  502  0.21824187487E+02 -0.33108610199E+02 -0.36647526983E+03  0.36861443084E+03  0.00000000000E+00 0. -1.
<mgrwt>
<rscale>  1 0.30000000E+03</rscale>
<asrwt>0</asrwt>
<pdfrwt beam="1">  1       21 0.61632216E-02 0.30000000E+03</pdfrwt>
<pdfrwt beam="2">0</pdfrwt>
<totfact> 0.20117978E+04</totfact>
</mgrwt>
</event>
<event>
 6    1  0.1270461E-001  0.3000000E+03  0.7818608E-02  0.1093470E+00
         21   -1    0    0  501  502  0.00000000000E+00  0.00000000000E+00  0.22292835674E+01  0.22292835674E+01  0.00000000000E+00 0. -1.
         13   -1    0    0    0    0 -0.00000000000E+00 -0.00000000000E+00 -0.10000000000E+04  0.10000000000E+04  0.00000000000E+00 0.  1.
    9000005    2    1    2  501    0  0.25622784077E+02  0.19131952017E+02 -0.86738238309E+03  0.86797699821E+03  0.30516020096E+01 0.  0.
         13    1    3    3    0    0  0.18569068966E+02  0.15492381457E+02 -0.65746077669E+03  0.65790538612E+03  0.00000000000E+00 0.  1.
          1    1    3    3  501    0  0.70537151119E+01  0.36395705603E+01 -0.20992160640E+03  0.21007161209E+03  0.00000000000E+00 0.  1.
         -3    1    1    2    0  502 -0.25622784077E+02 -0.19131952017E+02 -0.13038833334E+03  0.13425228536E+03  0.00000000000E+00 0. -1.
<mgrwt>
<rscale>  1 0.30000000E+03</rscale>
<asrwt>0</asrwt>
<pdfrwt beam="1">  1       21 0.81065028E-02 0.30000000E+03</pdfrwt>
<pdfrwt beam="2">0</pdfrwt>
<totfact> 0.12480451E+04</totfact>
</mgrwt>
</event>
<event>
 6    1  0.1270461E-001  0.3000000E+03  0.7818608E-02  0.1093470E+00
         21   -1    0    0  501  502  0.00000000000E+00  0.00000000000E+00  0.22508681064E+01  0.22508681064E+01  0.00000000000E+00 0. -1.
         13   -1    0    0    0    0 -0.00000000000E+00 -0.00000000000E+00 -0.10000000000E+04  0.10000000000E+04  0.00000000000E+00 0.  1.
    9000005    2    1    2  501    0 -0.10964308218E+02 -0.38745621054E+02 -0.76329517560E+03  0.76436413702E+03  0.34014205452E+01 0.  0.
         13    1    3    3    0    0 -0.82477947738E+01 -0.31905352971E+02 -0.64320515030E+03  0.64404878933E+03  0.00000000000E+00 0.  1.
          1    1    3    3  501    0 -0.27165134441E+01 -0.68402680828E+01 -0.12009002530E+03  0.12031534769E+03  0.00000000000E+00 0.  1.
         -1    1    1    2    0  502  0.10964308218E+02  0.38745621054E+02 -0.23445395630E+03  0.23788673109E+03  0.00000000000E+00 0. -1.
<mgrwt>
<rscale>  1 0.30000000E+03</rscale>
<asrwt>0</asrwt>
<pdfrwt beam="1">  1       21 0.81849922E-02 0.30000000E+03</pdfrwt>
<pdfrwt beam="2">0</pdfrwt>
<totfact> 0.12270778E+04</totfact>
</mgrwt>
</event>
<event>
 6    1  0.1270461E-001  0.3000000E+03  0.7818608E-02  0.1093470E+00
         21   -1    0    0  501  502  0.00000000000E+00  0.00000000000E+00  0.21713856947E+01  0.21713856947E+01  0.00000000000E+00 0. -1.
         13   -1    0    0    0    0 -0.00000000000E+00 -0.00000000000E+00 -0.10000000000E+04  0.10000000000E+04  0.00000000000E+00 0.  1.
    9000005    2    1    2  501    0 -0.46118644927E+01  0.30982952695E+02 -0.86969528499E+03  0.87026474169E+03  0.31014897801E+01 0.  0.
         13    1    3    3    0    0 -0.88527886237E-01  0.76750595378E+01 -0.23623285295E+03  0.23635751561E+03  0.00000000000E+00 0.  1.
          1    1    3    3  501    0 -0.45233366064E+01  0.23307893157E+02 -0.63346243204E+03  0.63390722607E+03  0.00000000000E+00 0.  1.
         -1    1    1    2    0  502  0.46118644927E+01 -0.30982952695E+02 -0.12813332932E+03  0.13190664401E+03  0.00000000000E+00 0. -1.
<mgrwt>
<rscale>  1 0.30000000E+03</rscale>
<asrwt>0</asrwt>
<pdfrwt beam="1">  1       21 0.78959646E-02 0.30000000E+03</pdfrwt>
<pdfrwt beam="2">0</pdfrwt>
<totfact> 0.13070852E+04</totfact>
</mgrwt>
</event>
<event>
 6    1  0.1270461E-001  0.3000000E+03  0.7818608E-02  0.1093470E+00
         21   -1    0    0  501  502  0.00000000000E+00  0.00000000000E+00  0.17402242709E+01  0.17402242709E+01  0.00000000000E+00 0. -1.
         13   -1    0    0    0    0 -0.00000000000E+00 -0.00000000000E+00 -0.10000000000E+04  0.10000000000E+04  0.00000000000E+00 0.  1.
    9000005    2    1    2  501    0  0.52050707995E+01 -0.38534540580E+02 -0.66968188018E+03  0.67086949873E+03  0.89476308819E+01 0.  0.
         13    1    3    3    0    0  0.72916311410E+01 -0.35296439973E+02 -0.60858282434E+03  0.60964912912E+03  0.00000000000E+00 0.  1.
          3    1    3    3  501    0 -0.20865603415E+01 -0.32381006075E+01 -0.61099055839E+02  0.61220369601E+02  0.00000000000E+00 0.  1.
         -1    1    1    2    0  502 -0.52050707995E+01  0.38534540580E+02 -0.32857789555E+03  0.33087072555E+03  0.00000000000E+00 0. -1.
<mgrwt>
<rscale>  1 0.30000000E+03</rscale>
<asrwt>0</asrwt>
<pdfrwt beam="1">  1       21 0.63281016E-02 0.30000000E+03</pdfrwt>
<pdfrwt beam="2">0</pdfrwt>
<totfact> 0.19220964E+04</totfact>
</mgrwt>
</event>
<event>
 6    1  0.1270461E-001  0.3000000E+03  0.7818608E-02  0.1093470E+00
         21   -1    0    0  501  502  0.00000000000E+00  0.00000000000E+00  0.43953686359E+01  0.43953686359E+01  0.00000000000E+00 0. -1.
         13   -1    0    0    0    0 -0.00000000000E+00 -0.00000000000E+00 -0.10000000000E+04  0.10000000000E+04  0.00000000000E+00 0.  1.
    9000005    2    1    2  501    0  0.20817000903E+02  0.30672141157E+02 -0.91409911889E+03  0.91485612398E+03  0.32250052993E+01 0.  0.
         13    1    3    3    0    0  0.58640370594E+01  0.10997125925E+02 -0.32520393498E+03  0.32544265706E+03  0.00000000000E+00 0.  1.
          1    1    3    3  501    0  0.14952963844E+02  0.19675015232E+02 -0.58889518391E+03  0.58941346692E+03  0.00000000000E+00 0.  1.
         -3    1    1    2    0  502 -0.20817000903E+02 -0.30672141157E+02 -0.81505512470E+02  0.89539244651E+02  0.00000000000E+00 0. -1.
<mgrwt>
<rscale>  1 0.30000000E+03</rscale>
<asrwt>0</asrwt>
<pdfrwt beam="1">  1       21 0.15983192E-01 0.30000000E+03</pdfrwt>
<pdfrwt beam="2">0</pdfrwt>
<totfact> 0.36598268E+03</totfact>
</mgrwt>
</event>
<event>
 6    1  0.1270461E-001  0.3000000E+03  0.7818608E-02  0.1093470E+00
         21   -1    0    0  501  502  0.00000000000E+00  0.00000000000E+00  0.17901819008E+01  0.17901819008E+01  0.00000000000E+00 0. -1.
         13   -1    0    0    0    0 -0.00000000000E+00 -0.00000000000E+00 -0.10000000000E+04  0.10000000000E+04  0.00000000000E+00 0.  1.
    9000005    2    1    2  501    0  0.96683029883E+01  0.35068820032E+02 -0.75400336062E+03  0.75488920561E+03  0.36533124860E+01 0.  0.
         13    1    3    3    0    0  0.31310351034E+01  0.66948673106E+01 -0.13709482490E+03  0.13729390243E+03  0.00000000000E+00 0.  1.
          1    1    3    3  501    0  0.65372678850E+01  0.28373952721E+02 -0.61690853572E+03  0.61759530318E+03  0.00000000000E+00 0.  1.
         -1    1    1    2    0  502 -0.96683029883E+01 -0.35068820032E+02 -0.24420645748E+03  0.24690097629E+03  0.00000000000E+00 0. -1.
<mgrwt>
<rscale>  1 0.30000000E+03</rscale>
<asrwt>0</asrwt>
<pdfrwt beam="1">  1       21 0.65097661E-02 0.30000000E+03</pdfrwt>
<pdfrwt beam="2">0</pdfrwt>
<totfact> 0.18302405E+04</totfact>
</mgrwt>
</event>
<event>
 6    1  0.1270461E-001  0.3000000E+03  0.7818608E-02  0.1093470E+00
         21   -1    0    0  501  502  0.00000000000E+00  0.00000000000E+00  0.15606001417E+01  0.15606001417E+01  0.00000000000E+00 0. -1.
         13   -1    0    0    0    0 -0.00000000000E+00 -0.00000000000E+00 -0.10000000000E+04  0.10000000000E+04  0.00000000000E+00 0.  1.
    9000005    2    1    2  501    0 -0.29834578572E+02 -0.16708754689E+02 -0.74958246187E+03  0.75036533716E+03  0.22332710380E+01 0.  0.
         13    1    3    3    0    0 -0.18117201810E+02 -0.89126125201E+01 -0.44648656835E+03  0.44694286366E+03  0.00000000000E+00 0.  1.
          1    1    3    3  501    0 -0.11717376762E+02 -0.77961421692E+01 -0.30309589352E+03  0.30342247350E+03  0.00000000000E+00 0.  1.
         -1    1    1    2    0  502  0.29834578572E+02  0.16708754689E+02 -0.24885693798E+03  0.25119526298E+03  0.00000000000E+00 0. -1.
<mgrwt>
<rscale>  1 0.30000000E+03</rscale>
<asrwt>0</asrwt>
<pdfrwt beam="1">  1       21 0.56749216E-02 0.30000000E+03</pdfrwt>
<pdfrwt beam="2">0</pdfrwt>
<totfact> 0.23193419E+04</totfact>
</mgrwt>
</event>
<event>
 6    1  0.1270461E-001  0.3000000E+03  0.7818608E-02  0.1093470E+00
         21   -1    0    0  501  502  0.00000000000E+00  0.00000000000E+00  0.60611139295E+01  0.60611139295E+01  0.00000000000E+00 0. -1.
         13   -1    0    0    0    0 -0.00000000000E+00 -0.00000000000E+00 -0.10000000000E+04  0.10000000000E+04  0.00000000000E+00 0.  1.
    9000005    2    1    2  501    0 -0.42292959514E+02 -0.44750856314E+02 -0.80466160772E+03  0.80702036015E+03  0.31976855921E+01 0.  0.
         13    1    3    3    0    0 -0.36023157360E+01 -0.41454540429E+01 -0.61021480269E+02  0.61268119949E+02  0.00000000000E+00 0.  1.
          3    1    3    3  501    0 -0.38690643778E+02 -0.40605402271E+02 -0.74364012745E+03  0.74575224020E+03  0.00000000000E+00 0.  1.
         -3    1    1    2    0  502  0.42292959514E+02  0.44750856314E+02 -0.18927727835E+03  0.19904075378E+03  0.00000000000E+00 0. -1.
<mgrwt>
<rscale>  1 0.30000000E+03</rscale>
<asrwt>0</asrwt>
<pdfrwt beam="1">  1       21 0.22040461E-01 0.30000000E+03</pdfrwt>
<pdfrwt beam="2">0</pdfrwt>
<totfact> 0.19915345E+03</totfact>
</mgrwt>
</event>
<event>
 6    1  0.1270461E-001  0.3000000E+03  0.7818608E-02  0.1093470E+00
         21   -1    0    0  501  502  0.00000000000E+00  0.00000000000E+00  0.17114254000E+01  0.17114254000E+01  0.00000000000E+00 0. -1.
         13   -1    0    0    0    0 -0.00000000000E+00 -0.00000000000E+00 -0.10000000000E+04  0.10000000000E+04  0.00000000000E+00 0.  1.
    9000005    2    1    2  501    0  0.36582132551E+02  0.10344242169E+02 -0.69518383993E+03  0.69623190735E+03  0.36113357528E+01 0.  0.
         13    1    3    3    0    0  0.35424507778E+02  0.96010005524E+01 -0.65822001976E+03  0.65924249664E+03  0.00000000000E+00 0.  1.
          1    1    3    3  501    0  0.11576247727E+01  0.74324161616E+00 -0.36963820166E+02  0.36989410708E+02  0.00000000000E+00 0.  1.
         -3    1    1    2    0  502 -0.36582132551E+02 -0.10344242169E+02 -0.30310473467E+03  0.30547951805E+03  0.00000000000E+00 0. -1.
<mgrwt>
<rscale>  1 0.30000000E+03</rscale>
<asrwt>0</asrwt>
<pdfrwt beam="1">  1       21 0.62233782E-02 0.30000000E+03</pdfrwt>
<pdfrwt beam="2">0</pdfrwt>
<totfact> 0.19783318E+04</totfact>
</mgrwt>
</event>
<event>
 6    1  0.1270461E-001  0.3000000E+03  0.7818608E-02  0.1093470E+00
         21   -1    0    0  501  502  0.00000000000E+00  0.00000000000E+00  0.12041919001E+01  0.12041919001E+01  0.00000000000E+00 0. -1.
         13   -1    0    0    0    0 -0.00000000000E+00 -0.00000000000E+00 -0.10000000000E+04  0.10000000000E+04  0.00000000000E+00 0.  1.
    9000005    2    1    2  501    0 -0.23437984160E+01  0.32236201854E+02 -0.67997978172E+03  0.68075400111E+03  0.29732772722E+01 0.  0.
         13    1    3    3    0    0  0.62298370990E+00  0.27519819457E+01 -0.61796688064E+02  0.61861071515E+02  0.00000000000E+00 0.  1.
          3    1    3    3  501    0 -0.29667821259E+01  0.29484219908E+02 -0.61818309366E+03  0.61889292960E+03  0.00000000000E+00 0.  1.
         -3    1    1    2    0  502  0.23437984160E+01 -0.32236201854E+02 -0.31881602638E+03  0.32045019079E+03  0.00000000000E+00 0. -1.
<mgrwt>
<rscale>  1 0.30000000E+03</rscale>
<asrwt>0</asrwt>
<pdfrwt beam="1">  1       21 0.43788889E-02 0.30000000E+03</pdfrwt>
<pdfrwt beam="2">0</pdfrwt>
<totfact> 0.36089183E+04</totfact>
</mgrwt>
</event>
<event>
 6    1  0.1270461E-001  0.3000000E+03  0.7818608E-02  0.1093470E+00
         21   -1    0    0  501  502  0.00000000000E+00  0.00000000000E+00  0.13367318172E+01  0.13367318172E+01  0.00000000000E+00 0. -1.
         13   -1    0    0    0    0 -0.00000000000E+00 -0.00000000000E+00 -0.10000000000E+04  0.10000000000E+04  0.00000000000E+00 0.  1.
    9000005    2    1    2  501    0 -0.20168216353E+02 -0.24604587772E+02 -0.74462800481E+03  0.74531708858E+03  0.38150072667E+01 0.  0.
         13    1    3    3    0    0 -0.95427117075E+00 -0.11713872466E+01 -0.59608962805E+02  0.59628107703E+02  0.00000000000E+00 0.  1.
          1    1    3    3  501    0 -0.19213945182E+02 -0.23433200526E+02 -0.68501904201E+03  0.68568898087E+03  0.00000000000E+00 0.  1.
         -3    1    1    2    0  502  0.20168216353E+02  0.24604587772E+02 -0.25403526337E+03  0.25601964324E+03  0.00000000000E+00 0. -1.
<mgrwt>
<rscale>  1 0.30000000E+03</rscale>
<asrwt>0</asrwt>
<pdfrwt beam="1">  1       21 0.48608532E-02 0.30000000E+03</pdfrwt>
<pdfrwt beam="2">0</pdfrwt>
<totfact> 0.30223476E+04</totfact>
</mgrwt>
</event>
<event>
 6    1  0.1270461E-001  0.3000000E+03  0.7818608E-02  0.1093470E+00
         21   -1    0    0  501  502  0.00000000000E+00  0.00000000000E+00  0.15805627792E+01  0.15805627792E+01  0.00000000000E+00 0. -1.
         13   -1    0    0    0    0 -0.00000000000E+00 -0.00000000000E+00 -0.10000000000E+04  0.10000000000E+04  0.00000000000E+00 0.  1.
    9000005    2    1    2  501    0 -0.38773932208E+02 -0.54405113043E+01 -0.58222782674E+03  0.58355128914E+03  0.31381281255E+01 0.  0.
         13    1    3    3    0    0 -0.17041816428E+02 -0.85204075233E+00 -0.25757049121E+03  0.25813505656E+03  0.00000000000E+00 0.  1.
          3    1    3    3  501    0 -0.21732115779E+02 -0.45884705520E+01 -0.32465733552E+03  0.32541623258E+03  0.00000000000E+00 0.  1.
         -1    1    1    2    0  502  0.38773932208E+02  0.54405113043E+01 -0.41619161049E+03  0.41802927364E+03  0.00000000000E+00 0. -1.
<mgrwt>
<rscale>  1 0.30000000E+03</rscale>
<asrwt>0</asrwt>
<pdfrwt beam="1">  1       21 0.57475131E-02 0.30000000E+03</pdfrwt>
<pdfrwt beam="2">0</pdfrwt>
<totfact> 0.22691917E+04</totfact>
</mgrwt>
</event>
<event>
 6    1  0.1270461E-001  0.3000000E+03  0.7818608E-02  0.1093470E+00
         21   -1    0    0  501  502  0.00000000000E+00  0.00000000000E+00  0.11080270343E+01  0.11080270343E+01  0.00000000000E+00 0. -1.
         13   -1    0    0    0    0 -0.00000000000E+00 -0.00000000000E+00 -0.10000000000E+04  0.10000000000E+04  0.00000000000E+00 0.  1.
    9000005    2    1    2  501    0  0.12391928344E+02  0.28027757940E+02 -0.69330713934E+03  0.69399045078E+03  0.29734169826E+01 0.  0.
         13    1    3    3    0    0  0.71789668809E+01  0.12576780841E+02 -0.32368060050E+03  0.32400438905E+03  0.00000000000E+00 0.  1.
          3    1    3    3  501    0  0.52129614632E+01  0.15450977099E+02 -0.36962653884E+03  0.36998606173E+03  0.00000000000E+00 0.  1.
         -1    1    1    2    0  502 -0.12391928344E+02 -0.28027757940E+02 -0.30558483363E+03  0.30711757626E+03  0.00000000000E+00 0. -1.
<mgrwt>
<rscale>  1 0.30000000E+03</rscale>
<asrwt>0</asrwt>
<pdfrwt beam="1">  1       21 0.40291977E-02 0.30000000E+03</pdfrwt>
<pdfrwt beam="2">0</pdfrwt>
<totfact> 0.41535382E+04</totfact>
</mgrwt>
</event>
<event>
 6    1  0.1270461E-001  0.3000000E+03  0.7818608E-02  0.1093470E+00
         21   -1    0    0  501  502  0.00000000000E+00  0.00000000000E+00  0.59256752606E+01  0.59256752606E+01  0.00000000000E+00 0. -1.
         13   -1    0    0    0    0 -0.00000000000E+00 -0.00000000000E+00 -0.10000000000E+04  0.10000000000E+04  0.00000000000E+00 0.  1.
    9000005    2    1    2  501    0  0.23478972054E+02  0.19400235109E+02 -0.95894961357E+03  0.95943506776E+03  0.19122321274E+01 0.  0.
         13    1    3    3    0    0  0.17897417023E+01  0.19935150062E+01 -0.96546294093E+02  0.96583457075E+02  0.00000000000E+00 0.  1.
          3    1    3    3  501    0  0.21689230352E+02  0.17406720102E+02 -0.86240331948E+03  0.86285161069E+03  0.00000000000E+00 0.  1.
         -3    1    1    2    0  502 -0.23478972054E+02 -0.19400235109E+02 -0.35124711169E+02  0.46490607500E+02  0.00000000000E+00 0. -1.
<mgrwt>
<rscale>  1 0.30000000E+03</rscale>
<asrwt>0</asrwt>
<pdfrwt beam="1">  1       21 0.21547955E-01 0.30000000E+03</pdfrwt>
<pdfrwt beam="2">0</pdfrwt>
<totfact> 0.20800163E+03</totfact>
</mgrwt>
</event>
<event>
 6    1  0.1270461E-001  0.3000000E+03  0.7818608E-02  0.1093470E+00
         21   -1    0    0  501  502  0.00000000000E+00  0.00000000000E+00  0.39937272108E+01  0.39937272108E+01  0.00000000000E+00 0. -1.
         13   -1    0    0    0    0 -0.00000000000E+00 -0.00000000000E+00 -0.10000000000E+04  0.10000000000E+04  0.00000000000E+00 0.  1.
    9000005    2    1    2  501    0 -0.84174361729E+01  0.29588155477E+02 -0.93644802339E+03  0.93696017406E+03  0.36269948338E+01 0.  0.
         13    1    3    3    0    0 -0.78410437421E+01  0.24287137733E+02 -0.80364774843E+03  0.80405289041E+03  0.00000000000E+00 0.  1.
          1    1    3    3  501    0 -0.57639243079E+00  0.53010177446E+01 -0.13280027496E+03  0.13290728365E+03  0.00000000000E+00 0.  1.
         -1    1    1    2    0  502  0.84174361729E+01 -0.29588155477E+02 -0.59558249404E+02  0.67033553153E+02  0.00000000000E+00 0. -1.
<mgrwt>
<rscale>  1 0.30000000E+03</rscale>
<asrwt>0</asrwt>
<pdfrwt beam="1">  1       21 0.14522675E-01 0.30000000E+03</pdfrwt>
<pdfrwt beam="2">0</pdfrwt>
<totfact> 0.43715632E+03</totfact>
</mgrwt>
</event>
<event>
 6    1  0.1270461E-001  0.3000000E+03  0.7818608E-02  0.1093470E+00
         21   -1    0    0  501  502  0.00000000000E+00  0.00000000000E+00  0.17827492121E+01  0.17827492121E+01  0.00000000000E+00 0. -1.
         13   -1    0    0    0    0 -0.00000000000E+00 -0.00000000000E+00 -0.10000000000E+04  0.10000000000E+04  0.00000000000E+00 0.  1.
    9000005    2    1    2  501    0  0.76995570287E+01  0.37178901916E+02 -0.71556585849E+03  0.71659270119E+03  0.53895851569E+01 0.  0.
         13    1    3    3    0    0  0.18505815044E+01  0.11092912564E+02 -0.16934401527E+03  0.16971703765E+03  0.00000000000E+00 0.  1.
          3    1    3    3  501    0  0.58489755242E+01  0.26085989352E+02 -0.54622184322E+03  0.54687566353E+03  0.00000000000E+00 0.  1.
         -3    1    1    2    0  502 -0.76995570287E+01 -0.37178901916E+02 -0.28265139229E+03  0.28519004802E+03  0.00000000000E+00 0. -1.
<mgrwt>
<rscale>  1 0.30000000E+03</rscale>
<asrwt>0</asrwt>
<pdfrwt beam="1">  1       21 0.64827381E-02 0.30000000E+03</pdfrwt>
<pdfrwt beam="2">0</pdfrwt>
<totfact> 0.18434720E+04</totfact>
</mgrwt>
</event>
<event>
 6    1  0.1270461E-001  0.3000000E+03  0.7818608E-02  0.1093470E+00
         21   -1    0    0  501  502  0.00000000000E+00  0.00000000000E+00  0.10924733822E+01  0.10924733822E+01  0.00000000000E+00 0. -1.
         13   -1    0    0    0    0 -0.00000000000E+00 -0.00000000000E+00 -0.10000000000E+04  0.10000000000E+04  0.00000000000E+00 0.  1.
    9000005    2    1    2  501    0  0.15249538960E+02  0.27843763963E+02 -0.63531616127E+03  0.63611781045E+03  0.33794030737E+01 0.  0.
         13    1    3    3    0    0  0.71432767471E+01  0.10950216350E+02 -0.28789864592E+03  0.28819535729E+03  0.00000000000E+00 0.  1.
          1    1    3    3  501    0  0.81062622129E+01  0.16893547613E+02 -0.34741751536E+03  0.34792245316E+03  0.00000000000E+00 0.  1.
         -3    1    1    2    0  502 -0.15249538960E+02 -0.27843763963E+02 -0.36359136535E+03  0.36497466293E+03  0.00000000000E+00 0. -1.
<mgrwt>
<rscale>  1 0.30000000E+03</rscale>
<asrwt>0</asrwt>
<pdfrwt beam="1">  1       21 0.39726389E-02 0.30000000E+03</pdfrwt>
<pdfrwt beam="2">0</pdfrwt>
<totfact> 0.42536077E+04</totfact>
</mgrwt>
</event>
<event>
 6    1  0.1270461E-001  0.3000000E+03  0.7818608E-02  0.1093470E+00
         21   -1    0    0  501  502  0.00000000000E+00  0.00000000000E+00  0.15977848884E+01  0.15977848884E+01  0.00000000000E+00 0. -1.
         13   -1    0    0    0    0 -0.00000000000E+00 -0.00000000000E+00 -0.10000000000E+04  0.10000000000E+04  0.00000000000E+00 0.  1.
    9000005    2    1    2  501    0  0.28983387579E+02 -0.21952774873E+02 -0.29374494827E+03  0.29600312449E+03  0.31295349866E+01 0.  0.
         13    1    3    3    0    0  0.86326663624E+01 -0.76824186171E+01 -0.84250637319E+02  0.85039475380E+02  0.00000000000E+00 0.  1.
          1    1    3    3  501    0  0.20350721217E+02 -0.14270356256E+02 -0.20949431096E+03  0.21096364911E+03  0.00000000000E+00 0.  1.
         -1    1    1    2    0  502 -0.28983387579E+02  0.21952774873E+02 -0.70465726684E+03  0.70559466040E+03  0.00000000000E+00 0. -1.
<mgrwt>
<rscale>  1 0.30000000E+03</rscale>
<asrwt>0</asrwt>
<pdfrwt beam="1">  1       21 0.58101391E-02 0.30000000E+03</pdfrwt>
<pdfrwt beam="2">0</pdfrwt>
<totfact> 0.22272473E+04</totfact>
</mgrwt>
</event>
<event>
 6    1  0.1270461E-001  0.3000000E+03  0.7818608E-02  0.1093470E+00
         21   -1    0    0  501  502  0.00000000000E+00  0.00000000000E+00  0.27122080350E+01  0.27122080350E+01  0.00000000000E+00 0. -1.
         13   -1    0    0    0    0 -0.00000000000E+00 -0.00000000000E+00 -0.10000000000E+04  0.10000000000E+04  0.00000000000E+00 0.  1.
    9000005    2    1    2  501    0  0.16319312088E+01 -0.40143437850E+02 -0.81730755940E+03  0.81830222209E+03  0.35666824500E+01 0.  0.
         13    1    3    3    0    0  0.15730146555E+01 -0.71923095946E+01 -0.15976315682E+03  0.15993270450E+03  0.00000000000E+00 0.  1.
          3    1    3    3  501    0  0.58916553335E-01 -0.32951128256E+02 -0.65754440258E+03  0.65836951759E+03  0.00000000000E+00 0.  1.
         -3    1    1    2    0  502 -0.16319312088E+01  0.40143437850E+02 -0.17998023256E+03  0.18440998594E+03  0.00000000000E+00 0. -1.
<mgrwt>
<rscale>  1 0.30000000E+03</rscale>
<asrwt>0</asrwt>
<pdfrwt beam="1">  1       21 0.98625955E-02 0.30000000E+03</pdfrwt>
<pdfrwt beam="2">0</pdfrwt>
<totfact> 0.88184502E+03</totfact>
</mgrwt>
</event>
<event>
 6    1  0.1270461E-001  0.3000000E+03  0.7818608E-02  0.1093470E+00
         21   -1    0    0  501  502  0.00000000000E+00  0.00000000000E+00  0.17889983586E+01  0.17889983586E+01  0.00000000000E+00 0. -1.
         13   -1    0    0    0    0 -0.00000000000E+00 -0.00000000000E+00 -0.10000000000E+04  0.10000000000E+04  0.00000000000E+00 0.  1.
    9000005    2    1    2  501    0 -0.31071636267E+02 -0.22893358495E+02 -0.69800047508E+03  0.69910779197E+03  0.75821590433E+01 0.  0.
         13    1    3    3    0    0 -0.51733919211E+01 -0.17763728678E+01 -0.66893081548E+02  0.67116345577E+02  0.00000000000E+00 0.  1.
          3    1    3    3  501    0 -0.25898244345E+02 -0.21116985628E+02 -0.63110739353E+03  0.63199144639E+03  0.00000000000E+00 0.  1.
         -3    1    1    2    0  502  0.31071636267E+02  0.22893358495E+02 -0.30021052656E+03  0.30268120639E+03  0.00000000000E+00 0. -1.
<mgrwt>
<rscale>  1 0.30000000E+03</rscale>
<asrwt>0</asrwt>
<pdfrwt beam="1">  1       21 0.65054623E-02 0.30000000E+03</pdfrwt>
<pdfrwt beam="2">0</pdfrwt>
<totfact> 0.18323376E+04</totfact>
</mgrwt>
</event>
<event>
 6    1  0.1270461E-001  0.3000000E+03  0.7818608E-02  0.1093470E+00
         21   -1    0    0  501  502  0.00000000000E+00  0.00000000000E+00  0.38410660288E+02  0.38410660288E+02  0.00000000000E+00 0. -1.
         13   -1    0    0    0    0 -0.00000000000E+00 -0.00000000000E+00 -0.10000000000E+04  0.10000000000E+04  0.00000000000E+00 0.  1.
    9000005    2    1    2  501    0  0.60983297133E+02  0.43017783368E+02 -0.96086748094E+03  0.96377813859E+03  0.57002000759E+01 0.  0.
         13    1    3    3    0    0  0.32766038427E+01  0.30795755700E+01 -0.44195020522E+02  0.44423189410E+02  0.00000000000E+00 0.  1.
          1    1    3    3  501    0  0.57706693290E+02  0.39938207798E+02 -0.91667246042E+03  0.91935494918E+03  0.00000000000E+00 0.  1.
         -1    1    1    2    0  502 -0.60983297133E+02 -0.43017783368E+02 -0.72185877322E+00  0.74632521699E+02  0.00000000000E+00 0. -1.
<mgrwt>
<rscale>  1 0.30000000E+03</rscale>
<asrwt>0</asrwt>
<pdfrwt beam="1">  1       21 0.13967542E+00 0.30000000E+03</pdfrwt>
<pdfrwt beam="2">0</pdfrwt>
<totfact> 0.29553587E+01</totfact>
</mgrwt>
</event>
<event>
 6    1  0.1270461E-001  0.3000000E+03  0.7818608E-02  0.1093470E+00
         21   -1    0    0  501  502  0.00000000000E+00  0.00000000000E+00  0.23273930761E+01  0.23273930761E+01  0.00000000000E+00 0. -1.
         13   -1    0    0    0    0 -0.00000000000E+00 -0.00000000000E+00 -0.10000000000E+04  0.10000000000E+04  0.00000000000E+00 0.  1.
    9000005    2    1    2  501    0 -0.13002927774E+02 -0.44825071828E+02 -0.62360547580E+03  0.62535977937E+03  0.35638480047E+01 0.  0.
         13    1    3    3    0    0 -0.96812690440E+01 -0.29896825026E+02 -0.43726811756E+03  0.43839588702E+03  0.00000000000E+00 0.  1.
          1    1    3    3  501    0 -0.33216587301E+01 -0.14928246802E+02 -0.18633735823E+03  0.18696389235E+03  0.00000000000E+00 0.  1.
         -1    1    1    2    0  502  0.13002927774E+02  0.44825071828E+02 -0.37406713113E+03  0.37696761371E+03  0.00000000000E+00 0. -1.
<mgrwt>
<rscale>  1 0.30000000E+03</rscale>
<asrwt>0</asrwt>
<pdfrwt beam="1">  1       21 0.84632654E-02 0.30000000E+03</pdfrwt>
<pdfrwt beam="2">0</pdfrwt>
<totfact> 0.11569269E+04</totfact>
</mgrwt>
</event>
<event>
 6    1  0.1270461E-001  0.3000000E+03  0.7818608E-02  0.1093470E+00
         21   -1    0    0  501  502  0.00000000000E+00  0.00000000000E+00  0.98162818711E+00  0.98162818711E+00  0.00000000000E+00 0. -1.
         13   -1    0    0    0    0 -0.00000000000E+00 -0.00000000000E+00 -0.10000000000E+04  0.10000000000E+04  0.00000000000E+00 0.  1.
    9000005    2    1    2  501    0  0.30793288523E+02 -0.23819604371E+01 -0.46343188107E+03  0.46450535712E+03  0.64975415360E+01 0.  0.
         13    1    3    3    0    0 -0.16662779205E-01  0.58110365705E+00 -0.62819077648E+01  0.63087498186E+01  0.00000000000E+00 0.  1.
          1    1    3    3  501    0  0.30809951302E+02 -0.29630640942E+01 -0.45714997331E+03  0.45819660730E+03  0.00000000000E+00 0.  1.
         -1    1    1    2    0  502 -0.30793288523E+02  0.23819604371E+01 -0.53558649074E+03  0.53647627107E+03  0.00000000000E+00 0. -1.
<mgrwt>
<rscale>  1 0.30000000E+03</rscale>
<asrwt>0</asrwt>
<pdfrwt beam="1">  1       21 0.35695646E-02 0.30000000E+03</pdfrwt>
<pdfrwt beam="2">0</pdfrwt>
<totfact> 0.50909925E+04</totfact>
</mgrwt>
</event>
<event>
 6    1  0.1270461E-001  0.3000000E+03  0.7818608E-02  0.1093470E+00
         21   -1    0    0  501  502  0.00000000000E+00  0.00000000000E+00  0.13130475291E+01  0.13130475291E+01  0.00000000000E+00 0. -1.
         13   -1    0    0    0    0 -0.00000000000E+00 -0.00000000000E+00 -0.10000000000E+04  0.10000000000E+04  0.00000000000E+00 0.  1.
    9000005    2    1    2  501    0 -0.16130634572E+02 -0.32283469339E+02 -0.46797671046E+03  0.46937716724E+03  0.32099577240E+01 0.  0.
         13    1    3    3    0    0 -0.11771889514E+01 -0.48001895694E+01 -0.62570562550E+02  0.62765459383E+02  0.00000000000E+00 0.  1.
          3    1    3    3  501    0 -0.14953445620E+02 -0.27483279769E+02 -0.40540614791E+03  0.40661170786E+03  0.00000000000E+00 0.  1.
         -1    1    1    2    0  502  0.16130634572E+02  0.32283469339E+02 -0.53071024201E+03  0.53193588029E+03  0.00000000000E+00 0. -1.
<mgrwt>
<rscale>  1 0.30000000E+03</rscale>
<asrwt>0</asrwt>
<pdfrwt beam="1">  1       21 0.47747284E-02 0.30000000E+03</pdfrwt>
<pdfrwt beam="2">0</pdfrwt>
<totfact> 0.31157128E+04</totfact>
</mgrwt>
</event>
<event>
 6    1  0.1270461E-001  0.3000000E+03  0.7818608E-02  0.1093470E+00
         21   -1    0    0  501  502  0.00000000000E+00  0.00000000000E+00  0.16208104480E+01  0.16208104480E+01  0.00000000000E+00 0. -1.
         13   -1    0    0    0    0 -0.00000000000E+00 -0.00000000000E+00 -0.10000000000E+04  0.10000000000E+04  0.00000000000E+00 0.  1.
    9000005    2    1    2  501    0  0.15773342604E+02  0.34152304857E+02 -0.66488029431E+03  0.66600690819E+03  0.91770216213E+01 0.  0.
         13    1    3    3    0    0  0.10158971080E+02  0.15957769530E+02 -0.39721535780E+03  0.39766555744E+03  0.00000000000E+00 0.  1.
          3    1    3    3  501    0  0.56143715233E+01  0.18194535327E+02 -0.26766493651E+03  0.26834135074E+03  0.00000000000E+00 0.  1.
         -3    1    1    2    0  502 -0.15773342604E+02 -0.34152304857E+02 -0.33349889524E+03  0.33561390226E+03  0.00000000000E+00 0. -1.
<mgrwt>
<rscale>  1 0.30000000E+03</rscale>
<asrwt>0</asrwt>
<pdfrwt beam="1">  1       21 0.58938686E-02 0.30000000E+03</pdfrwt>
<pdfrwt beam="2">0</pdfrwt>
<totfact> 0.21730096E+04</totfact>
</mgrwt>
</event>
<event>
 6    1  0.1270461E-001  0.3000000E+03  0.7818608E-02  0.1093470E+00
         21   -1    0    0  501  502  0.00000000000E+00  0.00000000000E+00  0.15946515394E+01  0.15946515394E+01  0.00000000000E+00 0. -1.
         13   -1    0    0    0    0 -0.00000000000E+00 -0.00000000000E+00 -0.10000000000E+04  0.10000000000E+04  0.00000000000E+00 0.  1.
    9000005    2    1    2  501    0 -0.16836106450E+02  0.34407719989E+02 -0.63455918790E+03  0.63573761084E+03  0.54406995859E+01 0.  0.
         13    1    3    3    0    0 -0.51994910136E+01  0.16649288872E+02 -0.29551350032E+03  0.29602780680E+03  0.00000000000E+00 0.  1.
          3    1    3    3  501    0 -0.11636615436E+02  0.17758431117E+02 -0.33904568758E+03  0.33970980404E+03  0.00000000000E+00 0.  1.
         -3    1    1    2    0  502  0.16836106450E+02 -0.34407719989E+02 -0.36384616056E+03  0.36585704070E+03  0.00000000000E+00 0. -1.
<mgrwt>
<rscale>  1 0.30000000E+03</rscale>
<asrwt>0</asrwt>
<pdfrwt beam="1">  1       21 0.57987451E-02 0.30000000E+03</pdfrwt>
<pdfrwt beam="2">0</pdfrwt>
<totfact> 0.22347899E+04</totfact>
</mgrwt>
</event>
<event>
 6    1  0.1270461E-001  0.3000000E+03  0.7818608E-02  0.1093470E+00
         21   -1    0    0  501  502  0.00000000000E+00  0.00000000000E+00  0.11157767995E+01  0.11157767995E+01  0.00000000000E+00 0. -1.
         13   -1    0    0    0    0 -0.00000000000E+00 -0.00000000000E+00 -0.10000000000E+04  0.10000000000E+04  0.00000000000E+00 0.  1.
    9000005    2    1    2  501    0 -0.58907510871E+01  0.32599538774E+02 -0.55598109147E+03  0.55697546679E+03  0.30439545819E+01 0.  0.
         13    1    3    3    0    0 -0.45289077900E+01  0.17791505570E+02 -0.29393659873E+03  0.29450937634E+03  0.00000000000E+00 0.  1.
          1    1    3    3  501    0 -0.13618432972E+01  0.14808033204E+02 -0.26204449273E+03  0.26246609045E+03  0.00000000000E+00 0.  1.
         -1    1    1    2    0  502  0.58907510871E+01 -0.32599538774E+02 -0.44290313173E+03  0.44414031001E+03  0.00000000000E+00 0. -1.
<mgrwt>
<rscale>  1 0.30000000E+03</rscale>
<asrwt>0</asrwt>
<pdfrwt beam="1">  1       21 0.40573787E-02 0.30000000E+03</pdfrwt>
<pdfrwt beam="2">0</pdfrwt>
<totfact> 0.41050444E+04</totfact>
</mgrwt>
</event>
<event>
 6    1  0.1270461E-001  0.3000000E+03  0.7818608E-02  0.1093470E+00
         21   -1    0    0  501  502  0.00000000000E+00  0.00000000000E+00  0.32869308256E+01  0.32869308256E+01  0.00000000000E+00 0. -1.
         13   -1    0    0    0    0 -0.00000000000E+00 -0.00000000000E+00 -0.10000000000E+04  0.10000000000E+04  0.00000000000E+00 0.  1.
    9000005    2    1    2  501    0 -0.27754977681E+02  0.21043561514E+02 -0.89673994547E+03  0.89742005343E+03  0.26556018490E+01 0.  0.
         13    1    3    3    0    0 -0.71043844397E+00  0.46819777310E+00 -0.13613321593E+02  0.13639884777E+02  0.00000000000E+00 0.  1.
          1    1    3    3  501    0 -0.27044539237E+02  0.20575363741E+02 -0.88312662388E+03  0.88378016865E+03  0.00000000000E+00 0.  1.
         -3    1    1    2    0  502  0.27754977681E+02 -0.21043561514E+02 -0.99973123704E+02  0.10586687740E+03  0.00000000000E+00 0. -1.
<mgrwt>
<rscale>  1 0.30000000E+03</rscale>
<asrwt>0</asrwt>
<pdfrwt beam="1">  1       21 0.11952501E-01 0.30000000E+03</pdfrwt>
<pdfrwt beam="2">0</pdfrwt>
<totfact> 0.62418785E+03</totfact>
</mgrwt>
</event>
<event>
 6    1  0.1270461E-001  0.3000000E+03  0.7818608E-02  0.1093470E+00
         21   -1    0    0  501  502  0.00000000000E+00  0.00000000000E+00  0.23070080926E+01  0.23070080926E+01  0.00000000000E+00 0. -1.
         13   -1    0    0    0    0 -0.00000000000E+00 -0.00000000000E+00 -0.10000000000E+04  0.10000000000E+04  0.00000000000E+00 0.  1.
    9000005    2    1    2  501    0 -0.21523191815E+02 -0.27999805730E+02 -0.83765177992E+03  0.83841549995E+03  0.57279356287E+01 0.  0.
         13    1    3    3    0    0 -0.42088795927E+01 -0.88402010611E+01 -0.26770183200E+03  0.26788082178E+03  0.00000000000E+00 0.  1.
          1    1    3    3  501    0 -0.17314312222E+02 -0.19159604669E+02 -0.56994994793E+03  0.57053467817E+03  0.00000000000E+00 0.  1.
         -3    1    1    2    0  502  0.21523191815E+02  0.27999805730E+02 -0.16004121198E+03  0.16389150814E+03  0.00000000000E+00 0. -1.
<mgrwt>
<rscale>  1 0.30000000E+03</rscale>
<asrwt>0</asrwt>
<pdfrwt beam="1">  1       21 0.83891380E-02 0.30000000E+03</pdfrwt>
<pdfrwt beam="2">0</pdfrwt>
<totfact> 0.11750028E+04</totfact>
</mgrwt>
</event>
<event>
 6    1  0.1270461E-001  0.3000000E+03  0.7818608E-02  0.1093470E+00
         21   -1    0    0  501  502  0.00000000000E+00  0.00000000000E+00  0.75531929913E+01  0.75531929913E+01  0.00000000000E+00 0. -1.
         13   -1    0    0    0    0 -0.00000000000E+00 -0.00000000000E+00 -0.10000000000E+04  0.10000000000E+04  0.00000000000E+00 0.  1.
    9000005    2    1    2  501    0  0.21645808974E+02 -0.78731917705E+02 -0.66856333212E+03  0.67353558684E+03  0.24498522165E+01 0.  0.
         13    1    3    3    0    0  0.14418100006E+02 -0.54183685941E+02 -0.46752000261E+03  0.47087015861E+03  0.00000000000E+00 0.  1.
          1    1    3    3  501    0  0.72277089682E+01 -0.24548231764E+02 -0.20104332950E+03  0.20266542822E+03  0.00000000000E+00 0.  1.
         -3    1    1    2    0  502 -0.21645808974E+02  0.78731917705E+02 -0.32388347489E+03  0.33401760615E+03  0.00000000000E+00 0. -1.
<mgrwt>
<rscale>  1 0.30000000E+03</rscale>
<asrwt>0</asrwt>
<pdfrwt beam="1">  1       21 0.27466214E-01 0.30000000E+03</pdfrwt>
<pdfrwt beam="2">0</pdfrwt>
<totfact> 0.12958720E+03</totfact>
</mgrwt>
</event>
<event>
 6    1  0.1270461E-001  0.3000000E+03  0.7818608E-02  0.1093470E+00
         21   -1    0    0  501  502  0.00000000000E+00  0.00000000000E+00  0.72482698234E+01  0.72482698234E+01  0.00000000000E+00 0. -1.
         13   -1    0    0    0    0 -0.00000000000E+00 -0.00000000000E+00 -0.10000000000E+04  0.10000000000E+04  0.00000000000E+00 0.  1.
    9000005    2    1    2  501    0  0.43260836447E+02 -0.61418873697E+02 -0.73309235773E+03  0.73693961714E+03  0.34374891735E+01 0.  0.
         13    1    3    3    0    0  0.23362284836E+02 -0.30839994734E+02 -0.38782404736E+03  0.38974914155E+03  0.00000000000E+00 0.  1.
          3    1    3    3  501    0  0.19898551611E+02 -0.30578878963E+02 -0.34526831038E+03  0.34719047560E+03  0.00000000000E+00 0.  1.
         -3    1    1    2    0  502 -0.43260836447E+02  0.61418873697E+02 -0.25965937244E+03  0.27030865268E+03  0.00000000000E+00 0. -1.
<mgrwt>
<rscale>  1 0.30000000E+03</rscale>
<asrwt>0</asrwt>
<pdfrwt beam="1">  1       21 0.26357400E-01 0.30000000E+03</pdfrwt>
<pdfrwt beam="2">0</pdfrwt>
<totfact> 0.14057119E+03</totfact>
</mgrwt>
</event>
<event>
 6    1  0.1270461E-001  0.3000000E+03  0.7818608E-02  0.1093470E+00
         21   -1    0    0  501  502  0.00000000000E+00  0.00000000000E+00  0.52957420932E+01  0.52957420932E+01  0.00000000000E+00 0. -1.
         13   -1    0    0    0    0 -0.00000000000E+00 -0.00000000000E+00 -0.10000000000E+04  0.10000000000E+04  0.00000000000E+00 0.  1.
    9000005    2    1    2  501    0  0.64766049550E+02 -0.21171784622E+02 -0.67344886631E+03  0.67689368323E+03  0.29660104982E+01 0.  0.
         13    1    3    3    0    0  0.17561882395E+02 -0.43701728095E+01 -0.17997571117E+03  0.18088331801E+03  0.00000000000E+00 0.  1.
          1    1    3    3  501    0  0.47204167155E+02 -0.16801611812E+02 -0.49347315514E+03  0.49601036522E+03  0.00000000000E+00 0.  1.
         -3    1    1    2    0  502 -0.64766049550E+02  0.21171784622E+02 -0.32125539159E+03  0.32840205886E+03  0.00000000000E+00 0. -1.
<mgrwt>
<rscale>  1 0.30000000E+03</rscale>
<asrwt>0</asrwt>
<pdfrwt beam="1">  1       21 0.19257285E-01 0.30000000E+03</pdfrwt>
<pdfrwt beam="2">0</pdfrwt>
<totfact> 0.25784499E+03</totfact>
</mgrwt>
</event>
<event>
 6    1  0.1270461E-001  0.3000000E+03  0.7818608E-02  0.1093470E+00
         21   -1    0    0  501  502  0.00000000000E+00  0.00000000000E+00  0.18390300690E+01  0.18390300690E+01  0.00000000000E+00 0. -1.
         13   -1    0    0    0    0 -0.00000000000E+00 -0.00000000000E+00 -0.10000000000E+04  0.10000000000E+04  0.00000000000E+00 0.  1.
    9000005    2    1    2  501    0  0.30452420076E+02  0.15314261149E+00 -0.85143406039E+03  0.85198523691E+03  0.33928419822E+01 0.  0.
         13    1    3    3    0    0  0.23045044060E+02  0.98040218090E+00 -0.67443207516E+03  0.67482639193E+03  0.00000000000E+00 0.  1.
          1    1    3    3  501    0  0.74073760153E+01 -0.82725956941E+00 -0.17700198523E+03  0.17715884498E+03  0.00000000000E+00 0.  1.
         -3    1    1    2    0  502 -0.30452420076E+02 -0.15314261149E+00 -0.14672690954E+03  0.14985379316E+03  0.00000000000E+00 0. -1.
<mgrwt>
<rscale>  1 0.30000000E+03</rscale>
<asrwt>0</asrwt>
<pdfrwt beam="1">  1       21 0.66873962E-02 0.30000000E+03</pdfrwt>
<pdfrwt beam="2">0</pdfrwt>
<totfact> 0.17468141E+04</totfact>
</mgrwt>
</event>
<event>
 6    1  0.1270461E-001  0.3000000E+03  0.7818608E-02  0.1093470E+00
         21   -1    0    0  501  502  0.00000000000E+00  0.00000000000E+00  0.31500975655E+01  0.31500975655E+01  0.00000000000E+00 0. -1.
         13   -1    0    0    0    0 -0.00000000000E+00 -0.00000000000E+00 -0.10000000000E+04  0.10000000000E+04  0.00000000000E+00 0.  1.
    9000005    2    1    2  501    0 -0.49413107398E+02  0.10790833408E+01 -0.73562628265E+03  0.73729186629E+03  0.32324554951E+01 0.  0.
         13    1    3    3    0    0 -0.45639800261E+02  0.16919366424E+01 -0.67077271877E+03  0.67232573524E+03  0.00000000000E+00 0.  1.
          3    1    3    3  501    0 -0.37733071366E+01 -0.61285330162E+00 -0.64853563883E+02  0.64966131055E+02  0.00000000000E+00 0.  1.
         -1    1    1    2    0  502  0.49413107398E+02 -0.10790833408E+01 -0.26122361978E+03  0.26585823127E+03  0.00000000000E+00 0. -1.
<mgrwt>
<rscale>  1 0.30000000E+03</rscale>
<asrwt>0</asrwt>
<pdfrwt beam="1">  1       21 0.11454924E-01 0.30000000E+03</pdfrwt>
<pdfrwt beam="2">0</pdfrwt>
<totfact> 0.67412039E+03</totfact>
</mgrwt>
</event>
<event>
 6    1  0.1270461E-001  0.3000000E+03  0.7818608E-02  0.1093470E+00
         21   -1    0    0  501  502  0.00000000000E+00  0.00000000000E+00  0.20827323389E+01  0.20827323389E+01  0.00000000000E+00 0. -1.
         13   -1    0    0    0    0 -0.00000000000E+00 -0.00000000000E+00 -0.10000000000E+04  0.10000000000E+04  0.00000000000E+00 0.  1.
    9000005    2    1    2  501    0  0.31857656995E+02  0.49348842402E+01 -0.85330504563E+03  0.85392080014E+03  0.34595701133E+01 0.  0.
         13    1    3    3    0    0  0.31010000648E+02  0.43929683008E+01 -0.83606620447E+03  0.83665262598E+03  0.00000000000E+00 0.  1.
          3    1    3    3  501    0  0.84765634669E+00  0.54191593934E+00 -0.17238841163E+02  0.17268174160E+02  0.00000000000E+00 0.  1.
         -1    1    1    2    0  502 -0.31857656995E+02 -0.49348842402E+01 -0.14461222203E+03  0.14816193220E+03  0.00000000000E+00 0. -1.
<mgrwt>
<rscale>  1 0.30000000E+03</rscale>
<asrwt>0</asrwt>
<pdfrwt beam="1">  1       21 0.75735881E-02 0.30000000E+03</pdfrwt>
<pdfrwt beam="2">0</pdfrwt>
<totfact> 0.14061951E+04</totfact>
</mgrwt>
</event>
<event>
 6    1  0.1270461E-001  0.3000000E+03  0.7818608E-02  0.1093470E+00
         21   -1    0    0  501  502  0.00000000000E+00  0.00000000000E+00  0.13705793246E+01  0.13705793246E+01  0.00000000000E+00 0. -1.
         13   -1    0    0    0    0 -0.00000000000E+00 -0.00000000000E+00 -0.10000000000E+04  0.10000000000E+04  0.00000000000E+00 0.  1.
    9000005    2    1    2  501    0  0.19198119839E+02 -0.29836707533E+02 -0.35937964230E+03  0.36113696878E+03  0.27177189204E+01 0.  0.
         13    1    3    3    0    0  0.10043107354E+01 -0.12362430653E+01 -0.22482812469E+02  0.22539161331E+02  0.00000000000E+00 0.  1.
          3    1    3    3  501    0  0.18193809103E+02 -0.28600464467E+02 -0.33689682983E+03  0.33859780744E+03  0.00000000000E+00 0.  1.
         -1    1    1    2    0  502 -0.19198119839E+02  0.29836707533E+02 -0.63924977838E+03  0.64023361055E+03  0.00000000000E+00 0. -1.
<mgrwt>
<rscale>  1 0.30000000E+03</rscale>
<asrwt>0</asrwt>
<pdfrwt beam="1">  1       21 0.49839353E-02 0.30000000E+03</pdfrwt>
<pdfrwt beam="2">0</pdfrwt>
<totfact> 0.28963099E+04</totfact>
</mgrwt>
</event>
<event>
 6    1  0.1270461E-001  0.3000000E+03  0.7818608E-02  0.1093470E+00
         21   -1    0    0  501  502  0.00000000000E+00  0.00000000000E+00  0.22572477564E+01  0.22572477564E+01  0.00000000000E+00 0. -1.
         13   -1    0    0    0    0 -0.00000000000E+00 -0.00000000000E+00 -0.10000000000E+04  0.10000000000E+04  0.00000000000E+00 0.  1.
    9000005    2    1    2  501    0  0.20685946945E+02 -0.41172989458E+02 -0.61697473239E+03  0.61871141164E+03  0.47819472058E+01 0.  0.
         13    1    3    3    0    0  0.14029343568E+02 -0.32156382523E+02 -0.47748020560E+03  0.47876737792E+03  0.00000000000E+00 0.  1.
          1    1    3    3  501    0  0.66566033768E+01 -0.90166069351E+01 -0.13949452679E+03  0.13994403372E+03  0.00000000000E+00 0.  1.
         -1    1    1    2    0  502 -0.20685946945E+02  0.41172989458E+02 -0.38076801985E+03  0.38354583612E+03  0.00000000000E+00 0. -1.
<mgrwt>
<rscale>  1 0.30000000E+03</rscale>
<asrwt>0</asrwt>
<pdfrwt beam="1">  1       21 0.82081910E-02 0.30000000E+03</pdfrwt>
<pdfrwt beam="2">0</pdfrwt>
<totfact> 0.12209839E+04</totfact>
</mgrwt>
</event>
<event>
 6    1  0.1270461E-001  0.3000000E+03  0.7818608E-02  0.1093470E+00
         21   -1    0    0  501  502  0.00000000000E+00  0.00000000000E+00  0.36758247583E+01  0.36758247583E+01  0.00000000000E+00 0. -1.
         13   -1    0    0    0    0 -0.00000000000E+00 -0.00000000000E+00 -0.10000000000E+04  0.10000000000E+04  0.00000000000E+00 0.  1.
    9000005    2    1    2  501    0 -0.15024536527E+02  0.32050129183E+02 -0.90550306739E+03  0.90620059145E+03  0.32801523827E+01 0.  0.
         13    1    3    3    0    0 -0.89351744033E+01  0.16652216755E+02 -0.44989392219E+03  0.45029065601E+03  0.00000000000E+00 0.  1.
          3    1    3    3  501    0 -0.60893621238E+01  0.15397912427E+02 -0.45560914520E+03  0.45590993543E+03  0.00000000000E+00 0.  1.
         -3    1    1    2    0  502  0.15024536527E+02 -0.32050129183E+02 -0.90821107848E+02  0.97475233312E+02  0.00000000000E+00 0. -1.
<mgrwt>
<rscale>  1 0.30000000E+03</rscale>
<asrwt>0</asrwt>
<pdfrwt beam="1">  1       21 0.13366664E-01 0.30000000E+03</pdfrwt>
<pdfrwt beam="2">0</pdfrwt>
<totfact> 0.50909763E+03</totfact>
</mgrwt>
</event>
<event>
 6    1  0.1270461E-001  0.3000000E+03  0.7818608E-02  0.1093470E+00
         21   -1    0    0  501  502  0.00000000000E+00  0.00000000000E+00  0.12844077015E+01  0.12844077015E+01  0.00000000000E+00 0. -1.
         13   -1    0    0    0    0 -0.00000000000E+00 -0.00000000000E+00 -0.10000000000E+04  0.10000000000E+04  0.00000000000E+00 0.  1.
    9000005    2    1    2  501    0 -0.18506393826E+02 -0.24202413965E+02 -0.76217864452E+03  0.76279337827E+03  0.30345211321E+01 0.  0.
         13    1    3    3    0    0 -0.27287381766E+01 -0.43515553241E+01 -0.15619913729E+03  0.15628356451E+03  0.00000000000E+00 0.  1.
          3    1    3    3  501    0 -0.15777655650E+02 -0.19850858641E+02 -0.60597950723E+03  0.60650981376E+03  0.00000000000E+00 0.  1.
         -1    1    1    2    0  502  0.18506393826E+02  0.24202413965E+02 -0.23653694778E+03  0.23849102943E+03  0.00000000000E+00 0. -1.
<mgrwt>
<rscale>  1 0.30000000E+03</rscale>
<asrwt>0</asrwt>
<pdfrwt beam="1">  1       21 0.46705833E-02 0.30000000E+03</pdfrwt>
<pdfrwt beam="2">0</pdfrwt>
<totfact> 0.32347768E+04</totfact>
</mgrwt>
</event>
<event>
 6    1  0.1270461E-001  0.3000000E+03  0.7818608E-02  0.1093470E+00
         21   -1    0    0  501  502  0.00000000000E+00  0.00000000000E+00  0.20283343015E+01  0.20283343015E+01  0.00000000000E+00 0. -1.
         13   -1    0    0    0    0 -0.00000000000E+00 -0.00000000000E+00 -0.10000000000E+04  0.10000000000E+04  0.00000000000E+00 0.  1.
    9000005    2    1    2  501    0  0.46696799896E+01  0.41021559950E+02 -0.69831936522E+03  0.69954515217E+03  0.29849267192E+01 0.  0.
         13    1    3    3    0    0  0.42726194136E+01  0.39814167358E+02 -0.68319902815E+03  0.68437148923E+03  0.00000000000E+00 0.  1.
          1    1    3    3  501    0  0.39706057596E+00  0.12073925919E+01 -0.15120337069E+02  0.15173662941E+02  0.00000000000E+00 0.  1.
         -1    1    1    2    0  502 -0.46696799896E+01 -0.41021559950E+02 -0.29965230048E+03  0.30248318213E+03  0.00000000000E+00 0. -1.
<mgrwt>
<rscale>  1 0.30000000E+03</rscale>
<asrwt>0</asrwt>
<pdfrwt beam="1">  1       21 0.73757766E-02 0.30000000E+03</pdfrwt>
<pdfrwt beam="2">0</pdfrwt>
<totfact> 0.14728700E+04</totfact>
</mgrwt>
</event>
<event>
 6    1  0.1270461E-001  0.3000000E+03  0.7818608E-02  0.1093470E+00
         21   -1    0    0  501  502  0.00000000000E+00  0.00000000000E+00  0.48146784248E+01  0.48146784248E+01  0.00000000000E+00 0. -1.
         13   -1    0    0    0    0 -0.00000000000E+00 -0.00000000000E+00 -0.10000000000E+04  0.10000000000E+04  0.00000000000E+00 0.  1.
    9000005    2    1    2  501    0 -0.25133768267E+02 -0.17759962861E+02 -0.94784720319E+03  0.94835212411E+03  0.32106244295E+01 0.  0.
         13    1    3    3    0    0 -0.43783318405E+01 -0.20325887630E+01 -0.12589849082E+03  0.12599099649E+03  0.00000000000E+00 0.  1.
          3    1    3    3  501    0 -0.20755436427E+02 -0.15727374098E+02 -0.82194871237E+03  0.82236112761E+03  0.00000000000E+00 0.  1.
         -3    1    1    2    0  502  0.25133768267E+02  0.17759962861E+02 -0.47338118384E+02  0.56462554319E+02  0.00000000000E+00 0. -1.
<mgrwt>
<rscale>  1 0.30000000E+03</rscale>
<asrwt>0</asrwt>
<pdfrwt beam="1">  1       21 0.17507958E-01 0.30000000E+03</pdfrwt>
<pdfrwt beam="2">0</pdfrwt>
<totfact> 0.30863081E+03</totfact>
</mgrwt>
</event>
<event>
 6    1  0.1270461E-001  0.3000000E+03  0.7818608E-02  0.1093470E+00
         21   -1    0    0  501  502  0.00000000000E+00  0.00000000000E+00  0.13454792368E+01  0.13454792368E+01  0.00000000000E+00 0. -1.
         13   -1    0    0    0    0 -0.00000000000E+00 -0.00000000000E+00 -0.10000000000E+04  0.10000000000E+04  0.00000000000E+00 0.  1.
    9000005    2    1    2  501    0  0.15038148355E+02 -0.33236795492E+02 -0.45543561101E+03  0.45690299890E+03  0.28149863742E+01 0.  0.
         13    1    3    3    0    0  0.14882321541E+00 -0.68888287116E+00 -0.52988514220E+01  0.53455153496E+01  0.00000000000E+00 0.  1.
          3    1    3    3  501    0  0.14889325140E+02 -0.32547912621E+02 -0.45013675958E+03  0.45155748355E+03  0.00000000000E+00 0.  1.
         -1    1    1    2    0  502 -0.15038148355E+02  0.33236795492E+02 -0.54321890976E+03  0.54444248034E+03  0.00000000000E+00 0. -1.
<mgrwt>
<rscale>  1 0.30000000E+03</rscale>
<asrwt>0</asrwt>
<pdfrwt beam="1">  1       21 0.48926621E-02 0.30000000E+03</pdfrwt>
<pdfrwt beam="2">0</pdfrwt>
<totfact> 0.29889663E+04</totfact>
</mgrwt>
</event>
<event>
 6    1  0.1270461E-001  0.3000000E+03  0.7818608E-02  0.1093470E+00
         21   -1    0    0  501  502  0.00000000000E+00  0.00000000000E+00  0.18313427936E+01  0.18313427936E+01  0.00000000000E+00 0. -1.
         13   -1    0    0    0    0 -0.00000000000E+00 -0.00000000000E+00 -0.10000000000E+04  0.10000000000E+04  0.00000000000E+00 0.  1.
    9000005    2    1    2  501    0 -0.33410080173E+02  0.11534410199E+02 -0.21891248654E+03  0.22177400157E+03  0.34285468108E+01 0.  0.
         13    1    3    3    0    0 -0.10121729772E+02  0.35908491497E+01 -0.57076085984E+02  0.58077734137E+02  0.00000000000E+00 0.  1.
          3    1    3    3  501    0 -0.23288350401E+02  0.79435610493E+01 -0.16183640055E+03  0.16369626743E+03  0.00000000000E+00 0.  1.
         -1    1    1    2    0  502  0.33410080173E+02 -0.11534410199E+02 -0.77925617067E+03  0.78005734123E+03  0.00000000000E+00 0. -1.
<mgrwt>
<rscale>  1 0.30000000E+03</rscale>
<asrwt>0</asrwt>
<pdfrwt beam="1">  1       21 0.66594424E-02 0.30000000E+03</pdfrwt>
<pdfrwt beam="2">0</pdfrwt>
<totfact> 0.17595499E+04</totfact>
</mgrwt>
</event>
<event>
 6    1  0.1270461E-001  0.3000000E+03  0.7818608E-02  0.1093470E+00
         21   -1    0    0  501  502  0.00000000000E+00  0.00000000000E+00  0.16208158286E+01  0.16208158286E+01  0.00000000000E+00 0. -1.
         13   -1    0    0    0    0 -0.00000000000E+00 -0.00000000000E+00 -0.10000000000E+04  0.10000000000E+04  0.00000000000E+00 0.  1.
    9000005    2    1    2  501    0 -0.25641292217E+02 -0.17592466897E+02 -0.81620754935E+03  0.81681422696E+03  0.48730873160E+01 0.  0.
         13    1    3    3    0    0 -0.84805716278E+01 -0.78852711145E+01 -0.26112779930E+03  0.26138443940E+03  0.00000000000E+00 0.  1.
          3    1    3    3  501    0 -0.17160720589E+02 -0.97071957821E+01 -0.55507975005E+03  0.55542978755E+03  0.00000000000E+00 0.  1.
         -3    1    1    2    0  502  0.25641292217E+02  0.17592466897E+02 -0.18217163482E+03  0.18480658887E+03  0.00000000000E+00 0. -1.
<mgrwt>
<rscale>  1 0.30000000E+03</rscale>
<asrwt>0</asrwt>
<pdfrwt beam="1">  1       21 0.58938882E-02 0.30000000E+03</pdfrwt>
<pdfrwt beam="2">0</pdfrwt>
<totfact> 0.21729971E+04</totfact>
</mgrwt>
</event>
<event>
 6    1  0.1270461E-001  0.3000000E+03  0.7818608E-02  0.1093470E+00
         21   -1    0    0  501  502  0.00000000000E+00  0.00000000000E+00  0.14094705362E+01  0.14094705362E+01  0.00000000000E+00 0. -1.
         13   -1    0    0    0    0 -0.00000000000E+00 -0.00000000000E+00 -0.10000000000E+04  0.10000000000E+04  0.00000000000E+00 0.  1.
    9000005    2    1    2  501    0  0.32386931833E+02 -0.86374048511E+01 -0.72362784404E+03  0.72441128193E+03  0.33061457886E+01 0.  0.
         13    1    3    3    0    0  0.29769269043E+02 -0.70862241770E+01 -0.66737940555E+03  0.66808060510E+03  0.00000000000E+00 0.  1.
          3    1    3    3  501    0  0.26176627903E+01 -0.15511806741E+01 -0.56248438491E+02  0.56330676834E+02  0.00000000000E+00 0.  1.
         -3    1    1    2    0  502 -0.32386931833E+02  0.86374048511E+01 -0.27496268542E+03  0.27699818860E+03  0.00000000000E+00 0. -1.
<mgrwt>
<rscale>  1 0.30000000E+03</rscale>
<asrwt>0</asrwt>
<pdfrwt beam="1">  1       21 0.51253582E-02 0.30000000E+03</pdfrwt>
<pdfrwt beam="2">0</pdfrwt>
<totfact> 0.27613285E+04</totfact>
</mgrwt>
</event>
<event>
 6    1  0.1270461E-001  0.3000000E+03  0.7818608E-02  0.1093470E+00
         21   -1    0    0  501  502  0.00000000000E+00  0.00000000000E+00  0.12700284535E+01  0.12700284535E+01  0.00000000000E+00 0. -1.
         13   -1    0    0    0    0 -0.00000000000E+00 -0.00000000000E+00 -0.10000000000E+04  0.10000000000E+04  0.00000000000E+00 0.  1.
    9000005    2    1    2  501    0  0.18986007339E+02  0.24654945290E+02 -0.73732230800E+03  0.73801672579E+03  0.74944560105E+01 0.  0.
         13    1    3    3    0    0  0.35368857166E+01  0.89079063694E+01 -0.17553586862E+03  0.17579733083E+03  0.00000000000E+00 0.  1.
          3    1    3    3  501    0  0.15449121622E+02  0.15747038921E+02 -0.56178643938E+03  0.56221939496E+03  0.00000000000E+00 0.  1.
         -3    1    1    2    0  502 -0.18986007339E+02 -0.24654945290E+02 -0.26140766355E+03  0.26325330267E+03  0.00000000000E+00 0. -1.
<mgrwt>
<rscale>  1 0.30000000E+03</rscale>
<asrwt>0</asrwt>
<pdfrwt beam="1">  1       21 0.46182950E-02 0.30000000E+03</pdfrwt>
<pdfrwt beam="2">0</pdfrwt>
<totfact> 0.32972661E+04</totfact>
</mgrwt>
</event>
<event>
 6    1  0.1270461E-001  0.3000000E+03  0.7818608E-02  0.1093470E+00
         21   -1    0    0  501  502  0.00000000000E+00  0.00000000000E+00  0.35875671839E+01  0.35875671839E+01  0.00000000000E+00 0. -1.
         13   -1    0    0    0    0 -0.00000000000E+00 -0.00000000000E+00 -0.10000000000E+04  0.10000000000E+04  0.00000000000E+00 0.  1.
    9000005    2    1    2  501    0 -0.20295069866E+02 -0.47622725610E+02 -0.75016985266E+03  0.75196240521E+03  0.35828978731E+01 0.  0.
         13    1    3    3    0    0 -0.53602376081E+01 -0.13154845670E+02 -0.22957776522E+03  0.23001680894E+03  0.00000000000E+00 0.  1.
          1    1    3    3  501    0 -0.14934832258E+02 -0.34467879940E+02 -0.52059208743E+03  0.52194559627E+03  0.00000000000E+00 0.  1.
         -3    1    1    2    0  502  0.20295069866E+02  0.47622725610E+02 -0.24624258016E+03  0.25162516197E+03  0.00000000000E+00 0. -1.
<mgrwt>
<rscale>  1 0.30000000E+03</rscale>
<asrwt>0</asrwt>
<pdfrwt beam="1">  1       21 0.13045726E-01 0.30000000E+03</pdfrwt>
<pdfrwt beam="2">0</pdfrwt>
<totfact> 0.53222837E+03</totfact>
</mgrwt>
</event>
<event>
 6    1  0.1270461E-001  0.3000000E+03  0.7818608E-02  0.1093470E+00
         21   -1    0    0  501  502  0.00000000000E+00  0.00000000000E+00  0.17739492073E+01  0.17739492073E+01  0.00000000000E+00 0. -1.
         13   -1    0    0    0    0 -0.00000000000E+00 -0.00000000000E+00 -0.10000000000E+04  0.10000000000E+04  0.00000000000E+00 0.  1.
    9000005    2    1    2  501    0 -0.40345249562E+02  0.10005810423E+02 -0.57595068980E+03  0.57745763335E+03  0.32040324765E+01 0.  0.
         13    1    3    3    0    0 -0.27363610949E+02  0.66099715464E+01 -0.36881770292E+03  0.36989046611E+03  0.00000000000E+00 0.  1.
          1    1    3    3  501    0 -0.12981638613E+02  0.33958388767E+01 -0.20713298688E+03  0.20756716724E+03  0.00000000000E+00 0.  1.
         -3    1    1    2    0  502  0.40345249562E+02 -0.10005810423E+02 -0.42227536099E+03  0.42431631586E+03  0.00000000000E+00 0. -1.
<mgrwt>
<rscale>  1 0.30000000E+03</rscale>
<asrwt>0</asrwt>
<pdfrwt beam="1">  1       21 0.64507380E-02 0.30000000E+03</pdfrwt>
<pdfrwt beam="2">0</pdfrwt>
<totfact> 0.18593293E+04</totfact>
</mgrwt>
</event>
<event>
 6    1  0.1270461E-001  0.3000000E+03  0.7818608E-02  0.1093470E+00
         21   -1    0    0  501  502  0.00000000000E+00  0.00000000000E+00  0.16383815621E+01  0.16383815621E+01  0.00000000000E+00 0. -1.
         13   -1    0    0    0    0 -0.00000000000E+00 -0.00000000000E+00 -0.10000000000E+04  0.10000000000E+04  0.00000000000E+00 0.  1.
    9000005    2    1    2  501    0  0.18747369813E+00  0.39866035069E+02 -0.58196542816E+03  0.58333810284E+03  0.32010555451E+01 0.  0.
         13    1    3    3    0    0  0.15236414244E+01  0.27163204330E+02 -0.38826222760E+03  0.38921423218E+03  0.00000000000E+00 0.  1.
          1    1    3    3  501    0 -0.13361677263E+01  0.12702830739E+02 -0.19370320056E+03  0.19412387066E+03  0.00000000000E+00 0.  1.
         -1    1    1    2    0  502 -0.18747369813E+00 -0.39866035069E+02 -0.41639619028E+03  0.41830027872E+03  0.00000000000E+00 0. -1.
<mgrwt>
<rscale>  1 0.30000000E+03</rscale>
<asrwt>0</asrwt>
<pdfrwt beam="1">  1       21 0.59577637E-02 0.30000000E+03</pdfrwt>
<pdfrwt beam="2">0</pdfrwt>
<totfact> 0.21329923E+04</totfact>
</mgrwt>
</event>
<event>
 6    1  0.1270461E-001  0.3000000E+03  0.7818608E-02  0.1093470E+00
         21   -1    0    0  501  502  0.00000000000E+00  0.00000000000E+00  0.39113118303E+01  0.39113118303E+01  0.00000000000E+00 0. -1.
         13   -1    0    0    0    0 -0.00000000000E+00 -0.00000000000E+00 -0.10000000000E+04  0.10000000000E+04  0.00000000000E+00 0.  1.
    9000005    2    1    2  501    0 -0.52590169257E+02  0.12623796509E+02 -0.74943735912E+03  0.75139999671E+03  0.45292022428E+01 0.  0.
         13    1    3    3    0    0 -0.19769731616E+02  0.70081347181E+01 -0.29168827159E+03  0.29244145401E+03  0.00000000000E+00 0.  1.
          3    1    3    3  501    0 -0.32820437641E+02  0.56156617905E+01 -0.45774908753E+03  0.45895854271E+03  0.00000000000E+00 0.  1.
         -3    1    1    2    0  502  0.52590169257E+02 -0.12623796509E+02 -0.24665132905E+03  0.25251131512E+03  0.00000000000E+00 0. -1.
<mgrwt>
<rscale>  1 0.30000000E+03</rscale>
<asrwt>0</asrwt>
<pdfrwt beam="1">  1       21 0.14222982E-01 0.30000000E+03</pdfrwt>
<pdfrwt beam="2">0</pdfrwt>
<totfact> 0.45427499E+03</totfact>
</mgrwt>
</event>
<event>
 6    1  0.1270461E-001  0.3000000E+03  0.7818608E-02  0.1093470E+00
         21   -1    0    0  501  502  0.00000000000E+00  0.00000000000E+00  0.33706581544E+01  0.33706581544E+01  0.00000000000E+00 0. -1.
         13   -1    0    0    0    0 -0.00000000000E+00 -0.00000000000E+00 -0.10000000000E+04  0.10000000000E+04  0.00000000000E+00 0.  1.
    9000005    2    1    2  501    0 -0.18171370524E+02 -0.27469648177E+02 -0.91136689172E+03  0.91196789190E+03  0.33232895696E+01 0.  0.
         13    1    3    3    0    0 -0.24007348111E+00  0.14576366572E-02 -0.13022541051E+02  0.13024753849E+02  0.00000000000E+00 0.  1.
          1    1    3    3  501    0 -0.17931297043E+02 -0.27471105814E+02 -0.89834435067E+03  0.89894313805E+03  0.00000000000E+00 0.  1.
         -1    1    1    2    0  502  0.18171370524E+02  0.27469648177E+02 -0.85262450126E+02  0.91402766256E+02  0.00000000000E+00 0. -1.
<mgrwt>
<rscale>  1 0.30000000E+03</rscale>
<asrwt>0</asrwt>
<pdfrwt beam="1">  1       21 0.12256965E-01 0.30000000E+03</pdfrwt>
<pdfrwt beam="2">0</pdfrwt>
<totfact> 0.59630523E+03</totfact>
</mgrwt>
</event>
<event>
 6    1  0.1270461E-001  0.3000000E+03  0.7818608E-02  0.1093470E+00
         21   -1    0    0  501  502  0.00000000000E+00  0.00000000000E+00  0.29778101504E+01  0.29778101504E+01  0.00000000000E+00 0. -1.
         13   -1    0    0    0    0 -0.00000000000E+00 -0.00000000000E+00 -0.10000000000E+04  0.10000000000E+04  0.00000000000E+00 0.  1.
    9000005    2    1    2  501    0  0.35973014474E+02 -0.16321384620E+02 -0.84430846859E+03  0.84523775174E+03  0.31018492052E+01 0.  0.
         13    1    3    3    0    0  0.24268172085E+02 -0.11686355294E+02 -0.54671069299E+03  0.54737381825E+03  0.00000000000E+00 0.  1.
          1    1    3    3  501    0  0.11704842388E+02 -0.46350293255E+01 -0.29759777559E+03  0.29786393348E+03  0.00000000000E+00 0.  1.
         -1    1    1    2    0  502 -0.35973014474E+02  0.16321384620E+02 -0.15271372126E+03  0.15774005841E+03  0.00000000000E+00 0. -1.
<mgrwt>
<rscale>  1 0.30000000E+03</rscale>
<asrwt>0</asrwt>
<pdfrwt beam="1">  1       21 0.10828423E-01 0.30000000E+03</pdfrwt>
<pdfrwt beam="2">0</pdfrwt>
<totfact> 0.74599265E+03</totfact>
</mgrwt>
</event>
<event>
 6    1  0.1270461E-001  0.3000000E+03  0.7818608E-02  0.1093470E+00
         21   -1    0    0  501  502  0.00000000000E+00  0.00000000000E+00  0.30714172994E+01  0.30714172994E+01  0.00000000000E+00 0. -1.
         13   -1    0    0    0    0 -0.00000000000E+00 -0.00000000000E+00 -0.10000000000E+04  0.10000000000E+04  0.00000000000E+00 0.  1.
    9000005    2    1    2  501    0  0.17527465900E+02 -0.24413868541E+02 -0.91977079067E+03  0.92026698560E+03  0.31254404330E+01 0.  0.
         13    1    3    3    0    0  0.10458286573E+01 -0.20076147148E+01 -0.49374851433E+02  0.49426715736E+02  0.00000000000E+00 0.  1.
          1    1    3    3  501    0  0.16481637243E+02 -0.22406253826E+02 -0.87039593924E+03  0.87084026986E+03  0.00000000000E+00 0.  1.
         -1    1    1    2    0  502 -0.17527465900E+02  0.24413868541E+02 -0.77157792033E+02  0.82804431701E+02  0.00000000000E+00 0. -1.
<mgrwt>
<rscale>  1 0.30000000E+03</rscale>
<asrwt>0</asrwt>
<pdfrwt beam="1">  1       21 0.11168814E-01 0.30000000E+03</pdfrwt>
<pdfrwt beam="2">0</pdfrwt>
<totfact> 0.70558792E+03</totfact>
</mgrwt>
</event>
<event>
 6    1  0.1270461E-001  0.3000000E+03  0.7818608E-02  0.1093470E+00
         21   -1    0    0  501  502  0.00000000000E+00  0.00000000000E+00  0.37780488845E+01  0.37780488845E+01  0.00000000000E+00 0. -1.
         13   -1    0    0    0    0 -0.00000000000E+00 -0.00000000000E+00 -0.10000000000E+04  0.10000000000E+04  0.00000000000E+00 0.  1.
    9000005    2    1    2  501    0  0.53930637992E+02 -0.15785930368E+02 -0.70096952922E+03  0.70322572075E+03  0.32286402581E+01 0.  0.
         13    1    3    3    0    0  0.37349132985E+02 -0.10952771950E+02 -0.46646109164E+03  0.46808211989E+03  0.00000000000E+00 0.  1.
          3    1    3    3  501    0  0.16581505007E+02 -0.48331584186E+01 -0.23450843758E+03  0.23514360086E+03  0.00000000000E+00 0.  1.
         -1    1    1    2    0  502 -0.53930637992E+02  0.15785930368E+02 -0.29525242190E+03  0.30055232814E+03  0.00000000000E+00 0. -1.
<mgrwt>
<rscale>  1 0.30000000E+03</rscale>
<asrwt>0</asrwt>
<pdfrwt beam="1">  1       21 0.13738389E-01 0.30000000E+03</pdfrwt>
<pdfrwt beam="2">0</pdfrwt>
<totfact> 0.48414589E+03</totfact>
</mgrwt>
</event>
<event>
 6    1  0.1270461E-001  0.3000000E+03  0.7818608E-02  0.1093470E+00
         21   -1    0    0  501  502  0.00000000000E+00  0.00000000000E+00  0.13762843118E+01  0.13762843118E+01  0.00000000000E+00 0. -1.
         13   -1    0    0    0    0 -0.00000000000E+00 -0.00000000000E+00 -0.10000000000E+04  0.10000000000E+04  0.00000000000E+00 0.  1.
    9000005    2    1    2  501    0  0.15475196160E+02 -0.27769055803E+02 -0.75639329319E+03  0.75706873277E+03  0.34132096088E+01 0.  0.
         13    1    3    3    0    0  0.71676241742E+01 -0.98221370465E+01 -0.27053970293E+03  0.27081281372E+03  0.00000000000E+00 0.  1.
          3    1    3    3  501    0  0.83075719860E+01 -0.17946918756E+02 -0.48585359026E+03  0.48625591905E+03  0.00000000000E+00 0.  1.
         -3    1    1    2    0  502 -0.15475196160E+02  0.27769055803E+02 -0.24223042249E+03  0.24430755154E+03  0.00000000000E+00 0. -1.
<mgrwt>
<rscale>  1 0.30000000E+03</rscale>
<asrwt>0</asrwt>
<pdfrwt beam="1">  1       21 0.50046808E-02 0.30000000E+03</pdfrwt>
<pdfrwt beam="2">0</pdfrwt>
<totfact> 0.28758743E+04</totfact>
</mgrwt>
</event>
<event>
 6    1  0.1270461E-001  0.3000000E+03  0.7818608E-02  0.1093470E+00
         21   -1    0    0  501  502  0.00000000000E+00  0.00000000000E+00  0.12830921027E+01  0.12830921027E+01  0.00000000000E+00 0. -1.
         13   -1    0    0    0    0 -0.00000000000E+00 -0.00000000000E+00 -0.10000000000E+04  0.10000000000E+04  0.00000000000E+00 0.  1.
    9000005    2    1    2  501    0 -0.16184537682E+02 -0.29773538804E+02 -0.65933372567E+03  0.66021220907E+03  0.32857766961E+01 0.  0.
         13    1    3    3    0    0 -0.12338671883E+02 -0.22508197991E+02 -0.47052447959E+03  0.47122409498E+03  0.00000000000E+00 0.  1.
          3    1    3    3  501    0 -0.38458657986E+01 -0.72653408130E+01 -0.18880924608E+03  0.18898811409E+03  0.00000000000E+00 0.  1.
         -1    1    1    2    0  502  0.16184537682E+02  0.29773538804E+02 -0.33938318223E+03  0.34107088303E+03  0.00000000000E+00 0. -1.
<mgrwt>
<rscale>  1 0.30000000E+03</rscale>
<asrwt>0</asrwt>
<pdfrwt beam="1">  1       21 0.46657993E-02 0.30000000E+03</pdfrwt>
<pdfrwt beam="2">0</pdfrwt>
<totfact> 0.32404166E+04</totfact>
</mgrwt>
</event>
<event>
 6    1  0.1270461E-001  0.3000000E+03  0.7818608E-02  0.1093470E+00
         21   -1    0    0  501  502  0.00000000000E+00  0.00000000000E+00  0.93406937974E+00  0.93406937974E+00  0.00000000000E+00 0. -1.
         13   -1    0    0    0    0 -0.00000000000E+00 -0.00000000000E+00 -0.10000000000E+04  0.10000000000E+04  0.00000000000E+00 0.  1.
    9000005    2    1    2  501    0 -0.30013663468E+02  0.49021657137E+01 -0.48430799240E+03  0.48527857761E+03  0.40268062807E+01 0.  0.
         13    1    3    3    0    0 -0.18584673821E+02  0.10465476523E+01 -0.29209516409E+03  0.29268766671E+03  0.00000000000E+00 0.  1.
          1    1    3    3  501    0 -0.11428989647E+02  0.38556180614E+01 -0.19221282831E+03  0.19259091090E+03  0.00000000000E+00 0.  1.
         -1    1    1    2    0  502  0.30013663468E+02 -0.49021657137E+01 -0.51475793822E+03  0.51565549177E+03  0.00000000000E+00 0. -1.
<mgrwt>
<rscale>  1 0.30000000E+03</rscale>
<asrwt>0</asrwt>
<pdfrwt beam="1">  1       21 0.33966231E-02 0.30000000E+03</pdfrwt>
<pdfrwt beam="2">0</pdfrwt>
<totfact> 0.55322810E+04</totfact>
</mgrwt>
</event>
<event>
 6    1  0.1270461E-001  0.3000000E+03  0.7818608E-02  0.1093470E+00
         21   -1    0    0  501  502  0.00000000000E+00  0.00000000000E+00  0.13361288114E+01  0.13361288114E+01  0.00000000000E+00 0. -1.
         13   -1    0    0    0    0 -0.00000000000E+00 -0.00000000000E+00 -0.10000000000E+04  0.10000000000E+04  0.00000000000E+00 0.  1.
    9000005    2    1    2  501    0 -0.31235128175E+02  0.18834679668E+02 -0.51347657829E+03  0.51477977280E+03  0.31047762405E+01 0.  0.
         13    1    3    3    0    0 -0.22342537989E+02  0.13640625436E+02 -0.34814377150E+03  0.34912654053E+03  0.00000000000E+00 0.  1.
          1    1    3    3  501    0 -0.88925901858E+01  0.51940542323E+01 -0.16533280679E+03  0.16565323227E+03  0.00000000000E+00 0.  1.
         -1    1    1    2    0  502  0.31235128175E+02 -0.18834679668E+02 -0.48518729290E+03  0.48655635602E+03  0.00000000000E+00 0. -1.
<mgrwt>
<rscale>  1 0.30000000E+03</rscale>
<asrwt>0</asrwt>
<pdfrwt beam="1">  1       21 0.48586605E-02 0.30000000E+03</pdfrwt>
<pdfrwt beam="2">0</pdfrwt>
<totfact> 0.30246702E+04</totfact>
</mgrwt>
</event>
<event>
 6    1  0.1270461E-001  0.3000000E+03  0.7818608E-02  0.1093470E+00
         21   -1    0    0  501  502  0.00000000000E+00  0.00000000000E+00  0.22149357091E+01  0.22149357091E+01  0.00000000000E+00 0. -1.
         13   -1    0    0    0    0 -0.00000000000E+00 -0.00000000000E+00 -0.10000000000E+04  0.10000000000E+04  0.00000000000E+00 0.  1.
    9000005    2    1    2  501    0  0.33561846210E+02  0.81841861040E+01 -0.16027522259E+03  0.16399294043E+03  0.34869917577E+01 0.  0.
         13    1    3    3    0    0  0.24933238332E+01 -0.28672486777E+00 -0.10683127782E+02  0.10973973487E+02  0.00000000000E+00 0.  1.
          1    1    3    3  501    0  0.31068522377E+02  0.84709109718E+01 -0.14959209481E+03  0.15301896694E+03  0.00000000000E+00 0.  1.
         -1    1    1    2    0  502 -0.33561846210E+02 -0.81841861040E+01 -0.83750984170E+03  0.83822199528E+03  0.00000000000E+00 0. -1.
<mgrwt>
<rscale>  1 0.30000000E+03</rscale>
<asrwt>0</asrwt>
<pdfrwt beam="1">  1       21 0.80543287E-02 0.30000000E+03</pdfrwt>
<pdfrwt beam="2">0</pdfrwt>
<totfact> 0.12622884E+04</totfact>
</mgrwt>
</event>
<event>
 6    1  0.1270461E-001  0.3000000E+03  0.7818608E-02  0.1093470E+00
         21   -1    0    0  501  502  0.00000000000E+00  0.00000000000E+00  0.32270923458E+01  0.32270923458E+01  0.00000000000E+00 0. -1.
         13   -1    0    0    0    0 -0.00000000000E+00 -0.00000000000E+00 -0.10000000000E+04  0.10000000000E+04  0.00000000000E+00 0.  1.
    9000005    2    1    2  501    0 -0.19568239556E+02 -0.25727978613E+02 -0.91076232227E+03  0.91134311289E+03  0.36629031935E+01 0.  0.
         13    1    3    3    0    0 -0.10609314589E+02 -0.14464178208E+02 -0.45446200925E+03  0.45481588347E+03  0.00000000000E+00 0.  1.
          1    1    3    3  501    0 -0.89589249668E+01 -0.11263800404E+02 -0.45630031302E+03  0.45652722941E+03  0.00000000000E+00 0.  1.
         -1    1    1    2    0  502  0.19568239556E+02  0.25727978613E+02 -0.86010585387E+02  0.91883979460E+02  0.00000000000E+00 0. -1.
<mgrwt>
<rscale>  1 0.30000000E+03</rscale>
<asrwt>0</asrwt>
<pdfrwt beam="1">  1       21 0.11734906E-01 0.30000000E+03</pdfrwt>
<pdfrwt beam="2">0</pdfrwt>
<totfact> 0.64532025E+03</totfact>
</mgrwt>
</event>
<event>
 6    1  0.1270461E-001  0.3000000E+03  0.7818608E-02  0.1093470E+00
         21   -1    0    0  501  502  0.00000000000E+00  0.00000000000E+00  0.11084584123E+01  0.11084584123E+01  0.00000000000E+00 0. -1.
         13   -1    0    0    0    0 -0.00000000000E+00 -0.00000000000E+00 -0.10000000000E+04  0.10000000000E+04  0.00000000000E+00 0.  1.
    9000005    2    1    2  501    0 -0.77722121095E+01  0.30026970613E+02 -0.67919945923E+03  0.67991528637E+03  0.32962060273E+01 0.  0.
         13    1    3    3    0    0 -0.76100878716E+01  0.28945651230E+02 -0.66531157013E+03  0.66598442137E+03  0.00000000000E+00 0.  1.
          1    1    3    3  501    0 -0.16212423791E+00  0.10813193828E+01 -0.13887889103E+02  0.13930864999E+02  0.00000000000E+00 0.  1.
         -1    1    1    2    0  502  0.77722121095E+01 -0.30026970613E+02 -0.31969208236E+03  0.32119317204E+03  0.00000000000E+00 0. -1.
<mgrwt>
<rscale>  1 0.30000000E+03</rscale>
<asrwt>0</asrwt>
<pdfrwt beam="1">  1       21 0.40307664E-02 0.30000000E+03</pdfrwt>
<pdfrwt beam="2">0</pdfrwt>
<totfact> 0.41508154E+04</totfact>
</mgrwt>
</event>
<event>
 6    1  0.1270461E-001  0.3000000E+03  0.7818608E-02  0.1093470E+00
         21   -1    0    0  501  502  0.00000000000E+00  0.00000000000E+00  0.79323351335E+01  0.79323351335E+01  0.00000000000E+00 0. -1.
         13   -1    0    0    0    0 -0.00000000000E+00 -0.00000000000E+00 -0.10000000000E+04  0.10000000000E+04  0.00000000000E+00 0.  1.
    9000005    2    1    2  501    0 -0.26278770139E+02 -0.16928544601E+02 -0.96791892534E+03  0.96843156295E+03  0.39365854040E+01 0.  0.
         13    1    3    3    0    0 -0.17319926509E+02 -0.13306816846E+02 -0.67546936038E+03  0.67582239386E+03  0.00000000000E+00 0.  1.
          3    1    3    3  501    0 -0.89588436295E+01 -0.36217277545E+01 -0.29244956496E+03  0.29260916909E+03  0.00000000000E+00 0.  1.
         -1    1    1    2    0  502  0.26278770139E+02  0.16928544601E+02 -0.24148739525E+02  0.39500772181E+02  0.00000000000E+00 0. -1.
<mgrwt>
<rscale>  1 0.30000000E+03</rscale>
<asrwt>0</asrwt>
<pdfrwt beam="1">  1       21 0.28844916E-01 0.30000000E+03</pdfrwt>
<pdfrwt beam="2">0</pdfrwt>
<totfact> 0.11758733E+03</totfact>
</mgrwt>
</event>
<event>
 6    1  0.1270461E-001  0.3000000E+03  0.7818608E-02  0.1093470E+00
         21   -1    0    0  501  502  0.00000000000E+00  0.00000000000E+00  0.39010060204E+01  0.39010060204E+01  0.00000000000E+00 0. -1.
         13   -1    0    0    0    0 -0.00000000000E+00 -0.00000000000E+00 -0.10000000000E+04  0.10000000000E+04  0.00000000000E+00 0.  1.
    9000005    2    1    2  501    0 -0.54211875487E+02 -0.39299353488E+01 -0.74494036673E+03  0.74692819057E+03  0.33466486368E+01 0.  0.
         13    1    3    3    0    0 -0.32455087088E+02 -0.37682741920E+01 -0.43566841121E+03  0.43689185973E+03  0.00000000000E+00 0.  1.
          1    1    3    3  501    0 -0.21756788400E+02 -0.16166115679E+00 -0.30927195551E+03  0.31003633084E+03  0.00000000000E+00 0.  1.
         -1    1    1    2    0  502  0.54211875487E+02  0.39299353488E+01 -0.25115862725E+03  0.25697281545E+03  0.00000000000E+00 0. -1.
<mgrwt>
<rscale>  1 0.30000000E+03</rscale>
<asrwt>0</asrwt>
<pdfrwt beam="1">  1       21 0.14185506E-01 0.30000000E+03</pdfrwt>
<pdfrwt beam="2">0</pdfrwt>
<totfact> 0.45648555E+03</totfact>
</mgrwt>
</event>
<event>
 6    1  0.1270461E-001  0.3000000E+03  0.7818608E-02  0.1093470E+00
         21   -1    0    0  501  502  0.00000000000E+00  0.00000000000E+00  0.22305141675E+01  0.22305141675E+01  0.00000000000E+00 0. -1.
         13   -1    0    0    0    0 -0.00000000000E+00 -0.00000000000E+00 -0.10000000000E+04  0.10000000000E+04  0.00000000000E+00 0.  1.
    9000005    2    1    2  501    0  0.31585533620E+02  0.20588514489E+02 -0.80019641294E+03  0.80109212401E+03  0.35719750639E+01 0.  0.
         13    1    3    3    0    0  0.14812034336E+02  0.10073351190E+02 -0.34328266324E+03  0.34374969912E+03  0.00000000000E+00 0.  1.
          1    1    3    3  501    0  0.16773499284E+02  0.10515163299E+02 -0.45691374970E+03  0.45734242489E+03  0.00000000000E+00 0.  1.
         -3    1    1    2    0  502 -0.31585533620E+02 -0.20588514489E+02 -0.19757307289E+03  0.20113839016E+03  0.00000000000E+00 0. -1.
<mgrwt>
<rscale>  1 0.30000000E+03</rscale>
<asrwt>0</asrwt>
<pdfrwt beam="1">  1       21 0.81109777E-02 0.30000000E+03</pdfrwt>
<pdfrwt beam="2">0</pdfrwt>
<totfact> 0.12468349E+04</totfact>
</mgrwt>
</event>
<event>
 6    1  0.1270461E-001  0.3000000E+03  0.7818608E-02  0.1093470E+00
         21   -1    0    0  501  502  0.00000000000E+00  0.00000000000E+00  0.12627554392E+01  0.12627554392E+01  0.00000000000E+00 0. -1.
         13   -1    0    0    0    0 -0.00000000000E+00 -0.00000000000E+00 -0.10000000000E+04  0.10000000000E+04  0.00000000000E+00 0.  1.
    9000005    2    1    2  501    0  0.31241215069E+02 -0.16460145195E+02 -0.53666352070E+03  0.53784169832E+03  0.43598282912E+01 0.  0.
         13    1    3    3    0    0  0.18858331942E+02 -0.11817034040E+02 -0.35579452484E+03  0.35648986365E+03  0.00000000000E+00 0.  1.
          1    1    3    3  501    0  0.12382883127E+02 -0.46431111550E+01 -0.18086899586E+03  0.18135183467E+03  0.00000000000E+00 0.  1.
         -3    1    1    2    0  502 -0.31241215069E+02  0.16460145195E+02 -0.46207372386E+03  0.46342105712E+03  0.00000000000E+00 0. -1.
<mgrwt>
<rscale>  1 0.30000000E+03</rscale>
<asrwt>0</asrwt>
<pdfrwt beam="1">  1       21 0.45918476E-02 0.30000000E+03</pdfrwt>
<pdfrwt beam="2">0</pdfrwt>
<totfact> 0.33295973E+04</totfact>
</mgrwt>
</event>
<event>
 6    1  0.1270461E-001  0.3000000E+03  0.7818608E-02  0.1093470E+00
         21   -1    0    0  501  502  0.00000000000E+00  0.00000000000E+00  0.23256510988E+01  0.23256510988E+01  0.00000000000E+00 0. -1.
         13   -1    0    0    0    0 -0.00000000000E+00 -0.00000000000E+00 -0.10000000000E+04  0.10000000000E+04  0.00000000000E+00 0.  1.
    9000005    2    1    2  501    0  0.24437482940E+02 -0.17854494517E+02 -0.88881872760E+03  0.88934105110E+03  0.35778626536E+01 0.  0.
         13    1    3    3    0    0  0.19627718037E+02 -0.13808993526E+02 -0.66050922008E+03  0.66094505477E+03  0.00000000000E+00 0.  1.
          1    1    3    3  501    0  0.48097649034E+01 -0.40455009913E+01 -0.22830950752E+03  0.22839599633E+03  0.00000000000E+00 0.  1.
         -1    1    1    2    0  502 -0.24437482940E+02  0.17854494517E+02 -0.10885562130E+03  0.11298460000E+03  0.00000000000E+00 0. -1.
<mgrwt>
<rscale>  1 0.30000000E+03</rscale>
<asrwt>0</asrwt>
<pdfrwt beam="1">  1       21 0.84569309E-02 0.30000000E+03</pdfrwt>
<pdfrwt beam="2">0</pdfrwt>
<totfact> 0.11584549E+04</totfact>
</mgrwt>
</event>
<event>
 6    1  0.1270461E-001  0.3000000E+03  0.7818608E-02  0.1093470E+00
         21   -1    0    0  501  502  0.00000000000E+00  0.00000000000E+00  0.12321745115E+01  0.12321745115E+01  0.00000000000E+00 0. -1.
         13   -1    0    0    0    0 -0.00000000000E+00 -0.00000000000E+00 -0.10000000000E+04  0.10000000000E+04  0.00000000000E+00 0.  1.
    9000005    2    1    2  501    0 -0.33348816889E+02 -0.87286287754E+01 -0.40750556775E+03  0.40896585775E+03  0.19880912734E+01 0.  0.
         13    1    3    3    0    0 -0.64703727548E+01 -0.13728077822E+01 -0.70002293536E+02  0.70314091227E+02  0.00000000000E+00 0.  1.
          1    1    3    3  501    0 -0.26878444134E+02 -0.73558209932E+01 -0.33750327421E+03  0.33865176652E+03  0.00000000000E+00 0.  1.
         -1    1    1    2    0  502  0.33348816889E+02  0.87286287754E+01 -0.59126225774E+03  0.59226631677E+03  0.00000000000E+00 0. -1.
<mgrwt>
<rscale>  1 0.30000000E+03</rscale>
<asrwt>0</asrwt>
<pdfrwt beam="1">  1       21 0.44806440E-02 0.30000000E+03</pdfrwt>
<pdfrwt beam="2">0</pdfrwt>
<totfact> 0.34711120E+04</totfact>
</mgrwt>
</event>
<event>
 6    1  0.1270461E-001  0.3000000E+03  0.7818608E-02  0.1093470E+00
         21   -1    0    0  501  502  0.00000000000E+00  0.00000000000E+00  0.61214030396E+01  0.61214030396E+01  0.00000000000E+00 0. -1.
         13   -1    0    0    0    0 -0.00000000000E+00 -0.00000000000E+00 -0.10000000000E+04  0.10000000000E+04  0.00000000000E+00 0.  1.
    9000005    2    1    2  501    0  0.45105363067E+02 -0.20709972155E+02 -0.88575831518E+03  0.88715337349E+03  0.31493568984E+01 0.  0.
         13    1    3    3    0    0  0.42299302646E+02 -0.18801811382E+02 -0.81450905411E+03  0.81582334996E+03  0.00000000000E+00 0.  1.
          3    1    3    3  501    0  0.28060604211E+01 -0.19081607730E+01 -0.71249261071E+02  0.71330023523E+02  0.00000000000E+00 0.  1.
         -1    1    1    2    0  502 -0.45105363067E+02  0.20709972155E+02 -0.10812028178E+03  0.11896802955E+03  0.00000000000E+00 0. -1.
<mgrwt>
<rscale>  1 0.30000000E+03</rscale>
<asrwt>0</asrwt>
<pdfrwt beam="1">  1       21 0.22259694E-01 0.30000000E+03</pdfrwt>
<pdfrwt beam="2">0</pdfrwt>
<totfact> 0.19539150E+03</totfact>
</mgrwt>
</event>
<event>
 6    1  0.1270461E-001  0.3000000E+03  0.7818608E-02  0.1093470E+00
         21   -1    0    0  501  502  0.00000000000E+00  0.00000000000E+00  0.21554595403E+01  0.21554595403E+01  0.00000000000E+00 0. -1.
         13   -1    0    0    0    0 -0.00000000000E+00 -0.00000000000E+00 -0.10000000000E+04  0.10000000000E+04  0.00000000000E+00 0.  1.
    9000005    2    1    2  501    0  0.34755947261E+01  0.43463502971E+02 -0.66888966308E+03  0.67032347314E+03  0.43613544300E+01 0.  0.
         13    1    3    3    0    0  0.30938348025E+01  0.42533034461E+02 -0.64187507133E+03  0.64329016628E+03  0.00000000000E+00 0.  1.
          1    1    3    3  501    0  0.38175992365E+00  0.93046850935E+00 -0.27014591749E+02  0.27033306858E+02  0.00000000000E+00 0.  1.
         -3    1    1    2    0  502 -0.34755947261E+01 -0.43463502971E+02 -0.32895487738E+03  0.33183198640E+03  0.00000000000E+00 0. -1.
<mgrwt>
<rscale>  1 0.30000000E+03</rscale>
<asrwt>0</asrwt>
<pdfrwt beam="1">  1       21 0.78380512E-02 0.30000000E+03</pdfrwt>
<pdfrwt beam="2">0</pdfrwt>
<totfact> 0.13240803E+04</totfact>
</mgrwt>
</event>
<event>
 6    1  0.1270461E-001  0.3000000E+03  0.7818608E-02  0.1093470E+00
         21   -1    0    0  501  502  0.00000000000E+00  0.00000000000E+00  0.16774176943E+01  0.16774176943E+01  0.00000000000E+00 0. -1.
         13   -1    0    0    0    0 -0.00000000000E+00 -0.00000000000E+00 -0.10000000000E+04  0.10000000000E+04  0.00000000000E+00 0.  1.
    9000005    2    1    2  501    0 -0.76021344343E+01 -0.33481985096E+02 -0.77133088415E+03  0.77210375456E+03  0.37468901669E+01 0.  0.
         13    1    3    3    0    0 -0.32480413639E+01 -0.20532154390E+02 -0.49202374236E+03  0.49246267085E+03  0.00000000000E+00 0.  1.
          1    1    3    3  501    0 -0.43540930704E+01 -0.12949830706E+02 -0.27930714179E+03  0.27964108370E+03  0.00000000000E+00 0.  1.
         -3    1    1    2    0  502  0.76021344343E+01  0.33481985096E+02 -0.22699169816E+03  0.22957366314E+03  0.00000000000E+00 0. -1.
<mgrwt>
<rscale>  1 0.30000000E+03</rscale>
<asrwt>0</asrwt>
<pdfrwt beam="1">  1       21 0.60997136E-02 0.30000000E+03</pdfrwt>
<pdfrwt beam="2">0</pdfrwt>
<totfact> 0.20480917E+04</totfact>
</mgrwt>
</event>
<event>
 6    1  0.1270461E-001  0.3000000E+03  0.7818608E-02  0.1093470E+00
         21   -1    0    0  501  502  0.00000000000E+00  0.00000000000E+00  0.14124267768E+01  0.14124267768E+01  0.00000000000E+00 0. -1.
         13   -1    0    0    0    0 -0.00000000000E+00 -0.00000000000E+00 -0.10000000000E+04  0.10000000000E+04  0.00000000000E+00 0.  1.
    9000005    2    1    2  501    0  0.35468373225E+02  0.52346166731E+01 -0.64285510332E+03  0.64387781747E+03  0.55274994782E+01 0.  0.
         13    1    3    3    0    0  0.30616862787E+02  0.49044712972E+01 -0.51718154200E+03  0.51811021367E+03  0.00000000000E+00 0.  1.
          3    1    3    3  501    0  0.48515104380E+01  0.33014537586E+00 -0.12567356132E+03  0.12576760380E+03  0.00000000000E+00 0.  1.
         -3    1    1    2    0  502 -0.35468373225E+02 -0.52346166731E+01 -0.35573246990E+03  0.35753460931E+03  0.00000000000E+00 0. -1.
<mgrwt>
<rscale>  1 0.30000000E+03</rscale>
<asrwt>0</asrwt>
<pdfrwt beam="1">  1       21 0.51361082E-02 0.30000000E+03</pdfrwt>
<pdfrwt beam="2">0</pdfrwt>
<totfact> 0.27514700E+04</totfact>
</mgrwt>
</event>
<event>
 6    1  0.1270461E-001  0.3000000E+03  0.7818608E-02  0.1093470E+00
         21   -1    0    0  501  502  0.00000000000E+00  0.00000000000E+00  0.30461456388E+01  0.30461456388E+01  0.00000000000E+00 0. -1.
         13   -1    0    0    0    0 -0.00000000000E+00 -0.00000000000E+00 -0.10000000000E+04  0.10000000000E+04  0.00000000000E+00 0.  1.
    9000005    2    1    2  501    0 -0.21288811743E+01 -0.48830883507E+02 -0.73088591306E+03  0.73252602308E+03  0.33420451298E+01 0.  0.
         13    1    3    3    0    0 -0.18394607779E+01 -0.25991417001E+02 -0.36679093127E+03  0.36771527659E+03  0.00000000000E+00 0.  1.
          1    1    3    3  501    0 -0.28942039636E+00 -0.22839466506E+02 -0.36409498179E+03  0.36481074649E+03  0.00000000000E+00 0.  1.
         -1    1    1    2    0  502  0.21288811743E+01  0.48830883507E+02 -0.26606794130E+03  0.27052012256E+03  0.00000000000E+00 0. -1.
<mgrwt>
<rscale>  1 0.30000000E+03</rscale>
<asrwt>0</asrwt>
<pdfrwt beam="1">  1       21 0.11076917E-01 0.30000000E+03</pdfrwt>
<pdfrwt beam="2">0</pdfrwt>
<totfact> 0.71616482E+03</totfact>
</mgrwt>
</event>
<event>
 6    1  0.1270461E-001  0.3000000E+03  0.7818608E-02  0.1093470E+00
         21   -1    0    0  501  502  0.00000000000E+00  0.00000000000E+00  0.19911441113E+01  0.19911441113E+01  0.00000000000E+00 0. -1.
         13   -1    0    0    0    0 -0.00000000000E+00 -0.00000000000E+00 -0.10000000000E+04  0.10000000000E+04  0.00000000000E+00 0.  1.
    9000005    2    1    2  501    0  0.16494431286E+01 -0.37848772249E+02 -0.76216438374E+03  0.76312326166E+03  0.52263201426E+01 0.  0.
         13    1    3    3    0    0  0.12515144627E+01 -0.19188101542E+02 -0.33517379746E+03  0.33572492316E+03  0.00000000000E+00 0.  1.
          3    1    3    3  501    0  0.39792866590E+00 -0.18660670707E+02 -0.42699058628E+03  0.42739833850E+03  0.00000000000E+00 0.  1.
         -1    1    1    2    0  502 -0.16494431286E+01  0.37848772249E+02 -0.23584447215E+03  0.23886788245E+03  0.00000000000E+00 0. -1.
<mgrwt>
<rscale>  1 0.30000000E+03</rscale>
<asrwt>0</asrwt>
<pdfrwt beam="1">  1       21 0.72405393E-02 0.30000000E+03</pdfrwt>
<pdfrwt beam="2">0</pdfrwt>
<totfact> 0.15212636E+04</totfact>
</mgrwt>
</event>
<event>
 6    1  0.1270461E-001  0.3000000E+03  0.7818608E-02  0.1093470E+00
         21   -1    0    0  501  502  0.00000000000E+00  0.00000000000E+00  0.73927040350E+01  0.73927040350E+01  0.00000000000E+00 0. -1.
         13   -1    0    0    0    0 -0.00000000000E+00 -0.00000000000E+00 -0.10000000000E+04  0.10000000000E+04  0.00000000000E+00 0.  1.
    9000005    2    1    2  501    0 -0.22717131483E+02 -0.31900347391E+02 -0.94469339506E+03  0.94551021760E+03  0.32032336703E+01 0.  0.
         13    1    3    3    0    0 -0.16343719825E+02 -0.23846170397E+02 -0.66422273017E+03  0.66485155658E+03  0.00000000000E+00 0.  1.
          1    1    3    3  501    0 -0.63734116572E+01 -0.80541769940E+01 -0.28047066489E+03  0.28065866102E+03  0.00000000000E+00 0.  1.
         -3    1    1    2    0  502  0.22717131483E+02  0.31900347391E+02 -0.47913900909E+02  0.61882486430E+02  0.00000000000E+00 0. -1.
<mgrwt>
<rscale>  1 0.30000000E+03</rscale>
<asrwt>0</asrwt>
<pdfrwt beam="1">  1       21 0.26882617E-01 0.30000000E+03</pdfrwt>
<pdfrwt beam="2">0</pdfrwt>
<totfact> 0.13520598E+03</totfact>
</mgrwt>
</event>
<event>
 6    1  0.1270461E-001  0.3000000E+03  0.7818608E-02  0.1093470E+00
         21   -1    0    0  501  502  0.00000000000E+00  0.00000000000E+00  0.12301646984E+01  0.12301646984E+01  0.00000000000E+00 0. -1.
         13   -1    0    0    0    0 -0.00000000000E+00 -0.00000000000E+00 -0.10000000000E+04  0.10000000000E+04  0.00000000000E+00 0.  1.
    9000005    2    1    2  501    0 -0.25704304347E+02  0.16137091871E+02 -0.74913154789E+03  0.74975374127E+03  0.33881434080E+01 0.  0.
         13    1    3    3    0    0 -0.46917176549E+01  0.14941229057E+01 -0.11690246175E+03  0.11700611173E+03  0.00000000000E+00 0.  1.
          1    1    3    3  501    0 -0.21012586692E+02  0.14642968965E+02 -0.63222908613E+03  0.63274762954E+03  0.00000000000E+00 0.  1.
         -3    1    1    2    0  502  0.25704304347E+02 -0.16137091871E+02 -0.24963828741E+03  0.25147642343E+03  0.00000000000E+00 0. -1.
<mgrwt>
<rscale>  1 0.30000000E+03</rscale>
<asrwt>0</asrwt>
<pdfrwt beam="1">  1       21 0.44733356E-02 0.30000000E+03</pdfrwt>
<pdfrwt beam="2">0</pdfrwt>
<totfact> 0.34807367E+04</totfact>
</mgrwt>
</event>
<event>
 6    1  0.1270461E-001  0.3000000E+03  0.7818608E-02  0.1093470E+00
         21   -1    0    0  501  502  0.00000000000E+00  0.00000000000E+00  0.14340432142E+01  0.14340432142E+01  0.00000000000E+00 0. -1.
         13   -1    0    0    0    0 -0.00000000000E+00 -0.00000000000E+00 -0.10000000000E+04  0.10000000000E+04  0.00000000000E+00 0.  1.
    9000005    2    1    2  501    0  0.30210052010E+02 -0.64209932075E+00 -0.80045240907E+03  0.80102935933E+03  0.33039051805E+01 0.  0.
         13    1    3    3    0    0  0.23931922575E+02  0.80045099079E+00 -0.63898320638E+03  0.63943171307E+03  0.00000000000E+00 0.  1.
          1    1    3    3  501    0  0.62781294351E+01 -0.14425503115E+01 -0.16146920269E+03  0.16159764627E+03  0.00000000000E+00 0.  1.
         -1    1    1    2    0  502 -0.30210052010E+02  0.64209932075E+00 -0.19811354771E+03  0.20040468388E+03  0.00000000000E+00 0. -1.
<mgrwt>
<rscale>  1 0.30000000E+03</rscale>
<asrwt>0</asrwt>
<pdfrwt beam="1">  1       21 0.52147136E-02 0.30000000E+03</pdfrwt>
<pdfrwt beam="2">0</pdfrwt>
<totfact> 0.26810148E+04</totfact>
</mgrwt>
</event>
<event>
 6    1  0.1270461E-001  0.3000000E+03  0.7818608E-02  0.1093470E+00
         21   -1    0    0  501  502  0.00000000000E+00  0.00000000000E+00  0.14524309587E+01  0.14524309587E+01  0.00000000000E+00 0. -1.
         13   -1    0    0    0    0 -0.00000000000E+00 -0.00000000000E+00 -0.10000000000E+04  0.10000000000E+04  0.00000000000E+00 0.  1.
    9000005    2    1    2  501    0 -0.45652416367E+01  0.33061812677E+02 -0.73692915574E+03  0.73771369837E+03  0.65570798361E+01 0.  0.
         13    1    3    3    0    0 -0.68912344212E+00  0.12273339975E+02 -0.33932644931E+03  0.33954903765E+03  0.00000000000E+00 0.  1.
          1    1    3    3  501    0 -0.38761181946E+01  0.20788472702E+02 -0.39760270643E+03  0.39816466072E+03  0.00000000000E+00 0.  1.
         -3    1    1    2    0  502  0.45652416367E+01 -0.33061812677E+02 -0.26161841330E+03  0.26373873259E+03  0.00000000000E+00 0. -1.
<mgrwt>
<rscale>  1 0.30000000E+03</rscale>
<asrwt>0</asrwt>
<pdfrwt beam="1">  1       21 0.52815783E-02 0.30000000E+03</pdfrwt>
<pdfrwt beam="2">0</pdfrwt>
<totfact> 0.26232600E+04</totfact>
</mgrwt>
</event>
<event>
 6    1  0.1270461E-001  0.3000000E+03  0.7818608E-02  0.1093470E+00
         21   -1    0    0  501  502  0.00000000000E+00  0.00000000000E+00  0.16481237297E+01  0.16481237297E+01  0.00000000000E+00 0. -1.
         13   -1    0    0    0    0 -0.00000000000E+00 -0.00000000000E+00 -0.10000000000E+04  0.10000000000E+04  0.00000000000E+00 0.  1.
    9000005    2    1    2  501    0  0.25046259817E+01 -0.35015841588E+02 -0.74893614825E+03  0.74977397321E+03  0.48243592460E+01 0.  0.
         13    1    3    3    0    0  0.59549974586E+00 -0.27003838323E+02 -0.60456435673E+03  0.60516743413E+03  0.00000000000E+00 0.  1.
          3    1    3    3  501    0  0.19091262358E+01 -0.80120032658E+01 -0.14437179152E+03  0.14460653908E+03  0.00000000000E+00 0.  1.
         -3    1    1    2    0  502 -0.25046259817E+01  0.35015841588E+02 -0.24941572802E+03  0.25187415052E+03  0.00000000000E+00 0. -1.
<mgrwt>
<rscale>  1 0.30000000E+03</rscale>
<asrwt>0</asrwt>
<pdfrwt beam="1">  1       21 0.59931898E-02 0.30000000E+03</pdfrwt>
<pdfrwt beam="2">0</pdfrwt>
<totfact> 0.21112976E+04</totfact>
</mgrwt>
</event>
<event>
 6    1  0.1270461E-001  0.3000000E+03  0.7818608E-02  0.1093470E+00
         21   -1    0    0  501  502  0.00000000000E+00  0.00000000000E+00  0.22854551801E+01  0.22854551801E+01  0.00000000000E+00 0. -1.
         13   -1    0    0    0    0 -0.00000000000E+00 -0.00000000000E+00 -0.10000000000E+04  0.10000000000E+04  0.00000000000E+00 0.  1.
    9000005    2    1    2  501    0 -0.45357412067E+02 -0.28122316004E+01 -0.65254867823E+03  0.65414083159E+03  0.39046917225E+01 0.  0.
         13    1    3    3    0    0 -0.17199369335E+02 -0.88317869151E+00 -0.27490604741E+03  0.27544497311E+03  0.00000000000E+00 0.  1.
          1    1    3    3  501    0 -0.28158042732E+02 -0.19290529089E+01 -0.37764263082E+03  0.37869585848E+03  0.00000000000E+00 0.  1.
         -1    1    1    2    0  502  0.45357412067E+02  0.28122316004E+01 -0.34516586659E+03  0.34814462359E+03  0.00000000000E+00 0. -1.
<mgrwt>
<rscale>  1 0.30000000E+03</rscale>
<asrwt>0</asrwt>
<pdfrwt beam="1">  1       21 0.83107636E-02 0.30000000E+03</pdfrwt>
<pdfrwt beam="2">0</pdfrwt>
<totfact> 0.11945878E+04</totfact>
</mgrwt>
</event>
<event>
 6    1  0.1270461E-001  0.3000000E+03  0.7818608E-02  0.1093470E+00
         21   -1    0    0  501  502  0.00000000000E+00  0.00000000000E+00  0.17881025059E+01  0.17881025059E+01  0.00000000000E+00 0. -1.
         13   -1    0    0    0    0 -0.00000000000E+00 -0.00000000000E+00 -0.10000000000E+04  0.10000000000E+04  0.00000000000E+00 0.  1.
    9000005    2    1    2  501    0 -0.34104545491E+02  0.17453015813E+02 -0.71012795894E+03  0.71116793212E+03  0.32220829951E+01 0.  0.
         13    1    3    3    0    0 -0.21732195294E+02  0.95517205348E+01 -0.42561125674E+03  0.42627275956E+03  0.00000000000E+00 0.  1.
          3    1    3    3  501    0 -0.12372350197E+02  0.79012952783E+01 -0.28451670220E+03  0.28489517256E+03  0.00000000000E+00 0.  1.
         -3    1    1    2    0  502  0.34104545491E+02 -0.17453015813E+02 -0.28808393855E+03  0.29062017039E+03  0.00000000000E+00 0. -1.
<mgrwt>
<rscale>  1 0.30000000E+03</rscale>
<asrwt>0</asrwt>
<pdfrwt beam="1">  1       21 0.65022046E-02 0.30000000E+03</pdfrwt>
<pdfrwt beam="2">0</pdfrwt>
<totfact> 0.18339274E+04</totfact>
</mgrwt>
</event>
<event>
 6    1  0.1270461E-001  0.3000000E+03  0.7818608E-02  0.1093470E+00
         21   -1    0    0  501  502  0.00000000000E+00  0.00000000000E+00  0.51300091477E+01  0.51300091477E+01  0.00000000000E+00 0. -1.
         13   -1    0    0    0    0 -0.00000000000E+00 -0.00000000000E+00 -0.10000000000E+04  0.10000000000E+04  0.00000000000E+00 0.  1.
    9000005    2    1    2  501    0  0.34605000040E+02  0.11050374655E+02 -0.93052358946E+03  0.93123768086E+03  0.31386148047E+01 0.  0.
         13    1    3    3    0    0  0.22275177227E+02  0.78616240390E+01 -0.63741020509E+03  0.63784775472E+03  0.00000000000E+00 0.  1.
          3    1    3    3  501    0  0.12329822813E+02  0.31887506162E+01 -0.29311338437E+03  0.29338992614E+03  0.00000000000E+00 0.  1.
         -1    1    1    2    0  502 -0.34605000040E+02 -0.11050374655E+02 -0.64346401396E+02  0.73892328292E+02  0.00000000000E+00 0. -1.
<mgrwt>
<rscale>  1 0.30000000E+03</rscale>
<asrwt>0</asrwt>
<pdfrwt beam="1">  1       21 0.18654618E-01 0.30000000E+03</pdfrwt>
<pdfrwt beam="2">0</pdfrwt>
<totfact> 0.27385708E+03</totfact>
</mgrwt>
</event>
<event>
 6    1  0.1270461E-001  0.3000000E+03  0.7818608E-02  0.1093470E+00
         21   -1    0    0  501  502  0.00000000000E+00  0.00000000000E+00  0.45090993925E+01  0.45090993925E+01  0.00000000000E+00 0. -1.
         13   -1    0    0    0    0 -0.00000000000E+00 -0.00000000000E+00 -0.10000000000E+04  0.10000000000E+04  0.00000000000E+00 0.  1.
    9000005    2    1    2  501    0  0.41154352800E+02 -0.22637909457E+02 -0.85653284000E+03  0.85782747714E+03  0.36494982544E+01 0.  0.
         13    1    3    3    0    0  0.22087683429E+02 -0.10231201744E+02 -0.42988071560E+03  0.43056935899E+03  0.00000000000E+00 0.  1.
          3    1    3    3  501    0  0.19066669372E+02 -0.12406707713E+02 -0.42665212440E+03  0.42725811816E+03  0.00000000000E+00 0.  1.
         -3    1    1    2    0  502 -0.41154352800E+02  0.22637909457E+02 -0.13895806061E+03  0.14668162225E+03  0.00000000000E+00 0. -1.
<mgrwt>
<rscale>  1 0.30000000E+03</rscale>
<asrwt>0</asrwt>
<pdfrwt beam="1">  1       21 0.16396760E-01 0.30000000E+03</pdfrwt>
<pdfrwt beam="2">0</pdfrwt>
<totfact> 0.34895020E+03</totfact>
</mgrwt>
</event>
<event>
 6    1  0.1270461E-001  0.3000000E+03  0.7818608E-02  0.1093470E+00
         21   -1    0    0  501  502  0.00000000000E+00  0.00000000000E+00  0.10373043011E+01  0.10373043011E+01  0.00000000000E+00 0. -1.
         13   -1    0    0    0    0 -0.00000000000E+00 -0.00000000000E+00 -0.10000000000E+04  0.10000000000E+04  0.00000000000E+00 0.  1.
    9000005    2    1    2  501    0 -0.21978477456E+02  0.23038394844E+02 -0.44093048442E+03  0.44209744176E+03  0.40785800415E+01 0.  0.
         13    1    3    3    0    0 -0.42345559629E+01  0.35461872831E+01 -0.97927767971E+02  0.98083406589E+02  0.00000000000E+00 0.  1.
          1    1    3    3  501    0 -0.17743921493E+02  0.19492207561E+02 -0.34300271645E+03  0.34401403517E+03  0.00000000000E+00 0.  1.
         -3    1    1    2    0  502  0.21978477456E+02 -0.23038394844E+02 -0.55803221128E+03  0.55893986254E+03  0.00000000000E+00 0. -1.
<mgrwt>
<rscale>  1 0.30000000E+03</rscale>
<asrwt>0</asrwt>
<pdfrwt beam="1">  1       21 0.37720236E-02 0.30000000E+03</pdfrwt>
<pdfrwt beam="2">0</pdfrwt>
<totfact> 0.46408613E+04</totfact>
</mgrwt>
</event>
<event>
 6    1  0.1270461E-001  0.3000000E+03  0.7818608E-02  0.1093470E+00
         21   -1    0    0  501  502  0.00000000000E+00  0.00000000000E+00  0.15289719845E+01  0.15289719845E+01  0.00000000000E+00 0. -1.
         13   -1    0    0    0    0 -0.00000000000E+00 -0.00000000000E+00 -0.10000000000E+04  0.10000000000E+04  0.00000000000E+00 0.  1.
    9000005    2    1    2  501    0 -0.28133554264E+02  0.26968431164E+02 -0.47518762093E+03  0.47679635695E+03  0.35633911090E+01 0.  0.
         13    1    3    3    0    0 -0.24383062771E+02  0.21783234155E+02 -0.40493377405E+03  0.40625165157E+03  0.00000000000E+00 0.  1.
          1    1    3    3  501    0 -0.37504914935E+01  0.51851970089E+01 -0.70253846885E+02  0.70544705376E+02  0.00000000000E+00 0.  1.
         -1    1    1    2    0  502  0.28133554264E+02 -0.26968431164E+02 -0.52328340708E+03  0.52473261504E+03  0.00000000000E+00 0. -1.
<mgrwt>
<rscale>  1 0.30000000E+03</rscale>
<asrwt>0</asrwt>
<pdfrwt beam="1">  1       21 0.55599098E-02 0.30000000E+03</pdfrwt>
<pdfrwt beam="2">0</pdfrwt>
<totfact> 0.24023522E+04</totfact>
</mgrwt>
</event>
<event>
 6    1  0.1270461E-001  0.3000000E+03  0.7818608E-02  0.1093470E+00
         21   -1    0    0  501  502  0.00000000000E+00  0.00000000000E+00  0.15409843642E+01  0.15409843642E+01  0.00000000000E+00 0. -1.
         13   -1    0    0    0    0 -0.00000000000E+00 -0.00000000000E+00 -0.10000000000E+04  0.10000000000E+04  0.00000000000E+00 0.  1.
    9000005    2    1    2  501    0  0.36934675948E+02  0.97994748377E+01 -0.60991784829E+03  0.61112525887E+03  0.37550454039E+01 0.  0.
         13    1    3    3    0    0  0.10853361299E+02  0.17693539699E+01 -0.19690034392E+03  0.19720717913E+03  0.00000000000E+00 0.  1.
          1    1    3    3  501    0  0.26081314649E+02  0.80301208677E+01 -0.41301750437E+03  0.41391807973E+03  0.00000000000E+00 0.  1.
         -3    1    1    2    0  502 -0.36934675948E+02 -0.97994748377E+01 -0.38854116735E+03  0.39041572550E+03  0.00000000000E+00 0. -1.
<mgrwt>
<rscale>  1 0.30000000E+03</rscale>
<asrwt>0</asrwt>
<pdfrwt beam="1">  1       21 0.56035913E-02 0.30000000E+03</pdfrwt>
<pdfrwt beam="2">0</pdfrwt>
<totfact> 0.23702954E+04</totfact>
</mgrwt>
</event>
<event>
 6    1  0.1270461E-001  0.3000000E+03  0.7818608E-02  0.1093470E+00
         21   -1    0    0  501  502  0.00000000000E+00  0.00000000000E+00  0.13447273488E+01  0.13447273488E+01  0.00000000000E+00 0. -1.
         13   -1    0    0    0    0 -0.00000000000E+00 -0.00000000000E+00 -0.10000000000E+04  0.10000000000E+04  0.00000000000E+00 0.  1.
    9000005    2    1    2  501    0 -0.15326397131E+02  0.33066444280E+02 -0.54890461221E+03  0.55011978926E+03  0.26871998771E+01 0.  0.
         13    1    3    3    0    0 -0.11409816934E+01  0.39217474545E+01 -0.53188529920E+02  0.53345118402E+02  0.00000000000E+00 0.  1.
          3    1    3    3  501    0 -0.14185415438E+02  0.29144696826E+02 -0.49571608229E+03  0.49677467085E+03  0.00000000000E+00 0.  1.
         -3    1    1    2    0  502  0.15326397131E+02 -0.33066444280E+02 -0.44975066044E+03  0.45122493809E+03  0.00000000000E+00 0. -1.
<mgrwt>
<rscale>  1 0.30000000E+03</rscale>
<asrwt>0</asrwt>
<pdfrwt beam="1">  1       21 0.48899279E-02 0.30000000E+03</pdfrwt>
<pdfrwt beam="2">0</pdfrwt>
<totfact> 0.29918130E+04</totfact>
</mgrwt>
</event>
<event>
 6    1  0.1270461E-001  0.3000000E+03  0.7818608E-02  0.1093470E+00
         21   -1    0    0  501  502  0.00000000000E+00  0.00000000000E+00  0.23129103093E+01  0.23129103093E+01  0.00000000000E+00 0. -1.
         13   -1    0    0    0    0 -0.00000000000E+00 -0.00000000000E+00 -0.10000000000E+04  0.10000000000E+04  0.00000000000E+00 0.  1.
    9000005    2    1    2  501    0 -0.24402014476E+02 -0.31475468070E+02 -0.77905291329E+03  0.78008089981E+03  0.40749404726E+01 0.  0.
         13    1    3    3    0    0 -0.23416561855E+02 -0.29082798695E+02 -0.74098409096E+03  0.74192423306E+03  0.00000000000E+00 0.  1.
          3    1    3    3  501    0 -0.98545262194E+00 -0.23926693760E+01 -0.38068822339E+02  0.38156666755E+02  0.00000000000E+00 0.  1.
         -3    1    1    2    0  502  0.24402014476E+02  0.31475468070E+02 -0.21863417640E+03  0.22223201050E+03  0.00000000000E+00 0. -1.
<mgrwt>
<rscale>  1 0.30000000E+03</rscale>
<asrwt>0</asrwt>
<pdfrwt beam="1">  1       21 0.84106007E-02 0.30000000E+03</pdfrwt>
<pdfrwt beam="2">0</pdfrwt>
<totfact> 0.11697250E+04</totfact>
</mgrwt>
</event>
<event>
 6    1  0.1270461E-001  0.3000000E+03  0.7818608E-02  0.1093470E+00
         21   -1    0    0  501  502  0.00000000000E+00  0.00000000000E+00  0.96219551715E+00  0.96219551715E+00  0.00000000000E+00 0. -1.
         13   -1    0    0    0    0 -0.00000000000E+00 -0.00000000000E+00 -0.10000000000E+04  0.10000000000E+04  0.00000000000E+00 0.  1.
    9000005    2    1    2  501    0 -0.30730883011E+02  0.42844437230E+00 -0.44641411598E+03  0.44748454301E+03  0.35046465528E+01 0.  0.
         13    1    3    3    0    0 -0.72628204410E+01  0.10700562835E+01 -0.90764195527E+02  0.91060599442E+02  0.00000000000E+00 0.  1.
          1    1    3    3  501    0 -0.23468062570E+02 -0.64161191124E+00 -0.35564992046E+03  0.35642394356E+03  0.00000000000E+00 0.  1.
         -1    1    1    2    0  502  0.30730883011E+02 -0.42844437230E+00 -0.55262368850E+03  0.55347765251E+03  0.00000000000E+00 0. -1.
<mgrwt>
<rscale>  1 0.30000000E+03</rscale>
<asrwt>0</asrwt>
<pdfrwt beam="1">  1       21 0.34989002E-02 0.30000000E+03</pdfrwt>
<pdfrwt beam="2">0</pdfrwt>
<totfact> 0.52644505E+04</totfact>
</mgrwt>
</event>
<event>
 6    1  0.1270461E-001  0.3000000E+03  0.7818608E-02  0.1093470E+00
         21   -1    0    0  501  502  0.00000000000E+00  0.00000000000E+00  0.46519430506E+01  0.46519430506E+01  0.00000000000E+00 0. -1.
         13   -1    0    0    0    0 -0.00000000000E+00 -0.00000000000E+00 -0.10000000000E+04  0.10000000000E+04  0.00000000000E+00 0.  1.
    9000005    2    1    2  501    0 -0.26051234461E+02 -0.29358840818E+02 -0.90842292675E+03  0.90927591561E+03  0.31414173179E+01 0.  0.
         13    1    3    3    0    0 -0.25329994005E+02 -0.27955689070E+02 -0.88144032340E+03  0.88224722888E+03  0.00000000000E+00 0.  1.
          3    1    3    3  501    0 -0.72124045569E+00 -0.14031517482E+01 -0.26982603354E+02  0.27028686731E+02  0.00000000000E+00 0.  1.
         -3    1    1    2    0  502  0.26051234461E+02  0.29358840818E+02 -0.86925130195E+02  0.95376027442E+02  0.00000000000E+00 0. -1.
<mgrwt>
<rscale>  1 0.30000000E+03</rscale>
<asrwt>0</asrwt>
<pdfrwt beam="1">  1       21 0.16916192E-01 0.30000000E+03</pdfrwt>
<pdfrwt beam="2">0</pdfrwt>
<totfact> 0.32918439E+03</totfact>
</mgrwt>
</event>
<event>
 6    1  0.1270461E-001  0.3000000E+03  0.7818608E-02  0.1093470E+00
         21   -1    0    0  501  502  0.00000000000E+00  0.00000000000E+00  0.98455660838E+00  0.98455660838E+00  0.00000000000E+00 0. -1.
         13   -1    0    0    0    0 -0.00000000000E+00 -0.00000000000E+00 -0.10000000000E+04  0.10000000000E+04  0.00000000000E+00 0.  1.
    9000005    2    1    2  501    0 -0.28956993230E+01 -0.29904598167E+02 -0.63991848647E+03  0.64063293037E+03  0.34945780090E+01 0.  0.
         13    1    3    3    0    0 -0.31995668331E+01 -0.18758941797E+02 -0.38250079952E+03  0.38297388522E+03  0.00000000000E+00 0.  1.
          1    1    3    3  501    0  0.30386751007E+00 -0.11145656370E+02 -0.25741768695E+03  0.25765904515E+03  0.00000000000E+00 0.  1.
         -1    1    1    2    0  502  0.28956993230E+01  0.29904598167E+02 -0.35909695692E+03  0.36035162624E+03  0.00000000000E+00 0. -1.
<mgrwt>
<rscale>  1 0.30000000E+03</rscale>
<asrwt>0</asrwt>
<pdfrwt beam="1">  1       21 0.35802134E-02 0.30000000E+03</pdfrwt>
<pdfrwt beam="2">0</pdfrwt>
<totfact> 0.50656303E+04</totfact>
</mgrwt>
</event>
<event>
 6    1  0.1270461E-001  0.3000000E+03  0.7818608E-02  0.1093470E+00
         21   -1    0    0  501  502  0.00000000000E+00  0.00000000000E+00  0.15379786797E+02  0.15379786797E+02  0.00000000000E+00 0. -1.
         13   -1    0    0    0    0 -0.00000000000E+00 -0.00000000000E+00 -0.10000000000E+04  0.10000000000E+04  0.00000000000E+00 0.  1.
    9000005    2    1    2  501    0 -0.44901032574E+02 -0.16519676018E+02 -0.96068844353E+03  0.96188462793E+03  0.32786435382E+01 0.  0.
         13    1    3    3    0    0 -0.38493508110E+02 -0.12983746801E+02 -0.80577385468E+03  0.80679726867E+03  0.00000000000E+00 0.  1.
          1    1    3    3  501    0 -0.64075244649E+01 -0.35359292165E+01 -0.15491458885E+03  0.15508735927E+03  0.00000000000E+00 0.  1.
         -3    1    1    2    0  502  0.44901032574E+02  0.16519676018E+02 -0.23931769674E+02  0.53495158862E+02  0.00000000000E+00 0. -1.
<mgrwt>
<rscale>  1 0.30000000E+03</rscale>
<asrwt>0</asrwt>
<pdfrwt beam="1">  1       21 0.55926615E-01 0.30000000E+03</pdfrwt>
<pdfrwt beam="2">0</pdfrwt>
<totfact> 0.29380451E+02</totfact>
</mgrwt>
</event>
<event>
 6    1  0.1270461E-001  0.3000000E+03  0.7818608E-02  0.1093470E+00
         21   -1    0    0  501  502  0.00000000000E+00  0.00000000000E+00  0.17763526840E+01  0.17763526840E+01  0.00000000000E+00 0. -1.
         13   -1    0    0    0    0 -0.00000000000E+00 -0.00000000000E+00 -0.10000000000E+04  0.10000000000E+04  0.00000000000E+00 0.  1.
    9000005    2    1    2  501    0 -0.21930366004E-01 -0.30715590662E+02 -0.84187978650E+03  0.84244383621E+03  0.25679295850E+01 0.  0.
         13    1    3    3    0    0  0.64868222458E+00 -0.50875136181E+01 -0.12223522354E+03  0.12234277035E+03  0.00000000000E+00 0.  1.
          3    1    3    3  501    0 -0.67061259058E+00 -0.25628077044E+02 -0.71964456296E+03  0.72010106586E+03  0.00000000000E+00 0.  1.
         -3    1    1    2    0  502  0.21930366004E-01  0.30715590662E+02 -0.15634386082E+03  0.15933251647E+03  0.00000000000E+00 0. -1.
<mgrwt>
<rscale>  1 0.30000000E+03</rscale>
<asrwt>0</asrwt>
<pdfrwt beam="1">  1       21 0.64594779E-02 0.30000000E+03</pdfrwt>
<pdfrwt beam="2">0</pdfrwt>
<totfact> 0.18549775E+04</totfact>
</mgrwt>
</event>
<event>
 6    1  0.1270461E-001  0.3000000E+03  0.7818608E-02  0.1093470E+00
         21   -1    0    0  501  502  0.00000000000E+00  0.00000000000E+00  0.24813568754E+01  0.24813568754E+01  0.00000000000E+00 0. -1.
         13   -1    0    0    0    0 -0.00000000000E+00 -0.00000000000E+00 -0.10000000000E+04  0.10000000000E+04  0.00000000000E+00 0.  1.
    9000005    2    1    2  501    0  0.26211335922E+02  0.36112485778E+02 -0.72051680419E+03  0.72190843493E+03  0.40221303547E+01 0.  0.
         13    1    3    3    0    0  0.98111432773E+01  0.11163426789E+02 -0.21904445776E+03  0.21954807015E+03  0.00000000000E+00 0.  1.
          3    1    3    3  501    0  0.16400192644E+02  0.24949058989E+02 -0.50147234643E+03  0.50236036478E+03  0.00000000000E+00 0.  1.
         -3    1    1    2    0  502 -0.26211335922E+02 -0.36112485778E+02 -0.27700183893E+03  0.28057292195E+03  0.00000000000E+00 0. -1.
<mgrwt>
<rscale>  1 0.30000000E+03</rscale>
<asrwt>0</asrwt>
<pdfrwt beam="1">  1       21 0.90231349E-02 0.30000000E+03</pdfrwt>
<pdfrwt beam="2">0</pdfrwt>
<totfact> 0.10330989E+04</totfact>
</mgrwt>
</event>
<event>
 6    1  0.1270461E-001  0.3000000E+03  0.7818608E-02  0.1093470E+00
         21   -1    0    0  501  502  0.00000000000E+00  0.00000000000E+00  0.26351381111E+01  0.26351381111E+01  0.00000000000E+00 0. -1.
         13   -1    0    0    0    0 -0.00000000000E+00 -0.00000000000E+00 -0.10000000000E+04  0.10000000000E+04  0.00000000000E+00 0.  1.
    9000005    2    1    2  501    0  0.38296720747E+00  0.35866512752E+02 -0.85712771420E+03  0.85788358893E+03  0.31273455058E+01 0.  0.
         13    1    3    3    0    0  0.37481105174E-01  0.28917465881E+02 -0.66020630104E+03  0.66083930057E+03  0.00000000000E+00 0.  1.
          3    1    3    3  501    0  0.34548610229E+00  0.69490468709E+01 -0.19692141316E+03  0.19704428836E+03  0.00000000000E+00 0.  1.
         -1    1    1    2    0  502 -0.38296720747E+00 -0.35866512752E+02 -0.14023714769E+03  0.14475154919E+03  0.00000000000E+00 0. -1.
<mgrwt>
<rscale>  1 0.30000000E+03</rscale>
<asrwt>0</asrwt>
<pdfrwt beam="1">  1       21 0.95823406E-02 0.30000000E+03</pdfrwt>
<pdfrwt beam="2">0</pdfrwt>
<totfact> 0.92838351E+03</totfact>
</mgrwt>
</event>
<event>
 6    1  0.1270461E-001  0.3000000E+03  0.7818608E-02  0.1093470E+00
         21   -1    0    0  501  502  0.00000000000E+00  0.00000000000E+00  0.20534972519E+01  0.20534972519E+01  0.00000000000E+00 0. -1.
         13   -1    0    0    0    0 -0.00000000000E+00 -0.00000000000E+00 -0.10000000000E+04  0.10000000000E+04  0.00000000000E+00 0.  1.
    9000005    2    1    2  501    0 -0.31147137854E+02 -0.11138109673E+02 -0.84109474791E+03  0.84175167356E+03  0.33620371118E+01 0.  0.
         13    1    3    3    0    0 -0.15422925882E+02 -0.71160927783E+01 -0.44889707326E+03  0.44921830751E+03  0.00000000000E+00 0.  1.
          1    1    3    3  501    0 -0.15724211971E+02 -0.40220168945E+01 -0.39219767465E+03  0.39253336605E+03  0.00000000000E+00 0.  1.
         -3    1    1    2    0  502  0.31147137854E+02  0.11138109673E+02 -0.15685175484E+03  0.16030182369E+03  0.00000000000E+00 0. -1.
<mgrwt>
<rscale>  1 0.30000000E+03</rscale>
<asrwt>0</asrwt>
<pdfrwt beam="1">  1       21 0.74672785E-02 0.30000000E+03</pdfrwt>
<pdfrwt beam="2">0</pdfrwt>
<totfact> 0.14414381E+04</totfact>
</mgrwt>
</event>
<event>
 6    1  0.1270461E-001  0.3000000E+03  0.7818608E-02  0.1093470E+00
         21   -1    0    0  501  502  0.00000000000E+00  0.00000000000E+00  0.20420845798E+01  0.20420845798E+01  0.00000000000E+00 0. -1.
         13   -1    0    0    0    0 -0.00000000000E+00 -0.00000000000E+00 -0.10000000000E+04  0.10000000000E+04  0.00000000000E+00 0.  1.
    9000005    2    1    2  501    0 -0.14592593271E+02 -0.34715631825E+02 -0.77516246833E+03  0.77608649134E+03  0.39077953445E+01 0.  0.
         13    1    3    3    0    0 -0.51101149505E+01 -0.14770280105E+02 -0.35531417606E+03  0.35565775425E+03  0.00000000000E+00 0.  1.
          1    1    3    3  501    0 -0.94824783203E+01 -0.19945351721E+02 -0.41984829227E+03  0.42042873709E+03  0.00000000000E+00 0.  1.
         -1    1    1    2    0  502  0.14592593271E+02  0.34715631825E+02 -0.22279544710E+03  0.22595559324E+03  0.00000000000E+00 0. -1.
<mgrwt>
<rscale>  1 0.30000000E+03</rscale>
<asrwt>0</asrwt>
<pdfrwt beam="1">  1       21 0.74257778E-02 0.30000000E+03</pdfrwt>
<pdfrwt beam="2">0</pdfrwt>
<totfact> 0.14555669E+04</totfact>
</mgrwt>
</event>
<event>
 6    1  0.1270461E-001  0.3000000E+03  0.7818608E-02  0.1093470E+00
         21   -1    0    0  501  502  0.00000000000E+00  0.00000000000E+00  0.10459065273E+01  0.10459065273E+01  0.00000000000E+00 0. -1.
         13   -1    0    0    0    0 -0.00000000000E+00 -0.00000000000E+00 -0.10000000000E+04  0.10000000000E+04  0.00000000000E+00 0.  1.
    9000005    2    1    2  501    0  0.22108823688E+02 -0.20387202938E+02 -0.32013238481E+03  0.32155834204E+03  0.32535225340E+01 0.  0.
         13    1    3    3    0    0  0.34471058492E+01 -0.24829139916E+01 -0.57016194479E+02  0.57174240997E+02  0.00000000000E+00 0.  1.
          1    1    3    3  501    0  0.18661717839E+02 -0.17904288947E+02 -0.26311619033E+03  0.26438410105E+03  0.00000000000E+00 0.  1.
         -1    1    1    2    0  502 -0.22108823688E+02  0.20387202938E+02 -0.67882170867E+03  0.67948756448E+03  0.00000000000E+00 0. -1.
<mgrwt>
<rscale>  1 0.30000000E+03</rscale>
<asrwt>0</asrwt>
<pdfrwt beam="1">  1       21 0.38033045E-02 0.30000000E+03</pdfrwt>
<pdfrwt beam="2">0</pdfrwt>
<totfact> 0.45769189E+04</totfact>
</mgrwt>
</event>
<event>
 6    1  0.1270461E-001  0.3000000E+03  0.7818608E-02  0.1093470E+00
         21   -1    0    0  501  502  0.00000000000E+00  0.00000000000E+00  0.17751378695E+01  0.17751378695E+01  0.00000000000E+00 0. -1.
         13   -1    0    0    0    0 -0.00000000000E+00 -0.00000000000E+00 -0.10000000000E+04  0.10000000000E+04  0.00000000000E+00 0.  1.
    9000005    2    1    2  501    0 -0.30481973212E+02 -0.20559565390E+02 -0.74280365767E+03  0.74372119369E+03  0.34775957039E+01 0.  0.
         13    1    3    3    0    0 -0.17960073778E+02 -0.10320955059E+02 -0.43465229738E+03  0.43514561469E+03  0.00000000000E+00 0.  1.
          1    1    3    3  501    0 -0.12521899434E+02 -0.10238610331E+02 -0.30815136029E+03  0.30857557900E+03  0.00000000000E+00 0.  1.
         -3    1    1    2    0  502  0.30481973212E+02  0.20559565390E+02 -0.25542120446E+03  0.25805394418E+03  0.00000000000E+00 0. -1.
<mgrwt>
<rscale>  1 0.30000000E+03</rscale>
<asrwt>0</asrwt>
<pdfrwt beam="1">  1       21 0.64550604E-02 0.30000000E+03</pdfrwt>
<pdfrwt beam="2">0</pdfrwt>
<totfact> 0.18571751E+04</totfact>
</mgrwt>
</event>
<event>
 6    1  0.1270461E-001  0.3000000E+03  0.7818608E-02  0.1093470E+00
         21   -1    0    0  501  502  0.00000000000E+00  0.00000000000E+00  0.10339789099E+01  0.10339789099E+01  0.00000000000E+00 0. -1.
         13   -1    0    0    0    0 -0.00000000000E+00 -0.00000000000E+00 -0.10000000000E+04  0.10000000000E+04  0.00000000000E+00 0.  1.
    9000005    2    1    2  501    0 -0.29231606947E+02 -0.98877190616E+01 -0.63573364610E+03  0.63649315531E+03  0.37435457334E+01 0.  0.
         13    1    3    3    0    0 -0.10556466236E+02 -0.17014588600E+01 -0.22173890677E+03  0.22199656916E+03  0.00000000000E+00 0.  1.
          1    1    3    3  501    0 -0.18675140712E+02 -0.81862602016E+01 -0.41399473933E+03  0.41449658615E+03  0.00000000000E+00 0.  1.
         -1    1    1    2    0  502  0.29231606947E+02  0.98877190616E+01 -0.36323237499E+03  0.36454082360E+03  0.00000000000E+00 0. -1.
<mgrwt>
<rscale>  1 0.30000000E+03</rscale>
<asrwt>0</asrwt>
<pdfrwt beam="1">  1       21 0.37599312E-02 0.30000000E+03</pdfrwt>
<pdfrwt beam="2">0</pdfrwt>
<totfact> 0.46659568E+04</totfact>
</mgrwt>
</event>
<event>
 6    1  0.1270461E-001  0.3000000E+03  0.7818608E-02  0.1093470E+00
         21   -1    0    0  501  502  0.00000000000E+00  0.00000000000E+00  0.23639138765E+01  0.23639138765E+01  0.00000000000E+00 0. -1.
         13   -1    0    0    0    0 -0.00000000000E+00 -0.00000000000E+00 -0.10000000000E+04  0.10000000000E+04  0.00000000000E+00 0.  1.
    9000005    2    1    2  501    0  0.73297634264E+01 -0.47237581249E+02 -0.58762736863E+03  0.58957793672E+03  0.33323554847E+01 0.  0.
         13    1    3    3    0    0  0.69389400103E+01 -0.44878419186E+02 -0.54793015898E+03  0.54980876723E+03  0.00000000000E+00 0.  1.
          3    1    3    3  501    0  0.39082341613E+00 -0.23591620631E+01 -0.39697209648E+02  0.39769169496E+02  0.00000000000E+00 0.  1.
         -1    1    1    2    0  502 -0.73297634264E+01  0.47237581249E+02 -0.41000871749E+03  0.41278597715E+03  0.00000000000E+00 0. -1.
<mgrwt>
<rscale>  1 0.30000000E+03</rscale>
<asrwt>0</asrwt>
<pdfrwt beam="1">  1       21 0.85960686E-02 0.30000000E+03</pdfrwt>
<pdfrwt beam="2">0</pdfrwt>
<totfact> 0.11255871E+04</totfact>
</mgrwt>
</event>
<event>
 6    1  0.1270461E-001  0.3000000E+03  0.7818608E-02  0.1093470E+00
         21   -1    0    0  501  502  0.00000000000E+00  0.00000000000E+00  0.21708189877E+01  0.21708189877E+01  0.00000000000E+00 0. -1.
         13   -1    0    0    0    0 -0.00000000000E+00 -0.00000000000E+00 -0.10000000000E+04  0.10000000000E+04  0.00000000000E+00 0.  1.
    9000005    2    1    2  501    0 -0.37332101490E+02 -0.94728559113E+01 -0.78045231438E+03  0.78140822490E+03  0.30948541223E+01 0.  0.
         13    1    3    3    0    0 -0.10755063392E+02 -0.30746430387E+01 -0.25522307822E+03  0.25546808895E+03  0.00000000000E+00 0.  1.
          3    1    3    3  501    0 -0.26577038098E+02 -0.63982128726E+01 -0.52522923616E+03  0.52594013595E+03  0.00000000000E+00 0.  1.
         -3    1    1    2    0  502  0.37332101490E+02  0.94728559113E+01 -0.21737686664E+03  0.22076259409E+03  0.00000000000E+00 0. -1.
<mgrwt>
<rscale>  1 0.30000000E+03</rscale>
<asrwt>0</asrwt>
<pdfrwt beam="1">  1       21 0.78939039E-02 0.30000000E+03</pdfrwt>
<pdfrwt beam="2">0</pdfrwt>
<totfact> 0.13076842E+04</totfact>
</mgrwt>
</event>
<event>
 6    1  0.1270461E-001  0.3000000E+03  0.7818608E-02  0.1093470E+00
         21   -1    0    0  501  502  0.00000000000E+00  0.00000000000E+00  0.23763215406E+01  0.23763215406E+01  0.00000000000E+00 0. -1.
         13   -1    0    0    0    0 -0.00000000000E+00 -0.00000000000E+00 -0.10000000000E+04  0.10000000000E+04  0.00000000000E+00 0.  1.
    9000005    2    1    2  501    0  0.41435039149E+02  0.23857677899E+02 -0.59442486849E+03  0.59635251482E+03  0.30571861712E+01 0.  0.
         13    1    3    3    0    0  0.40445710778E+02  0.23173851795E+02 -0.57244088144E+03  0.57433565593E+03  0.00000000000E+00 0.  1.
          3    1    3    3  501    0  0.98932837109E+00  0.68382610454E+00 -0.21983987049E+02  0.22016858889E+02  0.00000000000E+00 0.  1.
         -3    1    1    2    0  502 -0.41435039149E+02 -0.23857677899E+02 -0.40319880997E+03  0.40602380672E+03  0.00000000000E+00 0. -1.
<mgrwt>
<rscale>  1 0.30000000E+03</rscale>
<asrwt>0</asrwt>
<pdfrwt beam="1">  1       21 0.86411875E-02 0.30000000E+03</pdfrwt>
<pdfrwt beam="2">0</pdfrwt>
<totfact> 0.11152335E+04</totfact>
</mgrwt>
</event>
<event>
 6    1  0.1270461E-001  0.3000000E+03  0.7818608E-02  0.1093470E+00
         21   -1    0    0  501  502  0.00000000000E+00  0.00000000000E+00  0.99920148494E+00  0.99920148494E+00  0.00000000000E+00 0. -1.
         13   -1    0    0    0    0 -0.00000000000E+00 -0.00000000000E+00 -0.10000000000E+04  0.10000000000E+04  0.00000000000E+00 0.  1.
    9000005    2    1    2  501    0 -0.30495061831E+02 -0.39548152228E+01 -0.39125008053E+03  0.39247103898E+03  0.33617789680E+01 0.  0.
         13    1    3    3    0    0 -0.14713449068E+02 -0.32800894951E+01 -0.20358558814E+03  0.20414293098E+03  0.00000000000E+00 0.  1.
          1    1    3    3  501    0 -0.15781612763E+02 -0.67472572775E+00 -0.18766449239E+03  0.18832810799E+03  0.00000000000E+00 0.  1.
         -3    1    1    2    0  502  0.30495061831E+02  0.39548152228E+01 -0.60775071798E+03  0.60852816251E+03  0.00000000000E+00 0. -1.
<mgrwt>
<rscale>  1 0.30000000E+03</rscale>
<asrwt>0</asrwt>
<pdfrwt beam="1">  1       21 0.36334676E-02 0.30000000E+03</pdfrwt>
<pdfrwt beam="2">0</pdfrwt>
<totfact> 0.49417367E+04</totfact>
</mgrwt>
</event>
<event>
 6    1  0.1270461E-001  0.3000000E+03  0.7818608E-02  0.1093470E+00
         21   -1    0    0  501  502  0.00000000000E+00  0.00000000000E+00  0.54612206932E+01  0.54612206932E+01  0.00000000000E+00 0. -1.
         13   -1    0    0    0    0 -0.00000000000E+00 -0.00000000000E+00 -0.10000000000E+04  0.10000000000E+04  0.00000000000E+00 0.  1.
    9000005    2    1    2  501    0  0.44422766176E+02 -0.26622416280E+02 -0.85571843725E+03  0.85729502154E+03  0.43098608831E+01 0.  0.
         13    1    3    3    0    0  0.10148596178E+02 -0.75484272523E+01 -0.18706388837E+03  0.18749098936E+03  0.00000000000E+00 0.  1.
          3    1    3    3  501    0  0.34274169998E+02 -0.19073989028E+02 -0.66865454888E+03  0.66980403218E+03  0.00000000000E+00 0.  1.
         -1    1    1    2    0  502 -0.44422766176E+02  0.26622416280E+02 -0.13882034205E+03  0.14816619915E+03  0.00000000000E+00 0. -1.
<mgrwt>
<rscale>  1 0.30000000E+03</rscale>
<asrwt>0</asrwt>
<pdfrwt beam="1">  1       21 0.19859026E-01 0.30000000E+03</pdfrwt>
<pdfrwt beam="2">0</pdfrwt>
<totfact> 0.24318227E+03</totfact>
</mgrwt>
</event>
<event>
 6    1  0.1270461E-001  0.3000000E+03  0.7818608E-02  0.1093470E+00
         21   -1    0    0  501  502  0.00000000000E+00  0.00000000000E+00  0.68331136007E+01  0.68331136007E+01  0.00000000000E+00 0. -1.
         13   -1    0    0    0    0 -0.00000000000E+00 -0.00000000000E+00 -0.10000000000E+04  0.10000000000E+04  0.00000000000E+00 0.  1.
    9000005    2    1    2  501    0 -0.92026849657E+01  0.33024085845E+02 -0.95464338520E+03  0.95526432652E+03  0.32651119190E+01 0.  0.
         13    1    3    3    0    0 -0.54499352127E+01  0.22648944051E+02 -0.68224461427E+03  0.68264221240E+03  0.00000000000E+00 0.  1.
          1    1    3    3  501    0 -0.37527497531E+01  0.10375141794E+02 -0.27239877093E+03  0.27262211412E+03  0.00000000000E+00 0.  1.
         -1    1    1    2    0  502  0.92026849657E+01 -0.33024085845E+02 -0.38523501199E+02  0.51568787082E+02  0.00000000000E+00 0. -1.
<mgrwt>
<rscale>  1 0.30000000E+03</rscale>
<asrwt>0</asrwt>
<pdfrwt beam="1">  1       21 0.24847738E-01 0.30000000E+03</pdfrwt>
<pdfrwt beam="2">0</pdfrwt>
<totfact> 0.15783491E+03</totfact>
</mgrwt>
</event>
<event>
 6    1  0.1270461E-001  0.3000000E+03  0.7818608E-02  0.1093470E+00
         21   -1    0    0  501  502  0.00000000000E+00  0.00000000000E+00  0.20240045607E+01  0.20240045607E+01  0.00000000000E+00 0. -1.
         13   -1    0    0    0    0 -0.00000000000E+00 -0.00000000000E+00 -0.10000000000E+04  0.10000000000E+04  0.00000000000E+00 0.  1.
    9000005    2    1    2  501    0  0.17211318875E+02 -0.27100322237E+02 -0.84947694046E+03  0.85009432908E+03  0.43172900380E+01 0.  0.
         13    1    3    3    0    0  0.14946322126E+02 -0.20691900765E+02 -0.69264197742E+03  0.69311215267E+03  0.00000000000E+00 0.  1.
          1    1    3    3  501    0  0.22649967487E+01 -0.64084214715E+01 -0.15683496305E+03  0.15698217641E+03  0.00000000000E+00 0.  1.
         -1    1    1    2    0  502 -0.17211318875E+02  0.27100322237E+02 -0.14849905498E+03  0.15192967548E+03  0.00000000000E+00 0. -1.
<mgrwt>
<rscale>  1 0.30000000E+03</rscale>
<asrwt>0</asrwt>
<pdfrwt beam="1">  1       21 0.73600321E-02 0.30000000E+03</pdfrwt>
<pdfrwt beam="2">0</pdfrwt>
<totfact> 0.14783830E+04</totfact>
</mgrwt>
</event>
<event>
 6    1  0.1270461E-001  0.3000000E+03  0.7818608E-02  0.1093470E+00
         21   -1    0    0  501  502  0.00000000000E+00  0.00000000000E+00  0.27315213083E+01  0.27315213083E+01  0.00000000000E+00 0. -1.
         13   -1    0    0    0    0 -0.00000000000E+00 -0.00000000000E+00 -0.10000000000E+04  0.10000000000E+04  0.00000000000E+00 0.  1.
    9000005    2    1    2  501    0 -0.50118320363E+02 -0.12681226035E+02 -0.56899844641E+03  0.57135247675E+03  0.34294528182E+01 0.  0.
         13    1    3    3    0    0 -0.33627770447E+02 -0.93229517318E+01 -0.36810642407E+03  0.36975679008E+03  0.00000000000E+00 0.  1.
          1    1    3    3  501    0 -0.16490549915E+02 -0.33582743027E+01 -0.20089202234E+03  0.20159568667E+03  0.00000000000E+00 0.  1.
         -1    1    1    2    0  502  0.50118320363E+02  0.12681226035E+02 -0.42827003228E+03  0.43137904455E+03  0.00000000000E+00 0. -1.
<mgrwt>
<rscale>  1 0.30000000E+03</rscale>
<asrwt>0</asrwt>
<pdfrwt beam="1">  1       21 0.99328257E-02 0.30000000E+03</pdfrwt>
<pdfrwt beam="2">0</pdfrwt>
<totfact> 0.87074154E+03</totfact>
</mgrwt>
</event>
<event>
 6    1  0.1270461E-001  0.3000000E+03  0.7818608E-02  0.1093470E+00
         21   -1    0    0  501  502  0.00000000000E+00  0.00000000000E+00  0.46557395677E+01  0.46557395677E+01  0.00000000000E+00 0. -1.
         13   -1    0    0    0    0 -0.00000000000E+00 -0.00000000000E+00 -0.10000000000E+04  0.10000000000E+04  0.00000000000E+00 0.  1.
    9000005    2    1    2  501    0  0.22115475550E+01  0.37419778466E+02 -0.91730028049E+03  0.91807633343E+03  0.43839070999E+01 0.  0.
         13    1    3    3    0    0  0.33733775767E+01  0.25798598864E+02 -0.65302702329E+03  0.65354513274E+03  0.00000000000E+00 0.  1.
          3    1    3    3  501    0 -0.11618300217E+01  0.11621179602E+02 -0.26427325720E+03  0.26453120069E+03  0.00000000000E+00 0.  1.
         -3    1    1    2    0  502 -0.22115475550E+01 -0.37419778466E+02 -0.78043979938E+02  0.86579406140E+02  0.00000000000E+00 0. -1.
<mgrwt>
<rscale>  1 0.30000000E+03</rscale>
<asrwt>0</asrwt>
<pdfrwt beam="1">  1       21 0.16929998E-01 0.30000000E+03</pdfrwt>
<pdfrwt beam="2">0</pdfrwt>
<totfact> 0.32868200E+03</totfact>
</mgrwt>
</event>
<event>
 6    1  0.1270461E-001  0.3000000E+03  0.7818608E-02  0.1093470E+00
         21   -1    0    0  501  502  0.00000000000E+00  0.00000000000E+00  0.26046998565E+01  0.26046998565E+01  0.00000000000E+00 0. -1.
         13   -1    0    0    0    0 -0.00000000000E+00 -0.00000000000E+00 -0.10000000000E+04  0.10000000000E+04  0.00000000000E+00 0.  1.
    9000005    2    1    2  501    0 -0.32824430654E+02 -0.38336151368E+01 -0.88052552145E+03  0.88115230168E+03  0.34705856417E+01 0.  0.
         13    1    3    3    0    0 -0.18611833824E+02 -0.45022890865E+00 -0.48828474523E+03  0.48863953533E+03  0.00000000000E+00 0.  1.
          3    1    3    3  501    0 -0.14212596830E+02 -0.33833862281E+01 -0.39224077623E+03  0.39251276635E+03  0.00000000000E+00 0.  1.
         -3    1    1    2    0  502  0.32824430654E+02  0.38336151368E+01 -0.11686977869E+03  0.12145239818E+03  0.00000000000E+00 0. -1.
<mgrwt>
<rscale>  1 0.30000000E+03</rscale>
<asrwt>0</asrwt>
<pdfrwt beam="1">  1       21 0.94716558E-02 0.30000000E+03</pdfrwt>
<pdfrwt beam="2">0</pdfrwt>
<totfact> 0.94780313E+03</totfact>
</mgrwt>
</event>
<event>
 6    1  0.1270461E-001  0.3000000E+03  0.7818608E-02  0.1093470E+00
         21   -1    0    0  501  502  0.00000000000E+00  0.00000000000E+00  0.11754801049E+02  0.11754801049E+02  0.00000000000E+00 0. -1.
         13   -1    0    0    0    0 -0.00000000000E+00 -0.00000000000E+00 -0.10000000000E+04  0.10000000000E+04  0.00000000000E+00 0.  1.
    9000005    2    1    2  501    0  0.21497055036E+02  0.77593857371E+02 -0.83284369165E+03  0.83673320653E+03  0.33036509049E+01 0.  0.
         13    1    3    3    0    0  0.12934941482E+02  0.42816356882E+02 -0.44920823133E+03  0.45142949419E+03  0.00000000000E+00 0.  1.
          1    1    3    3  501    0  0.85621135537E+01  0.34777500489E+02 -0.38363546032E+03  0.38530371234E+03  0.00000000000E+00 0.  1.
         -3    1    1    2    0  502 -0.21497055036E+02 -0.77593857371E+02 -0.15540150730E+03  0.17502159452E+03  0.00000000000E+00 0. -1.
<mgrwt>
<rscale>  1 0.30000000E+03</rscale>
<asrwt>0</asrwt>
<pdfrwt beam="1">  1       21 0.42744821E-01 0.30000000E+03</pdfrwt>
<pdfrwt beam="2">0</pdfrwt>
<totfact> 0.52537254E+02</totfact>
</mgrwt>
</event>
<event>
 6    1  0.1270461E-001  0.3000000E+03  0.7818608E-02  0.1093470E+00
         21   -1    0    0  501  502  0.00000000000E+00  0.00000000000E+00  0.63085495083E+01  0.63085495083E+01  0.00000000000E+00 0. -1.
         13   -1    0    0    0    0 -0.00000000000E+00 -0.00000000000E+00 -0.10000000000E+04  0.10000000000E+04  0.00000000000E+00 0.  1.
    9000005    2    1    2  501    0  0.26335117786E+02  0.57489678095E+02 -0.80120700467E+03  0.80370335856E+03  0.27969109085E+01 0.  0.
         13    1    3    3    0    0  0.81215458901E+01  0.15111772840E+02 -0.22487804281E+03  0.22553150406E+03  0.00000000000E+00 0.  1.
          1    1    3    3  501    0  0.18213571896E+02  0.42377905255E+02 -0.57632896185E+03  0.57817185449E+03  0.00000000000E+00 0.  1.
         -3    1    1    2    0  502 -0.26335117786E+02 -0.57489678095E+02 -0.19248444582E+03  0.20260519095E+03  0.00000000000E+00 0. -1.
<mgrwt>
<rscale>  1 0.30000000E+03</rscale>
<asrwt>0</asrwt>
<pdfrwt beam="1">  1       21 0.22940228E-01 0.30000000E+03</pdfrwt>
<pdfrwt beam="2">0</pdfrwt>
<totfact> 0.18435350E+03</totfact>
</mgrwt>
</event>
<event>
 6    1  0.1270461E-001  0.3000000E+03  0.7818608E-02  0.1093470E+00
         21   -1    0    0  501  502  0.00000000000E+00  0.00000000000E+00  0.17741412976E+01  0.17741412976E+01  0.00000000000E+00 0. -1.
         13   -1    0    0    0    0 -0.00000000000E+00 -0.00000000000E+00 -0.10000000000E+04  0.10000000000E+04  0.00000000000E+00 0.  1.
    9000005    2    1    2  501    0 -0.30040909356E+02 -0.36605864608E+01 -0.84719884360E+03  0.84774487324E+03  0.31037680864E+01 0.  0.
         13    1    3    3    0    0 -0.18690630203E+01 -0.92719411685E+00 -0.68667438055E+02  0.68699127611E+02  0.00000000000E+00 0.  1.
          3    1    3    3  501    0 -0.28171846336E+02 -0.27333923440E+01 -0.77853140554E+03  0.77904574563E+03  0.00000000000E+00 0.  1.
         -1    1    1    2    0  502  0.30040909356E+02  0.36605864608E+01 -0.15102701510E+03  0.15402926806E+03  0.00000000000E+00 0. -1.
<mgrwt>
<rscale>  1 0.30000000E+03</rscale>
<asrwt>0</asrwt>
<pdfrwt beam="1">  1       21 0.64514365E-02 0.30000000E+03</pdfrwt>
<pdfrwt beam="2">0</pdfrwt>
<totfact> 0.18589809E+04</totfact>
</mgrwt>
</event>
<event>
 6    1  0.1270461E-001  0.3000000E+03  0.7818608E-02  0.1093470E+00
         21   -1    0    0  501  502  0.00000000000E+00  0.00000000000E+00  0.19019108516E+01  0.19019108516E+01  0.00000000000E+00 0. -1.
         13   -1    0    0    0    0 -0.00000000000E+00 -0.00000000000E+00 -0.10000000000E+04  0.10000000000E+04  0.00000000000E+00 0.  1.
    9000005    2    1    2  501    0 -0.26294517384E+02 -0.21210126771E+02 -0.81539051755E+03  0.81609736881E+03  0.34566102176E+01 0.  0.
         13    1    3    3    0    0 -0.15717330202E+01 -0.24412315228E+01 -0.76968834798E+02  0.77023577470E+02  0.00000000000E+00 0.  1.
          3    1    3    3  501    0 -0.24722784364E+02 -0.18768895248E+02 -0.73842168275E+03  0.73907379134E+03  0.00000000000E+00 0.  1.
         -3    1    1    2    0  502  0.26294517384E+02  0.21210126771E+02 -0.18270757160E+03  0.18580454204E+03  0.00000000000E+00 0. -1.
<mgrwt>
<rscale>  1 0.30000000E+03</rscale>
<asrwt>0</asrwt>
<pdfrwt beam="1">  1       21 0.69160540E-02 0.30000000E+03</pdfrwt>
<pdfrwt beam="2">0</pdfrwt>
<totfact> 0.16477490E+04</totfact>
</mgrwt>
</event>
<event>
 6    1  0.1270461E-001  0.3000000E+03  0.7818608E-02  0.1093470E+00
         21   -1    0    0  501  502  0.00000000000E+00  0.00000000000E+00  0.14913806260E+01  0.14913806260E+01  0.00000000000E+00 0. -1.
         13   -1    0    0    0    0 -0.00000000000E+00 -0.00000000000E+00 -0.10000000000E+04  0.10000000000E+04  0.00000000000E+00 0.  1.
    9000005    2    1    2  501    0 -0.93923529414E+01  0.32108788700E+02 -0.74844679927E+03  0.74920165733E+03  0.33647299044E+01 0.  0.
         13    1    3    3    0    0 -0.91904232710E+01  0.28531878895E+02 -0.65298848510E+03  0.65367613822E+03  0.00000000000E+00 0.  1.
          3    1    3    3  501    0 -0.20192967036E+00  0.35769098049E+01 -0.95458314164E+02  0.95525519116E+02  0.00000000000E+00 0.  1.
         -3    1    1    2    0  502  0.93923529414E+01 -0.32108788700E+02 -0.25006182011E+03  0.25228972329E+03  0.00000000000E+00 0. -1.
<mgrwt>
<rscale>  1 0.30000000E+03</rscale>
<asrwt>0</asrwt>
<pdfrwt beam="1">  1       21 0.54232137E-02 0.30000000E+03</pdfrwt>
<pdfrwt beam="2">0</pdfrwt>
<totfact> 0.25071021E+04</totfact>
</mgrwt>
</event>
<event>
 6    1  0.1270461E-001  0.3000000E+03  0.7818608E-02  0.1093470E+00
         21   -1    0    0  501  502  0.00000000000E+00  0.00000000000E+00  0.14594800408E+01  0.14594800408E+01  0.00000000000E+00 0. -1.
         13   -1    0    0    0    0 -0.00000000000E+00 -0.00000000000E+00 -0.10000000000E+04  0.10000000000E+04  0.00000000000E+00 0.  1.
    9000005    2    1    2  501    0  0.17167095337E+02 -0.27270261051E+02 -0.76739371513E+03  0.76807734345E+03  0.33638058192E+01 0.  0.
         13    1    3    3    0    0  0.13638504225E+02 -0.23540713909E+02 -0.62772414623E+03  0.62831343911E+03  0.00000000000E+00 0.  1.
          3    1    3    3  501    0  0.35285911116E+01 -0.37295471426E+01 -0.13966956891E+03  0.13976390434E+03  0.00000000000E+00 0.  1.
         -3    1    1    2    0  502 -0.17167095337E+02  0.27270261051E+02 -0.23114680482E+03  0.23338213659E+03  0.00000000000E+00 0. -1.
<mgrwt>
<rscale>  1 0.30000000E+03</rscale>
<asrwt>0</asrwt>
<pdfrwt beam="1">  1       21 0.53072113E-02 0.30000000E+03</pdfrwt>
<pdfrwt beam="2">0</pdfrwt>
<totfact> 0.26016289E+04</totfact>
</mgrwt>
</event>
<event>
 6    1  0.1270461E-001  0.3000000E+03  0.7818608E-02  0.1093470E+00
         21   -1    0    0  501  502  0.00000000000E+00  0.00000000000E+00  0.19425505573E+01  0.19425505573E+01  0.00000000000E+00 0. -1.
         13   -1    0    0    0    0 -0.00000000000E+00 -0.00000000000E+00 -0.10000000000E+04  0.10000000000E+04  0.00000000000E+00 0.  1.
    9000005    2    1    2  501    0 -0.30267541223E+02 -0.13447247367E+02 -0.82923632849E+03  0.82990324286E+03  0.30905513311E+01 0.  0.
         13    1    3    3    0    0 -0.12778375892E+02 -0.52070515601E+01 -0.38237976513E+03  0.38262865164E+03  0.00000000000E+00 0.  1.
          3    1    3    3  501    0 -0.17489165331E+02 -0.82401958072E+01 -0.44685656336E+03  0.44727459122E+03  0.00000000000E+00 0.  1.
         -3    1    1    2    0  502  0.30267541223E+02  0.13447247367E+02 -0.16882112096E+03  0.17203930770E+03  0.00000000000E+00 0. -1.
<mgrwt>
<rscale>  1 0.30000000E+03</rscale>
<asrwt>0</asrwt>
<pdfrwt beam="1">  1       21 0.70638351E-02 0.30000000E+03</pdfrwt>
<pdfrwt beam="2">0</pdfrwt>
<totfact> 0.15882280E+04</totfact>
</mgrwt>
</event>
<event>
 6    1  0.1270461E-001  0.3000000E+03  0.7818608E-02  0.1093470E+00
         21   -1    0    0  501  502  0.00000000000E+00  0.00000000000E+00  0.23043082226E+01  0.23043082226E+01  0.00000000000E+00 0. -1.
         13   -1    0    0    0    0 -0.00000000000E+00 -0.00000000000E+00 -0.10000000000E+04  0.10000000000E+04  0.00000000000E+00 0.  1.
    9000005    2    1    2  501    0 -0.17511918619E+02 -0.41135710607E+02 -0.68031867218E+03  0.68179379896E+03  0.32364485562E+01 0.  0.
         13    1    3    3    0    0 -0.10951960326E+02 -0.24937967875E+02 -0.43760603898E+03  0.43845284014E+03  0.00000000000E+00 0.  1.
          3    1    3    3  501    0 -0.65599582935E+01 -0.16197742732E+02 -0.24271263321E+03  0.24334095882E+03  0.00000000000E+00 0.  1.
         -1    1    1    2    0  502  0.17511918619E+02  0.41135710607E+02 -0.31737701960E+03  0.32051050926E+03  0.00000000000E+00 0. -1.
<mgrwt>
<rscale>  1 0.30000000E+03</rscale>
<asrwt>0</asrwt>
<pdfrwt beam="1">  1       21 0.83793203E-02 0.30000000E+03</pdfrwt>
<pdfrwt beam="2">0</pdfrwt>
<totfact> 0.11774291E+04</totfact>
</mgrwt>
</event>
<event>
 6    1  0.1270461E-001  0.3000000E+03  0.7818608E-02  0.1093470E+00
         21   -1    0    0  501  502  0.00000000000E+00  0.00000000000E+00  0.15207536548E+01  0.15207536548E+01  0.00000000000E+00 0. -1.
         13   -1    0    0    0    0 -0.00000000000E+00 -0.00000000000E+00 -0.10000000000E+04  0.10000000000E+04  0.00000000000E+00 0.  1.
    9000005    2    1    2  501    0 -0.91373288332E+01  0.33960445998E+02 -0.28567057419E+03  0.28784505295E+03  0.32085638020E+01 0.  0.
         13    1    3    3    0    0 -0.53393572655E+01  0.14293029520E+02 -0.12898655044E+03  0.12988583303E+03  0.00000000000E+00 0.  1.
          1    1    3    3  501    0 -0.37979715677E+01  0.19667416477E+02 -0.15668402375E+03  0.15795921992E+03  0.00000000000E+00 0.  1.
         -3    1    1    2    0  502  0.91373288332E+01 -0.33960445998E+02 -0.71280867216E+03  0.71367570070E+03  0.00000000000E+00 0. -1.
<mgrwt>
<rscale>  1 0.30000000E+03</rscale>
<asrwt>0</asrwt>
<pdfrwt beam="1">  1       21 0.55300250E-02 0.30000000E+03</pdfrwt>
<pdfrwt beam="2">0</pdfrwt>
<totfact> 0.24246698E+04</totfact>
</mgrwt>
</event>
<event>
 6    1  0.1270461E-001  0.3000000E+03  0.7818608E-02  0.1093470E+00
         21   -1    0    0  501  502  0.00000000000E+00  0.00000000000E+00  0.50722391393E+01  0.50722391393E+01  0.00000000000E+00 0. -1.
         13   -1    0    0    0    0 -0.00000000000E+00 -0.00000000000E+00 -0.10000000000E+04  0.10000000000E+04  0.00000000000E+00 0.  1.
    9000005    2    1    2  501    0 -0.32493340465E+02 -0.57827623046E+02 -0.67983221621E+03  0.68307060340E+03  0.37088902346E+01 0.  0.
         13    1    3    3    0    0 -0.87660160561E+01 -0.13863467611E+02 -0.18235267830E+03  0.18308888021E+03  0.00000000000E+00 0.  1.
          1    1    3    3  501    0 -0.23727324409E+02 -0.43964155435E+02 -0.49747953790E+03  0.49998172319E+03  0.00000000000E+00 0.  1.
         -3    1    1    2    0  502  0.32493340465E+02  0.57827623046E+02 -0.31509554465E+03  0.32200163574E+03  0.00000000000E+00 0. -1.
<mgrwt>
<rscale>  1 0.30000000E+03</rscale>
<asrwt>0</asrwt>
<pdfrwt beam="1">  1       21 0.18444545E-01 0.30000000E+03</pdfrwt>
<pdfrwt beam="2">0</pdfrwt>
<totfact> 0.27978140E+03</totfact>
</mgrwt>
</event>
<event>
 6    1  0.1270461E-001  0.3000000E+03  0.7818608E-02  0.1093470E+00
         21   -1    0    0  501  502  0.00000000000E+00  0.00000000000E+00  0.23393517200E+01  0.23393517200E+01  0.00000000000E+00 0. -1.
         13   -1    0    0    0    0 -0.00000000000E+00 -0.00000000000E+00 -0.10000000000E+04  0.10000000000E+04  0.00000000000E+00 0.  1.
    9000005    2    1    2  501    0  0.39969434134E+02  0.47470671471E+01 -0.77627647013E+03  0.77732591957E+03  0.32150973313E+01 0.  0.
         13    1    3    3    0    0  0.36469521232E+02  0.38913018906E+01 -0.72088097464E+03  0.72181337464E+03  0.00000000000E+00 0.  1.
          1    1    3    3  501    0  0.34999129015E+01  0.85576525654E+00 -0.55395495493E+02  0.55512544937E+02  0.00000000000E+00 0.  1.
         -3    1    1    2    0  502 -0.39969434134E+02 -0.47470671471E+01 -0.22138417815E+03  0.22501343215E+03  0.00000000000E+00 0. -1.
<mgrwt>
<rscale>  1 0.30000000E+03</rscale>
<asrwt>0</asrwt>
<pdfrwt beam="1">  1       21 0.85067515E-02 0.30000000E+03</pdfrwt>
<pdfrwt beam="2">0</pdfrwt>
<totfact> 0.11465198E+04</totfact>
</mgrwt>
</event>
<event>
 6    1  0.1270461E-001  0.3000000E+03  0.7818608E-02  0.1093470E+00
         21   -1    0    0  501  502  0.00000000000E+00  0.00000000000E+00  0.25142146372E+01  0.25142146372E+01  0.00000000000E+00 0. -1.
         13   -1    0    0    0    0 -0.00000000000E+00 -0.00000000000E+00 -0.10000000000E+04  0.10000000000E+04  0.00000000000E+00 0.  1.
    9000005    2    1    2  501    0 -0.37024802206E+02  0.63764002962E+01 -0.83022912267E+03  0.83108992910E+03  0.43104120077E+01 0.  0.
         13    1    3    3    0    0 -0.18949825456E+02  0.37409086330E+01 -0.47276699755E+03  0.47316141458E+03  0.00000000000E+00 0.  1.
          1    1    3    3  501    0 -0.18074976750E+02  0.26354916632E+01 -0.35746212513E+03  0.35792851451E+03  0.00000000000E+00 0.  1.
         -3    1    1    2    0  502  0.37024802206E+02 -0.63764002962E+01 -0.16725666269E+03  0.17142428554E+03  0.00000000000E+00 0. -1.
<mgrwt>
<rscale>  1 0.30000000E+03</rscale>
<asrwt>0</asrwt>
<pdfrwt beam="1">  1       21 0.91426180E-02 0.30000000E+03</pdfrwt>
<pdfrwt beam="2">0</pdfrwt>
<totfact> 0.10092797E+04</totfact>
</mgrwt>
</event>
<event>
 6    1  0.1270461E-001  0.3000000E+03  0.7818608E-02  0.1093470E+00
         21   -1    0    0  501  502  0.00000000000E+00  0.00000000000E+00  0.18612335200E+01  0.18612335200E+01  0.00000000000E+00 0. -1.
         13   -1    0    0    0    0 -0.00000000000E+00 -0.00000000000E+00 -0.10000000000E+04  0.10000000000E+04  0.00000000000E+00 0.  1.
    9000005    2    1    2  501    0 -0.30126127542E+02  0.28691121562E+01 -0.85556432632E+03  0.85611046559E+03  0.43586071425E+01 0.  0.
         13    1    3    3    0    0 -0.16149587088E+01  0.28543062877E+00 -0.25547821153E+02  0.25600404839E+02  0.00000000000E+00 0.  1.
          1    1    3    3  501    0 -0.28511168833E+02  0.25836815274E+01 -0.83001650517E+03  0.83051006075E+03  0.00000000000E+00 0.  1.
         -3    1    1    2    0  502  0.30126127542E+02 -0.28691121562E+01 -0.14257444016E+03  0.14575076793E+03  0.00000000000E+00 0. -1.
<mgrwt>
<rscale>  1 0.30000000E+03</rscale>
<asrwt>0</asrwt>
<pdfrwt beam="1">  1       21 0.67681362E-02 0.30000000E+03</pdfrwt>
<pdfrwt beam="2">0</pdfrwt>
<totfact> 0.17108141E+04</totfact>
</mgrwt>
</event>
<event>
 6    1  0.1270461E-001  0.3000000E+03  0.7818608E-02  0.1093470E+00
         21   -1    0    0  501  502  0.00000000000E+00  0.00000000000E+00  0.20343460026E+01  0.20343460026E+01  0.00000000000E+00 0. -1.
         13   -1    0    0    0    0 -0.00000000000E+00 -0.00000000000E+00 -0.10000000000E+04  0.10000000000E+04  0.00000000000E+00 0.  1.
    9000005    2    1    2  501    0 -0.50521616589E+01 -0.36742837879E+02 -0.78338932731E+03  0.78427631412E+03  0.38650072022E+01 0.  0.
         13    1    3    3    0    0 -0.41936469412E+01 -0.19416961160E+02 -0.44331010601E+03  0.44375494943E+03  0.00000000000E+00 0.  1.
          1    1    3    3  501    0 -0.85851471767E+00 -0.17325876719E+02 -0.34007922130E+03  0.34052136469E+03  0.00000000000E+00 0.  1.
         -1    1    1    2    0  502  0.50521616589E+01  0.36742837879E+02 -0.21457632669E+03  0.21775803188E+03  0.00000000000E+00 0. -1.
<mgrwt>
<rscale>  1 0.30000000E+03</rscale>
<asrwt>0</asrwt>
<pdfrwt beam="1">  1       21 0.73976374E-02 0.30000000E+03</pdfrwt>
<pdfrwt beam="2">0</pdfrwt>
<totfact> 0.14652669E+04</totfact>
</mgrwt>
</event>
<event>
 6    1  0.1270461E-001  0.3000000E+03  0.7818608E-02  0.1093470E+00
         21   -1    0    0  501  502  0.00000000000E+00  0.00000000000E+00  0.39334527703E+01  0.39334527703E+01  0.00000000000E+00 0. -1.
         13   -1    0    0    0    0 -0.00000000000E+00 -0.00000000000E+00 -0.10000000000E+04  0.10000000000E+04  0.00000000000E+00 0.  1.
    9000005    2    1    2  501    0 -0.34771068402E+02 -0.18275934503E+02 -0.88922833691E+03  0.89010270049E+03  0.35700533103E+01 0.  0.
         13    1    3    3    0    0 -0.91718863052E+01 -0.53372912285E+01 -0.20739242212E+03  0.20766373523E+03  0.00000000000E+00 0.  1.
          1    1    3    3  501    0 -0.25599182097E+02 -0.12938643275E+02 -0.68183591479E+03  0.68243896527E+03  0.00000000000E+00 0.  1.
         -1    1    1    2    0  502  0.34771068402E+02  0.18275934503E+02 -0.10683821032E+03  0.11383075228E+03  0.00000000000E+00 0. -1.
<mgrwt>
<rscale>  1 0.30000000E+03</rscale>
<asrwt>0</asrwt>
<pdfrwt beam="1">  1       21 0.14303495E-01 0.30000000E+03</pdfrwt>
<pdfrwt beam="2">0</pdfrwt>
<totfact> 0.44957942E+03</totfact>
</mgrwt>
</event>
<event>
 6    1  0.1270461E-001  0.3000000E+03  0.7818608E-02  0.1093470E+00
         21   -1    0    0  501  502  0.00000000000E+00  0.00000000000E+00  0.15224802522E+01  0.15224802522E+01  0.00000000000E+00 0. -1.
         13   -1    0    0    0    0 -0.00000000000E+00 -0.00000000000E+00 -0.10000000000E+04  0.10000000000E+04  0.00000000000E+00 0.  1.
    9000005    2    1    2  501    0 -0.35709674502E+02  0.70566382995E+00 -0.69920268431E+03  0.70012389708E+03  0.36604228886E+01 0.  0.
         13    1    3    3    0    0 -0.81282300083E+01 -0.13744419439E+01 -0.16182251278E+03  0.16203235126E+03  0.00000000000E+00 0.  1.
          1    1    3    3  501    0 -0.27581444493E+02  0.20801057739E+01 -0.53738017154E+03  0.53809154582E+03  0.00000000000E+00 0.  1.
         -3    1    1    2    0  502  0.35709674502E+02 -0.70566382995E+00 -0.29927483544E+03  0.30139858317E+03  0.00000000000E+00 0. -1.
<mgrwt>
<rscale>  1 0.30000000E+03</rscale>
<asrwt>0</asrwt>
<pdfrwt beam="1">  1       21 0.55363035E-02 0.30000000E+03</pdfrwt>
<pdfrwt beam="2">0</pdfrwt>
<totfact> 0.24199547E+04</totfact>
</mgrwt>
</event>
<event>
 6    1  0.1270461E-001  0.3000000E+03  0.7818608E-02  0.1093470E+00
         21   -1    0    0  501  502  0.00000000000E+00  0.00000000000E+00  0.21703065995E+01  0.21703065995E+01  0.00000000000E+00 0. -1.
         13   -1    0    0    0    0 -0.00000000000E+00 -0.00000000000E+00 -0.10000000000E+04  0.10000000000E+04  0.00000000000E+00 0.  1.
    9000005    2    1    2  501    0  0.34631504918E+02  0.62188907289E+01 -0.82700055206E+03  0.82775525202E+03  0.32906526788E+01 0.  0.
         13    1    3    3    0    0  0.32752194091E+02  0.64380435338E+01 -0.79286889975E+03  0.79357119832E+03  0.00000000000E+00 0.  1.
          1    1    3    3  501    0  0.18793108270E+01 -0.21915280487E+00 -0.34131652315E+02  0.34184053693E+02  0.00000000000E+00 0.  1.
         -3    1    1    2    0  502 -0.34631504918E+02 -0.62188907289E+01 -0.17082914134E+03  0.17441505458E+03  0.00000000000E+00 0. -1.
<mgrwt>
<rscale>  1 0.30000000E+03</rscale>
<asrwt>0</asrwt>
<pdfrwt beam="1">  1       21 0.78920406E-02 0.30000000E+03</pdfrwt>
<pdfrwt beam="2">0</pdfrwt>
<totfact> 0.13082261E+04</totfact>
</mgrwt>
</event>
<event>
 6    1  0.1270461E-001  0.3000000E+03  0.7818608E-02  0.1093470E+00
         21   -1    0    0  501  502  0.00000000000E+00  0.00000000000E+00  0.41970312291E+01  0.41970312291E+01  0.00000000000E+00 0. -1.
         13   -1    0    0    0    0 -0.00000000000E+00 -0.00000000000E+00 -0.10000000000E+04  0.10000000000E+04  0.00000000000E+00 0.  1.
    9000005    2    1    2  501    0 -0.86653668163E+01  0.38764960547E+02 -0.89445867512E+03  0.89534632336E+03  0.33025000967E+01 0.  0.
         13    1    3    3    0    0 -0.62883637341E+01  0.20765166814E+02 -0.47907861617E+03  0.47956965723E+03  0.00000000000E+00 0.  1.
          1    1    3    3  501    0 -0.23770030822E+01  0.17999793733E+02 -0.41538005895E+03  0.41577666613E+03  0.00000000000E+00 0.  1.
         -3    1    1    2    0  502  0.86653668163E+01 -0.38764960547E+02 -0.10134429365E+03  0.10885070787E+03  0.00000000000E+00 0. -1.
<mgrwt>
<rscale>  1 0.30000000E+03</rscale>
<asrwt>0</asrwt>
<pdfrwt beam="1">  1       21 0.15261964E-01 0.30000000E+03</pdfrwt>
<pdfrwt beam="2">0</pdfrwt>
<totfact> 0.39880287E+03</totfact>
</mgrwt>
</event>
<event>
 6    1  0.1270461E-001  0.3000000E+03  0.7818608E-02  0.1093470E+00
         21   -1    0    0  501  502  0.00000000000E+00  0.00000000000E+00  0.13385962831E+01  0.13385962831E+01  0.00000000000E+00 0. -1.
         13   -1    0    0    0    0 -0.00000000000E+00 -0.00000000000E+00 -0.10000000000E+04  0.10000000000E+04  0.00000000000E+00 0.  1.
    9000005    2    1    2  501    0 -0.23036137330E+02 -0.19907870101E+02 -0.77569876600E+03  0.77630676580E+03  0.40782509187E+01 0.  0.
         13    1    3    3    0    0 -0.20742431007E+01 -0.52540322970E+00 -0.63327254272E+02  0.63363393742E+02  0.00000000000E+00 0.  1.
          1    1    3    3  501    0 -0.20961894229E+02 -0.19382466871E+02 -0.71237151173E+03  0.71294337205E+03  0.00000000000E+00 0.  1.
         -3    1    1    2    0  502  0.23036137330E+02  0.19907870101E+02 -0.22296263772E+03  0.22503183049E+03  0.00000000000E+00 0. -1.
<mgrwt>
<rscale>  1 0.30000000E+03</rscale>
<asrwt>0</asrwt>
<pdfrwt beam="1">  1       21 0.48676331E-02 0.30000000E+03</pdfrwt>
<pdfrwt beam="2">0</pdfrwt>
<totfact> 0.30151839E+04</totfact>
</mgrwt>
</event>
<event>
 6    1  0.1270461E-001  0.3000000E+03  0.7818608E-02  0.1093470E+00
         21   -1    0    0  501  502  0.00000000000E+00  0.00000000000E+00  0.14400282952E+01  0.14400282952E+01  0.00000000000E+00 0. -1.
         13   -1    0    0    0    0 -0.00000000000E+00 -0.00000000000E+00 -0.10000000000E+04  0.10000000000E+04  0.00000000000E+00 0.  1.
    9000005    2    1    2  501    0  0.23270015049E+02  0.20997554804E+02 -0.78126410398E+03  0.78189530611E+03  0.20684884954E+01 0.  0.
         13    1    3    3    0    0  0.41690465903E+01  0.45883414317E+01 -0.16846937119E+03  0.16858340029E+03  0.00000000000E+00 0.  1.
          3    1    3    3  501    0  0.19100968458E+02  0.16409213373E+02 -0.61279473279E+03  0.61331190582E+03  0.00000000000E+00 0.  1.
         -3    1    1    2    0  502 -0.23270015049E+02 -0.20997554804E+02 -0.21729586773E+03  0.21954472218E+03  0.00000000000E+00 0. -1.
<mgrwt>
<rscale>  1 0.30000000E+03</rscale>
<asrwt>0</asrwt>
<pdfrwt beam="1">  1       21 0.52364776E-02 0.30000000E+03</pdfrwt>
<pdfrwt beam="2">0</pdfrwt>
<totfact> 0.26620015E+04</totfact>
</mgrwt>
</event>
<event>
 6    1  0.1270461E-001  0.3000000E+03  0.7818608E-02  0.1093470E+00
         21   -1    0    0  501  502  0.00000000000E+00  0.00000000000E+00  0.28461915023E+01  0.28461915023E+01  0.00000000000E+00 0. -1.
         13   -1    0    0    0    0 -0.00000000000E+00 -0.00000000000E+00 -0.10000000000E+04  0.10000000000E+04  0.00000000000E+00 0.  1.
    9000005    2    1    2  501    0  0.21743488442E+02  0.29283808819E+02 -0.86432684127E+03  0.86510250210E+03  0.33361419398E+01 0.  0.
         13    1    3    3    0    0  0.60914782214E+01  0.61981507905E+01 -0.18783247697E+03  0.18803340816E+03  0.00000000000E+00 0.  1.
          3    1    3    3  501    0  0.15652010220E+02  0.23085658028E+02 -0.67649436430E+03  0.67706909393E+03  0.00000000000E+00 0.  1.
         -3    1    1    2    0  502 -0.21743488442E+02 -0.29283808819E+02 -0.13282696723E+03  0.13774368941E+03  0.00000000000E+00 0. -1.
<mgrwt>
<rscale>  1 0.30000000E+03</rscale>
<asrwt>0</asrwt>
<pdfrwt beam="1">  1       21 0.10349809E-01 0.30000000E+03</pdfrwt>
<pdfrwt beam="2">0</pdfrwt>
<totfact> 0.80900214E+03</totfact>
</mgrwt>
</event>
<event>
 6    1  0.1270461E-001  0.3000000E+03  0.7818608E-02  0.1093470E+00
         21   -1    0    0  501  502  0.00000000000E+00  0.00000000000E+00  0.14651412980E+01  0.14651412980E+01  0.00000000000E+00 0. -1.
         13   -1    0    0    0    0 -0.00000000000E+00 -0.00000000000E+00 -0.10000000000E+04  0.10000000000E+04  0.00000000000E+00 0.  1.
    9000005    2    1    2  501    0  0.32430867306E+02 -0.85563652607E+01 -0.73965450434E+03  0.74042106376E+03  0.30973109877E+01 0.  0.
         13    1    3    3    0    0  0.13598440974E+02 -0.44114955418E+01 -0.34399610695E+03  0.34429304449E+03  0.00000000000E+00 0.  1.
          1    1    3    3  501    0  0.18832426332E+02 -0.41448697189E+01 -0.39565839739E+03  0.39612801927E+03  0.00000000000E+00 0.  1.
         -3    1    1    2    0  502 -0.32430867306E+02  0.85563652607E+01 -0.25888035436E+03  0.26104407754E+03  0.00000000000E+00 0. -1.
<mgrwt>
<rscale>  1 0.30000000E+03</rscale>
<asrwt>0</asrwt>
<pdfrwt beam="1">  1       21 0.53277978E-02 0.30000000E+03</pdfrwt>
<pdfrwt beam="2">0</pdfrwt>
<totfact> 0.25844557E+04</totfact>
</mgrwt>
</event>
<event>
 6    1  0.1270461E-001  0.3000000E+03  0.7818608E-02  0.1093470E+00
         21   -1    0    0  501  502  0.00000000000E+00  0.00000000000E+00  0.17336792383E+01  0.17336792383E+01  0.00000000000E+00 0. -1.
         13   -1    0    0    0    0 -0.00000000000E+00 -0.00000000000E+00 -0.10000000000E+04  0.10000000000E+04  0.00000000000E+00 0.  1.
    9000005    2    1    2  501    0  0.37527470690E+02 -0.15814875195E+02 -0.60012849572E+03  0.60151855076E+03  0.34545911230E+01 0.  0.
         13    1    3    3    0    0  0.27838179124E+02 -0.10811190975E+02 -0.42017662914E+03  0.42123656743E+03  0.00000000000E+00 0.  1.
          3    1    3    3  501    0  0.96892915654E+01 -0.50036842204E+01 -0.17995186658E+03  0.18028198333E+03  0.00000000000E+00 0.  1.
         -1    1    1    2    0  502 -0.37527470690E+02  0.15814875195E+02 -0.39813782504E+03  0.40021512848E+03  0.00000000000E+00 0. -1.
<mgrwt>
<rscale>  1 0.30000000E+03</rscale>
<asrwt>0</asrwt>
<pdfrwt beam="1">  1       21 0.63043014E-02 0.30000000E+03</pdfrwt>
<pdfrwt beam="2">0</pdfrwt>
<totfact> 0.19346574E+04</totfact>
</mgrwt>
</event>
<event>
 6    1  0.1270461E-001  0.3000000E+03  0.7818608E-02  0.1093470E+00
         21   -1    0    0  501  502  0.00000000000E+00  0.00000000000E+00  0.14043879466E+01  0.14043879466E+01  0.00000000000E+00 0. -1.
         13   -1    0    0    0    0 -0.00000000000E+00 -0.00000000000E+00 -0.10000000000E+04  0.10000000000E+04  0.00000000000E+00 0.  1.
    9000005    2    1    2  501    0 -0.17347510483E+02  0.32833919900E+02 -0.44098312247E+03  0.44255674238E+03  0.33694964943E+01 0.  0.
         13    1    3    3    0    0 -0.93504571725E+00  0.79875851957E+00 -0.10615529320E+02  0.10686523682E+02  0.00000000000E+00 0.  1.
          3    1    3    3  501    0 -0.16412464765E+02  0.32035161381E+02 -0.43036759315E+03  0.43187021870E+03  0.00000000000E+00 0.  1.
         -1    1    1    2    0  502  0.17347510483E+02 -0.32833919900E+02 -0.55761248959E+03  0.55884764557E+03  0.00000000000E+00 0. -1.
<mgrwt>
<rscale>  1 0.30000000E+03</rscale>
<asrwt>0</asrwt>
<pdfrwt beam="1">  1       21 0.51068760E-02 0.30000000E+03</pdfrwt>
<pdfrwt beam="2">0</pdfrwt>
<totfact> 0.27784067E+04</totfact>
</mgrwt>
</event>
<event>
 6    1  0.1270461E-001  0.3000000E+03  0.7818608E-02  0.1093470E+00
         21   -1    0    0  501  502  0.00000000000E+00  0.00000000000E+00  0.18641795886E+01  0.18641795886E+01  0.00000000000E+00 0. -1.
         13   -1    0    0    0    0 -0.00000000000E+00 -0.00000000000E+00 -0.10000000000E+04  0.10000000000E+04  0.00000000000E+00 0.  1.
    9000005    2    1    2  501    0  0.14150190411E+02  0.39142376631E+02 -0.63022341854E+03  0.63160496095E+03  0.33039191929E+01 0.  0.
         13    1    3    3    0    0  0.88864740280E+01  0.27330800340E+02 -0.45248166731E+03  0.45339342884E+03  0.00000000000E+00 0.  1.
          1    1    3    3  501    0  0.52637163833E+01  0.11811576290E+02 -0.17774175124E+03  0.17821153211E+03  0.00000000000E+00 0.  1.
         -1    1    1    2    0  502 -0.14150190411E+02 -0.39142376631E+02 -0.36791240187E+03  0.37025921864E+03  0.00000000000E+00 0. -1.
<mgrwt>
<rscale>  1 0.30000000E+03</rscale>
<asrwt>0</asrwt>
<pdfrwt beam="1">  1       21 0.67788492E-02 0.30000000E+03</pdfrwt>
<pdfrwt beam="2">0</pdfrwt>
<totfact> 0.17061231E+04</totfact>
</mgrwt>
</event>
<event>
 6    1  0.1270461E-001  0.3000000E+03  0.7818608E-02  0.1093470E+00
         21   -1    0    0  501  502  0.00000000000E+00  0.00000000000E+00  0.99965279837E+00  0.99965279837E+00  0.00000000000E+00 0. -1.
         13   -1    0    0    0    0 -0.00000000000E+00 -0.00000000000E+00 -0.10000000000E+04  0.10000000000E+04  0.00000000000E+00 0.  1.
    9000005    2    1    2  501    0  0.29871995519E+02 -0.51546091940E+01 -0.63921555595E+03  0.63994009797E+03  0.28099675118E+01 0.  0.
         13    1    3    3    0    0  0.21262750695E+02 -0.29617024475E+01 -0.42878058056E+03  0.42931767086E+03  0.00000000000E+00 0.  1.
          3    1    3    3  501    0  0.86092448242E+01 -0.21929067465E+01 -0.21043497539E+03  0.21062242711E+03  0.00000000000E+00 0.  1.
         -3    1    1    2    0  502 -0.29871995519E+02  0.51546091940E+01 -0.35978479126E+03  0.36105955483E+03  0.00000000000E+00 0. -1.
<mgrwt>
<rscale>  1 0.30000000E+03</rscale>
<asrwt>0</asrwt>
<pdfrwt beam="1">  1       21 0.36351088E-02 0.30000000E+03</pdfrwt>
<pdfrwt beam="2">0</pdfrwt>
<totfact> 0.49379948E+04</totfact>
</mgrwt>
</event>
<event>
 6    1  0.1270461E-001  0.3000000E+03  0.7818608E-02  0.1093470E+00
         21   -1    0    0  501  502  0.00000000000E+00  0.00000000000E+00  0.17414068666E+01  0.17414068666E+01  0.00000000000E+00 0. -1.
         13   -1    0    0    0    0 -0.00000000000E+00 -0.00000000000E+00 -0.10000000000E+04  0.10000000000E+04  0.00000000000E+00 0.  1.
    9000005    2    1    2  501    0  0.18934321407E+02  0.24682485377E+02 -0.83250758058E+03  0.83309641947E+03  0.36109277510E+01 0.  0.
         13    1    3    3    0    0  0.18040827974E+01  0.19195958332E+01 -0.48590071110E+02  0.48661427984E+02  0.00000000000E+00 0.  1.
          3    1    3    3  501    0  0.17130238610E+02  0.22762889543E+02 -0.78391750947E+03  0.78443499148E+03  0.00000000000E+00 0.  1.
         -3    1    1    2    0  502 -0.18934321407E+02 -0.24682485377E+02 -0.16575101256E+03  0.16864498740E+03  0.00000000000E+00 0. -1.
<mgrwt>
<rscale>  1 0.30000000E+03</rscale>
<asrwt>0</asrwt>
<pdfrwt beam="1">  1       21 0.63324020E-02 0.30000000E+03</pdfrwt>
<pdfrwt beam="2">0</pdfrwt>
<totfact> 0.19198403E+04</totfact>
</mgrwt>
</event>
<event>
 6    1  0.1270461E-001  0.3000000E+03  0.7818608E-02  0.1093470E+00
         21   -1    0    0  501  502  0.00000000000E+00  0.00000000000E+00  0.15125112088E+01  0.15125112088E+01  0.00000000000E+00 0. -1.
         13   -1    0    0    0    0 -0.00000000000E+00 -0.00000000000E+00 -0.10000000000E+04  0.10000000000E+04  0.00000000000E+00 0.  1.
    9000005    2    1    2  501    0 -0.26928773161E+02 -0.20880304326E+02 -0.73934244075E+03  0.74013672454E+03  0.37390353528E+01 0.  0.
         13    1    3    3    0    0 -0.10288153692E+02 -0.96837991627E+01 -0.27885730273E+03  0.27921500203E+03  0.00000000000E+00 0.  1.
          3    1    3    3  501    0 -0.16640619469E+02 -0.11196505163E+02 -0.46048513801E+03  0.46092172250E+03  0.00000000000E+00 0.  1.
         -3    1    1    2    0  502  0.26928773161E+02  0.20880304326E+02 -0.25914504804E+03  0.26137578667E+03  0.00000000000E+00 0. -1.
<mgrwt>
<rscale>  1 0.30000000E+03</rscale>
<asrwt>0</asrwt>
<pdfrwt beam="1">  1       21 0.55000524E-02 0.30000000E+03</pdfrwt>
<pdfrwt beam="2">0</pdfrwt>
<totfact> 0.24473750E+04</totfact>
</mgrwt>
</event>
<event>
 6    1  0.1270461E-001  0.3000000E+03  0.7818608E-02  0.1093470E+00
         21   -1    0    0  501  502  0.00000000000E+00  0.00000000000E+00  0.24100720430E+01  0.24100720430E+01  0.00000000000E+00 0. -1.
         13   -1    0    0    0    0 -0.00000000000E+00 -0.00000000000E+00 -0.10000000000E+04  0.10000000000E+04  0.00000000000E+00 0.  1.
    9000005    2    1    2  501    0  0.21962612721E+02 -0.23939014188E+02 -0.87355228727E+03  0.87418850964E+03  0.75179142315E+01 0.  0.
         13    1    3    3    0    0  0.33663232815E+01 -0.59117553795E+01 -0.26149168239E+03  0.26158016160E+03  0.00000000000E+00 0.  1.
          1    1    3    3  501    0  0.18596289439E+02 -0.18027258809E+02 -0.61206060488E+03  0.61260834804E+03  0.00000000000E+00 0.  1.
         -3    1    1    2    0  502 -0.21962612721E+02  0.23939014188E+02 -0.12403764068E+03  0.12822156240E+03  0.00000000000E+00 0. -1.
<mgrwt>
<rscale>  1 0.30000000E+03</rscale>
<asrwt>0</asrwt>
<pdfrwt beam="1">  1       21 0.87639168E-02 0.30000000E+03</pdfrwt>
<pdfrwt beam="2">0</pdfrwt>
<totfact> 0.10877921E+04</totfact>
</mgrwt>
</event>
<event>
 6    1  0.1270461E-001  0.3000000E+03  0.7818608E-02  0.1093470E+00
         21   -1    0    0  501  502  0.00000000000E+00  0.00000000000E+00  0.15644792667E+01  0.15644792667E+01  0.00000000000E+00 0. -1.
         13   -1    0    0    0    0 -0.00000000000E+00 -0.00000000000E+00 -0.10000000000E+04  0.10000000000E+04  0.00000000000E+00 0.  1.
    9000005    2    1    2  501    0 -0.13290680202E+01  0.39270221544E+02 -0.51896192589E+03  0.52048356625E+03  0.61437354902E+01 0.  0.
         13    1    3    3    0    0 -0.25511353711E+01  0.20170492195E+02 -0.29910016604E+03  0.29979037071E+03  0.00000000000E+00 0.  1.
          3    1    3    3  501    0  0.12220673509E+01  0.19099729348E+02 -0.21986175985E+03  0.22069319554E+03  0.00000000000E+00 0.  1.
         -1    1    1    2    0  502  0.13290680202E+01 -0.39270221544E+02 -0.47947359484E+03  0.48108091302E+03  0.00000000000E+00 0. -1.
<mgrwt>
<rscale>  1 0.30000000E+03</rscale>
<asrwt>0</asrwt>
<pdfrwt beam="1">  1       21 0.56890275E-02 0.30000000E+03</pdfrwt>
<pdfrwt beam="2">0</pdfrwt>
<totfact> 0.23094647E+04</totfact>
</mgrwt>
</event>
<event>
 6    1  0.1270461E-001  0.3000000E+03  0.7818608E-02  0.1093470E+00
         21   -1    0    0  501  502  0.00000000000E+00  0.00000000000E+00  0.11961344666E+01  0.11961344666E+01  0.00000000000E+00 0. -1.
         13   -1    0    0    0    0 -0.00000000000E+00 -0.00000000000E+00 -0.10000000000E+04  0.10000000000E+04  0.00000000000E+00 0.  1.
    9000005    2    1    2  501    0 -0.48682661833E+01 -0.29786696526E+02 -0.74081860652E+03  0.74145137287E+03  0.51945421247E+01 0.  0.
         13    1    3    3    0    0 -0.28597958671E+01 -0.94422728784E+01 -0.29368682710E+03  0.29385249253E+03  0.00000000000E+00 0.  1.
          1    1    3    3  501    0 -0.20084703162E+01 -0.20344423647E+02 -0.44713177941E+03  0.44759888035E+03  0.00000000000E+00 0.  1.
         -1    1    1    2    0  502  0.48682661833E+01  0.29786696526E+02 -0.25798525902E+03  0.25974476159E+03  0.00000000000E+00 0. -1.
<mgrwt>
<rscale>  1 0.30000000E+03</rscale>
<asrwt>0</asrwt>
<pdfrwt beam="1">  1       21 0.43495891E-02 0.30000000E+03</pdfrwt>
<pdfrwt beam="2">0</pdfrwt>
<totfact> 0.36501710E+04</totfact>
</mgrwt>
</event>
<event>
 6    1  0.1270461E-001  0.3000000E+03  0.7818608E-02  0.1093470E+00
         21   -1    0    0  501  502  0.00000000000E+00  0.00000000000E+00  0.15373398051E+01  0.15373398051E+01  0.00000000000E+00 0. -1.
         13   -1    0    0    0    0 -0.00000000000E+00 -0.00000000000E+00 -0.10000000000E+04  0.10000000000E+04  0.00000000000E+00 0.  1.
    9000005    2    1    2  501    0 -0.78586051999E+01  0.34291470742E+02 -0.71910191159E+03  0.71997013556E+03  0.34313575604E+01 0.  0.
         13    1    3    3    0    0 -0.18357844797E+00  0.43767681334E+01 -0.10693033098E+03  0.10702002375E+03  0.00000000000E+00 0.  1.
          1    1    3    3  501    0 -0.76750267519E+01  0.29914702608E+02 -0.61217158061E+03  0.61295011182E+03  0.00000000000E+00 0.  1.
         -1    1    1    2    0  502  0.78586051999E+01 -0.34291470742E+02 -0.27936074861E+03  0.28156720424E+03  0.00000000000E+00 0. -1.
<mgrwt>
<rscale>  1 0.30000000E+03</rscale>
<asrwt>0</asrwt>
<pdfrwt beam="1">  1       21 0.55903384E-02 0.30000000E+03</pdfrwt>
<pdfrwt beam="2">0</pdfrwt>
<totfact> 0.23799516E+04</totfact>
</mgrwt>
</event>
<event>
 6    1  0.1270461E-001  0.3000000E+03  0.7818608E-02  0.1093470E+00
         21   -1    0    0  501  502  0.00000000000E+00  0.00000000000E+00  0.90735703809E+01  0.90735703809E+01  0.00000000000E+00 0. -1.
         13   -1    0    0    0    0 -0.00000000000E+00 -0.00000000000E+00 -0.10000000000E+04  0.10000000000E+04  0.00000000000E+00 0.  1.
    9000005    2    1    2  501    0  0.26889761182E+02 -0.81424409051E+02 -0.71493348390E+03  0.72006647751E+03  0.35849657548E+01 0.  0.
         13    1    3    3    0    0  0.62145904225E+01 -0.23033819758E+02 -0.19122898217E+03  0.19271144649E+03  0.00000000000E+00 0.  1.
          1    1    3    3  501    0  0.20675170759E+02 -0.58390589293E+02 -0.52370450174E+03  0.52735503102E+03  0.00000000000E+00 0.  1.
         -1    1    1    2    0  502 -0.26889761182E+02  0.81424409051E+02 -0.27599294572E+03  0.28900709287E+03  0.00000000000E+00 0. -1.
<mgrwt>
<rscale>  1 0.30000000E+03</rscale>
<asrwt>0</asrwt>
<pdfrwt beam="1">  1       21 0.32994871E-01 0.30000000E+03</pdfrwt>
<pdfrwt beam="2">0</pdfrwt>
<totfact> 0.89750154E+02</totfact>
</mgrwt>
</event>
<event>
 6    1  0.1270461E-001  0.3000000E+03  0.7818608E-02  0.1093470E+00
         21   -1    0    0  501  502  0.00000000000E+00  0.00000000000E+00  0.53099193210E+01  0.53099193210E+01  0.00000000000E+00 0. -1.
         13   -1    0    0    0    0 -0.00000000000E+00 -0.00000000000E+00 -0.10000000000E+04  0.10000000000E+04  0.00000000000E+00 0.  1.
    9000005    2    1    2  501    0 -0.36871983462E+02  0.23837123108E+02 -0.89837919873E+03  0.89946315468E+03  0.45858826859E+01 0.  0.
         13    1    3    3    0    0 -0.17729278679E+02  0.10713511666E+02 -0.37908172723E+03  0.37964728707E+03  0.00000000000E+00 0.  1.
          3    1    3    3  501    0 -0.19142704783E+02  0.13123611442E+02 -0.51929747149E+03  0.51981586761E+03  0.00000000000E+00 0.  1.
         -1    1    1    2    0  502  0.36871983462E+02 -0.23837123108E+02 -0.96310881951E+02  0.10584676464E+03  0.00000000000E+00 0. -1.
<mgrwt>
<rscale>  1 0.30000000E+03</rscale>
<asrwt>0</asrwt>
<pdfrwt beam="1">  1       21 0.19308838E-01 0.30000000E+03</pdfrwt>
<pdfrwt beam="2">0</pdfrwt>
<totfact> 0.25653917E+03</totfact>
</mgrwt>
</event>
<event>
 6    1  0.1270461E-001  0.3000000E+03  0.7818608E-02  0.1093470E+00
         21   -1    0    0  501  502  0.00000000000E+00  0.00000000000E+00  0.17586351428E+01  0.17586351428E+01  0.00000000000E+00 0. -1.
         13   -1    0    0    0    0 -0.00000000000E+00 -0.00000000000E+00 -0.10000000000E+04  0.10000000000E+04  0.00000000000E+00 0.  1.
    9000005    2    1    2  501    0 -0.35881589767E+02 -0.56139589373E+01 -0.74883015128E+03  0.74971705430E+03  0.31719099141E+01 0.  0.
         13    1    3    3    0    0 -0.16647229304E+02 -0.14213639996E+01 -0.32200248986E+03  0.32243565869E+03  0.00000000000E+00 0.  1.
          3    1    3    3  501    0 -0.19234360464E+02 -0.41925949377E+01 -0.42682766142E+03  0.42728139560E+03  0.00000000000E+00 0.  1.
         -3    1    1    2    0  502  0.35881589767E+02  0.56139589373E+01 -0.24941121357E+03  0.25204158085E+03  0.00000000000E+00 0. -1.
<mgrwt>
<rscale>  1 0.30000000E+03</rscale>
<asrwt>0</asrwt>
<pdfrwt beam="1">  1       21 0.63950504E-02 0.30000000E+03</pdfrwt>
<pdfrwt beam="2">0</pdfrwt>
<totfact> 0.18874320E+04</totfact>
</mgrwt>
</event>
<event>
 6    1  0.1270461E-001  0.3000000E+03  0.7818608E-02  0.1093470E+00
         21   -1    0    0  501  502  0.00000000000E+00  0.00000000000E+00  0.11592926697E+01  0.11592926697E+01  0.00000000000E+00 0. -1.
         13   -1    0    0    0    0 -0.00000000000E+00 -0.00000000000E+00 -0.10000000000E+04  0.10000000000E+04  0.00000000000E+00 0.  1.
    9000005    2    1    2  501    0 -0.31308678035E+02 -0.12918353181E+02 -0.54046651728E+03  0.54153551688E+03  0.30891050429E+01 0.  0.
         13    1    3    3    0    0 -0.17416085516E+02 -0.88201344193E+01 -0.31386228103E+03  0.31446883194E+03  0.00000000000E+00 0.  1.
          1    1    3    3  501    0 -0.13892592519E+02 -0.40982187614E+01 -0.22660423625E+03  0.22706668494E+03  0.00000000000E+00 0.  1.
         -1    1    1    2    0  502  0.31308678035E+02  0.12918353181E+02 -0.45837419005E+03  0.45962377579E+03  0.00000000000E+00 0. -1.
<mgrwt>
<rscale>  1 0.30000000E+03</rscale>
<asrwt>0</asrwt>
<pdfrwt beam="1">  1       21 0.42156186E-02 0.30000000E+03</pdfrwt>
<pdfrwt beam="2">0</pdfrwt>
<totfact> 0.38484456E+04</totfact>
</mgrwt>
</event>
<event>
 6    1  0.1270461E-001  0.3000000E+03  0.7818608E-02  0.1093470E+00
         21   -1    0    0  501  502  0.00000000000E+00  0.00000000000E+00  0.12984583854E+01  0.12984583854E+01  0.00000000000E+00 0. -1.
         13   -1    0    0    0    0 -0.00000000000E+00 -0.00000000000E+00 -0.10000000000E+04  0.10000000000E+04  0.00000000000E+00 0.  1.
    9000005    2    1    2  501    0  0.27194596954E+02  0.23537800113E+02 -0.49663434426E+03  0.49794466154E+03  0.31048223104E+01 0.  0.
         13    1    3    3    0    0  0.22485896379E+02  0.19397440765E+02 -0.42513877366E+03  0.42617467441E+03  0.00000000000E+00 0.  1.
          3    1    3    3  501    0  0.47087005743E+01  0.41403593480E+01 -0.71495570602E+02  0.71769987128E+02  0.00000000000E+00 0.  1.
         -3    1    1    2    0  502 -0.27194596954E+02 -0.23537800113E+02 -0.50206719736E+03  0.50335379685E+03  0.00000000000E+00 0. -1.
<mgrwt>
<rscale>  1 0.30000000E+03</rscale>
<asrwt>0</asrwt>
<pdfrwt beam="1">  1       21 0.47216768E-02 0.30000000E+03</pdfrwt>
<pdfrwt beam="2">0</pdfrwt>
<totfact> 0.31754901E+04</totfact>
</mgrwt>
</event>
<event>
 6    1  0.1270461E-001  0.3000000E+03  0.7818608E-02  0.1093470E+00
         21   -1    0    0  501  502  0.00000000000E+00  0.00000000000E+00  0.28461041369E+01  0.28461041369E+01  0.00000000000E+00 0. -1.
         13   -1    0    0    0    0 -0.00000000000E+00 -0.00000000000E+00 -0.10000000000E+04  0.10000000000E+04  0.00000000000E+00 0.  1.
    9000005    2    1    2  501    0  0.45567322837E+02 -0.24943132944E+02 -0.39444140171E+03  0.39789908877E+03  0.64128519719E+01 0.  0.
         13    1    3    3    0    0  0.29329102967E+02 -0.13084369212E+02 -0.22931367731E+03  0.23155163484E+03  0.00000000000E+00 0.  1.
          1    1    3    3  501    0  0.16238219870E+02 -0.11858763732E+02 -0.16512772440E+03  0.16634745392E+03  0.00000000000E+00 0.  1.
         -3    1    1    2    0  502 -0.45567322837E+02  0.24943132944E+02 -0.60271249416E+03  0.60494701537E+03  0.00000000000E+00 0. -1.
<mgrwt>
<rscale>  1 0.30000000E+03</rscale>
<asrwt>0</asrwt>
<pdfrwt beam="1">  1       21 0.10349491E-01 0.30000000E+03</pdfrwt>
<pdfrwt beam="2">0</pdfrwt>
<totfact> 0.80904661E+03</totfact>
</mgrwt>
</event>
<event>
 6    1  0.1270461E-001  0.3000000E+03  0.7818608E-02  0.1093470E+00
         21   -1    0    0  501  502  0.00000000000E+00  0.00000000000E+00  0.17425421742E+02  0.17425421742E+02  0.00000000000E+00 0. -1.
         13   -1    0    0    0    0 -0.00000000000E+00 -0.00000000000E+00 -0.10000000000E+04  0.10000000000E+04  0.00000000000E+00 0.  1.
    9000005    2    1    2  501    0 -0.88598812279E+01 -0.29922818096E+02 -0.98552587222E+03  0.98607924695E+03  0.10824227440E+02 0.  0.
         13    1    3    3    0    0 -0.94525248827E+01 -0.21373966148E+02 -0.81861198366E+03  0.81894552715E+03  0.00000000000E+00 0.  1.
          1    1    3    3  501    0  0.59264365477E+00 -0.85488519475E+01 -0.16691388857E+03  0.16713371980E+03  0.00000000000E+00 0.  1.
         -3    1    1    2    0  502  0.88598812279E+01  0.29922818096E+02  0.29512939663E+01  0.31346174794E+02  0.00000000000E+00 0. -1.
<mgrwt>
<rscale>  1 0.30000000E+03</rscale>
<asrwt>0</asrwt>
<pdfrwt beam="1">  1       21 0.63365304E-01 0.30000000E+03</pdfrwt>
<pdfrwt beam="2">0</pdfrwt>
<totfact> 0.22195858E+02</totfact>
</mgrwt>
</event>
<event>
 6    1  0.1270461E-001  0.3000000E+03  0.7818608E-02  0.1093470E+00
         21   -1    0    0  501  502  0.00000000000E+00  0.00000000000E+00  0.99255693469E+01  0.99255693469E+01  0.00000000000E+00 0. -1.
         13   -1    0    0    0    0 -0.00000000000E+00 -0.00000000000E+00 -0.10000000000E+04  0.10000000000E+04  0.00000000000E+00 0.  1.
    9000005    2    1    2  501    0 -0.13204817432E+02 -0.58057909006E+02 -0.89986693080E+03  0.90184004288E+03  0.31435324154E+01 0.  0.
         13    1    3    3    0    0 -0.47400552641E+01 -0.26078347682E+02 -0.38454673029E+03  0.38545912380E+03  0.00000000000E+00 0.  1.
          1    1    3    3  501    0 -0.84647621678E+01 -0.31979561324E+02 -0.51532020051E+03  0.51638091908E+03  0.00000000000E+00 0.  1.
         -3    1    1    2    0  502  0.13204817432E+02  0.58057909006E+02 -0.90207499856E+02  0.10808552647E+03  0.00000000000E+00 0. -1.
<mgrwt>
<rscale>  1 0.30000000E+03</rscale>
<asrwt>0</asrwt>
<pdfrwt beam="1">  1       21 0.36093056E-01 0.30000000E+03</pdfrwt>
<pdfrwt beam="2">0</pdfrwt>
<totfact> 0.74718782E+02</totfact>
</mgrwt>
</event>
<event>
 6    1  0.1270461E-001  0.3000000E+03  0.7818608E-02  0.1093470E+00
         21   -1    0    0  501  502  0.00000000000E+00  0.00000000000E+00  0.12762433413E+01  0.12762433413E+01  0.00000000000E+00 0. -1.
         13   -1    0    0    0    0 -0.00000000000E+00 -0.00000000000E+00 -0.10000000000E+04  0.10000000000E+04  0.00000000000E+00 0.  1.
    9000005    2    1    2  501    0  0.32166968484E+02  0.12817245317E+01 -0.71401800173E+03  0.71475622036E+03  0.42884811734E+01 0.  0.
         13    1    3    3    0    0  0.79106763874E+01  0.19693943338E+01 -0.19884191739E+03  0.19900895816E+03  0.00000000000E+00 0.  1.
          3    1    3    3  501    0  0.24256292097E+02 -0.68766980205E+00 -0.51517608434E+03  0.51574726220E+03  0.00000000000E+00 0.  1.
         -3    1    1    2    0  502 -0.32166968484E+02 -0.12817245317E+01 -0.28470575493E+03  0.28652002298E+03  0.00000000000E+00 0. -1.
<mgrwt>
<rscale>  1 0.30000000E+03</rscale>
<asrwt>0</asrwt>
<pdfrwt beam="1">  1       21 0.46408947E-02 0.30000000E+03</pdfrwt>
<pdfrwt beam="2">0</pdfrwt>
<totfact> 0.32700272E+04</totfact>
</mgrwt>
</event>
<event>
 6    1  0.1270461E-001  0.3000000E+03  0.7818608E-02  0.1093470E+00
         21   -1    0    0  501  502  0.00000000000E+00  0.00000000000E+00  0.21712772219E+01  0.21712772219E+01  0.00000000000E+00 0. -1.
         13   -1    0    0    0    0 -0.00000000000E+00 -0.00000000000E+00 -0.10000000000E+04  0.10000000000E+04  0.00000000000E+00 0.  1.
    9000005    2    1    2  501    0 -0.31048179023E+02 -0.19856133515E+02 -0.80505123007E+03  0.80590254015E+03  0.36284592506E+01 0.  0.
         13    1    3    3    0    0 -0.78803792051E+01 -0.33225583299E+01 -0.17557902621E+03  0.17578718444E+03  0.00000000000E+00 0.  1.
          1    1    3    3  501    0 -0.23167799818E+02 -0.16533575185E+02 -0.62947220387E+03  0.63011535571E+03  0.00000000000E+00 0.  1.
         -3    1    1    2    0  502  0.31048179023E+02  0.19856133515E+02 -0.19277749270E+03  0.19626873707E+03  0.00000000000E+00 0. -1.
<mgrwt>
<rscale>  1 0.30000000E+03</rscale>
<asrwt>0</asrwt>
<pdfrwt beam="1">  1       21 0.78955702E-02 0.30000000E+03</pdfrwt>
<pdfrwt beam="2">0</pdfrwt>
<totfact> 0.13071999E+04</totfact>
</mgrwt>
</event>
<event>
 6    1  0.1270461E-001  0.3000000E+03  0.7818608E-02  0.1093470E+00
         21   -1    0    0  501  502  0.00000000000E+00  0.00000000000E+00  0.12004711421E+01  0.12004711421E+01  0.00000000000E+00 0. -1.
         13   -1    0    0    0    0 -0.00000000000E+00 -0.00000000000E+00 -0.10000000000E+04  0.10000000000E+04  0.00000000000E+00 0.  1.
    9000005    2    1    2  501    0  0.23465799833E+02 -0.24980931655E+02 -0.48841697514E+03  0.48966841755E+03  0.70233067052E+01 0.  0.
         13    1    3    3    0    0  0.58449165170E+00 -0.36277146561E+01 -0.47184216253E+02  0.47327076896E+02  0.00000000000E+00 0.  1.
          3    1    3    3  501    0  0.22881308181E+02 -0.21353216999E+02 -0.44123275889E+03  0.44234134066E+03  0.00000000000E+00 0.  1.
         -3    1    1    2    0  502 -0.23465799833E+02  0.24980931655E+02 -0.51038255372E+03  0.51153205359E+03  0.00000000000E+00 0. -1.
<mgrwt>
<rscale>  1 0.30000000E+03</rscale>
<asrwt>0</asrwt>
<pdfrwt beam="1">  1       21 0.43653588E-02 0.30000000E+03</pdfrwt>
<pdfrwt beam="2">0</pdfrwt>
<totfact> 0.36278778E+04</totfact>
</mgrwt>
</event>
<event>
 6    1  0.1270461E-001  0.3000000E+03  0.7818608E-02  0.1093470E+00
         21   -1    0    0  501  502  0.00000000000E+00  0.00000000000E+00  0.57530667979E+01  0.57530667979E+01  0.00000000000E+00 0. -1.
         13   -1    0    0    0    0 -0.00000000000E+00 -0.00000000000E+00 -0.10000000000E+04  0.10000000000E+04  0.00000000000E+00 0.  1.
    9000005    2    1    2  501    0  0.27358544151E+02  0.35102173976E+02 -0.90427934501E+03  0.90537966653E+03  0.32487232264E+01 0.  0.
         13    1    3    3    0    0  0.22945815315E+02  0.29054488627E+02 -0.77487862959E+03  0.77576256957E+03  0.00000000000E+00 0.  1.
          1    1    3    3  501    0  0.44127288361E+01  0.60476853483E+01 -0.12940071542E+03  0.12961709696E+03  0.00000000000E+00 0.  1.
         -3    1    1    2    0  502 -0.27358544151E+02 -0.35102173976E+02 -0.89967588196E+02  0.10037340027E+03  0.00000000000E+00 0. -1.
<mgrwt>
<rscale>  1 0.30000000E+03</rscale>
<asrwt>0</asrwt>
<pdfrwt beam="1">  1       21 0.20920287E-01 0.30000000E+03</pdfrwt>
<pdfrwt beam="2">0</pdfrwt>
<totfact> 0.22014102E+03</totfact>
</mgrwt>
</event>
<event>
 6    1  0.1270461E-001  0.3000000E+03  0.7818608E-02  0.1093470E+00
         21   -1    0    0  501  502  0.00000000000E+00  0.00000000000E+00  0.11880791174E+01  0.11880791174E+01  0.00000000000E+00 0. -1.
         13   -1    0    0    0    0 -0.00000000000E+00 -0.00000000000E+00 -0.10000000000E+04  0.10000000000E+04  0.00000000000E+00 0.  1.
    9000005    2    1    2  501    0  0.33043169140E+01 -0.33503293741E+02 -0.39987815926E+03  0.40130889127E+03  0.35909270329E+01 0.  0.
         13    1    3    3    0    0  0.86764330154E+00 -0.12966320159E+02 -0.13464324324E+03  0.13526892183E+03  0.00000000000E+00 0.  1.
          3    1    3    3  501    0  0.24366736125E+01 -0.20536973582E+02 -0.26523491603E+03  0.26603996945E+03  0.00000000000E+00 0.  1.
         -1    1    1    2    0  502 -0.33043169140E+01  0.33503293741E+02 -0.59893376162E+03  0.59987918784E+03  0.00000000000E+00 0. -1.
<mgrwt>
<rscale>  1 0.30000000E+03</rscale>
<asrwt>0</asrwt>
<pdfrwt beam="1">  1       21 0.43202968E-02 0.30000000E+03</pdfrwt>
<pdfrwt beam="2">0</pdfrwt>
<totfact> 0.36921478E+04</totfact>
</mgrwt>
</event>
<event>
 6    1  0.1270461E-001  0.3000000E+03  0.7818608E-02  0.1093470E+00
         21   -1    0    0  501  502  0.00000000000E+00  0.00000000000E+00  0.32727340324E+01  0.32727340324E+01  0.00000000000E+00 0. -1.
         13   -1    0    0    0    0 -0.00000000000E+00 -0.00000000000E+00 -0.10000000000E+04  0.10000000000E+04  0.00000000000E+00 0.  1.
    9000005    2    1    2  501    0 -0.43466179700E+02 -0.23041753603E+02 -0.75398586474E+03  0.75559629378E+03  0.32929860819E+01 0.  0.
         13    1    3    3    0    0 -0.12968945524E+02 -0.83296997679E+01 -0.22341974716E+03  0.22395080010E+03  0.00000000000E+00 0.  1.
          3    1    3    3  501    0 -0.30497234176E+02 -0.14712053836E+02 -0.53056611758E+03  0.53164549368E+03  0.00000000000E+00 0.  1.
         -3    1    1    2    0  502  0.43466179700E+02  0.23041753603E+02 -0.24274140123E+03  0.24767644025E+03  0.00000000000E+00 0. -1.
<mgrwt>
<rscale>  1 0.30000000E+03</rscale>
<asrwt>0</asrwt>
<pdfrwt beam="1">  1       21 0.11900876E-01 0.30000000E+03</pdfrwt>
<pdfrwt beam="2">0</pdfrwt>
<totfact> 0.62910724E+03</totfact>
</mgrwt>
</event>
<event>
 6    1  0.1270461E-001  0.3000000E+03  0.7818608E-02  0.1093470E+00
         21   -1    0    0  501  502  0.00000000000E+00  0.00000000000E+00  0.36952119745E+01  0.36952119745E+01  0.00000000000E+00 0. -1.
         13   -1    0    0    0    0 -0.00000000000E+00 -0.00000000000E+00 -0.10000000000E+04  0.10000000000E+04  0.00000000000E+00 0.  1.
    9000005    2    1    2  501    0 -0.37823243204E+02 -0.14821635859E+01 -0.89071402083E+03  0.89152478515E+03  0.34901450183E+01 0.  0.
         13    1    3    3    0    0 -0.31244121946E+02 -0.16225443332E+01 -0.70403249648E+03  0.70472731174E+03  0.00000000000E+00 0.  1.
          3    1    3    3  501    0 -0.65791212580E+01  0.14038074724E+00 -0.18668152434E+03  0.18679747342E+03  0.00000000000E+00 0.  1.
         -1    1    1    2    0  502  0.37823243204E+02  0.14821635859E+01 -0.10559076720E+03  0.11217042682E+03  0.00000000000E+00 0. -1.
<mgrwt>
<rscale>  1 0.30000000E+03</rscale>
<asrwt>0</asrwt>
<pdfrwt beam="1">  1       21 0.13437163E-01 0.30000000E+03</pdfrwt>
<pdfrwt beam="2">0</pdfrwt>
<totfact> 0.50421932E+03</totfact>
</mgrwt>
</event>
<event>
 6    1  0.1270461E-001  0.3000000E+03  0.7818608E-02  0.1093470E+00
         21   -1    0    0  501  502  0.00000000000E+00  0.00000000000E+00  0.86993482584E+01  0.86993482584E+01  0.00000000000E+00 0. -1.
         13   -1    0    0    0    0 -0.00000000000E+00 -0.00000000000E+00 -0.10000000000E+04  0.10000000000E+04  0.00000000000E+00 0.  1.
    9000005    2    1    2  501    0 -0.85632154846E+02  0.14155925933E+02 -0.68004556507E+03  0.68556936642E+03  0.31826753554E+01 0.  0.
         13    1    3    3    0    0 -0.22876654712E+02  0.24076336078E+01 -0.17724755937E+03  0.17873397924E+03  0.00000000000E+00 0.  1.
          1    1    3    3  501    0 -0.62755500134E+02  0.11748292325E+02 -0.50279800569E+03  0.50683538718E+03  0.00000000000E+00 0.  1.
         -3    1    1    2    0  502  0.85632154846E+02 -0.14155925933E+02 -0.31125508668E+03  0.32312998184E+03  0.00000000000E+00 0. -1.
<mgrwt>
<rscale>  1 0.30000000E+03</rscale>
<asrwt>0</asrwt>
<pdfrwt beam="1">  1       21 0.31634060E-01 0.30000000E+03</pdfrwt>
<pdfrwt beam="2">0</pdfrwt>
<totfact> 0.97740661E+02</totfact>
</mgrwt>
</event>
<event>
 6    1  0.1270461E-001  0.3000000E+03  0.7818608E-02  0.1093470E+00
         21   -1    0    0  501  502  0.00000000000E+00  0.00000000000E+00  0.12521271751E+01  0.12521271751E+01  0.00000000000E+00 0. -1.
         13   -1    0    0    0    0 -0.00000000000E+00 -0.00000000000E+00 -0.10000000000E+04  0.10000000000E+04  0.00000000000E+00 0.  1.
    9000005    2    1    2  501    0  0.35026486032E+02  0.42704806154E+01 -0.52434329441E+03  0.52553709089E+03  0.28725908270E+01 0.  0.
         13    1    3    3    0    0  0.19609447983E+02  0.28157707672E+01 -0.27389056716E+03  0.27460608478E+03  0.00000000000E+00 0.  1.
          1    1    3    3  501    0  0.15417038049E+02  0.14547098482E+01 -0.25045272725E+03  0.25093100611E+03  0.00000000000E+00 0.  1.
         -3    1    1    2    0  502 -0.35026486032E+02 -0.42704806154E+01 -0.47440457842E+03  0.47571503629E+03  0.00000000000E+00 0. -1.
<mgrwt>
<rscale>  1 0.30000000E+03</rscale>
<asrwt>0</asrwt>
<pdfrwt beam="1">  1       21 0.45531993E-02 0.30000000E+03</pdfrwt>
<pdfrwt beam="2">0</pdfrwt>
<totfact> 0.33777468E+04</totfact>
</mgrwt>
</event>
<event>
 6    1  0.1270461E-001  0.3000000E+03  0.7818608E-02  0.1093470E+00
         21   -1    0    0  501  502  0.00000000000E+00  0.00000000000E+00  0.22388701611E+01  0.22388701611E+01  0.00000000000E+00 0. -1.
         13   -1    0    0    0    0 -0.00000000000E+00 -0.00000000000E+00 -0.10000000000E+04  0.10000000000E+04  0.00000000000E+00 0.  1.
    9000005    2    1    2  501    0  0.45599760958E+02 -0.54889534091E+01 -0.61716196153E+03  0.61887847350E+03  0.34944807917E+01 0.  0.
         13    1    3    3    0    0  0.45481437050E+02 -0.56819704274E+01 -0.61396978478E+03  0.61567827843E+03  0.00000000000E+00 0.  1.
          1    1    3    3  501    0  0.11832390854E+00  0.19301701830E+00 -0.31921767503E+01  0.32001950756E+01  0.00000000000E+00 0.  1.
         -1    1    1    2    0  502 -0.45599760958E+02  0.54889534091E+01 -0.38059916831E+03  0.38336039666E+03  0.00000000000E+00 0. -1.
<mgrwt>
<rscale>  1 0.30000000E+03</rscale>
<asrwt>0</asrwt>
<pdfrwt beam="1">  1       21 0.81413632E-02 0.30000000E+03</pdfrwt>
<pdfrwt beam="2">0</pdfrwt>
<totfact> 0.12386653E+04</totfact>
</mgrwt>
</event>
<event>
 6    1  0.1270461E-001  0.3000000E+03  0.7818608E-02  0.1093470E+00
         21   -1    0    0  501  502  0.00000000000E+00  0.00000000000E+00  0.63784115154E+01  0.63784115154E+01  0.00000000000E+00 0. -1.
         13   -1    0    0    0    0 -0.00000000000E+00 -0.00000000000E+00 -0.10000000000E+04  0.10000000000E+04  0.00000000000E+00 0.  1.
    9000005    2    1    2  501    0 -0.19445470002E+02 -0.25935502859E+02 -0.95666936443E+03  0.95722311196E+03  0.30060956517E+01 0.  0.
         13    1    3    3    0    0 -0.15627037113E+02 -0.19439420793E+02 -0.76141325682E+03  0.76182166091E+03  0.00000000000E+00 0.  1.
          3    1    3    3  501    0 -0.38184328895E+01 -0.64960820664E+01 -0.19525610761E+03  0.19540145105E+03  0.00000000000E+00 0.  1.
         -3    1    1    2    0  502  0.19445470002E+02  0.25935502859E+02 -0.36952224052E+02  0.49155299557E+02  0.00000000000E+00 0. -1.
<mgrwt>
<rscale>  1 0.30000000E+03</rscale>
<asrwt>0</asrwt>
<pdfrwt beam="1">  1       21 0.23194273E-01 0.30000000E+03</pdfrwt>
<pdfrwt beam="2">0</pdfrwt>
<totfact> 0.18046520E+03</totfact>
</mgrwt>
</event>
<event>
 6    1  0.1270461E-001  0.3000000E+03  0.7818608E-02  0.1093470E+00
         21   -1    0    0  501  502  0.00000000000E+00  0.00000000000E+00  0.58008345585E+01  0.58008345585E+01  0.00000000000E+00 0. -1.
         13   -1    0    0    0    0 -0.00000000000E+00 -0.00000000000E+00 -0.10000000000E+04  0.10000000000E+04  0.00000000000E+00 0.  1.
    9000005    2    1    2  501    0 -0.35854180247E+02 -0.53726144095E+01 -0.93933589408E+03  0.94004092450E+03  0.32604594325E+01 0.  0.
         13    1    3    3    0    0 -0.11524133669E+01  0.16604143939E+00 -0.44635739226E+02  0.44650922080E+02  0.00000000000E+00 0.  1.
          3    1    3    3  501    0 -0.34701766880E+02 -0.55386558489E+01 -0.89470015485E+03  0.89539000242E+03  0.00000000000E+00 0.  1.
         -3    1    1    2    0  502  0.35854180247E+02  0.53726144095E+01 -0.54863271361E+02  0.65759910061E+02  0.00000000000E+00 0. -1.
<mgrwt>
<rscale>  1 0.30000000E+03</rscale>
<asrwt>0</asrwt>
<pdfrwt beam="1">  1       21 0.21093988E-01 0.30000000E+03</pdfrwt>
<pdfrwt beam="2">0</pdfrwt>
<totfact> 0.21667915E+03</totfact>
</mgrwt>
</event>
<event>
 6    1  0.1270461E-001  0.3000000E+03  0.7818608E-02  0.1093470E+00
         21   -1    0    0  501  502  0.00000000000E+00  0.00000000000E+00  0.30353933594E+01  0.30353933594E+01  0.00000000000E+00 0. -1.
         13   -1    0    0    0    0 -0.00000000000E+00 -0.00000000000E+00 -0.10000000000E+04  0.10000000000E+04  0.00000000000E+00 0.  1.
    9000005    2    1    2  501    0  0.70039836671E+01 -0.33934210730E+02 -0.88822595641E+03  0.88890967102E+03  0.38035708225E+01 0.  0.
         13    1    3    3    0    0  0.31752081781E+01 -0.21836462740E+02 -0.59601034870E+03  0.59641868584E+03  0.00000000000E+00 0.  1.
          1    1    3    3  501    0  0.38287754891E+01 -0.12097747990E+02 -0.29221560771E+03  0.29249098519E+03  0.00000000000E+00 0.  1.
         -1    1    1    2    0  502 -0.70039836671E+01  0.33934210730E+02 -0.10873865023E+03  0.11412572234E+03  0.00000000000E+00 0. -1.
<mgrwt>
<rscale>  1 0.30000000E+03</rscale>
<asrwt>0</asrwt>
<pdfrwt beam="1">  1       21 0.11037817E-01 0.30000000E+03</pdfrwt>
<pdfrwt beam="2">0</pdfrwt>
<totfact> 0.72073751E+03</totfact>
</mgrwt>
</event>
<event>
 6    1  0.1270461E-001  0.3000000E+03  0.7818608E-02  0.1093470E+00
         21   -1    0    0  501  502  0.00000000000E+00  0.00000000000E+00  0.16185307041E+01  0.16185307041E+01  0.00000000000E+00 0. -1.
         13   -1    0    0    0    0 -0.00000000000E+00 -0.00000000000E+00 -0.10000000000E+04  0.10000000000E+04  0.00000000000E+00 0.  1.
    9000005    2    1    2  501    0 -0.21495791856E+02 -0.33354561216E+02 -0.57587646253E+03  0.57725421014E+03  0.37586184261E+01 0.  0.
         13    1    3    3    0    0 -0.20080352108E+02 -0.29954100766E+02 -0.53386796313E+03  0.53508454542E+03  0.00000000000E+00 0.  1.
          3    1    3    3  501    0 -0.14154397478E+01 -0.34004604502E+01 -0.42008499402E+02  0.42169664724E+02  0.00000000000E+00 0.  1.
         -1    1    1    2    0  502  0.21495791856E+02  0.33354561216E+02 -0.42250500677E+03  0.42436432056E+03  0.00000000000E+00 0. -1.
<mgrwt>
<rscale>  1 0.30000000E+03</rscale>
<asrwt>0</asrwt>
<pdfrwt beam="1">  1       21 0.58855786E-02 0.30000000E+03</pdfrwt>
<pdfrwt beam="2">0</pdfrwt>
<totfact> 0.21782873E+04</totfact>
</mgrwt>
</event>
<event>
 6    1  0.1270461E-001  0.3000000E+03  0.7818608E-02  0.1093470E+00
         21   -1    0    0  501  502  0.00000000000E+00  0.00000000000E+00  0.17861886711E+01  0.17861886711E+01  0.00000000000E+00 0. -1.
         13   -1    0    0    0    0 -0.00000000000E+00 -0.00000000000E+00 -0.10000000000E+04  0.10000000000E+04  0.00000000000E+00 0.  1.
    9000005    2    1    2  501    0 -0.81990914723E+01 -0.38930926251E+02 -0.66644668315E+03  0.66764210379E+03  0.34576226139E+01 0.  0.
         13    1    3    3    0    0 -0.82389589936E+01 -0.34482445946E+02 -0.58313742600E+03  0.58421415348E+03  0.00000000000E+00 0.  1.
          1    1    3    3  501    0  0.39867521335E-01 -0.44484803049E+01 -0.83309257154E+02  0.83427950316E+02  0.00000000000E+00 0.  1.
         -1    1    1    2    0  502  0.81990914723E+01  0.38930926251E+02 -0.33176712818E+03  0.33414408488E+03  0.00000000000E+00 0. -1.
<mgrwt>
<rscale>  1 0.30000000E+03</rscale>
<asrwt>0</asrwt>
<pdfrwt beam="1">  1       21 0.64952452E-02 0.30000000E+03</pdfrwt>
<pdfrwt beam="2">0</pdfrwt>
<totfact> 0.18373309E+04</totfact>
</mgrwt>
</event>
<event>
 6    1  0.1270461E-001  0.3000000E+03  0.7818608E-02  0.1093470E+00
         21   -1    0    0  501  502  0.00000000000E+00  0.00000000000E+00  0.31758968773E+01  0.31758968773E+01  0.00000000000E+00 0. -1.
         13   -1    0    0    0    0 -0.00000000000E+00 -0.00000000000E+00 -0.10000000000E+04  0.10000000000E+04  0.00000000000E+00 0.  1.
    9000005    2    1    2  501    0  0.52521275566E+02  0.37418859211E+01 -0.32126454776E+03  0.32556745616E+03  0.32821885942E+01 0.  0.
         13    1    3    3    0    0  0.18236335835E+02  0.27966291588E+01 -0.11526998002E+03  0.11673711224E+03  0.00000000000E+00 0.  1.
          3    1    3    3  501    0  0.34284939731E+02  0.94525676228E+00 -0.20599456774E+03  0.20883034392E+03  0.00000000000E+00 0.  1.
         -1    1    1    2    0  502 -0.52521275566E+02 -0.37418859211E+01 -0.67555955536E+03  0.67760844072E+03  0.00000000000E+00 0. -1.
<mgrwt>
<rscale>  1 0.30000000E+03</rscale>
<asrwt>0</asrwt>
<pdfrwt beam="1">  1       21 0.11548740E-01 0.30000000E+03</pdfrwt>
<pdfrwt beam="2">0</pdfrwt>
<totfact> 0.66425949E+03</totfact>
</mgrwt>
</event>
<event>
 6    1  0.1270461E-001  0.3000000E+03  0.7818608E-02  0.1093470E+00
         21   -1    0    0  501  502  0.00000000000E+00  0.00000000000E+00  0.15740168478E+01  0.15740168478E+01  0.00000000000E+00 0. -1.
         13   -1    0    0    0    0 -0.00000000000E+00 -0.00000000000E+00 -0.10000000000E+04  0.10000000000E+04  0.00000000000E+00 0.  1.
    9000005    2    1    2  501    0  0.18732382123E+02 -0.33598698019E+02 -0.62000078243E+03  0.62119866645E+03  0.26529864132E+01 0.  0.
         13    1    3    3    0    0  0.78633817470E+01 -0.11624068336E+02 -0.21909495924E+03  0.21954396576E+03  0.00000000000E+00 0.  1.
          3    1    3    3  501    0  0.10869000376E+02 -0.21974629683E+02 -0.40090582319E+03  0.40165470069E+03  0.00000000000E+00 0.  1.
         -1    1    1    2    0  502 -0.18732382123E+02  0.33598698019E+02 -0.37842520073E+03  0.38037535040E+03  0.00000000000E+00 0. -1.
<mgrwt>
<rscale>  1 0.30000000E+03</rscale>
<asrwt>0</asrwt>
<pdfrwt beam="1">  1       21 0.57237097E-02 0.30000000E+03</pdfrwt>
<pdfrwt beam="2">0</pdfrwt>
<totfact> 0.22854518E+04</totfact>
</mgrwt>
</event>
<event>
 6    1  0.1270461E-001  0.3000000E+03  0.7818608E-02  0.1093470E+00
         21   -1    0    0  501  502  0.00000000000E+00  0.00000000000E+00  0.44361066166E+01  0.44361066166E+01  0.00000000000E+00 0. -1.
         13   -1    0    0    0    0 -0.00000000000E+00 -0.00000000000E+00 -0.10000000000E+04  0.10000000000E+04  0.00000000000E+00 0.  1.
    9000005    2    1    2  501    0 -0.59559971614E+02  0.22159260259E+02 -0.64746925080E+03  0.65058825339E+03  0.31971379435E+01 0.  0.
         13    1    3    3    0    0 -0.37375354342E+02  0.14208605221E+02 -0.39164681207E+03  0.39368264755E+03  0.00000000000E+00 0.  1.
          1    1    3    3  501    0 -0.22184617272E+02  0.79506550384E+01 -0.25582243873E+03  0.25690560585E+03  0.00000000000E+00 0.  1.
         -3    1    1    2    0  502  0.59559971614E+02 -0.22159260259E+02 -0.34809464258E+03  0.35384785322E+03  0.00000000000E+00 0. -1.
<mgrwt>
<rscale>  1 0.30000000E+03</rscale>
<asrwt>0</asrwt>
<pdfrwt beam="1">  1       21 0.16131331E-01 0.30000000E+03</pdfrwt>
<pdfrwt beam="2">0</pdfrwt>
<totfact> 0.35974149E+03</totfact>
</mgrwt>
</event>
<event>
 6    1  0.1270461E-001  0.3000000E+03  0.7818608E-02  0.1093470E+00
         21   -1    0    0  501  502  0.00000000000E+00  0.00000000000E+00  0.12612260686E+01  0.12612260686E+01  0.00000000000E+00 0. -1.
         13   -1    0    0    0    0 -0.00000000000E+00 -0.00000000000E+00 -0.10000000000E+04  0.10000000000E+04  0.00000000000E+00 0.  1.
    9000005    2    1    2  501    0 -0.29571059467E+02 -0.11898756122E+02 -0.28287571400E+03  0.28468886508E+03  0.36128071432E+01 0.  0.
         13    1    3    3    0    0 -0.17054330293E+02 -0.49909856262E+01 -0.16081740413E+03  0.16179616062E+03  0.00000000000E+00 0.  1.
          3    1    3    3  501    0 -0.12516729174E+02 -0.69077704955E+01 -0.12205830986E+03  0.12289270446E+03  0.00000000000E+00 0.  1.
         -3    1    1    2    0  502  0.29571059467E+02  0.11898756122E+02 -0.71586305993E+03  0.71657236099E+03  0.00000000000E+00 0. -1.
<mgrwt>
<rscale>  1 0.30000000E+03</rscale>
<asrwt>0</asrwt>
<pdfrwt beam="1">  1       21 0.45862863E-02 0.30000000E+03</pdfrwt>
<pdfrwt beam="2">0</pdfrwt>
<totfact> 0.33364592E+04</totfact>
</mgrwt>
</event>
<event>
 6    1  0.1270461E-001  0.3000000E+03  0.7818608E-02  0.1093470E+00
         21   -1    0    0  501  502  0.00000000000E+00  0.00000000000E+00  0.27432379610E+01  0.27432379610E+01  0.00000000000E+00 0. -1.
         13   -1    0    0    0    0 -0.00000000000E+00 -0.00000000000E+00 -0.10000000000E+04  0.10000000000E+04  0.00000000000E+00 0.  1.
    9000005    2    1    2  501    0 -0.38579556509E+02  0.11801009174E+02 -0.81800817193E+03  0.81901054339E+03  0.36407201537E+01 0.  0.
         13    1    3    3    0    0 -0.53831562055E+01  0.21778722666E+01 -0.14342918442E+03  0.14354669081E+03  0.00000000000E+00 0.  1.
          1    1    3    3  501    0 -0.33196400303E+02  0.96231369076E+01 -0.67457898751E+03  0.67546385258E+03  0.00000000000E+00 0.  1.
         -1    1    1    2    0  502  0.38579556509E+02 -0.11801009174E+02 -0.17924859011E+03  0.18373269457E+03  0.00000000000E+00 0. -1.
<mgrwt>
<rscale>  1 0.30000000E+03</rscale>
<asrwt>0</asrwt>
<pdfrwt beam="1">  1       21 0.99754318E-02 0.30000000E+03</pdfrwt>
<pdfrwt beam="2">0</pdfrwt>
<totfact> 0.86410920E+03</totfact>
</mgrwt>
</event>
<event>
 6    1  0.1270461E-001  0.3000000E+03  0.7818608E-02  0.1093470E+00
         21   -1    0    0  501  502  0.00000000000E+00  0.00000000000E+00  0.33584507573E+01  0.33584507573E+01  0.00000000000E+00 0. -1.
         13   -1    0    0    0    0 -0.00000000000E+00 -0.00000000000E+00 -0.10000000000E+04  0.10000000000E+04  0.00000000000E+00 0.  1.
    9000005    2    1    2  501    0 -0.28132824178E+02 -0.30635711308E+02 -0.84742336736E+03  0.84845180658E+03  0.37552564352E+01 0.  0.
         13    1    3    3    0    0 -0.25195392045E+02 -0.25897377485E+02 -0.71833671325E+03  0.71924482309E+03  0.00000000000E+00 0.  1.
          1    1    3    3  501    0 -0.29374321323E+01 -0.47383338229E+01 -0.12908665410E+03  0.12920698349E+03  0.00000000000E+00 0.  1.
         -1    1    1    2    0  502  0.28132824178E+02  0.30635711308E+02 -0.14921818189E+03  0.15490664417E+03  0.00000000000E+00 0. -1.
<mgrwt>
<rscale>  1 0.30000000E+03</rscale>
<asrwt>0</asrwt>
<pdfrwt beam="1">  1       21 0.12212574E-01 0.30000000E+03</pdfrwt>
<pdfrwt beam="2">0</pdfrwt>
<totfact> 0.60025381E+03</totfact>
</mgrwt>
</event>
<event>
 6    1  0.1270461E-001  0.3000000E+03  0.7818608E-02  0.1093470E+00
         21   -1    0    0  501  502  0.00000000000E+00  0.00000000000E+00  0.77793925941E+01  0.77793925941E+01  0.00000000000E+00 0. -1.
         13   -1    0    0    0    0 -0.00000000000E+00 -0.00000000000E+00 -0.10000000000E+04  0.10000000000E+04  0.00000000000E+00 0.  1.
    9000005    2    1    2  501    0  0.25155710909E+02  0.28492650034E+02 -0.95078927070E+03  0.95155487340E+03  0.34349551037E+01 0.  0.
         13    1    3    3    0    0  0.20534136773E+02  0.25103187082E+02 -0.80929524365E+03  0.80994482045E+03  0.00000000000E+00 0.  1.
          1    1    3    3  501    0  0.46215741356E+01  0.33894629516E+01 -0.14149402705E+03  0.14161005296E+03  0.00000000000E+00 0.  1.
         -3    1    1    2    0  502 -0.25155710909E+02 -0.28492650034E+02 -0.41431336704E+02  0.56224519192E+02  0.00000000000E+00 0. -1.
<mgrwt>
<rscale>  1 0.30000000E+03</rscale>
<asrwt>0</asrwt>
<pdfrwt beam="1">  1       21 0.28288760E-01 0.30000000E+03</pdfrwt>
<pdfrwt beam="2">0</pdfrwt>
<totfact> 0.12222649E+03</totfact>
</mgrwt>
</event>
<event>
 6    1  0.1270461E-001  0.3000000E+03  0.7818608E-02  0.1093470E+00
         21   -1    0    0  501  502  0.00000000000E+00  0.00000000000E+00  0.17880817691E+01  0.17880817691E+01  0.00000000000E+00 0. -1.
         13   -1    0    0    0    0 -0.00000000000E+00 -0.00000000000E+00 -0.10000000000E+04  0.10000000000E+04  0.00000000000E+00 0.  1.
    9000005    2    1    2  501    0  0.33935170641E+02  0.83852927082E+01 -0.77944525122E+03  0.78024629443E+03  0.52413156080E+01 0.  0.
         13    1    3    3    0    0  0.82859285106E+01  0.11583637560E+01 -0.23571529920E+03  0.23586373332E+03  0.00000000000E+00 0.  1.
          3    1    3    3  501    0  0.25649242131E+02  0.72269289522E+01 -0.54372995201E+03  0.54438256111E+03  0.00000000000E+00 0.  1.
         -3    1    1    2    0  502 -0.33935170641E+02 -0.83852927082E+01 -0.21876666701E+03  0.22154178733E+03  0.00000000000E+00 0. -1.
<mgrwt>
<rscale>  1 0.30000000E+03</rscale>
<asrwt>0</asrwt>
<pdfrwt beam="1">  1       21 0.65021292E-02 0.30000000E+03</pdfrwt>
<pdfrwt beam="2">0</pdfrwt>
<totfact> 0.18339642E+04</totfact>
</mgrwt>
</event>
<event>
 6    1  0.1270461E-001  0.3000000E+03  0.7818608E-02  0.1093470E+00
         21   -1    0    0  501  502  0.00000000000E+00  0.00000000000E+00  0.11730696087E+01  0.11730696087E+01  0.00000000000E+00 0. -1.
         13   -1    0    0    0    0 -0.00000000000E+00 -0.00000000000E+00 -0.10000000000E+04  0.10000000000E+04  0.00000000000E+00 0.  1.
    9000005    2    1    2  501    0  0.26041517057E+02  0.20639347582E+02 -0.38444382202E+03  0.38589203859E+03  0.33867209370E+01 0.  0.
         13    1    3    3    0    0  0.17337030987E+02  0.13876720450E+02 -0.27464855426E+03  0.27554485002E+03  0.00000000000E+00 0.  1.
          3    1    3    3  501    0  0.87044860706E+01  0.67626271324E+01 -0.10979526776E+03  0.11034718857E+03  0.00000000000E+00 0.  1.
         -1    1    1    2    0  502 -0.26041517057E+02 -0.20639347582E+02 -0.61438310837E+03  0.61528103102E+03  0.00000000000E+00 0. -1.
<mgrwt>
<rscale>  1 0.30000000E+03</rscale>
<asrwt>0</asrwt>
<pdfrwt beam="1">  1       21 0.42657167E-02 0.30000000E+03</pdfrwt>
<pdfrwt beam="2">0</pdfrwt>
<totfact> 0.37723867E+04</totfact>
</mgrwt>
</event>
<event>
 6    1  0.1270461E-001  0.3000000E+03  0.7818608E-02  0.1093470E+00
         21   -1    0    0  501  502  0.00000000000E+00  0.00000000000E+00  0.27453297263E+01  0.27453297263E+01  0.00000000000E+00 0. -1.
         13   -1    0    0    0    0 -0.00000000000E+00 -0.00000000000E+00 -0.10000000000E+04  0.10000000000E+04  0.00000000000E+00 0.  1.
    9000005    2    1    2  501    0  0.38344375234E+02 -0.15331256888E+02 -0.80698146230E+03  0.80804239646E+03  0.28452471233E+01 0.  0.
         13    1    3    3    0    0  0.25346579132E+02 -0.11049831858E+02 -0.55962785154E+03  0.56031052112E+03  0.00000000000E+00 0.  1.
          1    1    3    3  501    0  0.12997796102E+02 -0.42814250306E+01 -0.24735361075E+03  0.24773187533E+03  0.00000000000E+00 0.  1.
         -3    1    1    2    0  502 -0.38344375234E+02  0.15331256888E+02 -0.19027320798E+03  0.19470293327E+03  0.00000000000E+00 0. -1.
<mgrwt>
<rscale>  1 0.30000000E+03</rscale>
<asrwt>0</asrwt>
<pdfrwt beam="1">  1       21 0.99830382E-02 0.30000000E+03</pdfrwt>
<pdfrwt beam="2">0</pdfrwt>
<totfact> 0.86293326E+03</totfact>
</mgrwt>
</event>
<event>
 6    1  0.1000021E+000  0.3000000E+03  0.7818608E-02  0.1093470E+00
         21   -1    0    0  501  502  0.00000000000E+00  0.00000000000E+00  0.21149021648E+01  0.21149021648E+01  0.00000000000E+00 0. -1.
         13   -1    0    0    0    0 -0.00000000000E+00 -0.00000000000E+00 -0.10000000000E+04  0.10000000000E+04  0.00000000000E+00 0.  1.
    9000005    2    1    2  501    0 -0.37432829640E+02 -0.13362161650E-02 -0.20926254124E+03  0.21260445036E+03  0.29367346520E+01 0.  0.
         13    1    3    3    0    0 -0.33785555203E+02  0.63114707639E+00 -0.18492674775E+03  0.18798873402E+03  0.00000000000E+00 0.  1.
          1    1    3    3  501    0 -0.36472744370E+01 -0.63248329256E+00 -0.24335793489E+02  0.24615716335E+02  0.00000000000E+00 0.  1.
         -1    1    1    2    0  502  0.37432829640E+02  0.13362161650E-02 -0.78862255660E+03  0.78951045181E+03  0.00000000000E+00 0. -1.
<mgrwt>
<rscale>  1 0.30000000E+03</rscale>
<asrwt>0</asrwt>
<pdfrwt beam="1">  1       21 0.76905695E-02 0.30000000E+03</pdfrwt>
<pdfrwt beam="2">0</pdfrwt>
<totfact> 0.13689303E+04</totfact>
</mgrwt>
</event>
<event>
 6    1  0.1270461E-001  0.3000000E+03  0.7818608E-02  0.1093470E+00
         21   -1    0    0  501  502  0.00000000000E+00  0.00000000000E+00  0.12029544702E+02  0.12029544702E+02  0.00000000000E+00 0. -1.
         13   -1    0    0    0    0 -0.00000000000E+00 -0.00000000000E+00 -0.10000000000E+04  0.10000000000E+04  0.00000000000E+00 0.  1.
    9000005    2    1    2  501    0 -0.28474475811E+02 -0.55858703580E+02 -0.90914484557E+03  0.91130979844E+03  0.31949906417E+01 0.  0.
         13    1    3    3    0    0 -0.70079670602E+00 -0.70724365962E+00 -0.11153489344E+02  0.11197840602E+02  0.00000000000E+00 0.  1.
          3    1    3    3  501    0 -0.27773679105E+02 -0.55151459920E+02 -0.89799135623E+03  0.90011195784E+03  0.00000000000E+00 0.  1.
         -3    1    1    2    0  502  0.28474475811E+02  0.55858703580E+02 -0.78825609723E+02  0.10071974626E+03  0.00000000000E+00 0. -1.
<mgrwt>
<rscale>  1 0.30000000E+03</rscale>
<asrwt>0</asrwt>
<pdfrwt beam="1">  1       21 0.43743891E-01 0.30000000E+03</pdfrwt>
<pdfrwt beam="2">0</pdfrwt>
<totfact> 0.50029297E+02</totfact>
</mgrwt>
</event>
<event>
 6    1  0.1270461E-001  0.3000000E+03  0.7818608E-02  0.1093470E+00
         21   -1    0    0  501  502  0.00000000000E+00  0.00000000000E+00  0.20924492873E+01  0.20924492873E+01  0.00000000000E+00 0. -1.
         13   -1    0    0    0    0 -0.00000000000E+00 -0.00000000000E+00 -0.10000000000E+04  0.10000000000E+04  0.00000000000E+00 0.  1.
    9000005    2    1    2  501    0  0.39369177343E+02 -0.16365385406E+02 -0.67690831182E+03  0.67827418339E+03  0.57660443608E+01 0.  0.
         13    1    3    3    0    0  0.28099582410E+02 -0.87825443323E+01 -0.46342055811E+03  0.46435474941E+03  0.00000000000E+00 0.  1.
          1    1    3    3  501    0  0.11269594933E+02 -0.75828410732E+01 -0.21348775371E+03  0.21391943397E+03  0.00000000000E+00 0.  1.
         -1    1    1    2    0  502 -0.39369177343E+02  0.16365385406E+02 -0.32099923889E+03  0.32381826590E+03  0.00000000000E+00 0. -1.
<mgrwt>
<rscale>  1 0.30000000E+03</rscale>
<asrwt>0</asrwt>
<pdfrwt beam="1">  1       21 0.76089225E-02 0.30000000E+03</pdfrwt>
<pdfrwt beam="2">0</pdfrwt>
<totfact> 0.13947757E+04</totfact>
</mgrwt>
</event>
<event>
 6    1  0.1270461E-001  0.3000000E+03  0.7818608E-02  0.1093470E+00
         21   -1    0    0  501  502  0.00000000000E+00  0.00000000000E+00  0.90444131280E+01  0.90444131280E+01  0.00000000000E+00 0. -1.
         13   -1    0    0    0    0 -0.00000000000E+00 -0.00000000000E+00 -0.10000000000E+04  0.10000000000E+04  0.00000000000E+00 0.  1.
    9000005    2    1    2  501    0 -0.45482042158E+02 -0.32364056598E+02 -0.90388430656E+03  0.90561590558E+03  0.41569794089E+01 0.  0.
         13    1    3    3    0    0 -0.13805847733E+02 -0.81487167918E+01 -0.23879422332E+03  0.23933174488E+03  0.00000000000E+00 0.  1.
          1    1    3    3  501    0 -0.31676194425E+02 -0.24215339806E+02 -0.66509008324E+03  0.66628416070E+03  0.00000000000E+00 0.  1.
         -3    1    1    2    0  502  0.45482042158E+02  0.32364056598E+02 -0.87071280316E+02  0.10342850755E+03  0.00000000000E+00 0. -1.
<mgrwt>
<rscale>  1 0.30000000E+03</rscale>
<asrwt>0</asrwt>
<pdfrwt beam="1">  1       21 0.32888844E-01 0.30000000E+03</pdfrwt>
<pdfrwt beam="2">0</pdfrwt>
<totfact> 0.90339070E+02</totfact>
</mgrwt>
</event>
<event>
 6    1  0.1270461E-001  0.3000000E+03  0.7818608E-02  0.1093470E+00
         21   -1    0    0  501  502  0.00000000000E+00  0.00000000000E+00  0.11669721158E+01  0.11669721158E+01  0.00000000000E+00 0. -1.
         13   -1    0    0    0    0 -0.00000000000E+00 -0.00000000000E+00 -0.10000000000E+04  0.10000000000E+04  0.00000000000E+00 0.  1.
    9000005    2    1    2  501    0  0.21833151089E+02  0.23818470937E+02 -0.34298162394E+03  0.34452013393E+03  0.37043593302E+01 0.  0.
         13    1    3    3    0    0  0.20250110419E+02  0.21995935121E+02 -0.30500594023E+03  0.30646779881E+03  0.00000000000E+00 0.  1.
          3    1    3    3  501    0  0.15830406701E+01  0.18225358167E+01 -0.37975683711E+02  0.38052335117E+02  0.00000000000E+00 0.  1.
         -3    1    1    2    0  502 -0.21833151089E+02 -0.23818470937E+02 -0.65585140395E+03  0.65664683819E+03  0.00000000000E+00 0. -1.
<mgrwt>
<rscale>  1 0.30000000E+03</rscale>
<asrwt>0</asrwt>
<pdfrwt beam="1">  1       21 0.42435439E-02 0.30000000E+03</pdfrwt>
<pdfrwt beam="2">0</pdfrwt>
<totfact> 0.38057586E+04</totfact>
</mgrwt>
</event>
<event>
 6    1  0.1270461E-001  0.3000000E+03  0.7818608E-02  0.1093470E+00
         21   -1    0    0  501  502  0.00000000000E+00  0.00000000000E+00  0.83967874213E+01  0.83967874213E+01  0.00000000000E+00 0. -1.
         13   -1    0    0    0    0 -0.00000000000E+00 -0.00000000000E+00 -0.10000000000E+04  0.10000000000E+04  0.00000000000E+00 0.  1.
    9000005    2    1    2  501    0  0.52756896146E+02  0.25101649683E+02 -0.88417121590E+03  0.88610608124E+03  0.34446014861E+01 0.  0.
         13    1    3    3    0    0  0.25166290352E+02  0.13174922410E+02 -0.44986791681E+03  0.45076386648E+03  0.00000000000E+00 0.  1.
          1    1    3    3  501    0  0.27590605794E+02  0.11926727273E+02 -0.43430329908E+03  0.43534221475E+03  0.00000000000E+00 0.  1.
         -3    1    1    2    0  502 -0.52756896146E+02 -0.25101649683E+02 -0.10743199668E+03  0.12229070618E+03  0.00000000000E+00 0. -1.
<mgrwt>
<rscale>  1 0.30000000E+03</rscale>
<asrwt>0</asrwt>
<pdfrwt beam="1">  1       21 0.30533837E-01 0.30000000E+03</pdfrwt>
<pdfrwt beam="2">0</pdfrwt>
<totfact> 0.10495364E+03</totfact>
</mgrwt>
</event>
<event>
 6    1  0.1270461E-001  0.3000000E+03  0.7818608E-02  0.1093470E+00
         21   -1    0    0  501  502  0.00000000000E+00  0.00000000000E+00  0.49698274964E+01  0.49698274964E+01  0.00000000000E+00 0. -1.
         13   -1    0    0    0    0 -0.00000000000E+00 -0.00000000000E+00 -0.10000000000E+04  0.10000000000E+04  0.00000000000E+00 0.  1.
    9000005    2    1    2  501    0  0.29959112277E+02  0.56219600405E+01 -0.95056734952E+03  0.95106159555E+03  0.32737942569E+01 0.  0.
         13    1    3    3    0    0  0.44781045950E+01  0.15315831348E+01 -0.11962767771E+03  0.11972126145E+03  0.00000000000E+00 0.  1.
          1    1    3    3  501    0  0.25481007682E+02  0.40903769057E+01 -0.83093967180E+03  0.83134033410E+03  0.00000000000E+00 0.  1.
         -1    1    1    2    0  502 -0.29959112277E+02 -0.56219600405E+01 -0.44462822987E+02  0.53908231942E+02  0.00000000000E+00 0. -1.
<mgrwt>
<rscale>  1 0.30000000E+03</rscale>
<asrwt>0</asrwt>
<pdfrwt beam="1">  1       21 0.18072138E-01 0.30000000E+03</pdfrwt>
<pdfrwt beam="2">0</pdfrwt>
<totfact> 0.29075620E+03</totfact>
</mgrwt>
</event>
<event>
 6    1  0.1270461E-001  0.3000000E+03  0.7818608E-02  0.1093470E+00
         21   -1    0    0  501  502  0.00000000000E+00  0.00000000000E+00  0.19267607072E+01  0.19267607072E+01  0.00000000000E+00 0. -1.
         13   -1    0    0    0    0 -0.00000000000E+00 -0.00000000000E+00 -0.10000000000E+04  0.10000000000E+04  0.00000000000E+00 0.  1.
    9000005    2    1    2  501    0  0.40501248551E+02  0.91361246047E+01 -0.66014068420E+03  0.66145322033E+03  0.32893523597E+01 0.  0.
         13    1    3    3    0    0  0.39808654596E+02  0.93182124562E+01 -0.64383715915E+03  0.64513397489E+03  0.00000000000E+00 0.  1.
          3    1    3    3  501    0  0.69259395540E+00 -0.18208785148E+00 -0.16303525055E+02  0.16319245435E+02  0.00000000000E+00 0.  1.
         -1    1    1    2    0  502 -0.40501248551E+02 -0.91361246047E+01 -0.33793255509E+03  0.34047354038E+03  0.00000000000E+00 0. -1.
<mgrwt>
<rscale>  1 0.30000000E+03</rscale>
<asrwt>0</asrwt>
<pdfrwt beam="1">  1       21 0.70064173E-02 0.30000000E+03</pdfrwt>
<pdfrwt beam="2">0</pdfrwt>
<totfact> 0.16109575E+04</totfact>
</mgrwt>
</event>
<event>
 6    1  0.1270461E-001  0.3000000E+03  0.7818608E-02  0.1093470E+00
         21   -1    0    0  501  502  0.00000000000E+00  0.00000000000E+00  0.29576934685E+01  0.29576934685E+01  0.00000000000E+00 0. -1.
         13   -1    0    0    0    0 -0.00000000000E+00 -0.00000000000E+00 -0.10000000000E+04  0.10000000000E+04  0.00000000000E+00 0.  1.
    9000005    2    1    2  501    0  0.41159172384E+02 -0.44231808947E+00 -0.82621536839E+03  0.82724168420E+03  0.16419519246E+01 0.  0.
         13    1    3    3    0    0  0.62474654944E+01 -0.57222351735E+00 -0.13209251699E+03  0.13224141299E+03  0.00000000000E+00 0.  1.
          3    1    3    3  501    0  0.34911706890E+02  0.12990542788E+00 -0.69412285140E+03  0.69500027121E+03  0.00000000000E+00 0.  1.
         -1    1    1    2    0  502 -0.41159172384E+02  0.44231808947E+00 -0.17082693814E+03  0.17571600926E+03  0.00000000000E+00 0. -1.
<mgrwt>
<rscale>  1 0.30000000E+03</rscale>
<asrwt>0</asrwt>
<pdfrwt beam="1">  1       21 0.10755272E-01 0.30000000E+03</pdfrwt>
<pdfrwt beam="2">0</pdfrwt>
<totfact> 0.75513144E+03</totfact>
</mgrwt>
</event>
<event>
 6    1  0.1270461E-001  0.3000000E+03  0.7818608E-02  0.1093470E+00
         21   -1    0    0  501  502  0.00000000000E+00  0.00000000000E+00  0.29782496536E+01  0.29782496536E+01  0.00000000000E+00 0. -1.
         13   -1    0    0    0    0 -0.00000000000E+00 -0.00000000000E+00 -0.10000000000E+04  0.10000000000E+04  0.00000000000E+00 0.  1.
    9000005    2    1    2  501    0 -0.49936114562E+02  0.21030939728E+02 -0.44239822649E+03  0.44571424653E+03  0.30137674452E+01 0.  0.
         13    1    3    3    0    0 -0.35357068883E+02  0.16032140752E+02 -0.32363058699E+03  0.32595077648E+03  0.00000000000E+00 0.  1.
          3    1    3    3  501    0 -0.14579045679E+02  0.49987989755E+01 -0.11876763951E+03  0.11976347005E+03  0.00000000000E+00 0.  1.
         -3    1    1    2    0  502  0.49936114562E+02 -0.21030939728E+02 -0.55462352385E+03  0.55726400312E+03  0.00000000000E+00 0. -1.
<mgrwt>
<rscale>  1 0.30000000E+03</rscale>
<asrwt>0</asrwt>
<pdfrwt beam="1">  1       21 0.10830022E-01 0.30000000E+03</pdfrwt>
<pdfrwt beam="2">0</pdfrwt>
<totfact> 0.74579486E+03</totfact>
</mgrwt>
</event>
<event>
 6    1  0.1270461E-001  0.3000000E+03  0.7818608E-02  0.1093470E+00
         21   -1    0    0  501  502  0.00000000000E+00  0.00000000000E+00  0.27013719244E+01  0.27013719244E+01  0.00000000000E+00 0. -1.
         13   -1    0    0    0    0 -0.00000000000E+00 -0.00000000000E+00 -0.10000000000E+04  0.10000000000E+04  0.00000000000E+00 0.  1.
    9000005    2    1    2  501    0  0.43711999931E+02 -0.19415593537E+02 -0.69343190201E+03  0.69509335606E+03  0.43893862593E+01 0.  0.
         13    1    3    3    0    0  0.40066858414E+02 -0.18177204624E+02 -0.61873888992E+03  0.62030119926E+03  0.00000000000E+00 0.  1.
          1    1    3    3  501    0  0.36451415178E+01 -0.12383889134E+01 -0.74693012091E+02  0.74792156801E+02  0.00000000000E+00 0.  1.
         -1    1    1    2    0  502 -0.43711999931E+02  0.19415593537E+02 -0.30386672607E+03  0.30760801586E+03  0.00000000000E+00 0. -1.
<mgrwt>
<rscale>  1 0.30000000E+03</rscale>
<asrwt>0</asrwt>
<pdfrwt beam="1">  1       21 0.98231913E-02 0.30000000E+03</pdfrwt>
<pdfrwt beam="2">0</pdfrwt>
<totfact> 0.88816991E+03</totfact>
</mgrwt>
</event>
<event>
 6    1  0.1270461E-001  0.3000000E+03  0.7818608E-02  0.1093470E+00
         21   -1    0    0  501  502  0.00000000000E+00  0.00000000000E+00  0.34010591059E+01  0.34010591059E+01  0.00000000000E+00 0. -1.
         13   -1    0    0    0    0 -0.00000000000E+00 -0.00000000000E+00 -0.10000000000E+04  0.10000000000E+04  0.00000000000E+00 0.  1.
    9000005    2    1    2  501    0 -0.13254939434E+02  0.55126339997E+02 -0.38344749271E+03  0.38763380990E+03  0.36584331784E+01 0.  0.
         13    1    3    3    0    0 -0.12165415422E+02  0.53408534960E+02 -0.36876259286E+03  0.37280868932E+03  0.00000000000E+00 0.  1.
          3    1    3    3  501    0 -0.10895240126E+01  0.17178050371E+01 -0.14684899847E+02  0.14825120581E+02  0.00000000000E+00 0.  1.
         -1    1    1    2    0  502  0.13254939434E+02 -0.55126339997E+02 -0.61315144818E+03  0.61576724920E+03  0.00000000000E+00 0. -1.
<mgrwt>
<rscale>  1 0.30000000E+03</rscale>
<asrwt>0</asrwt>
<pdfrwt beam="1">  1       21 0.12367514E-01 0.30000000E+03</pdfrwt>
<pdfrwt beam="2">0</pdfrwt>
<totfact> 0.58664133E+03</totfact>
</mgrwt>
</event>
<event>
 6    1  0.1270461E-001  0.3000000E+03  0.7818608E-02  0.1093470E+00
         21   -1    0    0  501  502  0.00000000000E+00  0.00000000000E+00  0.16888152878E+01  0.16888152878E+01  0.00000000000E+00 0. -1.
         13   -1    0    0    0    0 -0.00000000000E+00 -0.00000000000E+00 -0.10000000000E+04  0.10000000000E+04  0.00000000000E+00 0.  1.
    9000005    2    1    2  501    0 -0.22475885295E+02 -0.25253896559E+02 -0.78344924291E+03  0.78418346191E+03  0.28391921871E+01 0.  0.
         13    1    3    3    0    0 -0.15669203147E+02 -0.18644214367E+02 -0.58775093122E+03  0.58825529135E+03  0.00000000000E+00 0.  1.
          1    1    3    3  501    0 -0.68066821476E+01 -0.66096821913E+01 -0.19569831169E+03  0.19592817056E+03  0.00000000000E+00 0.  1.
         -1    1    1    2    0  502  0.22475885295E+02  0.25253896559E+02 -0.21486194180E+03  0.21750535337E+03  0.00000000000E+00 0. -1.
<mgrwt>
<rscale>  1 0.30000000E+03</rscale>
<asrwt>0</asrwt>
<pdfrwt beam="1">  1       21 0.61411595E-02 0.30000000E+03</pdfrwt>
<pdfrwt beam="2">0</pdfrwt>
<totfact> 0.20242919E+04</totfact>
</mgrwt>
</event>
<event>
 6    1  0.1270461E-001  0.3000000E+03  0.7818608E-02  0.1093470E+00
         21   -1    0    0  501  502  0.00000000000E+00  0.00000000000E+00  0.19208106189E+01  0.19208106189E+01  0.00000000000E+00 0. -1.
         13   -1    0    0    0    0 -0.00000000000E+00 -0.00000000000E+00 -0.10000000000E+04  0.10000000000E+04  0.00000000000E+00 0.  1.
    9000005    2    1    2  501    0 -0.38299778186E+02 -0.20998484475E+02 -0.52954413569E+03  0.53135423096E+03  0.35380433466E+01 0.  0.
         13    1    3    3    0    0 -0.11537175029E+02 -0.60095599031E+01 -0.17771351496E+03  0.17818898568E+03  0.00000000000E+00 0.  1.
          3    1    3    3  501    0 -0.26762603156E+02 -0.14988924572E+02 -0.35183062073E+03  0.35316524528E+03  0.00000000000E+00 0.  1.
         -3    1    1    2    0  502  0.38299778186E+02  0.20998484475E+02 -0.46853505369E+03  0.47056657966E+03  0.00000000000E+00 0. -1.
<mgrwt>
<rscale>  1 0.30000000E+03</rscale>
<asrwt>0</asrwt>
<pdfrwt beam="1">  1       21 0.69847806E-02 0.30000000E+03</pdfrwt>
<pdfrwt beam="2">0</pdfrwt>
<totfact> 0.16196517E+04</totfact>
</mgrwt>
</event>
<event>
 6    1  0.1270461E-001  0.3000000E+03  0.7818608E-02  0.1093470E+00
         21   -1    0    0  501  502  0.00000000000E+00  0.00000000000E+00  0.12183104373E+01  0.12183104373E+01  0.00000000000E+00 0. -1.
         13   -1    0    0    0    0 -0.00000000000E+00 -0.00000000000E+00 -0.10000000000E+04  0.10000000000E+04  0.00000000000E+00 0.  1.
    9000005    2    1    2  501    0 -0.26167114684E+02  0.22962177926E+02 -0.50031306782E+03  0.50153546466E+03  0.35604733199E+01 0.  0.
         13    1    3    3    0    0 -0.16969850841E+02  0.12944278655E+02 -0.29205204769E+03  0.29283088763E+03  0.00000000000E+00 0.  1.
          1    1    3    3  501    0 -0.91972638434E+01  0.10017899271E+02 -0.20826102013E+03  0.20870457704E+03  0.00000000000E+00 0.  1.
         -3    1    1    2    0  502  0.26167114684E+02 -0.22962177926E+02 -0.49846862174E+03  0.49968284578E+03  0.00000000000E+00 0. -1.
<mgrwt>
<rscale>  1 0.30000000E+03</rscale>
<asrwt>0</asrwt>
<pdfrwt beam="1">  1       21 0.44302291E-02 0.30000000E+03</pdfrwt>
<pdfrwt beam="2">0</pdfrwt>
<totfact> 0.35383525E+04</totfact>
</mgrwt>
</event>
<event>
 6    1  0.1270461E-001  0.3000000E+03  0.7818608E-02  0.1093470E+00
         21   -1    0    0  501  502  0.00000000000E+00  0.00000000000E+00  0.24646985290E+01  0.24646985290E+01  0.00000000000E+00 0. -1.
         13   -1    0    0    0    0 -0.00000000000E+00 -0.00000000000E+00 -0.10000000000E+04  0.10000000000E+04  0.00000000000E+00 0.  1.
    9000005    2    1    2  501    0 -0.36056010170E+02 -0.58761221400E+01 -0.83784096936E+03  0.83864515028E+03  0.36923523830E+01 0.  0.
         13    1    3    3    0    0 -0.20769241593E+02 -0.23431194763E+01 -0.44366445867E+03  0.44415650788E+03  0.00000000000E+00 0.  1.
          3    1    3    3  501    0 -0.15286768576E+02 -0.35330026637E+01 -0.39417651069E+03  0.39448864240E+03  0.00000000000E+00 0.  1.
         -1    1    1    2    0  502  0.36056010170E+02  0.58761221400E+01 -0.15969433211E+03  0.16381954825E+03  0.00000000000E+00 0. -1.
<mgrwt>
<rscale>  1 0.30000000E+03</rscale>
<asrwt>0</asrwt>
<pdfrwt beam="1">  1       21 0.89625590E-02 0.30000000E+03</pdfrwt>
<pdfrwt beam="2">0</pdfrwt>
<totfact> 0.10455008E+04</totfact>
</mgrwt>
</event>
<event>
 6    1  0.1270461E-001  0.3000000E+03  0.7818608E-02  0.1093470E+00
         21   -1    0    0  501  502  0.00000000000E+00  0.00000000000E+00  0.16803158690E+01  0.16803158690E+01  0.00000000000E+00 0. -1.
         13   -1    0    0    0    0 -0.00000000000E+00 -0.00000000000E+00 -0.10000000000E+04  0.10000000000E+04  0.00000000000E+00 0.  1.
    9000005    2    1    2  501    0  0.21066709870E+02 -0.26988808125E+02 -0.22752154227E+03  0.23012216671E+03  0.42376158638E+01 0.  0.
         13    1    3    3    0    0  0.23494716967E+01 -0.12161610689E+01 -0.17892039591E+02  0.18086573631E+02  0.00000000000E+00 0.  1.
          3    1    3    3  501    0  0.18717238173E+02 -0.25772647056E+02 -0.20962950267E+03  0.21203559308E+03  0.00000000000E+00 0.  1.
         -1    1    1    2    0  502 -0.21066709870E+02  0.26988808125E+02 -0.77079814187E+03  0.77155814916E+03  0.00000000000E+00 0. -1.
<mgrwt>
<rscale>  1 0.30000000E+03</rscale>
<asrwt>0</asrwt>
<pdfrwt beam="1">  1       21 0.61102524E-02 0.30000000E+03</pdfrwt>
<pdfrwt beam="2">0</pdfrwt>
<totfact> 0.20419989E+04</totfact>
</mgrwt>
</event>
<event>
 6    1  0.1270461E-001  0.3000000E+03  0.7818608E-02  0.1093470E+00
         21   -1    0    0  501  502  0.00000000000E+00  0.00000000000E+00  0.43595675135E+01  0.43595675135E+01  0.00000000000E+00 0. -1.
         13   -1    0    0    0    0 -0.00000000000E+00 -0.00000000000E+00 -0.10000000000E+04  0.10000000000E+04  0.00000000000E+00 0.  1.
    9000005    2    1    2  501    0 -0.30278261528E+02 -0.50321488753E+01 -0.94239839063E+03  0.94290380567E+03  0.32809189407E+01 0.  0.
         13    1    3    3    0    0 -0.13027568546E+02 -0.27024573809E+01 -0.45584534637E+03  0.45603947266E+03  0.00000000000E+00 0.  1.
          1    1    3    3  501    0 -0.17250692982E+02 -0.23296914945E+01 -0.48655304426E+03  0.48686433301E+03  0.00000000000E+00 0.  1.
         -3    1    1    2    0  502  0.30278261528E+02  0.50321488753E+01 -0.53242041854E+02  0.61455761847E+02  0.00000000000E+00 0. -1.
<mgrwt>
<rscale>  1 0.30000000E+03</rscale>
<asrwt>0</asrwt>
<pdfrwt beam="1">  1       21 0.15853006E-01 0.30000000E+03</pdfrwt>
<pdfrwt beam="2">0</pdfrwt>
<totfact> 0.37160243E+03</totfact>
</mgrwt>
</event>
<event>
 6    1  0.1270461E-001  0.3000000E+03  0.7818608E-02  0.1093470E+00
         21   -1    0    0  501  502  0.00000000000E+00  0.00000000000E+00  0.28842883950E+01  0.28842883950E+01  0.00000000000E+00 0. -1.
         13   -1    0    0    0    0 -0.00000000000E+00 -0.00000000000E+00 -0.10000000000E+04  0.10000000000E+04  0.00000000000E+00 0.  1.
    9000005    2    1    2  501    0  0.23227128765E+02 -0.28942625584E+02 -0.86082462619E+03  0.86163119976E+03  0.34802660931E+01 0.  0.
         13    1    3    3    0    0  0.17944409415E+01 -0.10098709043E+01 -0.51256388970E+02  0.51297731604E+02  0.00000000000E+00 0.  1.
          1    1    3    3  501    0  0.21432687823E+02 -0.27932754680E+02 -0.80956823722E+03  0.81033346816E+03  0.00000000000E+00 0.  1.
         -3    1    1    2    0  502 -0.23227128765E+02  0.28942625584E+02 -0.13629108541E+03  0.14125308864E+03  0.00000000000E+00 0. -1.
<mgrwt>
<rscale>  1 0.30000000E+03</rscale>
<asrwt>0</asrwt>
<pdfrwt beam="1">  1       21 0.10488344E-01 0.30000000E+03</pdfrwt>
<pdfrwt beam="2">0</pdfrwt>
<totfact> 0.78995813E+03</totfact>
</mgrwt>
</event>
<event>
 6    1  0.1270461E-001  0.3000000E+03  0.7818608E-02  0.1093470E+00
         21   -1    0    0  501  502  0.00000000000E+00  0.00000000000E+00  0.40498353985E+01  0.40498353985E+01  0.00000000000E+00 0. -1.
         13   -1    0    0    0    0 -0.00000000000E+00 -0.00000000000E+00 -0.10000000000E+04  0.10000000000E+04  0.00000000000E+00 0.  1.
    9000005    2    1    2  501    0  0.43977508266E+02  0.17357130598E+02 -0.83384059914E+03  0.83518656991E+03  0.33422410599E+01 0.  0.
         13    1    3    3    0    0  0.10030319735E+02  0.24808559266E+01 -0.18001906160E+03  0.18031534738E+03  0.00000000000E+00 0.  1.
          3    1    3    3  501    0  0.33947188531E+02  0.14876274671E+02 -0.65382153754E+03  0.65487122254E+03  0.00000000000E+00 0.  1.
         -3    1    1    2    0  502 -0.43977508266E+02 -0.17357130598E+02 -0.16210956546E+03  0.16886326548E+03  0.00000000000E+00 0. -1.
<mgrwt>
<rscale>  1 0.30000000E+03</rscale>
<asrwt>0</asrwt>
<pdfrwt beam="1">  1       21 0.14726705E-01 0.30000000E+03</pdfrwt>
<pdfrwt beam="2">0</pdfrwt>
<totfact> 0.42604434E+03</totfact>
</mgrwt>
</event>
<event>
 6    1  0.1270461E-001  0.3000000E+03  0.7818608E-02  0.1093470E+00
         21   -1    0    0  501  502  0.00000000000E+00  0.00000000000E+00  0.10930592486E+01  0.10930592486E+01  0.00000000000E+00 0. -1.
         13   -1    0    0    0    0 -0.00000000000E+00 -0.00000000000E+00 -0.10000000000E+04  0.10000000000E+04  0.00000000000E+00 0.  1.
    9000005    2    1    2  501    0  0.11665696822E+02 -0.30345241210E+02 -0.58457103705E+03  0.58548367143E+03  0.33030300764E+01 0.  0.
         13    1    3    3    0    0  0.87149349118E+01 -0.19687841450E+02 -0.40613677298E+03  0.40670706849E+03  0.00000000000E+00 0.  1.
          1    1    3    3  501    0  0.29507619107E+01 -0.10657399760E+02 -0.17843426407E+03  0.17877660294E+03  0.00000000000E+00 0.  1.
         -3    1    1    2    0  502 -0.11665696822E+02  0.30345241210E+02 -0.41433590370E+03  0.41560938782E+03  0.00000000000E+00 0. -1.
<mgrwt>
<rscale>  1 0.30000000E+03</rscale>
<asrwt>0</asrwt>
<pdfrwt beam="1">  1       21 0.39747693E-02 0.30000000E+03</pdfrwt>
<pdfrwt beam="2">0</pdfrwt>
<totfact> 0.42497703E+04</totfact>
</mgrwt>
</event>
<event>
 6    1  0.1270461E-001  0.3000000E+03  0.7818608E-02  0.1093470E+00
         21   -1    0    0  501  502  0.00000000000E+00  0.00000000000E+00  0.17010248102E+01  0.17010248102E+01  0.00000000000E+00 0. -1.
         13   -1    0    0    0    0 -0.00000000000E+00 -0.00000000000E+00 -0.10000000000E+04  0.10000000000E+04  0.00000000000E+00 0.  1.
    9000005    2    1    2  501    0 -0.25278403923E+02 -0.28555637386E+02 -0.68859205471E+03  0.68965487642E+03  0.32262408449E+01 0.  0.
         13    1    3    3    0    0 -0.21112070595E+02 -0.23744466559E+02 -0.59375605278E+03  0.59460555785E+03  0.00000000000E+00 0.  1.
          3    1    3    3  501    0 -0.41663333285E+01 -0.48111708270E+01 -0.94836001929E+02  0.95049318567E+02  0.00000000000E+00 0.  1.
         -3    1    1    2    0  502  0.25278403923E+02  0.28555637386E+02 -0.30970692048E+03  0.31204614839E+03  0.00000000000E+00 0. -1.
<mgrwt>
<rscale>  1 0.30000000E+03</rscale>
<asrwt>0</asrwt>
<pdfrwt beam="1">  1       21 0.61855578E-02 0.30000000E+03</pdfrwt>
<pdfrwt beam="2">0</pdfrwt>
<totfact> 0.19992700E+04</totfact>
</mgrwt>
</event>
<event>
 6    1  0.1270461E-001  0.3000000E+03  0.7818608E-02  0.1093470E+00
         21   -1    0    0  501  502  0.00000000000E+00  0.00000000000E+00  0.10665312340E+01  0.10665312340E+01  0.00000000000E+00 0. -1.
         13   -1    0    0    0    0 -0.00000000000E+00 -0.00000000000E+00 -0.10000000000E+04  0.10000000000E+04  0.00000000000E+00 0.  1.
    9000005    2    1    2  501    0  0.23877950830E+01 -0.32032316307E+02 -0.44985752965E+03  0.45105184255E+03  0.66480696858E+01 0.  0.
         13    1    3    3    0    0 -0.37588777536E+00 -0.13019474682E+01 -0.44959600535E+02  0.44980018220E+02  0.00000000000E+00 0.  1.
          3    1    3    3  501    0  0.27636828584E+01 -0.30730368838E+02 -0.40489792912E+03  0.40607182433E+03  0.00000000000E+00 0.  1.
         -3    1    1    2    0  502 -0.23877950830E+01  0.32032316307E+02 -0.54907593911E+03  0.55001468868E+03  0.00000000000E+00 0. -1.
<mgrwt>
<rscale>  1 0.30000000E+03</rscale>
<asrwt>0</asrwt>
<pdfrwt beam="1">  1       21 0.38783036E-02 0.30000000E+03</pdfrwt>
<pdfrwt beam="2">0</pdfrwt>
<totfact> 0.44291275E+04</totfact>
</mgrwt>
</event>
<event>
 6    1  0.1270461E-001  0.3000000E+03  0.7818608E-02  0.1093470E+00
         21   -1    0    0  501  502  0.00000000000E+00  0.00000000000E+00  0.43793727690E+01  0.43793727690E+01  0.00000000000E+00 0. -1.
         13   -1    0    0    0    0 -0.00000000000E+00 -0.00000000000E+00 -0.10000000000E+04  0.10000000000E+04  0.00000000000E+00 0.  1.
    9000005    2    1    2  501    0 -0.45257357813E+02  0.25819666704E+02 -0.80721267810E+03  0.80889935097E+03  0.33119023601E+01 0.  0.
         13    1    3    3    0    0 -0.25722480184E+02  0.15475705030E+02 -0.44173322705E+03  0.44275206077E+03  0.00000000000E+00 0.  1.
          1    1    3    3  501    0 -0.19534877629E+02  0.10343961674E+02 -0.36547945105E+03  0.36614729021E+03  0.00000000000E+00 0.  1.
         -3    1    1    2    0  502  0.45257357813E+02 -0.25819666704E+02 -0.18840794913E+03  0.19548002180E+03  0.00000000000E+00 0. -1.
<mgrwt>
<rscale>  1 0.30000000E+03</rscale>
<asrwt>0</asrwt>
<pdfrwt beam="1">  1       21 0.15925025E-01 0.30000000E+03</pdfrwt>
<pdfrwt beam="2">0</pdfrwt>
<totfact> 0.36847772E+03</totfact>
</mgrwt>
</event>
<event>
 6    1  0.1270461E-001  0.3000000E+03  0.7818608E-02  0.1093470E+00
         21   -1    0    0  501  502  0.00000000000E+00  0.00000000000E+00  0.17396705594E+01  0.17396705594E+01  0.00000000000E+00 0. -1.
         13   -1    0    0    0    0 -0.00000000000E+00 -0.00000000000E+00 -0.10000000000E+04  0.10000000000E+04  0.00000000000E+00 0.  1.
    9000005    2    1    2  501    0  0.42204485445E+01  0.39421907743E+02 -0.65291929854E+03  0.65413022504E+03  0.32927038915E+01 0.  0.
         13    1    3    3    0    0  0.18448481735E+01  0.10195655109E+02 -0.19160997435E+03  0.19188990885E+03  0.00000000000E+00 0.  1.
          1    1    3    3  501    0  0.23756003710E+01  0.29226252634E+02 -0.46130932419E+03  0.46224031619E+03  0.00000000000E+00 0.  1.
         -1    1    1    2    0  502 -0.42204485445E+01 -0.39421907743E+02 -0.34534103090E+03  0.34760944552E+03  0.00000000000E+00 0. -1.
<mgrwt>
<rscale>  1 0.30000000E+03</rscale>
<asrwt>0</asrwt>
<pdfrwt beam="1">  1       21 0.63260881E-02 0.30000000E+03</pdfrwt>
<pdfrwt beam="2">0</pdfrwt>
<totfact> 0.19231542E+04</totfact>
</mgrwt>
</event>
<event>
 6    1  0.1270461E-001  0.3000000E+03  0.7818608E-02  0.1093470E+00
         21   -1    0    0  501  502  0.00000000000E+00  0.00000000000E+00  0.15097616038E+01  0.15097616038E+01  0.00000000000E+00 0. -1.
         13   -1    0    0    0    0 -0.00000000000E+00 -0.00000000000E+00 -0.10000000000E+04  0.10000000000E+04  0.00000000000E+00 0.  1.
    9000005    2    1    2  501    0 -0.20749163406E+02 -0.25757833394E+02 -0.76125428747E+03  0.76197919952E+03  0.31963318860E+01 0.  0.
         13    1    3    3    0    0 -0.43471183545E+01 -0.69177004041E+01 -0.21132887060E+03  0.21148674560E+03  0.00000000000E+00 0.  1.
          1    1    3    3  501    0 -0.16402045051E+02 -0.18840132990E+02 -0.54992541688E+03  0.55049245392E+03  0.00000000000E+00 0.  1.
         -3    1    1    2    0  502  0.20749163406E+02  0.25757833394E+02 -0.23723595092E+03  0.23953056209E+03  0.00000000000E+00 0. -1.
<mgrwt>
<rscale>  1 0.30000000E+03</rscale>
<asrwt>0</asrwt>
<pdfrwt beam="1">  1       21 0.54900538E-02 0.30000000E+03</pdfrwt>
<pdfrwt beam="2">0</pdfrwt>
<totfact> 0.24550221E+04</totfact>
</mgrwt>
</event>
<event>
 6    1  0.1270461E-001  0.3000000E+03  0.7818608E-02  0.1093470E+00
         21   -1    0    0  501  502  0.00000000000E+00  0.00000000000E+00  0.17976580729E+01  0.17976580729E+01  0.00000000000E+00 0. -1.
         13   -1    0    0    0    0 -0.00000000000E+00 -0.00000000000E+00 -0.10000000000E+04  0.10000000000E+04  0.00000000000E+00 0.  1.
    9000005    2    1    2  501    0  0.30390830467E+02 -0.20242486452E+01 -0.84721799610E+03  0.84777177439E+03  0.33088335657E+01 0.  0.
         13    1    3    3    0    0  0.91203349095E+01 -0.73589230221E+00 -0.29833093866E+03  0.29847122309E+03  0.00000000000E+00 0.  1.
          1    1    3    3  501    0  0.21270495558E+02 -0.12883563430E+01 -0.54888705744E+03  0.54930055131E+03  0.00000000000E+00 0.  1.
         -3    1    1    2    0  502 -0.30390830467E+02  0.20242486452E+01 -0.15098434582E+03  0.15402588368E+03  0.00000000000E+00 0. -1.
<mgrwt>
<rscale>  1 0.30000000E+03</rscale>
<asrwt>0</asrwt>
<pdfrwt beam="1">  1       21 0.65369522E-02 0.30000000E+03</pdfrwt>
<pdfrwt beam="2">0</pdfrwt>
<totfact> 0.18170790E+04</totfact>
</mgrwt>
</event>
<event>
 6    1  0.1270461E-001  0.3000000E+03  0.7818608E-02  0.1093470E+00
         21   -1    0    0  501  502  0.00000000000E+00  0.00000000000E+00  0.12136766874E+01  0.12136766874E+01  0.00000000000E+00 0. -1.
         13   -1    0    0    0    0 -0.00000000000E+00 -0.00000000000E+00 -0.10000000000E+04  0.10000000000E+04  0.00000000000E+00 0.  1.
    9000005    2    1    2  501    0 -0.14025734148E+02 -0.26684621805E+02 -0.74929382018E+03  0.74990649538E+03  0.31197095996E+01 0.  0.
         13    1    3    3    0    0 -0.21295749459E+00 -0.12194771611E+01 -0.20730313505E+02  0.20767242799E+02  0.00000000000E+00 0.  1.
          1    1    3    3  501    0 -0.13812776654E+02 -0.25465144644E+02 -0.72856350668E+03  0.72913925258E+03  0.00000000000E+00 0.  1.
         -3    1    1    2    0  502  0.14025734148E+02  0.26684621805E+02 -0.24949250313E+03  0.25130718131E+03  0.00000000000E+00 0. -1.
<mgrwt>
<rscale>  1 0.30000000E+03</rscale>
<asrwt>0</asrwt>
<pdfrwt beam="1">  1       21 0.44133791E-02 0.30000000E+03</pdfrwt>
<pdfrwt beam="2">0</pdfrwt>
<totfact> 0.35612754E+04</totfact>
</mgrwt>
</event>
<event>
 6    1  0.1270461E-001  0.3000000E+03  0.7818608E-02  0.1093470E+00
         21   -1    0    0  501  502  0.00000000000E+00  0.00000000000E+00  0.83530376270E+01  0.83530376270E+01  0.00000000000E+00 0. -1.
         13   -1    0    0    0    0 -0.00000000000E+00 -0.00000000000E+00 -0.10000000000E+04  0.10000000000E+04  0.00000000000E+00 0.  1.
    9000005    2    1    2  501    0 -0.59047879242E+02 -0.46125968081E+02 -0.78420196079E+03  0.78779083403E+03  0.52369741228E+01 0.  0.
         13    1    3    3    0    0 -0.26711883010E+02 -0.21423358839E+02 -0.38547971176E+03  0.38699753639E+03  0.00000000000E+00 0.  1.
          1    1    3    3  501    0 -0.32335996232E+02 -0.24702609241E+02 -0.39872224904E+03  0.40079329764E+03  0.00000000000E+00 0.  1.
         -3    1    1    2    0  502  0.59047879242E+02  0.46125968081E+02 -0.20744500158E+03  0.22056220359E+03  0.00000000000E+00 0. -1.
<mgrwt>
<rscale>  1 0.30000000E+03</rscale>
<asrwt>0</asrwt>
<pdfrwt beam="1">  1       21 0.30374746E-01 0.30000000E+03</pdfrwt>
<pdfrwt beam="2">0</pdfrwt>
<totfact> 0.10605865E+03</totfact>
</mgrwt>
</event>
<event>
 6    1  0.1270461E-001  0.3000000E+03  0.7818608E-02  0.1093470E+00
         21   -1    0    0  501  502  0.00000000000E+00  0.00000000000E+00  0.94137044450E+01  0.94137044450E+01  0.00000000000E+00 0. -1.
         13   -1    0    0    0    0 -0.00000000000E+00 -0.00000000000E+00 -0.10000000000E+04  0.10000000000E+04  0.00000000000E+00 0.  1.
    9000005    2    1    2  501    0  0.10431157368E+02 -0.35732789492E+02 -0.96136381809E+03  0.96208935048E+03  0.31442462907E+01 0.  0.
         13    1    3    3    0    0  0.63246249455E+00 -0.65927823958E+00 -0.18531369270E+02  0.18553875704E+02  0.00000000000E+00 0.  1.
          3    1    3    3  501    0  0.97986948732E+01 -0.35073511252E+02 -0.94283244882E+03  0.94353547478E+03  0.00000000000E+00 0.  1.
         -1    1    1    2    0  502 -0.10431157368E+02  0.35732789492E+02 -0.29222477460E+02  0.47324353961E+02  0.00000000000E+00 0. -1.
<mgrwt>
<rscale>  1 0.30000000E+03</rscale>
<asrwt>0</asrwt>
<pdfrwt beam="1">  1       21 0.34231725E-01 0.30000000E+03</pdfrwt>
<pdfrwt beam="2">0</pdfrwt>
<totfact> 0.83270662E+02</totfact>
</mgrwt>
</event>
<event>
 6    1  0.1270461E-001  0.3000000E+03  0.7818608E-02  0.1093470E+00
         21   -1    0    0  501  502  0.00000000000E+00  0.00000000000E+00  0.15136598748E+01  0.15136598748E+01  0.00000000000E+00 0. -1.
         13   -1    0    0    0    0 -0.00000000000E+00 -0.00000000000E+00 -0.10000000000E+04  0.10000000000E+04  0.00000000000E+00 0.  1.
    9000005    2    1    2  501    0  0.23793500540E+02  0.20045887200E+02 -0.79922612069E+03  0.79983916145E+03  0.35105483995E+01 0.  0.
         13    1    3    3    0    0  0.19670442297E+02  0.15068550502E+02 -0.65417785751E+03  0.65464697110E+03  0.00000000000E+00 0.  1.
          3    1    3    3  501    0  0.41230582423E+01  0.49773366987E+01 -0.14504826317E+03  0.14519219035E+03  0.00000000000E+00 0.  1.
         -1    1    1    2    0  502 -0.23793500540E+02 -0.20045887200E+02 -0.19926021944E+03  0.20167449842E+03  0.00000000000E+00 0. -1.
<mgrwt>
<rscale>  1 0.30000000E+03</rscale>
<asrwt>0</asrwt>
<pdfrwt beam="1">  1       21 0.55042293E-02 0.30000000E+03</pdfrwt>
<pdfrwt beam="2">0</pdfrwt>
<totfact> 0.24441912E+04</totfact>
</mgrwt>
</event>
<event>
 6    1  0.1270461E-001  0.3000000E+03  0.7818608E-02  0.1093470E+00
         21   -1    0    0  501  502  0.00000000000E+00  0.00000000000E+00  0.18230117962E+01  0.18230117962E+01  0.00000000000E+00 0. -1.
         13   -1    0    0    0    0 -0.00000000000E+00 -0.00000000000E+00 -0.10000000000E+04  0.10000000000E+04  0.00000000000E+00 0.  1.
    9000005    2    1    2  501    0  0.14677654778E+02  0.26644157080E+02 -0.85021479222E+03  0.85076621421E+03  0.35515739506E+01 0.  0.
         13    1    3    3    0    0  0.12467179450E+02  0.19624747163E+02 -0.65763637400E+03  0.65804723362E+03  0.00000000000E+00 0.  1.
          1    1    3    3  501    0  0.22104753280E+01  0.70194099170E+01 -0.19257841822E+03  0.19271898059E+03  0.00000000000E+00 0.  1.
         -1    1    1    2    0  502 -0.14677654778E+02 -0.26644157080E+02 -0.14796219599E+03  0.15105679759E+03  0.00000000000E+00 0. -1.
<mgrwt>
<rscale>  1 0.30000000E+03</rscale>
<asrwt>0</asrwt>
<pdfrwt beam="1">  1       21 0.66291478E-02 0.30000000E+03</pdfrwt>
<pdfrwt beam="2">0</pdfrwt>
<totfact> 0.17735143E+04</totfact>
</mgrwt>
</event>
<event>
 6    1  0.1270461E-001  0.3000000E+03  0.7818608E-02  0.1093470E+00
         21   -1    0    0  501  502  0.00000000000E+00  0.00000000000E+00  0.18102499682E+01  0.18102499682E+01  0.00000000000E+00 0. -1.
         13   -1    0    0    0    0 -0.00000000000E+00 -0.00000000000E+00 -0.10000000000E+04  0.10000000000E+04  0.00000000000E+00 0.  1.
    9000005    2    1    2  501    0  0.31797297246E+02  0.21348901560E+02 -0.71341069959E+03  0.71446733414E+03  0.64731402106E+01 0.  0.
         13    1    3    3    0    0  0.23800700516E+02  0.14967812624E+02 -0.46833900566E+03  0.46918219594E+03  0.00000000000E+00 0.  1.
          1    1    3    3  501    0  0.79965967298E+01  0.63810889361E+01 -0.24507169393E+03  0.24528513820E+03  0.00000000000E+00 0.  1.
         -3    1    1    2    0  502 -0.31797297246E+02 -0.21348901560E+02 -0.28477905044E+03  0.28734291583E+03  0.00000000000E+00 0. -1.
<mgrwt>
<rscale>  1 0.30000000E+03</rscale>
<asrwt>0</asrwt>
<pdfrwt beam="1">  1       21 0.65827410E-02 0.30000000E+03</pdfrwt>
<pdfrwt beam="2">0</pdfrwt>
<totfact> 0.17952390E+04</totfact>
</mgrwt>
</event>
<event>
 6    1  0.1270461E-001  0.3000000E+03  0.7818608E-02  0.1093470E+00
         21   -1    0    0  501  502  0.00000000000E+00  0.00000000000E+00  0.93581390808E+00  0.93581390808E+00  0.00000000000E+00 0. -1.
         13   -1    0    0    0    0 -0.00000000000E+00 -0.00000000000E+00 -0.10000000000E+04  0.10000000000E+04  0.00000000000E+00 0.  1.
    9000005    2    1    2  501    0 -0.11383948974E+02 -0.28291656660E+02 -0.49441970210E+03  0.49537071686E+03  0.33605305951E+01 0.  0.
         13    1    3    3    0    0 -0.10349503173E+02 -0.26526718912E+02 -0.44617907524E+03  0.44708673232E+03  0.00000000000E+00 0.  1.
          3    1    3    3  501    0 -0.10344458014E+01 -0.17649377481E+01 -0.48240626860E+02  0.48283984541E+02  0.00000000000E+00 0.  1.
         -1    1    1    2    0  502  0.11383948974E+02  0.28291656660E+02 -0.50464448399E+03  0.50556509705E+03  0.00000000000E+00 0. -1.
<mgrwt>
<rscale>  1 0.30000000E+03</rscale>
<asrwt>0</asrwt>
<pdfrwt beam="1">  1       21 0.34029668E-02 0.30000000E+03</pdfrwt>
<pdfrwt beam="2">0</pdfrwt>
<totfact> 0.55150573E+04</totfact>
</mgrwt>
</event>
<event>
 6    1  0.1270461E-001  0.3000000E+03  0.7818608E-02  0.1093470E+00
         21   -1    0    0  501  502  0.00000000000E+00  0.00000000000E+00  0.12676595072E+01  0.12676595072E+01  0.00000000000E+00 0. -1.
         13   -1    0    0    0    0 -0.00000000000E+00 -0.00000000000E+00 -0.10000000000E+04  0.10000000000E+04  0.00000000000E+00 0.  1.
    9000005    2    1    2  501    0  0.34998271138E+02 -0.61275665750E+01 -0.49112936817E+03  0.49242268944E+03  0.31020539169E+01 0.  0.
         13    1    3    3    0    0  0.19938799451E+02 -0.42732525508E+01 -0.29971005900E+03  0.30040295584E+03  0.00000000000E+00 0.  1.
          1    1    3    3  501    0  0.15059471687E+02 -0.18543140242E+01 -0.19141930917E+03  0.19201973360E+03  0.00000000000E+00 0.  1.
         -3    1    1    2    0  502 -0.34998271138E+02  0.61275665750E+01 -0.50760297232E+03  0.50884497007E+03  0.00000000000E+00 0. -1.
<mgrwt>
<rscale>  1 0.30000000E+03</rscale>
<asrwt>0</asrwt>
<pdfrwt beam="1">  1       21 0.46096807E-02 0.30000000E+03</pdfrwt>
<pdfrwt beam="2">0</pdfrwt>
<totfact> 0.33077426E+04</totfact>
</mgrwt>
</event>
<event>
 6    1  0.1270461E-001  0.3000000E+03  0.7818608E-02  0.1093470E+00
         21   -1    0    0  501  502  0.00000000000E+00  0.00000000000E+00  0.10955294483E+01  0.10955294483E+01  0.00000000000E+00 0. -1.
         13   -1    0    0    0    0 -0.00000000000E+00 -0.00000000000E+00 -0.10000000000E+04  0.10000000000E+04  0.00000000000E+00 0.  1.
    9000005    2    1    2  501    0  0.22653688088E+02  0.22064861213E+02 -0.36944896979E+03  0.37084615410E+03  0.58550021025E+01 0.  0.
         13    1    3    3    0    0  0.42213511687E+01  0.30280741933E+01 -0.87750806029E+02  0.87904453799E+02  0.00000000000E+00 0.  1.
          1    1    3    3  501    0  0.18432336919E+02  0.19036787020E+02 -0.28169816376E+03  0.28294170030E+03  0.00000000000E+00 0.  1.
         -1    1    1    2    0  502 -0.22653688088E+02 -0.22064861213E+02 -0.62945550077E+03  0.63024937535E+03  0.00000000000E+00 0. -1.
<mgrwt>
<rscale>  1 0.30000000E+03</rscale>
<asrwt>0</asrwt>
<pdfrwt beam="1">  1       21 0.39837518E-02 0.30000000E+03</pdfrwt>
<pdfrwt beam="2">0</pdfrwt>
<totfact> 0.42336499E+04</totfact>
</mgrwt>
</event>
<event>
 6    1  0.1270461E-001  0.3000000E+03  0.7818608E-02  0.1093470E+00
         21   -1    0    0  501  502  0.00000000000E+00  0.00000000000E+00  0.17007571826E+01  0.17007571826E+01  0.00000000000E+00 0. -1.
         13   -1    0    0    0    0 -0.00000000000E+00 -0.00000000000E+00 -0.10000000000E+04  0.10000000000E+04  0.00000000000E+00 0.  1.
    9000005    2    1    2  501    0  0.57362977861E+01 -0.37281282605E+02 -0.70082470363E+03  0.70184429050E+03  0.27099350796E+01 0.  0.
         13    1    3    3    0    0  0.31739916069E+01 -0.12855069926E+02 -0.23587146798E+03  0.23624283365E+03  0.00000000000E+00 0.  1.
          3    1    3    3  501    0  0.25623061792E+01 -0.24426212680E+02 -0.46495323565E+03  0.46560145685E+03  0.00000000000E+00 0.  1.
         -3    1    1    2    0  502 -0.57362977861E+01  0.37281282605E+02 -0.29747453919E+03  0.29985646668E+03  0.00000000000E+00 0. -1.
<mgrwt>
<rscale>  1 0.30000000E+03</rscale>
<asrwt>0</asrwt>
<pdfrwt beam="1">  1       21 0.61845846E-02 0.30000000E+03</pdfrwt>
<pdfrwt beam="2">0</pdfrwt>
<totfact> 0.19998133E+04</totfact>
</mgrwt>
</event>
<event>
 6    1  0.1270461E-001  0.3000000E+03  0.7818608E-02  0.1093470E+00
         21   -1    0    0  501  502  0.00000000000E+00  0.00000000000E+00  0.16994179408E+01  0.16994179408E+01  0.00000000000E+00 0. -1.
         13   -1    0    0    0    0 -0.00000000000E+00 -0.00000000000E+00 -0.10000000000E+04  0.10000000000E+04  0.00000000000E+00 0.  1.
    9000005    2    1    2  501    0  0.22960868561E+02  0.24491209652E+02 -0.78926174200E+03  0.78998201788E+03  0.32357925334E+01 0.  0.
         13    1    3    3    0    0  0.12539973298E+02  0.15681020592E+02 -0.47431032761E+03  0.47473511795E+03  0.00000000000E+00 0.  1.
          3    1    3    3  501    0  0.10420895263E+02  0.88101890603E+01 -0.31495141439E+03  0.31524689993E+03  0.00000000000E+00 0.  1.
         -1    1    1    2    0  502 -0.22960868561E+02 -0.24491209652E+02 -0.20903884005E+03  0.21171740006E+03  0.00000000000E+00 0. -1.
<mgrwt>
<rscale>  1 0.30000000E+03</rscale>
<asrwt>0</asrwt>
<pdfrwt beam="1">  1       21 0.61797146E-02 0.30000000E+03</pdfrwt>
<pdfrwt beam="2">0</pdfrwt>
<totfact> 0.20025355E+04</totfact>
</mgrwt>
</event>
<event>
 6    1  0.1270461E-001  0.3000000E+03  0.7818608E-02  0.1093470E+00
         21   -1    0    0  501  502  0.00000000000E+00  0.00000000000E+00  0.20032064502E+01  0.20032064502E+01  0.00000000000E+00 0. -1.
         13   -1    0    0    0    0 -0.00000000000E+00 -0.00000000000E+00 -0.10000000000E+04  0.10000000000E+04  0.00000000000E+00 0.  1.
    9000005    2    1    2  501    0  0.42966773585E+02 -0.83970877560E+01 -0.39955280654E+03  0.40195999108E+03  0.35685439245E+01 0.  0.
         13    1    3    3    0    0  0.13626628297E+02 -0.21633259910E+01 -0.14082642863E+03  0.14150069957E+03  0.00000000000E+00 0.  1.
          1    1    3    3  501    0  0.29340145288E+02 -0.62337617650E+01 -0.25872637791E+03  0.26045929151E+03  0.00000000000E+00 0.  1.
         -1    1    1    2    0  502 -0.42966773585E+02  0.83970877560E+01 -0.59844398701E+03  0.60004321537E+03  0.00000000000E+00 0. -1.
<mgrwt>
<rscale>  1 0.30000000E+03</rscale>
<asrwt>0</asrwt>
<pdfrwt beam="1">  1       21 0.72844025E-02 0.30000000E+03</pdfrwt>
<pdfrwt beam="2">0</pdfrwt>
<totfact> 0.15053063E+04</totfact>
</mgrwt>
</event>
<event>
 6    1  0.1270461E-001  0.3000000E+03  0.7818608E-02  0.1093470E+00
         21   -1    0    0  501  502  0.00000000000E+00  0.00000000000E+00  0.19281848870E+01  0.19281848870E+01  0.00000000000E+00 0. -1.
         13   -1    0    0    0    0 -0.00000000000E+00 -0.00000000000E+00 -0.10000000000E+04  0.10000000000E+04  0.00000000000E+00 0.  1.
    9000005    2    1    2  501    0  0.41965581842E+02  0.78925567563E+01 -0.38576345566E+03  0.38813267369E+03  0.31821612708E+01 0.  0.
         13    1    3    3    0    0  0.10998131893E+00  0.20909647770E+00 -0.34628950428E+01  0.34709450161E+01  0.00000000000E+00 0.  1.
          1    1    3    3  501    0  0.41855600523E+02  0.76834602786E+01 -0.38230056062E+03  0.38466172868E+03  0.00000000000E+00 0.  1.
         -3    1    1    2    0  502 -0.41965581842E+02 -0.78925567563E+01 -0.61230835945E+03  0.61379551119E+03  0.00000000000E+00 0. -1.
<mgrwt>
<rscale>  1 0.30000000E+03</rscale>
<asrwt>0</asrwt>
<pdfrwt beam="1">  1       21 0.70115962E-02 0.30000000E+03</pdfrwt>
<pdfrwt beam="2">0</pdfrwt>
<totfact> 0.16088870E+04</totfact>
</mgrwt>
</event>
<event>
 6    1  0.1270461E-001  0.3000000E+03  0.7818608E-02  0.1093470E+00
         21   -1    0    0  501  502  0.00000000000E+00  0.00000000000E+00  0.21395018291E+01  0.21395018291E+01  0.00000000000E+00 0. -1.
         13   -1    0    0    0    0 -0.00000000000E+00 -0.00000000000E+00 -0.10000000000E+04  0.10000000000E+04  0.00000000000E+00 0.  1.
    9000005    2    1    2  501    0 -0.30380459008E+02  0.10240605784E+02 -0.85985990720E+03  0.86046379677E+03  0.33231372910E+01 0.  0.
         13    1    3    3    0    0 -0.15979595113E+02  0.71056028859E+01 -0.47445066493E+03  0.47477286202E+03  0.00000000000E+00 0.  1.
          3    1    3    3  501    0 -0.14400863895E+02  0.31350028984E+01 -0.38540924227E+03  0.38569093475E+03  0.00000000000E+00 0.  1.
         -1    1    1    2    0  502  0.30380459008E+02 -0.10240605784E+02 -0.13800059097E+03  0.14167570506E+03  0.00000000000E+00 0. -1.
<mgrwt>
<rscale>  1 0.30000000E+03</rscale>
<asrwt>0</asrwt>
<pdfrwt beam="1">  1       21 0.77800231E-02 0.30000000E+03</pdfrwt>
<pdfrwt beam="2">0</pdfrwt>
<totfact> 0.13414528E+04</totfact>
</mgrwt>
</event>
<event>
 6    1  0.1270461E-001  0.3000000E+03  0.7818608E-02  0.1093470E+00
         21   -1    0    0  501  502  0.00000000000E+00  0.00000000000E+00  0.76960550035E+01  0.76960550035E+01  0.00000000000E+00 0. -1.
         13   -1    0    0    0    0 -0.00000000000E+00 -0.00000000000E+00 -0.10000000000E+04  0.10000000000E+04  0.00000000000E+00 0.  1.
    9000005    2    1    2  501    0  0.69890776129E+02  0.28677791739E+02 -0.75076831524E+03  0.75462176399E+03  0.96854118086E+01 0.  0.
         13    1    3    3    0    0  0.62087613364E+02  0.27182624976E+02 -0.64346487333E+03  0.64702458226E+03  0.00000000000E+00 0.  1.
          3    1    3    3  501    0  0.78031627656E+01  0.14951667628E+01 -0.10730344191E+03  0.10759718174E+03  0.00000000000E+00 0.  1.
         -1    1    1    2    0  502 -0.69890776129E+02 -0.28677791739E+02 -0.24153562976E+03  0.25307429101E+03  0.00000000000E+00 0. -1.
<mgrwt>
<rscale>  1 0.30000000E+03</rscale>
<asrwt>0</asrwt>
<pdfrwt beam="1">  1       21 0.27985714E-01 0.30000000E+03</pdfrwt>
<pdfrwt beam="2">0</pdfrwt>
<totfact> 0.12486623E+03</totfact>
</mgrwt>
</event>
<event>
 6    1  0.1270461E-001  0.3000000E+03  0.7818608E-02  0.1093470E+00
         21   -1    0    0  501  502  0.00000000000E+00  0.00000000000E+00  0.24114238489E+01  0.24114238489E+01  0.00000000000E+00 0. -1.
         13   -1    0    0    0    0 -0.00000000000E+00 -0.00000000000E+00 -0.10000000000E+04  0.10000000000E+04  0.00000000000E+00 0.  1.
    9000005    2    1    2  501    0  0.15503122715E+02 -0.43962772298E+02 -0.65026589544E+03  0.65197438714E+03  0.71968430703E+01 0.  0.
         13    1    3    3    0    0  0.87459712344E+01 -0.32464610611E+02 -0.43661434011E+03  0.43790698207E+03  0.00000000000E+00 0.  1.
          1    1    3    3  501    0  0.67571514811E+01 -0.11498161686E+02 -0.21365155533E+03  0.21406740507E+03  0.00000000000E+00 0.  1.
         -1    1    1    2    0  502 -0.15503122715E+02  0.43962772298E+02 -0.34732268071E+03  0.35043703671E+03  0.00000000000E+00 0. -1.
<mgrwt>
<rscale>  1 0.30000000E+03</rscale>
<asrwt>0</asrwt>
<pdfrwt beam="1">  1       21 0.87688325E-02 0.30000000E+03</pdfrwt>
<pdfrwt beam="2">0</pdfrwt>
<totfact> 0.10867145E+04</totfact>
</mgrwt>
</event>
<event>
 6    1  0.1270461E-001  0.3000000E+03  0.7818608E-02  0.1093470E+00
         21   -1    0    0  501  502  0.00000000000E+00  0.00000000000E+00  0.19014340999E+01  0.19014340999E+01  0.00000000000E+00 0. -1.
         13   -1    0    0    0    0 -0.00000000000E+00 -0.00000000000E+00 -0.10000000000E+04  0.10000000000E+04  0.00000000000E+00 0.  1.
    9000005    2    1    2  501    0  0.14298574641E+02  0.28211036882E+02 -0.84350082475E+03  0.84410164511E+03  0.36924345683E+01 0.  0.
         13    1    3    3    0    0  0.14058842839E+02  0.27442363051E+02 -0.83278082479E+03  0.83335144836E+03  0.00000000000E+00 0.  1.
          1    1    3    3  501    0  0.23973180226E+00  0.76867383052E+00 -0.10719999965E+02  0.10750196745E+02  0.00000000000E+00 0.  1.
         -1    1    1    2    0  502 -0.14298574641E+02 -0.28211036882E+02 -0.15459774115E+03  0.15779978899E+03  0.00000000000E+00 0. -1.
<mgrwt>
<rscale>  1 0.30000000E+03</rscale>
<asrwt>0</asrwt>
<pdfrwt beam="1">  1       21 0.69143204E-02 0.30000000E+03</pdfrwt>
<pdfrwt beam="2">0</pdfrwt>
<totfact> 0.16484674E+04</totfact>
</mgrwt>
</event>
<event>
 6    1  0.1270461E-001  0.3000000E+03  0.7818608E-02  0.1093470E+00
         21   -1    0    0  501  502  0.00000000000E+00  0.00000000000E+00  0.10399534706E+01  0.10399534706E+01  0.00000000000E+00 0. -1.
         13   -1    0    0    0    0 -0.00000000000E+00 -0.00000000000E+00 -0.10000000000E+04  0.10000000000E+04  0.00000000000E+00 0.  1.
    9000005    2    1    2  501    0  0.32071884954E+02  0.58906981518E+00 -0.47677597023E+03  0.47787156533E+03  0.41175666966E+01 0.  0.
         13    1    3    3    0    0  0.54467870601E+01  0.59150518970E+00 -0.61828142003E+02  0.62070415749E+02  0.00000000000E+00 0.  1.
          3    1    3    3  501    0  0.26625097894E+02 -0.24353745220E-02 -0.41494782823E+03  0.41580114958E+03  0.00000000000E+00 0.  1.
         -1    1    1    2    0  502 -0.32071884954E+02 -0.58906981518E+00 -0.52218407630E+03  0.52316838814E+03  0.00000000000E+00 0. -1.
<mgrwt>
<rscale>  1 0.30000000E+03</rscale>
<asrwt>0</asrwt>
<pdfrwt beam="1">  1       21 0.37816570E-02 0.30000000E+03</pdfrwt>
<pdfrwt beam="2">0</pdfrwt>
<totfact> 0.46210205E+04</totfact>
</mgrwt>
</event>
<event>
 6    1  0.1270461E-001  0.3000000E+03  0.7818608E-02  0.1093470E+00
         21   -1    0    0  501  502  0.00000000000E+00  0.00000000000E+00  0.58674390826E+01  0.58674390826E+01  0.00000000000E+00 0. -1.
         13   -1    0    0    0    0 -0.00000000000E+00 -0.00000000000E+00 -0.10000000000E+04  0.10000000000E+04  0.00000000000E+00 0.  1.
    9000005    2    1    2  501    0 -0.14604656038E+02  0.72575074874E+02 -0.62416037819E+03  0.62856139160E+03  0.57278131508E+01 0.  0.
         13    1    3    3    0    0 -0.82524704821E+01  0.28011034443E+02 -0.25512350452E+03  0.25678925966E+03  0.00000000000E+00 0.  1.
          1    1    3    3  501    0 -0.63521855559E+01  0.44564040431E+02 -0.36903687367E+03  0.37177213194E+03  0.00000000000E+00 0.  1.
         -1    1    1    2    0  502  0.14604656038E+02 -0.72575074874E+02 -0.36997218273E+03  0.37730604748E+03  0.00000000000E+00 0. -1.
<mgrwt>
<rscale>  1 0.30000000E+03</rscale>
<asrwt>0</asrwt>
<pdfrwt beam="1">  1       21 0.21336187E-01 0.30000000E+03</pdfrwt>
<pdfrwt beam="2">0</pdfrwt>
<totfact> 0.21198462E+03</totfact>
</mgrwt>
</event>
<event>
 6    1  0.1270461E-001  0.3000000E+03  0.7818608E-02  0.1093470E+00
         21   -1    0    0  501  502  0.00000000000E+00  0.00000000000E+00  0.19898789808E+01  0.19898789808E+01  0.00000000000E+00 0. -1.
         13   -1    0    0    0    0 -0.00000000000E+00 -0.00000000000E+00 -0.10000000000E+04  0.10000000000E+04  0.00000000000E+00 0.  1.
    9000005    2    1    2  501    0  0.21366013336E+02 -0.34676833698E+02 -0.70279815209E+03  0.70398132890E+03  0.23408416884E+01 0.  0.
         13    1    3    3    0    0  0.18372868216E+01 -0.32647296679E+01 -0.76957129619E+02  0.77048256839E+02  0.00000000000E+00 0.  1.
          1    1    3    3  501    0  0.19528726515E+02 -0.31412104030E+02 -0.62584102247E+03  0.62693307206E+03  0.00000000000E+00 0.  1.
         -1    1    1    2    0  502 -0.21366013336E+02  0.34676833698E+02 -0.29521196893E+03  0.29800855008E+03  0.00000000000E+00 0. -1.
<mgrwt>
<rscale>  1 0.30000000E+03</rscale>
<asrwt>0</asrwt>
<pdfrwt beam="1">  1       21 0.72359388E-02 0.30000000E+03</pdfrwt>
<pdfrwt beam="2">0</pdfrwt>
<totfact> 0.15229521E+04</totfact>
</mgrwt>
</event>
<event>
 6    1  0.1270461E-001  0.3000000E+03  0.7818608E-02  0.1093470E+00
         21   -1    0    0  501  502  0.00000000000E+00  0.00000000000E+00  0.68274133346E+01  0.68274133346E+01  0.00000000000E+00 0. -1.
         13   -1    0    0    0    0 -0.00000000000E+00 -0.00000000000E+00 -0.10000000000E+04  0.10000000000E+04  0.00000000000E+00 0.  1.
    9000005    2    1    2  501    0 -0.35677624428E+02  0.73203570436E+02 -0.58092586488E+03  0.58661435400E+03  0.31439191039E+01 0.  0.
         13    1    3    3    0    0 -0.21362833397E+02  0.42627835870E+02 -0.35052680877E+03  0.35375492464E+03  0.00000000000E+00 0.  1.
          3    1    3    3  501    0 -0.14314791031E+02  0.30575734566E+02 -0.23039905610E+03  0.23285942936E+03  0.00000000000E+00 0.  1.
         -1    1    1    2    0  502  0.35677624428E+02 -0.73203570436E+02 -0.41224672179E+03  0.42021305933E+03  0.00000000000E+00 0. -1.
<mgrwt>
<rscale>  1 0.30000000E+03</rscale>
<asrwt>0</asrwt>
<pdfrwt beam="1">  1       21 0.24827010E-01 0.30000000E+03</pdfrwt>
<pdfrwt beam="2">0</pdfrwt>
<totfact> 0.15809267E+03</totfact>
</mgrwt>
</event>
<event>
 6    1  0.1270461E-001  0.3000000E+03  0.7818608E-02  0.1093470E+00
         21   -1    0    0  501  502  0.00000000000E+00  0.00000000000E+00  0.57599567437E+01  0.57599567437E+01  0.00000000000E+00 0. -1.
         13   -1    0    0    0    0 -0.00000000000E+00 -0.00000000000E+00 -0.10000000000E+04  0.10000000000E+04  0.00000000000E+00 0.  1.
    9000005    2    1    2  501    0 -0.23597410831E+02  0.34868119451E+02 -0.91548819371E+03  0.91646002752E+03  0.27795093177E+01 0.  0.
         13    1    3    3    0    0 -0.21457269497E+02  0.32380391936E+02 -0.82893834775E+03  0.82984799124E+03  0.00000000000E+00 0.  1.
          1    1    3    3  501    0 -0.21401413333E+01  0.24877275143E+01 -0.86549845960E+02  0.86612036282E+02  0.00000000000E+00 0.  1.
         -3    1    1    2    0  502  0.23597410831E+02 -0.34868119451E+02 -0.78751849545E+02  0.89299929220E+02  0.00000000000E+00 0. -1.
<mgrwt>
<rscale>  1 0.30000000E+03</rscale>
<asrwt>0</asrwt>
<pdfrwt beam="1">  1       21 0.20945341E-01 0.30000000E+03</pdfrwt>
<pdfrwt beam="2">0</pdfrwt>
<totfact> 0.21963666E+03</totfact>
</mgrwt>
</event>
<event>
 6    1  0.1270461E-001  0.3000000E+03  0.7818608E-02  0.1093470E+00
         21   -1    0    0  501  502  0.00000000000E+00  0.00000000000E+00  0.13262355605E+01  0.13262355605E+01  0.00000000000E+00 0. -1.
         13   -1    0    0    0    0 -0.00000000000E+00 -0.00000000000E+00 -0.10000000000E+04  0.10000000000E+04  0.00000000000E+00 0.  1.
    9000005    2    1    2  501    0  0.31098213669E+02  0.34788832288E+01 -0.75458592792E+03  0.75524073526E+03  0.30731185102E+01 0.  0.
         13    1    3    3    0    0  0.24196586745E+01 -0.40146673949E+00 -0.48486145287E+02  0.48548143203E+02  0.00000000000E+00 0.  1.
          1    1    3    3  501    0  0.28678554995E+02  0.38803499683E+01 -0.70609978263E+03  0.70669259206E+03  0.00000000000E+00 0.  1.
         -1    1    1    2    0  502 -0.31098213669E+02 -0.34788832288E+01 -0.24408783652E+03  0.24608550030E+03  0.00000000000E+00 0. -1.
<mgrwt>
<rscale>  1 0.30000000E+03</rscale>
<asrwt>0</asrwt>
<pdfrwt beam="1">  1       21 0.48226849E-02 0.30000000E+03</pdfrwt>
<pdfrwt beam="2">0</pdfrwt>
<totfact> 0.30631774E+04</totfact>
</mgrwt>
</event>
<event>
 6    1  0.1270461E-001  0.3000000E+03  0.7818608E-02  0.1093470E+00
         21   -1    0    0  501  502  0.00000000000E+00  0.00000000000E+00  0.86329967939E+01  0.86329967939E+01  0.00000000000E+00 0. -1.
         13   -1    0    0    0    0 -0.00000000000E+00 -0.00000000000E+00 -0.10000000000E+04  0.10000000000E+04  0.00000000000E+00 0.  1.
    9000005    2    1    2  501    0  0.16663283582E+02  0.45687917220E+02 -0.92537154274E+03  0.92665463622E+03  0.33573685247E+01 0.  0.
         13    1    3    3    0    0  0.55806491032E+00  0.39994085433E+01 -0.70002156112E+02  0.70118532255E+02  0.00000000000E+00 0.  1.
          1    1    3    3  501    0  0.16105218672E+02  0.41688508677E+02 -0.85536938662E+03  0.85653610397E+03  0.00000000000E+00 0.  1.
         -3    1    1    2    0  502 -0.16663283582E+02 -0.45687917220E+02 -0.65995460471E+02  0.81978360574E+02  0.00000000000E+00 0. -1.
<mgrwt>
<rscale>  1 0.30000000E+03</rscale>
<asrwt>0</asrwt>
<pdfrwt beam="1">  1       21 0.31392782E-01 0.30000000E+03</pdfrwt>
<pdfrwt beam="2">0</pdfrwt>
<totfact> 0.99261014E+02</totfact>
</mgrwt>
</event>
<event>
 6    1  0.1270461E-001  0.3000000E+03  0.7818608E-02  0.1093470E+00
         21   -1    0    0  501  502  0.00000000000E+00  0.00000000000E+00  0.12986629470E+01  0.12986629470E+01  0.00000000000E+00 0. -1.
         13   -1    0    0    0    0 -0.00000000000E+00 -0.00000000000E+00 -0.10000000000E+04  0.10000000000E+04  0.00000000000E+00 0.  1.
    9000005    2    1    2  501    0 -0.97927725922E+01  0.30311165386E+02 -0.73250225297E+03  0.73320051393E+03  0.29627474442E+01 0.  0.
         13    1    3    3    0    0 -0.38291810745E+01  0.15582529764E+02 -0.34654218904E+03  0.34691348582E+03  0.00000000000E+00 0.  1.
          1    1    3    3  501    0 -0.59635915177E+01  0.14728635623E+02 -0.38596006393E+03  0.38628702810E+03  0.00000000000E+00 0.  1.
         -3    1    1    2    0  502  0.97927725922E+01 -0.30311165386E+02 -0.26619908408E+03  0.26809814902E+03  0.00000000000E+00 0. -1.
<mgrwt>
<rscale>  1 0.30000000E+03</rscale>
<asrwt>0</asrwt>
<pdfrwt beam="1">  1       21 0.47224207E-02 0.30000000E+03</pdfrwt>
<pdfrwt beam="2">0</pdfrwt>
<totfact> 0.31746396E+04</totfact>
</mgrwt>
</event>
<event>
 6    1  0.1270461E-001  0.3000000E+03  0.7818608E-02  0.1093470E+00
         21   -1    0    0  501  502  0.00000000000E+00  0.00000000000E+00  0.22076867272E+01  0.22076867272E+01  0.00000000000E+00 0. -1.
         13   -1    0    0    0    0 -0.00000000000E+00 -0.00000000000E+00 -0.10000000000E+04  0.10000000000E+04  0.00000000000E+00 0.  1.
    9000005    2    1    2  501    0 -0.28127170085E+02  0.26790585419E+02 -0.78046677281E+03  0.78143797933E+03  0.28388244828E+01 0.  0.
         13    1    3    3    0    0 -0.20186138654E+02  0.20321790777E+02 -0.55490403101E+03  0.55564281603E+03  0.00000000000E+00 0.  1.
          3    1    3    3  501    0 -0.79410314310E+01  0.64687946416E+01 -0.22556274180E+03  0.22579516330E+03  0.00000000000E+00 0.  1.
         -3    1    1    2    0  502  0.28127170085E+02 -0.26790585419E+02 -0.21732554046E+03  0.22076970739E+03  0.00000000000E+00 0. -1.
<mgrwt>
<rscale>  1 0.30000000E+03</rscale>
<asrwt>0</asrwt>
<pdfrwt beam="1">  1       21 0.80279687E-02 0.30000000E+03</pdfrwt>
<pdfrwt beam="2">0</pdfrwt>
<totfact> 0.12695796E+04</totfact>
</mgrwt>
</event>
<event>
 6    1  0.1270461E-001  0.3000000E+03  0.7818608E-02  0.1093470E+00
         21   -1    0    0  501  502  0.00000000000E+00  0.00000000000E+00  0.79069640083E+01  0.79069640083E+01  0.00000000000E+00 0. -1.
         13   -1    0    0    0    0 -0.00000000000E+00 -0.00000000000E+00 -0.10000000000E+04  0.10000000000E+04  0.00000000000E+00 0.  1.
    9000005    2    1    2  501    0 -0.38185066905E+02  0.15032421934E+02 -0.94309213839E+03  0.94399169972E+03  0.36707760602E+01 0.  0.
         13    1    3    3    0    0 -0.75510521489E+01  0.14466281307E+01 -0.17288581583E+03  0.17305668562E+03  0.00000000000E+00 0.  1.
          1    1    3    3  501    0 -0.30634014756E+02  0.13585793804E+02 -0.77020632256E+03  0.77093501410E+03  0.00000000000E+00 0.  1.
         -3    1    1    2    0  502  0.38185066905E+02 -0.15032421934E+02 -0.49000897603E+02  0.63915264293E+02  0.00000000000E+00 0. -1.
<mgrwt>
<rscale>  1 0.30000000E+03</rscale>
<asrwt>0</asrwt>
<pdfrwt beam="1">  1       21 0.28752657E-01 0.30000000E+03</pdfrwt>
<pdfrwt beam="2">0</pdfrwt>
<totfact> 0.11833915E+03</totfact>
</mgrwt>
</event>
<event>
 6    1  0.1270461E-001  0.3000000E+03  0.7818608E-02  0.1093470E+00
         21   -1    0    0  501  502  0.00000000000E+00  0.00000000000E+00  0.20815256521E+01  0.20815256521E+01  0.00000000000E+00 0. -1.
         13   -1    0    0    0    0 -0.00000000000E+00 -0.00000000000E+00 -0.10000000000E+04  0.10000000000E+04  0.00000000000E+00 0.  1.
    9000005    2    1    2  501    0  0.33324469718E+02  0.23865466721E+01 -0.83986689122E+03  0.84053735579E+03  0.32304218208E+01 0.  0.
         13    1    3    3    0    0  0.44573622607E+01  0.13773314241E+01 -0.10820568726E+03  0.10830621346E+03  0.00000000000E+00 0.  1.
          3    1    3    3  501    0  0.28867107457E+02  0.10092152479E+01 -0.73166120396E+03  0.73223114233E+03  0.00000000000E+00 0.  1.
         -1    1    1    2    0  502 -0.33324469718E+02 -0.23865466721E+01 -0.15805158313E+03  0.16154416986E+03  0.00000000000E+00 0. -1.
<mgrwt>
<rscale>  1 0.30000000E+03</rscale>
<asrwt>0</asrwt>
<pdfrwt beam="1">  1       21 0.75692002E-02 0.30000000E+03</pdfrwt>
<pdfrwt beam="2">0</pdfrwt>
<totfact> 0.14076233E+04</totfact>
</mgrwt>
</event>
<event>
 6    1  0.1270461E-001  0.3000000E+03  0.7818608E-02  0.1093470E+00
         21   -1    0    0  501  502  0.00000000000E+00  0.00000000000E+00  0.55568854047E+01  0.55568854047E+01  0.00000000000E+00 0. -1.
         13   -1    0    0    0    0 -0.00000000000E+00 -0.00000000000E+00 -0.10000000000E+04  0.10000000000E+04  0.00000000000E+00 0.  1.
    9000005    2    1    2  501    0  0.15458431157E+02  0.44848291645E+02 -0.88498669940E+03  0.88626296610E+03  0.32022796446E+01 0.  0.
         13    1    3    3    0    0  0.59597224461E+01  0.15089159078E+02 -0.27804024241E+03  0.27851315482E+03  0.00000000000E+00 0.  1.
          1    1    3    3  501    0  0.94987087111E+01  0.29759132568E+02 -0.60694645700E+03  0.60774981127E+03  0.00000000000E+00 0.  1.
         -1    1    1    2    0  502 -0.15458431157E+02 -0.44848291645E+02 -0.10945641519E+03  0.11929391931E+03  0.00000000000E+00 0. -1.
<mgrwt>
<rscale>  1 0.30000000E+03</rscale>
<asrwt>0</asrwt>
<pdfrwt beam="1">  1       21 0.20206899E-01 0.30000000E+03</pdfrwt>
<pdfrwt beam="2">0</pdfrwt>
<totfact> 0.23525195E+03</totfact>
</mgrwt>
</event>
<event>
 6    1  0.1270461E-001  0.3000000E+03  0.7818608E-02  0.1093470E+00
         21   -1    0    0  501  502  0.00000000000E+00  0.00000000000E+00  0.53369079840E+01  0.53369079840E+01  0.00000000000E+00 0. -1.
         13   -1    0    0    0    0 -0.00000000000E+00 -0.00000000000E+00 -0.10000000000E+04  0.10000000000E+04  0.00000000000E+00 0.  1.
    9000005    2    1    2  501    0  0.22430393373E+02 -0.29120528511E+02 -0.93168898275E+03  0.93242006381E+03  0.34186362477E+01 0.  0.
         13    1    3    3    0    0  0.71113476242E+01 -0.80254074976E+01 -0.30738593431E+03  0.30757290363E+03  0.00000000000E+00 0.  1.
          1    1    3    3  501    0  0.15319045748E+02 -0.21095121014E+02 -0.62430304844E+03  0.62484716018E+03  0.00000000000E+00 0.  1.
         -3    1    1    2    0  502 -0.22430393373E+02  0.29120528511E+02 -0.62974109261E+02  0.72916844178E+02  0.00000000000E+00 0. -1.
<mgrwt>
<rscale>  1 0.30000000E+03</rscale>
<asrwt>0</asrwt>
<pdfrwt beam="1">  1       21 0.19406979E-01 0.30000000E+03</pdfrwt>
<pdfrwt beam="2">0</pdfrwt>
<totfact> 0.25407978E+03</totfact>
</mgrwt>
</event>
<event>
 6    1  0.1270461E-001  0.3000000E+03  0.7818608E-02  0.1093470E+00
         21   -1    0    0  501  502  0.00000000000E+00  0.00000000000E+00  0.12980943305E+01  0.12980943305E+01  0.00000000000E+00 0. -1.
         13   -1    0    0    0    0 -0.00000000000E+00 -0.00000000000E+00 -0.10000000000E+04  0.10000000000E+04  0.00000000000E+00 0.  1.
    9000005    2    1    2  501    0  0.88714401823E+01  0.28726831000E+02 -0.77447687257E+03  0.77506635752E+03  0.30820689319E+01 0.  0.
         13    1    3    3    0    0  0.25815289210E+01  0.56369461628E+01 -0.18518684851E+03  0.18529060503E+03  0.00000000000E+00 0.  1.
          1    1    3    3  501    0  0.62899112613E+01  0.23089884837E+02 -0.58929002406E+03  0.58977575249E+03  0.00000000000E+00 0.  1.
         -3    1    1    2    0  502 -0.88714401823E+01 -0.28726831000E+02 -0.22422503310E+03  0.22623173681E+03  0.00000000000E+00 0. -1.
<mgrwt>
<rscale>  1 0.30000000E+03</rscale>
<asrwt>0</asrwt>
<pdfrwt beam="1">  1       21 0.47203530E-02 0.30000000E+03</pdfrwt>
<pdfrwt beam="2">0</pdfrwt>
<totfact> 0.31770047E+04</totfact>
</mgrwt>
</event>
<event>
 6    1  0.1270461E-001  0.3000000E+03  0.7818608E-02  0.1093470E+00
         21   -1    0    0  501  502  0.00000000000E+00  0.00000000000E+00  0.25486693906E+01  0.25486693906E+01  0.00000000000E+00 0. -1.
         13   -1    0    0    0    0 -0.00000000000E+00 -0.00000000000E+00 -0.10000000000E+04  0.10000000000E+04  0.00000000000E+00 0.  1.
    9000005    2    1    2  501    0 -0.16897641902E+01  0.33777291778E+02 -0.87072886641E+03  0.87139096403E+03  0.31133019578E+01 0.  0.
         13    1    3    3    0    0 -0.21651298568E+01  0.30871107645E+02 -0.80948387913E+03  0.81007522098E+03  0.00000000000E+00 0.  1.
          1    1    3    3  501    0  0.47536566657E+00  0.29061841335E+01 -0.61244987287E+02  0.61315743056E+02  0.00000000000E+00 0.  1.
         -1    1    1    2    0  502  0.16897641902E+01 -0.33777291778E+02 -0.12672246419E+03  0.13115770536E+03  0.00000000000E+00 0. -1.
<mgrwt>
<rscale>  1 0.30000000E+03</rscale>
<asrwt>0</asrwt>
<pdfrwt beam="1">  1       21 0.92679082E-02 0.30000000E+03</pdfrwt>
<pdfrwt beam="2">0</pdfrwt>
<totfact> 0.98518205E+03</totfact>
</mgrwt>
</event>
<event>
 6    1  0.1270461E-001  0.3000000E+03  0.7818608E-02  0.1093470E+00
         21   -1    0    0  501  502  0.00000000000E+00  0.00000000000E+00  0.17230650194E+01  0.17230650194E+01  0.00000000000E+00 0. -1.
         13   -1    0    0    0    0 -0.00000000000E+00 -0.00000000000E+00 -0.10000000000E+04  0.10000000000E+04  0.00000000000E+00 0.  1.
    9000005    2    1    2  501    0  0.38208117933E+02  0.13271936885E+02 -0.60875215367E+03  0.61010391349E+03  0.34053018950E+01 0.  0.
         13    1    3    3    0    0  0.30763886650E+02  0.12076972845E+02 -0.49777215041E+03  0.49886810253E+03  0.00000000000E+00 0.  1.
          1    1    3    3  501    0  0.74442312833E+01  0.11949640400E+01 -0.11098000325E+03  0.11123581096E+03  0.00000000000E+00 0.  1.
         -1    1    1    2    0  502 -0.38208117933E+02 -0.13271936885E+02 -0.38952478131E+03  0.39161915152E+03  0.00000000000E+00 0. -1.
<mgrwt>
<rscale>  1 0.30000000E+03</rscale>
<asrwt>0</asrwt>
<pdfrwt beam="1">  1       21 0.62657042E-02 0.30000000E+03</pdfrwt>
<pdfrwt beam="2">0</pdfrwt>
<totfact> 0.19553000E+04</totfact>
</mgrwt>
</event>
<event>
 6    1  0.1270461E-001  0.3000000E+03  0.7818608E-02  0.1093470E+00
         21   -1    0    0  501  502  0.00000000000E+00  0.00000000000E+00  0.15855341566E+01  0.15855341566E+01  0.00000000000E+00 0. -1.
         13   -1    0    0    0    0 -0.00000000000E+00 -0.00000000000E+00 -0.10000000000E+04  0.10000000000E+04  0.00000000000E+00 0.  1.
    9000005    2    1    2  501    0  0.19989061166E+02 -0.30649917575E+02 -0.69532930454E+03  0.69629944699E+03  0.33313835758E+01 0.  0.
         13    1    3    3    0    0  0.71568863395E+00 -0.34552726237E+00 -0.11237245199E+02  0.11265313088E+02  0.00000000000E+00 0.  1.
          1    1    3    3  501    0  0.19273372532E+02 -0.30304390312E+02 -0.68409205934E+03  0.68503413390E+03  0.00000000000E+00 0.  1.
         -3    1    1    2    0  502 -0.19989061166E+02  0.30649917575E+02 -0.30308516130E+03  0.30528608716E+03  0.00000000000E+00 0. -1.
<mgrwt>
<rscale>  1 0.30000000E+03</rscale>
<asrwt>0</asrwt>
<pdfrwt beam="1">  1       21 0.57655909E-02 0.30000000E+03</pdfrwt>
<pdfrwt beam="2">0</pdfrwt>
<totfact> 0.22569607E+04</totfact>
</mgrwt>
</event>
<event>
 6    1  0.1270461E-001  0.3000000E+03  0.7818608E-02  0.1093470E+00
         21   -1    0    0  501  502  0.00000000000E+00  0.00000000000E+00  0.42714485329E+01  0.42714485329E+01  0.00000000000E+00 0. -1.
         13   -1    0    0    0    0 -0.00000000000E+00 -0.00000000000E+00 -0.10000000000E+04  0.10000000000E+04  0.00000000000E+00 0.  1.
    9000005    2    1    2  501    0 -0.52685701957E+01  0.48826290117E+02 -0.82901356077E+03  0.83047371390E+03  0.33676562530E+01 0.  0.
         13    1    3    3    0    0 -0.29456745737E+01  0.39199948859E+02 -0.65474576224E+03  0.65592478697E+03  0.00000000000E+00 0.  1.
          1    1    3    3  501    0 -0.23228956220E+01  0.96263412581E+01 -0.17426779853E+03  0.17454892693E+03  0.00000000000E+00 0.  1.
         -3    1    1    2    0  502  0.52685701957E+01 -0.48826290117E+02 -0.16671499070E+03  0.17379773463E+03  0.00000000000E+00 0. -1.
<mgrwt>
<rscale>  1 0.30000000E+03</rscale>
<asrwt>0</asrwt>
<pdfrwt beam="1">  1       21 0.15532573E-01 0.30000000E+03</pdfrwt>
<pdfrwt beam="2">0</pdfrwt>
<totfact> 0.38599720E+03</totfact>
</mgrwt>
</event>
<event>
 6    1  0.1270461E-001  0.3000000E+03  0.7818608E-02  0.1093470E+00
         21   -1    0    0  501  502  0.00000000000E+00  0.00000000000E+00  0.30912875563E+01  0.30912875563E+01  0.00000000000E+00 0. -1.
         13   -1    0    0    0    0 -0.00000000000E+00 -0.00000000000E+00 -0.10000000000E+04  0.10000000000E+04  0.00000000000E+00 0.  1.
    9000005    2    1    2  501    0 -0.17958656539E+02 -0.52496129913E+02 -0.47713848066E+03  0.48036817649E+03  0.37547638514E+01 0.  0.
         13    1    3    3    0    0 -0.59789783165E+01 -0.17668876720E+02 -0.17608396818E+03  0.17706919901E+03  0.00000000000E+00 0.  1.
          3    1    3    3  501    0 -0.11979678222E+02 -0.34827253193E+02 -0.30105451248E+03  0.30329897748E+03  0.00000000000E+00 0.  1.
         -3    1    1    2    0  502  0.17958656539E+02  0.52496129913E+02 -0.51977023178E+03  0.52272311107E+03  0.00000000000E+00 0. -1.
<mgrwt>
<rscale>  1 0.30000000E+03</rscale>
<asrwt>0</asrwt>
<pdfrwt beam="1">  1       21 0.11241069E-01 0.30000000E+03</pdfrwt>
<pdfrwt beam="2">0</pdfrwt>
<totfact> 0.69743587E+03</totfact>
</mgrwt>
</event>
<event>
 6    1  0.1270461E-001  0.3000000E+03  0.7818608E-02  0.1093470E+00
         21   -1    0    0  501  502  0.00000000000E+00  0.00000000000E+00  0.16611142104E+01  0.16611142104E+01  0.00000000000E+00 0. -1.
         13   -1    0    0    0    0 -0.00000000000E+00 -0.00000000000E+00 -0.10000000000E+04  0.10000000000E+04  0.00000000000E+00 0.  1.
    9000005    2    1    2  501    0 -0.32286558309E+02 -0.24184639368E+02 -0.46419943728E+03  0.46600052290E+03  0.69318931996E+01 0.  0.
         13    1    3    3    0    0  0.72343906551E-01  0.14625995096E+00 -0.97245152198E+01  0.97258841179E+01  0.00000000000E+00 0.  1.
          1    1    3    3  501    0 -0.32358902215E+02 -0.24330899319E+02 -0.45447492206E+03  0.45627463878E+03  0.00000000000E+00 0.  1.
         -3    1    1    2    0  502  0.32286558309E+02  0.24184639368E+02 -0.53413944851E+03  0.53566059131E+03  0.00000000000E+00 0. -1.
<mgrwt>
<rscale>  1 0.30000000E+03</rscale>
<asrwt>0</asrwt>
<pdfrwt beam="1">  1       21 0.60404280E-02 0.30000000E+03</pdfrwt>
<pdfrwt beam="2">0</pdfrwt>
<totfact> 0.20828996E+04</totfact>
</mgrwt>
</event>
<event>
 6    1  0.1270461E-001  0.3000000E+03  0.7818608E-02  0.1093470E+00
         21   -1    0    0  501  502  0.00000000000E+00  0.00000000000E+00  0.10768034330E+01  0.10768034330E+01  0.00000000000E+00 0. -1.
         13   -1    0    0    0    0 -0.00000000000E+00 -0.00000000000E+00 -0.10000000000E+04  0.10000000000E+04  0.00000000000E+00 0.  1.
    9000005    2    1    2  501    0  0.10863094785E+02  0.30685630362E+02 -0.45271140659E+03  0.45389590625E+03  0.37764148336E+01 0.  0.
         13    1    3    3    0    0  0.73767522694E+01  0.23068306112E+02 -0.35563149528E+03  0.35645521971E+03  0.00000000000E+00 0.  1.
          3    1    3    3  501    0  0.34863425153E+01  0.76173242508E+01 -0.97079911311E+02  0.97440686539E+02  0.00000000000E+00 0.  1.
         -3    1    1    2    0  502 -0.10863094785E+02 -0.30685630362E+02 -0.54621178997E+03  0.54718089718E+03  0.00000000000E+00 0. -1.
<mgrwt>
<rscale>  1 0.30000000E+03</rscale>
<asrwt>0</asrwt>
<pdfrwt beam="1">  1       21 0.39156571E-02 0.30000000E+03</pdfrwt>
<pdfrwt beam="2">0</pdfrwt>
<totfact> 0.43582939E+04</totfact>
</mgrwt>
</event>
<event>
 6    1  0.1270461E-001  0.3000000E+03  0.7818608E-02  0.1093470E+00
         21   -1    0    0  501  502  0.00000000000E+00  0.00000000000E+00  0.32078142526E+01  0.32078142526E+01  0.00000000000E+00 0. -1.
         13   -1    0    0    0    0 -0.00000000000E+00 -0.00000000000E+00 -0.10000000000E+04  0.10000000000E+04  0.00000000000E+00 0.  1.
    9000005    2    1    2  501    0  0.32318327191E+02 -0.64176414715E+01 -0.90556507284E+03  0.90621272920E+03  0.93674450210E+01 0.  0.
         13    1    3    3    0    0  0.49056999234E+01 -0.16831256625E+01 -0.73500002059E+02  0.73682759900E+02  0.00000000000E+00 0.  1.
          1    1    3    3  501    0  0.27412627267E+02 -0.47345158090E+01 -0.83206507078E+03  0.83252996930E+03  0.00000000000E+00 0.  1.
         -3    1    1    2    0  502 -0.32318327191E+02  0.64176414715E+01 -0.91227112906E+02  0.96995085048E+02  0.00000000000E+00 0. -1.
<mgrwt>
<rscale>  1 0.30000000E+03</rscale>
<asrwt>0</asrwt>
<pdfrwt beam="1">  1       21 0.11664804E-01 0.30000000E+03</pdfrwt>
<pdfrwt beam="2">0</pdfrwt>
<totfact> 0.65235609E+03</totfact>
</mgrwt>
</event>
<event>
 6    1  0.1270461E-001  0.3000000E+03  0.7818608E-02  0.1093470E+00
         21   -1    0    0  501  502  0.00000000000E+00  0.00000000000E+00  0.49693689548E+01  0.49693689548E+01  0.00000000000E+00 0. -1.
         13   -1    0    0    0    0 -0.00000000000E+00 -0.00000000000E+00 -0.10000000000E+04  0.10000000000E+04  0.00000000000E+00 0.  1.
    9000005    2    1    2  501    0  0.37101182082E+02 -0.54884770838E+02 -0.66779255829E+03  0.67109275695E+03  0.54545159696E+01 0.  0.
         13    1    3    3    0    0  0.86669719010E+01 -0.13429927476E+02 -0.18558098061E+03  0.18626803193E+03  0.00000000000E+00 0.  1.
          1    1    3    3  501    0  0.28434210181E+02 -0.41454843361E+02 -0.48221157768E+03  0.48482472503E+03  0.00000000000E+00 0.  1.
         -3    1    1    2    0  502 -0.37101182082E+02  0.54884770838E+02 -0.32723807275E+03  0.33387661200E+03  0.00000000000E+00 0. -1.
<mgrwt>
<rscale>  1 0.30000000E+03</rscale>
<asrwt>0</asrwt>
<pdfrwt beam="1">  1       21 0.18070471E-01 0.30000000E+03</pdfrwt>
<pdfrwt beam="2">0</pdfrwt>
<totfact> 0.29080676E+03</totfact>
</mgrwt>
</event>
<event>
 6    1  0.1270461E-001  0.3000000E+03  0.7818608E-02  0.1093470E+00
         21   -1    0    0  501  502  0.00000000000E+00  0.00000000000E+00  0.10001793065E+01  0.10001793065E+01  0.00000000000E+00 0. -1.
         13   -1    0    0    0    0 -0.00000000000E+00 -0.00000000000E+00 -0.10000000000E+04  0.10000000000E+04  0.00000000000E+00 0.  1.
    9000005    2    1    2  501    0 -0.25548403818E+02  0.18131081298E+02 -0.44463193938E+03  0.44574779986E+03  0.34759917134E+01 0.  0.
         13    1    3    3    0    0 -0.20801770809E+01  0.14286147306E+01 -0.51636685162E+02  0.51698310720E+02  0.00000000000E+00 0.  1.
          3    1    3    3  501    0 -0.23468226737E+02  0.16702466568E+02 -0.39299525421E+03  0.39404948914E+03  0.00000000000E+00 0.  1.
         -1    1    1    2    0  502  0.25548403818E+02 -0.18131081298E+02 -0.55436788132E+03  0.55525237945E+03  0.00000000000E+00 0. -1.
<mgrwt>
<rscale>  1 0.30000000E+03</rscale>
<asrwt>0</asrwt>
<pdfrwt beam="1">  1       21 0.36370233E-02 0.30000000E+03</pdfrwt>
<pdfrwt beam="2">0</pdfrwt>
<totfact> 0.49336351E+04</totfact>
</mgrwt>
</event>
<event>
 6    1  0.1270461E-001  0.3000000E+03  0.7818608E-02  0.1093470E+00
         21   -1    0    0  501  502  0.00000000000E+00  0.00000000000E+00  0.11381383506E+02  0.11381383506E+02  0.00000000000E+00 0. -1.
         13   -1    0    0    0    0 -0.00000000000E+00 -0.00000000000E+00 -0.10000000000E+04  0.10000000000E+04  0.00000000000E+00 0.  1.
    9000005    2    1    2  501    0  0.79831516755E+02  0.33946331336E+02 -0.78855842766E+03  0.79332289678E+03  0.33764237230E+01 0.  0.
         13    1    3    3    0    0  0.31161158936E+02  0.14614472531E+02 -0.32258879794E+03  0.32441968681E+03  0.00000000000E+00 0.  1.
          3    1    3    3  501    0  0.48670357820E+02  0.19331858805E+02 -0.46596962972E+03  0.46890320996E+03  0.00000000000E+00 0.  1.
         -3    1    1    2    0  502 -0.79831516755E+02 -0.33946331336E+02 -0.20006018883E+03  0.21805848673E+03  0.00000000000E+00 0. -1.
<mgrwt>
<rscale>  1 0.30000000E+03</rscale>
<asrwt>0</asrwt>
<pdfrwt beam="1">  1       21 0.41386936E-01 0.30000000E+03</pdfrwt>
<pdfrwt beam="2">0</pdfrwt>
<totfact> 0.56239023E+02</totfact>
</mgrwt>
</event>
<event>
 6    1  0.1270461E-001  0.3000000E+03  0.7818608E-02  0.1093470E+00
         21   -1    0    0  501  502  0.00000000000E+00  0.00000000000E+00  0.14635713372E+01  0.14635713372E+01  0.00000000000E+00 0. -1.
         13   -1    0    0    0    0 -0.00000000000E+00 -0.00000000000E+00 -0.10000000000E+04  0.10000000000E+04  0.00000000000E+00 0.  1.
    9000005    2    1    2  501    0  0.30838642277E+02 -0.10358004712E+02 -0.23981844943E+03  0.24204847922E+03  0.40332974419E+01 0.  0.
         13    1    3    3    0    0  0.17868696571E+02 -0.39364873604E+01 -0.13077923876E+03  0.13205300277E+03  0.00000000000E+00 0.  1.
          1    1    3    3  501    0  0.12969945705E+02 -0.64215173512E+01 -0.10903921066E+03  0.10999547645E+03  0.00000000000E+00 0.  1.
         -3    1    1    2    0  502 -0.30838642277E+02  0.10358004712E+02 -0.75871797924E+03  0.75941509212E+03  0.00000000000E+00 0. -1.
<mgrwt>
<rscale>  1 0.30000000E+03</rscale>
<asrwt>0</asrwt>
<pdfrwt beam="1">  1       21 0.53220888E-02 0.30000000E+03</pdfrwt>
<pdfrwt beam="2">0</pdfrwt>
<totfact> 0.25892005E+04</totfact>
</mgrwt>
</event>
<event>
 6    1  0.1270461E-001  0.3000000E+03  0.7818608E-02  0.1093470E+00
         21   -1    0    0  501  502  0.00000000000E+00  0.00000000000E+00  0.97394243657E+00  0.97394243657E+00  0.00000000000E+00 0. -1.
         13   -1    0    0    0    0 -0.00000000000E+00 -0.00000000000E+00 -0.10000000000E+04  0.10000000000E+04  0.00000000000E+00 0.  1.
    9000005    2    1    2  501    0 -0.28103790778E+02 -0.13291329188E+02 -0.48183719449E+03  0.48285156058E+03  0.34734821634E+01 0.  0.
         13    1    3    3    0    0 -0.56094985802E+01 -0.16013314717E+01 -0.76181794916E+02  0.76404820616E+02  0.00000000000E+00 0.  1.
          1    1    3    3  501    0 -0.22494292198E+02 -0.11689997716E+02 -0.40565539957E+03  0.40644673997E+03  0.00000000000E+00 0.  1.
         -1    1    1    2    0  502  0.28103790778E+02  0.13291329188E+02 -0.51718886308E+03  0.51812238186E+03  0.00000000000E+00 0. -1.
<mgrwt>
<rscale>  1 0.30000000E+03</rscale>
<asrwt>0</asrwt>
<pdfrwt beam="1">  1       21 0.35416163E-02 0.30000000E+03</pdfrwt>
<pdfrwt beam="2">0</pdfrwt>
<totfact> 0.51585175E+04</totfact>
</mgrwt>
</event>
<event>
 6    1  0.1270461E-001  0.3000000E+03  0.7818608E-02  0.1093470E+00
         21   -1    0    0  501  502  0.00000000000E+00  0.00000000000E+00  0.93088592827E+00  0.93088592827E+00  0.00000000000E+00 0. -1.
         13   -1    0    0    0    0 -0.00000000000E+00 -0.00000000000E+00 -0.10000000000E+04  0.10000000000E+04  0.00000000000E+00 0.  1.
    9000005    2    1    2  501    0 -0.13314470266E+02  0.26975686626E+02 -0.44312331404E+03  0.44417178600E+03  0.50340082761E+01 0.  0.
         13    1    3    3    0    0 -0.11509282913E+02  0.25857980333E+02 -0.41921045298E+03  0.42016485173E+03  0.00000000000E+00 0.  1.
          3    1    3    3  501    0 -0.18051873533E+01  0.11177062931E+01 -0.23912861063E+02  0.24006934268E+02  0.00000000000E+00 0.  1.
         -3    1    1    2    0  502  0.13314470266E+02 -0.26975686626E+02 -0.55594580003E+03  0.55675909993E+03  0.00000000000E+00 0. -1.
<mgrwt>
<rscale>  1 0.30000000E+03</rscale>
<asrwt>0</asrwt>
<pdfrwt beam="1">  1       21 0.33850469E-02 0.30000000E+03</pdfrwt>
<pdfrwt beam="2">0</pdfrwt>
<totfact> 0.55639279E+04</totfact>
</mgrwt>
</event>
<event>
 6    1  0.1270461E-001  0.3000000E+03  0.7818608E-02  0.1093470E+00
         21   -1    0    0  501  502  0.00000000000E+00  0.00000000000E+00  0.19156875646E+01  0.19156875646E+01  0.00000000000E+00 0. -1.
         13   -1    0    0    0    0 -0.00000000000E+00 -0.00000000000E+00 -0.10000000000E+04  0.10000000000E+04  0.00000000000E+00 0.  1.
    9000005    2    1    2  501    0 -0.39554898350E+02 -0.22782700081E+01 -0.28885312962E+03  0.29157868925E+03  0.34958597457E+01 0.  0.
         13    1    3    3    0    0 -0.36397286384E+02 -0.30160114958E+01 -0.26700275248E+03  0.26948901390E+03  0.00000000000E+00 0.  1.
          3    1    3    3  501    0 -0.31576119668E+01  0.73774148772E+00 -0.21850377137E+02  0.22089675346E+02  0.00000000000E+00 0.  1.
         -1    1    1    2    0  502  0.39554898350E+02  0.22782700081E+01 -0.70923118282E+03  0.71033699832E+03  0.00000000000E+00 0. -1.
<mgrwt>
<rscale>  1 0.30000000E+03</rscale>
<asrwt>0</asrwt>
<pdfrwt beam="1">  1       21 0.69661513E-02 0.30000000E+03</pdfrwt>
<pdfrwt beam="2">0</pdfrwt>
<totfact> 0.16271950E+04</totfact>
</mgrwt>
</event>
<event>
 6    1  0.1270461E-001  0.3000000E+03  0.7818608E-02  0.1093470E+00
         21   -1    0    0  501  502  0.00000000000E+00  0.00000000000E+00  0.23886848345E+01  0.23886848345E+01  0.00000000000E+00 0. -1.
         13   -1    0    0    0    0 -0.00000000000E+00 -0.00000000000E+00 -0.10000000000E+04  0.10000000000E+04  0.00000000000E+00 0.  1.
    9000005    2    1    2  501    0  0.10208649818E+02 -0.41482085761E+02 -0.74172883334E+03  0.74296466036E+03  0.31375728110E+01 0.  0.
         13    1    3    3    0    0  0.26494008972E+01 -0.15484792707E+02 -0.25511092755E+03  0.25559417733E+03  0.00000000000E+00 0.  1.
          1    1    3    3  501    0  0.75592489204E+01 -0.25997293054E+02 -0.48661790580E+03  0.48737048303E+03  0.00000000000E+00 0.  1.
         -3    1    1    2    0  502 -0.10208649818E+02  0.41482085761E+02 -0.25588248182E+03  0.25942402447E+03  0.00000000000E+00 0. -1.
<mgrwt>
<rscale>  1 0.30000000E+03</rscale>
<asrwt>0</asrwt>
<pdfrwt beam="1">  1       21 0.86861450E-02 0.30000000E+03</pdfrwt>
<pdfrwt beam="2">0</pdfrwt>
<totfact> 0.11050604E+04</totfact>
</mgrwt>
</event>
<event>
 6    1  0.1270461E-001  0.3000000E+03  0.7818608E-02  0.1093470E+00
         21   -1    0    0  501  502  0.00000000000E+00  0.00000000000E+00  0.99887856009E+01  0.99887856009E+01  0.00000000000E+00 0. -1.
         13   -1    0    0    0    0 -0.00000000000E+00 -0.00000000000E+00 -0.10000000000E+04  0.10000000000E+04  0.00000000000E+00 0.  1.
    9000005    2    1    2  501    0 -0.40833436842E+02 -0.47156857062E+02 -0.88952757929E+03  0.89171748876E+03  0.31026934744E+01 0.  0.
         13    1    3    3    0    0 -0.22632803698E+02 -0.28474502495E+02 -0.51754474691E+03  0.51882136246E+03  0.00000000000E+00 0.  1.
          1    1    3    3  501    0 -0.18200633144E+02 -0.18682354567E+02 -0.37198283238E+03  0.37289612629E+03  0.00000000000E+00 0.  1.
         -1    1    1    2    0  502  0.40833436842E+02  0.47156857062E+02 -0.10048363511E+03  0.11827129684E+03  0.00000000000E+00 0. -1.
<mgrwt>
<rscale>  1 0.30000000E+03</rscale>
<asrwt>0</asrwt>
<pdfrwt beam="1">  1       21 0.36322933E-01 0.30000000E+03</pdfrwt>
<pdfrwt beam="2">0</pdfrwt>
<totfact> 0.73750561E+02</totfact>
</mgrwt>
</event>
<event>
 6    1  0.1270461E-001  0.3000000E+03  0.7818608E-02  0.1093470E+00
         21   -1    0    0  501  502  0.00000000000E+00  0.00000000000E+00  0.23193065405E+01  0.23193065405E+01  0.00000000000E+00 0. -1.
         13   -1    0    0    0    0 -0.00000000000E+00 -0.00000000000E+00 -0.10000000000E+04  0.10000000000E+04  0.00000000000E+00 0.  1.
    9000005    2    1    2  501    0 -0.55721886939E+01 -0.40440852090E+02 -0.76391205509E+03  0.76501298953E+03  0.40907754817E+01 0.  0.
         13    1    3    3    0    0 -0.16895316664E+01 -0.23362967599E+02 -0.46187833172E+03  0.46247191924E+03  0.00000000000E+00 0.  1.
          1    1    3    3  501    0 -0.38826570275E+01 -0.17077884491E+02 -0.30203372336E+03  0.30254107029E+03  0.00000000000E+00 0.  1.
         -3    1    1    2    0  502  0.55721886939E+01  0.40440852090E+02 -0.23376863837E+03  0.23730631701E+03  0.00000000000E+00 0. -1.
<mgrwt>
<rscale>  1 0.30000000E+03</rscale>
<asrwt>0</asrwt>
<pdfrwt beam="1">  1       21 0.84338597E-02 0.30000000E+03</pdfrwt>
<pdfrwt beam="2">0</pdfrwt>
<totfact> 0.11640463E+04</totfact>
</mgrwt>
</event>
<event>
 6    1  0.1270461E-001  0.3000000E+03  0.7818608E-02  0.1093470E+00
         21   -1    0    0  501  502  0.00000000000E+00  0.00000000000E+00  0.30123714913E+01  0.30123714913E+01  0.00000000000E+00 0. -1.
         13   -1    0    0    0    0 -0.00000000000E+00 -0.00000000000E+00 -0.10000000000E+04  0.10000000000E+04  0.00000000000E+00 0.  1.
    9000005    2    1    2  501    0 -0.28549206086E+02  0.10223535343E+02 -0.91639800948E+03  0.91690624780E+03  0.34896447885E+01 0.  0.
         13    1    3    3    0    0 -0.74371976432E+00  0.96408598461E+00 -0.37436875645E+02  0.37456671488E+02  0.00000000000E+00 0.  1.
          3    1    3    3  501    0 -0.27805486322E+02  0.92594493580E+01 -0.87896113384E+03  0.87944957631E+03  0.00000000000E+00 0.  1.
         -3    1    1    2    0  502  0.28549206086E+02 -0.10223535343E+02 -0.80589619025E+02  0.86106123695E+02  0.00000000000E+00 0. -1.
<mgrwt>
<rscale>  1 0.30000000E+03</rscale>
<asrwt>0</asrwt>
<pdfrwt beam="1">  1       21 0.10954101E-01 0.30000000E+03</pdfrwt>
<pdfrwt beam="2">0</pdfrwt>
<totfact> 0.73067741E+03</totfact>
</mgrwt>
</event>
<event>
 6    1  0.1270461E-001  0.3000000E+03  0.7818608E-02  0.1093470E+00
         21   -1    0    0  501  502  0.00000000000E+00  0.00000000000E+00  0.27548006720E+01  0.27548006720E+01  0.00000000000E+00 0. -1.
         13   -1    0    0    0    0 -0.00000000000E+00 -0.00000000000E+00 -0.10000000000E+04  0.10000000000E+04  0.00000000000E+00 0.  1.
    9000005    2    1    2  501    0  0.28594747980E+02  0.20909470145E+02 -0.86841155391E+03  0.86913978002E+03  0.32349163954E+01 0.  0.
         13    1    3    3    0    0  0.62599784408E+01  0.43738671431E+01 -0.22152563830E+03  0.22165722742E+03  0.00000000000E+00 0.  1.
          3    1    3    3  501    0  0.22334769539E+02  0.16535603002E+02 -0.64688591562E+03  0.64748255260E+03  0.00000000000E+00 0.  1.
         -1    1    1    2    0  502 -0.28594747980E+02 -0.20909470145E+02 -0.12883364541E+03  0.13361502065E+03  0.00000000000E+00 0. -1.
<mgrwt>
<rscale>  1 0.30000000E+03</rscale>
<asrwt>0</asrwt>
<pdfrwt beam="1">  1       21 0.10017478E-01 0.30000000E+03</pdfrwt>
<pdfrwt beam="2">0</pdfrwt>
<totfact> 0.85763933E+03</totfact>
</mgrwt>
</event>
<event>
 6    1  0.1270461E-001  0.3000000E+03  0.7818608E-02  0.1093470E+00
         21   -1    0    0  501  502  0.00000000000E+00  0.00000000000E+00  0.99117918987E+00  0.99117918987E+00  0.00000000000E+00 0. -1.
         13   -1    0    0    0    0 -0.00000000000E+00 -0.00000000000E+00 -0.10000000000E+04  0.10000000000E+04  0.00000000000E+00 0.  1.
    9000005    2    1    2  501    0  0.28746627092E+02  0.98880712748E+01 -0.39424501448E+03  0.39546380246E+03  0.61923413127E+01 0.  0.
         13    1    3    3    0    0  0.84663815341E+00  0.37953291732E+00 -0.39570227478E+01  0.40643413273E+01  0.00000000000E+00 0.  1.
          3    1    3    3  501    0  0.27899988938E+02  0.95085383575E+01 -0.39028799173E+03  0.39139946113E+03  0.00000000000E+00 0.  1.
         -1    1    1    2    0  502 -0.28746627092E+02 -0.98880712748E+01 -0.60476380633E+03  0.60552737673E+03  0.00000000000E+00 0. -1.
<mgrwt>
<rscale>  1 0.30000000E+03</rscale>
<asrwt>0</asrwt>
<pdfrwt beam="1">  1       21 0.36042956E-02 0.30000000E+03</pdfrwt>
<pdfrwt beam="2">0</pdfrwt>
<totfact> 0.50090041E+04</totfact>
</mgrwt>
</event>
<event>
 6    1  0.1270461E-001  0.3000000E+03  0.7818608E-02  0.1093470E+00
         21   -1    0    0  501  502  0.00000000000E+00  0.00000000000E+00  0.99594065559E+00  0.99594065559E+00  0.00000000000E+00 0. -1.
         13   -1    0    0    0    0 -0.00000000000E+00 -0.00000000000E+00 -0.10000000000E+04  0.10000000000E+04  0.00000000000E+00 0.  1.
    9000005    2    1    2  501    0  0.98871260814E+01  0.29070104614E+02 -0.61076106761E+03  0.61154061988E+03  0.31657256142E+01 0.  0.
         13    1    3    3    0    0  0.56124967069E+01  0.20329647241E+02 -0.43349687039E+03  0.43400959818E+03  0.00000000000E+00 0.  1.
          1    1    3    3  501    0  0.42746293745E+01  0.87404573732E+01 -0.17726419722E+03  0.17753102170E+03  0.00000000000E+00 0.  1.
         -1    1    1    2    0  502 -0.98871260814E+01 -0.29070104614E+02 -0.38824299174E+03  0.38945532077E+03  0.00000000000E+00 0. -1.
<mgrwt>
<rscale>  1 0.30000000E+03</rscale>
<asrwt>0</asrwt>
<pdfrwt beam="1">  1       21 0.36216100E-02 0.30000000E+03</pdfrwt>
<pdfrwt beam="2">0</pdfrwt>
<totfact> 0.49689060E+04</totfact>
</mgrwt>
</event>
<event>
 6    1  0.1270461E-001  0.3000000E+03  0.7818608E-02  0.1093470E+00
         21   -1    0    0  501  502  0.00000000000E+00  0.00000000000E+00  0.25220706658E+01  0.25220706658E+01  0.00000000000E+00 0. -1.
         13   -1    0    0    0    0 -0.00000000000E+00 -0.00000000000E+00 -0.10000000000E+04  0.10000000000E+04  0.00000000000E+00 0.  1.
    9000005    2    1    2  501    0 -0.26939135879E+02  0.31053984477E+02 -0.78477563796E+03  0.78588335818E+03  0.70557584326E+01 0.  0.
         13    1    3    3    0    0 -0.10874526831E+02  0.76144803419E+01 -0.23871095231E+03  0.23907980760E+03  0.00000000000E+00 0.  1.
          1    1    3    3  501    0 -0.16064609048E+02  0.23439504135E+02 -0.54606468565E+03  0.54680355058E+03  0.00000000000E+00 0.  1.
         -3    1    1    2    0  502  0.26939135879E+02 -0.31053984477E+02 -0.21270229137E+03  0.21663871249E+03  0.00000000000E+00 0. -1.
<mgrwt>
<rscale>  1 0.30000000E+03</rscale>
<asrwt>0</asrwt>
<pdfrwt beam="1">  1       21 0.91711854E-02 0.30000000E+03</pdfrwt>
<pdfrwt beam="2">0</pdfrwt>
<totfact> 0.10037076E+04</totfact>
</mgrwt>
</event>
<event>
 6    1  0.1270461E-001  0.3000000E+03  0.7818608E-02  0.1093470E+00
         21   -1    0    0  501  502  0.00000000000E+00  0.00000000000E+00  0.12792250969E+01  0.12792250969E+01  0.00000000000E+00 0. -1.
         13   -1    0    0    0    0 -0.00000000000E+00 -0.00000000000E+00 -0.10000000000E+04  0.10000000000E+04  0.00000000000E+00 0.  1.
    9000005    2    1    2  501    0 -0.22985843253E+01  0.32634773171E+02 -0.69852723267E+03  0.69930824187E+03  0.46271440665E+01 0.  0.
         13    1    3    3    0    0 -0.27714977533E+01  0.30245715159E+02 -0.62033670303E+03  0.62107979327E+03  0.00000000000E+00 0.  1.
          1    1    3    3  501    0  0.47291342806E+00  0.23890580112E+01 -0.78190529638E+02  0.78228448600E+02  0.00000000000E+00 0.  1.
         -3    1    1    2    0  502  0.22985843253E+01 -0.32634773171E+02 -0.30019354224E+03  0.30197098322E+03  0.00000000000E+00 0. -1.
<mgrwt>
<rscale>  1 0.30000000E+03</rscale>
<asrwt>0</asrwt>
<pdfrwt beam="1">  1       21 0.46517374E-02 0.30000000E+03</pdfrwt>
<pdfrwt beam="2">0</pdfrwt>
<totfact> 0.32570836E+04</totfact>
</mgrwt>
</event>
<event>
 6    1  0.1270461E-001  0.3000000E+03  0.7818608E-02  0.1093470E+00
         21   -1    0    0  501  502  0.00000000000E+00  0.00000000000E+00  0.22202592066E+01  0.22202592066E+01  0.00000000000E+00 0. -1.
         13   -1    0    0    0    0 -0.00000000000E+00 -0.00000000000E+00 -0.10000000000E+04  0.10000000000E+04  0.00000000000E+00 0.  1.
    9000005    2    1    2  501    0 -0.29091410390E+02 -0.78587130962E+01 -0.88362898786E+03  0.88415898729E+03  0.53718803940E+01 0.  0.
         13    1    3    3    0    0 -0.24856981040E+02 -0.57237131712E+01 -0.78765753065E+03  0.78807043847E+03  0.00000000000E+00 0.  1.
          3    1    3    3  501    0 -0.42344293498E+01 -0.21349999250E+01 -0.95971457206E+02  0.96088548822E+02  0.00000000000E+00 0.  1.
         -3    1    1    2    0  502  0.29091410390E+02  0.78587130962E+01 -0.11415075294E+03  0.11806127191E+03  0.00000000000E+00 0. -1.
<mgrwt>
<rscale>  1 0.30000000E+03</rscale>
<asrwt>0</asrwt>
<pdfrwt beam="1">  1       21 0.80736869E-02 0.30000000E+03</pdfrwt>
<pdfrwt beam="2">0</pdfrwt>
<totfact> 0.12569747E+04</totfact>
</mgrwt>
</event>
<event>
 6    1  0.1270461E-001  0.3000000E+03  0.7818608E-02  0.1093470E+00
         21   -1    0    0  501  502  0.00000000000E+00  0.00000000000E+00  0.21797749883E+01  0.21797749883E+01  0.00000000000E+00 0. -1.
         13   -1    0    0    0    0 -0.00000000000E+00 -0.00000000000E+00 -0.10000000000E+04  0.10000000000E+04  0.00000000000E+00 0.  1.
    9000005    2    1    2  501    0 -0.14844942133E+02 -0.27172688630E+02 -0.87371418518E+03  0.87426950786E+03  0.34594325634E+01 0.  0.
         13    1    3    3    0    0 -0.10523809837E+02 -0.16278560109E+02 -0.51965218822E+03  0.52001359483E+03  0.00000000000E+00 0.  1.
          3    1    3    3  501    0 -0.43211322961E+01 -0.10894128521E+02 -0.35406199696E+03  0.35425591303E+03  0.00000000000E+00 0.  1.
         -1    1    1    2    0  502  0.14844942133E+02  0.27172688630E+02 -0.12410603983E+03  0.12791026713E+03  0.00000000000E+00 0. -1.
<mgrwt>
<rscale>  1 0.30000000E+03</rscale>
<asrwt>0</asrwt>
<pdfrwt beam="1">  1       21 0.79264712E-02 0.30000000E+03</pdfrwt>
<pdfrwt beam="2">0</pdfrwt>
<totfact> 0.12982676E+04</totfact>
</mgrwt>
</event>
<event>
 6    1  0.1270461E-001  0.3000000E+03  0.7818608E-02  0.1093470E+00
         21   -1    0    0  501  502  0.00000000000E+00  0.00000000000E+00  0.16965110501E+02  0.16965110501E+02  0.00000000000E+00 0. -1.
         13   -1    0    0    0    0 -0.00000000000E+00 -0.00000000000E+00 -0.10000000000E+04  0.10000000000E+04  0.00000000000E+00 0.  1.
    9000005    2    1    2  501    0  0.19472092660E+02 -0.12713479976E+03 -0.41185197301E+03  0.43148040208E+03  0.32969695356E+01 0.  0.
         13    1    3    3    0    0  0.15097433929E+02 -0.10489901843E+03 -0.34198650545E+03  0.35803143227E+03  0.00000000000E+00 0.  1.
          3    1    3    3  501    0  0.43746587308E+01 -0.22235781324E+02 -0.69865467556E+02  0.73448969815E+02  0.00000000000E+00 0.  1.
         -3    1    1    2    0  502 -0.19472092660E+02  0.12713479976E+03 -0.57118291649E+03  0.58548470842E+03  0.00000000000E+00 0. -1.
<mgrwt>
<rscale>  1 0.30000000E+03</rscale>
<asrwt>0</asrwt>
<pdfrwt beam="1">  1       21 0.61691441E-01 0.30000000E+03</pdfrwt>
<pdfrwt beam="2">0</pdfrwt>
<totfact> 0.23585488E+02</totfact>
</mgrwt>
</event>
<event>
 6    1  0.1270461E-001  0.3000000E+03  0.7818608E-02  0.1093470E+00
         21   -1    0    0  501  502  0.00000000000E+00  0.00000000000E+00  0.19503830694E+01  0.19503830694E+01  0.00000000000E+00 0. -1.
         13   -1    0    0    0    0 -0.00000000000E+00 -0.00000000000E+00 -0.10000000000E+04  0.10000000000E+04  0.00000000000E+00 0.  1.
    9000005    2    1    2  501    0 -0.26699141567E+02  0.32756388799E+02 -0.63932887573E+03  0.64074906063E+03  0.56676435079E+01 0.  0.
         13    1    3    3    0    0 -0.15270534307E+02  0.22907804603E+02 -0.40360437543E+03  0.40454227047E+03  0.00000000000E+00 0.  1.
          3    1    3    3  501    0 -0.11428607260E+02  0.98485841963E+01 -0.23572450030E+03  0.23620679015E+03  0.00000000000E+00 0.  1.
         -3    1    1    2    0  502  0.26699141567E+02 -0.32756388799E+02 -0.35872074120E+03  0.36120132244E+03  0.00000000000E+00 0. -1.
<mgrwt>
<rscale>  1 0.30000000E+03</rscale>
<asrwt>0</asrwt>
<pdfrwt beam="1">  1       21 0.70923170E-02 0.30000000E+03</pdfrwt>
<pdfrwt beam="2">0</pdfrwt>
<totfact> 0.15771343E+04</totfact>
</mgrwt>
</event>
<event>
 6    1  0.1270461E-001  0.3000000E+03  0.7818608E-02  0.1093470E+00
         21   -1    0    0  501  502  0.00000000000E+00  0.00000000000E+00  0.12190023266E+01  0.12190023266E+01  0.00000000000E+00 0. -1.
         13   -1    0    0    0    0 -0.00000000000E+00 -0.00000000000E+00 -0.10000000000E+04  0.10000000000E+04  0.00000000000E+00 0.  1.
    9000005    2    1    2  501    0 -0.32231106858E+02  0.11647301096E+02 -0.58886264911E+03  0.58987054133E+03  0.36786063408E+01 0.  0.
         13    1    3    3    0    0 -0.35969663362E+01  0.25960325983E+01 -0.74077670857E+02  0.74210369031E+02  0.00000000000E+00 0.  1.
          3    1    3    3  501    0 -0.28634140522E+02  0.90512684981E+01 -0.51478497825E+03  0.51566017230E+03  0.00000000000E+00 0.  1.
         -3    1    1    2    0  502  0.32231106858E+02 -0.11647301096E+02 -0.40991834857E+03  0.41134846099E+03  0.00000000000E+00 0. -1.
<mgrwt>
<rscale>  1 0.30000000E+03</rscale>
<asrwt>0</asrwt>
<pdfrwt beam="1">  1       21 0.44327451E-02 0.30000000E+03</pdfrwt>
<pdfrwt beam="2">0</pdfrwt>
<totfact> 0.35349493E+04</totfact>
</mgrwt>
</event>
<event>
 6    1  0.1270461E-001  0.3000000E+03  0.7818608E-02  0.1093470E+00
         21   -1    0    0  501  502  0.00000000000E+00  0.00000000000E+00  0.21819001638E+01  0.21819001638E+01  0.00000000000E+00 0. -1.
         13   -1    0    0    0    0 -0.00000000000E+00 -0.00000000000E+00 -0.10000000000E+04  0.10000000000E+04  0.00000000000E+00 0.  1.
    9000005    2    1    2  501    0  0.22057561768E+02  0.30761279445E+02 -0.79213752587E+03  0.79304727641E+03  0.30545688448E+01 0.  0.
         13    1    3    3    0    0  0.37135533290E+01  0.36067844817E+01 -0.11905782229E+03  0.11917031686E+03  0.00000000000E+00 0.  1.
          1    1    3    3  501    0  0.18344008439E+02  0.27154494963E+02 -0.67307970358E+03  0.67387695956E+03  0.00000000000E+00 0.  1.
         -1    1    1    2    0  502 -0.22057561768E+02 -0.30761279445E+02 -0.20568057397E+03  0.20913462375E+03  0.00000000000E+00 0. -1.
<mgrwt>
<rscale>  1 0.30000000E+03</rscale>
<asrwt>0</asrwt>
<pdfrwt beam="1">  1       21 0.79341991E-02 0.30000000E+03</pdfrwt>
<pdfrwt beam="2">0</pdfrwt>
<totfact> 0.12960484E+04</totfact>
</mgrwt>
</event>
<event>
 6    1  0.1270461E-001  0.3000000E+03  0.7818608E-02  0.1093470E+00
         21   -1    0    0  501  502  0.00000000000E+00  0.00000000000E+00  0.21061256005E+01  0.21061256005E+01  0.00000000000E+00 0. -1.
         13   -1    0    0    0    0 -0.00000000000E+00 -0.00000000000E+00 -0.10000000000E+04  0.10000000000E+04  0.00000000000E+00 0.  1.
    9000005    2    1    2  501    0  0.32580244496E+02 -0.18118104788E+02 -0.78989667580E+03  0.79079457202E+03  0.54367857646E+01 0.  0.
         13    1    3    3    0    0  0.26612592662E+02 -0.12233398572E+02 -0.61013553294E+03  0.61083815752E+03  0.00000000000E+00 0.  1.
          1    1    3    3  501    0  0.59676518348E+01 -0.58847062162E+01 -0.17976114286E+03  0.17995641450E+03  0.00000000000E+00 0.  1.
         -3    1    1    2    0  502 -0.32580244496E+02  0.18118104788E+02 -0.20799719860E+03  0.21131155358E+03  0.00000000000E+00 0. -1.
<mgrwt>
<rscale>  1 0.30000000E+03</rscale>
<asrwt>0</asrwt>
<pdfrwt beam="1">  1       21 0.76586547E-02 0.30000000E+03</pdfrwt>
<pdfrwt beam="2">0</pdfrwt>
<totfact> 0.13789442E+04</totfact>
</mgrwt>
</event>
<event>
 6    1  0.1270461E-001  0.3000000E+03  0.7818608E-02  0.1093470E+00
         21   -1    0    0  501  502  0.00000000000E+00  0.00000000000E+00  0.29383352465E+01  0.29383352465E+01  0.00000000000E+00 0. -1.
         13   -1    0    0    0    0 -0.00000000000E+00 -0.00000000000E+00 -0.10000000000E+04  0.10000000000E+04  0.00000000000E+00 0.  1.
    9000005    2    1    2  501    0 -0.14320703538E+02  0.28753589758E+02 -0.90235512551E+03  0.90293243517E+03  0.32184595388E+01 0.  0.
         13    1    3    3    0    0 -0.24854288591E+01  0.28350550712E+01 -0.11613193520E+03  0.11619312056E+03  0.00000000000E+00 0.  1.
          1    1    3    3  501    0 -0.11835274679E+02  0.25918534686E+02 -0.78622319031E+03  0.78673931461E+03  0.00000000000E+00 0.  1.
         -3    1    1    2    0  502  0.14320703538E+02 -0.28753589758E+02 -0.94706539243E+02  0.10000590007E+03  0.00000000000E+00 0. -1.
<mgrwt>
<rscale>  1 0.30000000E+03</rscale>
<asrwt>0</asrwt>
<pdfrwt beam="1">  1       21 0.10684878E-01 0.30000000E+03</pdfrwt>
<pdfrwt beam="2">0</pdfrwt>
<totfact> 0.76408655E+03</totfact>
</mgrwt>
</event>
<event>
 6    1  0.1313112E-001  0.3000000E+03  0.7818608E-02  0.1093470E+00
         21   -1    0    0  501  502  0.00000000000E+00  0.00000000000E+00  0.22078710841E+01  0.22078710841E+01  0.00000000000E+00 0. -1.
         13   -1    0    0    0    0 -0.00000000000E+00 -0.00000000000E+00 -0.10000000000E+04  0.10000000000E+04  0.00000000000E+00 0.  1.
    9000005    2    1    2  501    0 -0.16617582831E+02 -0.37647192544E+02 -0.74016123456E+03  0.74131108518E+03  0.31649183512E+01 0.  0.
         13    1    3    3    0    0 -0.80644025044E+01 -0.15752271650E+02 -0.29666668098E+03  0.29719402460E+03  0.00000000000E+00 0.  1.
          1    1    3    3  501    0 -0.85531803263E+01 -0.21894920894E+02 -0.44349455357E+03  0.44411706059E+03  0.00000000000E+00 0.  1.
         -1    1    1    2    0  502  0.16617582831E+02  0.37647192544E+02 -0.25763089436E+03  0.26089678590E+03  0.00000000000E+00 0. -1.
<mgrwt>
<rscale>  1 0.30000000E+03</rscale>
<asrwt>0</asrwt>
<pdfrwt beam="1">  1       21 0.80286391E-02 0.30000000E+03</pdfrwt>
<pdfrwt beam="2">0</pdfrwt>
<totfact> 0.12693934E+04</totfact>
</mgrwt>
</event>
<event>
 6    1  0.1270461E-001  0.3000000E+03  0.7818608E-02  0.1093470E+00
         21   -1    0    0  501  502  0.00000000000E+00  0.00000000000E+00  0.23846788731E+01  0.23846788731E+01  0.00000000000E+00 0. -1.
         13   -1    0    0    0    0 -0.00000000000E+00 -0.00000000000E+00 -0.10000000000E+04  0.10000000000E+04  0.00000000000E+00 0.  1.
    9000005    2    1    2  501    0 -0.19771214116E+02 -0.44236589475E+02 -0.44395253976E+03  0.44660571901E+03  0.38773620833E+01 0.  0.
         13    1    3    3    0    0 -0.37548852604E+01 -0.10094284594E+02 -0.85867656661E+02  0.86540442599E+02  0.00000000000E+00 0.  1.
          3    1    3    3  501    0 -0.16016328856E+02 -0.34142304881E+02 -0.35808488310E+03  0.36006527641E+03  0.00000000000E+00 0.  1.
         -3    1    1    2    0  502  0.19771214116E+02  0.44236589475E+02 -0.55366278137E+03  0.55577895987E+03  0.00000000000E+00 0. -1.
<mgrwt>
<rscale>  1 0.30000000E+03</rscale>
<asrwt>0</asrwt>
<pdfrwt beam="1">  1       21 0.86715778E-02 0.30000000E+03</pdfrwt>
<pdfrwt beam="2">0</pdfrwt>
<totfact> 0.11083411E+04</totfact>
</mgrwt>
</event>
<event>
 6    1  0.1270461E-001  0.3000000E+03  0.7818608E-02  0.1093470E+00
         21   -1    0    0  501  502  0.00000000000E+00  0.00000000000E+00  0.13491402213E+01  0.13491402213E+01  0.00000000000E+00 0. -1.
         13   -1    0    0    0    0 -0.00000000000E+00 -0.00000000000E+00 -0.10000000000E+04  0.10000000000E+04  0.00000000000E+00 0.  1.
    9000005    2    1    2  501    0  0.65998984549E+01 -0.35259123787E+02 -0.39830173703E+03  0.39992929215E+03  0.35214383521E+01 0.  0.
         13    1    3    3    0    0  0.68481941249E+01 -0.34641152119E+02 -0.38687732184E+03  0.38848548150E+03  0.00000000000E+00 0.  1.
          1    1    3    3  501    0 -0.24829567008E+00 -0.61797166821E+00 -0.11424415193E+02  0.11443810651E+02  0.00000000000E+00 0.  1.
         -1    1    1    2    0  502 -0.65998984549E+01  0.35259123787E+02 -0.60034912275E+03  0.60141984807E+03  0.00000000000E+00 0. -1.
<mgrwt>
<rscale>  1 0.30000000E+03</rscale>
<asrwt>0</asrwt>
<pdfrwt beam="1">  1       21 0.49059748E-02 0.30000000E+03</pdfrwt>
<pdfrwt beam="2">0</pdfrwt>
<totfact> 0.29751661E+04</totfact>
</mgrwt>
</event>
<event>
 6    1  0.1270461E-001  0.3000000E+03  0.7818608E-02  0.1093470E+00
         21   -1    0    0  501  502  0.00000000000E+00  0.00000000000E+00  0.13107324191E+01  0.13107324191E+01  0.00000000000E+00 0. -1.
         13   -1    0    0    0    0 -0.00000000000E+00 -0.00000000000E+00 -0.10000000000E+04  0.10000000000E+04  0.00000000000E+00 0.  1.
    9000005    2    1    2  501    0  0.33116891943E+02 -0.96062256815E+01 -0.64835114510E+03  0.64927975628E+03  0.39983056570E+01 0.  0.
         13    1    3    3    0    0  0.21905882459E+02 -0.44648577952E+01 -0.40638516360E+03  0.40699963616E+03  0.00000000000E+00 0.  1.
          3    1    3    3  501    0  0.11211009483E+02 -0.51413678863E+01 -0.24196598150E+03  0.24228012011E+03  0.00000000000E+00 0.  1.
         -1    1    1    2    0  502 -0.33116891943E+02  0.96062256815E+01 -0.35033812248E+03  0.35203097614E+03  0.00000000000E+00 0. -1.
<mgrwt>
<rscale>  1 0.30000000E+03</rscale>
<asrwt>0</asrwt>
<pdfrwt beam="1">  1       21 0.47663098E-02 0.30000000E+03</pdfrwt>
<pdfrwt beam="2">0</pdfrwt>
<totfact> 0.31250805E+04</totfact>
</mgrwt>
</event>
<event>
 6    1  0.1270461E-001  0.3000000E+03  0.7818608E-02  0.1093470E+00
         21   -1    0    0  501  502  0.00000000000E+00  0.00000000000E+00  0.27703791830E+01  0.27703791830E+01  0.00000000000E+00 0. -1.
         13   -1    0    0    0    0 -0.00000000000E+00 -0.00000000000E+00 -0.10000000000E+04  0.10000000000E+04  0.00000000000E+00 0.  1.
    9000005    2    1    2  501    0  0.32040223423E+02  0.20978542064E+02 -0.84234633007E+03  0.84322255282E+03  0.32029142786E+01 0.  0.
         13    1    3    3    0    0  0.10881605151E+02  0.53802126480E+01 -0.27252107575E+03  0.27279129889E+03  0.00000000000E+00 0.  1.
          1    1    3    3  501    0  0.21158618271E+02  0.15598329416E+02 -0.56982525432E+03  0.57043125393E+03  0.00000000000E+00 0.  1.
         -1    1    1    2    0  502 -0.32040223423E+02 -0.20978542064E+02 -0.15488329075E+03  0.15954782636E+03  0.00000000000E+00 0. -1.
<mgrwt>
<rscale>  1 0.30000000E+03</rscale>
<asrwt>0</asrwt>
<pdfrwt beam="1">  1       21 0.10074127E-01 0.30000000E+03</pdfrwt>
<pdfrwt beam="2">0</pdfrwt>
<totfact> 0.84903866E+03</totfact>
</mgrwt>
</event>
<event>
 6    1  0.1270461E-001  0.3000000E+03  0.7818608E-02  0.1093470E+00
         21   -1    0    0  501  502  0.00000000000E+00  0.00000000000E+00  0.44356741180E+01  0.44356741180E+01  0.00000000000E+00 0. -1.
         13   -1    0    0    0    0 -0.00000000000E+00 -0.00000000000E+00 -0.10000000000E+04  0.10000000000E+04  0.00000000000E+00 0.  1.
    9000005    2    1    2  501    0 -0.15626244963E+02  0.30567978865E+02 -0.68096623039E+02  0.76332813072E+02  0.33117093386E+01 0.  0.
         13    1    3    3    0    0 -0.10141031655E+02  0.21865686313E+02 -0.50311504461E+02  0.55787061601E+02  0.00000000000E+00 0.  1.
          3    1    3    3  501    0 -0.54852133081E+01  0.87022925520E+01 -0.17785118577E+02  0.20545751471E+02  0.00000000000E+00 0.  1.
         -3    1    1    2    0  502  0.15626244963E+02 -0.30567978865E+02 -0.92746770284E+03  0.92810286105E+03  0.00000000000E+00 0. -1.
<mgrwt>
<rscale>  1 0.30000000E+03</rscale>
<asrwt>0</asrwt>
<pdfrwt beam="1">  1       21 0.16129758E-01 0.30000000E+03</pdfrwt>
<pdfrwt beam="2">0</pdfrwt>
<totfact> 0.35980691E+03</totfact>
</mgrwt>
</event>
<event>
 6    1  0.1270461E-001  0.3000000E+03  0.7818608E-02  0.1093470E+00
         21   -1    0    0  501  502  0.00000000000E+00  0.00000000000E+00  0.40500962696E+01  0.40500962696E+01  0.00000000000E+00 0. -1.
         13   -1    0    0    0    0 -0.00000000000E+00 -0.00000000000E+00 -0.10000000000E+04  0.10000000000E+04  0.00000000000E+00 0.  1.
    9000005    2    1    2  501    0  0.16437780953E+02 -0.45620782507E+02 -0.17364364192E+03  0.18031528175E+03  0.31670197407E+01 0.  0.
         13    1    3    3    0    0  0.12145487219E+02 -0.30124070330E+02 -0.11930493357E+03  0.12364723874E+03  0.00000000000E+00 0.  1.
          1    1    3    3  501    0  0.42922937338E+01 -0.15496712177E+02 -0.54338708348E+02  0.56668043011E+02  0.00000000000E+00 0.  1.
         -3    1    1    2    0  502 -0.16437780953E+02  0.45620782507E+02 -0.82230626181E+03  0.82373481452E+03  0.00000000000E+00 0. -1.
<mgrwt>
<rscale>  1 0.30000000E+03</rscale>
<asrwt>0</asrwt>
<pdfrwt beam="1">  1       21 0.14727654E-01 0.30000000E+03</pdfrwt>
<pdfrwt beam="2">0</pdfrwt>
<totfact> 0.42599366E+03</totfact>
</mgrwt>
</event>
<event>
 6    1  0.1270461E-001  0.3000000E+03  0.7818608E-02  0.1093470E+00
         21   -1    0    0  501  502  0.00000000000E+00  0.00000000000E+00  0.13131071389E+01  0.13131071389E+01  0.00000000000E+00 0. -1.
         13   -1    0    0    0    0 -0.00000000000E+00 -0.00000000000E+00 -0.10000000000E+04  0.10000000000E+04  0.00000000000E+00 0.  1.
    9000005    2    1    2  501    0 -0.12991814949E+02 -0.33564748924E+02 -0.45249063267E+03  0.45393231256E+03  0.33752195285E+01 0.  0.
         13    1    3    3    0    0 -0.13714663459E+01 -0.72574646074E+01 -0.95192875203E+02  0.95478977801E+02  0.00000000000E+00 0.  1.
          3    1    3    3  501    0 -0.11620348603E+02 -0.26307284317E+02 -0.35729775747E+03  0.35845333476E+03  0.00000000000E+00 0.  1.
         -3    1    1    2    0  502  0.12991814949E+02  0.33564748924E+02 -0.54619626019E+03  0.54738079458E+03  0.00000000000E+00 0. -1.
<mgrwt>
<rscale>  1 0.30000000E+03</rscale>
<asrwt>0</asrwt>
<pdfrwt beam="1">  1       21 0.47749451E-02 0.30000000E+03</pdfrwt>
<pdfrwt beam="2">0</pdfrwt>
<totfact> 0.31154721E+04</totfact>
</mgrwt>
</event>
<event>
 6    1  0.1270461E-001  0.3000000E+03  0.7818608E-02  0.1093470E+00
         21   -1    0    0  501  502  0.00000000000E+00  0.00000000000E+00  0.27049986345E+01  0.27049986345E+01  0.00000000000E+00 0. -1.
         13   -1    0    0    0    0 -0.00000000000E+00 -0.00000000000E+00 -0.10000000000E+04  0.10000000000E+04  0.00000000000E+00 0.  1.
    9000005    2    1    2  501    0  0.22752443640E+02  0.31981206767E+02 -0.82731313598E+03  0.82825068990E+03  0.34218516146E+01 0.  0.
         13    1    3    3    0    0  0.15940917977E+02  0.24947713705E+02 -0.61942778476E+03  0.62013489001E+03  0.00000000000E+00 0.  1.
          1    1    3    3  501    0  0.68115256624E+01  0.70334930614E+01 -0.20788535123E+03  0.20811579989E+03  0.00000000000E+00 0.  1.
         -3    1    1    2    0  502 -0.22752443640E+02 -0.31981206767E+02 -0.16998186538E+03  0.17445430873E+03  0.00000000000E+00 0. -1.
<mgrwt>
<rscale>  1 0.30000000E+03</rscale>
<asrwt>0</asrwt>
<pdfrwt beam="1">  1       21 0.98363794E-02 0.30000000E+03</pdfrwt>
<pdfrwt beam="2">0</pdfrwt>
<totfact> 0.88604534E+03</totfact>
</mgrwt>
</event>
<event>
 6    1  0.1270461E-001  0.3000000E+03  0.7818608E-02  0.1093470E+00
         21   -1    0    0  501  502  0.00000000000E+00  0.00000000000E+00  0.12216410041E+01  0.12216410041E+01  0.00000000000E+00 0. -1.
         13   -1    0    0    0    0 -0.00000000000E+00 -0.00000000000E+00 -0.10000000000E+04  0.10000000000E+04  0.00000000000E+00 0.  1.
    9000005    2    1    2  501    0 -0.13314750961E+02  0.27799085455E+02 -0.73439335296E+03  0.73504594121E+03  0.29777624886E+01 0.  0.
         13    1    3    3    0    0 -0.21218699890E+01  0.45443383341E+01 -0.14794210745E+03  0.14802709381E+03  0.00000000000E+00 0.  1.
          3    1    3    3  501    0 -0.11192880972E+02  0.23254747121E+02 -0.58645124550E+03  0.58701884740E+03  0.00000000000E+00 0.  1.
         -1    1    1    2    0  502  0.13314750961E+02 -0.27799085455E+02 -0.26438500604E+03  0.26617569980E+03  0.00000000000E+00 0. -1.
<mgrwt>
<rscale>  1 0.30000000E+03</rscale>
<asrwt>0</asrwt>
<pdfrwt beam="1">  1       21 0.44423403E-02 0.30000000E+03</pdfrwt>
<pdfrwt beam="2">0</pdfrwt>
<totfact> 0.35220168E+04</totfact>
</mgrwt>
</event>
<event>
 6    1  0.1270461E-001  0.3000000E+03  0.7818608E-02  0.1093470E+00
         21   -1    0    0  501  502  0.00000000000E+00  0.00000000000E+00  0.15513943558E+01  0.15513943558E+01  0.00000000000E+00 0. -1.
         13   -1    0    0    0    0 -0.00000000000E+00 -0.00000000000E+00 -0.10000000000E+04  0.10000000000E+04  0.00000000000E+00 0.  1.
    9000005    2    1    2  501    0 -0.34282997297E+02  0.64409692667E+01 -0.26897450085E+03  0.27124373346E+03  0.30117849119E+01 0.  0.
         13    1    3    3    0    0 -0.47329341869E+00 -0.25782670433E+00 -0.35367780590E+01  0.35776081826E+01  0.00000000000E+00 0.  1.
          3    1    3    3  501    0 -0.33809703879E+02  0.66987959711E+01 -0.26543772279E+03  0.26766612528E+03  0.00000000000E+00 0.  1.
         -1    1    1    2    0  502  0.34282997297E+02 -0.64409692667E+01 -0.72947410480E+03  0.73030766089E+03  0.00000000000E+00 0. -1.
<mgrwt>
<rscale>  1 0.30000000E+03</rscale>
<asrwt>0</asrwt>
<pdfrwt beam="1">  1       21 0.56414459E-02 0.30000000E+03</pdfrwt>
<pdfrwt beam="2">0</pdfrwt>
<totfact> 0.23430431E+04</totfact>
</mgrwt>
</event>
<event>
 6    1  0.1270461E-001  0.3000000E+03  0.7818608E-02  0.1093470E+00
         21   -1    0    0  501  502  0.00000000000E+00  0.00000000000E+00  0.27646663681E+01  0.27646663681E+01  0.00000000000E+00 0. -1.
         13   -1    0    0    0    0 -0.00000000000E+00 -0.00000000000E+00 -0.10000000000E+04  0.10000000000E+04  0.00000000000E+00 0.  1.
    9000005    2    1    2  501    0  0.49547529712E+02 -0.16402671886E+02 -0.44406138805E+03  0.44713401619E+03  0.37824241681E+01 0.  0.
         13    1    3    3    0    0  0.40344448438E+02 -0.11876725252E+02 -0.36141837104E+03  0.36385707365E+03  0.00000000000E+00 0.  1.
          1    1    3    3  501    0  0.92030812739E+01 -0.45259466341E+01 -0.82643017011E+02  0.83276942538E+02  0.00000000000E+00 0.  1.
         -3    1    1    2    0  502 -0.49547529712E+02  0.16402671886E+02 -0.55317394558E+03  0.55563065018E+03  0.00000000000E+00 0. -1.
<mgrwt>
<rscale>  1 0.30000000E+03</rscale>
<asrwt>0</asrwt>
<pdfrwt beam="1">  1       21 0.10053353E-01 0.30000000E+03</pdfrwt>
<pdfrwt beam="2">0</pdfrwt>
<totfact> 0.85217728E+03</totfact>
</mgrwt>
</event>
<event>
 6    1  0.1270461E-001  0.3000000E+03  0.7818608E-02  0.1093470E+00
         21   -1    0    0  501  502  0.00000000000E+00  0.00000000000E+00  0.16628685717E+01  0.16628685717E+01  0.00000000000E+00 0. -1.
         13   -1    0    0    0    0 -0.00000000000E+00 -0.00000000000E+00 -0.10000000000E+04  0.10000000000E+04  0.00000000000E+00 0.  1.
    9000005    2    1    2  501    0 -0.35910437837E+02  0.44706379146E+01 -0.72862592094E+03  0.72953480458E+03  0.39689140298E+01 0.  0.
         13    1    3    3    0    0 -0.95114389644E+00  0.53942095399E+00 -0.13554446130E+02  0.13598480046E+02  0.00000000000E+00 0.  1.
          1    1    3    3  501    0 -0.34959293940E+02  0.39312169606E+01 -0.71507147481E+03  0.71593632453E+03  0.00000000000E+00 0.  1.
         -3    1    1    2    0  502  0.35910437837E+02 -0.44706379146E+01 -0.26971121049E+03  0.27212806399E+03  0.00000000000E+00 0. -1.
<mgrwt>
<rscale>  1 0.30000000E+03</rscale>
<asrwt>0</asrwt>
<pdfrwt beam="1">  1       21 0.60468076E-02 0.30000000E+03</pdfrwt>
<pdfrwt beam="2">0</pdfrwt>
<totfact> 0.20791100E+04</totfact>
</mgrwt>
</event>
<event>
 6    1  0.1270461E-001  0.3000000E+03  0.7818608E-02  0.1093470E+00
         21   -1    0    0  501  502  0.00000000000E+00  0.00000000000E+00  0.14708939106E+01  0.14708939106E+01  0.00000000000E+00 0. -1.
         13   -1    0    0    0    0 -0.00000000000E+00 -0.00000000000E+00 -0.10000000000E+04  0.10000000000E+04  0.00000000000E+00 0.  1.
    9000005    2    1    2  501    0  0.20930123771E+02  0.30583829867E+02 -0.62577651531E+03  0.62688053811E+03  0.30856457815E+01 0.  0.
         13    1    3    3    0    0  0.10149798592E+02  0.12199402040E+02 -0.27293766690E+03  0.27339863540E+03  0.00000000000E+00 0.  1.
          1    1    3    3  501    0  0.10780325179E+02  0.18384427826E+02 -0.35283884841E+03  0.35348190271E+03  0.00000000000E+00 0.  1.
         -1    1    1    2    0  502 -0.20930123771E+02 -0.30583829867E+02 -0.37275259078E+03  0.37459035580E+03  0.00000000000E+00 0. -1.
<mgrwt>
<rscale>  1 0.30000000E+03</rscale>
<asrwt>0</asrwt>
<pdfrwt beam="1">  1       21 0.53487164E-02 0.30000000E+03</pdfrwt>
<pdfrwt beam="2">0</pdfrwt>
<totfact> 0.25671843E+04</totfact>
</mgrwt>
</event>
<event>
 6    1  0.1270461E-001  0.3000000E+03  0.7818608E-02  0.1093470E+00
         21   -1    0    0  501  502  0.00000000000E+00  0.00000000000E+00  0.45442539208E+01  0.45442539208E+01  0.00000000000E+00 0. -1.
         13   -1    0    0    0    0 -0.00000000000E+00 -0.00000000000E+00 -0.10000000000E+04  0.10000000000E+04  0.00000000000E+00 0.  1.
    9000005    2    1    2  501    0 -0.46720582843E+02 -0.37825768691E+02 -0.27137307477E+03  0.27797057113E+03  0.32697193058E+01 0.  0.
         13    1    3    3    0    0 -0.26616138088E+02 -0.20909446080E+02 -0.15985951141E+03  0.16340344896E+03  0.00000000000E+00 0.  1.
          1    1    3    3  501    0 -0.20104444755E+02 -0.16916322611E+02 -0.11151356336E+03  0.11456712217E+03  0.00000000000E+00 0.  1.
         -1    1    1    2    0  502  0.46720582843E+02  0.37825768691E+02 -0.72408267131E+03  0.72657368279E+03  0.00000000000E+00 0. -1.
<mgrwt>
<rscale>  1 0.30000000E+03</rscale>
<asrwt>0</asrwt>
<pdfrwt beam="1">  1       21 0.16524595E-01 0.30000000E+03</pdfrwt>
<pdfrwt beam="2">0</pdfrwt>
<totfact> 0.34392473E+03</totfact>
</mgrwt>
</event>
<event>
 6    1  0.1270461E-001  0.3000000E+03  0.7818608E-02  0.1093470E+00
         21   -1    0    0  501  502  0.00000000000E+00  0.00000000000E+00  0.35780522928E+01  0.35780522928E+01  0.00000000000E+00 0. -1.
         13   -1    0    0    0    0 -0.00000000000E+00 -0.00000000000E+00 -0.10000000000E+04  0.10000000000E+04  0.00000000000E+00 0.  1.
    9000005    2    1    2  501    0 -0.51863218082E+02  0.95464617237E+01 -0.73461625097E+03  0.73651410645E+03  0.33263342663E+01 0.  0.
         13    1    3    3    0    0 -0.49935142522E+02  0.86935462498E+01 -0.71066975199E+03  0.71247497682E+03  0.00000000000E+00 0.  1.
          3    1    3    3  501    0 -0.19280755603E+01  0.85291547394E+00 -0.23946498976E+02  0.24039129631E+02  0.00000000000E+00 0.  1.
         -3    1    1    2    0  502  0.51863218082E+02 -0.95464617237E+01 -0.26180569674E+03  0.26706394584E+03  0.00000000000E+00 0. -1.
<mgrwt>
<rscale>  1 0.30000000E+03</rscale>
<asrwt>0</asrwt>
<pdfrwt beam="1">  1       21 0.13011127E-01 0.30000000E+03</pdfrwt>
<pdfrwt beam="2">0</pdfrwt>
<totfact> 0.53481619E+03</totfact>
</mgrwt>
</event>
<event>
 6    1  0.1270461E-001  0.3000000E+03  0.7818608E-02  0.1093470E+00
         21   -1    0    0  501  502  0.00000000000E+00  0.00000000000E+00  0.55456944721E+01  0.55456944721E+01  0.00000000000E+00 0. -1.
         13   -1    0    0    0    0 -0.00000000000E+00 -0.00000000000E+00 -0.10000000000E+04  0.10000000000E+04  0.00000000000E+00 0.  1.
    9000005    2    1    2  501    0 -0.66520966728E+01  0.44459142470E+02 -0.89800393547E+03  0.89913357287E+03  0.30410533251E+01 0.  0.
         13    1    3    3    0    0 -0.46783820581E+01  0.37321086131E+02 -0.73612876857E+03  0.73708908190E+03  0.00000000000E+00 0.  1.
          3    1    3    3  501    0 -0.19737146147E+01  0.71380563391E+01 -0.16187516690E+03  0.16204449097E+03  0.00000000000E+00 0.  1.
         -1    1    1    2    0  502  0.66520966728E+01 -0.44459142470E+02 -0.96450370058E+02  0.10641212160E+03  0.00000000000E+00 0. -1.
<mgrwt>
<rscale>  1 0.30000000E+03</rscale>
<asrwt>0</asrwt>
<pdfrwt beam="1">  1       21 0.20166204E-01 0.30000000E+03</pdfrwt>
<pdfrwt beam="2">0</pdfrwt>
<totfact> 0.23615984E+03</totfact>
</mgrwt>
</event>
<event>
 6    1  0.1270461E-001  0.3000000E+03  0.7818608E-02  0.1093470E+00
         21   -1    0    0  501  502  0.00000000000E+00  0.00000000000E+00  0.10481027569E+01  0.10481027569E+01  0.00000000000E+00 0. -1.
         13   -1    0    0    0    0 -0.00000000000E+00 -0.00000000000E+00 -0.10000000000E+04  0.10000000000E+04  0.00000000000E+00 0.  1.
    9000005    2    1    2  501    0 -0.63658066108E+00 -0.32114749532E+02 -0.55278685720E+03  0.55372830068E+03  0.31558057013E+01 0.  0.
         13    1    3    3    0    0 -0.10404600787E+01 -0.23890369246E+02 -0.38855899220E+03  0.38929413394E+03  0.00000000000E+00 0.  1.
          3    1    3    3  501    0  0.40387941758E+00 -0.82243802862E+01 -0.16422786500E+03  0.16443416674E+03  0.00000000000E+00 0.  1.
         -1    1    1    2    0  502  0.63658066108E+00  0.32114749532E+02 -0.44616504004E+03  0.44731980207E+03  0.00000000000E+00 0. -1.
<mgrwt>
<rscale>  1 0.30000000E+03</rscale>
<asrwt>0</asrwt>
<pdfrwt beam="1">  1       21 0.38112908E-02 0.30000000E+03</pdfrwt>
<pdfrwt beam="2">0</pdfrwt>
<totfact> 0.45608155E+04</totfact>
</mgrwt>
</event>
<event>
 6    1  0.1270461E-001  0.3000000E+03  0.7818608E-02  0.1093470E+00
         21   -1    0    0  501  502  0.00000000000E+00  0.00000000000E+00  0.28868227272E+01  0.28868227272E+01  0.00000000000E+00 0. -1.
         13   -1    0    0    0    0 -0.00000000000E+00 -0.00000000000E+00 -0.10000000000E+04  0.10000000000E+04  0.00000000000E+00 0.  1.
    9000005    2    1    2  501    0 -0.68648766115E+01 -0.52517881390E+02 -0.42003047758E+03  0.42337867206E+03  0.43178083263E+01 0.  0.
         13    1    3    3    0    0 -0.48699481041E+01 -0.21409811171E+02 -0.16922997767E+03  0.17064841562E+03  0.00000000000E+00 0.  1.
          3    1    3    3  501    0 -0.19949285074E+01 -0.31108070219E+02 -0.25080049990E+03  0.25273025645E+03  0.00000000000E+00 0.  1.
         -1    1    1    2    0  502  0.68648766115E+01  0.52517881390E+02 -0.57708269970E+03  0.57950815066E+03  0.00000000000E+00 0. -1.
<mgrwt>
<rscale>  1 0.30000000E+03</rscale>
<asrwt>0</asrwt>
<pdfrwt beam="1">  1       21 0.10497559E-01 0.30000000E+03</pdfrwt>
<pdfrwt beam="2">0</pdfrwt>
<totfact> 0.78871548E+03</totfact>
</mgrwt>
</event>
<event>
 6    1  0.1270461E-001  0.3000000E+03  0.7818608E-02  0.1093470E+00
         21   -1    0    0  501  502  0.00000000000E+00  0.00000000000E+00  0.28748468570E+01  0.28748468570E+01  0.00000000000E+00 0. -1.
         13   -1    0    0    0    0 -0.00000000000E+00 -0.00000000000E+00 -0.10000000000E+04  0.10000000000E+04  0.00000000000E+00 0.  1.
    9000005    2    1    2  501    0  0.27636556964E+02 -0.40819179945E+02 -0.69372876085E+03  0.69549990385E+03  0.55261100954E+01 0.  0.
         13    1    3    3    0    0  0.14997662345E+02 -0.25872950186E+02 -0.44300373030E+03  0.44401198687E+03  0.00000000000E+00 0.  1.
          1    1    3    3  501    0  0.12638894619E+02 -0.14946229759E+02 -0.25072503055E+03  0.25148791698E+03  0.00000000000E+00 0.  1.
         -1    1    1    2    0  502 -0.27636556964E+02  0.40819179945E+02 -0.30339639230E+03  0.30737494301E+03  0.00000000000E+00 0. -1.
<mgrwt>
<rscale>  1 0.30000000E+03</rscale>
<asrwt>0</asrwt>
<pdfrwt beam="1">  1       21 0.10454011E-01 0.30000000E+03</pdfrwt>
<pdfrwt beam="2">0</pdfrwt>
<totfact> 0.79461384E+03</totfact>
</mgrwt>
</event>
<event>
 6    1  0.1270461E-001  0.3000000E+03  0.7818608E-02  0.1093470E+00
         21   -1    0    0  501  502  0.00000000000E+00  0.00000000000E+00  0.19284928271E+01  0.19284928271E+01  0.00000000000E+00 0. -1.
         13   -1    0    0    0    0 -0.00000000000E+00 -0.00000000000E+00 -0.10000000000E+04  0.10000000000E+04  0.00000000000E+00 0.  1.
    9000005    2    1    2  501    0 -0.28498627597E+02 -0.15358432508E+02 -0.83701050822E+03  0.83764611821E+03  0.40466366584E+01 0.  0.
         13    1    3    3    0    0 -0.28524979858E+02 -0.15498474265E+02 -0.83483321097E+03  0.83546416279E+03  0.00000000000E+00 0.  1.
          3    1    3    3  501    0  0.26352260762E-01  0.14004175644E+00 -0.21772972494E+01  0.21819554183E+01  0.00000000000E+00 0.  1.
         -3    1    1    2    0  502  0.28498627597E+02  0.15358432508E+02 -0.16106099896E+03  0.16428237462E+03  0.00000000000E+00 0. -1.
<mgrwt>
<rscale>  1 0.30000000E+03</rscale>
<asrwt>0</asrwt>
<pdfrwt beam="1">  1       21 0.70127160E-02 0.30000000E+03</pdfrwt>
<pdfrwt beam="2">0</pdfrwt>
<totfact> 0.16084399E+04</totfact>
</mgrwt>
</event>
<event>
 6    1  0.1270461E-001  0.3000000E+03  0.7818608E-02  0.1093470E+00
         21   -1    0    0  501  502  0.00000000000E+00  0.00000000000E+00  0.70258609097E+01  0.70258609097E+01  0.00000000000E+00 0. -1.
         13   -1    0    0    0    0 -0.00000000000E+00 -0.00000000000E+00 -0.10000000000E+04  0.10000000000E+04  0.00000000000E+00 0.  1.
    9000005    2    1    2  501    0  0.42356067569E+02 -0.54014677979E+02 -0.78535562130E+03  0.78835471323E+03  0.28425465579E+01 0.  0.
         13    1    3    3    0    0  0.36093932671E+02 -0.44758078204E+02 -0.66534781144E+03  0.66782764822E+03  0.00000000000E+00 0.  1.
          1    1    3    3  501    0  0.62621348979E+01 -0.92565997753E+01 -0.12000780986E+03  0.12052706501E+03  0.00000000000E+00 0.  1.
         -3    1    1    2    0  502 -0.42356067569E+02  0.54014677979E+02 -0.20761851779E+03  0.21867114768E+03  0.00000000000E+00 0. -1.
<mgrwt>
<rscale>  1 0.30000000E+03</rscale>
<asrwt>0</asrwt>
<pdfrwt beam="1">  1       21 0.25548639E-01 0.30000000E+03</pdfrwt>
<pdfrwt beam="2">0</pdfrwt>
<totfact> 0.14946091E+03</totfact>
</mgrwt>
</event>
<event>
 6    1  0.1270461E-001  0.3000000E+03  0.7818608E-02  0.1093470E+00
         21   -1    0    0  501  502  0.00000000000E+00  0.00000000000E+00  0.15913041235E+01  0.15913041235E+01  0.00000000000E+00 0. -1.
         13   -1    0    0    0    0 -0.00000000000E+00 -0.00000000000E+00 -0.10000000000E+04  0.10000000000E+04  0.00000000000E+00 0.  1.
    9000005    2    1    2  501    0 -0.31499824529E+02  0.15996425869E+01 -0.80512521376E+03  0.80575131265E+03  0.37108221745E+01 0.  0.
         13    1    3    3    0    0 -0.45174131047E+01 -0.43630619176E+00 -0.90018992739E+02  0.90133325901E+02  0.00000000000E+00 0.  1.
          1    1    3    3  501    0 -0.26982411424E+02  0.20359487787E+01 -0.71510622102E+03  0.71561798675E+03  0.00000000000E+00 0.  1.
         -3    1    1    2    0  502  0.31499824529E+02 -0.15996425869E+01 -0.19328348211E+03  0.19583999147E+03  0.00000000000E+00 0. -1.
<mgrwt>
<rscale>  1 0.30000000E+03</rscale>
<asrwt>0</asrwt>
<pdfrwt beam="1">  1       21 0.57865727E-02 0.30000000E+03</pdfrwt>
<pdfrwt beam="2">0</pdfrwt>
<totfact> 0.22428910E+04</totfact>
</mgrwt>
</event>
<event>
 6    1  0.1270461E-001  0.3000000E+03  0.7818608E-02  0.1093470E+00
         21   -1    0    0  501  502  0.00000000000E+00  0.00000000000E+00  0.16469755048E+01  0.16469755048E+01  0.00000000000E+00 0. -1.
         13   -1    0    0    0    0 -0.00000000000E+00 -0.00000000000E+00 -0.10000000000E+04  0.10000000000E+04  0.00000000000E+00 0.  1.
    9000005    2    1    2  501    0  0.35937095190E+02  0.13013077199E+01 -0.72987512456E+03  0.73077144880E+03  0.40055862786E+01 0.  0.
         13    1    3    3    0    0  0.10506156747E+02  0.19524477311E+01 -0.23521608621E+03  0.23545869828E+03  0.00000000000E+00 0.  1.
          3    1    3    3  501    0  0.25430938443E+02 -0.65114001113E+00 -0.49465903834E+03  0.49531275052E+03  0.00000000000E+00 0.  1.
         -3    1    1    2    0  502 -0.35937095190E+02 -0.13013077199E+01 -0.26847789994E+03  0.27087552671E+03  0.00000000000E+00 0. -1.
<mgrwt>
<rscale>  1 0.30000000E+03</rscale>
<asrwt>0</asrwt>
<pdfrwt beam="1">  1       21 0.59890145E-02 0.30000000E+03</pdfrwt>
<pdfrwt beam="2">0</pdfrwt>
<totfact> 0.21138367E+04</totfact>
</mgrwt>
</event>
<event>
 6    1  0.1270461E-001  0.3000000E+03  0.7818608E-02  0.1093470E+00
         21   -1    0    0  501  502  0.00000000000E+00  0.00000000000E+00  0.17148263554E+01  0.17148263554E+01  0.00000000000E+00 0. -1.
         13   -1    0    0    0    0 -0.00000000000E+00 -0.00000000000E+00 -0.10000000000E+04  0.10000000000E+04  0.00000000000E+00 0.  1.
    9000005    2    1    2  501    0 -0.84770417793E+01  0.31435423987E+02 -0.80799683188E+03  0.80866120911E+03  0.37449537304E+01 0.  0.
         13    1    3    3    0    0 -0.70469542577E+01  0.19947977897E+02 -0.54122906925E+03  0.54164239752E+03  0.00000000000E+00 0.  1.
          1    1    3    3  501    0 -0.14300875216E+01  0.11487446090E+02 -0.26676776263E+03  0.26701881160E+03  0.00000000000E+00 0.  1.
         -1    1    1    2    0  502  0.84770417793E+01 -0.31435423987E+02 -0.19028834177E+03  0.19305361724E+03  0.00000000000E+00 0. -1.
<mgrwt>
<rscale>  1 0.30000000E+03</rscale>
<asrwt>0</asrwt>
<pdfrwt beam="1">  1       21 0.62357454E-02 0.30000000E+03</pdfrwt>
<pdfrwt beam="2">0</pdfrwt>
<totfact> 0.19715589E+04</totfact>
</mgrwt>
</event>
<event>
 6    1  0.1270461E-001  0.3000000E+03  0.7818608E-02  0.1093470E+00
         21   -1    0    0  501  502  0.00000000000E+00  0.00000000000E+00  0.20533656945E+01  0.20533656945E+01  0.00000000000E+00 0. -1.
         13   -1    0    0    0    0 -0.00000000000E+00 -0.00000000000E+00 -0.10000000000E+04  0.10000000000E+04  0.00000000000E+00 0.  1.
    9000005    2    1    2  501    0 -0.31726825827E+02  0.16362592907E+02 -0.80385575213E+03  0.80470697869E+03  0.97429657443E+01 0.  0.
         13    1    3    3    0    0 -0.15791099927E+02  0.28380023527E+01 -0.37158743050E+03  0.37193363871E+03  0.00000000000E+00 0.  1.
          1    1    3    3  501    0 -0.15935725900E+02  0.13524590554E+02 -0.43226832163E+03  0.43277333998E+03  0.00000000000E+00 0.  1.
         -3    1    1    2    0  502  0.31726825827E+02 -0.16362592907E+02 -0.19409088217E+03  0.19734638701E+03  0.00000000000E+00 0. -1.
<mgrwt>
<rscale>  1 0.30000000E+03</rscale>
<asrwt>0</asrwt>
<pdfrwt beam="1">  1       21 0.74668001E-02 0.30000000E+03</pdfrwt>
<pdfrwt beam="2">0</pdfrwt>
<totfact> 0.14415998E+04</totfact>
</mgrwt>
</event>
<event>
 6    1  0.1270461E-001  0.3000000E+03  0.7818608E-02  0.1093470E+00
         21   -1    0    0  501  502  0.00000000000E+00  0.00000000000E+00  0.20444788560E+01  0.20444788560E+01  0.00000000000E+00 0. -1.
         13   -1    0    0    0    0 -0.00000000000E+00 -0.00000000000E+00 -0.10000000000E+04  0.10000000000E+04  0.00000000000E+00 0.  1.
    9000005    2    1    2  501    0 -0.42434661498E+02 -0.92455149253E+01 -0.38338489133E+03  0.38594120905E+03  0.89700555085E+01 0.  0.
         13    1    3    3    0    0 -0.40514610678E+02 -0.65550480931E+01 -0.35493845984E+03  0.35730339014E+03  0.00000000000E+00 0.  1.
          3    1    3    3  501    0 -0.19200508195E+01 -0.26904668322E+01 -0.28446431494E+02  0.28637818906E+02  0.00000000000E+00 0.  1.
         -1    1    1    2    0  502  0.42434661498E+02  0.92455149253E+01 -0.61457062981E+03  0.61610326981E+03  0.00000000000E+00 0. -1.
<mgrwt>
<rscale>  1 0.30000000E+03</rscale>
<asrwt>0</asrwt>
<pdfrwt beam="1">  1       21 0.74344842E-02 0.30000000E+03</pdfrwt>
<pdfrwt beam="2">0</pdfrwt>
<totfact> 0.14525855E+04</totfact>
</mgrwt>
</event>
<event>
 6    1  0.1270461E-001  0.3000000E+03  0.7818608E-02  0.1093470E+00
         21   -1    0    0  501  502  0.00000000000E+00  0.00000000000E+00  0.12766266989E+01  0.12766266989E+01  0.00000000000E+00 0. -1.
         13   -1    0    0    0    0 -0.00000000000E+00 -0.00000000000E+00 -0.10000000000E+04  0.10000000000E+04  0.00000000000E+00 0.  1.
    9000005    2    1    2  501    0 -0.34478395749E+02 -0.40833035156E+01 -0.38808424308E+03  0.38965126710E+03  0.36465173297E+01 0.  0.
         13    1    3    3    0    0 -0.25599767435E+02 -0.27112613604E+01 -0.26921032079E+03  0.27043834021E+03  0.00000000000E+00 0.  1.
          3    1    3    3  501    0 -0.88786283143E+01 -0.13720421552E+01 -0.11887392228E+03  0.11921292689E+03  0.00000000000E+00 0.  1.
         -3    1    1    2    0  502  0.34478395749E+02  0.40833035156E+01 -0.61063913023E+03  0.61162535960E+03  0.00000000000E+00 0. -1.
<mgrwt>
<rscale>  1 0.30000000E+03</rscale>
<asrwt>0</asrwt>
<pdfrwt beam="1">  1       21 0.46422887E-02 0.30000000E+03</pdfrwt>
<pdfrwt beam="2">0</pdfrwt>
<totfact> 0.32683585E+04</totfact>
</mgrwt>
</event>
<event>
 6    1  0.1270461E-001  0.3000000E+03  0.7818608E-02  0.1093470E+00
         21   -1    0    0  501  502  0.00000000000E+00  0.00000000000E+00  0.25654932677E+01  0.25654932677E+01  0.00000000000E+00 0. -1.
         13   -1    0    0    0    0 -0.00000000000E+00 -0.00000000000E+00 -0.10000000000E+04  0.10000000000E+04  0.00000000000E+00 0.  1.
    9000005    2    1    2  501    0 -0.32175974355E+02  0.98906852177E+00 -0.88531672539E+03  0.88591786802E+03  0.53378875982E+01 0.  0.
         13    1    3    3    0    0 -0.13826652392E+02  0.24540153176E+01 -0.33769049924E+03  0.33798235425E+03  0.00000000000E+00 0.  1.
          3    1    3    3  501    0 -0.18349321964E+02 -0.14649467958E+01 -0.54762622615E+03  0.54793551377E+03  0.00000000000E+00 0.  1.
         -3    1    1    2    0  502  0.32175974355E+02 -0.98906852177E+00 -0.11211778135E+03  0.11664762525E+03  0.00000000000E+00 0. -1.
<mgrwt>
<rscale>  1 0.30000000E+03</rscale>
<asrwt>0</asrwt>
<pdfrwt beam="1">  1       21 0.93290861E-02 0.30000000E+03</pdfrwt>
<pdfrwt beam="2">0</pdfrwt>
<totfact> 0.97372907E+03</totfact>
</mgrwt>
</event>
<event>
 6    1  0.1270461E-001  0.3000000E+03  0.7818608E-02  0.1093470E+00
         21   -1    0    0  501  502  0.00000000000E+00  0.00000000000E+00  0.15427674692E+01  0.15427674692E+01  0.00000000000E+00 0. -1.
         13   -1    0    0    0    0 -0.00000000000E+00 -0.00000000000E+00 -0.10000000000E+04  0.10000000000E+04  0.00000000000E+00 0.  1.
    9000005    2    1    2  501    0 -0.21523290044E+02  0.27488805910E+02 -0.72818980612E+03  0.72902970678E+03  0.22434735321E+01 0.  0.
         13    1    3    3    0    0 -0.25596999048E+01  0.25843719263E+01 -0.87803103251E+02  0.87878415907E+02  0.00000000000E+00 0.  1.
          1    1    3    3  501    0 -0.18963590140E+02  0.24904433984E+02 -0.64038670287E+03  0.64115129088E+03  0.00000000000E+00 0.  1.
         -3    1    1    2    0  502  0.21523290044E+02 -0.27488805910E+02 -0.27026742641E+03  0.27251306069E+03  0.00000000000E+00 0. -1.
<mgrwt>
<rscale>  1 0.30000000E+03</rscale>
<asrwt>0</asrwt>
<pdfrwt beam="1">  1       21 0.56100754E-02 0.30000000E+03</pdfrwt>
<pdfrwt beam="2">0</pdfrwt>
<totfact> 0.23655930E+04</totfact>
</mgrwt>
</event>
<event>
 6    1  0.1270461E-001  0.3000000E+03  0.7818608E-02  0.1093470E+00
         21   -1    0    0  501  502  0.00000000000E+00  0.00000000000E+00  0.21664199555E+01  0.21664199555E+01  0.00000000000E+00 0. -1.
         13   -1    0    0    0    0 -0.00000000000E+00 -0.00000000000E+00 -0.10000000000E+04  0.10000000000E+04  0.00000000000E+00 0.  1.
    9000005    2    1    2  501    0 -0.21709093425E+02 -0.23109866662E+02 -0.86549932550E+03  0.86608664336E+03  0.34118437645E+01 0.  0.
         13    1    3    3    0    0 -0.52216576412E+01 -0.38208348020E+01 -0.19504896655E+03  0.19515625493E+03  0.00000000000E+00 0.  1.
          3    1    3    3  501    0 -0.16487435784E+02 -0.19289031860E+02 -0.67045035895E+03  0.67093038842E+03  0.00000000000E+00 0.  1.
         -1    1    1    2    0  502  0.21709093425E+02  0.23109866662E+02 -0.13233425454E+03  0.13607977660E+03  0.00000000000E+00 0. -1.
<mgrwt>
<rscale>  1 0.30000000E+03</rscale>
<asrwt>0</asrwt>
<pdfrwt beam="1">  1       21 0.78779074E-02 0.30000000E+03</pdfrwt>
<pdfrwt beam="2">0</pdfrwt>
<totfact> 0.13123481E+04</totfact>
</mgrwt>
</event>
<event>
 6    1  0.1270461E-001  0.3000000E+03  0.7818608E-02  0.1093470E+00
         21   -1    0    0  501  502  0.00000000000E+00  0.00000000000E+00  0.10199610877E+01  0.10199610877E+01  0.00000000000E+00 0. -1.
         13   -1    0    0    0    0 -0.00000000000E+00 -0.00000000000E+00 -0.10000000000E+04  0.10000000000E+04  0.00000000000E+00 0.  1.
    9000005    2    1    2  501    0 -0.29886022933E+02 -0.10723844417E+02 -0.46330407702E+03  0.46440379346E+03  0.34699271801E+01 0.  0.
         13    1    3    3    0    0 -0.45312796220E+01 -0.19709550202E+01 -0.91583247705E+02  0.91716456641E+02  0.00000000000E+00 0.  1.
          3    1    3    3  501    0 -0.25354743311E+02 -0.87528893969E+01 -0.37172082931E+03  0.37268733682E+03  0.00000000000E+00 0.  1.
         -3    1    1    2    0  502  0.29886022933E+02  0.10723844417E+02 -0.53567596189E+03  0.53661616762E+03  0.00000000000E+00 0. -1.
<mgrwt>
<rscale>  1 0.30000000E+03</rscale>
<asrwt>0</asrwt>
<pdfrwt beam="1">  1       21 0.37089572E-02 0.30000000E+03</pdfrwt>
<pdfrwt beam="2">0</pdfrwt>
<totfact> 0.47741282E+04</totfact>
</mgrwt>
</event>
<event>
 6    1  0.1270461E-001  0.3000000E+03  0.7818608E-02  0.1093470E+00
         21   -1    0    0  501  502  0.00000000000E+00  0.00000000000E+00  0.83507283406E+01  0.83507283406E+01  0.00000000000E+00 0. -1.
         13   -1    0    0    0    0 -0.00000000000E+00 -0.00000000000E+00 -0.10000000000E+04  0.10000000000E+04  0.00000000000E+00 0.  1.
    9000005    2    1    2  501    0  0.29215159309E+02 -0.45123144927E+02 -0.90346949134E+03  0.90507780160E+03  0.43682278516E+01 0.  0.
         13    1    3    3    0    0  0.19306437436E+02 -0.33363888756E+02 -0.63880350402E+03  0.63996547122E+03  0.00000000000E+00 0.  1.
          3    1    3    3  501    0  0.99087218728E+01 -0.11759256171E+02 -0.26466598732E+03  0.26511233038E+03  0.00000000000E+00 0.  1.
         -3    1    1    2    0  502 -0.29215159309E+02  0.45123144927E+02 -0.88179780318E+02  0.10327292675E+03  0.00000000000E+00 0. -1.
<mgrwt>
<rscale>  1 0.30000000E+03</rscale>
<asrwt>0</asrwt>
<pdfrwt beam="1">  1       21 0.30366349E-01 0.30000000E+03</pdfrwt>
<pdfrwt beam="2">0</pdfrwt>
<totfact> 0.10611744E+03</totfact>
</mgrwt>
</event>
<event>
 6    1  0.1270461E-001  0.3000000E+03  0.7818608E-02  0.1093470E+00
         21   -1    0    0  501  502  0.00000000000E+00  0.00000000000E+00  0.14141531501E+01  0.14141531501E+01  0.00000000000E+00 0. -1.
         13   -1    0    0    0    0 -0.00000000000E+00 -0.00000000000E+00 -0.10000000000E+04  0.10000000000E+04  0.00000000000E+00 0.  1.
    9000005    2    1    2  501    0  0.72486659868E+00 -0.34056723712E+02 -0.29047512264E+03  0.29248454903E+03  0.33209464108E+01 0.  0.
         13    1    3    3    0    0 -0.95398151821E+00 -0.99779340722E+01 -0.77236894498E+02  0.77884575629E+02  0.00000000000E+00 0.  1.
          3    1    3    3  501    0  0.16788481169E+01 -0.24078789640E+02 -0.21323822815E+03  0.21459997340E+03  0.00000000000E+00 0.  1.
         -3    1    1    2    0  502 -0.72486659868E+00  0.34056723712E+02 -0.70811072421E+03  0.70892960412E+03  0.00000000000E+00 0. -1.
<mgrwt>
<rscale>  1 0.30000000E+03</rscale>
<asrwt>0</asrwt>
<pdfrwt beam="1">  1       21 0.51423859E-02 0.30000000E+03</pdfrwt>
<pdfrwt beam="2">0</pdfrwt>
<totfact> 0.27457381E+04</totfact>
</mgrwt>
</event>
<event>
 6    1  0.1270461E-001  0.3000000E+03  0.7818608E-02  0.1093470E+00
         21   -1    0    0  501  502  0.00000000000E+00  0.00000000000E+00  0.14009762289E+01  0.14009762289E+01  0.00000000000E+00 0. -1.
         13   -1    0    0    0    0 -0.00000000000E+00 -0.00000000000E+00 -0.10000000000E+04  0.10000000000E+04  0.00000000000E+00 0.  1.
    9000005    2    1    2  501    0  0.14428203397E+02  0.33863072787E+02 -0.46566321904E+03  0.46719553567E+03  0.86344795482E+01 0.  0.
         13    1    3    3    0    0  0.12039736862E+02  0.17645802575E+02 -0.27574020517E+03  0.27656643028E+03  0.00000000000E+00 0.  1.
          1    1    3    3  501    0  0.23884665346E+01  0.16217270212E+02 -0.18992301387E+03  0.19062910539E+03  0.00000000000E+00 0.  1.
         -1    1    1    2    0  502 -0.14428203397E+02 -0.33863072787E+02 -0.53293580473E+03  0.53420544056E+03  0.00000000000E+00 0. -1.
<mgrwt>
<rscale>  1 0.30000000E+03</rscale>
<asrwt>0</asrwt>
<pdfrwt beam="1">  1       21 0.50944698E-02 0.30000000E+03</pdfrwt>
<pdfrwt beam="2">0</pdfrwt>
<totfact> 0.27899629E+04</totfact>
</mgrwt>
</event>
<event>
 6    1  0.1270461E-001  0.3000000E+03  0.7818608E-02  0.1093470E+00
         21   -1    0    0  501  502  0.00000000000E+00  0.00000000000E+00  0.77448009782E+01  0.77448009782E+01  0.00000000000E+00 0. -1.
         13   -1    0    0    0    0 -0.00000000000E+00 -0.00000000000E+00 -0.10000000000E+04  0.10000000000E+04  0.00000000000E+00 0.  1.
    9000005    2    1    2  501    0 -0.43840979133E+02 -0.11743252878E+02 -0.92773389450E+03  0.92885922450E+03  0.54170554488E+01 0.  0.
         13    1    3    3    0    0 -0.63606885789E+01 -0.25306247114E+01 -0.17960330672E+03  0.17973372027E+03  0.00000000000E+00 0.  1.
          3    1    3    3  501    0 -0.37480290554E+02 -0.92126281661E+01 -0.74813058779E+03  0.74912550422E+03  0.00000000000E+00 0.  1.
         -3    1    1    2    0  502  0.43840979133E+02  0.11743252878E+02 -0.64521304520E+02  0.78885576480E+02  0.00000000000E+00 0. -1.
<mgrwt>
<rscale>  1 0.30000000E+03</rscale>
<asrwt>0</asrwt>
<pdfrwt beam="1">  1       21 0.28162972E-01 0.30000000E+03</pdfrwt>
<pdfrwt beam="2">0</pdfrwt>
<totfact> 0.12331230E+03</totfact>
</mgrwt>
</event>
<event>
 6    1  0.1270461E-001  0.3000000E+03  0.7818608E-02  0.1093470E+00
         21   -1    0    0  501  502  0.00000000000E+00  0.00000000000E+00  0.45034080160E+01  0.45034080160E+01  0.00000000000E+00 0. -1.
         13   -1    0    0    0    0 -0.00000000000E+00 -0.00000000000E+00 -0.10000000000E+04  0.10000000000E+04  0.00000000000E+00 0.  1.
    9000005    2    1    2  501    0  0.56203891411E+02 -0.15370375849E+02 -0.74658269003E+03  0.74886057817E+03  0.33655055624E+01 0.  0.
         13    1    3    3    0    0  0.51750718187E+02 -0.14743282580E+02 -0.67945914947E+03  0.68158655871E+03  0.00000000000E+00 0.  1.
          3    1    3    3  501    0  0.44531732247E+01 -0.62709326851E+00 -0.67123540551E+02  0.67274019457E+02  0.00000000000E+00 0.  1.
         -1    1    1    2    0  502 -0.56203891411E+02  0.15370375849E+02 -0.24891390196E+03  0.25564282985E+03  0.00000000000E+00 0. -1.
<mgrwt>
<rscale>  1 0.30000000E+03</rscale>
<asrwt>0</asrwt>
<pdfrwt beam="1">  1       21 0.16376064E-01 0.30000000E+03</pdfrwt>
<pdfrwt beam="2">0</pdfrwt>
<totfact> 0.34977411E+03</totfact>
</mgrwt>
</event>
<event>
 6    1  0.1270461E-001  0.3000000E+03  0.7818608E-02  0.1093470E+00
         21   -1    0    0  501  502  0.00000000000E+00  0.00000000000E+00  0.18861774147E+01  0.18861774147E+01  0.00000000000E+00 0. -1.
         13   -1    0    0    0    0 -0.00000000000E+00 -0.00000000000E+00 -0.10000000000E+04  0.10000000000E+04  0.00000000000E+00 0.  1.
    9000005    2    1    2  501    0 -0.15576498552E+02  0.33810717958E+02 -0.75634170890E+03  0.75726494589E+03  0.34096478843E+01 0.  0.
         13    1    3    3    0    0  0.22814028998E-01  0.92999616379E+00 -0.13283540020E+02  0.13316074827E+02  0.00000000000E+00 0.  1.
          3    1    3    3  501    0 -0.15599312581E+02  0.32880721795E+02 -0.74305816888E+03  0.74394887106E+03  0.00000000000E+00 0.  1.
         -1    1    1    2    0  502  0.15576498552E+02 -0.33810717958E+02 -0.24177211369E+03  0.24462123152E+03  0.00000000000E+00 0. -1.
<mgrwt>
<rscale>  1 0.30000000E+03</rscale>
<asrwt>0</asrwt>
<pdfrwt beam="1">  1       21 0.68588414E-02 0.30000000E+03</pdfrwt>
<pdfrwt beam="2">0</pdfrwt>
<totfact> 0.16717124E+04</totfact>
</mgrwt>
</event>
<event>
 6    1  0.1270461E-001  0.3000000E+03  0.7818608E-02  0.1093470E+00
         21   -1    0    0  501  502  0.00000000000E+00  0.00000000000E+00  0.21375713232E+01  0.21375713232E+01  0.00000000000E+00 0. -1.
         13   -1    0    0    0    0 -0.00000000000E+00 -0.00000000000E+00 -0.10000000000E+04  0.10000000000E+04  0.00000000000E+00 0.  1.
    9000005    2    1    2  501    0 -0.33801784434E+02  0.22389198767E-01 -0.84002708334E+03  0.84072332979E+03  0.52588379076E+01 0.  0.
         13    1    3    3    0    0 -0.32290486665E+01 -0.12472463786E+01 -0.64492883718E+02  0.64585713816E+02  0.00000000000E+00 0.  1.
          3    1    3    3  501    0 -0.30572735767E+02  0.12696355774E+01 -0.77553419962E+03  0.77613761597E+03  0.00000000000E+00 0.  1.
         -1    1    1    2    0  502  0.33801784434E+02 -0.22389198767E-01 -0.15783534534E+03  0.16141424154E+03  0.00000000000E+00 0. -1.
<mgrwt>
<rscale>  1 0.30000000E+03</rscale>
<asrwt>0</asrwt>
<pdfrwt beam="1">  1       21 0.77730030E-02 0.30000000E+03</pdfrwt>
<pdfrwt beam="2">0</pdfrwt>
<totfact> 0.13435783E+04</totfact>
</mgrwt>
</event>
<event>
 6    1  0.1270461E-001  0.3000000E+03  0.7818608E-02  0.1093470E+00
         21   -1    0    0  501  502  0.00000000000E+00  0.00000000000E+00  0.14332443697E+01  0.14332443697E+01  0.00000000000E+00 0. -1.
         13   -1    0    0    0    0 -0.00000000000E+00 -0.00000000000E+00 -0.10000000000E+04  0.10000000000E+04  0.00000000000E+00 0.  1.
    9000005    2    1    2  501    0 -0.14460826153E+02 -0.30755915807E+02 -0.71877483009E+03  0.71958476832E+03  0.31528695843E+01 0.  0.
         13    1    3    3    0    0 -0.26858948072E+01 -0.73509736592E+01 -0.14269533465E+03  0.14290979454E+03  0.00000000000E+00 0.  1.
          1    1    3    3  501    0 -0.11774931346E+02 -0.23404942148E+02 -0.57607949544E+03  0.57667497378E+03  0.00000000000E+00 0.  1.
         -1    1    1    2    0  502  0.14460826153E+02  0.30755915807E+02 -0.27979192554E+03  0.28184847604E+03  0.00000000000E+00 0. -1.
<mgrwt>
<rscale>  1 0.30000000E+03</rscale>
<asrwt>0</asrwt>
<pdfrwt beam="1">  1       21 0.52118087E-02 0.30000000E+03</pdfrwt>
<pdfrwt beam="2">0</pdfrwt>
<totfact> 0.26835684E+04</totfact>
</mgrwt>
</event>
<event>
 6    1  0.1270461E-001  0.3000000E+03  0.7818608E-02  0.1093470E+00
         21   -1    0    0  501  502  0.00000000000E+00  0.00000000000E+00  0.19503082775E+01  0.19503082775E+01  0.00000000000E+00 0. -1.
         13   -1    0    0    0    0 -0.00000000000E+00 -0.00000000000E+00 -0.10000000000E+04  0.10000000000E+04  0.00000000000E+00 0.  1.
    9000005    2    1    2  501    0  0.26388619770E+02 -0.18421378571E+02 -0.84176910882E+03  0.84239051686E+03  0.32930086910E+01 0.  0.
         13    1    3    3    0    0  0.11069266377E+01 -0.75060243055E+00 -0.56545016927E+02  0.56560831234E+02  0.00000000000E+00 0.  1.
          3    1    3    3  501    0  0.25281693133E+02 -0.17670776141E+02 -0.78522409189E+03  0.78582968563E+03  0.00000000000E+00 0.  1.
         -3    1    1    2    0  502 -0.26388619770E+02  0.18421378571E+02 -0.15628058291E+03  0.15955979141E+03  0.00000000000E+00 0. -1.
<mgrwt>
<rscale>  1 0.30000000E+03</rscale>
<asrwt>0</asrwt>
<pdfrwt beam="1">  1       21 0.70920451E-02 0.30000000E+03</pdfrwt>
<pdfrwt beam="2">0</pdfrwt>
<totfact> 0.15772397E+04</totfact>
</mgrwt>
</event>
<event>
 6    1  0.1270461E-001  0.3000000E+03  0.7818608E-02  0.1093470E+00
         21   -1    0    0  501  502  0.00000000000E+00  0.00000000000E+00  0.18242556166E+02  0.18242556166E+02  0.00000000000E+00 0. -1.
         13   -1    0    0    0    0 -0.00000000000E+00 -0.00000000000E+00 -0.10000000000E+04  0.10000000000E+04  0.00000000000E+00 0.  1.
    9000005    2    1    2  501    0  0.46281855379E+01  0.96824130637E+02 -0.84537825976E+03  0.85092365638E+03  0.32147389629E+01 0.  0.
         13    1    3    3    0    0  0.22614115071E+01  0.38953983280E+02 -0.32698510952E+03  0.32930500853E+03  0.00000000000E+00 0.  1.
          1    1    3    3  501    0  0.23667740307E+01  0.57870147357E+02 -0.51839315024E+03  0.52161864786E+03  0.00000000000E+00 0.  1.
         -1    1    1    2    0  502 -0.46281855379E+01 -0.96824130637E+02 -0.13637918408E+03  0.16731889978E+03  0.00000000000E+00 0. -1.
<mgrwt>
<rscale>  1 0.30000000E+03</rscale>
<asrwt>0</asrwt>
<pdfrwt beam="1">  1       21 0.66336708E-01 0.30000000E+03</pdfrwt>
<pdfrwt beam="2">0</pdfrwt>
<totfact> 0.19985605E+02</totfact>
</mgrwt>
</event>
<event>
 6    1  0.1270461E-001  0.3000000E+03  0.7818608E-02  0.1093470E+00
         21   -1    0    0  501  502  0.00000000000E+00  0.00000000000E+00  0.24379357035E+01  0.24379357035E+01  0.00000000000E+00 0. -1.
         13   -1    0    0    0    0 -0.00000000000E+00 -0.00000000000E+00 -0.10000000000E+04  0.10000000000E+04  0.00000000000E+00 0.  1.
    9000005    2    1    2  501    0 -0.43130716759E+02 -0.16943279880E+02 -0.67054360856E+03  0.67215259868E+03  0.36126816663E+01 0.  0.
         13    1    3    3    0    0 -0.27906036792E+02 -0.12708261487E+02 -0.43468422799E+03  0.43576441440E+03  0.00000000000E+00 0.  1.
          1    1    3    3  501    0 -0.15224679967E+02 -0.42350183932E+01 -0.23585938058E+03  0.23638818428E+03  0.00000000000E+00 0.  1.
         -1    1    1    2    0  502  0.43130716759E+02  0.16943279880E+02 -0.32701845573E+03  0.33028533702E+03  0.00000000000E+00 0. -1.
<mgrwt>
<rscale>  1 0.30000000E+03</rscale>
<asrwt>0</asrwt>
<pdfrwt beam="1">  1       21 0.88652394E-02 0.30000000E+03</pdfrwt>
<pdfrwt beam="2">0</pdfrwt>
<totfact> 0.10659027E+04</totfact>
</mgrwt>
</event>
<event>
 6    1  0.1270461E-001  0.3000000E+03  0.7818608E-02  0.1093470E+00
         21   -1    0    0  501  502  0.00000000000E+00  0.00000000000E+00  0.32935659974E+01  0.32935659974E+01  0.00000000000E+00 0. -1.
         13   -1    0    0    0    0 -0.00000000000E+00 -0.00000000000E+00 -0.10000000000E+04  0.10000000000E+04  0.00000000000E+00 0.  1.
    9000005    2    1    2  501    0 -0.36189996669E+02  0.19063751769E+02 -0.85006731251E+03  0.85105633520E+03  0.30508009274E+01 0.  0.
         13    1    3    3    0    0 -0.25654194428E+02  0.14793740561E+02 -0.62977074407E+03  0.63046663872E+03  0.00000000000E+00 0.  1.
          3    1    3    3  501    0 -0.10535802241E+02  0.42700112084E+01 -0.22029656844E+03  0.22058969647E+03  0.00000000000E+00 0.  1.
         -3    1    1    2    0  502  0.36189996669E+02 -0.19063751769E+02 -0.14663912149E+03  0.15223723080E+03  0.00000000000E+00 0. -1.
<mgrwt>
<rscale>  1 0.30000000E+03</rscale>
<asrwt>0</asrwt>
<pdfrwt beam="1">  1       21 0.11976629E-01 0.30000000E+03</pdfrwt>
<pdfrwt beam="2">0</pdfrwt>
<totfact> 0.62190827E+03</totfact>
</mgrwt>
</event>
<event>
 6    1  0.1270461E-001  0.3000000E+03  0.7818608E-02  0.1093470E+00
         21   -1    0    0  501  502  0.00000000000E+00  0.00000000000E+00  0.10770057503E+01  0.10770057503E+01  0.00000000000E+00 0. -1.
         13   -1    0    0    0    0 -0.00000000000E+00 -0.00000000000E+00 -0.10000000000E+04  0.10000000000E+04  0.00000000000E+00 0.  1.
    9000005    2    1    2  501    0  0.18304871394E+02 -0.26505794603E+02 -0.59117840341E+03  0.59206199769E+03  0.28069519304E+01 0.  0.
         13    1    3    3    0    0  0.78989166872E+01 -0.10569279187E+02 -0.21878850243E+03  0.21918601995E+03  0.00000000000E+00 0.  1.
          3    1    3    3  501    0  0.10405954707E+02 -0.15936515416E+02 -0.37238990098E+03  0.37287597773E+03  0.00000000000E+00 0.  1.
         -3    1    1    2    0  502 -0.18304871394E+02  0.26505794603E+02 -0.40774459084E+03  0.40901500806E+03  0.00000000000E+00 0. -1.
<mgrwt>
<rscale>  1 0.30000000E+03</rscale>
<asrwt>0</asrwt>
<pdfrwt beam="1">  1       21 0.39163928E-02 0.30000000E+03</pdfrwt>
<pdfrwt beam="2">0</pdfrwt>
<totfact> 0.43569167E+04</totfact>
</mgrwt>
</event>
<event>
 6    1  0.1270461E-001  0.3000000E+03  0.7818608E-02  0.1093470E+00
         21   -1    0    0  501  502  0.00000000000E+00  0.00000000000E+00  0.14185704418E+01  0.14185704418E+01  0.00000000000E+00 0. -1.
         13   -1    0    0    0    0 -0.00000000000E+00 -0.00000000000E+00 -0.10000000000E+04  0.10000000000E+04  0.00000000000E+00 0.  1.
    9000005    2    1    2  501    0  0.37523659844E+02  0.24199257810E+01 -0.49539876548E+03  0.49683292408E+03  0.30226674820E+01 0.  0.
         13    1    3    3    0    0  0.29082080168E+02  0.29314731048E+01 -0.39307092029E+03  0.39415619912E+03  0.00000000000E+00 0.  1.
          1    1    3    3  501    0  0.84415796758E+01 -0.51154732386E+00 -0.10232784519E+03  0.10267672496E+03  0.00000000000E+00 0.  1.
         -1    1    1    2    0  502 -0.37523659844E+02 -0.24199257810E+01 -0.50318266407E+03  0.50458564636E+03  0.00000000000E+00 0. -1.
<mgrwt>
<rscale>  1 0.30000000E+03</rscale>
<asrwt>0</asrwt>
<pdfrwt beam="1">  1       21 0.51584488E-02 0.30000000E+03</pdfrwt>
<pdfrwt beam="2">0</pdfrwt>
<totfact> 0.27311561E+04</totfact>
</mgrwt>
</event>
<event>
 6    1  0.1270461E-001  0.3000000E+03  0.7818608E-02  0.1093470E+00
         21   -1    0    0  501  502  0.00000000000E+00  0.00000000000E+00  0.16221216648E+01  0.16221216648E+01  0.00000000000E+00 0. -1.
         13   -1    0    0    0    0 -0.00000000000E+00 -0.00000000000E+00 -0.10000000000E+04  0.10000000000E+04  0.00000000000E+00 0.  1.
    9000005    2    1    2  501    0  0.34864322672E+02  0.15818076883E+02 -0.65247902727E+03  0.65361099006E+03  0.35654943664E+01 0.  0.
         13    1    3    3    0    0  0.25828375590E+02  0.12409571088E+02 -0.51091728284E+03  0.51172020905E+03  0.00000000000E+00 0.  1.
          1    1    3    3  501    0  0.90359470819E+01  0.34085057953E+01 -0.14156174443E+03  0.14189078101E+03  0.00000000000E+00 0.  1.
         -3    1    1    2    0  502 -0.34864322672E+02 -0.15818076883E+02 -0.34589885107E+03  0.34801113161E+03  0.00000000000E+00 0. -1.
<mgrwt>
<rscale>  1 0.30000000E+03</rscale>
<asrwt>0</asrwt>
<pdfrwt beam="1">  1       21 0.58986367E-02 0.30000000E+03</pdfrwt>
<pdfrwt beam="2">0</pdfrwt>
<totfact> 0.21699831E+04</totfact>
</mgrwt>
</event>
<event>
 6    1  0.1270461E-001  0.3000000E+03  0.7818608E-02  0.1093470E+00
         21   -1    0    0  501  502  0.00000000000E+00  0.00000000000E+00  0.18265941730E+01  0.18265941730E+01  0.00000000000E+00 0. -1.
         13   -1    0    0    0    0 -0.00000000000E+00 -0.00000000000E+00 -0.10000000000E+04  0.10000000000E+04  0.00000000000E+00 0.  1.
    9000005    2    1    2  501    0  0.51926259418E+01  0.39895413040E+02 -0.66651167932E+03  0.66773363080E+03  0.34315718555E+01 0.  0.
         13    1    3    3    0    0  0.53005434138E+01  0.39314364599E+02 -0.64846874601E+03  0.64968102140E+03  0.00000000000E+00 0.  1.
          1    1    3    3  501    0 -0.10791747202E+00  0.58104844059E+00 -0.18042933313E+02  0.18052609396E+02  0.00000000000E+00 0.  1.
         -1    1    1    2    0  502 -0.51926259418E+01 -0.39895413040E+02 -0.33166172651E+03  0.33409296337E+03  0.00000000000E+00 0. -1.
<mgrwt>
<rscale>  1 0.30000000E+03</rscale>
<asrwt>0</asrwt>
<pdfrwt beam="1">  1       21 0.66421746E-02 0.30000000E+03</pdfrwt>
<pdfrwt beam="2">0</pdfrwt>
<totfact> 0.17674887E+04</totfact>
</mgrwt>
</event>
<event>
 6    1  0.1270461E-001  0.3000000E+03  0.7818608E-02  0.1093470E+00
         21   -1    0    0  501  502  0.00000000000E+00  0.00000000000E+00  0.21442694570E+01  0.21442694570E+01  0.00000000000E+00 0. -1.
         13   -1    0    0    0    0 -0.00000000000E+00 -0.00000000000E+00 -0.10000000000E+04  0.10000000000E+04  0.00000000000E+00 0.  1.
    9000005    2    1    2  501    0 -0.41525186767E+02  0.18818956586E+02 -0.41444631015E+03  0.41695622612E+03  0.28733671802E+01 0.  0.
         13    1    3    3    0    0 -0.27590185772E+02  0.11535326830E+02 -0.28099332662E+03  0.28258013328E+03  0.00000000000E+00 0.  1.
          3    1    3    3  501    0 -0.13935000996E+02  0.72836297564E+01 -0.13345298353E+03  0.13437609284E+03  0.00000000000E+00 0.  1.
         -3    1    1    2    0  502  0.41525186767E+02 -0.18818956586E+02 -0.58340942039E+03  0.58518804334E+03  0.00000000000E+00 0. -1.
<mgrwt>
<rscale>  1 0.30000000E+03</rscale>
<asrwt>0</asrwt>
<pdfrwt beam="1">  1       21 0.77973599E-02 0.30000000E+03</pdfrwt>
<pdfrwt beam="2">0</pdfrwt>
<totfact> 0.13362259E+04</totfact>
</mgrwt>
</event>
<event>
 6    1  0.1270461E-001  0.3000000E+03  0.7818608E-02  0.1093470E+00
         21   -1    0    0  501  502  0.00000000000E+00  0.00000000000E+00  0.16479242136E+01  0.16479242136E+01  0.00000000000E+00 0. -1.
         13   -1    0    0    0    0 -0.00000000000E+00 -0.00000000000E+00 -0.10000000000E+04  0.10000000000E+04  0.00000000000E+00 0.  1.
    9000005    2    1    2  501    0  0.19652381815E+02 -0.26116829928E+02 -0.79493405174E+03  0.79562074780E+03  0.48910927185E+01 0.  0.
         13    1    3    3    0    0  0.10669865107E+01 -0.29383164220E+01 -0.53014327036E+02  0.53106412369E+02  0.00000000000E+00 0.  1.
          1    1    3    3  501    0  0.18585395304E+02 -0.23178513506E+02 -0.74191972471E+03  0.74251433543E+03  0.00000000000E+00 0.  1.
         -1    1    1    2    0  502 -0.19652381815E+02  0.26116829928E+02 -0.20341802404E+03  0.20602717642E+03  0.00000000000E+00 0. -1.
<mgrwt>
<rscale>  1 0.30000000E+03</rscale>
<asrwt>0</asrwt>
<pdfrwt beam="1">  1       21 0.59924643E-02 0.30000000E+03</pdfrwt>
<pdfrwt beam="2">0</pdfrwt>
<totfact> 0.21117385E+04</totfact>
</mgrwt>
</event>
<event>
 6    1  0.1270461E-001  0.3000000E+03  0.7818608E-02  0.1093470E+00
         21   -1    0    0  501  502  0.00000000000E+00  0.00000000000E+00  0.23528548621E+01  0.23528548621E+01  0.00000000000E+00 0. -1.
         13   -1    0    0    0    0 -0.00000000000E+00 -0.00000000000E+00 -0.10000000000E+04  0.10000000000E+04  0.00000000000E+00 0.  1.
    9000005    2    1    2  501    0  0.27536512617E+02  0.16906774602E+02 -0.87242259527E+03  0.87302657584E+03  0.31810126168E+01 0.  0.
         13    1    3    3    0    0  0.13428747487E+02  0.81783561659E+01 -0.38190308850E+03  0.38222661574E+03  0.00000000000E+00 0.  1.
          1    1    3    3  501    0  0.14107765130E+02  0.87284184365E+01 -0.49051950676E+03  0.49079996010E+03  0.00000000000E+00 0.  1.
         -3    1    1    2    0  502 -0.27536512617E+02 -0.16906774602E+02 -0.12522454987E+03  0.12932627902E+03  0.00000000000E+00 0. -1.
<mgrwt>
<rscale>  1 0.30000000E+03</rscale>
<asrwt>0</asrwt>
<pdfrwt beam="1">  1       21 0.85558539E-02 0.30000000E+03</pdfrwt>
<pdfrwt beam="2">0</pdfrwt>
<totfact> 0.11349392E+04</totfact>
</mgrwt>
</event>
<event>
 6    1  0.1270461E-001  0.3000000E+03  0.7818608E-02  0.1093470E+00
         21   -1    0    0  501  502  0.00000000000E+00  0.00000000000E+00  0.16318780940E+01  0.16318780940E+01  0.00000000000E+00 0. -1.
         13   -1    0    0    0    0 -0.00000000000E+00 -0.00000000000E+00 -0.10000000000E+04  0.10000000000E+04  0.00000000000E+00 0.  1.
    9000005    2    1    2  501    0 -0.26554615491E+01  0.39615961171E+02 -0.45464750114E+03  0.45646347356E+03  0.88360934015E+01 0.  0.
         13    1    3    3    0    0 -0.47150158320E+01  0.32694405345E+02 -0.39542101547E+03  0.39679835557E+03  0.00000000000E+00 0.  1.
          1    1    3    3  501    0  0.20595542829E+01  0.69215558259E+01 -0.59226485677E+02  0.59665117988E+02  0.00000000000E+00 0.  1.
         -1    1    1    2    0  502  0.26554615491E+01 -0.39615961171E+02 -0.54372062076E+03  0.54516840453E+03  0.00000000000E+00 0. -1.
<mgrwt>
<rscale>  1 0.30000000E+03</rscale>
<asrwt>0</asrwt>
<pdfrwt beam="1">  1       21 0.59341147E-02 0.30000000E+03</pdfrwt>
<pdfrwt beam="2">0</pdfrwt>
<totfact> 0.21476687E+04</totfact>
</mgrwt>
</event>
<event>
 6    1  0.1270461E-001  0.3000000E+03  0.7818608E-02  0.1093470E+00
         21   -1    0    0  501  502  0.00000000000E+00  0.00000000000E+00  0.29000895668E+01  0.29000895668E+01  0.00000000000E+00 0. -1.
         13   -1    0    0    0    0 -0.00000000000E+00 -0.00000000000E+00 -0.10000000000E+04  0.10000000000E+04  0.00000000000E+00 0.  1.
    9000005    2    1    2  501    0 -0.19766433125E+02 -0.44757455145E+02 -0.70736051145E+03  0.70905853194E+03  0.33416879934E+01 0.  0.
         13    1    3    3    0    0 -0.43347293637E+01 -0.79285466850E+01 -0.14638052763E+03  0.14665916473E+03  0.00000000000E+00 0.  1.
          1    1    3    3  501    0 -0.15431703762E+02 -0.36828908460E+02 -0.56097998383E+03  0.56239936721E+03  0.00000000000E+00 0.  1.
         -1    1    1    2    0  502  0.19766433125E+02  0.44757455145E+02 -0.28973939898E+03  0.29384155763E+03  0.00000000000E+00 0. -1.
<mgrwt>
<rscale>  1 0.30000000E+03</rscale>
<asrwt>0</asrwt>
<pdfrwt beam="1">  1       21 0.10545802E-01 0.30000000E+03</pdfrwt>
<pdfrwt beam="2">0</pdfrwt>
<totfact> 0.78225854E+03</totfact>
</mgrwt>
</event>
<event>
 6    1  0.1270461E-001  0.3000000E+03  0.7818608E-02  0.1093470E+00
         21   -1    0    0  501  502  0.00000000000E+00  0.00000000000E+00  0.22034367674E+01  0.22034367674E+01  0.00000000000E+00 0. -1.
         13   -1    0    0    0    0 -0.00000000000E+00 -0.00000000000E+00 -0.10000000000E+04  0.10000000000E+04  0.00000000000E+00 0.  1.
    9000005    2    1    2  501    0  0.35369092611E+02  0.55179807468E+01 -0.82263758814E+03  0.82342399897E+03  0.36138393855E+01 0.  0.
         13    1    3    3    0    0  0.25623904855E+02  0.51233035074E+01 -0.62463431726E+03  0.62518066432E+03  0.00000000000E+00 0.  1.
          1    1    3    3  501    0  0.97451877561E+01  0.39467723935E+00 -0.19800327088E+03  0.19824333465E+03  0.00000000000E+00 0.  1.
         -3    1    1    2    0  502 -0.35369092611E+02 -0.55179807468E+01 -0.17515897509E+03  0.17877943780E+03  0.00000000000E+00 0. -1.
<mgrwt>
<rscale>  1 0.30000000E+03</rscale>
<asrwt>0</asrwt>
<pdfrwt beam="1">  1       21 0.80125142E-02 0.30000000E+03</pdfrwt>
<pdfrwt beam="2">0</pdfrwt>
<totfact> 0.12738845E+04</totfact>
</mgrwt>
</event>
<event>
 6    1  0.1270461E-001  0.3000000E+03  0.7818608E-02  0.1093470E+00
         21   -1    0    0  501  502  0.00000000000E+00  0.00000000000E+00  0.27517136201E+01  0.27517136201E+01  0.00000000000E+00 0. -1.
         13   -1    0    0    0    0 -0.00000000000E+00 -0.00000000000E+00 -0.10000000000E+04  0.10000000000E+04  0.00000000000E+00 0.  1.
    9000005    2    1    2  501    0  0.38640077317E+02  0.26564520165E+02 -0.72272711704E+03  0.72425467284E+03  0.34082431368E+01 0.  0.
         13    1    3    3    0    0  0.16449311413E+02  0.10590205602E+02 -0.32594104142E+03  0.32652763250E+03  0.00000000000E+00 0.  1.
          1    1    3    3  501    0  0.22190765904E+02  0.15974314563E+02 -0.39678607562E+03  0.39772704034E+03  0.00000000000E+00 0.  1.
         -1    1    1    2    0  502 -0.38640077317E+02 -0.26564520165E+02 -0.27452116934E+03  0.27849704078E+03  0.00000000000E+00 0. -1.
<mgrwt>
<rscale>  1 0.30000000E+03</rscale>
<asrwt>0</asrwt>
<pdfrwt beam="1">  1       21 0.10006252E-01 0.30000000E+03</pdfrwt>
<pdfrwt beam="2">0</pdfrwt>
<totfact> 0.85935943E+03</totfact>
</mgrwt>
</event>
<event>
 6    1  0.1270461E-001  0.3000000E+03  0.7818608E-02  0.1093470E+00
         21   -1    0    0  501  502  0.00000000000E+00  0.00000000000E+00  0.14384603836E+01  0.14384603836E+01  0.00000000000E+00 0. -1.
         13   -1    0    0    0    0 -0.00000000000E+00 -0.00000000000E+00 -0.10000000000E+04  0.10000000000E+04  0.00000000000E+00 0.  1.
    9000005    2    1    2  501    0  0.30258001532E+02 -0.22379780676E+02 -0.53966816542E+03  0.54100439331E+03  0.52558133465E+01 0.  0.
         13    1    3    3    0    0  0.24731726064E+02 -0.15988098977E+02 -0.43500476924E+03  0.43600048950E+03  0.00000000000E+00 0.  1.
          1    1    3    3  501    0  0.55262754675E+01 -0.63916816995E+01 -0.10466339618E+03  0.10500390381E+03  0.00000000000E+00 0.  1.
         -1    1    1    2    0  502 -0.30258001532E+02  0.22379780676E+02 -0.45889337419E+03  0.46043406707E+03  0.00000000000E+00 0. -1.
<mgrwt>
<rscale>  1 0.30000000E+03</rscale>
<asrwt>0</asrwt>
<pdfrwt beam="1">  1       21 0.52307761E-02 0.30000000E+03</pdfrwt>
<pdfrwt beam="2">0</pdfrwt>
<totfact> 0.26669622E+04</totfact>
</mgrwt>
</event>
<event>
 6    1  0.1270461E-001  0.3000000E+03  0.7818608E-02  0.1093470E+00
         21   -1    0    0  501  502  0.00000000000E+00  0.00000000000E+00  0.21631402702E+01  0.21631402702E+01  0.00000000000E+00 0. -1.
         13   -1    0    0    0    0 -0.00000000000E+00 -0.00000000000E+00 -0.10000000000E+04  0.10000000000E+04  0.00000000000E+00 0.  1.
    9000005    2    1    2  501    0  0.24581212856E+02  0.28508685842E+02 -0.79274057749E+03  0.79364104029E+03  0.33906386673E+01 0.  0.
         13    1    3    3    0    0  0.17957145196E+01  0.29590739172E+01 -0.57756174847E+02  0.57859799879E+02  0.00000000000E+00 0.  1.
          3    1    3    3  501    0  0.22785498337E+02  0.25549611925E+02 -0.73498440264E+03  0.73578124041E+03  0.00000000000E+00 0.  1.
         -3    1    1    2    0  502 -0.24581212856E+02 -0.28508685842E+02 -0.20509628224E+03  0.20852209998E+03  0.00000000000E+00 0. -1.
<mgrwt>
<rscale>  1 0.30000000E+03</rscale>
<asrwt>0</asrwt>
<pdfrwt beam="1">  1       21 0.78659812E-02 0.30000000E+03</pdfrwt>
<pdfrwt beam="2">0</pdfrwt>
<totfact> 0.13158419E+04</totfact>
</mgrwt>
</event>
<event>
 6    1  0.1270461E-001  0.3000000E+03  0.7818608E-02  0.1093470E+00
         21   -1    0    0  501  502  0.00000000000E+00  0.00000000000E+00  0.10512550798E+01  0.10512550798E+01  0.00000000000E+00 0. -1.
         13   -1    0    0    0    0 -0.00000000000E+00 -0.00000000000E+00 -0.10000000000E+04  0.10000000000E+04  0.00000000000E+00 0.  1.
    9000005    2    1    2  501    0  0.28874032944E+02 -0.14453026730E+02 -0.47310779821E+03  0.47421987694E+03  0.33019984307E+01 0.  0.
         13    1    3    3    0    0  0.15358126385E+02 -0.69827597024E+01 -0.26918520024E+03  0.26971337195E+03  0.00000000000E+00 0.  1.
          3    1    3    3  501    0  0.13515906559E+02 -0.74702670279E+01 -0.20392259797E+03  0.20450650499E+03  0.00000000000E+00 0.  1.
         -3    1    1    2    0  502 -0.28874032944E+02  0.14453026730E+02 -0.52584094671E+03  0.52683137814E+03  0.00000000000E+00 0. -1.
<mgrwt>
<rscale>  1 0.30000000E+03</rscale>
<asrwt>0</asrwt>
<pdfrwt beam="1">  1       21 0.38227538E-02 0.30000000E+03</pdfrwt>
<pdfrwt beam="2">0</pdfrwt>
<totfact> 0.45378569E+04</totfact>
</mgrwt>
</event>
<event>
 6    1  0.1270461E-001  0.3000000E+03  0.7818608E-02  0.1093470E+00
         21   -1    0    0  501  502  0.00000000000E+00  0.00000000000E+00  0.64644585296E+01  0.64644585296E+01  0.00000000000E+00 0. -1.
         13   -1    0    0    0    0 -0.00000000000E+00 -0.00000000000E+00 -0.10000000000E+04  0.10000000000E+04  0.00000000000E+00 0.  1.
    9000005    2    1    2  501    0  0.22357556294E+02 -0.48647366344E+02 -0.87212476240E+03  0.87377307279E+03  0.33697123450E+01 0.  0.
         13    1    3    3    0    0  0.38067179922E+01 -0.10308679626E+02 -0.16212782287E+03  0.16249981824E+03  0.00000000000E+00 0.  1.
          1    1    3    3  501    0  0.18550838302E+02 -0.38338686718E+02 -0.70999693953E+03  0.71127325455E+03  0.00000000000E+00 0.  1.
         -1    1    1    2    0  502 -0.22357556294E+02  0.48647366344E+02 -0.12141077907E+03  0.13269138574E+03  0.00000000000E+00 0. -1.
<mgrwt>
<rscale>  1 0.30000000E+03</rscale>
<asrwt>0</asrwt>
<pdfrwt beam="1">  1       21 0.23507171E-01 0.30000000E+03</pdfrwt>
<pdfrwt beam="2">0</pdfrwt>
<totfact> 0.17583776E+03</totfact>
</mgrwt>
</event>
<event>
 6    1  0.1270461E-001  0.3000000E+03  0.7818608E-02  0.1093470E+00
         21   -1    0    0  501  502  0.00000000000E+00  0.00000000000E+00  0.33057596576E+01  0.33057596576E+01  0.00000000000E+00 0. -1.
         13   -1    0    0    0    0 -0.00000000000E+00 -0.00000000000E+00 -0.10000000000E+04  0.10000000000E+04  0.00000000000E+00 0.  1.
    9000005    2    1    2  501    0 -0.50512598778E+02 -0.37762406472E+01 -0.26398386817E+03  0.26884658985E+03  0.50223092376E+01 0.  0.
         13    1    3    3    0    0 -0.47875690185E+02 -0.47006014560E+01 -0.24896896711E+03  0.25357390234E+03  0.00000000000E+00 0.  1.
          3    1    3    3  501    0 -0.26369085931E+01  0.92436080882E+00 -0.15014901060E+02  0.15272687507E+02  0.00000000000E+00 0.  1.
         -3    1    1    2    0  502  0.50512598778E+02  0.37762406472E+01 -0.73271037217E+03  0.73445916981E+03  0.00000000000E+00 0. -1.
<mgrwt>
<rscale>  1 0.30000000E+03</rscale>
<asrwt>0</asrwt>
<pdfrwt beam="1">  1       21 0.12020970E-01 0.30000000E+03</pdfrwt>
<pdfrwt beam="2">0</pdfrwt>
<totfact> 0.61775119E+03</totfact>
</mgrwt>
</event>
<event>
 6    1  0.1270461E-001  0.3000000E+03  0.7818608E-02  0.1093470E+00
         21   -1    0    0  501  502  0.00000000000E+00  0.00000000000E+00  0.12001990193E+01  0.12001990193E+01  0.00000000000E+00 0. -1.
         13   -1    0    0    0    0 -0.00000000000E+00 -0.00000000000E+00 -0.10000000000E+04  0.10000000000E+04  0.00000000000E+00 0.  1.
    9000005    2    1    2  501    0 -0.24642798347E+02  0.23236507335E+02 -0.40406957122E+03  0.40550627680E+03  0.39899061412E+01 0.  0.
         13    1    3    3    0    0 -0.23707812378E+02  0.22994880261E+02 -0.38577194502E+03  0.38718318462E+03  0.00000000000E+00 0.  1.
          1    1    3    3  501    0 -0.93498596855E+00  0.24162707343E+00 -0.18297626203E+02  0.18323092180E+02  0.00000000000E+00 0.  1.
         -3    1    1    2    0  502  0.24642798347E+02 -0.23236507335E+02 -0.59473022976E+03  0.59569392222E+03  0.00000000000E+00 0. -1.
<mgrwt>
<rscale>  1 0.30000000E+03</rscale>
<asrwt>0</asrwt>
<pdfrwt beam="1">  1       21 0.43643693E-02 0.30000000E+03</pdfrwt>
<pdfrwt beam="2">0</pdfrwt>
<totfact> 0.36292705E+04</totfact>
</mgrwt>
</event>
<event>
 6    1  0.1270461E-001  0.3000000E+03  0.7818608E-02  0.1093470E+00
         21   -1    0    0  501  502  0.00000000000E+00  0.00000000000E+00  0.33999106563E+01  0.33999106563E+01  0.00000000000E+00 0. -1.
         13   -1    0    0    0    0 -0.00000000000E+00 -0.00000000000E+00 -0.10000000000E+04  0.10000000000E+04  0.00000000000E+00 0.  1.
    9000005    2    1    2  501    0  0.25786666180E+02  0.29634864051E+02 -0.86890142381E+03  0.86979554509E+03  0.33806263543E+01 0.  0.
         13    1    3    3    0    0  0.11559332047E+02  0.15115974516E+02 -0.44634964285E+03  0.44675509456E+03  0.00000000000E+00 0.  1.
          1    1    3    3  501    0  0.14227334133E+02  0.14518889535E+02 -0.42255178096E+03  0.42304045052E+03  0.00000000000E+00 0.  1.
         -1    1    1    2    0  502 -0.25786666180E+02 -0.29634864051E+02 -0.12769866553E+03  0.13360436557E+03  0.00000000000E+00 0. -1.
<mgrwt>
<rscale>  1 0.30000000E+03</rscale>
<asrwt>0</asrwt>
<pdfrwt beam="1">  1       21 0.12363338E-01 0.30000000E+03</pdfrwt>
<pdfrwt beam="2">0</pdfrwt>
<totfact> 0.58700207E+03</totfact>
</mgrwt>
</event>
<event>
 6    1  0.1270461E-001  0.3000000E+03  0.7818608E-02  0.1093470E+00
         21   -1    0    0  501  502  0.00000000000E+00  0.00000000000E+00  0.20230753308E+01  0.20230753308E+01  0.00000000000E+00 0. -1.
         13   -1    0    0    0    0 -0.00000000000E+00 -0.00000000000E+00 -0.10000000000E+04  0.10000000000E+04  0.00000000000E+00 0.  1.
    9000005    2    1    2  501    0 -0.13345526948E+02 -0.30459176904E+02 -0.83600573413E+03  0.83667335168E+03  0.32932299890E+01 0.  0.
         13    1    3    3    0    0 -0.65760246232E+01 -0.13326487291E+02 -0.33629642152E+03  0.33662460173E+03  0.00000000000E+00 0.  1.
          3    1    3    3  501    0 -0.67695023248E+01 -0.17132689613E+02 -0.49970931261E+03  0.50004874995E+03  0.00000000000E+00 0.  1.
         -1    1    1    2    0  502  0.13345526948E+02  0.30459176904E+02 -0.16197119054E+03  0.16534972365E+03  0.00000000000E+00 0. -1.
<mgrwt>
<rscale>  1 0.30000000E+03</rscale>
<asrwt>0</asrwt>
<pdfrwt beam="1">  1       21 0.73566531E-02 0.30000000E+03</pdfrwt>
<pdfrwt beam="2">0</pdfrwt>
<totfact> 0.14795703E+04</totfact>
</mgrwt>
</event>
<event>
 6    1  0.1270461E-001  0.3000000E+03  0.7818608E-02  0.1093470E+00
         21   -1    0    0  501  502  0.00000000000E+00  0.00000000000E+00  0.14349639781E+01  0.14349639781E+01  0.00000000000E+00 0. -1.
         13   -1    0    0    0    0 -0.00000000000E+00 -0.00000000000E+00 -0.10000000000E+04  0.10000000000E+04  0.00000000000E+00 0.  1.
    9000005    2    1    2  501    0 -0.21006707283E+02 -0.28421045955E+02 -0.32268067649E+03  0.32462723274E+03  0.33141593617E+01 0.  0.
         13    1    3    3    0    0 -0.20198006175E+02 -0.26778303860E+02 -0.31106361177E+03  0.31286675690E+03  0.00000000000E+00 0.  1.
          3    1    3    3  501    0 -0.80870110781E+00 -0.16427420952E+01 -0.11617064729E+02  0.11760475840E+02  0.00000000000E+00 0.  1.
         -1    1    1    2    0  502  0.21006707283E+02  0.28421045955E+02 -0.67588435953E+03  0.67680773123E+03  0.00000000000E+00 0. -1.
<mgrwt>
<rscale>  1 0.30000000E+03</rscale>
<asrwt>0</asrwt>
<pdfrwt beam="1">  1       21 0.52180618E-02 0.30000000E+03</pdfrwt>
<pdfrwt beam="2">0</pdfrwt>
<totfact> 0.26780760E+04</totfact>
</mgrwt>
</event>
<event>
 6    1  0.1270461E-001  0.3000000E+03  0.7818608E-02  0.1093470E+00
         21   -1    0    0  501  502  0.00000000000E+00  0.00000000000E+00  0.16289462555E+01  0.16289462555E+01  0.00000000000E+00 0. -1.
         13   -1    0    0    0    0 -0.00000000000E+00 -0.00000000000E+00 -0.10000000000E+04  0.10000000000E+04  0.00000000000E+00 0.  1.
    9000005    2    1    2  501    0 -0.21031702809E+02 -0.32169069449E+02 -0.64995013680E+03  0.65109461567E+03  0.34404476969E+01 0.  0.
         13    1    3    3    0    0 -0.19036133714E+02 -0.27603730181E+02 -0.55136746907E+03  0.55238612062E+03  0.00000000000E+00 0.  1.
          3    1    3    3  501    0 -0.19955690951E+01 -0.45653392680E+01 -0.98582667726E+02  0.98708495048E+02  0.00000000000E+00 0.  1.
         -3    1    1    2    0  502  0.21031702809E+02  0.32169069449E+02 -0.34842091695E+03  0.35053433058E+03  0.00000000000E+00 0. -1.
<mgrwt>
<rscale>  1 0.30000000E+03</rscale>
<asrwt>0</asrwt>
<pdfrwt beam="1">  1       21 0.59234534E-02 0.30000000E+03</pdfrwt>
<pdfrwt beam="2">0</pdfrwt>
<totfact> 0.21543365E+04</totfact>
</mgrwt>
</event>
<event>
 6    1  0.1270461E-001  0.3000000E+03  0.7818608E-02  0.1093470E+00
         21   -1    0    0  501  502  0.00000000000E+00  0.00000000000E+00  0.24991758599E+01  0.24991758599E+01  0.00000000000E+00 0. -1.
         13   -1    0    0    0    0 -0.00000000000E+00 -0.00000000000E+00 -0.10000000000E+04  0.10000000000E+04  0.00000000000E+00 0.  1.
    9000005    2    1    2  501    0  0.30371677058E+02  0.26064401191E+02 -0.79879531841E+03  0.79980317249E+03  0.30597755232E+01 0.  0.
         13    1    3    3    0    0  0.25016122085E+01  0.21752518570E+01 -0.51189471073E+02  0.51296702945E+02  0.00000000000E+00 0.  1.
          1    1    3    3  501    0  0.27870064850E+02  0.23889149334E+02 -0.74760584734E+03  0.74850646954E+03  0.00000000000E+00 0.  1.
         -1    1    1    2    0  502 -0.30371677058E+02 -0.26064401191E+02 -0.19870550573E+03  0.20269600337E+03  0.00000000000E+00 0. -1.
<mgrwt>
<rscale>  1 0.30000000E+03</rscale>
<asrwt>0</asrwt>
<pdfrwt beam="1">  1       21 0.90879314E-02 0.30000000E+03</pdfrwt>
<pdfrwt beam="2">0</pdfrwt>
<totfact> 0.10200775E+04</totfact>
</mgrwt>
</event>
<event>
 6    1  0.1270461E-001  0.3000000E+03  0.7818608E-02  0.1093470E+00
         21   -1    0    0  501  502  0.00000000000E+00  0.00000000000E+00  0.18246414226E+01  0.18246414226E+01  0.00000000000E+00 0. -1.
         13   -1    0    0    0    0 -0.00000000000E+00 -0.00000000000E+00 -0.10000000000E+04  0.10000000000E+04  0.00000000000E+00 0.  1.
    9000005    2    1    2  501    0  0.10690246300E+02  0.29721470773E+02 -0.83363236683E+03  0.83427750381E+03  0.88534251361E+01 0.  0.
         13    1    3    3    0    0  0.49916471307E+01  0.23336213879E+02 -0.66507336939E+03  0.66550137647E+03  0.00000000000E+00 0.  1.
          1    1    3    3  501    0  0.56985991694E+01  0.63852568942E+01 -0.16855899745E+03  0.16877612734E+03  0.00000000000E+00 0.  1.
         -1    1    1    2    0  502 -0.10690246300E+02 -0.29721470773E+02 -0.16454299174E+03  0.16754713761E+03  0.00000000000E+00 0. -1.
<mgrwt>
<rscale>  1 0.30000000E+03</rscale>
<asrwt>0</asrwt>
<pdfrwt beam="1">  1       21 0.66350737E-02 0.30000000E+03</pdfrwt>
<pdfrwt beam="2">0</pdfrwt>
<totfact> 0.17707693E+04</totfact>
</mgrwt>
</event>
<event>
 6    1  0.1270461E-001  0.3000000E+03  0.7818608E-02  0.1093470E+00
         21   -1    0    0  501  502  0.00000000000E+00  0.00000000000E+00  0.27919358023E+01  0.27919358023E+01  0.00000000000E+00 0. -1.
         13   -1    0    0    0    0 -0.00000000000E+00 -0.00000000000E+00 -0.10000000000E+04  0.10000000000E+04  0.00000000000E+00 0.  1.
    9000005    2    1    2  501    0 -0.31663485777E+01 -0.48889788945E+02 -0.31272809465E+03  0.31656087709E+03  0.34191366543E+01 0.  0.
         13    1    3    3    0    0 -0.11170331829E+01 -0.31148466030E+02 -0.20755272013E+03  0.20987998078E+03  0.00000000000E+00 0.  1.
          3    1    3    3  501    0 -0.20493153948E+01 -0.17741322915E+02 -0.10517537452E+03  0.10668089631E+03  0.00000000000E+00 0.  1.
         -1    1    1    2    0  502  0.31663485777E+01  0.48889788945E+02 -0.68447996955E+03  0.68623105871E+03  0.00000000000E+00 0. -1.
<mgrwt>
<rscale>  1 0.30000000E+03</rscale>
<asrwt>0</asrwt>
<pdfrwt beam="1">  1       21 0.10152515E-01 0.30000000E+03</pdfrwt>
<pdfrwt beam="2">0</pdfrwt>
<totfact> 0.83735278E+03</totfact>
</mgrwt>
</event>
<event>
 6    1  0.1270461E-001  0.3000000E+03  0.7818608E-02  0.1093470E+00
         21   -1    0    0  501  502  0.00000000000E+00  0.00000000000E+00  0.12416524080E+01  0.12416524080E+01  0.00000000000E+00 0. -1.
         13   -1    0    0    0    0 -0.00000000000E+00 -0.00000000000E+00 -0.10000000000E+04  0.10000000000E+04  0.00000000000E+00 0.  1.
    9000005    2    1    2  501    0 -0.14268480554E+02 -0.30620692147E+02 -0.63945450107E+03  0.64035320641E+03  0.29922740606E+01 0.  0.
         13    1    3    3    0    0 -0.10598114626E+00 -0.22307259903E+00 -0.12530646663E+02  0.12533080195E+02  0.00000000000E+00 0.  1.
          3    1    3    3  501    0 -0.14162499408E+02 -0.30397619548E+02 -0.62692385440E+03  0.62782012622E+03  0.00000000000E+00 0.  1.
         -1    1    1    2    0  502  0.14268480554E+02  0.30620692147E+02 -0.35930384653E+03  0.36088844600E+03  0.00000000000E+00 0. -1.
<mgrwt>
<rscale>  1 0.30000000E+03</rscale>
<asrwt>0</asrwt>
<pdfrwt beam="1">  1       21 0.45151092E-02 0.30000000E+03</pdfrwt>
<pdfrwt beam="2">0</pdfrwt>
<totfact> 0.34262722E+04</totfact>
</mgrwt>
</event>
<event>
 6    1  0.1270461E-001  0.3000000E+03  0.7818608E-02  0.1093470E+00
         21   -1    0    0  501  502  0.00000000000E+00  0.00000000000E+00  0.17067297369E+01  0.17067297369E+01  0.00000000000E+00 0. -1.
         13   -1    0    0    0    0 -0.00000000000E+00 -0.00000000000E+00 -0.10000000000E+04  0.10000000000E+04  0.00000000000E+00 0.  1.
    9000005    2    1    2  501    0  0.89591348407E+01 -0.30176576113E+02 -0.82216783204E+03  0.82279037545E+03  0.57589968153E+01 0.  0.
         13    1    3    3    0    0  0.29798525365E+01 -0.99142399484E+01 -0.20523489481E+03  0.20549582410E+03  0.00000000000E+00 0.  1.
          1    1    3    3  501    0  0.59792823042E+01 -0.20262336165E+02 -0.61693293723E+03  0.61729455135E+03  0.00000000000E+00 0.  1.
         -1    1    1    2    0  502 -0.89591348407E+01  0.30176576113E+02 -0.17612543822E+03  0.17891635429E+03  0.00000000000E+00 0. -1.
<mgrwt>
<rscale>  1 0.30000000E+03</rscale>
<asrwt>0</asrwt>
<pdfrwt beam="1">  1       21 0.62063030E-02 0.30000000E+03</pdfrwt>
<pdfrwt beam="2">0</pdfrwt>
<totfact> 0.19877426E+04</totfact>
</mgrwt>
</event>
<event>
 6    1  0.1270461E-001  0.3000000E+03  0.7818608E-02  0.1093470E+00
         21   -1    0    0  501  502  0.00000000000E+00  0.00000000000E+00  0.42718533344E+01  0.42718533344E+01  0.00000000000E+00 0. -1.
         13   -1    0    0    0    0 -0.00000000000E+00 -0.00000000000E+00 -0.10000000000E+04  0.10000000000E+04  0.00000000000E+00 0.  1.
    9000005    2    1    2  501    0  0.21672787232E+02  0.27461080059E+02 -0.92196131457E+03  0.92263015969E+03  0.31504559901E+01 0.  0.
         13    1    3    3    0    0  0.59519737472E+01  0.68008488420E+01 -0.20547787039E+03  0.20567652456E+03  0.00000000000E+00 0.  1.
          3    1    3    3  501    0  0.15720813485E+02  0.20660231217E+02 -0.71648344419E+03  0.71695363513E+03  0.00000000000E+00 0.  1.
         -3    1    1    2    0  502 -0.21672787232E+02 -0.27461080059E+02 -0.73766832092E+02  0.81641693646E+02  0.00000000000E+00 0. -1.
<mgrwt>
<rscale>  1 0.30000000E+03</rscale>
<asrwt>0</asrwt>
<pdfrwt beam="1">  1       21 0.15534045E-01 0.30000000E+03</pdfrwt>
<pdfrwt beam="2">0</pdfrwt>
<totfact> 0.38592920E+03</totfact>
</mgrwt>
</event>
<event>
 6    1  0.1270461E-001  0.3000000E+03  0.7818608E-02  0.1093470E+00
         21   -1    0    0  501  502  0.00000000000E+00  0.00000000000E+00  0.31133677852E+02  0.31133677852E+02  0.00000000000E+00 0. -1.
         13   -1    0    0    0    0 -0.00000000000E+00 -0.00000000000E+00 -0.10000000000E+04  0.10000000000E+04  0.00000000000E+00 0.  1.
    9000005    2    1    2  501    0  0.11574447840E+03  0.20275866827E+02 -0.86901790756E+03  0.87693380447E+03  0.35886905562E+01 0.  0.
         13    1    3    3    0    0  0.27684487878E+02  0.64021637530E+01 -0.20895872114E+03  0.21088187620E+03  0.00000000000E+00 0.  1.
          3    1    3    3  501    0  0.88059990525E+02  0.13873703074E+02 -0.66005918642E+03  0.66605192826E+03  0.00000000000E+00 0.  1.
         -3    1    1    2    0  502 -0.11574447840E+03 -0.20275866827E+02 -0.99848414588E+02  0.15419987339E+03  0.00000000000E+00 0. -1.
<mgrwt>
<rscale>  1 0.30000000E+03</rscale>
<asrwt>0</asrwt>
<pdfrwt beam="1">  1       21 0.11321361E+00 0.30000000E+03</pdfrwt>
<pdfrwt beam="2">0</pdfrwt>
<totfact> 0.53167541E+01</totfact>
</mgrwt>
</event>
<event>
 6    1  0.1270461E-001  0.3000000E+03  0.7818608E-02  0.1093470E+00
         21   -1    0    0  501  502  0.00000000000E+00  0.00000000000E+00  0.96955597470E+00  0.96955597470E+00  0.00000000000E+00 0. -1.
         13   -1    0    0    0    0 -0.00000000000E+00 -0.00000000000E+00 -0.10000000000E+04  0.10000000000E+04  0.00000000000E+00 0.  1.
    9000005    2    1    2  501    0 -0.40789189619E+01 -0.29878565794E+02 -0.62058445140E+03  0.62132401655E+03  0.30176056403E+01 0.  0.
         13    1    3    3    0    0 -0.14209899264E+01 -0.20114760994E+02 -0.40182842142E+03  0.40233406901E+03  0.00000000000E+00 0.  1.
          1    1    3    3  501    0 -0.26579290356E+01 -0.97638048006E+01 -0.21875602998E+03  0.21898994754E+03  0.00000000000E+00 0.  1.
         -1    1    1    2    0  502  0.40789189619E+01  0.29878565794E+02 -0.37844599262E+03  0.37964553942E+03  0.00000000000E+00 0. -1.
<mgrwt>
<rscale>  1 0.30000000E+03</rscale>
<asrwt>0</asrwt>
<pdfrwt beam="1">  1       21 0.35256655E-02 0.30000000E+03</pdfrwt>
<pdfrwt beam="2">0</pdfrwt>
<totfact> 0.51976840E+04</totfact>
</mgrwt>
</event>
<event>
 6    1  0.1270461E-001  0.3000000E+03  0.7818608E-02  0.1093470E+00
         21   -1    0    0  501  502  0.00000000000E+00  0.00000000000E+00  0.33271166767E+02  0.33271166767E+02  0.00000000000E+00 0. -1.
         13   -1    0    0    0    0 -0.00000000000E+00 -0.00000000000E+00 -0.10000000000E+04  0.10000000000E+04  0.00000000000E+00 0.  1.
    9000005    2    1    2  501    0  0.24339876526E+01 -0.94777283812E+02 -0.92469887843E+03  0.92956400731E+03  0.57070204893E+01 0.  0.
         13    1    3    3    0    0  0.38737834306E+00 -0.11937275131E+02 -0.13629458962E+03  0.13681689866E+03  0.00000000000E+00 0.  1.
          3    1    3    3  501    0  0.20466093095E+01 -0.82840008682E+02 -0.78840428881E+03  0.79274710864E+03  0.00000000000E+00 0.  1.
         -1    1    1    2    0  502 -0.24339876526E+01  0.94777283812E+02 -0.42029954802E+02  0.10370715946E+03  0.00000000000E+00 0. -1.
<mgrwt>
<rscale>  1 0.30000000E+03</rscale>
<asrwt>0</asrwt>
<pdfrwt beam="1">  1       21 0.12098632E+00 0.30000000E+03</pdfrwt>
<pdfrwt beam="2">0</pdfrwt>
<totfact> 0.44389551E+01</totfact>
</mgrwt>
</event>
<event>
 6    1  0.1270461E-001  0.3000000E+03  0.7818608E-02  0.1093470E+00
         21   -1    0    0  501  502  0.00000000000E+00  0.00000000000E+00  0.10264490193E+01  0.10264490193E+01  0.00000000000E+00 0. -1.
         13   -1    0    0    0    0 -0.00000000000E+00 -0.00000000000E+00 -0.10000000000E+04  0.10000000000E+04  0.00000000000E+00 0.  1.
    9000005    2    1    2  501    0 -0.29473524612E+02  0.11815841534E+02 -0.55630293476E+03  0.55721840805E+03  0.33311082946E+01 0.  0.
         13    1    3    3    0    0 -0.58118047815E+01  0.34983867619E+01 -0.10466820654E+03  0.10488779360E+03  0.00000000000E+00 0.  1.
          3    1    3    3  501    0 -0.23661719831E+02  0.83174547725E+01 -0.45163472822E+03  0.45233061446E+03  0.00000000000E+00 0.  1.
         -3    1    1    2    0  502  0.29473524612E+02 -0.11815841534E+02 -0.44267061622E+03  0.44380804097E+03  0.00000000000E+00 0. -1.
<mgrwt>
<rscale>  1 0.30000000E+03</rscale>
<asrwt>0</asrwt>
<pdfrwt beam="1">  1       21 0.37325498E-02 0.30000000E+03</pdfrwt>
<pdfrwt beam="2">0</pdfrwt>
<totfact> 0.47235775E+04</totfact>
</mgrwt>
</event>
<event>
 6    1  0.1270461E-001  0.3000000E+03  0.7818608E-02  0.1093470E+00
         21   -1    0    0  501  502  0.00000000000E+00  0.00000000000E+00  0.43896382959E+01  0.43896382959E+01  0.00000000000E+00 0. -1.
         13   -1    0    0    0    0 -0.00000000000E+00 -0.00000000000E+00 -0.10000000000E+04  0.10000000000E+04  0.00000000000E+00 0.  1.
    9000005    2    1    2  501    0 -0.87706415973E+01  0.47266261074E+02 -0.15307118691E+03  0.16048011433E+03  0.34720658322E+01 0.  0.
         13    1    3    3    0    0 -0.56426777897E+00  0.68266718695E+01 -0.25310320605E+02  0.26220872908E+02  0.00000000000E+00 0.  1.
          3    1    3    3  501    0 -0.82063738183E+01  0.40439589204E+02 -0.12776086631E+03  0.13425924142E+03  0.00000000000E+00 0.  1.
         -3    1    1    2    0  502  0.87706415973E+01 -0.47266261074E+02 -0.84253917479E+03  0.84390952397E+03  0.00000000000E+00 0. -1.
<mgrwt>
<rscale>  1 0.30000000E+03</rscale>
<asrwt>0</asrwt>
<pdfrwt beam="1">  1       21 0.15962355E-01 0.30000000E+03</pdfrwt>
<pdfrwt beam="2">0</pdfrwt>
<totfact> 0.36687358E+03</totfact>
</mgrwt>
</event>
<event>
 6    1  0.1270461E-001  0.3000000E+03  0.7818608E-02  0.1093470E+00
         21   -1    0    0  501  502  0.00000000000E+00  0.00000000000E+00  0.23620646364E+01  0.23620646364E+01  0.00000000000E+00 0. -1.
         13   -1    0    0    0    0 -0.00000000000E+00 -0.00000000000E+00 -0.10000000000E+04  0.10000000000E+04  0.00000000000E+00 0.  1.
    9000005    2    1    2  501    0 -0.18752869235E+02  0.24188611123E+02 -0.88777395871E+03  0.88831447642E+03  0.48216423625E+01 0.  0.
         13    1    3    3    0    0 -0.17917766745E+02  0.22815740274E+02 -0.86362481283E+03  0.86411192660E+03  0.00000000000E+00 0.  1.
          3    1    3    3  501    0 -0.83510248953E+00  0.13728708494E+01 -0.24149145885E+02  0.24202549814E+02  0.00000000000E+00 0.  1.
         -1    1    1    2    0  502  0.18752869235E+02 -0.24188611123E+02 -0.10986397665E+03  0.11404758822E+03  0.00000000000E+00 0. -1.
<mgrwt>
<rscale>  1 0.30000000E+03</rscale>
<asrwt>0</asrwt>
<pdfrwt beam="1">  1       21 0.85893441E-02 0.30000000E+03</pdfrwt>
<pdfrwt beam="2">0</pdfrwt>
<totfact> 0.11271427E+04</totfact>
</mgrwt>
</event>
<event>
 6    1  0.1270461E-001  0.3000000E+03  0.7818608E-02  0.1093470E+00
         21   -1    0    0  501  502  0.00000000000E+00  0.00000000000E+00  0.13780709413E+01  0.13780709413E+01  0.00000000000E+00 0. -1.
         13   -1    0    0    0    0 -0.00000000000E+00 -0.00000000000E+00 -0.10000000000E+04  0.10000000000E+04  0.00000000000E+00 0.  1.
    9000005    2    1    2  501    0  0.30780999538E+01 -0.33472129459E+02 -0.71032363126E+03  0.71112685791E+03  0.34480097603E+01 0.  0.
         13    1    3    3    0    0  0.38090502064E+01 -0.29856076863E+02 -0.63003653892E+03  0.63075505116E+03  0.00000000000E+00 0.  1.
          3    1    3    3  501    0 -0.73095025255E+00 -0.36160525956E+01 -0.80287092342E+02  0.80371806757E+02  0.00000000000E+00 0.  1.
         -3    1    1    2    0  502 -0.30780999538E+01  0.33472129459E+02 -0.28829829780E+03  0.29025121303E+03  0.00000000000E+00 0. -1.
<mgrwt>
<rscale>  1 0.30000000E+03</rscale>
<asrwt>0</asrwt>
<pdfrwt beam="1">  1       21 0.50111776E-02 0.30000000E+03</pdfrwt>
<pdfrwt beam="2">0</pdfrwt>
<totfact> 0.28695207E+04</totfact>
</mgrwt>
</event>
<event>
 6    1  0.1270461E-001  0.3000000E+03  0.7818608E-02  0.1093470E+00
         21   -1    0    0  501  502  0.00000000000E+00  0.00000000000E+00  0.11035164153E+01  0.11035164153E+01  0.00000000000E+00 0. -1.
         13   -1    0    0    0    0 -0.00000000000E+00 -0.00000000000E+00 -0.10000000000E+04  0.10000000000E+04  0.00000000000E+00 0.  1.
    9000005    2    1    2  501    0  0.10912684273E+02  0.28032934654E+02 -0.70723738175E+03  0.70789716624E+03  0.53620625491E+01 0.  0.
         13    1    3    3    0    0  0.27115858365E+01  0.73098133665E+01 -0.13391453238E+03  0.13414129883E+03  0.00000000000E+00 0.  1.
          3    1    3    3  501    0  0.82010984363E+01  0.20723121288E+02 -0.57332284937E+03  0.57375586740E+03  0.00000000000E+00 0.  1.
         -3    1    1    2    0  502 -0.10912684273E+02 -0.28032934654E+02 -0.29165910183E+03  0.29320635018E+03  0.00000000000E+00 0. -1.
<mgrwt>
<rscale>  1 0.30000000E+03</rscale>
<asrwt>0</asrwt>
<pdfrwt beam="1">  1       21 0.40127954E-02 0.30000000E+03</pdfrwt>
<pdfrwt beam="2">0</pdfrwt>
<totfact> 0.41821766E+04</totfact>
</mgrwt>
</event>
<event>
 6    1  0.1270461E-001  0.3000000E+03  0.7818608E-02  0.1093470E+00
         21   -1    0    0  501  502  0.00000000000E+00  0.00000000000E+00  0.20477475314E+01  0.20477475314E+01  0.00000000000E+00 0. -1.
         13   -1    0    0    0    0 -0.00000000000E+00 -0.00000000000E+00 -0.10000000000E+04  0.10000000000E+04  0.00000000000E+00 0.  1.
    9000005    2    1    2  501    0 -0.41069379286E+02  0.40218356069E+01 -0.70312707979E+03  0.70434865193E+03  0.40575936069E+01 0.  0.
         13    1    3    3    0    0 -0.20595494821E+02  0.30224397451E+01 -0.38422504740E+03  0.38478850892E+03  0.00000000000E+00 0.  1.
          1    1    3    3  501    0 -0.20473884464E+02  0.99939586179E+00 -0.31890203239E+03  0.31956014301E+03  0.00000000000E+00 0.  1.
         -1    1    1    2    0  502  0.41069379286E+02 -0.40218356069E+01 -0.29482517268E+03  0.29769909560E+03  0.00000000000E+00 0. -1.
<mgrwt>
<rscale>  1 0.30000000E+03</rscale>
<asrwt>0</asrwt>
<pdfrwt beam="1">  1       21 0.74463704E-02 0.30000000E+03</pdfrwt>
<pdfrwt beam="2">0</pdfrwt>
<totfact> 0.14485301E+04</totfact>
</mgrwt>
</event>
<event>
 6    1  0.1270461E-001  0.3000000E+03  0.7818608E-02  0.1093470E+00
         21   -1    0    0  501  502  0.00000000000E+00  0.00000000000E+00  0.12368376000E+01  0.12368376000E+01  0.00000000000E+00 0. -1.
         13   -1    0    0    0    0 -0.00000000000E+00 -0.00000000000E+00 -0.10000000000E+04  0.10000000000E+04  0.00000000000E+00 0.  1.
    9000005    2    1    2  501    0 -0.26075991098E+02 -0.21728728801E+02 -0.62875060626E+03  0.62967071069E+03  0.24050070673E+01 0.  0.
         13    1    3    3    0    0 -0.10902338347E+02 -0.10555262329E+02 -0.28772354239E+03  0.28812343082E+03  0.00000000000E+00 0.  1.
          1    1    3    3  501    0 -0.15173652751E+02 -0.11173466471E+02 -0.34102706387E+03  0.34154727987E+03  0.00000000000E+00 0.  1.
         -1    1    1    2    0  502  0.26075991098E+02  0.21728728801E+02 -0.37001255614E+03  0.37156612691E+03  0.00000000000E+00 0. -1.
<mgrwt>
<rscale>  1 0.30000000E+03</rscale>
<asrwt>0</asrwt>
<pdfrwt beam="1">  1       21 0.44976008E-02 0.30000000E+03</pdfrwt>
<pdfrwt beam="2">0</pdfrwt>
<totfact> 0.34489386E+04</totfact>
</mgrwt>
</event>
<event>
 6    1  0.1270461E-001  0.3000000E+03  0.7818608E-02  0.1093470E+00
         21   -1    0    0  501  502  0.00000000000E+00  0.00000000000E+00  0.27459770765E+01  0.27459770765E+01  0.00000000000E+00 0. -1.
         13   -1    0    0    0    0 -0.00000000000E+00 -0.00000000000E+00 -0.10000000000E+04  0.10000000000E+04  0.00000000000E+00 0.  1.
    9000005    2    1    2  501    0 -0.22908152854E+02  0.23937407030E+02 -0.88693784624E+03  0.88756159549E+03  0.30099469890E+01 0.  0.
         13    1    3    3    0    0 -0.10784624537E+02  0.11953676265E+02 -0.46898751224E+03  0.46926376926E+03  0.00000000000E+00 0.  1.
          3    1    3    3  501    0 -0.12123528317E+02  0.11983730765E+02 -0.41795033400E+03  0.41829782623E+03  0.00000000000E+00 0.  1.
         -3    1    1    2    0  502  0.22908152854E+02 -0.23937407030E+02 -0.11031617669E+03  0.11518438159E+03  0.00000000000E+00 0. -1.
<mgrwt>
<rscale>  1 0.30000000E+03</rscale>
<asrwt>0</asrwt>
<pdfrwt beam="1">  1       21 0.99853922E-02 0.30000000E+03</pdfrwt>
<pdfrwt beam="2">0</pdfrwt>
<totfact> 0.86256982E+03</totfact>
</mgrwt>
</event>
<event>
 6    1  0.1270461E-001  0.3000000E+03  0.7818608E-02  0.1093470E+00
         21   -1    0    0  501  502  0.00000000000E+00  0.00000000000E+00  0.40146177810E+01  0.40146177810E+01  0.00000000000E+00 0. -1.
         13   -1    0    0    0    0 -0.00000000000E+00 -0.00000000000E+00 -0.10000000000E+04  0.10000000000E+04  0.00000000000E+00 0.  1.
    9000005    2    1    2  501    0 -0.17211432578E+02  0.57987765710E+02 -0.64674026892E+03  0.64957003318E+03  0.30721638920E+01 0.  0.
         13    1    3    3    0    0 -0.14694849036E+02  0.52452750334E+02 -0.57755154791E+03  0.58011466117E+03  0.00000000000E+00 0.  1.
          3    1    3    3  501    0 -0.25165835412E+01  0.55350153758E+01 -0.69188721001E+02  0.69455372015E+02  0.00000000000E+00 0.  1.
         -3    1    1    2    0  502  0.17211432578E+02 -0.57987765710E+02 -0.34924511330E+03  0.35444458460E+03  0.00000000000E+00 0. -1.
<mgrwt>
<rscale>  1 0.30000000E+03</rscale>
<asrwt>0</asrwt>
<pdfrwt beam="1">  1       21 0.14598641E-01 0.30000000E+03</pdfrwt>
<pdfrwt beam="2">0</pdfrwt>
<totfact> 0.43296936E+03</totfact>
</mgrwt>
</event>
<event>
 6    1  0.1270461E-001  0.3000000E+03  0.7818608E-02  0.1093470E+00
         21   -1    0    0  501  502  0.00000000000E+00  0.00000000000E+00  0.14237680194E+01  0.14237680194E+01  0.00000000000E+00 0. -1.
         13   -1    0    0    0    0 -0.00000000000E+00 -0.00000000000E+00 -0.10000000000E+04  0.10000000000E+04  0.00000000000E+00 0.  1.
    9000005    2    1    2  501    0 -0.22600628948E+02 -0.30090799307E+02 -0.52091944718E+03  0.52228678479E+03  0.31891197081E+01 0.  0.
         13    1    3    3    0    0 -0.18273787041E+02 -0.24222290778E+02 -0.43630560146E+03  0.43735938144E+03  0.00000000000E+00 0.  1.
          1    1    3    3  501    0 -0.43268419068E+01 -0.58685085290E+01 -0.84613845723E+02  0.84927403358E+02  0.00000000000E+00 0.  1.
         -3    1    1    2    0  502  0.22600628948E+02  0.30090799307E+02 -0.47765678480E+03  0.47913698323E+03  0.00000000000E+00 0. -1.
<mgrwt>
<rscale>  1 0.30000000E+03</rscale>
<asrwt>0</asrwt>
<pdfrwt beam="1">  1       21 0.51773492E-02 0.30000000E+03</pdfrwt>
<pdfrwt beam="2">0</pdfrwt>
<totfact> 0.27141516E+04</totfact>
</mgrwt>
</event>
<event>
 6    1  0.1270461E-001  0.3000000E+03  0.7818608E-02  0.1093470E+00
         21   -1    0    0  501  502  0.00000000000E+00  0.00000000000E+00  0.27571119485E+01  0.27571119485E+01  0.00000000000E+00 0. -1.
         13   -1    0    0    0    0 -0.00000000000E+00 -0.00000000000E+00 -0.10000000000E+04  0.10000000000E+04  0.00000000000E+00 0.  1.
    9000005    2    1    2  501    0 -0.23189812793E+02 -0.31239179952E+02 -0.83511887215E+03  0.83603023855E+03  0.30619219388E+01 0.  0.
         13    1    3    3    0    0  0.60101356220E-01 -0.12971515535E+00 -0.14048336580E+01  0.14120891619E+01  0.00000000000E+00 0.  1.
          3    1    3    3  501    0 -0.23249914149E+02 -0.31109464797E+02 -0.83371403850E+03  0.83461814939E+03  0.00000000000E+00 0.  1.
         -3    1    1    2    0  502  0.23189812793E+02  0.31239179952E+02 -0.16212401590E+03  0.16672687340E+03  0.00000000000E+00 0. -1.
<mgrwt>
<rscale>  1 0.30000000E+03</rscale>
<asrwt>0</asrwt>
<pdfrwt beam="1">  1       21 0.10025883E-01 0.30000000E+03</pdfrwt>
<pdfrwt beam="2">0</pdfrwt>
<totfact> 0.85635493E+03</totfact>
</mgrwt>
</event>
<event>
 6    1  0.1270461E-001  0.3000000E+03  0.7818608E-02  0.1093470E+00
         21   -1    0    0  501  502  0.00000000000E+00  0.00000000000E+00  0.22538685506E+01  0.22538685506E+01  0.00000000000E+00 0. -1.
         13   -1    0    0    0    0 -0.00000000000E+00 -0.00000000000E+00 -0.10000000000E+04  0.10000000000E+04  0.00000000000E+00 0.  1.
    9000005    2    1    2  501    0  0.27210036660E+02 -0.13601914421E+02 -0.88202848224E+03  0.88260449534E+03  0.95421979733E+01 0.  0.
         13    1    3    3    0    0  0.18820257483E+02 -0.13197117612E+02 -0.57069451190E+03  0.57115723922E+03  0.00000000000E+00 0.  1.
          3    1    3    3  501    0  0.83897791774E+01 -0.40479680814E+00 -0.31133397034E+03  0.31144725612E+03  0.00000000000E+00 0.  1.
         -1    1    1    2    0  502 -0.27210036660E+02  0.13601914421E+02 -0.11571764921E+03  0.11964937321E+03  0.00000000000E+00 0. -1.
<mgrwt>
<rscale>  1 0.30000000E+03</rscale>
<asrwt>0</asrwt>
<pdfrwt beam="1">  1       21 0.81959029E-02 0.30000000E+03</pdfrwt>
<pdfrwt beam="2">0</pdfrwt>
<totfact> 0.12242060E+04</totfact>
</mgrwt>
</event>
<event>
 6    1  0.1270461E-001  0.3000000E+03  0.7818608E-02  0.1093470E+00
         21   -1    0    0  501  502  0.00000000000E+00  0.00000000000E+00  0.31123757313E+01  0.31123757313E+01  0.00000000000E+00 0. -1.
         13   -1    0    0    0    0 -0.00000000000E+00 -0.00000000000E+00 -0.10000000000E+04  0.10000000000E+04  0.00000000000E+00 0.  1.
    9000005    2    1    2  501    0  0.29168015829E+02 -0.87205291026E+01 -0.91865789590E+03  0.91916768456E+03  0.31751952851E+01 0.  0.
         13    1    3    3    0    0  0.20229992022E+02 -0.53294213798E+01 -0.66822272582E+03  0.66855012274E+03  0.00000000000E+00 0.  1.
          3    1    3    3  501    0  0.89380238068E+01 -0.33911077228E+01 -0.25043517007E+03  0.25061756181E+03  0.00000000000E+00 0.  1.
         -1    1    1    2    0  502 -0.29168015829E+02  0.87205291026E+01 -0.78229728372E+02  0.83944691175E+02  0.00000000000E+00 0. -1.
<mgrwt>
<rscale>  1 0.30000000E+03</rscale>
<asrwt>0</asrwt>
<pdfrwt beam="1">  1       21 0.11317754E-01 0.30000000E+03</pdfrwt>
<pdfrwt beam="2">0</pdfrwt>
<totfact> 0.68893806E+03</totfact>
</mgrwt>
</event>
<event>
 6    1  0.1270461E-001  0.3000000E+03  0.7818608E-02  0.1093470E+00
         21   -1    0    0  501  502  0.00000000000E+00  0.00000000000E+00  0.11435956156E+01  0.11435956156E+01  0.00000000000E+00 0. -1.
         13   -1    0    0    0    0 -0.00000000000E+00 -0.00000000000E+00 -0.10000000000E+04  0.10000000000E+04  0.00000000000E+00 0.  1.
    9000005    2    1    2  501    0 -0.22318900484E+02  0.23331455818E+02 -0.64119000765E+03  0.64202280604E+03  0.51154101921E+01 0.  0.
         13    1    3    3    0    0 -0.19491706285E+02  0.19217561233E+02 -0.57087032314E+03  0.57152617361E+03  0.00000000000E+00 0.  1.
          1    1    3    3  501    0 -0.28271941990E+01  0.41138945848E+01 -0.70319684504E+02  0.70496632434E+02  0.00000000000E+00 0.  1.
         -1    1    1    2    0  502  0.22318900484E+02 -0.23331455818E+02 -0.35766639674E+03  0.35912078957E+03  0.00000000000E+00 0. -1.
<mgrwt>
<rscale>  1 0.30000000E+03</rscale>
<asrwt>0</asrwt>
<pdfrwt beam="1">  1       21 0.41585383E-02 0.30000000E+03</pdfrwt>
<pdfrwt beam="2">0</pdfrwt>
<totfact> 0.39380499E+04</totfact>
</mgrwt>
</event>
<event>
 6    1  0.1270461E-001  0.3000000E+03  0.7818608E-02  0.1093470E+00
         21   -1    0    0  501  502  0.00000000000E+00  0.00000000000E+00  0.22875817931E+01  0.22875817931E+01  0.00000000000E+00 0. -1.
         13   -1    0    0    0    0 -0.00000000000E+00 -0.00000000000E+00 -0.10000000000E+04  0.10000000000E+04  0.00000000000E+00 0.  1.
    9000005    2    1    2  501    0  0.34808345865E+02  0.29535683278E+02 -0.35232140625E+03  0.35528407651E+03  0.35247969937E+01 0.  0.
         13    1    3    3    0    0  0.12040173061E+02  0.88823449250E+01 -0.12568999663E+03  0.12657739557E+03  0.00000000000E+00 0.  1.
          1    1    3    3  501    0  0.22768172804E+02  0.20653338353E+02 -0.22663140962E+03  0.22870668094E+03  0.00000000000E+00 0.  1.
         -3    1    1    2    0  502 -0.34808345865E+02 -0.29535683278E+02 -0.64539101196E+03  0.64700350528E+03  0.00000000000E+00 0. -1.
<mgrwt>
<rscale>  1 0.30000000E+03</rscale>
<asrwt>0</asrwt>
<pdfrwt beam="1">  1       21 0.83184968E-02 0.30000000E+03</pdfrwt>
<pdfrwt beam="2">0</pdfrwt>
<totfact> 0.11926333E+04</totfact>
</mgrwt>
</event>
<event>
 6    1  0.1270461E-001  0.3000000E+03  0.7818608E-02  0.1093470E+00
         21   -1    0    0  501  502  0.00000000000E+00  0.00000000000E+00  0.37190126333E+01  0.37190126333E+01  0.00000000000E+00 0. -1.
         13   -1    0    0    0    0 -0.00000000000E+00 -0.00000000000E+00 -0.10000000000E+04  0.10000000000E+04  0.00000000000E+00 0.  1.
    9000005    2    1    2  501    0 -0.45385372779E+02 -0.30206978614E+02 -0.72124169143E+03  0.72332837811E+03  0.64862548857E+01 0.  0.
         13    1    3    3    0    0 -0.25639582375E+01 -0.28174626110E+01 -0.71460284366E+02  0.71561751090E+02  0.00000000000E+00 0.  1.
          3    1    3    3  501    0 -0.42821414541E+02 -0.27389516003E+02 -0.64978140706E+03  0.65176662702E+03  0.00000000000E+00 0.  1.
         -3    1    1    2    0  502  0.45385372779E+02  0.30206978614E+02 -0.27503929594E+03  0.28039063452E+03  0.00000000000E+00 0. -1.
<mgrwt>
<rscale>  1 0.30000000E+03</rscale>
<asrwt>0</asrwt>
<pdfrwt beam="1">  1       21 0.13523711E-01 0.30000000E+03</pdfrwt>
<pdfrwt beam="2">0</pdfrwt>
<totfact> 0.49832588E+03</totfact>
</mgrwt>
</event>
<event>
 6    1  0.1270461E-001  0.3000000E+03  0.7818608E-02  0.1093470E+00
         21   -1    0    0  501  502  0.00000000000E+00  0.00000000000E+00  0.13354388848E+01  0.13354388848E+01  0.00000000000E+00 0. -1.
         13   -1    0    0    0    0 -0.00000000000E+00 -0.00000000000E+00 -0.10000000000E+04  0.10000000000E+04  0.00000000000E+00 0.  1.
    9000005    2    1    2  501    0  0.18462907298E+02  0.31130859770E+02 -0.55720002210E+03  0.55838967631E+03  0.41420531670E+01 0.  0.
         13    1    3    3    0    0  0.13286821944E+02  0.24227836004E+02 -0.44625234522E+03  0.44710701548E+03  0.00000000000E+00 0.  1.
          1    1    3    3  501    0  0.51760853538E+01  0.69030237654E+01 -0.11094767688E+03  0.11128266083E+03  0.00000000000E+00 0.  1.
         -3    1    1    2    0  502 -0.18462907298E+02 -0.31130859770E+02 -0.44146453901E+03  0.44294576258E+03  0.00000000000E+00 0. -1.
<mgrwt>
<rscale>  1 0.30000000E+03</rscale>
<asrwt>0</asrwt>
<pdfrwt beam="1">  1       21 0.48561516E-02 0.30000000E+03</pdfrwt>
<pdfrwt beam="2">0</pdfrwt>
<totfact> 0.30273310E+04</totfact>
</mgrwt>
</event>
<event>
 6    1  0.1270461E-001  0.3000000E+03  0.7818608E-02  0.1093470E+00
         21   -1    0    0  501  502  0.00000000000E+00  0.00000000000E+00  0.23520304745E+01  0.23520304745E+01  0.00000000000E+00 0. -1.
         13   -1    0    0    0    0 -0.00000000000E+00 -0.00000000000E+00 -0.10000000000E+04  0.10000000000E+04  0.00000000000E+00 0.  1.
    9000005    2    1    2  501    0  0.38106544812E+02  0.28534916014E+02 -0.59196436268E+03  0.59388472573E+03  0.33031155149E+01 0.  0.
         13    1    3    3    0    0  0.19953196794E+02  0.15507312723E+02 -0.29436813639E+03  0.29545085299E+03  0.00000000000E+00 0.  1.
          1    1    3    3  501    0  0.18153348019E+02  0.13027603290E+02 -0.29759622630E+03  0.29843387274E+03  0.00000000000E+00 0.  1.
         -3    1    1    2    0  502 -0.38106544812E+02 -0.28534916014E+02 -0.40568360684E+03  0.40846730475E+03  0.00000000000E+00 0. -1.
<mgrwt>
<rscale>  1 0.30000000E+03</rscale>
<asrwt>0</asrwt>
<pdfrwt beam="1">  1       21 0.85528561E-02 0.30000000E+03</pdfrwt>
<pdfrwt beam="2">0</pdfrwt>
<totfact> 0.11356411E+04</totfact>
</mgrwt>
</event>
<event>
 6    1  0.1270461E-001  0.3000000E+03  0.7818608E-02  0.1093470E+00
         21   -1    0    0  501  502  0.00000000000E+00  0.00000000000E+00  0.16149155453E+01  0.16149155453E+01  0.00000000000E+00 0. -1.
         13   -1    0    0    0    0 -0.00000000000E+00 -0.00000000000E+00 -0.10000000000E+04  0.10000000000E+04  0.00000000000E+00 0.  1.
    9000005    2    1    2  501    0  0.39425721394E+02 -0.46544615771E+01 -0.42993519728E+03  0.43178044331E+03  0.37451093220E+01 0.  0.
         13    1    3    3    0    0  0.15364024017E+02 -0.32880199948E+01 -0.18171364616E+03  0.18239164868E+03  0.00000000000E+00 0.  1.
          1    1    3    3  501    0  0.24061697377E+02 -0.13664415823E+01 -0.24822155112E+03  0.24938879462E+03  0.00000000000E+00 0.  1.
         -1    1    1    2    0  502 -0.39425721394E+02  0.46544615771E+01 -0.56844988718E+03  0.56983447224E+03  0.00000000000E+00 0. -1.
<mgrwt>
<rscale>  1 0.30000000E+03</rscale>
<asrwt>0</asrwt>
<pdfrwt beam="1">  1       21 0.58724325E-02 0.30000000E+03</pdfrwt>
<pdfrwt beam="2">0</pdfrwt>
<totfact> 0.21866976E+04</totfact>
</mgrwt>
</event>
<event>
 6    1  0.1270461E-001  0.3000000E+03  0.7818608E-02  0.1093470E+00
         21   -1    0    0  501  502  0.00000000000E+00  0.00000000000E+00  0.12537823998E+01  0.12537823998E+01  0.00000000000E+00 0. -1.
         13   -1    0    0    0    0 -0.00000000000E+00 -0.00000000000E+00 -0.10000000000E+04  0.10000000000E+04  0.00000000000E+00 0.  1.
    9000005    2    1    2  501    0 -0.19275441913E+02 -0.23278851673E+02 -0.75905299835E+03  0.75966262579E+03  0.35218072213E+01 0.  0.
         13    1    3    3    0    0 -0.57905727996E+01 -0.91540880826E+01 -0.29558045254E+03  0.29577885655E+03  0.00000000000E+00 0.  1.
          1    1    3    3  501    0 -0.13484869113E+02 -0.14124763591E+02 -0.46347254581E+03  0.46388376924E+03  0.00000000000E+00 0.  1.
         -1    1    1    2    0  502  0.19275441913E+02  0.23278851673E+02 -0.23969321925E+03  0.24159115661E+03  0.00000000000E+00 0. -1.
<mgrwt>
<rscale>  1 0.30000000E+03</rscale>
<asrwt>0</asrwt>
<pdfrwt beam="1">  1       21 0.45592183E-02 0.30000000E+03</pdfrwt>
<pdfrwt beam="2">0</pdfrwt>
<totfact> 0.33701765E+04</totfact>
</mgrwt>
</event>
<event>
 6    1  0.1270461E-001  0.3000000E+03  0.7818608E-02  0.1093470E+00
         21   -1    0    0  501  502  0.00000000000E+00  0.00000000000E+00  0.11676029311E+02  0.11676029311E+02  0.00000000000E+00 0. -1.
         13   -1    0    0    0    0 -0.00000000000E+00 -0.00000000000E+00 -0.10000000000E+04  0.10000000000E+04  0.00000000000E+00 0.  1.
    9000005    2    1    2  501    0  0.49887511080E+02  0.37305966439E+02 -0.90745277494E+03  0.90959444823E+03  0.33200318898E+01 0.  0.
         13    1    3    3    0    0  0.12731737223E+02  0.10274064310E+02 -0.25817905673E+03  0.25869688607E+03  0.00000000000E+00 0.  1.
          1    1    3    3  501    0  0.37155773857E+02  0.27031902129E+02 -0.64927371821E+03  0.65089756216E+03  0.00000000000E+00 0.  1.
         -3    1    1    2    0  502 -0.49887511080E+02 -0.37305966439E+02 -0.80871195746E+02  0.10208158108E+03  0.00000000000E+00 0. -1.
<mgrwt>
<rscale>  1 0.30000000E+03</rscale>
<asrwt>0</asrwt>
<pdfrwt beam="1">  1       21 0.42458378E-01 0.30000000E+03</pdfrwt>
<pdfrwt beam="2">0</pdfrwt>
<totfact> 0.53289092E+02</totfact>
</mgrwt>
</event>
<event>
 6    1  0.1270461E-001  0.3000000E+03  0.7818608E-02  0.1093470E+00
         21   -1    0    0  501  502  0.00000000000E+00  0.00000000000E+00  0.21945207415E+01  0.21945207415E+01  0.00000000000E+00 0. -1.
         13   -1    0    0    0    0 -0.00000000000E+00 -0.00000000000E+00 -0.10000000000E+04  0.10000000000E+04  0.00000000000E+00 0.  1.
    9000005    2    1    2  501    0 -0.25382848074E+02  0.27025142995E+02 -0.80462104185E+03  0.80548439343E+03  0.39293435363E+01 0.  0.
         13    1    3    3    0    0 -0.11422808916E+02  0.98240262713E+01 -0.30272653318E+03  0.30310121403E+03  0.00000000000E+00 0.  1.
          3    1    3    3  501    0 -0.13960039158E+02  0.17201116723E+02 -0.50189450867E+03  0.50238317940E+03  0.00000000000E+00 0.  1.
         -1    1    1    2    0  502  0.25382848074E+02 -0.27025142995E+02 -0.19318443741E+03  0.19671012731E+03  0.00000000000E+00 0. -1.
<mgrwt>
<rscale>  1 0.30000000E+03</rscale>
<asrwt>0</asrwt>
<pdfrwt beam="1">  1       21 0.79800923E-02 0.30000000E+03</pdfrwt>
<pdfrwt beam="2">0</pdfrwt>
<totfact> 0.12829890E+04</totfact>
</mgrwt>
</event>
<event>
 6    1  0.1270461E-001  0.3000000E+03  0.7818608E-02  0.1093470E+00
         21   -1    0    0  501  502  0.00000000000E+00  0.00000000000E+00  0.16333662794E+01  0.16333662794E+01  0.00000000000E+00 0. -1.
         13   -1    0    0    0    0 -0.00000000000E+00 -0.00000000000E+00 -0.10000000000E+04  0.10000000000E+04  0.00000000000E+00 0.  1.
    9000005    2    1    2  501    0  0.72018528376E-01 -0.36937200561E+02 -0.70099443113E+03  0.70197591376E+03  0.35537393610E+01 0.  0.
         13    1    3    3    0    0  0.11442255724E+01 -0.29444127123E+02 -0.53926691024E+03  0.54007135302E+03  0.00000000000E+00 0.  1.
          1    1    3    3  501    0 -0.10722070440E+01 -0.74930734371E+01 -0.16172752089E+03  0.16190456074E+03  0.00000000000E+00 0.  1.
         -1    1    1    2    0  502 -0.72018528376E-01  0.36937200561E+02 -0.29737220259E+03  0.29965745252E+03  0.00000000000E+00 0. -1.
<mgrwt>
<rscale>  1 0.30000000E+03</rscale>
<asrwt>0</asrwt>
<pdfrwt beam="1">  1       21 0.59395263E-02 0.30000000E+03</pdfrwt>
<pdfrwt beam="2">0</pdfrwt>
<totfact> 0.21442964E+04</totfact>
</mgrwt>
</event>
<event>
 6    1  0.1270461E-001  0.3000000E+03  0.7818608E-02  0.1093470E+00
         21   -1    0    0  501  502  0.00000000000E+00  0.00000000000E+00  0.29317041960E+01  0.29317041960E+01  0.00000000000E+00 0. -1.
         13   -1    0    0    0    0 -0.00000000000E+00 -0.00000000000E+00 -0.10000000000E+04  0.10000000000E+04  0.00000000000E+00 0.  1.
    9000005    2    1    2  501    0 -0.39774341239E+02 -0.10018089358E+02 -0.82495801286E+03  0.82600146419E+03  0.63510249445E+01 0.  0.
         13    1    3    3    0    0 -0.28694696066E+02 -0.55722787283E+01 -0.63063570481E+03  0.63131278147E+03  0.00000000000E+00 0.  1.
          3    1    3    3  501    0 -0.11079645173E+02 -0.44458106299E+01 -0.19432230805E+03  0.19468868271E+03  0.00000000000E+00 0.  1.
         -1    1    1    2    0  502  0.39774341239E+02  0.10018089358E+02 -0.17211028294E+03  0.17693024001E+03  0.00000000000E+00 0. -1.
<mgrwt>
<rscale>  1 0.30000000E+03</rscale>
<asrwt>0</asrwt>
<pdfrwt beam="1">  1       21 0.10660765E-01 0.30000000E+03</pdfrwt>
<pdfrwt beam="2">0</pdfrwt>
<totfact> 0.76719108E+03</totfact>
</mgrwt>
</event>
<event>
 6    1  0.1270461E-001  0.3000000E+03  0.7818608E-02  0.1093470E+00
         21   -1    0    0  501  502  0.00000000000E+00  0.00000000000E+00  0.13471807847E+01  0.13471807847E+01  0.00000000000E+00 0. -1.
         13   -1    0    0    0    0 -0.00000000000E+00 -0.00000000000E+00 -0.10000000000E+04  0.10000000000E+04  0.00000000000E+00 0.  1.
    9000005    2    1    2  501    0  0.28846648690E+02  0.21901763214E+02 -0.57446209997E+03  0.57561301177E+03  0.34378255949E+01 0.  0.
         13    1    3    3    0    0  0.84059946628E+01  0.71684391238E+01 -0.15293370947E+03  0.15333221044E+03  0.00000000000E+00 0.  1.
          3    1    3    3  501    0  0.20440654027E+02  0.14733324090E+02 -0.42152839050E+03  0.42228080133E+03  0.00000000000E+00 0.  1.
         -1    1    1    2    0  502 -0.28846648690E+02 -0.21901763214E+02 -0.42419071925E+03  0.42573416902E+03  0.00000000000E+00 0. -1.
<mgrwt>
<rscale>  1 0.30000000E+03</rscale>
<asrwt>0</asrwt>
<pdfrwt beam="1">  1       21 0.48988495E-02 0.30000000E+03</pdfrwt>
<pdfrwt beam="2">0</pdfrwt>
<totfact> 0.29825399E+04</totfact>
</mgrwt>
</event>
<event>
 6    1  0.1270461E-001  0.3000000E+03  0.7818608E-02  0.1093470E+00
         21   -1    0    0  501  502  0.00000000000E+00  0.00000000000E+00  0.27267696404E+01  0.27267696404E+01  0.00000000000E+00 0. -1.
         13   -1    0    0    0    0 -0.00000000000E+00 -0.00000000000E+00 -0.10000000000E+04  0.10000000000E+04  0.00000000000E+00 0.  1.
    9000005    2    1    2  501    0  0.41708927251E+01 -0.36778802852E+02 -0.85209739499E+03  0.85290654450E+03  0.30864898465E+01 0.  0.
         13    1    3    3    0    0  0.89060075327E+00 -0.11871002236E+02 -0.24345699425E+03  0.24374786546E+03  0.00000000000E+00 0.  1.
          1    1    3    3  501    0  0.32802919718E+01 -0.24907800616E+02 -0.60864040073E+03  0.60915867904E+03  0.00000000000E+00 0.  1.
         -3    1    1    2    0  502 -0.41708927251E+01  0.36778802852E+02 -0.14517583537E+03  0.14982022514E+03  0.00000000000E+00 0. -1.
<mgrwt>
<rscale>  1 0.30000000E+03</rscale>
<asrwt>0</asrwt>
<pdfrwt beam="1">  1       21 0.99155469E-02 0.30000000E+03</pdfrwt>
<pdfrwt beam="2">0</pdfrwt>
<totfact> 0.87345344E+03</totfact>
</mgrwt>
</event>
<event>
 6    1  0.1270461E-001  0.3000000E+03  0.7818608E-02  0.1093470E+00
         21   -1    0    0  501  502  0.00000000000E+00  0.00000000000E+00  0.16497700962E+01  0.16497700962E+01  0.00000000000E+00 0. -1.
         13   -1    0    0    0    0 -0.00000000000E+00 -0.00000000000E+00 -0.10000000000E+04  0.10000000000E+04  0.00000000000E+00 0.  1.
    9000005    2    1    2  501    0 -0.66181205563E+01  0.38168929694E+02 -0.35244984303E+03  0.35458874015E+03  0.34082362318E+01 0.  0.
         13    1    3    3    0    0 -0.53880970550E+01  0.34816998457E+02 -0.32622989766E+03  0.32812680644E+03  0.00000000000E+00 0.  1.
          3    1    3    3  501    0 -0.12300235014E+01  0.33519312369E+01 -0.26219945363E+02  0.26461933710E+02  0.00000000000E+00 0.  1.
         -1    1    1    2    0  502  0.66181205563E+01 -0.38168929694E+02 -0.64590038688E+03  0.64706102995E+03  0.00000000000E+00 0. -1.
<mgrwt>
<rscale>  1 0.30000000E+03</rscale>
<asrwt>0</asrwt>
<pdfrwt beam="1">  1       21 0.59991766E-02 0.30000000E+03</pdfrwt>
<pdfrwt beam="2">0</pdfrwt>
<totfact> 0.21076653E+04</totfact>
</mgrwt>
</event>
<event>
 6    1  0.1270461E-001  0.3000000E+03  0.7818608E-02  0.1093470E+00
         21   -1    0    0  501  502  0.00000000000E+00  0.00000000000E+00  0.79681840833E+01  0.79681840833E+01  0.00000000000E+00 0. -1.
         13   -1    0    0    0    0 -0.00000000000E+00 -0.00000000000E+00 -0.10000000000E+04  0.10000000000E+04  0.00000000000E+00 0.  1.
    9000005    2    1    2  501    0 -0.32192781816E+02 -0.26240482744E+02 -0.94204668413E+03  0.94298009644E+03  0.58795464678E+01 0.  0.
         13    1    3    3    0    0 -0.13022606477E+02 -0.98201086456E+01 -0.30861012835E+03  0.30904082924E+03  0.00000000000E+00 0.  1.
          1    1    3    3  501    0 -0.19170175339E+02 -0.16420374098E+02 -0.63343655578E+03  0.63393926721E+03  0.00000000000E+00 0.  1.
         -3    1    1    2    0  502  0.32192781816E+02  0.26240482744E+02 -0.49985131785E+02  0.64988087641E+02  0.00000000000E+00 0. -1.
<mgrwt>
<rscale>  1 0.30000000E+03</rscale>
<asrwt>0</asrwt>
<pdfrwt beam="1">  1       21 0.28975276E-01 0.30000000E+03</pdfrwt>
<pdfrwt beam="2">0</pdfrwt>
<totfact> 0.11653668E+03</totfact>
</mgrwt>
</event>
<event>
 6    1  0.1270461E-001  0.3000000E+03  0.7818608E-02  0.1093470E+00
         21   -1    0    0  501  502  0.00000000000E+00  0.00000000000E+00  0.26584953218E+01  0.26584953218E+01  0.00000000000E+00 0. -1.
         13   -1    0    0    0    0 -0.00000000000E+00 -0.00000000000E+00 -0.10000000000E+04  0.10000000000E+04  0.00000000000E+00 0.  1.
    9000005    2    1    2  501    0 -0.24683933551E+02  0.22622206145E+02 -0.87975980918E+03  0.88040255108E+03  0.32045766530E+01 0.  0.
         13    1    3    3    0    0 -0.24683254436E+02  0.22362992189E+02 -0.86595485145E+03  0.86659515994E+03  0.00000000000E+00 0.  1.
          1    1    3    3  501    0 -0.67911524213E-03  0.25921395637E+00 -0.13804957730E+02  0.13807391146E+02  0.00000000000E+00 0.  1.
         -1    1    1    2    0  502  0.24683933551E+02 -0.22622206145E+02 -0.11758169549E+03  0.12225594424E+03  0.00000000000E+00 0. -1.
<mgrwt>
<rscale>  1 0.30000000E+03</rscale>
<asrwt>0</asrwt>
<pdfrwt beam="1">  1       21 0.96672761E-02 0.30000000E+03</pdfrwt>
<pdfrwt beam="2">0</pdfrwt>
<totfact> 0.91388965E+03</totfact>
</mgrwt>
</event>
<event>
 6    1  0.1270461E-001  0.3000000E+03  0.7818608E-02  0.1093470E+00
         21   -1    0    0  501  502  0.00000000000E+00  0.00000000000E+00  0.39553747929E+01  0.39553747929E+01  0.00000000000E+00 0. -1.
         13   -1    0    0    0    0 -0.00000000000E+00 -0.00000000000E+00 -0.10000000000E+04  0.10000000000E+04  0.00000000000E+00 0.  1.
    9000005    2    1    2  501    0  0.51273836376E+02 -0.35291279003E+01 -0.78725985963E+03  0.78893784207E+03  0.18360358576E+01 0.  0.
         13    1    3    3    0    0  0.57731672925E+01  0.13455607242E+00 -0.92036528792E+02  0.92217515679E+02  0.00000000000E+00 0.  1.
          3    1    3    3  501    0  0.45500669083E+02 -0.36636839727E+01 -0.69522333084E+03  0.69672032639E+03  0.00000000000E+00 0.  1.
         -1    1    1    2    0  502 -0.51273836376E+02  0.35291279003E+01 -0.20878476558E+03  0.21501753272E+03  0.00000000000E+00 0. -1.
<mgrwt>
<rscale>  1 0.30000000E+03</rscale>
<asrwt>0</asrwt>
<pdfrwt beam="1">  1       21 0.14383211E-01 0.30000000E+03</pdfrwt>
<pdfrwt beam="2">0</pdfrwt>
<totfact> 0.44500108E+03</totfact>
</mgrwt>
</event>
<event>
 6    1  0.1270461E-001  0.3000000E+03  0.7818608E-02  0.1093470E+00
         21   -1    0    0  501  502  0.00000000000E+00  0.00000000000E+00  0.18271426131E+01  0.18271426131E+01  0.00000000000E+00 0. -1.
         13   -1    0    0    0    0 -0.00000000000E+00 -0.00000000000E+00 -0.10000000000E+04  0.10000000000E+04  0.00000000000E+00 0.  1.
    9000005    2    1    2  501    0  0.19141973865E+02 -0.27393543305E+02 -0.18822164090E+03  0.19118678187E+03  0.28597342857E+01 0.  0.
         13    1    3    3    0    0  0.14353073895E+02 -0.20730827804E+02 -0.14866112872E+03  0.15078431332E+03  0.00000000000E+00 0.  1.
          1    1    3    3  501    0  0.47888999696E+01 -0.66627155008E+01 -0.39560512176E+02  0.40402468543E+02  0.00000000000E+00 0.  1.
         -1    1    1    2    0  502 -0.19141973865E+02  0.27393543305E+02 -0.80995121649E+03  0.81064036075E+03  0.00000000000E+00 0. -1.
<mgrwt>
<rscale>  1 0.30000000E+03</rscale>
<asrwt>0</asrwt>
<pdfrwt beam="1">  1       21 0.66441690E-02 0.30000000E+03</pdfrwt>
<pdfrwt beam="2">0</pdfrwt>
<totfact> 0.17665690E+04</totfact>
</mgrwt>
</event>
<event>
 6    1  0.1270461E-001  0.3000000E+03  0.7818608E-02  0.1093470E+00
         21   -1    0    0  501  502  0.00000000000E+00  0.00000000000E+00  0.17657397703E+02  0.17657397703E+02  0.00000000000E+00 0. -1.
         13   -1    0    0    0    0 -0.00000000000E+00 -0.00000000000E+00 -0.10000000000E+04  0.10000000000E+04  0.00000000000E+00 0.  1.
    9000005    2    1    2  501    0  0.29287661678E+02 -0.12271621138E+02 -0.98525192024E+03  0.98576972073E+03  0.34980222922E+01 0.  0.
         13    1    3    3    0    0  0.26468852302E+02 -0.10923710100E+02 -0.91581169982E+03  0.91625924122E+03  0.00000000000E+00 0.  1.
          1    1    3    3  501    0  0.28188093760E+01 -0.13479110388E+01 -0.69440220415E+02  0.69510479511E+02  0.00000000000E+00 0.  1.
         -1    1    1    2    0  502 -0.29287661678E+02  0.12271621138E+02  0.29093179411E+01  0.31887676975E+02  0.00000000000E+00 0. -1.
<mgrwt>
<rscale>  1 0.30000000E+03</rscale>
<asrwt>0</asrwt>
<pdfrwt beam="1">  1       21 0.64208854E-01 0.30000000E+03</pdfrwt>
<pdfrwt beam="2">0</pdfrwt>
<totfact> 0.21536819E+02</totfact>
</mgrwt>
</event>
<event>
 6    1  0.1270461E-001  0.3000000E+03  0.7818608E-02  0.1093470E+00
         21   -1    0    0  501  502  0.00000000000E+00  0.00000000000E+00  0.19168237138E+01  0.19168237138E+01  0.00000000000E+00 0. -1.
         13   -1    0    0    0    0 -0.00000000000E+00 -0.00000000000E+00 -0.10000000000E+04  0.10000000000E+04  0.00000000000E+00 0.  1.
    9000005    2    1    2  501    0  0.22307165398E+02 -0.23619932076E+02 -0.83437655277E+03  0.83501754450E+03  0.38153622535E+01 0.  0.
         13    1    3    3    0    0  0.33704361484E+01 -0.22916551205E+01 -0.83332311460E+02  0.83431922286E+02  0.00000000000E+00 0.  1.
          1    1    3    3  501    0  0.18936729250E+02 -0.21328276955E+02 -0.75104424131E+03  0.75158562222E+03  0.00000000000E+00 0.  1.
         -1    1    1    2    0  502 -0.22307165398E+02  0.23619932076E+02 -0.16370662351E+03  0.16689927921E+03  0.00000000000E+00 0. -1.
<mgrwt>
<rscale>  1 0.30000000E+03</rscale>
<asrwt>0</asrwt>
<pdfrwt beam="1">  1       21 0.69702827E-02 0.30000000E+03</pdfrwt>
<pdfrwt beam="2">0</pdfrwt>
<totfact> 0.16255175E+04</totfact>
</mgrwt>
</event>
<event>
 6    1  0.1270461E-001  0.3000000E+03  0.7818608E-02  0.1093470E+00
         21   -1    0    0  501  502  0.00000000000E+00  0.00000000000E+00  0.22508639557E+01  0.22508639557E+01  0.00000000000E+00 0. -1.
         13   -1    0    0    0    0 -0.00000000000E+00 -0.00000000000E+00 -0.10000000000E+04  0.10000000000E+04  0.00000000000E+00 0.  1.
    9000005    2    1    2  501    0  0.31407898214E+01 -0.36544027105E+02 -0.81640602819E+03  0.81723558555E+03  0.31414876453E+01 0.  0.
         13    1    3    3    0    0 -0.62530812458E+00 -0.41892471047E+01 -0.90101725517E+02  0.90201229164E+02  0.00000000000E+00 0.  1.
          1    1    3    3  501    0  0.37660979459E+01 -0.32354780000E+02 -0.72630430268E+03  0.72703435639E+03  0.00000000000E+00 0.  1.
         -3    1    1    2    0  502 -0.31407898214E+01  0.36544027105E+02 -0.18134310785E+03  0.18501527840E+03  0.00000000000E+00 0. -1.
<mgrwt>
<rscale>  1 0.30000000E+03</rscale>
<asrwt>0</asrwt>
<pdfrwt beam="1">  1       21 0.81849771E-02 0.30000000E+03</pdfrwt>
<pdfrwt beam="2">0</pdfrwt>
<totfact> 0.12270818E+04</totfact>
</mgrwt>
</event>
<event>
 6    1  0.1270461E-001  0.3000000E+03  0.7818608E-02  0.1093470E+00
         21   -1    0    0  501  502  0.00000000000E+00  0.00000000000E+00  0.18915309731E+01  0.18915309731E+01  0.00000000000E+00 0. -1.
         13   -1    0    0    0    0 -0.00000000000E+00 -0.00000000000E+00 -0.10000000000E+04  0.10000000000E+04  0.00000000000E+00 0.  1.
    9000005    2    1    2  501    0  0.17542137487E+02  0.36565545303E+02 -0.67864491223E+03  0.67986400139E+03  0.33730984903E+01 0.  0.
         13    1    3    3    0    0  0.96906589179E+01  0.18093875451E+02 -0.36681376299E+03  0.36738757997E+03  0.00000000000E+00 0.  1.
          1    1    3    3  501    0  0.78514785690E+01  0.18471669852E+02 -0.31183114925E+03  0.31247642142E+03  0.00000000000E+00 0.  1.
         -1    1    1    2    0  502 -0.17542137487E+02 -0.36565545303E+02 -0.31946355679E+03  0.32202752958E+03  0.00000000000E+00 0. -1.
<mgrwt>
<rscale>  1 0.30000000E+03</rscale>
<asrwt>0</asrwt>
<pdfrwt beam="1">  1       21 0.68783090E-02 0.30000000E+03</pdfrwt>
<pdfrwt beam="2">0</pdfrwt>
<totfact> 0.16634989E+04</totfact>
</mgrwt>
</event>
<event>
 6    1  0.1270461E-001  0.3000000E+03  0.7818608E-02  0.1093470E+00
         21   -1    0    0  501  502  0.00000000000E+00  0.00000000000E+00  0.41909126934E+01  0.41909126934E+01  0.00000000000E+00 0. -1.
         13   -1    0    0    0    0 -0.00000000000E+00 -0.00000000000E+00 -0.10000000000E+04  0.10000000000E+04  0.00000000000E+00 0.  1.
    9000005    2    1    2  501    0 -0.32921958136E+02  0.80739797925E+01 -0.92562058210E+03  0.92624560661E+03  0.29012551382E+01 0.  0.
         13    1    3    3    0    0 -0.17976071563E+02  0.51621004864E+01 -0.54382289157E+03  0.54414439611E+03  0.00000000000E+00 0.  1.
          1    1    3    3  501    0 -0.14945886573E+02  0.29118793061E+01 -0.38179769053E+03  0.38210121050E+03  0.00000000000E+00 0.  1.
         -1    1    1    2    0  502  0.32921958136E+02 -0.80739797925E+01 -0.70188505208E+02  0.77945306084E+02  0.00000000000E+00 0. -1.
<mgrwt>
<rscale>  1 0.30000000E+03</rscale>
<asrwt>0</asrwt>
<pdfrwt beam="1">  1       21 0.15239715E-01 0.30000000E+03</pdfrwt>
<pdfrwt beam="2">0</pdfrwt>
<totfact> 0.39988340E+03</totfact>
</mgrwt>
</event>
<event>
 6    1  0.1270461E-001  0.3000000E+03  0.7818608E-02  0.1093470E+00
         21   -1    0    0  501  502  0.00000000000E+00  0.00000000000E+00  0.11608665578E+01  0.11608665578E+01  0.00000000000E+00 0. -1.
         13   -1    0    0    0    0 -0.00000000000E+00 -0.00000000000E+00 -0.10000000000E+04  0.10000000000E+04  0.00000000000E+00 0.  1.
    9000005    2    1    2  501    0  0.28830242606E+02  0.17236014381E+02 -0.57561214549E+03  0.57660304198E+03  0.36691828389E+01 0.  0.
         13    1    3    3    0    0  0.57211980663E+01  0.30804847018E+01 -0.89014184623E+02  0.89251031128E+02  0.00000000000E+00 0.  1.
          3    1    3    3  501    0  0.23109044539E+02  0.14155529679E+02 -0.48659796086E+03  0.48735201085E+03  0.00000000000E+00 0.  1.
         -3    1    1    2    0  502 -0.28830242606E+02 -0.17236014381E+02 -0.42322698795E+03  0.42455782458E+03  0.00000000000E+00 0. -1.
<mgrwt>
<rscale>  1 0.30000000E+03</rscale>
<asrwt>0</asrwt>
<pdfrwt beam="1">  1       21 0.42213418E-02 0.30000000E+03</pdfrwt>
<pdfrwt beam="2">0</pdfrwt>
<totfact> 0.38396365E+04</totfact>
</mgrwt>
</event>
<event>
 6    1  0.1270461E-001  0.3000000E+03  0.7818608E-02  0.1093470E+00
         21   -1    0    0  501  502  0.00000000000E+00  0.00000000000E+00  0.39474580903E+01  0.39474580903E+01  0.00000000000E+00 0. -1.
         13   -1    0    0    0    0 -0.00000000000E+00 -0.00000000000E+00 -0.10000000000E+04  0.10000000000E+04  0.00000000000E+00 0.  1.
    9000005    2    1    2  501    0 -0.14932330535E+02  0.33023672470E+02 -0.90799073614E+03  0.90871921085E+03  0.31448048767E+01 0.  0.
         13    1    3    3    0    0 -0.98760544468E+01  0.24242226514E+02 -0.62871267295E+03  0.62925737749E+03  0.00000000000E+00 0.  1.
          1    1    3    3  501    0 -0.50562760880E+01  0.87814459555E+01 -0.27927806319E+03  0.27946183335E+03  0.00000000000E+00 0.  1.
         -1    1    1    2    0  502  0.14932330535E+02 -0.33023672470E+02 -0.88061805765E+02  0.95228247244E+02  0.00000000000E+00 0. -1.
<mgrwt>
<rscale>  1 0.30000000E+03</rscale>
<asrwt>0</asrwt>
<pdfrwt beam="1">  1       21 0.14354423E-01 0.30000000E+03</pdfrwt>
<pdfrwt beam="2">0</pdfrwt>
<totfact> 0.44664642E+03</totfact>
</mgrwt>
</event>
<event>
 6    1  0.1270461E-001  0.3000000E+03  0.7818608E-02  0.1093470E+00
         21   -1    0    0  501  502  0.00000000000E+00  0.00000000000E+00  0.16593278306E+01  0.16593278306E+01  0.00000000000E+00 0. -1.
         13   -1    0    0    0    0 -0.00000000000E+00 -0.00000000000E+00 -0.10000000000E+04  0.10000000000E+04  0.00000000000E+00 0.  1.
    9000005    2    1    2  501    0 -0.78473135955E+01 -0.38481214816E+02 -0.60737599316E+03  0.60872706336E+03  0.10032765457E+02 0.  0.
         13    1    3    3    0    0 -0.91451938011E+01 -0.35637266889E+02 -0.52263194255E+03  0.52392537325E+03  0.00000000000E+00 0.  1.
          3    1    3    3  501    0  0.12978802056E+01 -0.28439479278E+01 -0.84744050607E+02  0.84801690113E+02  0.00000000000E+00 0.  1.
         -3    1    1    2    0  502  0.78473135955E+01  0.38481214816E+02 -0.39096467901E+03  0.39293226447E+03  0.00000000000E+00 0. -1.
<mgrwt>
<rscale>  1 0.30000000E+03</rscale>
<asrwt>0</asrwt>
<pdfrwt beam="1">  1       21 0.60339321E-02 0.30000000E+03</pdfrwt>
<pdfrwt beam="2">0</pdfrwt>
<totfact> 0.20867693E+04</totfact>
</mgrwt>
</event>
<event>
 6    1  0.1270461E-001  0.3000000E+03  0.7818608E-02  0.1093470E+00
         21   -1    0    0  501  502  0.00000000000E+00  0.00000000000E+00  0.80247159241E+01  0.80247159241E+01  0.00000000000E+00 0. -1.
         13   -1    0    0    0    0 -0.00000000000E+00 -0.00000000000E+00 -0.10000000000E+04  0.10000000000E+04  0.00000000000E+00 0.  1.
    9000005    2    1    2  501    0 -0.11265439605E+02 -0.30902840636E+02 -0.96476435562E+03  0.96533595491E+03  0.46204216334E+01 0.  0.
         13    1    3    3    0    0 -0.82956406933E+01 -0.17266363704E+02 -0.59521104453E+03  0.59551921254E+03  0.00000000000E+00 0.  1.
          1    1    3    3  501    0 -0.29697989113E+01 -0.13636476932E+02 -0.36955331108E+03  0.36981674237E+03  0.00000000000E+00 0.  1.
         -3    1    1    2    0  502  0.11265439605E+02  0.30902840636E+02 -0.27210928460E+02  0.42688761009E+02  0.00000000000E+00 0. -1.
<mgrwt>
<rscale>  1 0.30000000E+03</rscale>
<asrwt>0</asrwt>
<pdfrwt beam="1">  1       21 0.29180847E-01 0.30000000E+03</pdfrwt>
<pdfrwt beam="2">0</pdfrwt>
<totfact> 0.11490710E+03</totfact>
</mgrwt>
</event>
<event>
 6    1  0.1270461E-001  0.3000000E+03  0.7818608E-02  0.1093470E+00
         21   -1    0    0  501  502  0.00000000000E+00  0.00000000000E+00  0.14342560902E+01  0.14342560902E+01  0.00000000000E+00 0. -1.
         13   -1    0    0    0    0 -0.00000000000E+00 -0.00000000000E+00 -0.10000000000E+04  0.10000000000E+04  0.00000000000E+00 0.  1.
    9000005    2    1    2  501    0 -0.30571680384E+02 -0.19579435162E+02 -0.63895840945E+03  0.63999903794E+03  0.35968921715E+01 0.  0.
         13    1    3    3    0    0 -0.57910450066E+01 -0.33815146194E+01 -0.14396405128E+03  0.14412015440E+03  0.00000000000E+00 0.  1.
          3    1    3    3  501    0 -0.24780635377E+02 -0.16197920543E+02 -0.49499435816E+03  0.49587888353E+03  0.00000000000E+00 0.  1.
         -3    1    1    2    0  502  0.30571680384E+02  0.19579435162E+02 -0.35960733446E+03  0.36143521815E+03  0.00000000000E+00 0. -1.
<mgrwt>
<rscale>  1 0.30000000E+03</rscale>
<asrwt>0</asrwt>
<pdfrwt beam="1">  1       21 0.52154877E-02 0.30000000E+03</pdfrwt>
<pdfrwt beam="2">0</pdfrwt>
<totfact> 0.26803349E+04</totfact>
</mgrwt>
</event>
<event>
 6    1  0.1270461E-001  0.3000000E+03  0.7818608E-02  0.1093470E+00
         21   -1    0    0  501  502  0.00000000000E+00  0.00000000000E+00  0.41890564133E+01  0.41890564133E+01  0.00000000000E+00 0. -1.
         13   -1    0    0    0    0 -0.00000000000E+00 -0.00000000000E+00 -0.10000000000E+04  0.10000000000E+04  0.00000000000E+00 0.  1.
    9000005    2    1    2  501    0  0.56525808063E+02 -0.28482914012E+02 -0.60153029219E+03  0.60486002487E+03  0.32425137594E+01 0.  0.
         13    1    3    3    0    0  0.85246450209E+01 -0.39035304255E+01 -0.79110602375E+02  0.79664261313E+02  0.00000000000E+00 0.  1.
          3    1    3    3  501    0  0.48001163042E+02 -0.24579383586E+02 -0.52241968981E+03  0.52519576355E+03  0.00000000000E+00 0.  1.
         -3    1    1    2    0  502 -0.56525808063E+02  0.28482914012E+02 -0.39428065140E+03  0.39932903155E+03  0.00000000000E+00 0. -1.
<mgrwt>
<rscale>  1 0.30000000E+03</rscale>
<asrwt>0</asrwt>
<pdfrwt beam="1">  1       21 0.15232965E-01 0.30000000E+03</pdfrwt>
<pdfrwt beam="2">0</pdfrwt>
<totfact> 0.40021207E+03</totfact>
</mgrwt>
</event>
<event>
 6    1  0.1270461E-001  0.3000000E+03  0.7818608E-02  0.1093470E+00
         21   -1    0    0  501  502  0.00000000000E+00  0.00000000000E+00  0.15589653965E+01  0.15589653965E+01  0.00000000000E+00 0. -1.
         13   -1    0    0    0    0 -0.00000000000E+00 -0.00000000000E+00 -0.10000000000E+04  0.10000000000E+04  0.00000000000E+00 0.  1.
    9000005    2    1    2  501    0 -0.33454990939E+02 -0.19254529330E+02 -0.58218445358E+03  0.58351648602E+03  0.79232662163E+01 0.  0.
         13    1    3    3    0    0 -0.18819354814E+02 -0.68782746395E+01 -0.26805894580E+03  0.26880676554E+03  0.00000000000E+00 0.  1.
          3    1    3    3  501    0 -0.14635636125E+02 -0.12376254690E+02 -0.31412550778E+03  0.31470972048E+03  0.00000000000E+00 0.  1.
         -1    1    1    2    0  502  0.33454990939E+02  0.19254529330E+02 -0.41625658102E+03  0.41804247938E+03  0.00000000000E+00 0. -1.
<mgrwt>
<rscale>  1 0.30000000E+03</rscale>
<asrwt>0</asrwt>
<pdfrwt beam="1">  1       21 0.56689770E-02 0.30000000E+03</pdfrwt>
<pdfrwt beam="2">0</pdfrwt>
<totfact> 0.23235238E+04</totfact>
</mgrwt>
</event>
<event>
 6    1  0.1270461E-001  0.3000000E+03  0.7818608E-02  0.1093470E+00
         21   -1    0    0  501  502  0.00000000000E+00  0.00000000000E+00  0.16596888236E+01  0.16596888236E+01  0.00000000000E+00 0. -1.
         13   -1    0    0    0    0 -0.00000000000E+00 -0.00000000000E+00 -0.10000000000E+04  0.10000000000E+04  0.00000000000E+00 0.  1.
    9000005    2    1    2  501    0 -0.32373729490E+02  0.17626469890E+02 -0.71189797016E+03  0.71285531640E+03  0.22872265535E+01 0.  0.
         13    1    3    3    0    0 -0.62701389665E+01  0.44566658287E+01 -0.14542374319E+03  0.14562706341E+03  0.00000000000E+00 0.  1.
          1    1    3    3  501    0 -0.26103590523E+02  0.13169804061E+02 -0.56647422697E+03  0.56722825300E+03  0.00000000000E+00 0.  1.
         -1    1    1    2    0  502  0.32373729490E+02 -0.17626469890E+02 -0.28644234102E+03  0.28880437242E+03  0.00000000000E+00 0. -1.
<mgrwt>
<rscale>  1 0.30000000E+03</rscale>
<asrwt>0</asrwt>
<pdfrwt beam="1">  1       21 0.60352448E-02 0.30000000E+03</pdfrwt>
<pdfrwt beam="2">0</pdfrwt>
<totfact> 0.20859864E+04</totfact>
</mgrwt>
</event>
<event>
 6    1  0.1270461E-001  0.3000000E+03  0.7818608E-02  0.1093470E+00
         21   -1    0    0  501  502  0.00000000000E+00  0.00000000000E+00  0.16977765171E+01  0.16977765171E+01  0.00000000000E+00 0. -1.
         13   -1    0    0    0    0 -0.00000000000E+00 -0.00000000000E+00 -0.10000000000E+04  0.10000000000E+04  0.00000000000E+00 0.  1.
    9000005    2    1    2  501    0  0.16511241692E+02 -0.27231098004E+02 -0.81621879121E+03  0.81685046085E+03  0.41721058471E+01 0.  0.
         13    1    3    3    0    0  0.62444253255E+01 -0.12214339373E+02 -0.39770600155E+03  0.39794251670E+03  0.00000000000E+00 0.  1.
          1    1    3    3  501    0  0.10266816366E+02 -0.15016758631E+02 -0.41851278966E+03  0.41890794415E+03  0.00000000000E+00 0.  1.
         -1    1    1    2    0  502 -0.16511241692E+02  0.27231098004E+02 -0.18208343227E+03  0.18484731567E+03  0.00000000000E+00 0. -1.
<mgrwt>
<rscale>  1 0.30000000E+03</rscale>
<asrwt>0</asrwt>
<pdfrwt beam="1">  1       21 0.61737458E-02 0.30000000E+03</pdfrwt>
<pdfrwt beam="2">0</pdfrwt>
<totfact> 0.20058799E+04</totfact>
</mgrwt>
</event>
<event>
 6    1  0.1270461E-001  0.3000000E+03  0.7818608E-02  0.1093470E+00
         21   -1    0    0  501  502  0.00000000000E+00  0.00000000000E+00  0.17588072465E+01  0.17588072465E+01  0.00000000000E+00 0. -1.
         13   -1    0    0    0    0 -0.00000000000E+00 -0.00000000000E+00 -0.10000000000E+04  0.10000000000E+04  0.00000000000E+00 0.  1.
    9000005    2    1    2  501    0  0.26637162281E+02 -0.16507865142E+02 -0.83154272792E+03  0.83214033478E+03  0.34900395178E+01 0.  0.
         13    1    3    3    0    0  0.16993559650E+02 -0.94745643379E+01 -0.47658022368E+03  0.47697720914E+03  0.00000000000E+00 0.  1.
          3    1    3    3  501    0  0.96436026303E+01 -0.70333008041E+01 -0.35496250425E+03  0.35516312564E+03  0.00000000000E+00 0.  1.
         -1    1    1    2    0  502 -0.26637162281E+02  0.16507865142E+02 -0.16669846483E+03  0.16961847247E+03  0.00000000000E+00 0. -1.
<mgrwt>
<rscale>  1 0.30000000E+03</rscale>
<asrwt>0</asrwt>
<pdfrwt beam="1">  1       21 0.63956762E-02 0.30000000E+03</pdfrwt>
<pdfrwt beam="2">0</pdfrwt>
<totfact> 0.18871125E+04</totfact>
</mgrwt>
</event>
<event>
 6    1  0.1270461E-001  0.3000000E+03  0.7818608E-02  0.1093470E+00
         21   -1    0    0  501  502  0.00000000000E+00  0.00000000000E+00  0.37558525030E+01  0.37558525030E+01  0.00000000000E+00 0. -1.
         13   -1    0    0    0    0 -0.00000000000E+00 -0.00000000000E+00 -0.10000000000E+04  0.10000000000E+04  0.00000000000E+00 0.  1.
    9000005    2    1    2  501    0 -0.28850317899E+02 -0.19733004204E+02 -0.91025057040E+03  0.91093006083E+03  0.39676834064E+01 0.  0.
         13    1    3    3    0    0 -0.27748457426E+02 -0.19754162194E+02 -0.88586401605E+03  0.88651861726E+03  0.00000000000E+00 0.  1.
          1    1    3    3  501    0 -0.11018604731E+01  0.21157989525E-01 -0.24386554357E+02  0.24411443578E+02  0.00000000000E+00 0.  1.
         -1    1    1    2    0  502  0.28850317899E+02  0.19733004204E+02 -0.85993577094E+02  0.92825791670E+02  0.00000000000E+00 0. -1.
<mgrwt>
<rscale>  1 0.30000000E+03</rscale>
<asrwt>0</asrwt>
<pdfrwt beam="1">  1       21 0.13657674E-01 0.30000000E+03</pdfrwt>
<pdfrwt beam="2">0</pdfrwt>
<totfact> 0.48940547E+03</totfact>
</mgrwt>
</event>
<event>
 6    1  0.1270461E-001  0.3000000E+03  0.7818608E-02  0.1093470E+00
         21   -1    0    0  501  502  0.00000000000E+00  0.00000000000E+00  0.13739863163E+01  0.13739863163E+01  0.00000000000E+00 0. -1.
         13   -1    0    0    0    0 -0.00000000000E+00 -0.00000000000E+00 -0.10000000000E+04  0.10000000000E+04  0.00000000000E+00 0.  1.
    9000005    2    1    2  501    0 -0.23584617278E+02 -0.28080653217E+02 -0.43289978621E+03  0.43446048170E+03  0.29879770496E+01 0.  0.
         13    1    3    3    0    0 -0.21174930525E+02 -0.25264001735E+02 -0.39869363926E+03  0.40005407816E+03  0.00000000000E+00 0.  1.
          3    1    3    3  501    0 -0.24096867528E+01 -0.28166514818E+01 -0.34206146944E+02  0.34406403540E+02  0.00000000000E+00 0.  1.
         -1    1    1    2    0  502  0.23584617278E+02  0.28080653217E+02 -0.56572622748E+03  0.56691350461E+03  0.00000000000E+00 0. -1.
<mgrwt>
<rscale>  1 0.30000000E+03</rscale>
<asrwt>0</asrwt>
<pdfrwt beam="1">  1       21 0.49963244E-02 0.30000000E+03</pdfrwt>
<pdfrwt beam="2">0</pdfrwt>
<totfact> 0.28840788E+04</totfact>
</mgrwt>
</event>
<event>
 6    1  0.1270461E-001  0.3000000E+03  0.7818608E-02  0.1093470E+00
         21   -1    0    0  501  502  0.00000000000E+00  0.00000000000E+00  0.15849357418E+01  0.15849357418E+01  0.00000000000E+00 0. -1.
         13   -1    0    0    0    0 -0.00000000000E+00 -0.00000000000E+00 -0.10000000000E+04  0.10000000000E+04  0.00000000000E+00 0.  1.
    9000005    2    1    2  501    0 -0.39709682475E+02  0.83620228186E+00 -0.51991450397E+03  0.52143876600E+03  0.31204387979E+01 0.  0.
         13    1    3    3    0    0 -0.38506302633E+02  0.96681353068E+00 -0.49584937745E+03  0.49734321669E+03  0.00000000000E+00 0.  1.
          1    1    3    3  501    0 -0.12033798415E+01 -0.13061124882E+00 -0.24065126521E+02  0.24095549315E+02  0.00000000000E+00 0.  1.
         -1    1    1    2    0  502  0.39709682475E+02 -0.83620228186E+00 -0.47850056029E+03  0.48014616974E+03  0.00000000000E+00 0. -1.
<mgrwt>
<rscale>  1 0.30000000E+03</rscale>
<asrwt>0</asrwt>
<pdfrwt beam="1">  1       21 0.57634149E-02 0.30000000E+03</pdfrwt>
<pdfrwt beam="2">0</pdfrwt>
<totfact> 0.22584276E+04</totfact>
</mgrwt>
</event>
<event>
 6    1  0.1270461E-001  0.3000000E+03  0.7818608E-02  0.1093470E+00
         21   -1    0    0  501  502  0.00000000000E+00  0.00000000000E+00  0.15673169281E+01  0.15673169281E+01  0.00000000000E+00 0. -1.
         13   -1    0    0    0    0 -0.00000000000E+00 -0.00000000000E+00 -0.10000000000E+04  0.10000000000E+04  0.00000000000E+00 0.  1.
    9000005    2    1    2  501    0  0.81050855651E+01 -0.35685621350E+02 -0.68822761290E+03  0.68921120358E+03  0.39597985533E+01 0.  0.
         13    1    3    3    0    0 -0.29422057877E+00 -0.45365568825E+01 -0.86041203390E+02  0.86161218625E+02  0.00000000000E+00 0.  1.
          1    1    3    3  501    0  0.83993061438E+01 -0.31149064467E+02 -0.60218640951E+03  0.60304998496E+03  0.00000000000E+00 0.  1.
         -3    1    1    2    0  502 -0.81050855651E+01  0.35685621350E+02 -0.31020507017E+03  0.31235611334E+03  0.00000000000E+00 0. -1.
<mgrwt>
<rscale>  1 0.30000000E+03</rscale>
<asrwt>0</asrwt>
<pdfrwt beam="1">  1       21 0.56993463E-02 0.30000000E+03</pdfrwt>
<pdfrwt beam="2">0</pdfrwt>
<totfact> 0.23022800E+04</totfact>
</mgrwt>
</event>
<event>
 6    1  0.1270461E-001  0.3000000E+03  0.7818608E-02  0.1093470E+00
         21   -1    0    0  501  502  0.00000000000E+00  0.00000000000E+00  0.11152023415E+01  0.11152023415E+01  0.00000000000E+00 0. -1.
         13   -1    0    0    0    0 -0.00000000000E+00 -0.00000000000E+00 -0.10000000000E+04  0.10000000000E+04  0.00000000000E+00 0.  1.
    9000005    2    1    2  501    0 -0.29522074413E+02 -0.13982236712E+02 -0.40366215769E+03  0.40499688611E+03  0.35049084024E+01 0.  0.
         13    1    3    3    0    0 -0.56942392070E+01 -0.24268728957E+01 -0.94576991273E+02  0.94779329763E+02  0.00000000000E+00 0.  1.
          3    1    3    3  501    0 -0.23827835207E+02 -0.11555363816E+02 -0.30908516642E+03  0.31021755634E+03  0.00000000000E+00 0.  1.
         -1    1    1    2    0  502  0.29522074413E+02  0.13982236712E+02 -0.59522263997E+03  0.59611831623E+03  0.00000000000E+00 0. -1.
<mgrwt>
<rscale>  1 0.30000000E+03</rscale>
<asrwt>0</asrwt>
<pdfrwt beam="1">  1       21 0.40552898E-02 0.30000000E+03</pdfrwt>
<pdfrwt beam="2">0</pdfrwt>
<totfact> 0.41086087E+04</totfact>
</mgrwt>
</event>
<event>
 6    1  0.1270461E-001  0.3000000E+03  0.7818608E-02  0.1093470E+00
         21   -1    0    0  501  502  0.00000000000E+00  0.00000000000E+00  0.12575410325E+01  0.12575410325E+01  0.00000000000E+00 0. -1.
         13   -1    0    0    0    0 -0.00000000000E+00 -0.00000000000E+00 -0.10000000000E+04  0.10000000000E+04  0.00000000000E+00 0.  1.
    9000005    2    1    2  501    0  0.73343593899E+01 -0.31855385631E+02 -0.68973541022E+03  0.69052628320E+03  0.48013800990E+01 0.  0.
         13    1    3    3    0    0  0.16680974406E+01 -0.62530491908E+01 -0.18082372097E+03  0.18093949607E+03  0.00000000000E+00 0.  1.
          1    1    3    3  501    0  0.56662619493E+01 -0.25602336440E+02 -0.50891168925E+03  0.50958678713E+03  0.00000000000E+00 0.  1.
         -3    1    1    2    0  502 -0.73343593899E+01  0.31855385631E+02 -0.30900704875E+03  0.31073125784E+03  0.00000000000E+00 0. -1.
<mgrwt>
<rscale>  1 0.30000000E+03</rscale>
<asrwt>0</asrwt>
<pdfrwt beam="1">  1       21 0.45728861E-02 0.30000000E+03</pdfrwt>
<pdfrwt beam="2">0</pdfrwt>
<totfact> 0.33530846E+04</totfact>
</mgrwt>
</event>
<event>
 6    1  0.1270461E-001  0.3000000E+03  0.7818608E-02  0.1093470E+00
         21   -1    0    0  501  502  0.00000000000E+00  0.00000000000E+00  0.20783069790E+01  0.20783069790E+01  0.00000000000E+00 0. -1.
         13   -1    0    0    0    0 -0.00000000000E+00 -0.00000000000E+00 -0.10000000000E+04  0.10000000000E+04  0.00000000000E+00 0.  1.
    9000005    2    1    2  501    0  0.33218741071E+02  0.16322510404E+02 -0.79098296806E+03  0.79185569879E+03  0.33886346687E+01 0.  0.
         13    1    3    3    0    0  0.26940090826E+02  0.14140556373E+02 -0.62620337369E+03  0.62694209385E+03  0.00000000000E+00 0.  1.
          3    1    3    3  501    0  0.62786502445E+01  0.21819540312E+01 -0.16477959437E+03  0.16491360494E+03  0.00000000000E+00 0.  1.
         -1    1    1    2    0  502 -0.33218741071E+02 -0.16322510404E+02 -0.20693872496E+03  0.21022260819E+03  0.00000000000E+00 0. -1.
<mgrwt>
<rscale>  1 0.30000000E+03</rscale>
<asrwt>0</asrwt>
<pdfrwt beam="1">  1       21 0.75574959E-02 0.30000000E+03</pdfrwt>
<pdfrwt beam="2">0</pdfrwt>
<totfact> 0.14114438E+04</totfact>
</mgrwt>
</event>
<event>
 6    1  0.1270461E-001  0.3000000E+03  0.7818608E-02  0.1093470E+00
         21   -1    0    0  501  502  0.00000000000E+00  0.00000000000E+00  0.27432050857E+01  0.27432050857E+01  0.00000000000E+00 0. -1.
         13   -1    0    0    0    0 -0.00000000000E+00 -0.00000000000E+00 -0.10000000000E+04  0.10000000000E+04  0.00000000000E+00 0.  1.
    9000005    2    1    2  501    0 -0.24756770034E+02  0.26465360768E+02 -0.86041951422E+03  0.86118842992E+03  0.32339453996E+01 0.  0.
         13    1    3    3    0    0 -0.90541946176E+01  0.86307746773E+01 -0.32976247945E+03  0.32999963874E+03  0.00000000000E+00 0.  1.
          3    1    3    3  501    0 -0.15702575416E+02  0.17834586090E+02 -0.53065703476E+03  0.53118879119E+03  0.00000000000E+00 0.  1.
         -3    1    1    2    0  502  0.24756770034E+02 -0.26465360768E+02 -0.13683728070E+03  0.14155477517E+03  0.00000000000E+00 0. -1.
<mgrwt>
<rscale>  1 0.30000000E+03</rscale>
<asrwt>0</asrwt>
<pdfrwt beam="1">  1       21 0.99753123E-02 0.30000000E+03</pdfrwt>
<pdfrwt beam="2">0</pdfrwt>
<totfact> 0.86412771E+03</totfact>
</mgrwt>
</event>
<event>
 6    1  0.1270461E-001  0.3000000E+03  0.7818608E-02  0.1093470E+00
         21   -1    0    0  501  502  0.00000000000E+00  0.00000000000E+00  0.42981103394E+01  0.42981103394E+01  0.00000000000E+00 0. -1.
         13   -1    0    0    0    0 -0.00000000000E+00 -0.00000000000E+00 -0.10000000000E+04  0.10000000000E+04  0.00000000000E+00 0.  1.
    9000005    2    1    2  501    0 -0.36299129315E+02 -0.13943431310E+02 -0.90196342508E+03  0.90281438846E+03  0.48737820485E+01 0.  0.
         13    1    3    3    0    0 -0.29136440933E+02 -0.90365793482E+01 -0.69890129594E+03  0.69956673265E+03  0.00000000000E+00 0.  1.
          3    1    3    3  501    0 -0.71626883826E+01 -0.49068519618E+01 -0.20306212914E+03  0.20324765581E+03  0.00000000000E+00 0.  1.
         -3    1    1    2    0  502  0.36299129315E+02  0.13943431310E+02 -0.93738464577E+02  0.10148372188E+03  0.00000000000E+00 0. -1.
<mgrwt>
<rscale>  1 0.30000000E+03</rscale>
<asrwt>0</asrwt>
<pdfrwt beam="1">  1       21 0.15629525E-01 0.30000000E+03</pdfrwt>
<pdfrwt beam="2">0</pdfrwt>
<totfact> 0.38155574E+03</totfact>
</mgrwt>
</event>
<event>
 6    1  0.1270461E-001  0.3000000E+03  0.7818608E-02  0.1093470E+00
         21   -1    0    0  501  502  0.00000000000E+00  0.00000000000E+00  0.37490043004E+01  0.37490043004E+01  0.00000000000E+00 0. -1.
         13   -1    0    0    0    0 -0.00000000000E+00 -0.00000000000E+00 -0.10000000000E+04  0.10000000000E+04  0.00000000000E+00 0.  1.
    9000005    2    1    2  501    0 -0.79129574290E+01 -0.57265522299E+02 -0.66298768967E+03  0.66550887350E+03  0.27256395961E+01 0.  0.
         13    1    3    3    0    0 -0.16962145817E+01 -0.19972136473E+02 -0.22108470703E+03  0.22199146619E+03  0.00000000000E+00 0.  1.
          3    1    3    3  501    0 -0.62167428474E+01 -0.37293385825E+02 -0.44190298264E+03  0.44351740730E+03  0.00000000000E+00 0.  1.
         -3    1    1    2    0  502  0.79129574290E+01  0.57265522299E+02 -0.33326330603E+03  0.33824013080E+03  0.00000000000E+00 0. -1.
<mgrwt>
<rscale>  1 0.30000000E+03</rscale>
<asrwt>0</asrwt>
<pdfrwt beam="1">  1       21 0.13632772E-01 0.30000000E+03</pdfrwt>
<pdfrwt beam="2">0</pdfrwt>
<totfact> 0.49104548E+03</totfact>
</mgrwt>
</event>
<event>
 6    1  0.1270461E-001  0.3000000E+03  0.7818608E-02  0.1093470E+00
         21   -1    0    0  501  502  0.00000000000E+00  0.00000000000E+00  0.11601346528E+01  0.11601346528E+01  0.00000000000E+00 0. -1.
         13   -1    0    0    0    0 -0.00000000000E+00 -0.00000000000E+00 -0.10000000000E+04  0.10000000000E+04  0.00000000000E+00 0.  1.
    9000005    2    1    2  501    0  0.31513637118E+02 -0.10187032681E+02 -0.61042977285E+03  0.61134058036E+03  0.39890660387E+01 0.  0.
         13    1    3    3    0    0  0.25436190034E+02 -0.90409603019E+01 -0.51930835300E+03  0.52000952321E+03  0.00000000000E+00 0.  1.
          1    1    3    3  501    0  0.60774470842E+01 -0.11460723792E+01 -0.91121419850E+02  0.91331057151E+02  0.00000000000E+00 0.  1.
         -1    1    1    2    0  502 -0.31513637118E+02  0.10187032681E+02 -0.38841009249E+03  0.38981955429E+03  0.00000000000E+00 0. -1.
<mgrwt>
<rscale>  1 0.30000000E+03</rscale>
<asrwt>0</asrwt>
<pdfrwt beam="1">  1       21 0.42186804E-02 0.30000000E+03</pdfrwt>
<pdfrwt beam="2">0</pdfrwt>
<totfact> 0.38437291E+04</totfact>
</mgrwt>
</event>
<event>
 6    1  0.1270461E-001  0.3000000E+03  0.7818608E-02  0.1093470E+00
         21   -1    0    0  501  502  0.00000000000E+00  0.00000000000E+00  0.17999663333E+01  0.17999663333E+01  0.00000000000E+00 0. -1.
         13   -1    0    0    0    0 -0.00000000000E+00 -0.00000000000E+00 -0.10000000000E+04  0.10000000000E+04  0.00000000000E+00 0.  1.
    9000005    2    1    2  501    0 -0.30106293082E+02 -0.28324705793E+02 -0.60676315186E+03  0.60818656428E+03  0.45493590961E+01 0.  0.
         13    1    3    3    0    0 -0.92405860933E+01 -0.93467116146E+01 -0.16390930981E+03  0.16443543198E+03  0.00000000000E+00 0.  1.
          3    1    3    3  501    0 -0.20865706989E+02 -0.18977994178E+02 -0.44285384206E+03  0.44375113230E+03  0.00000000000E+00 0.  1.
         -1    1    1    2    0  502  0.30106293082E+02  0.28324705793E+02 -0.39143688180E+03  0.39361340205E+03  0.00000000000E+00 0. -1.
<mgrwt>
<rscale>  1 0.30000000E+03</rscale>
<asrwt>0</asrwt>
<pdfrwt beam="1">  1       21 0.65453459E-02 0.30000000E+03</pdfrwt>
<pdfrwt beam="2">0</pdfrwt>
<totfact> 0.18130449E+04</totfact>
</mgrwt>
</event>
<event>
 6    1  0.1270461E-001  0.3000000E+03  0.7818608E-02  0.1093470E+00
         21   -1    0    0  501  502  0.00000000000E+00  0.00000000000E+00  0.32637004590E+01  0.32637004590E+01  0.00000000000E+00 0. -1.
         13   -1    0    0    0    0 -0.00000000000E+00 -0.00000000000E+00 -0.10000000000E+04  0.10000000000E+04  0.00000000000E+00 0.  1.
    9000005    2    1    2  501    0  0.50146117635E+02  0.27223614156E+02 -0.50517432876E+03  0.50840116459E+03  0.38579066804E+01 0.  0.
         13    1    3    3    0    0  0.30475747312E+02  0.15259169886E+02 -0.28786425329E+03  0.28987487259E+03  0.00000000000E+00 0.  1.
          3    1    3    3  501    0  0.19670370323E+02  0.11964444270E+02 -0.21731007547E+03  0.21852629200E+03  0.00000000000E+00 0.  1.
         -1    1    1    2    0  502 -0.50146117635E+02 -0.27223614156E+02 -0.49156197078E+03  0.49486253586E+03  0.00000000000E+00 0. -1.
<mgrwt>
<rscale>  1 0.30000000E+03</rscale>
<asrwt>0</asrwt>
<pdfrwt beam="1">  1       21 0.11868027E-01 0.30000000E+03</pdfrwt>
<pdfrwt beam="2">0</pdfrwt>
<totfact> 0.63226762E+03</totfact>
</mgrwt>
</event>
<event>
 6    1  0.1270461E-001  0.3000000E+03  0.7818608E-02  0.1093470E+00
         21   -1    0    0  501  502  0.00000000000E+00  0.00000000000E+00  0.91122607030E+00  0.91122607030E+00  0.00000000000E+00 0. -1.
         13   -1    0    0    0    0 -0.00000000000E+00 -0.00000000000E+00 -0.10000000000E+04  0.10000000000E+04  0.00000000000E+00 0.  1.
    9000005    2    1    2  501    0  0.29040741454E+02  0.76747611220E+01 -0.52217244061E+03  0.52304989094E+03  0.38553936875E+01 0.  0.
         13    1    3    3    0    0  0.18800996479E+02  0.63374026839E+01 -0.32097618896E+03  0.32158879647E+03  0.00000000000E+00 0.  1.
          1    1    3    3  501    0  0.10239744975E+02  0.13373584381E+01 -0.20119625165E+03  0.20146109447E+03  0.00000000000E+00 0.  1.
         -3    1    1    2    0  502 -0.29040741454E+02 -0.76747611220E+01 -0.47691633332E+03  0.47786133513E+03  0.00000000000E+00 0. -1.
<mgrwt>
<rscale>  1 0.30000000E+03</rscale>
<asrwt>0</asrwt>
<pdfrwt beam="1">  1       21 0.33135563E-02 0.30000000E+03</pdfrwt>
<pdfrwt beam="2">0</pdfrwt>
<totfact> 0.57657845E+04</totfact>
</mgrwt>
</event>
<event>
 6    1  0.1270461E-001  0.3000000E+03  0.7818608E-02  0.1093470E+00
         21   -1    0    0  501  502  0.00000000000E+00  0.00000000000E+00  0.11486731039E+01  0.11486731039E+01  0.00000000000E+00 0. -1.
         13   -1    0    0    0    0 -0.00000000000E+00 -0.00000000000E+00 -0.10000000000E+04  0.10000000000E+04  0.00000000000E+00 0.  1.
    9000005    2    1    2  501    0  0.32452695231E+02  0.89898134654E+01 -0.54606831654E+03  0.54711514059E+03  0.32212679625E+01 0.  0.
         13    1    3    3    0    0  0.26207040026E+02  0.60188465618E+01 -0.42599707730E+03  0.42684487268E+03  0.00000000000E+00 0.  1.
          3    1    3    3  501    0  0.62456552052E+01  0.29709669036E+01 -0.12007123923E+03  0.12027026792E+03  0.00000000000E+00 0.  1.
         -1    1    1    2    0  502 -0.32452695231E+02 -0.89898134654E+01 -0.45278301036E+03  0.45403353251E+03  0.00000000000E+00 0. -1.
<mgrwt>
<rscale>  1 0.30000000E+03</rscale>
<asrwt>0</asrwt>
<pdfrwt beam="1">  1       21 0.41770019E-02 0.30000000E+03</pdfrwt>
<pdfrwt beam="2">0</pdfrwt>
<totfact> 0.39087136E+04</totfact>
</mgrwt>
</event>
<event>
 6    1  0.1270461E-001  0.3000000E+03  0.7818608E-02  0.1093470E+00
         21   -1    0    0  501  502  0.00000000000E+00  0.00000000000E+00  0.13163734973E+01  0.13163734973E+01  0.00000000000E+00 0. -1.
         13   -1    0    0    0    0 -0.00000000000E+00 -0.00000000000E+00 -0.10000000000E+04  0.10000000000E+04  0.00000000000E+00 0.  1.
    9000005    2    1    2  501    0 -0.28593993904E+02  0.20913923536E+02 -0.45235392301E+03  0.45383929306E+03  0.95406277681E+01 0.  0.
         13    1    3    3    0    0 -0.12087764192E+02  0.35790552657E+01 -0.17580104060E+03  0.17625245971E+03  0.00000000000E+00 0.  1.
          1    1    3    3  501    0 -0.16506229711E+02  0.17334868271E+02 -0.27655288241E+03  0.27758683334E+03  0.00000000000E+00 0.  1.
         -3    1    1    2    0  502  0.28593993904E+02 -0.20913923536E+02 -0.54632970350E+03  0.54747708044E+03  0.00000000000E+00 0. -1.
<mgrwt>
<rscale>  1 0.30000000E+03</rscale>
<asrwt>0</asrwt>
<pdfrwt beam="1">  1       21 0.47868228E-02 0.30000000E+03</pdfrwt>
<pdfrwt beam="2">0</pdfrwt>
<totfact> 0.31023314E+04</totfact>
</mgrwt>
</event>
<event>
 6    1  0.1270461E-001  0.3000000E+03  0.7818608E-02  0.1093470E+00
         21   -1    0    0  501  502  0.00000000000E+00  0.00000000000E+00  0.27582394405E+01  0.27582394405E+01  0.00000000000E+00 0. -1.
         13   -1    0    0    0    0 -0.00000000000E+00 -0.00000000000E+00 -0.10000000000E+04  0.10000000000E+04  0.00000000000E+00 0.  1.
    9000005    2    1    2  501    0  0.35287633083E+02 -0.32223018295E+01 -0.86846205198E+03  0.86919247429E+03  0.36907126725E+01 0.  0.
         13    1    3    3    0    0  0.33696503817E+02 -0.36499021584E+01 -0.83907834751E+03  0.83976261492E+03  0.00000000000E+00 0.  1.
          1    1    3    3  501    0  0.15911292657E+01  0.42760032891E+00 -0.29383704472E+02  0.29429859376E+02  0.00000000000E+00 0.  1.
         -1    1    1    2    0  502 -0.35287633083E+02  0.32223018295E+01 -0.12877970858E+03  0.13356576515E+03  0.00000000000E+00 0. -1.
<mgrwt>
<rscale>  1 0.30000000E+03</rscale>
<asrwt>0</asrwt>
<pdfrwt beam="1">  1       21 0.10029983E-01 0.30000000E+03</pdfrwt>
<pdfrwt beam="2">0</pdfrwt>
<totfact> 0.85572944E+03</totfact>
</mgrwt>
</event>
<event>
 6    1  0.1270461E-001  0.3000000E+03  0.7818608E-02  0.1093470E+00
         21   -1    0    0  501  502  0.00000000000E+00  0.00000000000E+00  0.11168421522E+01  0.11168421522E+01  0.00000000000E+00 0. -1.
         13   -1    0    0    0    0 -0.00000000000E+00 -0.00000000000E+00 -0.10000000000E+04  0.10000000000E+04  0.00000000000E+00 0.  1.
    9000005    2    1    2  501    0 -0.29831984893E+02 -0.12201884986E+02 -0.62746453914E+03  0.62830237939E+03  0.36467454811E+01 0.  0.
         13    1    3    3    0    0 -0.93500756852E+01 -0.51758929452E+01 -0.18524524409E+03  0.18555326524E+03  0.00000000000E+00 0.  1.
          3    1    3    3  501    0 -0.20481909208E+02 -0.70259920405E+01 -0.44221929504E+03  0.44274911414E+03  0.00000000000E+00 0.  1.
         -3    1    1    2    0  502  0.29831984893E+02  0.12201884986E+02 -0.37141861871E+03  0.37281446276E+03  0.00000000000E+00 0. -1.
<mgrwt>
<rscale>  1 0.30000000E+03</rscale>
<asrwt>0</asrwt>
<pdfrwt beam="1">  1       21 0.40612528E-02 0.30000000E+03</pdfrwt>
<pdfrwt beam="2">0</pdfrwt>
<totfact> 0.40984472E+04</totfact>
</mgrwt>
</event>
<event>
 6    1  0.1270461E-001  0.3000000E+03  0.7818608E-02  0.1093470E+00
         21   -1    0    0  501  502  0.00000000000E+00  0.00000000000E+00  0.31588501927E+01  0.31588501927E+01  0.00000000000E+00 0. -1.
         13   -1    0    0    0    0 -0.00000000000E+00 -0.00000000000E+00 -0.10000000000E+04  0.10000000000E+04  0.00000000000E+00 0.  1.
    9000005    2    1    2  501    0  0.24644967461E+02 -0.33075702524E+02 -0.83893229740E+03  0.83995167454E+03  0.31685026616E+01 0.  0.
         13    1    3    3    0    0  0.23073365599E+02 -0.31183445363E+02 -0.80195644748E+03  0.80289409707E+03  0.00000000000E+00 0.  1.
          3    1    3    3  501    0  0.15716018621E+01 -0.18922571611E+01 -0.36975849926E+02  0.37057577461E+02  0.00000000000E+00 0.  1.
         -3    1    1    2    0  502 -0.24644967461E+02  0.33075702524E+02 -0.15790885240E+03  0.16320717566E+03  0.00000000000E+00 0. -1.
<mgrwt>
<rscale>  1 0.30000000E+03</rscale>
<asrwt>0</asrwt>
<pdfrwt beam="1">  1       21 0.11486752E-01 0.30000000E+03</pdfrwt>
<pdfrwt beam="2">0</pdfrwt>
<totfact> 0.67075056E+03</totfact>
</mgrwt>
</event>
<event>
 6    1  0.1270461E-001  0.3000000E+03  0.7818608E-02  0.1093470E+00
         21   -1    0    0  501  502  0.00000000000E+00  0.00000000000E+00  0.96329064517E+00  0.96329064517E+00  0.00000000000E+00 0. -1.
         13   -1    0    0    0    0 -0.00000000000E+00 -0.00000000000E+00 -0.10000000000E+04  0.10000000000E+04  0.00000000000E+00 0.  1.
    9000005    2    1    2  501    0 -0.29117144543E+02 -0.10132158028E+02 -0.46339244739E+03  0.46443254212E+03  0.38153837490E+01 0.  0.
         13    1    3    3    0    0 -0.13321079383E+02 -0.29082155434E+01 -0.21827384704E+03  0.21869929395E+03  0.00000000000E+00 0.  1.
          3    1    3    3  501    0 -0.15796065160E+02 -0.72239424847E+01 -0.24511860035E+03  0.24573324817E+03  0.00000000000E+00 0.  1.
         -3    1    1    2    0  502  0.29117144543E+02  0.10132158028E+02 -0.53564426197E+03  0.53653074852E+03  0.00000000000E+00 0. -1.
<mgrwt>
<rscale>  1 0.30000000E+03</rscale>
<asrwt>0</asrwt>
<pdfrwt beam="1">  1       21 0.35028825E-02 0.30000000E+03</pdfrwt>
<pdfrwt beam="2">0</pdfrwt>
<totfact> 0.52544325E+04</totfact>
</mgrwt>
</event>
<event>
 6    1  0.1270461E-001  0.3000000E+03  0.7818608E-02  0.1093470E+00
         21   -1    0    0  501  502  0.00000000000E+00  0.00000000000E+00  0.58356710716E+01  0.58356710716E+01  0.00000000000E+00 0. -1.
         13   -1    0    0    0    0 -0.00000000000E+00 -0.00000000000E+00 -0.10000000000E+04  0.10000000000E+04  0.00000000000E+00 0.  1.
    9000005    2    1    2  501    0 -0.17246273919E+02  0.41518512283E+02 -0.90362785900E+03  0.90475118555E+03  0.31905115900E+01 0.  0.
         13    1    3    3    0    0 -0.83132451999E+01  0.21362136736E+02 -0.49085606486E+03  0.49139101267E+03  0.00000000000E+00 0.  1.
          1    1    3    3  501    0 -0.89330287190E+01  0.20156375548E+02 -0.41277179415E+03  0.41336017288E+03  0.00000000000E+00 0.  1.
         -3    1    1    2    0  502  0.17246273919E+02 -0.41518512283E+02 -0.90536469926E+02  0.10108448552E+03  0.00000000000E+00 0. -1.
<mgrwt>
<rscale>  1 0.30000000E+03</rscale>
<asrwt>0</asrwt>
<pdfrwt beam="1">  1       21 0.21220667E-01 0.30000000E+03</pdfrwt>
<pdfrwt beam="2">0</pdfrwt>
<totfact> 0.21420484E+03</totfact>
</mgrwt>
</event>
<event>
 6    1  0.1270461E-001  0.3000000E+03  0.7818608E-02  0.1093470E+00
         21   -1    0    0  501  502  0.00000000000E+00  0.00000000000E+00  0.70921316347E+01  0.70921316347E+01  0.00000000000E+00 0. -1.
         13   -1    0    0    0    0 -0.00000000000E+00 -0.00000000000E+00 -0.10000000000E+04  0.10000000000E+04  0.00000000000E+00 0.  1.
    9000005    2    1    2  501    0  0.50570029980E+02 -0.32335731163E+02 -0.84956131704E+03  0.85168569284E+03  0.33407387665E+01 0.  0.
         13    1    3    3    0    0  0.33332679129E+01 -0.27215360420E+01 -0.51632326047E+02  0.51811335888E+02  0.00000000000E+00 0.  1.
          1    1    3    3  501    0  0.47236762068E+02 -0.29614195121E+02 -0.79792899099E+03  0.79987435695E+03  0.00000000000E+00 0.  1.
         -3    1    1    2    0  502 -0.50570029980E+02  0.32335731163E+02 -0.14334655133E+03  0.15540643880E+03  0.00000000000E+00 0. -1.
<mgrwt>
<rscale>  1 0.30000000E+03</rscale>
<asrwt>0</asrwt>
<pdfrwt beam="1">  1       21 0.25789624E-01 0.30000000E+03</pdfrwt>
<pdfrwt beam="2">0</pdfrwt>
<totfact> 0.14672813E+03</totfact>
</mgrwt>
</event>
<event>
 6    1  0.1270461E-001  0.3000000E+03  0.7818608E-02  0.1093470E+00
         21   -1    0    0  501  502  0.00000000000E+00  0.00000000000E+00  0.12813395835E+01  0.12813395835E+01  0.00000000000E+00 0. -1.
         13   -1    0    0    0    0 -0.00000000000E+00 -0.00000000000E+00 -0.10000000000E+04  0.10000000000E+04  0.00000000000E+00 0.  1.
    9000005    2    1    2  501    0  0.32183189468E+02  0.15753183323E+01 -0.71679745903E+03  0.71752474829E+03  0.22198699173E+01 0.  0.
         13    1    3    3    0    0  0.28493995734E+02  0.20308736986E+01 -0.62712233280E+03  0.62777261213E+03  0.00000000000E+00 0.  1.
          1    1    3    3  501    0  0.36891937334E+01 -0.45555536623E+00 -0.89675126228E+02  0.89752136159E+02  0.00000000000E+00 0.  1.
         -1    1    1    2    0  502 -0.32183189468E+02 -0.15753183323E+01 -0.28192120139E+03  0.28375659129E+03  0.00000000000E+00 0. -1.
<mgrwt>
<rscale>  1 0.30000000E+03</rscale>
<asrwt>0</asrwt>
<pdfrwt beam="1">  1       21 0.46594265E-02 0.30000000E+03</pdfrwt>
<pdfrwt beam="2">0</pdfrwt>
<totfact> 0.32479535E+04</totfact>
</mgrwt>
</event>
<event>
 6    1  0.1270461E-001  0.3000000E+03  0.7818608E-02  0.1093470E+00
         21   -1    0    0  501  502  0.00000000000E+00  0.00000000000E+00  0.22585428640E+01  0.22585428640E+01  0.00000000000E+00 0. -1.
         13   -1    0    0    0    0 -0.00000000000E+00 -0.00000000000E+00 -0.10000000000E+04  0.10000000000E+04  0.00000000000E+00 0.  1.
    9000005    2    1    2  501    0 -0.37251739722E+02  0.10092548803E+02 -0.79083349388E+03  0.79178180564E+03  0.33557482663E+01 0.  0.
         13    1    3    3    0    0 -0.21389576045E+02  0.73793891337E+01 -0.44921042677E+03  0.44977992048E+03  0.00000000000E+00 0.  1.
          1    1    3    3  501    0 -0.15862163677E+02  0.27131596690E+01 -0.34162306711E+03  0.34200188516E+03  0.00000000000E+00 0.  1.
         -1    1    1    2    0  502  0.37251739722E+02 -0.10092548803E+02 -0.20690796325E+03  0.21047673722E+03  0.00000000000E+00 0. -1.
<mgrwt>
<rscale>  1 0.30000000E+03</rscale>
<asrwt>0</asrwt>
<pdfrwt beam="1">  1       21 0.82129005E-02 0.30000000E+03</pdfrwt>
<pdfrwt beam="2">0</pdfrwt>
<totfact> 0.12197525E+04</totfact>
</mgrwt>
</event>
<event>
 6    1  0.1270461E-001  0.3000000E+03  0.7818608E-02  0.1093470E+00
         21   -1    0    0  501  502  0.00000000000E+00  0.00000000000E+00  0.15148533692E+01  0.15148533692E+01  0.00000000000E+00 0. -1.
         13   -1    0    0    0    0 -0.00000000000E+00 -0.00000000000E+00 -0.10000000000E+04  0.10000000000E+04  0.00000000000E+00 0.  1.
    9000005    2    1    2  501    0 -0.84763158193E+01  0.29884721756E+02 -0.80040404757E+03  0.80101281764E+03  0.31543844941E+01 0.  0.
         13    1    3    3    0    0 -0.78991638972E+01  0.27405117304E+02 -0.70923307711E+03  0.70980630802E+03  0.00000000000E+00 0.  1.
          1    1    3    3  501    0 -0.57715192210E+00  0.24796044514E+01 -0.91170970462E+02  0.91206509623E+02  0.00000000000E+00 0.  1.
         -3    1    1    2    0  502  0.84763158193E+01 -0.29884721756E+02 -0.19808109906E+03  0.20050203573E+03  0.00000000000E+00 0. -1.
<mgrwt>
<rscale>  1 0.30000000E+03</rscale>
<asrwt>0</asrwt>
<pdfrwt beam="1">  1       21 0.55085693E-02 0.30000000E+03</pdfrwt>
<pdfrwt beam="2">0</pdfrwt>
<totfact> 0.24408899E+04</totfact>
</mgrwt>
</event>
<event>
 6    1  0.1420119E-001  0.3000000E+03  0.7818608E-02  0.1093470E+00
         21   -1    0    0  501  502  0.00000000000E+00  0.00000000000E+00  0.16863910465E+01  0.16863910465E+01  0.00000000000E+00 0. -1.
         13   -1    0    0    0    0 -0.00000000000E+00 -0.00000000000E+00 -0.10000000000E+04  0.10000000000E+04  0.00000000000E+00 0.  1.
    9000005    2    1    2  501    0  0.34737817365E+01  0.30738205721E+02 -0.82373433710E+03  0.82438769784E+03  0.10950515422E+02 0.  0.
         13    1    3    3    0    0 -0.20365479051E+01  0.23084999133E+02 -0.62551757395E+03  0.62594672300E+03  0.00000000000E+00 0.  1.
          3    1    3    3  501    0  0.55103296416E+01  0.76532065878E+01 -0.19821676315E+03  0.19844097485E+03  0.00000000000E+00 0.  1.
         -1    1    1    2    0  502 -0.34737817365E+01 -0.30738205721E+02 -0.17457927185E+03  0.17729869320E+03  0.00000000000E+00 0. -1.
<mgrwt>
<rscale>  1 0.30000000E+03</rscale>
<asrwt>0</asrwt>
<pdfrwt beam="1">  1       21 0.61323440E-02 0.30000000E+03</pdfrwt>
<pdfrwt beam="2">0</pdfrwt>
<totfact> 0.20293180E+04</totfact>
</mgrwt>
</event>
<event>
 6    1  0.1270461E-001  0.3000000E+03  0.7818608E-02  0.1093470E+00
         21   -1    0    0  501  502  0.00000000000E+00  0.00000000000E+00  0.13694443822E+01  0.13694443822E+01  0.00000000000E+00 0. -1.
         13   -1    0    0    0    0 -0.00000000000E+00 -0.00000000000E+00 -0.10000000000E+04  0.10000000000E+04  0.00000000000E+00 0.  1.
    9000005    2    1    2  501    0  0.29931524167E+02 -0.41461605939E+01 -0.78763496444E+03  0.78822107755E+03  0.32470139439E+01 0.  0.
         13    1    3    3    0    0  0.10145387677E+02 -0.92909902457E+00 -0.30463713616E+03  0.30480744224E+03  0.00000000000E+00 0.  1.
          3    1    3    3  501    0  0.19786136490E+02 -0.32170615693E+01 -0.48299782828E+03  0.48341363531E+03  0.00000000000E+00 0.  1.
         -1    1    1    2    0  502 -0.29931524167E+02  0.41461605939E+01 -0.21099559118E+03  0.21314836683E+03  0.00000000000E+00 0. -1.
<mgrwt>
<rscale>  1 0.30000000E+03</rscale>
<asrwt>0</asrwt>
<pdfrwt beam="1">  1       21 0.49798083E-02 0.30000000E+03</pdfrwt>
<pdfrwt beam="2">0</pdfrwt>
<totfact> 0.29004023E+04</totfact>
</mgrwt>
</event>
<event>
 6    1  0.1270461E-001  0.3000000E+03  0.7818608E-02  0.1093470E+00
         21   -1    0    0  501  502  0.00000000000E+00  0.00000000000E+00  0.42267557623E+01  0.42267557623E+01  0.00000000000E+00 0. -1.
         13   -1    0    0    0    0 -0.00000000000E+00 -0.00000000000E+00 -0.10000000000E+04  0.10000000000E+04  0.00000000000E+00 0.  1.
    9000005    2    1    2  501    0  0.15269903442E+02  0.35187105261E+02 -0.90322112204E+03  0.90404094014E+03  0.32130717093E+01 0.  0.
         13    1    3    3    0    0  0.15167375937E+02  0.34162731776E+02 -0.86732380660E+03  0.86812886545E+03  0.00000000000E+00 0.  1.
          3    1    3    3  501    0  0.10252750540E+00  0.10243734857E+01 -0.35897315438E+02  0.35912074691E+02  0.00000000000E+00 0.  1.
         -3    1    1    2    0  502 -0.15269903442E+02 -0.35187105261E+02 -0.92552122202E+02  0.10018581562E+03  0.00000000000E+00 0. -1.
<mgrwt>
<rscale>  1 0.30000000E+03</rscale>
<asrwt>0</asrwt>
<pdfrwt beam="1">  1       21 0.15370053E-01 0.30000000E+03</pdfrwt>
<pdfrwt beam="2">0</pdfrwt>
<totfact> 0.39361414E+03</totfact>
</mgrwt>
</event>
<event>
 6    1  0.1270461E-001  0.3000000E+03  0.7818608E-02  0.1093470E+00
         21   -1    0    0  501  502  0.00000000000E+00  0.00000000000E+00  0.10098803885E+01  0.10098803885E+01  0.00000000000E+00 0. -1.
         13   -1    0    0    0    0 -0.00000000000E+00 -0.00000000000E+00 -0.10000000000E+04  0.10000000000E+04  0.00000000000E+00 0.  1.
    9000005    2    1    2  501    0  0.27935705747E+02 -0.13357866007E+02 -0.60741821057E+03  0.60821553701E+03  0.32281091031E+01 0.  0.
         13    1    3    3    0    0  0.13906097047E+02 -0.83796474730E+01 -0.32476681049E+03  0.32517238386E+03  0.00000000000E+00 0.  1.
          1    1    3    3  501    0  0.14029608700E+02 -0.49782185343E+01 -0.28265140008E+03  0.28304315315E+03  0.00000000000E+00 0.  1.
         -3    1    1    2    0  502 -0.27935705747E+02  0.13357866007E+02 -0.39157190905E+03  0.39279434338E+03  0.00000000000E+00 0. -1.
<mgrwt>
<rscale>  1 0.30000000E+03</rscale>
<asrwt>0</asrwt>
<pdfrwt beam="1">  1       21 0.36723001E-02 0.30000000E+03</pdfrwt>
<pdfrwt beam="2">0</pdfrwt>
<totfact> 0.48543798E+04</totfact>
</mgrwt>
</event>
<event>
 6    1  0.1270461E-001  0.3000000E+03  0.7818608E-02  0.1093470E+00
         21   -1    0    0  501  502  0.00000000000E+00  0.00000000000E+00  0.19108341588E+02  0.19108341588E+02  0.00000000000E+00 0. -1.
         13   -1    0    0    0    0 -0.00000000000E+00 -0.00000000000E+00 -0.10000000000E+04  0.10000000000E+04  0.00000000000E+00 0.  1.
    9000005    2    1    2  501    0  0.36810871832E+02 -0.46434644297E+02 -0.95079599648E+03  0.95264808773E+03  0.37597405915E+01 0.  0.
         13    1    3    3    0    0  0.19884424900E+02 -0.22857018252E+02 -0.50599134324E+03  0.50689749760E+03  0.00000000000E+00 0.  1.
          1    1    3    3  501    0  0.16926446932E+02 -0.23577626045E+02 -0.44480465324E+03  0.44575059013E+03  0.00000000000E+00 0.  1.
         -3    1    1    2    0  502 -0.36810871832E+02  0.46434644297E+02 -0.30095661929E+02  0.66460253859E+02  0.00000000000E+00 0. -1.
<mgrwt>
<rscale>  1 0.30000000E+03</rscale>
<asrwt>0</asrwt>
<pdfrwt beam="1">  1       21 0.69485025E-01 0.30000000E+03</pdfrwt>
<pdfrwt beam="2">0</pdfrwt>
<totfact> 0.17948176E+02</totfact>
</mgrwt>
</event>
<event>
 6    1  0.1270461E-001  0.3000000E+03  0.7818608E-02  0.1093470E+00
         21   -1    0    0  501  502  0.00000000000E+00  0.00000000000E+00  0.41324550199E+01  0.41324550199E+01  0.00000000000E+00 0. -1.
         13   -1    0    0    0    0 -0.00000000000E+00 -0.00000000000E+00 -0.10000000000E+04  0.10000000000E+04  0.00000000000E+00 0.  1.
    9000005    2    1    2  501    0 -0.40226041363E+02  0.44768056844E+02 -0.67367609553E+03  0.67636783915E+03  0.34145030297E+01 0.  0.
         13    1    3    3    0    0 -0.36374595507E+02  0.40086246651E+02 -0.61618993450E+03  0.61856289393E+03  0.00000000000E+00 0.  1.
          1    1    3    3  501    0 -0.38514458560E+01  0.46818101932E+01 -0.57486161027E+02  0.57804945217E+02  0.00000000000E+00 0.  1.
         -3    1    1    2    0  502  0.40226041363E+02 -0.44768056844E+02 -0.32219144945E+03  0.32776461587E+03  0.00000000000E+00 0. -1.
<mgrwt>
<rscale>  1 0.30000000E+03</rscale>
<asrwt>0</asrwt>
<pdfrwt beam="1">  1       21 0.15027141E-01 0.30000000E+03</pdfrwt>
<pdfrwt beam="2">0</pdfrwt>
<totfact> 0.41042788E+03</totfact>
</mgrwt>
</event>
<event>
 6    1  0.1270461E-001  0.3000000E+03  0.7818608E-02  0.1093470E+00
         21   -1    0    0  501  502  0.00000000000E+00  0.00000000000E+00  0.75826391431E+01  0.75826391431E+01  0.00000000000E+00 0. -1.
         13   -1    0    0    0    0 -0.00000000000E+00 -0.00000000000E+00 -0.10000000000E+04  0.10000000000E+04  0.00000000000E+00 0.  1.
    9000005    2    1    2  501    0  0.77754647296E+00 -0.67207199351E+02 -0.81639537234E+03  0.81916514350E+03  0.35659674124E+01 0.  0.
         13    1    3    3    0    0  0.17580596363E+01 -0.54968582936E+02 -0.65744213346E+03  0.65973842902E+03  0.00000000000E+00 0.  1.
          1    1    3    3  501    0 -0.98051316330E+00 -0.12238616415E+02 -0.15895323888E+03  0.15942671447E+03  0.00000000000E+00 0.  1.
         -3    1    1    2    0  502 -0.77754647296E+00  0.67207199351E+02 -0.17602198852E+03  0.18841749565E+03  0.00000000000E+00 0. -1.
<mgrwt>
<rscale>  1 0.30000000E+03</rscale>
<asrwt>0</asrwt>
<pdfrwt beam="1">  1       21 0.27573291E-01 0.30000000E+03</pdfrwt>
<pdfrwt beam="2">0</pdfrwt>
<totfact> 0.12859321E+03</totfact>
</mgrwt>
</event>
<event>
 6    1  0.1270461E-001  0.3000000E+03  0.7818608E-02  0.1093470E+00
         21   -1    0    0  501  502  0.00000000000E+00  0.00000000000E+00  0.12427613277E+01  0.12427613277E+01  0.00000000000E+00 0. -1.
         13   -1    0    0    0    0 -0.00000000000E+00 -0.00000000000E+00 -0.10000000000E+04  0.10000000000E+04  0.00000000000E+00 0.  1.
    9000005    2    1    2  501    0 -0.31649585648E+02 -0.17137115498E+01 -0.71611830827E+03  0.71683214610E+03  0.42733071895E+01 0.  0.
         13    1    3    3    0    0 -0.19269738221E+02 -0.14779672489E-01 -0.39263633369E+03  0.39310890802E+03  0.00000000000E+00 0.  1.
          3    1    3    3  501    0 -0.12379847427E+02 -0.16989318773E+01 -0.32348197458E+03  0.32372323808E+03  0.00000000000E+00 0.  1.
         -1    1    1    2    0  502  0.31649585648E+02  0.17137115498E+01 -0.28263893040E+03  0.28441061523E+03  0.00000000000E+00 0. -1.
<mgrwt>
<rscale>  1 0.30000000E+03</rscale>
<asrwt>0</asrwt>
<pdfrwt beam="1">  1       21 0.45191416E-02 0.30000000E+03</pdfrwt>
<pdfrwt beam="2">0</pdfrwt>
<totfact> 0.34210843E+04</totfact>
</mgrwt>
</event>
<event>
 6    1  0.1270461E-001  0.3000000E+03  0.7818608E-02  0.1093470E+00
         21   -1    0    0  501  502  0.00000000000E+00  0.00000000000E+00  0.10819497711E+01  0.10819497711E+01  0.00000000000E+00 0. -1.
         13   -1    0    0    0    0 -0.00000000000E+00 -0.00000000000E+00 -0.10000000000E+04  0.10000000000E+04  0.00000000000E+00 0.  1.
    9000005    2    1    2  501    0 -0.22356420061E+02  0.21792853491E+02 -0.65466504258E+03  0.65541611221E+03  0.30371347283E+01 0.  0.
         13    1    3    3    0    0 -0.20630223225E+02  0.18823069139E+02 -0.57878609296E+03  0.57945945108E+03  0.00000000000E+00 0.  1.
          3    1    3    3  501    0 -0.17261968355E+01  0.29697843526E+01 -0.75878949624E+02  0.75956661134E+02  0.00000000000E+00 0.  1.
         -3    1    1    2    0  502  0.22356420061E+02 -0.21792853491E+02 -0.34425300765E+03  0.34566583756E+03  0.00000000000E+00 0. -1.
<mgrwt>
<rscale>  1 0.30000000E+03</rscale>
<asrwt>0</asrwt>
<pdfrwt beam="1">  1       21 0.39343711E-02 0.30000000E+03</pdfrwt>
<pdfrwt beam="2">0</pdfrwt>
<totfact> 0.43234719E+04</totfact>
</mgrwt>
</event>
<event>
 6    1  0.1270461E-001  0.3000000E+03  0.7818608E-02  0.1093470E+00
         21   -1    0    0  501  502  0.00000000000E+00  0.00000000000E+00  0.14514084010E+01  0.14514084010E+01  0.00000000000E+00 0. -1.
         13   -1    0    0    0    0 -0.00000000000E+00 -0.00000000000E+00 -0.10000000000E+04  0.10000000000E+04  0.00000000000E+00 0.  1.
    9000005    2    1    2  501    0  0.12305333661E+02  0.33772755935E+02 -0.66190571850E+03  0.66289499613E+03  0.43099227715E+01 0.  0.
         13    1    3    3    0    0  0.80953009216E+00  0.43118208677E+00 -0.20301713365E+02  0.20322421669E+02  0.00000000000E+00 0.  1.
          3    1    3    3  501    0  0.11495803569E+02  0.33341573848E+02 -0.64160400514E+03  0.64257257447E+03  0.00000000000E+00 0.  1.
         -3    1    1    2    0  502 -0.12305333661E+02 -0.33772755935E+02 -0.33664287310E+03  0.33855641227E+03  0.00000000000E+00 0. -1.
<mgrwt>
<rscale>  1 0.30000000E+03</rscale>
<asrwt>0</asrwt>
<pdfrwt beam="1">  1       21 0.52778599E-02 0.30000000E+03</pdfrwt>
<pdfrwt beam="2">0</pdfrwt>
<totfact> 0.26264210E+04</totfact>
</mgrwt>
</event>
<event>
 6    1  0.1270461E-001  0.3000000E+03  0.7818608E-02  0.1093470E+00
         21   -1    0    0  501  502  0.00000000000E+00  0.00000000000E+00  0.67523355392E+01  0.67523355392E+01  0.00000000000E+00 0. -1.
         13   -1    0    0    0    0 -0.00000000000E+00 -0.00000000000E+00 -0.10000000000E+04  0.10000000000E+04  0.00000000000E+00 0.  1.
    9000005    2    1    2  501    0  0.33078262106E+02  0.24883222797E+02 -0.93140346509E+03  0.93233425174E+03  0.46255794314E+01 0.  0.
         13    1    3    3    0    0  0.47780612818E+01  0.30344657363E+01 -0.96800561525E+02  0.96965904128E+02  0.00000000000E+00 0.  1.
          3    1    3    3  501    0  0.28300200824E+02  0.21848757060E+02 -0.83460290356E+03  0.83536834761E+03  0.00000000000E+00 0.  1.
         -1    1    1    2    0  502 -0.33078262106E+02 -0.24883222797E+02 -0.61844199375E+02  0.74418083804E+02  0.00000000000E+00 0. -1.
<mgrwt>
<rscale>  1 0.30000000E+03</rscale>
<asrwt>0</asrwt>
<pdfrwt beam="1">  1       21 0.24553999E-01 0.30000000E+03</pdfrwt>
<pdfrwt beam="2">0</pdfrwt>
<totfact> 0.16154474E+03</totfact>
</mgrwt>
</event>
<event>
 6    1  0.1270461E-001  0.3000000E+03  0.7818608E-02  0.1093470E+00
         21   -1    0    0  501  502  0.00000000000E+00  0.00000000000E+00  0.94995112498E+01  0.94995112498E+01  0.00000000000E+00 0. -1.
         13   -1    0    0    0    0 -0.00000000000E+00 -0.00000000000E+00 -0.10000000000E+04  0.10000000000E+04  0.00000000000E+00 0.  1.
    9000005    2    1    2  501    0 -0.33965187310E+02 -0.91744871925E+01 -0.96595456895E+03  0.96660070773E+03  0.33005683844E+01 0.  0.
         13    1    3    3    0    0 -0.68355518123E+01 -0.72157562803E+00 -0.16909705145E+03  0.16923669297E+03  0.00000000000E+00 0.  1.
          3    1    3    3  501    0 -0.27129635498E+02 -0.84529115644E+01 -0.79685751750E+03  0.79736401476E+03  0.00000000000E+00 0.  1.
         -1    1    1    2    0  502  0.33965187310E+02  0.91744871925E+01 -0.24545919800E+02  0.42898803515E+02  0.00000000000E+00 0. -1.
<mgrwt>
<rscale>  1 0.30000000E+03</rscale>
<asrwt>0</asrwt>
<pdfrwt beam="1">  1       21 0.34543750E-01 0.30000000E+03</pdfrwt>
<pdfrwt beam="2">0</pdfrwt>
<totfact> 0.81742524E+02</totfact>
</mgrwt>
</event>
<event>
 6    1  0.1270461E-001  0.3000000E+03  0.7818608E-02  0.1093470E+00
         21   -1    0    0  501  502  0.00000000000E+00  0.00000000000E+00  0.44338470037E+01  0.44338470037E+01  0.00000000000E+00 0. -1.
         13   -1    0    0    0    0 -0.00000000000E+00 -0.00000000000E+00 -0.10000000000E+04  0.10000000000E+04  0.00000000000E+00 0.  1.
    9000005    2    1    2  501    0 -0.14504968335E+02 -0.50796204504E+02 -0.80326760341E+03  0.80501122875E+03  0.36860854547E+01 0.  0.
         13    1    3    3    0    0 -0.68583188599E+01 -0.25809255040E+02 -0.43297801819E+03  0.43380078195E+03  0.00000000000E+00 0.  1.
          1    1    3    3  501    0 -0.76466494748E+01 -0.24986949464E+02 -0.37028958522E+03  0.37121044680E+03  0.00000000000E+00 0.  1.
         -3    1    1    2    0  502  0.14504968335E+02  0.50796204504E+02 -0.19229854958E+03  0.19942261825E+03  0.00000000000E+00 0. -1.
<mgrwt>
<rscale>  1 0.30000000E+03</rscale>
<asrwt>0</asrwt>
<pdfrwt beam="1">  1       21 0.16123114E-01 0.30000000E+03</pdfrwt>
<pdfrwt beam="2">0</pdfrwt>
<totfact> 0.36008348E+03</totfact>
</mgrwt>
</event>
<event>
 6    1  0.1270461E-001  0.3000000E+03  0.7818608E-02  0.1093470E+00
         21   -1    0    0  501  502  0.00000000000E+00  0.00000000000E+00  0.57125162745E+01  0.57125162745E+01  0.00000000000E+00 0. -1.
         13   -1    0    0    0    0 -0.00000000000E+00 -0.00000000000E+00 -0.10000000000E+04  0.10000000000E+04  0.00000000000E+00 0.  1.
    9000005    2    1    2  501    0  0.34878522263E+02  0.15931207245E+02 -0.93043440998E+03  0.93123077551E+03  0.35001881081E+01 0.  0.
         13    1    3    3    0    0  0.49187597892E+01  0.19654662420E+01 -0.10249570955E+03  0.10263248868E+03  0.00000000000E+00 0.  1.
          1    1    3    3  501    0  0.29959762474E+02  0.13965741003E+02 -0.82793870042E+03  0.82859828684E+03  0.00000000000E+00 0.  1.
         -3    1    1    2    0  502 -0.34878522263E+02 -0.15931207245E+02 -0.63853073750E+02  0.74481740761E+02  0.00000000000E+00 0. -1.
<mgrwt>
<rscale>  1 0.30000000E+03</rscale>
<asrwt>0</asrwt>
<pdfrwt beam="1">  1       21 0.20772830E-01 0.30000000E+03</pdfrwt>
<pdfrwt beam="2">0</pdfrwt>
<totfact> 0.22314431E+03</totfact>
</mgrwt>
</event>
<event>
 6    1  0.1270461E-001  0.3000000E+03  0.7818608E-02  0.1093470E+00
         21   -1    0    0  501  502  0.00000000000E+00  0.00000000000E+00  0.19188893766E+01  0.19188893766E+01  0.00000000000E+00 0. -1.
         13   -1    0    0    0    0 -0.00000000000E+00 -0.00000000000E+00 -0.10000000000E+04  0.10000000000E+04  0.00000000000E+00 0.  1.
    9000005    2    1    2  501    0  0.22240748299E+02  0.37377879495E+02 -0.44925424238E+03  0.45137126377E+03  0.38583281614E+01 0.  0.
         13    1    3    3    0    0  0.14047439713E+02  0.27048856029E+02 -0.31560451125E+03  0.31707282869E+03  0.00000000000E+00 0.  1.
          1    1    3    3  501    0  0.81933085860E+01  0.10329023466E+02 -0.13364973114E+03  0.13429843508E+03  0.00000000000E+00 0.  1.
         -3    1    1    2    0  502 -0.22240748299E+02 -0.37377879495E+02 -0.54882686824E+03  0.55054762561E+03  0.00000000000E+00 0. -1.
<mgrwt>
<rscale>  1 0.30000000E+03</rscale>
<asrwt>0</asrwt>
<pdfrwt beam="1">  1       21 0.69777943E-02 0.30000000E+03</pdfrwt>
<pdfrwt beam="2">0</pdfrwt>
<totfact> 0.16224743E+04</totfact>
</mgrwt>
</event>
<event>
 6    1  0.1270461E-001  0.3000000E+03  0.7818608E-02  0.1093470E+00
         21   -1    0    0  501  502  0.00000000000E+00  0.00000000000E+00  0.10802975363E+01  0.10802975363E+01  0.00000000000E+00 0. -1.
         13   -1    0    0    0    0 -0.00000000000E+00 -0.00000000000E+00 -0.10000000000E+04  0.10000000000E+04  0.00000000000E+00 0.  1.
    9000005    2    1    2  501    0  0.16376739766E+02  0.27210975572E+02 -0.62464823970E+03  0.62546378747E+03  0.33001933233E+01 0.  0.
         13    1    3    3    0    0  0.10994341379E+02  0.18979863754E+02 -0.45911208839E+03  0.45963574760E+03  0.00000000000E+00 0.  1.
          1    1    3    3  501    0  0.53823983875E+01  0.82311118178E+01 -0.16553615131E+03  0.16582803987E+03  0.00000000000E+00 0.  1.
         -1    1    1    2    0  502 -0.16376739766E+02 -0.27210975572E+02 -0.37427146276E+03  0.37561651007E+03  0.00000000000E+00 0. -1.
<mgrwt>
<rscale>  1 0.30000000E+03</rscale>
<asrwt>0</asrwt>
<pdfrwt beam="1">  1       21 0.39283630E-02 0.30000000E+03</pdfrwt>
<pdfrwt beam="2">0</pdfrwt>
<totfact> 0.43346039E+04</totfact>
</mgrwt>
</event>
<event>
 6    1  0.1270461E-001  0.3000000E+03  0.7818608E-02  0.1093470E+00
         21   -1    0    0  501  502  0.00000000000E+00  0.00000000000E+00  0.14929864997E+01  0.14929864997E+01  0.00000000000E+00 0. -1.
         13   -1    0    0    0    0 -0.00000000000E+00 -0.00000000000E+00 -0.10000000000E+04  0.10000000000E+04  0.00000000000E+00 0.  1.
    9000005    2    1    2  501    0 -0.31184247212E+02  0.17802570565E+02 -0.68243245592E+03  0.68338527716E+03  0.34628529711E+01 0.  0.
         13    1    3    3    0    0 -0.26569598561E+02  0.15283013194E+02 -0.55708562028E+03  0.55792822333E+03  0.00000000000E+00 0.  1.
          3    1    3    3  501    0 -0.46146486511E+01  0.25195573715E+01 -0.12534683563E+03  0.12545705383E+03  0.00000000000E+00 0.  1.
         -1    1    1    2    0  502  0.31184247212E+02 -0.17802570565E+02 -0.31607455758E+03  0.31810770934E+03  0.00000000000E+00 0. -1.
<mgrwt>
<rscale>  1 0.30000000E+03</rscale>
<asrwt>0</asrwt>
<pdfrwt beam="1">  1       21 0.54290533E-02 0.30000000E+03</pdfrwt>
<pdfrwt beam="2">0</pdfrwt>
<totfact> 0.25024845E+04</totfact>
</mgrwt>
</event>
<event>
 6    1  0.1270461E-001  0.3000000E+03  0.7818608E-02  0.1093470E+00
         21   -1    0    0  501  502  0.00000000000E+00  0.00000000000E+00  0.17609892285E+01  0.17609892285E+01  0.00000000000E+00 0. -1.
         13   -1    0    0    0    0 -0.00000000000E+00 -0.00000000000E+00 -0.10000000000E+04  0.10000000000E+04  0.00000000000E+00 0.  1.
    9000005    2    1    2  501    0 -0.29651239133E+02 -0.59639142274E+01 -0.84606332053E+03  0.84660878991E+03  0.29217357268E+01 0.  0.
         13    1    3    3    0    0 -0.21614455112E+02 -0.40715256987E+01 -0.57793204409E+03  0.57835042109E+03  0.00000000000E+00 0.  1.
          1    1    3    3  501    0 -0.80367840213E+01 -0.18923885288E+01 -0.26813127644E+03  0.26825836881E+03  0.00000000000E+00 0.  1.
         -3    1    1    2    0  502  0.29651239133E+02  0.59639142274E+01 -0.15217569024E+03  0.15515219932E+03  0.00000000000E+00 0. -1.
<mgrwt>
<rscale>  1 0.30000000E+03</rscale>
<asrwt>0</asrwt>
<pdfrwt beam="1">  1       21 0.64036107E-02 0.30000000E+03</pdfrwt>
<pdfrwt beam="2">0</pdfrwt>
<totfact> 0.18830695E+04</totfact>
</mgrwt>
</event>
<event>
 6    1  0.1270461E-001  0.3000000E+03  0.7818608E-02  0.1093470E+00
         21   -1    0    0  501  502  0.00000000000E+00  0.00000000000E+00  0.23054909738E+01  0.23054909738E+01  0.00000000000E+00 0. -1.
         13   -1    0    0    0    0 -0.00000000000E+00 -0.00000000000E+00 -0.10000000000E+04  0.10000000000E+04  0.00000000000E+00 0.  1.
    9000005    2    1    2  501    0  0.37173754464E+02  0.17752642005E+02 -0.75577760006E+03  0.75690615283E+03  0.31779106093E+01 0.  0.
         13    1    3    3    0    0  0.34170558727E+02  0.16920938354E+02 -0.70933122865E+03  0.71035535979E+03  0.00000000000E+00 0.  1.
          1    1    3    3  501    0  0.30031957372E+01  0.83170365087E+00 -0.46446371415E+02  0.46550793046E+02  0.00000000000E+00 0.  1.
         -3    1    1    2    0  502 -0.37173754464E+02 -0.17752642005E+02 -0.24191690896E+03  0.24539933814E+03  0.00000000000E+00 0. -1.
<mgrwt>
<rscale>  1 0.30000000E+03</rscale>
<asrwt>0</asrwt>
<pdfrwt beam="1">  1       21 0.83836212E-02 0.30000000E+03</pdfrwt>
<pdfrwt beam="2">0</pdfrwt>
<totfact> 0.11763652E+04</totfact>
</mgrwt>
</event>
<event>
 6    1  0.1270461E-001  0.3000000E+03  0.7818608E-02  0.1093470E+00
         21   -1    0    0  501  502  0.00000000000E+00  0.00000000000E+00  0.22488671804E+01  0.22488671804E+01  0.00000000000E+00 0. -1.
         13   -1    0    0    0    0 -0.00000000000E+00 -0.00000000000E+00 -0.10000000000E+04  0.10000000000E+04  0.00000000000E+00 0.  1.
    9000005    2    1    2  501    0 -0.29382348875E+02 -0.35112978848E+02 -0.62784274926E+03  0.62951778994E+03  0.31442567458E+01 0.  0.
         13    1    3    3    0    0 -0.69867158793E+01 -0.74545043342E+01 -0.15684528826E+03  0.15717769652E+03  0.00000000000E+00 0.  1.
          3    1    3    3  501    0 -0.22395632996E+02 -0.27658474514E+02 -0.47099746100E+03  0.47234009342E+03  0.00000000000E+00 0.  1.
         -1    1    1    2    0  502  0.29382348875E+02  0.35112978848E+02 -0.36990838356E+03  0.37273107724E+03  0.00000000000E+00 0. -1.
<mgrwt>
<rscale>  1 0.30000000E+03</rscale>
<asrwt>0</asrwt>
<pdfrwt beam="1">  1       21 0.81777161E-02 0.30000000E+03</pdfrwt>
<pdfrwt beam="2">0</pdfrwt>
<totfact> 0.12289987E+04</totfact>
</mgrwt>
</event>
<event>
 6    1  0.1270461E-001  0.3000000E+03  0.7818608E-02  0.1093470E+00
         21   -1    0    0  501  502  0.00000000000E+00  0.00000000000E+00  0.14247140166E+01  0.14247140166E+01  0.00000000000E+00 0. -1.
         13   -1    0    0    0    0 -0.00000000000E+00 -0.00000000000E+00 -0.10000000000E+04  0.10000000000E+04  0.00000000000E+00 0.  1.
    9000005    2    1    2  501    0  0.15870254919E+02  0.33246978762E+02 -0.39718800833E+03  0.39891007991E+03  0.37028779896E+01 0.  0.
         13    1    3    3    0    0  0.16083250485E+02  0.32826303706E+02 -0.39222023822E+03  0.39391998227E+03  0.00000000000E+00 0.  1.
          3    1    3    3  501    0 -0.21299556616E+00  0.42067505628E+00 -0.49677701072E+01  0.49900976395E+01  0.00000000000E+00 0.  1.
         -1    1    1    2    0  502 -0.15870254919E+02 -0.33246978762E+02 -0.60138727765E+03  0.60251463410E+03  0.00000000000E+00 0. -1.
<mgrwt>
<rscale>  1 0.30000000E+03</rscale>
<asrwt>0</asrwt>
<pdfrwt beam="1">  1       21 0.51807892E-02 0.30000000E+03</pdfrwt>
<pdfrwt beam="2">0</pdfrwt>
<totfact> 0.27110743E+04</totfact>
</mgrwt>
</event>
<event>
 6    1  0.1270461E-001  0.3000000E+03  0.7818608E-02  0.1093470E+00
         21   -1    0    0  501  502  0.00000000000E+00  0.00000000000E+00  0.14230853728E+01  0.14230853728E+01  0.00000000000E+00 0. -1.
         13   -1    0    0    0    0 -0.00000000000E+00 -0.00000000000E+00 -0.10000000000E+04  0.10000000000E+04  0.00000000000E+00 0.  1.
    9000005    2    1    2  501    0 -0.14787009209E+02 -0.32292419522E+02 -0.66642700859E+03  0.66737965095E+03  0.30306311162E+01 0.  0.
         13    1    3    3    0    0 -0.95540308085E+01 -0.19718435849E+02 -0.43657689800E+03  0.43712639371E+03  0.00000000000E+00 0.  1.
          1    1    3    3  501    0 -0.52329784007E+01 -0.12573983673E+02 -0.22985011059E+03  0.23025325724E+03  0.00000000000E+00 0.  1.
         -1    1    1    2    0  502  0.14787009209E+02  0.32292419522E+02 -0.33214990604E+03  0.33404343442E+03  0.00000000000E+00 0. -1.
<mgrwt>
<rscale>  1 0.30000000E+03</rscale>
<asrwt>0</asrwt>
<pdfrwt beam="1">  1       21 0.51748668E-02 0.30000000E+03</pdfrwt>
<pdfrwt beam="2">0</pdfrwt>
<totfact> 0.27163756E+04</totfact>
</mgrwt>
</event>
<event>
 6    1  0.1270461E-001  0.3000000E+03  0.7818608E-02  0.1093470E+00
         21   -1    0    0  501  502  0.00000000000E+00  0.00000000000E+00  0.27544293008E+01  0.27544293008E+01  0.00000000000E+00 0. -1.
         13   -1    0    0    0    0 -0.00000000000E+00 -0.00000000000E+00 -0.10000000000E+04  0.10000000000E+04  0.00000000000E+00 0.  1.
    9000005    2    1    2  501    0  0.25339897387E+02  0.32588850285E+02 -0.80796088420E+03  0.80902049808E+03  0.30384793028E+01 0.  0.
         13    1    3    3    0    0  0.28481922488E+01  0.29209581518E+01 -0.65731163816E+02  0.65857650217E+02  0.00000000000E+00 0.  1.
          1    1    3    3  501    0  0.22491705139E+02  0.29667892133E+02 -0.74222972039E+03  0.74316284787E+03  0.00000000000E+00 0.  1.
         -3    1    1    2    0  502 -0.25339897387E+02 -0.32588850285E+02 -0.18928468650E+03  0.19373393122E+03  0.00000000000E+00 0. -1.
<mgrwt>
<rscale>  1 0.30000000E+03</rscale>
<asrwt>0</asrwt>
<pdfrwt beam="1">  1       21 0.10016128E-01 0.30000000E+03</pdfrwt>
<pdfrwt beam="2">0</pdfrwt>
<totfact> 0.85784598E+03</totfact>
</mgrwt>
</event>
<event>
 6    1  0.1270461E-001  0.3000000E+03  0.7818608E-02  0.1093470E+00
         21   -1    0    0  501  502  0.00000000000E+00  0.00000000000E+00  0.57173473987E+01  0.57173473987E+01  0.00000000000E+00 0. -1.
         13   -1    0    0    0    0 -0.00000000000E+00 -0.00000000000E+00 -0.10000000000E+04  0.10000000000E+04  0.00000000000E+00 0.  1.
    9000005    2    1    2  501    0  0.10723512157E+02  0.35183491623E+02 -0.93645391165E+03  0.93718242874E+03  0.34791229999E+01 0.  0.
         13    1    3    3    0    0  0.61989403255E+01  0.23554330706E+02 -0.58396386226E+03  0.58447157825E+03  0.00000000000E+00 0.  1.
          1    1    3    3  501    0  0.45245718312E+01  0.11629160916E+02 -0.35249004939E+03  0.35271085049E+03  0.00000000000E+00 0.  1.
         -1    1    1    2    0  502 -0.10723512157E+02 -0.35183491623E+02 -0.57828740953E+02  0.68534918662E+02  0.00000000000E+00 0. -1.
<mgrwt>
<rscale>  1 0.30000000E+03</rscale>
<asrwt>0</asrwt>
<pdfrwt beam="1">  1       21 0.20790398E-01 0.30000000E+03</pdfrwt>
<pdfrwt beam="2">0</pdfrwt>
<totfact> 0.22278334E+03</totfact>
</mgrwt>
</event>
<event>
 6    1  0.1270461E-001  0.3000000E+03  0.7818608E-02  0.1093470E+00
         21   -1    0    0  501  502  0.00000000000E+00  0.00000000000E+00  0.20141842077E+01  0.20141842077E+01  0.00000000000E+00 0. -1.
         13   -1    0    0    0    0 -0.00000000000E+00 -0.00000000000E+00 -0.10000000000E+04  0.10000000000E+04  0.00000000000E+00 0.  1.
    9000005    2    1    2  501    0  0.19263124794E+02  0.23785964152E+02 -0.86490101947E+03  0.86545502823E+03  0.46682279253E+01 0.  0.
         13    1    3    3    0    0  0.17771053608E+02  0.20571192189E+02 -0.72590336977E+03  0.72641220154E+03  0.00000000000E+00 0.  1.
          1    1    3    3  501    0  0.14920711863E+01  0.32147719621E+01 -0.13899764970E+03  0.13904282670E+03  0.00000000000E+00 0.  1.
         -3    1    1    2    0  502 -0.19263124794E+02 -0.23785964152E+02 -0.13308479632E+03  0.13655915597E+03  0.00000000000E+00 0. -1.
<mgrwt>
<rscale>  1 0.30000000E+03</rscale>
<asrwt>0</asrwt>
<pdfrwt beam="1">  1       21 0.73243217E-02 0.30000000E+03</pdfrwt>
<pdfrwt beam="2">0</pdfrwt>
<totfact> 0.14910037E+04</totfact>
</mgrwt>
</event>
<event>
 6    1  0.1270461E-001  0.3000000E+03  0.7818608E-02  0.1093470E+00
         21   -1    0    0  501  502  0.00000000000E+00  0.00000000000E+00  0.23649760861E+01  0.23649760861E+01  0.00000000000E+00 0. -1.
         13   -1    0    0    0    0 -0.00000000000E+00 -0.00000000000E+00 -0.10000000000E+04  0.10000000000E+04  0.00000000000E+00 0.  1.
    9000005    2    1    2  501    0 -0.30707370930E+02  0.12905700112E+02 -0.86272736441E+03  0.86340607454E+03  0.78768352767E+01 0.  0.
         13    1    3    3    0    0 -0.13428422979E+02  0.49014766455E+01 -0.46994354142E+03  0.47016090771E+03  0.00000000000E+00 0.  1.
          1    1    3    3  501    0 -0.17278947951E+02  0.80042234669E+01 -0.39278382299E+03  0.39324516683E+03  0.00000000000E+00 0.  1.
         -1    1    1    2    0  502  0.30707370930E+02 -0.12905700112E+02 -0.13490765951E+03  0.13895890155E+03  0.00000000000E+00 0. -1.
<mgrwt>
<rscale>  1 0.30000000E+03</rscale>
<asrwt>0</asrwt>
<pdfrwt beam="1">  1       21 0.85999312E-02 0.30000000E+03</pdfrwt>
<pdfrwt beam="2">0</pdfrwt>
<totfact> 0.11246950E+04</totfact>
</mgrwt>
</event>
<event>
 6    1  0.1270461E-001  0.3000000E+03  0.7818608E-02  0.1093470E+00
         21   -1    0    0  501  502  0.00000000000E+00  0.00000000000E+00  0.96067357237E+00  0.96067357237E+00  0.00000000000E+00 0. -1.
         13   -1    0    0    0    0 -0.00000000000E+00 -0.00000000000E+00 -0.10000000000E+04  0.10000000000E+04  0.00000000000E+00 0.  1.
    9000005    2    1    2  501    0  0.30342395394E+02  0.89705430163E+00 -0.40913837057E+03  0.41027919986E+03  0.36537516122E+01 0.  0.
         13    1    3    3    0    0  0.15083825365E+02 -0.71925138567E+00 -0.18406469481E+03  0.18468310964E+03  0.00000000000E+00 0.  1.
          1    1    3    3  501    0  0.15258570029E+02  0.16163056873E+01 -0.22507367576E+03  0.22559609022E+03  0.00000000000E+00 0.  1.
         -3    1    1    2    0  502 -0.30342395394E+02 -0.89705430163E+00 -0.58990095585E+03  0.59068147371E+03  0.00000000000E+00 0. -1.
<mgrwt>
<rscale>  1 0.30000000E+03</rscale>
<asrwt>0</asrwt>
<pdfrwt beam="1">  1       21 0.34933658E-02 0.30000000E+03</pdfrwt>
<pdfrwt beam="2">0</pdfrwt>
<totfact> 0.52784222E+04</totfact>
</mgrwt>
</event>
<event>
 6    1  0.1270461E-001  0.3000000E+03  0.7818608E-02  0.1093470E+00
         21   -1    0    0  501  502  0.00000000000E+00  0.00000000000E+00  0.10151074011E+01  0.10151074011E+01  0.00000000000E+00 0. -1.
         13   -1    0    0    0    0 -0.00000000000E+00 -0.00000000000E+00 -0.10000000000E+04  0.10000000000E+04  0.00000000000E+00 0.  1.
    9000005    2    1    2  501    0  0.19446169556E+02 -0.24969506479E+02 -0.45821217737E+03  0.45931707409E+03  0.34850093497E+01 0.  0.
         13    1    3    3    0    0  0.65074455199E+01 -0.10635962472E+02 -0.16604998218E+03  0.16651746794E+03  0.00000000000E+00 0.  1.
          1    1    3    3  501    0  0.12938724036E+02 -0.14333544007E+02 -0.29216219519E+03  0.29279960615E+03  0.00000000000E+00 0.  1.
         -3    1    1    2    0  502 -0.19446169556E+02  0.24969506479E+02 -0.54077271523E+03  0.54169803331E+03  0.00000000000E+00 0. -1.
<mgrwt>
<rscale>  1 0.30000000E+03</rscale>
<asrwt>0</asrwt>
<pdfrwt beam="1">  1       21 0.36913074E-02 0.30000000E+03</pdfrwt>
<pdfrwt beam="2">0</pdfrwt>
<totfact> 0.48125050E+04</totfact>
</mgrwt>
</event>
<event>
 6    1  0.1270461E-001  0.3000000E+03  0.7818608E-02  0.1093470E+00
         21   -1    0    0  501  502  0.00000000000E+00  0.00000000000E+00  0.59474996741E+01  0.59474996741E+01  0.00000000000E+00 0. -1.
         13   -1    0    0    0    0 -0.00000000000E+00 -0.00000000000E+00 -0.10000000000E+04  0.10000000000E+04  0.00000000000E+00 0.  1.
    9000005    2    1    2  501    0 -0.24825540115E+02 -0.39100317650E+02 -0.89914290027E+03  0.90033985570E+03  0.29594561126E+01 0.  0.
         13    1    3    3    0    0 -0.20921313525E+02 -0.31751713000E+02 -0.75508685429E+03  0.75604366948E+03  0.00000000000E+00 0.  1.
          1    1    3    3  501    0 -0.39042265892E+01 -0.73486046499E+01 -0.14405604597E+03  0.14429618622E+03  0.00000000000E+00 0.  1.
         -1    1    1    2    0  502  0.24825540115E+02  0.39100317650E+02 -0.94909600060E+02  0.10560764397E+03  0.00000000000E+00 0. -1.
<mgrwt>
<rscale>  1 0.30000000E+03</rscale>
<asrwt>0</asrwt>
<pdfrwt beam="1">  1       21 0.21627317E-01 0.30000000E+03</pdfrwt>
<pdfrwt beam="2">0</pdfrwt>
<totfact> 0.20653730E+03</totfact>
</mgrwt>
</event>
<event>
 6    1  0.1270461E-001  0.3000000E+03  0.7818608E-02  0.1093470E+00
         21   -1    0    0  501  502  0.00000000000E+00  0.00000000000E+00  0.38087695585E+01  0.38087695585E+01  0.00000000000E+00 0. -1.
         13   -1    0    0    0    0 -0.00000000000E+00 -0.00000000000E+00 -0.10000000000E+04  0.10000000000E+04  0.00000000000E+00 0.  1.
    9000005    2    1    2  501    0  0.41594799906E+02 -0.45354213511E+02 -0.53159539087E+03  0.53515492480E+03  0.31625745868E+01 0.  0.
         13    1    3    3    0    0  0.15110231453E+02 -0.18677390195E+02 -0.21081011994E+03  0.21217462305E+03  0.00000000000E+00 0.  1.
          3    1    3    3  501    0  0.26484568453E+02 -0.26676823316E+02 -0.32078527094E+03  0.32298030175E+03  0.00000000000E+00 0.  1.
         -1    1    1    2    0  502 -0.41594799906E+02  0.45354213511E+02 -0.46459583957E+03  0.46865384476E+03  0.00000000000E+00 0. -1.
<mgrwt>
<rscale>  1 0.30000000E+03</rscale>
<asrwt>0</asrwt>
<pdfrwt beam="1">  1       21 0.13850100E-01 0.30000000E+03</pdfrwt>
<pdfrwt beam="2">0</pdfrwt>
<totfact> 0.47700492E+03</totfact>
</mgrwt>
</event>
<event>
 6    1  0.1270461E-001  0.3000000E+03  0.7818608E-02  0.1093470E+00
         21   -1    0    0  501  502  0.00000000000E+00  0.00000000000E+00  0.30317286546E+01  0.30317286546E+01  0.00000000000E+00 0. -1.
         13   -1    0    0    0    0 -0.00000000000E+00 -0.00000000000E+00 -0.10000000000E+04  0.10000000000E+04  0.00000000000E+00 0.  1.
    9000005    2    1    2  501    0 -0.17510916984E+02  0.31420426063E+02 -0.87792856172E+03  0.87867607798E+03  0.43835075657E+01 0.  0.
         13    1    3    3    0    0 -0.72414381668E+01  0.17481667316E+02 -0.45498045138E+03  0.45537375666E+03  0.00000000000E+00 0.  1.
          3    1    3    3  501    0 -0.10269478818E+02  0.13938758747E+02 -0.42294811035E+03  0.42330232132E+03  0.00000000000E+00 0.  1.
         -1    1    1    2    0  502  0.17510916984E+02 -0.31420426063E+02 -0.11903970962E+03  0.12435565068E+03  0.00000000000E+00 0. -1.
<mgrwt>
<rscale>  1 0.30000000E+03</rscale>
<asrwt>0</asrwt>
<pdfrwt beam="1">  1       21 0.11024491E-01 0.30000000E+03</pdfrwt>
<pdfrwt beam="2">0</pdfrwt>
<totfact> 0.72230608E+03</totfact>
</mgrwt>
</event>
<event>
 6    1  0.1270461E-001  0.3000000E+03  0.7818608E-02  0.1093470E+00
         21   -1    0    0  501  502  0.00000000000E+00  0.00000000000E+00  0.18155136081E+01  0.18155136081E+01  0.00000000000E+00 0. -1.
         13   -1    0    0    0    0 -0.00000000000E+00 -0.00000000000E+00 -0.10000000000E+04  0.10000000000E+04  0.00000000000E+00 0.  1.
    9000005    2    1    2  501    0 -0.25624213197E+02 -0.18174607097E+02 -0.83713454811E+03  0.83773017220E+03  0.32669750942E+01 0.  0.
         13    1    3    3    0    0 -0.25013582811E+02 -0.17307179120E+02 -0.79362013364E+03  0.79420282944E+03  0.00000000000E+00 0.  1.
          3    1    3    3  501    0 -0.61063038617E+00 -0.86742797644E+00 -0.43514414473E+02  0.43527342760E+02  0.00000000000E+00 0.  1.
         -1    1    1    2    0  502  0.25624213197E+02  0.18174607097E+02 -0.16104993828E+03  0.16408534141E+03  0.00000000000E+00 0. -1.
<mgrwt>
<rscale>  1 0.30000000E+03</rscale>
<asrwt>0</asrwt>
<pdfrwt beam="1">  1       21 0.66018816E-02 0.30000000E+03</pdfrwt>
<pdfrwt beam="2">0</pdfrwt>
<totfact> 0.17862292E+04</totfact>
</mgrwt>
</event>
<event>
 6    1  0.1270461E-001  0.3000000E+03  0.7818608E-02  0.1093470E+00
         21   -1    0    0  501  502  0.00000000000E+00  0.00000000000E+00  0.15386724482E+01  0.15386724482E+01  0.00000000000E+00 0. -1.
         13   -1    0    0    0    0 -0.00000000000E+00 -0.00000000000E+00 -0.10000000000E+04  0.10000000000E+04  0.00000000000E+00 0.  1.
    9000005    2    1    2  501    0  0.35381769008E+02  0.16635348433E+02 -0.52763978178E+03  0.52909657827E+03  0.32932380216E+01 0.  0.
         13    1    3    3    0    0  0.11553627676E+02  0.42927115042E+01 -0.18167794127E+03  0.18209554642E+03  0.00000000000E+00 0.  1.
          3    1    3    3  501    0  0.23828141333E+02  0.12342636929E+02 -0.34596184052E+03  0.34700103184E+03  0.00000000000E+00 0.  1.
         -3    1    1    2    0  502 -0.35381769008E+02 -0.16635348433E+02 -0.47082154577E+03  0.47244209418E+03  0.00000000000E+00 0. -1.
<mgrwt>
<rscale>  1 0.30000000E+03</rscale>
<asrwt>0</asrwt>
<pdfrwt beam="1">  1       21 0.55951843E-02 0.30000000E+03</pdfrwt>
<pdfrwt beam="2">0</pdfrwt>
<totfact> 0.23764138E+04</totfact>
</mgrwt>
</event>
<event>
 6    1  0.1270461E-001  0.3000000E+03  0.7818608E-02  0.1093470E+00
         21   -1    0    0  501  502  0.00000000000E+00  0.00000000000E+00  0.23357451345E+01  0.23357451345E+01  0.00000000000E+00 0. -1.
         13   -1    0    0    0    0 -0.00000000000E+00 -0.00000000000E+00 -0.10000000000E+04  0.10000000000E+04  0.00000000000E+00 0.  1.
    9000005    2    1    2  501    0 -0.48542597202E+01 -0.41010584649E+02 -0.75881268783E+03  0.75994040077E+03  0.26991909001E+01 0.  0.
         13    1    3    3    0    0 -0.22519243549E+01 -0.27289671048E+02 -0.51750504051E+03  0.51822896896E+03  0.00000000000E+00 0.  1.
          3    1    3    3  501    0 -0.26023353652E+01 -0.13720913601E+02 -0.24130764731E+03  0.24171143182E+03  0.00000000000E+00 0.  1.
         -1    1    1    2    0  502  0.48542597202E+01  0.41010584649E+02 -0.23885156704E+03  0.24239534436E+03  0.00000000000E+00 0. -1.
<mgrwt>
<rscale>  1 0.30000000E+03</rscale>
<asrwt>0</asrwt>
<pdfrwt beam="1">  1       21 0.84936366E-02 0.30000000E+03</pdfrwt>
<pdfrwt beam="2">0</pdfrwt>
<totfact> 0.11496434E+04</totfact>
</mgrwt>
</event>
<event>
 6    1  0.1270461E-001  0.3000000E+03  0.7818608E-02  0.1093470E+00
         21   -1    0    0  501  502  0.00000000000E+00  0.00000000000E+00  0.36637710872E+01  0.36637710872E+01  0.00000000000E+00 0. -1.
         13   -1    0    0    0    0 -0.00000000000E+00 -0.00000000000E+00 -0.10000000000E+04  0.10000000000E+04  0.00000000000E+00 0.  1.
    9000005    2    1    2  501    0 -0.23200511929E+02 -0.35857444835E+02 -0.85237504476E+03  0.85350105052E+03  0.98390149183E+01 0.  0.
         13    1    3    3    0    0 -0.17887570053E+02 -0.33465546862E+02 -0.75262324193E+03  0.75357922761E+03  0.00000000000E+00 0.  1.
          3    1    3    3  501    0 -0.53129418762E+01 -0.23918979728E+01 -0.99751802825E+02  0.99921822912E+02  0.00000000000E+00 0.  1.
         -1    1    1    2    0  502  0.23200511929E+02  0.35857444835E+02 -0.14396118416E+03  0.15016272057E+03  0.00000000000E+00 0. -1.
<mgrwt>
<rscale>  1 0.30000000E+03</rscale>
<asrwt>0</asrwt>
<pdfrwt beam="1">  1       21 0.13322832E-01 0.30000000E+03</pdfrwt>
<pdfrwt beam="2">0</pdfrwt>
<totfact> 0.51216648E+03</totfact>
</mgrwt>
</event>
<event>
 6    1  0.1270461E-001  0.3000000E+03  0.7818608E-02  0.1093470E+00
         21   -1    0    0  501  502  0.00000000000E+00  0.00000000000E+00  0.19293712374E+01  0.19293712374E+01  0.00000000000E+00 0. -1.
         13   -1    0    0    0    0 -0.00000000000E+00 -0.00000000000E+00 -0.10000000000E+04  0.10000000000E+04  0.00000000000E+00 0.  1.
    9000005    2    1    2  501    0 -0.23892929684E+02 -0.18680677770E+02 -0.86123799378E+03  0.86177584895E+03  0.26252823704E+01 0.  0.
         13    1    3    3    0    0 -0.17778012596E+02 -0.14907862294E+02 -0.63458621567E+03  0.63501021032E+03  0.00000000000E+00 0.  1.
          3    1    3    3  501    0 -0.61149170883E+01 -0.37728154758E+01 -0.22665177811E+03  0.22676563864E+03  0.00000000000E+00 0.  1.
         -3    1    1    2    0  502  0.23892929684E+02  0.18680677770E+02 -0.13683263499E+03  0.14015352228E+03  0.00000000000E+00 0. -1.
<mgrwt>
<rscale>  1 0.30000000E+03</rscale>
<asrwt>0</asrwt>
<pdfrwt beam="1">  1       21 0.70159102E-02 0.30000000E+03</pdfrwt>
<pdfrwt beam="2">0</pdfrwt>
<totfact> 0.16071655E+04</totfact>
</mgrwt>
</event>
<event>
 6    1  0.1270461E-001  0.3000000E+03  0.7818608E-02  0.1093470E+00
         21   -1    0    0  501  502  0.00000000000E+00  0.00000000000E+00  0.31326164426E+01  0.31326164426E+01  0.00000000000E+00 0. -1.
         13   -1    0    0    0    0 -0.00000000000E+00 -0.00000000000E+00 -0.10000000000E+04  0.10000000000E+04  0.00000000000E+00 0.  1.
    9000005    2    1    2  501    0 -0.23515543391E+02 -0.41655180374E+02 -0.75844850893E+03  0.75996252245E+03  0.32802439117E+01 0.  0.
         13    1    3    3    0    0 -0.17402417321E+02 -0.28410107546E+02 -0.51246076534E+03  0.51354261201E+03  0.00000000000E+00 0.  1.
          3    1    3    3  501    0 -0.61131260702E+01 -0.13245072827E+02 -0.24598774360E+03  0.24641991045E+03  0.00000000000E+00 0.  1.
         -1    1    1    2    0  502  0.23515543391E+02  0.41655180374E+02 -0.23841887463E+03  0.24317009399E+03  0.00000000000E+00 0. -1.
<mgrwt>
<rscale>  1 0.30000000E+03</rscale>
<asrwt>0</asrwt>
<pdfrwt beam="1">  1       21 0.11391357E-01 0.30000000E+03</pdfrwt>
<pdfrwt beam="2">0</pdfrwt>
<totfact> 0.68092716E+03</totfact>
</mgrwt>
</event>
<event>
 6    1  0.1270461E-001  0.3000000E+03  0.7818608E-02  0.1093470E+00
         21   -1    0    0  501  502  0.00000000000E+00  0.00000000000E+00  0.21177529196E+01  0.21177529196E+01  0.00000000000E+00 0. -1.
         13   -1    0    0    0    0 -0.00000000000E+00 -0.00000000000E+00 -0.10000000000E+04  0.10000000000E+04  0.00000000000E+00 0.  1.
    9000005    2    1    2  501    0  0.33941871976E+02 -0.22351679863E+02 -0.73287089108E+03  0.73400832176E+03  0.41018482495E+01 0.  0.
         13    1    3    3    0    0  0.23636544827E+02 -0.15609572401E+02 -0.47544305811E+03  0.47628609733E+03  0.00000000000E+00 0.  1.
          1    1    3    3  501    0  0.10305327149E+02 -0.67421074612E+01 -0.25742783297E+03  0.25772222443E+03  0.00000000000E+00 0.  1.
         -1    1    1    2    0  502 -0.33941871976E+02  0.22351679863E+02 -0.26501135600E+03  0.26810943116E+03  0.00000000000E+00 0. -1.
<mgrwt>
<rscale>  1 0.30000000E+03</rscale>
<asrwt>0</asrwt>
<pdfrwt beam="1">  1       21 0.77009359E-02 0.30000000E+03</pdfrwt>
<pdfrwt beam="2">0</pdfrwt>
<totfact> 0.13657018E+04</totfact>
</mgrwt>
</event>
<event>
 6    1  0.1270461E-001  0.3000000E+03  0.7818608E-02  0.1093470E+00
         21   -1    0    0  501  502  0.00000000000E+00  0.00000000000E+00  0.10138051558E+01  0.10138051558E+01  0.00000000000E+00 0. -1.
         13   -1    0    0    0    0 -0.00000000000E+00 -0.00000000000E+00 -0.10000000000E+04  0.10000000000E+04  0.00000000000E+00 0.  1.
    9000005    2    1    2  501    0  0.41536244834E+01 -0.31238565509E+02 -0.56044943399E+03  0.56134621346E+03  0.35920369299E+01 0.  0.
         13    1    3    3    0    0 -0.76392505736E-01 -0.47983029689E+01 -0.67784711473E+02  0.67954371873E+02  0.00000000000E+00 0.  1.
          1    1    3    3  501    0  0.42300169891E+01 -0.26440262540E+02 -0.49266472252E+03  0.49339184158E+03  0.00000000000E+00 0.  1.
         -3    1    1    2    0  502 -0.41536244834E+01  0.31238565509E+02 -0.43853676085E+03  0.43966759170E+03  0.00000000000E+00 0. -1.
<mgrwt>
<rscale>  1 0.30000000E+03</rscale>
<asrwt>0</asrwt>
<pdfrwt beam="1">  1       21 0.36865720E-02 0.30000000E+03</pdfrwt>
<pdfrwt beam="2">0</pdfrwt>
<totfact> 0.48228842E+04</totfact>
</mgrwt>
</event>
<event>
 6    1  0.1270461E-001  0.3000000E+03  0.7818608E-02  0.1093470E+00
         21   -1    0    0  501  502  0.00000000000E+00  0.00000000000E+00  0.42722183443E+01  0.42722183443E+01  0.00000000000E+00 0. -1.
         13   -1    0    0    0    0 -0.00000000000E+00 -0.00000000000E+00 -0.10000000000E+04  0.10000000000E+04  0.00000000000E+00 0.  1.
    9000005    2    1    2  501    0  0.19328391428E+02  0.33955110735E+02 -0.90032878909E+03  0.90118243203E+03  0.33631935274E+01 0.  0.
         13    1    3    3    0    0  0.12863597108E+02  0.25337316988E+02 -0.63773483270E+03  0.63836758110E+03  0.00000000000E+00 0.  1.
          1    1    3    3  501    0  0.64647943202E+01  0.86177937474E+01 -0.26259395639E+03  0.26281485093E+03  0.00000000000E+00 0.  1.
         -3    1    1    2    0  502 -0.19328391428E+02 -0.33955110735E+02 -0.95398992564E+02  0.10308978632E+03  0.00000000000E+00 0. -1.
<mgrwt>
<rscale>  1 0.30000000E+03</rscale>
<asrwt>0</asrwt>
<pdfrwt beam="1">  1       21 0.15535372E-01 0.30000000E+03</pdfrwt>
<pdfrwt beam="2">0</pdfrwt>
<totfact> 0.38586790E+03</totfact>
</mgrwt>
</event>
<event>
 6    1  0.1270461E-001  0.3000000E+03  0.7818608E-02  0.1093470E+00
         21   -1    0    0  501  502  0.00000000000E+00  0.00000000000E+00  0.10522120248E+01  0.10522120248E+01  0.00000000000E+00 0. -1.
         13   -1    0    0    0    0 -0.00000000000E+00 -0.00000000000E+00 -0.10000000000E+04  0.10000000000E+04  0.00000000000E+00 0.  1.
    9000005    2    1    2  501    0 -0.21315819651E+02  0.24016722915E+02 -0.56235016553E+03  0.56327526988E+03  0.31865094145E+01 0.  0.
         13    1    3    3    0    0 -0.72305775754E+01  0.10484966315E+02 -0.21977307755E+03  0.22014182108E+03  0.00000000000E+00 0.  1.
          3    1    3    3  501    0 -0.14085242076E+02  0.13531756600E+02 -0.34257708798E+03  0.34313344880E+03  0.00000000000E+00 0.  1.
         -1    1    1    2    0  502  0.21315819651E+02 -0.24016722915E+02 -0.43659762245E+03  0.43777694215E+03  0.00000000000E+00 0. -1.
<mgrwt>
<rscale>  1 0.30000000E+03</rscale>
<asrwt>0</asrwt>
<pdfrwt beam="1">  1       21 0.38262336E-02 0.30000000E+03</pdfrwt>
<pdfrwt beam="2">0</pdfrwt>
<totfact> 0.45309233E+04</totfact>
</mgrwt>
</event>
<event>
 6    1  0.1270461E-001  0.3000000E+03  0.7818608E-02  0.1093470E+00
         21   -1    0    0  501  502  0.00000000000E+00  0.00000000000E+00  0.10009698340E+01  0.10009698340E+01  0.00000000000E+00 0. -1.
         13   -1    0    0    0    0 -0.00000000000E+00 -0.00000000000E+00 -0.10000000000E+04  0.10000000000E+04  0.00000000000E+00 0.  1.
    9000005    2    1    2  501    0 -0.28115126723E+02 -0.13362206773E+02 -0.58291767499E+03  0.58375679307E+03  0.31573273881E+01 0.  0.
         13    1    3    3    0    0 -0.18389732211E+02 -0.94470102872E+01 -0.41115619206E+03  0.41167565208E+03  0.00000000000E+00 0.  1.
          1    1    3    3  501    0 -0.97253945114E+01 -0.39151964862E+01 -0.17176148293E+03  0.17208114098E+03  0.00000000000E+00 0.  1.
         -3    1    1    2    0  502  0.28115126723E+02  0.13362206773E+02 -0.41608135518E+03  0.41724417677E+03  0.00000000000E+00 0. -1.
<mgrwt>
<rscale>  1 0.30000000E+03</rscale>
<asrwt>0</asrwt>
<pdfrwt beam="1">  1       21 0.36398980E-02 0.30000000E+03</pdfrwt>
<pdfrwt beam="2">0</pdfrwt>
<totfact> 0.49271006E+04</totfact>
</mgrwt>
</event>
<event>
 6    1  0.1270461E-001  0.3000000E+03  0.7818608E-02  0.1093470E+00
         21   -1    0    0  501  502  0.00000000000E+00  0.00000000000E+00  0.11035678168E+01  0.11035678168E+01  0.00000000000E+00 0. -1.
         13   -1    0    0    0    0 -0.00000000000E+00 -0.00000000000E+00 -0.10000000000E+04  0.10000000000E+04  0.00000000000E+00 0.  1.
    9000005    2    1    2  501    0 -0.45522681024E+01  0.31199269096E+02 -0.34835706077E+03  0.34980057282E+03  0.36988400743E+01 0.  0.
         13    1    3    3    0    0 -0.22098171535E+01  0.18296035821E+02 -0.22260825512E+03  0.22336979085E+03  0.00000000000E+00 0.  1.
          1    1    3    3  501    0 -0.23424509489E+01  0.12903233275E+02 -0.12574880565E+03  0.12643078196E+03  0.00000000000E+00 0.  1.
         -3    1    1    2    0  502  0.45522681024E+01 -0.31199269096E+02 -0.65053937141E+03  0.65130299500E+03  0.00000000000E+00 0. -1.
<mgrwt>
<rscale>  1 0.30000000E+03</rscale>
<asrwt>0</asrwt>
<pdfrwt beam="1">  1       21 0.40129823E-02 0.30000000E+03</pdfrwt>
<pdfrwt beam="2">0</pdfrwt>
<totfact> 0.41818485E+04</totfact>
</mgrwt>
</event>
<event>
 6    1  0.1270461E-001  0.3000000E+03  0.7818608E-02  0.1093470E+00
         21   -1    0    0  501  502  0.00000000000E+00  0.00000000000E+00  0.10881230434E+01  0.10881230434E+01  0.00000000000E+00 0. -1.
         13   -1    0    0    0    0 -0.00000000000E+00 -0.00000000000E+00 -0.10000000000E+04  0.10000000000E+04  0.00000000000E+00 0.  1.
    9000005    2    1    2  501    0  0.28364892198E+02  0.16019036412E+02 -0.57030652533E+03  0.57124661262E+03  0.34616416742E+01 0.  0.
         13    1    3    3    0    0  0.17332515872E+01  0.41389262689E+00 -0.22061005685E+02  0.22132858830E+02  0.00000000000E+00 0.  1.
          1    1    3    3  501    0  0.26631640611E+02  0.15605143785E+02 -0.54824551964E+03  0.54911375379E+03  0.00000000000E+00 0.  1.
         -3    1    1    2    0  502 -0.28364892198E+02 -0.16019036412E+02 -0.42860535163E+03  0.42984151042E+03  0.00000000000E+00 0. -1.
<mgrwt>
<rscale>  1 0.30000000E+03</rscale>
<asrwt>0</asrwt>
<pdfrwt beam="1">  1       21 0.39568194E-02 0.30000000E+03</pdfrwt>
<pdfrwt beam="2">0</pdfrwt>
<totfact> 0.42822729E+04</totfact>
</mgrwt>
</event>
<event>
 6    1  0.1270461E-001  0.3000000E+03  0.7818608E-02  0.1093470E+00
         21   -1    0    0  501  502  0.00000000000E+00  0.00000000000E+00  0.22405225572E+01  0.22405225572E+01  0.00000000000E+00 0. -1.
         13   -1    0    0    0    0 -0.00000000000E+00 -0.00000000000E+00 -0.10000000000E+04  0.10000000000E+04  0.00000000000E+00 0.  1.
    9000005    2    1    2  501    0 -0.39697100346E+02 -0.29183306906E+01 -0.76919551202E+03  0.77023650811E+03  0.42621923269E+01 0.  0.
         13    1    3    3    0    0 -0.14948669523E+02 -0.19467267014E+00 -0.32518751550E+03  0.32553098294E+03  0.00000000000E+00 0.  1.
          1    1    3    3  501    0 -0.24748430823E+02 -0.27236580205E+01 -0.44400799653E+03  0.44470552518E+03  0.00000000000E+00 0.  1.
         -1    1    1    2    0  502  0.39697100346E+02  0.29183306906E+01 -0.22856396542E+03  0.23200401444E+03  0.00000000000E+00 0. -1.
<mgrwt>
<rscale>  1 0.30000000E+03</rscale>
<asrwt>0</asrwt>
<pdfrwt beam="1">  1       21 0.81473719E-02 0.30000000E+03</pdfrwt>
<pdfrwt beam="2">0</pdfrwt>
<totfact> 0.12370595E+04</totfact>
</mgrwt>
</event>
<event>
 6    1  0.1270461E-001  0.3000000E+03  0.7818608E-02  0.1093470E+00
         21   -1    0    0  501  502  0.00000000000E+00  0.00000000000E+00  0.24977264643E+01  0.24977264643E+01  0.00000000000E+00 0. -1.
         13   -1    0    0    0    0 -0.00000000000E+00 -0.00000000000E+00 -0.10000000000E+04  0.10000000000E+04  0.00000000000E+00 0.  1.
    9000005    2    1    2  501    0  0.36858918420E+02 -0.21177339739E+02 -0.76189534903E+03  0.76308661047E+03  0.30971959945E+01 0.  0.
         13    1    3    3    0    0  0.59122009503E+01 -0.30100698110E+01 -0.10089303381E+03  0.10111092380E+03  0.00000000000E+00 0.  1.
          3    1    3    3  501    0  0.30946717470E+02 -0.18167269928E+02 -0.66100231522E+03  0.66197568667E+03  0.00000000000E+00 0.  1.
         -1    1    1    2    0  502 -0.36858918420E+02  0.21177339739E+02 -0.23560692451E+03  0.23941111599E+03  0.00000000000E+00 0. -1.
<mgrwt>
<rscale>  1 0.30000000E+03</rscale>
<asrwt>0</asrwt>
<pdfrwt beam="1">  1       21 0.90826608E-02 0.30000000E+03</pdfrwt>
<pdfrwt beam="2">0</pdfrwt>
<totfact> 0.10211274E+04</totfact>
</mgrwt>
</event>
<event>
 6    1  0.1270461E-001  0.3000000E+03  0.7818608E-02  0.1093470E+00
         21   -1    0    0  501  502  0.00000000000E+00  0.00000000000E+00  0.70422004963E+01  0.70422004963E+01  0.00000000000E+00 0. -1.
         13   -1    0    0    0    0 -0.00000000000E+00 -0.00000000000E+00 -0.10000000000E+04  0.10000000000E+04  0.00000000000E+00 0.  1.
    9000005    2    1    2  501    0 -0.39682938374E+02  0.33242435682E+02 -0.89273098861E+03  0.89423613351E+03  0.31383614476E+01 0.  0.
         13    1    3    3    0    0 -0.38389153732E+02  0.32088688572E+02 -0.87113425377E+03  0.87256993940E+03  0.00000000000E+00 0.  1.
          1    1    3    3  501    0 -0.12937846421E+01  0.11537471101E+01 -0.21596734843E+02  0.21666194105E+02  0.00000000000E+00 0.  1.
         -1    1    1    2    0  502  0.39682938374E+02 -0.33242435682E+02 -0.10022681089E+03  0.11280606699E+03  0.00000000000E+00 0. -1.
<mgrwt>
<rscale>  1 0.30000000E+03</rscale>
<asrwt>0</asrwt>
<pdfrwt beam="1">  1       21 0.25608056E-01 0.30000000E+03</pdfrwt>
<pdfrwt beam="2">0</pdfrwt>
<totfact> 0.14878037E+03</totfact>
</mgrwt>
</event>
<event>
 6    1  0.1270461E-001  0.3000000E+03  0.7818608E-02  0.1093470E+00
         21   -1    0    0  501  502  0.00000000000E+00  0.00000000000E+00  0.13395901065E+01  0.13395901065E+01  0.00000000000E+00 0. -1.
         13   -1    0    0    0    0 -0.00000000000E+00 -0.00000000000E+00 -0.10000000000E+04  0.10000000000E+04  0.00000000000E+00 0.  1.
    9000005    2    1    2  501    0  0.15959747295E+02 -0.31072059638E+02 -0.64668192597E+03  0.64763202789E+03  0.30892958711E+01 0.  0.
         13    1    3    3    0    0  0.32901068724E+01 -0.69599845018E+01 -0.16706820768E+03  0.16724548486E+03  0.00000000000E+00 0.  1.
          3    1    3    3  501    0  0.12669640422E+02 -0.24112075137E+02 -0.47961371829E+03  0.48038654303E+03  0.00000000000E+00 0.  1.
         -3    1    1    2    0  502 -0.15959747295E+02  0.31072059638E+02 -0.35197848392E+03  0.35370756222E+03  0.00000000000E+00 0. -1.
<mgrwt>
<rscale>  1 0.30000000E+03</rscale>
<asrwt>0</asrwt>
<pdfrwt beam="1">  1       21 0.48712470E-02 0.30000000E+03</pdfrwt>
<pdfrwt beam="2">0</pdfrwt>
<totfact> 0.30113763E+04</totfact>
</mgrwt>
</event>
<event>
 6    1  0.1270461E-001  0.3000000E+03  0.7818608E-02  0.1093470E+00
         21   -1    0    0  501  502  0.00000000000E+00  0.00000000000E+00  0.76616940257E+01  0.76616940257E+01  0.00000000000E+00 0. -1.
         13   -1    0    0    0    0 -0.00000000000E+00 -0.00000000000E+00 -0.10000000000E+04  0.10000000000E+04  0.00000000000E+00 0.  1.
    9000005    2    1    2  501    0  0.21020717907E+02 -0.41139747765E+02 -0.92406543477E+03  0.92522666282E+03  0.36194513834E+01 0.  0.
         13    1    3    3    0    0  0.20151141321E+02 -0.37699885058E+02 -0.84161524941E+03  0.84270017080E+03  0.00000000000E+00 0.  1.
          3    1    3    3  501    0  0.86957658588E+00 -0.34398627065E+01 -0.82450185358E+02  0.82526492016E+02  0.00000000000E+00 0.  1.
         -3    1    1    2    0  502 -0.21020717907E+02  0.41139747765E+02 -0.68272871205E+02  0.82435031207E+02  0.00000000000E+00 0. -1.
<mgrwt>
<rscale>  1 0.30000000E+03</rscale>
<asrwt>0</asrwt>
<pdfrwt beam="1">  1       21 0.27860764E-01 0.30000000E+03</pdfrwt>
<pdfrwt beam="2">0</pdfrwt>
<totfact> 0.12597867E+03</totfact>
</mgrwt>
</event>
<event>
 6    1  0.1270461E-001  0.3000000E+03  0.7818608E-02  0.1093470E+00
         21   -1    0    0  501  502  0.00000000000E+00  0.00000000000E+00  0.62656680009E+01  0.62656680009E+01  0.00000000000E+00 0. -1.
         13   -1    0    0    0    0 -0.00000000000E+00 -0.00000000000E+00 -0.10000000000E+04  0.10000000000E+04  0.00000000000E+00 0.  1.
    9000005    2    1    2  501    0  0.53193355232E+02  0.48411357311E+02 -0.28750305162E+03  0.29638130140E+03  0.32678083617E+01 0.  0.
         13    1    3    3    0    0  0.63649721124E+01  0.69611759532E+01 -0.40582458196E+02  0.41664214307E+02  0.00000000000E+00 0.  1.
          3    1    3    3  501    0  0.46828383120E+02  0.41450181358E+02 -0.24692059342E+03  0.25471708709E+03  0.00000000000E+00 0.  1.
         -3    1    1    2    0  502 -0.53193355232E+02 -0.48411357311E+02 -0.70623128038E+03  0.70988436660E+03  0.00000000000E+00 0. -1.
<mgrwt>
<rscale>  1 0.30000000E+03</rscale>
<asrwt>0</asrwt>
<pdfrwt beam="1">  1       21 0.22784295E-01 0.30000000E+03</pdfrwt>
<pdfrwt beam="2">0</pdfrwt>
<totfact> 0.18680081E+03</totfact>
</mgrwt>
</event>
<event>
 6    1  0.1270461E-001  0.3000000E+03  0.7818608E-02  0.1093470E+00
         21   -1    0    0  501  502  0.00000000000E+00  0.00000000000E+00  0.11777004667E+01  0.11777004667E+01  0.00000000000E+00 0. -1.
         13   -1    0    0    0    0 -0.00000000000E+00 -0.00000000000E+00 -0.10000000000E+04  0.10000000000E+04  0.00000000000E+00 0.  1.
    9000005    2    1    2  501    0 -0.16587134481E+02  0.27328438600E+02 -0.67546255341E+03  0.67624154982E+03  0.55674098297E+01 0.  0.
         13    1    3    3    0    0 -0.39646112776E+01  0.28597995424E+01 -0.92102756672E+02  0.92232393347E+02  0.00000000000E+00 0.  1.
          1    1    3    3  501    0 -0.12622523203E+02  0.24468639057E+02 -0.58335979674E+03  0.58400915647E+03  0.00000000000E+00 0.  1.
         -1    1    1    2    0  502  0.16587134481E+02 -0.27328438600E+02 -0.32335974612E+03  0.32493615065E+03  0.00000000000E+00 0. -1.
<mgrwt>
<rscale>  1 0.30000000E+03</rscale>
<asrwt>0</asrwt>
<pdfrwt beam="1">  1       21 0.42825562E-02 0.30000000E+03</pdfrwt>
<pdfrwt beam="2">0</pdfrwt>
<totfact> 0.37473444E+04</totfact>
</mgrwt>
</event>
<event>
 6    1  0.1270461E-001  0.3000000E+03  0.7818608E-02  0.1093470E+00
         21   -1    0    0  501  502  0.00000000000E+00  0.00000000000E+00  0.11139191336E+01  0.11139191336E+01  0.00000000000E+00 0. -1.
         13   -1    0    0    0    0 -0.00000000000E+00 -0.00000000000E+00 -0.10000000000E+04  0.10000000000E+04  0.00000000000E+00 0.  1.
    9000005    2    1    2  501    0 -0.14823503604E+02 -0.29372706697E+02 -0.57765035079E+03  0.57859524209E+03  0.31676873829E+01 0.  0.
         13    1    3    3    0    0 -0.12076193599E+02 -0.20904222240E+02 -0.42784731310E+03  0.42852788041E+03  0.00000000000E+00 0.  1.
          1    1    3    3  501    0 -0.27473100051E+01 -0.84684844578E+01 -0.14980303769E+03  0.15006736168E+03  0.00000000000E+00 0.  1.
         -3    1    1    2    0  502  0.14823503604E+02  0.29372706697E+02 -0.42123573008E+03  0.42251867704E+03  0.00000000000E+00 0. -1.
<mgrwt>
<rscale>  1 0.30000000E+03</rscale>
<asrwt>0</asrwt>
<pdfrwt beam="1">  1       21 0.40506236E-02 0.30000000E+03</pdfrwt>
<pdfrwt beam="2">0</pdfrwt>
<totfact> 0.41165878E+04</totfact>
</mgrwt>
</event>
<event>
 6    1  0.1270461E-001  0.3000000E+03  0.7818608E-02  0.1093470E+00
         21   -1    0    0  501  502  0.00000000000E+00  0.00000000000E+00  0.12110467334E+01  0.12110467334E+01  0.00000000000E+00 0. -1.
         13   -1    0    0    0    0 -0.00000000000E+00 -0.00000000000E+00 -0.10000000000E+04  0.10000000000E+04  0.00000000000E+00 0.  1.
    9000005    2    1    2  501    0  0.18130556864E+01 -0.34465445553E+02 -0.44118651324E+03  0.44254152436E+03  0.25114154928E+01 0.  0.
         13    1    3    3    0    0  0.21040319392E+01 -0.30937669421E+02 -0.38780629832E+03  0.38904407379E+03  0.00000000000E+00 0.  1.
          1    1    3    3  501    0 -0.29097625272E+00 -0.35277761318E+01 -0.53380214928E+02  0.53497450569E+02  0.00000000000E+00 0.  1.
         -3    1    1    2    0  502 -0.18130556864E+01  0.34465445553E+02 -0.55760244002E+03  0.55866952237E+03  0.00000000000E+00 0. -1.
<mgrwt>
<rscale>  1 0.30000000E+03</rscale>
<asrwt>0</asrwt>
<pdfrwt beam="1">  1       21 0.44038156E-02 0.30000000E+03</pdfrwt>
<pdfrwt beam="2">0</pdfrwt>
<totfact> 0.35743880E+04</totfact>
</mgrwt>
</event>
<event>
 6    1  0.1270461E-001  0.3000000E+03  0.7818608E-02  0.1093470E+00
         21   -1    0    0  501  502  0.00000000000E+00  0.00000000000E+00  0.23185524662E+01  0.23185524662E+01  0.00000000000E+00 0. -1.
         13   -1    0    0    0    0 -0.00000000000E+00 -0.00000000000E+00 -0.10000000000E+04  0.10000000000E+04  0.00000000000E+00 0.  1.
    9000005    2    1    2  501    0 -0.35132473303E+02 -0.28358495109E+02 -0.67161307721E+03  0.67313915297E+03  0.37011971154E+01 0.  0.
         13    1    3    3    0    0 -0.30947362107E+02 -0.23487672215E+02 -0.58433492469E+03  0.58562506280E+03  0.00000000000E+00 0.  1.
          1    1    3    3  501    0 -0.41851111962E+01 -0.48708228941E+01 -0.87278152519E+02  0.87514090172E+02  0.00000000000E+00 0.  1.
         -3    1    1    2    0  502  0.35132473303E+02  0.28358495109E+02 -0.32606837033E+03  0.32917939949E+03  0.00000000000E+00 0. -1.
<mgrwt>
<rscale>  1 0.30000000E+03</rscale>
<asrwt>0</asrwt>
<pdfrwt beam="1">  1       21 0.84311177E-02 0.30000000E+03</pdfrwt>
<pdfrwt beam="2">0</pdfrwt>
<totfact> 0.11647136E+04</totfact>
</mgrwt>
</event>
<event>
 6    1  0.1270461E-001  0.3000000E+03  0.7818608E-02  0.1093470E+00
         21   -1    0    0  501  502  0.00000000000E+00  0.00000000000E+00  0.15414908296E+01  0.15414908296E+01  0.00000000000E+00 0. -1.
         13   -1    0    0    0    0 -0.00000000000E+00 -0.00000000000E+00 -0.10000000000E+04  0.10000000000E+04  0.00000000000E+00 0.  1.
    9000005    2    1    2  501    0 -0.75518437603E+01 -0.37037967997E+02 -0.62402149355E+03  0.62520132544E+03  0.67105516994E+01 0.  0.
         13    1    3    3    0    0 -0.77922870806E+01 -0.26352536710E+02 -0.47791216161E+03  0.47870158778E+03  0.00000000000E+00 0.  1.
          3    1    3    3  501    0  0.24044332032E+00 -0.10685431288E+02 -0.14610933194E+03  0.14649973766E+03  0.00000000000E+00 0.  1.
         -3    1    1    2    0  502  0.75518437603E+01  0.37037967997E+02 -0.37443701563E+03  0.37634016539E+03  0.00000000000E+00 0. -1.
<mgrwt>
<rscale>  1 0.30000000E+03</rscale>
<asrwt>0</asrwt>
<pdfrwt beam="1">  1       21 0.56054330E-02 0.30000000E+03</pdfrwt>
<pdfrwt beam="2">0</pdfrwt>
<totfact> 0.23689583E+04</totfact>
</mgrwt>
</event>
<event>
 6    1  0.1270461E-001  0.3000000E+03  0.7818608E-02  0.1093470E+00
         21   -1    0    0  501  502  0.00000000000E+00  0.00000000000E+00  0.20568604142E+01  0.20568604142E+01  0.00000000000E+00 0. -1.
         13   -1    0    0    0    0 -0.00000000000E+00 -0.00000000000E+00 -0.10000000000E+04  0.10000000000E+04  0.00000000000E+00 0.  1.
    9000005    2    1    2  501    0 -0.24350967150E+02 -0.37217536012E+02 -0.40482768762E+03  0.40727618323E+03  0.32121919217E+01 0.  0.
         13    1    3    3    0    0 -0.21212619671E+02 -0.32247080164E+02 -0.36048447834E+03  0.36254504346E+03  0.00000000000E+00 0.  1.
          3    1    3    3  501    0 -0.31383474794E+01 -0.49704558479E+01 -0.44343209279E+02  0.44731139773E+02  0.00000000000E+00 0.  1.
         -1    1    1    2    0  502  0.24350967150E+02  0.37217536012E+02 -0.59311545197E+03  0.59478067719E+03  0.00000000000E+00 0. -1.
<mgrwt>
<rscale>  1 0.30000000E+03</rscale>
<asrwt>0</asrwt>
<pdfrwt beam="1">  1       21 0.74795082E-02 0.30000000E+03</pdfrwt>
<pdfrwt beam="2">0</pdfrwt>
<totfact> 0.14373147E+04</totfact>
</mgrwt>
</event>
<event>
 6    1  0.1270461E-001  0.3000000E+03  0.7818608E-02  0.1093470E+00
         21   -1    0    0  501  502  0.00000000000E+00  0.00000000000E+00  0.11065433361E+01  0.11065433361E+01  0.00000000000E+00 0. -1.
         13   -1    0    0    0    0 -0.00000000000E+00 -0.00000000000E+00 -0.10000000000E+04  0.10000000000E+04  0.00000000000E+00 0.  1.
    9000005    2    1    2  501    0  0.24281222178E+02 -0.18488000145E+02 -0.69676353141E+03  0.69743916670E+03  0.32540194807E+01 0.  0.
         13    1    3    3    0    0  0.20416247029E+02 -0.14898713173E+02 -0.59981645681E+03  0.60034871255E+03  0.00000000000E+00 0.  1.
          1    1    3    3  501    0  0.38649751487E+01 -0.35892869726E+01 -0.96947074595E+02  0.97090454147E+02  0.00000000000E+00 0.  1.
         -1    1    1    2    0  502 -0.24281222178E+02  0.18488000145E+02 -0.30212992526E+03  0.30366737664E+03  0.00000000000E+00 0. -1.
<mgrwt>
<rscale>  1 0.30000000E+03</rscale>
<asrwt>0</asrwt>
<pdfrwt beam="1">  1       21 0.40238024E-02 0.30000000E+03</pdfrwt>
<pdfrwt beam="2">0</pdfrwt>
<totfact> 0.41629244E+04</totfact>
</mgrwt>
</event>
<event>
 6    1  0.1270461E-001  0.3000000E+03  0.7818608E-02  0.1093470E+00
         21   -1    0    0  501  502  0.00000000000E+00  0.00000000000E+00  0.21608161883E+01  0.21608161883E+01  0.00000000000E+00 0. -1.
         13   -1    0    0    0    0 -0.00000000000E+00 -0.00000000000E+00 -0.10000000000E+04  0.10000000000E+04  0.00000000000E+00 0.  1.
    9000005    2    1    2  501    0  0.42337792334E+02 -0.18374857176E+02 -0.44917872848E+03  0.45156257856E+03  0.41362059528E+01 0.  0.
         13    1    3    3    0    0  0.41773571009E+02 -0.17814579986E+02 -0.43568498042E+03  0.43804542305E+03  0.00000000000E+00 0.  1.
          1    1    3    3  501    0  0.56422132564E+00 -0.56027718999E+00 -0.13493748061E+02  0.13517155505E+02  0.00000000000E+00 0.  1.
         -3    1    1    2    0  502 -0.42337792334E+02  0.18374857176E+02 -0.54866045533E+03  0.55059823763E+03  0.00000000000E+00 0. -1.
<mgrwt>
<rscale>  1 0.30000000E+03</rscale>
<asrwt>0</asrwt>
<pdfrwt beam="1">  1       21 0.78575300E-02 0.30000000E+03</pdfrwt>
<pdfrwt beam="2">0</pdfrwt>
<totfact> 0.13183263E+04</totfact>
</mgrwt>
</event>
<event>
 6    1  0.1270461E-001  0.3000000E+03  0.7818608E-02  0.1093470E+00
         21   -1    0    0  501  502  0.00000000000E+00  0.00000000000E+00  0.10939148132E+01  0.10939148132E+01  0.00000000000E+00 0. -1.
         13   -1    0    0    0    0 -0.00000000000E+00 -0.00000000000E+00 -0.10000000000E+04  0.10000000000E+04  0.00000000000E+00 0.  1.
    9000005    2    1    2  501    0  0.17866185197E+02 -0.24925872273E+02 -0.68470141835E+03  0.68539616008E+03  0.33710946031E+01 0.  0.
         13    1    3    3    0    0  0.68581360018E+01 -0.83807704159E+01 -0.27482224503E+03  0.27503552080E+03  0.00000000000E+00 0.  1.
          3    1    3    3  501    0  0.11008049195E+02 -0.16545101857E+02 -0.40987917333E+03  0.41036063928E+03  0.00000000000E+00 0.  1.
         -3    1    1    2    0  502 -0.17866185197E+02  0.24925872273E+02 -0.31420466683E+03  0.31569775473E+03  0.00000000000E+00 0. -1.
<mgrwt>
<rscale>  1 0.30000000E+03</rscale>
<asrwt>0</asrwt>
<pdfrwt beam="1">  1       21 0.39778804E-02 0.30000000E+03</pdfrwt>
<pdfrwt beam="2">0</pdfrwt>
<totfact> 0.42441760E+04</totfact>
</mgrwt>
</event>
<event>
 6    1  0.1270461E-001  0.3000000E+03  0.7818608E-02  0.1093470E+00
         21   -1    0    0  501  502  0.00000000000E+00  0.00000000000E+00  0.25238315292E+01  0.25238315292E+01  0.00000000000E+00 0. -1.
         13   -1    0    0    0    0 -0.00000000000E+00 -0.00000000000E+00 -0.10000000000E+04  0.10000000000E+04  0.00000000000E+00 0.  1.
    9000005    2    1    2  501    0  0.48803103422E+02  0.31520446032E+01 -0.61189417529E+03  0.61385282444E+03  0.30215933877E+01 0.  0.
         13    1    3    3    0    0  0.38118454426E+02  0.13232223284E+01 -0.48299404671E+03  0.48449769519E+03  0.00000000000E+00 0.  1.
          1    1    3    3  501    0  0.10684648996E+02  0.18288222748E+01 -0.12890012858E+03  0.12935512925E+03  0.00000000000E+00 0.  1.
         -3    1    1    2    0  502 -0.48803103422E+02 -0.31520446032E+01 -0.38558199318E+03  0.38867100709E+03  0.00000000000E+00 0. -1.
<mgrwt>
<rscale>  1 0.30000000E+03</rscale>
<asrwt>0</asrwt>
<pdfrwt beam="1">  1       21 0.91775886E-02 0.30000000E+03</pdfrwt>
<pdfrwt beam="2">0</pdfrwt>
<totfact> 0.10024650E+04</totfact>
</mgrwt>
</event>
<event>
 6    1  0.1270461E-001  0.3000000E+03  0.7818608E-02  0.1093470E+00
         21   -1    0    0  501  502  0.00000000000E+00  0.00000000000E+00  0.14582902829E+01  0.14582902829E+01  0.00000000000E+00 0. -1.
         13   -1    0    0    0    0 -0.00000000000E+00 -0.00000000000E+00 -0.10000000000E+04  0.10000000000E+04  0.00000000000E+00 0.  1.
    9000005    2    1    2  501    0  0.19240689724E+02 -0.24559539729E+02 -0.78726376840E+03  0.78788922974E+03  0.34383392568E+01 0.  0.
         13    1    3    3    0    0  0.11953143796E+02 -0.12789582758E+02 -0.45892483998E+03  0.45925859799E+03  0.00000000000E+00 0.  1.
          3    1    3    3  501    0  0.72875459279E+01 -0.11769956971E+02 -0.32833892842E+03  0.32863063175E+03  0.00000000000E+00 0.  1.
         -3    1    1    2    0  502 -0.19240689724E+02  0.24559539729E+02 -0.21127794132E+03  0.21356906054E+03  0.00000000000E+00 0. -1.
<mgrwt>
<rscale>  1 0.30000000E+03</rscale>
<asrwt>0</asrwt>
<pdfrwt beam="1">  1       21 0.53028849E-02 0.30000000E+03</pdfrwt>
<pdfrwt beam="2">0</pdfrwt>
<totfact> 0.26052605E+04</totfact>
</mgrwt>
</event>
<event>
 6    1  0.1270461E-001  0.3000000E+03  0.7818608E-02  0.1093470E+00
         21   -1    0    0  501  502  0.00000000000E+00  0.00000000000E+00  0.18084101308E+01  0.18084101308E+01  0.00000000000E+00 0. -1.
         13   -1    0    0    0    0 -0.00000000000E+00 -0.00000000000E+00 -0.10000000000E+04  0.10000000000E+04  0.00000000000E+00 0.  1.
    9000005    2    1    2  501    0  0.18195142144E+02 -0.26966083633E+02 -0.82095951078E+03  0.82161561692E+03  0.44125700779E+01 0.  0.
         13    1    3    3    0    0  0.89941651382E+01 -0.10416427722E+02 -0.38223652420E+03  0.38248419236E+03  0.00000000000E+00 0.  1.
          1    1    3    3  501    0  0.92009770057E+01 -0.16549655912E+02 -0.43872298658E+03  0.43913142456E+03  0.00000000000E+00 0.  1.
         -1    1    1    2    0  502 -0.18195142144E+02  0.26966083633E+02 -0.17723207909E+03  0.18019279321E+03  0.00000000000E+00 0. -1.
<mgrwt>
<rscale>  1 0.30000000E+03</rscale>
<asrwt>0</asrwt>
<pdfrwt beam="1">  1       21 0.65760507E-02 0.30000000E+03</pdfrwt>
<pdfrwt beam="2">0</pdfrwt>
<totfact> 0.17984048E+04</totfact>
</mgrwt>
</event>
<event>
 6    1  0.1270461E-001  0.3000000E+03  0.7818608E-02  0.1093470E+00
         21   -1    0    0  501  502  0.00000000000E+00  0.00000000000E+00  0.19853338093E+01  0.19853338093E+01  0.00000000000E+00 0. -1.
         13   -1    0    0    0    0 -0.00000000000E+00 -0.00000000000E+00 -0.10000000000E+04  0.10000000000E+04  0.00000000000E+00 0.  1.
    9000005    2    1    2  501    0  0.24524502374E+02 -0.32108080143E+02 -0.70925414733E+03  0.71041198578E+03  0.33710548594E+01 0.  0.
         13    1    3    3    0    0  0.11251955269E+02 -0.17436739099E+02 -0.36970937877E+03  0.37029133276E+03  0.00000000000E+00 0.  1.
          3    1    3    3  501    0  0.13272547105E+02 -0.14671341043E+02 -0.33954476857E+03  0.34012065303E+03  0.00000000000E+00 0.  1.
         -3    1    1    2    0  502 -0.24524502374E+02  0.32108080143E+02 -0.28876051886E+03  0.29157334803E+03  0.00000000000E+00 0. -1.
<mgrwt>
<rscale>  1 0.30000000E+03</rscale>
<asrwt>0</asrwt>
<pdfrwt beam="1">  1       21 0.72194109E-02 0.30000000E+03</pdfrwt>
<pdfrwt beam="2">0</pdfrwt>
<totfact> 0.15290419E+04</totfact>
</mgrwt>
</event>
<event>
 6    1  0.1270461E-001  0.3000000E+03  0.7818608E-02  0.1093470E+00
         21   -1    0    0  501  502  0.00000000000E+00  0.00000000000E+00  0.14508643919E+01  0.14508643919E+01  0.00000000000E+00 0. -1.
         13   -1    0    0    0    0 -0.00000000000E+00 -0.00000000000E+00 -0.10000000000E+04  0.10000000000E+04  0.00000000000E+00 0.  1.
    9000005    2    1    2  501    0 -0.61567655026E+01 -0.35675099592E+02 -0.65240526772E+03  0.65341897538E+03  0.36201582953E+01 0.  0.
         13    1    3    3    0    0 -0.15229550632E+01 -0.15683410633E+02 -0.30809684707E+03  0.30849952340E+03  0.00000000000E+00 0.  1.
          3    1    3    3  501    0 -0.46338104394E+01 -0.19991688958E+02 -0.34430842065E+03  0.34491945198E+03  0.00000000000E+00 0.  1.
         -1    1    1    2    0  502  0.61567655026E+01  0.35675099592E+02 -0.34614386789E+03  0.34803188902E+03  0.00000000000E+00 0. -1.
<mgrwt>
<rscale>  1 0.30000000E+03</rscale>
<asrwt>0</asrwt>
<pdfrwt beam="1">  1       21 0.52758816E-02 0.30000000E+03</pdfrwt>
<pdfrwt beam="2">0</pdfrwt>
<totfact> 0.26281051E+04</totfact>
</mgrwt>
</event>
<event>
 6    1  0.1270461E-001  0.3000000E+03  0.7818608E-02  0.1093470E+00
         21   -1    0    0  501  502  0.00000000000E+00  0.00000000000E+00  0.19712790789E+01  0.19712790789E+01  0.00000000000E+00 0. -1.
         13   -1    0    0    0    0 -0.00000000000E+00 -0.00000000000E+00 -0.10000000000E+04  0.10000000000E+04  0.00000000000E+00 0.  1.
    9000005    2    1    2  501    0 -0.35587351691E+02  0.10224024447E+02 -0.77490100434E+03  0.77579221687E+03  0.33176721050E+01 0.  0.
         13    1    3    3    0    0 -0.22111689494E+02  0.67327685671E+01 -0.45024112036E+03  0.45083403093E+03  0.00000000000E+00 0.  1.
          3    1    3    3  501    0 -0.13475662197E+02  0.34912558798E+01 -0.32465988398E+03  0.32495818594E+03  0.00000000000E+00 0.  1.
         -1    1    1    2    0  502  0.35587351691E+02 -0.10224024447E+02 -0.22312771658E+03  0.22617906221E+03  0.00000000000E+00 0. -1.
<mgrwt>
<rscale>  1 0.30000000E+03</rscale>
<asrwt>0</asrwt>
<pdfrwt beam="1">  1       21 0.71683027E-02 0.30000000E+03</pdfrwt>
<pdfrwt beam="2">0</pdfrwt>
<totfact> 0.15481092E+04</totfact>
</mgrwt>
</event>
<event>
 6    1  0.1270461E-001  0.3000000E+03  0.7818608E-02  0.1093470E+00
         21   -1    0    0  501  502  0.00000000000E+00  0.00000000000E+00  0.44466185669E+01  0.44466185669E+01  0.00000000000E+00 0. -1.
         13   -1    0    0    0    0 -0.00000000000E+00 -0.00000000000E+00 -0.10000000000E+04  0.10000000000E+04  0.00000000000E+00 0.  1.
    9000005    2    1    2  501    0  0.47819738053E+02 -0.38854217527E+02 -0.68928326408E+03  0.69204021282E+03  0.34439010901E+01 0.  0.
         13    1    3    3    0    0  0.42625857456E+02 -0.35266924931E+02 -0.60767467200E+03  0.61018786182E+03  0.00000000000E+00 0.  1.
          3    1    3    3  501    0  0.51938805972E+01 -0.35872925958E+01 -0.81608592072E+02  0.81852350998E+02  0.00000000000E+00 0.  1.
         -1    1    1    2    0  502 -0.47819738053E+02  0.38854217527E+02 -0.30627011736E+03  0.31240640575E+03  0.00000000000E+00 0. -1.
<mgrwt>
<rscale>  1 0.30000000E+03</rscale>
<asrwt>0</asrwt>
<pdfrwt beam="1">  1       21 0.16169556E-01 0.30000000E+03</pdfrwt>
<pdfrwt beam="2">0</pdfrwt>
<totfact> 0.35815688E+03</totfact>
</mgrwt>
</event>
<event>
 6    1  0.1270461E-001  0.3000000E+03  0.7818608E-02  0.1093470E+00
         21   -1    0    0  501  502  0.00000000000E+00  0.00000000000E+00  0.43955717306E+01  0.43955717306E+01  0.00000000000E+00 0. -1.
         13   -1    0    0    0    0 -0.00000000000E+00 -0.00000000000E+00 -0.10000000000E+04  0.10000000000E+04  0.00000000000E+00 0.  1.
    9000005    2    1    2  501    0  0.36984459567E+02 -0.51902803380E+02 -0.63494879686E+03  0.63815216125E+03  0.40564805939E+01 0.  0.
         13    1    3    3    0    0  0.14896876054E+02 -0.18165864882E+02 -0.24524682660E+03  0.24636948171E+03  0.00000000000E+00 0.  1.
          3    1    3    3  501    0  0.22087583513E+02 -0.33736938498E+02 -0.38970197026E+03  0.39178267954E+03  0.00000000000E+00 0.  1.
         -1    1    1    2    0  502 -0.36984459567E+02  0.51902803380E+02 -0.36065563141E+03  0.36624341048E+03  0.00000000000E+00 0. -1.
<mgrwt>
<rscale>  1 0.30000000E+03</rscale>
<asrwt>0</asrwt>
<pdfrwt beam="1">  1       21 0.15983931E-01 0.30000000E+03</pdfrwt>
<pdfrwt beam="2">0</pdfrwt>
<totfact> 0.36595117E+03</totfact>
</mgrwt>
</event>
<event>
 6    1  0.1270461E-001  0.3000000E+03  0.7818608E-02  0.1093470E+00
         21   -1    0    0  501  502  0.00000000000E+00  0.00000000000E+00  0.13115549440E+01  0.13115549440E+01  0.00000000000E+00 0. -1.
         13   -1    0    0    0    0 -0.00000000000E+00 -0.00000000000E+00 -0.10000000000E+04  0.10000000000E+04  0.00000000000E+00 0.  1.
    9000005    2    1    2  501    0  0.40915523945E+01 -0.35896942259E+02 -0.49563948591E+03  0.49696684489E+03  0.34948046310E+01 0.  0.
         13    1    3    3    0    0 -0.38522353606E-01 -0.17395358558E+01 -0.15828999562E+02  0.15924342878E+02  0.00000000000E+00 0.  1.
          1    1    3    3  501    0  0.41300747481E+01 -0.34157406403E+02 -0.47981048635E+03  0.48104250201E+03  0.00000000000E+00 0.  1.
         -3    1    1    2    0  502 -0.40915523945E+01  0.35896942259E+02 -0.50304895915E+03  0.50434471006E+03  0.00000000000E+00 0. -1.
<mgrwt>
<rscale>  1 0.30000000E+03</rscale>
<asrwt>0</asrwt>
<pdfrwt beam="1">  1       21 0.47693008E-02 0.30000000E+03</pdfrwt>
<pdfrwt beam="2">0</pdfrwt>
<totfact> 0.31217473E+04</totfact>
</mgrwt>
</event>
<event>
 6    1  0.1587114E-001  0.3000000E+03  0.7818608E-02  0.1093470E+00
         21   -1    0    0  501  502  0.00000000000E+00  0.00000000000E+00  0.12805800517E+01  0.12805800517E+01  0.00000000000E+00 0. -1.
         13   -1    0    0    0    0 -0.00000000000E+00 -0.00000000000E+00 -0.10000000000E+04  0.10000000000E+04  0.00000000000E+00 0.  1.
    9000005    2    1    2  501    0 -0.96335193554E+01 -0.29655995359E+02 -0.73093959886E+03  0.73169141977E+03  0.11285115724E+02 0.  0.
         13    1    3    3    0    0 -0.63281480102E+01 -0.17834115019E+02 -0.31295187896E+03  0.31352349141E+03  0.00000000000E+00 0.  1.
          1    1    3    3  501    0 -0.33053713451E+01 -0.11821880340E+02 -0.41798771989E+03  0.41816792837E+03  0.00000000000E+00 0.  1.
         -3    1    1    2    0  502  0.96335193554E+01  0.29655995359E+02 -0.26777982109E+03  0.26958916028E+03  0.00000000000E+00 0. -1.
<mgrwt>
<rscale>  1 0.30000000E+03</rscale>
<asrwt>0</asrwt>
<pdfrwt beam="1">  1       21 0.46566646E-02 0.30000000E+03</pdfrwt>
<pdfrwt beam="2">0</pdfrwt>
<totfact> 0.32512284E+04</totfact>
</mgrwt>
</event>
<event>
 6    1  0.1270461E-001  0.3000000E+03  0.7818608E-02  0.1093470E+00
         21   -1    0    0  501  502  0.00000000000E+00  0.00000000000E+00  0.13249237316E+01  0.13249237316E+01  0.00000000000E+00 0. -1.
         13   -1    0    0    0    0 -0.00000000000E+00 -0.00000000000E+00 -0.10000000000E+04  0.10000000000E+04  0.00000000000E+00 0.  1.
    9000005    2    1    2  501    0 -0.19729341666E+02  0.22737297387E+02 -0.78003834577E+03  0.78062546397E+03  0.31721467903E+01 0.  0.
         13    1    3    3    0    0 -0.14569613307E+02  0.17087686472E+02 -0.54441888107E+03  0.54488180437E+03  0.00000000000E+00 0.  1.
          3    1    3    3  501    0 -0.51597283595E+01  0.56496109153E+01 -0.23561946470E+03  0.23574365961E+03  0.00000000000E+00 0.  1.
         -3    1    1    2    0  502  0.19729341666E+02 -0.22737297387E+02 -0.21863673050E+03  0.22069945976E+03  0.00000000000E+00 0. -1.
<mgrwt>
<rscale>  1 0.30000000E+03</rscale>
<asrwt>0</asrwt>
<pdfrwt beam="1">  1       21 0.48179146E-02 0.30000000E+03</pdfrwt>
<pdfrwt beam="2">0</pdfrwt>
<totfact> 0.30683409E+04</totfact>
</mgrwt>
</event>
<event>
 6    1  0.1270461E-001  0.3000000E+03  0.7818608E-02  0.1093470E+00
         21   -1    0    0  501  502  0.00000000000E+00  0.00000000000E+00  0.25675844273E+01  0.25675844273E+01  0.00000000000E+00 0. -1.
         13   -1    0    0    0    0 -0.00000000000E+00 -0.00000000000E+00 -0.10000000000E+04  0.10000000000E+04  0.00000000000E+00 0.  1.
    9000005    2    1    2  501    0  0.22473861826E+01 -0.30436034373E+02 -0.89875246917E+03  0.89927608063E+03  0.31726071048E+01 0.  0.
         13    1    3    3    0    0  0.90636327646E+00 -0.41442567083E+01 -0.10013705866E+03  0.10022687701E+03  0.00000000000E+00 0.  1.
          1    1    3    3  501    0  0.13410229061E+01 -0.26291777665E+02 -0.79861541051E+03  0.79904920363E+03  0.00000000000E+00 0.  1.
         -1    1    1    2    0  502 -0.22473861826E+01  0.30436034373E+02 -0.98679946407E+02  0.10329150379E+03  0.00000000000E+00 0. -1.
<mgrwt>
<rscale>  1 0.30000000E+03</rscale>
<asrwt>0</asrwt>
<pdfrwt beam="1">  1       21 0.93366903E-02 0.30000000E+03</pdfrwt>
<pdfrwt beam="2">0</pdfrwt>
<totfact> 0.97231951E+03</totfact>
</mgrwt>
</event>
<event>
 6    1  0.1270461E-001  0.3000000E+03  0.7818608E-02  0.1093470E+00
         21   -1    0    0  501  502  0.00000000000E+00  0.00000000000E+00  0.13464901184E+01  0.13464901184E+01  0.00000000000E+00 0. -1.
         13   -1    0    0    0    0 -0.00000000000E+00 -0.00000000000E+00 -0.10000000000E+04  0.10000000000E+04  0.00000000000E+00 0.  1.
    9000005    2    1    2  501    0 -0.85174157745E+01  0.34554380108E+02 -0.60716595671E+03  0.60824465109E+03  0.66712098273E+01 0.  0.
         13    1    3    3    0    0  0.83823336614E+00  0.81386000264E+01 -0.14065736975E+03  0.14089512096E+03  0.00000000000E+00 0.  1.
          3    1    3    3  501    0 -0.93556491406E+01  0.26415780082E+02 -0.46650858696E+03  0.46734953013E+03  0.00000000000E+00 0.  1.
         -3    1    1    2    0  502  0.85174157745E+01 -0.34554380108E+02 -0.39148755317E+03  0.39310183903E+03  0.00000000000E+00 0. -1.
<mgrwt>
<rscale>  1 0.30000000E+03</rscale>
<asrwt>0</asrwt>
<pdfrwt beam="1">  1       21 0.48963380E-02 0.30000000E+03</pdfrwt>
<pdfrwt beam="2">0</pdfrwt>
<totfact> 0.29851458E+04</totfact>
</mgrwt>
</event>
<event>
 6    1  0.1270461E-001  0.3000000E+03  0.7818608E-02  0.1093470E+00
         21   -1    0    0  501  502  0.00000000000E+00  0.00000000000E+00  0.26192278927E+01  0.26192278927E+01  0.00000000000E+00 0. -1.
         13   -1    0    0    0    0 -0.00000000000E+00 -0.00000000000E+00 -0.10000000000E+04  0.10000000000E+04  0.00000000000E+00 0.  1.
    9000005    2    1    2  501    0  0.61482944054E+01  0.47942027896E+02 -0.33637819223E+03  0.33985181004E+03  0.35672141231E+01 0.  0.
         13    1    3    3    0    0  0.12789621299E+01  0.51280564591E+01 -0.30730817084E+02  0.31181979184E+02  0.00000000000E+00 0.  1.
          3    1    3    3  501    0  0.48693322755E+01  0.42813971436E+02 -0.30564737514E+03  0.30866983085E+03  0.00000000000E+00 0.  1.
         -3    1    1    2    0  502 -0.61482944054E+01 -0.47942027896E+02 -0.66100257988E+03  0.66276741785E+03  0.00000000000E+00 0. -1.
<mgrwt>
<rscale>  1 0.30000000E+03</rscale>
<asrwt>0</asrwt>
<pdfrwt beam="1">  1       21 0.95244851E-02 0.30000000E+03</pdfrwt>
<pdfrwt beam="2">0</pdfrwt>
<totfact> 0.93845873E+03</totfact>
</mgrwt>
</event>
<event>
 6    1  0.1270461E-001  0.3000000E+03  0.7818608E-02  0.1093470E+00
         21   -1    0    0  501  502  0.00000000000E+00  0.00000000000E+00  0.29808014537E+01  0.29808014537E+01  0.00000000000E+00 0. -1.
         13   -1    0    0    0    0 -0.00000000000E+00 -0.00000000000E+00 -0.10000000000E+04  0.10000000000E+04  0.00000000000E+00 0.  1.
    9000005    2    1    2  501    0  0.37058109318E+02  0.92944263866E+01 -0.85655284486E+03  0.85741127736E+03  0.34106701920E+01 0.  0.
         13    1    3    3    0    0  0.30861119275E+02  0.64516319176E+01 -0.69602242952E+03  0.69673614420E+03  0.00000000000E+00 0.  1.
          3    1    3    3  501    0  0.61969900439E+01  0.28427944690E+01 -0.16053041535E+03  0.16067513316E+03  0.00000000000E+00 0.  1.
         -1    1    1    2    0  502 -0.37058109318E+02 -0.92944263866E+01 -0.14046635368E+03  0.14556952409E+03  0.00000000000E+00 0. -1.
<mgrwt>
<rscale>  1 0.30000000E+03</rscale>
<asrwt>0</asrwt>
<pdfrwt beam="1">  1       21 0.10839301E-01 0.30000000E+03</pdfrwt>
<pdfrwt beam="2">0</pdfrwt>
<totfact> 0.74464802E+03</totfact>
</mgrwt>
</event>
<event>
 6    1  0.1270461E-001  0.3000000E+03  0.7818608E-02  0.1093470E+00
         21   -1    0    0  501  502  0.00000000000E+00  0.00000000000E+00  0.18537426940E+01  0.18537426940E+01  0.00000000000E+00 0. -1.
         13   -1    0    0    0    0 -0.00000000000E+00 -0.00000000000E+00 -0.10000000000E+04  0.10000000000E+04  0.00000000000E+00 0.  1.
    9000005    2    1    2  501    0  0.15421689069E+00 -0.33375146085E+02 -0.18444113415E+03  0.18746443063E+03  0.32336704579E+01 0.  0.
         13    1    3    3    0    0  0.10197671776E+01 -0.11010366417E+02 -0.67721250653E+02  0.68618043427E+02  0.00000000000E+00 0.  1.
          1    1    3    3  501    0 -0.86555028695E+00 -0.22364779669E+02 -0.11671988350E+03  0.11884638720E+03  0.00000000000E+00 0.  1.
         -3    1    1    2    0  502 -0.15421689069E+00  0.33375146085E+02 -0.81370512315E+03  0.81438931206E+03  0.00000000000E+00 0. -1.
<mgrwt>
<rscale>  1 0.30000000E+03</rscale>
<asrwt>0</asrwt>
<pdfrwt beam="1">  1       21 0.67408967E-02 0.30000000E+03</pdfrwt>
<pdfrwt beam="2">0</pdfrwt>
<totfact> 0.17228310E+04</totfact>
</mgrwt>
</event>
<event>
 6    1  0.1270461E-001  0.3000000E+03  0.7818608E-02  0.1093470E+00
         21   -1    0    0  501  502  0.00000000000E+00  0.00000000000E+00  0.77366739888E+01  0.77366739888E+01  0.00000000000E+00 0. -1.
         13   -1    0    0    0    0 -0.00000000000E+00 -0.00000000000E+00 -0.10000000000E+04  0.10000000000E+04  0.00000000000E+00 0.  1.
    9000005    2    1    2  501    0  0.76873603696E+01 -0.62543872221E+02 -0.84757293170E+03  0.84991987619E+03  0.36180007114E+01 0.  0.
         13    1    3    3    0    0  0.77362341214E+01 -0.51885682043E+02 -0.70288244434E+03  0.70483735988E+03  0.00000000000E+00 0.  1.
          3    1    3    3  501    0 -0.48873751773E-01 -0.10658190177E+02 -0.14469048735E+03  0.14508251631E+03  0.00000000000E+00 0.  1.
         -3    1    1    2    0  502 -0.76873603696E+01  0.62543872221E+02 -0.14469039431E+03  0.15781679780E+03  0.00000000000E+00 0. -1.
<mgrwt>
<rscale>  1 0.30000000E+03</rscale>
<asrwt>0</asrwt>
<pdfrwt beam="1">  1       21 0.28133419E-01 0.30000000E+03</pdfrwt>
<pdfrwt beam="2">0</pdfrwt>
<totfact> 0.12356942E+03</totfact>
</mgrwt>
</event>
<event>
 6    1  0.1270461E-001  0.3000000E+03  0.7818608E-02  0.1093470E+00
         21   -1    0    0  501  502  0.00000000000E+00  0.00000000000E+00  0.10937220958E+01  0.10937220958E+01  0.00000000000E+00 0. -1.
         13   -1    0    0    0    0 -0.00000000000E+00 -0.00000000000E+00 -0.10000000000E+04  0.10000000000E+04  0.00000000000E+00 0.  1.
    9000005    2    1    2  501    0 -0.14616814445E+02  0.27531123277E+02 -0.66454431785E+03  0.66528196777E+03  0.30548710575E+01 0.  0.
         13    1    3    3    0    0 -0.13997445824E+01  0.50604936717E+01 -0.11171311012E+03  0.11183642901E+03  0.00000000000E+00 0.  1.
          3    1    3    3  501    0 -0.13217069862E+02  0.22470629606E+02 -0.55283120773E+03  0.55344553875E+03  0.00000000000E+00 0.  1.
         -1    1    1    2    0  502  0.14616814445E+02 -0.27531123277E+02 -0.33436196005E+03  0.33581175433E+03  0.00000000000E+00 0. -1.
<mgrwt>
<rscale>  1 0.30000000E+03</rscale>
<asrwt>0</asrwt>
<pdfrwt beam="1">  1       21 0.39771796E-02 0.30000000E+03</pdfrwt>
<pdfrwt beam="2">0</pdfrwt>
<totfact> 0.42454351E+04</totfact>
</mgrwt>
</event>
<event>
 6    1  0.1270461E-001  0.3000000E+03  0.7818608E-02  0.1093470E+00
         21   -1    0    0  501  502  0.00000000000E+00  0.00000000000E+00  0.17166795713E+01  0.17166795713E+01  0.00000000000E+00 0. -1.
         13   -1    0    0    0    0 -0.00000000000E+00 -0.00000000000E+00 -0.10000000000E+04  0.10000000000E+04  0.00000000000E+00 0.  1.
    9000005    2    1    2  501    0 -0.25791964613E+02  0.27480950733E+02 -0.69966803226E+03  0.70073243012E+03  0.83758676353E+01 0.  0.
         13    1    3    3    0    0 -0.43606859867E+01  0.23984049394E+01 -0.14390799555E+03  0.14399402457E+03  0.00000000000E+00 0.  1.
          3    1    3    3  501    0 -0.21431278626E+02  0.25082545794E+02 -0.55576003671E+03  0.55673840555E+03  0.00000000000E+00 0.  1.
         -1    1    1    2    0  502  0.25791964613E+02 -0.27480950733E+02 -0.29861528817E+03  0.30098424945E+03  0.00000000000E+00 0. -1.
<mgrwt>
<rscale>  1 0.30000000E+03</rscale>
<asrwt>0</asrwt>
<pdfrwt beam="1">  1       21 0.62424843E-02 0.30000000E+03</pdfrwt>
<pdfrwt beam="2">0</pdfrwt>
<totfact> 0.19678833E+04</totfact>
</mgrwt>
</event>
<event>
 6    1  0.1270461E-001  0.3000000E+03  0.7818608E-02  0.1093470E+00
         21   -1    0    0  501  502  0.00000000000E+00  0.00000000000E+00  0.11998323944E+01  0.11998323944E+01  0.00000000000E+00 0. -1.
         13   -1    0    0    0    0 -0.00000000000E+00 -0.00000000000E+00 -0.10000000000E+04  0.10000000000E+04  0.00000000000E+00 0.  1.
    9000005    2    1    2  501    0  0.33829170016E+02 -0.10656184610E+01 -0.60284193233E+03  0.60379767794E+03  0.27734846954E+01 0.  0.
         13    1    3    3    0    0  0.15134924073E+02  0.79358698089E+00 -0.25965615563E+03  0.26009808701E+03  0.00000000000E+00 0.  1.
          3    1    3    3  501    0  0.18694245942E+02 -0.18592054419E+01 -0.34318577670E+03  0.34369959093E+03  0.00000000000E+00 0.  1.
         -1    1    1    2    0  502 -0.33829170016E+02  0.10656184610E+01 -0.39595823527E+03  0.39740215446E+03  0.00000000000E+00 0. -1.
<mgrwt>
<rscale>  1 0.30000000E+03</rscale>
<asrwt>0</asrwt>
<pdfrwt beam="1">  1       21 0.43630361E-02 0.30000000E+03</pdfrwt>
<pdfrwt beam="2">0</pdfrwt>
<totfact> 0.36311481E+04</totfact>
</mgrwt>
</event>
<event>
 6    1  0.1270461E-001  0.3000000E+03  0.7818608E-02  0.1093470E+00
         21   -1    0    0  501  502  0.00000000000E+00  0.00000000000E+00  0.15588895725E+01  0.15588895725E+01  0.00000000000E+00 0. -1.
         13   -1    0    0    0    0 -0.00000000000E+00 -0.00000000000E+00 -0.10000000000E+04  0.10000000000E+04  0.00000000000E+00 0.  1.
    9000005    2    1    2  501    0 -0.38530789166E+02  0.77479630574E+01 -0.46289398226E+03  0.46457157210E+03  0.33547189312E+01 0.  0.
         13    1    3    3    0    0 -0.56382557000E+01  0.16464036655E+01 -0.57287744269E+02  0.57588073556E+02  0.00000000000E+00 0.  1.
          3    1    3    3  501    0 -0.32892533466E+02  0.61015593919E+01 -0.40560623800E+03  0.40698349854E+03  0.00000000000E+00 0.  1.
         -3    1    1    2    0  502  0.38530789166E+02 -0.77479630574E+01 -0.53554712816E+03  0.53698731747E+03  0.00000000000E+00 0. -1.
<mgrwt>
<rscale>  1 0.30000000E+03</rscale>
<asrwt>0</asrwt>
<pdfrwt beam="1">  1       21 0.56687013E-02 0.30000000E+03</pdfrwt>
<pdfrwt beam="2">0</pdfrwt>
<totfact> 0.23237180E+04</totfact>
</mgrwt>
</event>
<event>
 6    1  0.1270461E-001  0.3000000E+03  0.7818608E-02  0.1093470E+00
         21   -1    0    0  501  502  0.00000000000E+00  0.00000000000E+00  0.20053489289E+01  0.20053489289E+01  0.00000000000E+00 0. -1.
         13   -1    0    0    0    0 -0.00000000000E+00 -0.00000000000E+00 -0.10000000000E+04  0.10000000000E+04  0.00000000000E+00 0.  1.
    9000005    2    1    2  501    0  0.12477023155E+02  0.33478152702E+02 -0.79826028087E+03  0.79910073721E+03  0.81270774538E+01 0.  0.
         13    1    3    3    0    0  0.12338847470E+01  0.14498739482E+01 -0.17568054602E+02  0.17670912499E+02  0.00000000000E+00 0.  1.
          3    1    3    3  501    0  0.11243138408E+02  0.32028278753E+02 -0.78069222626E+03  0.78142982471E+03  0.00000000000E+00 0.  1.
         -3    1    1    2    0  502 -0.12477023155E+02 -0.33478152702E+02 -0.19973437020E+03  0.20290461172E+03  0.00000000000E+00 0. -1.
<mgrwt>
<rscale>  1 0.30000000E+03</rscale>
<asrwt>0</asrwt>
<pdfrwt beam="1">  1       21 0.72921933E-02 0.30000000E+03</pdfrwt>
<pdfrwt beam="2">0</pdfrwt>
<totfact> 0.15024986E+04</totfact>
</mgrwt>
</event>
<event>
 6    1  0.1270461E-001  0.3000000E+03  0.7818608E-02  0.1093470E+00
         21   -1    0    0  501  502  0.00000000000E+00  0.00000000000E+00  0.25492442592E+01  0.25492442592E+01  0.00000000000E+00 0. -1.
         13   -1    0    0    0    0 -0.00000000000E+00 -0.00000000000E+00 -0.10000000000E+04  0.10000000000E+04  0.00000000000E+00 0.  1.
    9000005    2    1    2  501    0 -0.19873239805E+02 -0.37306972416E+02 -0.77237714803E+03  0.77354076245E+03  0.34780061034E+01 0.  0.
         13    1    3    3    0    0 -0.18855612462E+02 -0.35256233655E+02 -0.71375642480E+03  0.71487535282E+03  0.00000000000E+00 0.  1.
          1    1    3    3  501    0 -0.10176273432E+01 -0.20507387607E+01 -0.58620723226E+02  0.58665409624E+02  0.00000000000E+00 0.  1.
         -1    1    1    2    0  502  0.19873239805E+02  0.37306972416E+02 -0.22507360772E+03  0.22900848181E+03  0.00000000000E+00 0. -1.
<mgrwt>
<rscale>  1 0.30000000E+03</rscale>
<asrwt>0</asrwt>
<pdfrwt beam="1">  1       21 0.92699987E-02 0.30000000E+03</pdfrwt>
<pdfrwt beam="2">0</pdfrwt>
<totfact> 0.98478737E+03</totfact>
</mgrwt>
</event>
<event>
 6    1  0.1270461E-001  0.3000000E+03  0.7818608E-02  0.1093470E+00
         21   -1    0    0  501  502  0.00000000000E+00  0.00000000000E+00  0.14635530574E+01  0.14635530574E+01  0.00000000000E+00 0. -1.
         13   -1    0    0    0    0 -0.00000000000E+00 -0.00000000000E+00 -0.10000000000E+04  0.10000000000E+04  0.00000000000E+00 0.  1.
    9000005    2    1    2  501    0 -0.22677593741E+02  0.22310173777E+02 -0.77662310512E+03  0.77728159929E+03  0.33496405200E+01 0.  0.
         13    1    3    3    0    0 -0.73532059497E+01  0.86496981309E+01 -0.30758662613E+03  0.30779606802E+03  0.00000000000E+00 0.  1.
          3    1    3    3  501    0 -0.15324387791E+02  0.13660475646E+02 -0.46903647899E+03  0.46948553128E+03  0.00000000000E+00 0.  1.
         -1    1    1    2    0  502  0.22677593741E+02 -0.22310173777E+02 -0.22191334183E+03  0.22418195376E+03  0.00000000000E+00 0. -1.
<mgrwt>
<rscale>  1 0.30000000E+03</rscale>
<asrwt>0</asrwt>
<pdfrwt beam="1">  1       21 0.53220223E-02 0.30000000E+03</pdfrwt>
<pdfrwt beam="2">0</pdfrwt>
<totfact> 0.25892559E+04</totfact>
</mgrwt>
</event>
<event>
 6    1  0.1270461E-001  0.3000000E+03  0.7818608E-02  0.1093470E+00
         21   -1    0    0  501  502  0.00000000000E+00  0.00000000000E+00  0.33658598321E+01  0.33658598321E+01  0.00000000000E+00 0. -1.
         13   -1    0    0    0    0 -0.00000000000E+00 -0.00000000000E+00 -0.10000000000E+04  0.10000000000E+04  0.00000000000E+00 0.  1.
    9000005    2    1    2  501    0  0.49984196524E+02 -0.42002439351E+01 -0.75003874780E+03  0.75172057478E+03  0.31044156919E+01 0.  0.
         13    1    3    3    0    0  0.39621078037E+02 -0.31625373858E+01 -0.61217661352E+03  0.61346559611E+03  0.00000000000E+00 0.  1.
          3    1    3    3  501    0  0.10363118487E+02 -0.10377065493E+01 -0.13786213428E+03  0.13825497867E+03  0.00000000000E+00 0.  1.
         -1    1    1    2    0  502 -0.49984196524E+02  0.42002439351E+01 -0.24659539236E+03  0.25164528505E+03  0.00000000000E+00 0. -1.
<mgrwt>
<rscale>  1 0.30000000E+03</rscale>
<asrwt>0</asrwt>
<pdfrwt beam="1">  1       21 0.12239516E-01 0.30000000E+03</pdfrwt>
<pdfrwt beam="2">0</pdfrwt>
<totfact> 0.59785258E+03</totfact>
</mgrwt>
</event>
<event>
 6    1  0.1270461E-001  0.3000000E+03  0.7818608E-02  0.1093470E+00
         21   -1    0    0  501  502  0.00000000000E+00  0.00000000000E+00  0.12337623079E+01  0.12337623079E+01  0.00000000000E+00 0. -1.
         13   -1    0    0    0    0 -0.00000000000E+00 -0.00000000000E+00 -0.10000000000E+04  0.10000000000E+04  0.00000000000E+00 0.  1.
    9000005    2    1    2  501    0  0.23805414689E+02  0.18936461655E+02 -0.74863007369E+03  0.74925481896E+03  0.32417826419E+01 0.  0.
         13    1    3    3    0    0  0.11592097197E+01  0.19867167422E+01 -0.59487923304E+02  0.59532376314E+02  0.00000000000E+00 0.  1.
          1    1    3    3  501    0  0.22646204969E+02  0.16949744913E+02 -0.68914215038E+03  0.68972244264E+03  0.00000000000E+00 0.  1.
         -1    1    1    2    0  502 -0.23805414689E+02 -0.18936461655E+02 -0.25013616400E+03  0.25197894335E+03  0.00000000000E+00 0. -1.
<mgrwt>
<rscale>  1 0.30000000E+03</rscale>
<asrwt>0</asrwt>
<pdfrwt beam="1">  1       21 0.44864179E-02 0.30000000E+03</pdfrwt>
<pdfrwt beam="2">0</pdfrwt>
<totfact> 0.34635372E+04</totfact>
</mgrwt>
</event>
<event>
 6    1  0.1270461E-001  0.3000000E+03  0.7818608E-02  0.1093470E+00
         21   -1    0    0  501  502  0.00000000000E+00  0.00000000000E+00  0.19176503488E+01  0.19176503488E+01  0.00000000000E+00 0. -1.
         13   -1    0    0    0    0 -0.00000000000E+00 -0.00000000000E+00 -0.10000000000E+04  0.10000000000E+04  0.00000000000E+00 0.  1.
    9000005    2    1    2  501    0  0.43428701372E+02 -0.31688011976E+01 -0.46455181856E+03  0.46661313793E+03  0.48306275540E+01 0.  0.
         13    1    3    3    0    0  0.10054433331E+02 -0.27919839505E+01 -0.11070677569E+03  0.11119746844E+03  0.00000000000E+00 0.  1.
          3    1    3    3  501    0  0.33374268040E+02 -0.37681724709E+00 -0.35384504287E+03  0.35541566950E+03  0.00000000000E+00 0.  1.
         -1    1    1    2    0  502 -0.43428701372E+02  0.31688011976E+01 -0.53353053109E+03  0.53530451241E+03  0.00000000000E+00 0. -1.
<mgrwt>
<rscale>  1 0.30000000E+03</rscale>
<asrwt>0</asrwt>
<pdfrwt beam="1">  1       21 0.69732887E-02 0.30000000E+03</pdfrwt>
<pdfrwt beam="2">0</pdfrwt>
<totfact> 0.16242986E+04</totfact>
</mgrwt>
</event>
<event>
 6    1  0.1270461E-001  0.3000000E+03  0.7818608E-02  0.1093470E+00
         21   -1    0    0  501  502  0.00000000000E+00  0.00000000000E+00  0.14555242175E+01  0.14555242175E+01  0.00000000000E+00 0. -1.
         13   -1    0    0    0    0 -0.00000000000E+00 -0.00000000000E+00 -0.10000000000E+04  0.10000000000E+04  0.00000000000E+00 0.  1.
    9000005    2    1    2  501    0  0.29534189653E+02 -0.71527745911E+01 -0.80156616080E+03  0.80214700178E+03  0.28410882370E+01 0.  0.
         13    1    3    3    0    0  0.14471632661E+02 -0.21598571807E+01 -0.37001955557E+03  0.37030874232E+03  0.00000000000E+00 0.  1.
          3    1    3    3  501    0  0.15062556992E+02 -0.49929174104E+01 -0.43154660523E+03  0.43183825946E+03  0.00000000000E+00 0.  1.
         -1    1    1    2    0  502 -0.29534189653E+02  0.71527745911E+01 -0.19697831498E+03  0.19930852244E+03  0.00000000000E+00 0. -1.
<mgrwt>
<rscale>  1 0.30000000E+03</rscale>
<asrwt>0</asrwt>
<pdfrwt beam="1">  1       21 0.52928265E-02 0.30000000E+03</pdfrwt>
<pdfrwt beam="2">0</pdfrwt>
<totfact> 0.26137338E+04</totfact>
</mgrwt>
</event>
<event>
 6    1  0.1270461E-001  0.3000000E+03  0.7818608E-02  0.1093470E+00
         21   -1    0    0  501  502  0.00000000000E+00  0.00000000000E+00  0.13760934667E+01  0.13760934667E+01  0.00000000000E+00 0. -1.
         13   -1    0    0    0    0 -0.00000000000E+00 -0.00000000000E+00 -0.10000000000E+04  0.10000000000E+04  0.00000000000E+00 0.  1.
    9000005    2    1    2  501    0 -0.17092986792E+02 -0.32343483042E+02 -0.42327233137E+03  0.42486268848E+03  0.32506094317E+01 0.  0.
         13    1    3    3    0    0 -0.67151402581E+01 -0.15199551847E+02 -0.17895221632E+03  0.17972204988E+03  0.00000000000E+00 0.  1.
          1    1    3    3  501    0 -0.10377846534E+02 -0.17143931196E+02 -0.24432011505E+03  0.24514063860E+03  0.00000000000E+00 0.  1.
         -3    1    1    2    0  502  0.17092986792E+02  0.32343483042E+02 -0.57535157516E+03  0.57651340499E+03  0.00000000000E+00 0. -1.
<mgrwt>
<rscale>  1 0.30000000E+03</rscale>
<asrwt>0</asrwt>
<pdfrwt beam="1">  1       21 0.50039868E-02 0.30000000E+03</pdfrwt>
<pdfrwt beam="2">0</pdfrwt>
<totfact> 0.28765543E+04</totfact>
</mgrwt>
</event>
<event>
 6    1  0.1270461E-001  0.3000000E+03  0.7818608E-02  0.1093470E+00
         21   -1    0    0  501  502  0.00000000000E+00  0.00000000000E+00  0.10265225846E+01  0.10265225846E+01  0.00000000000E+00 0. -1.
         13   -1    0    0    0    0 -0.00000000000E+00 -0.00000000000E+00 -0.10000000000E+04  0.10000000000E+04  0.00000000000E+00 0.  1.
    9000005    2    1    2  501    0  0.54883509928E+01 -0.31465173717E+02 -0.51457973051E+03  0.51558087043E+03  0.33400223144E+01 0.  0.
         13    1    3    3    0    0  0.43772024384E+01 -0.18556836113E+02 -0.32526785677E+03  0.32582617254E+03  0.00000000000E+00 0.  1.
          1    1    3    3  501    0  0.11111485544E+01 -0.12908337604E+02 -0.18931187374E+03  0.18975469789E+03  0.00000000000E+00 0.  1.
         -1    1    1    2    0  502 -0.54883509928E+01  0.31465173717E+02 -0.48439374690E+03  0.48544565215E+03  0.00000000000E+00 0. -1.
<mgrwt>
<rscale>  1 0.30000000E+03</rscale>
<asrwt>0</asrwt>
<pdfrwt beam="1">  1       21 0.37328173E-02 0.30000000E+03</pdfrwt>
<pdfrwt beam="2">0</pdfrwt>
<totfact> 0.47230092E+04</totfact>
</mgrwt>
</event>
<event>
 6    1  0.1270461E-001  0.3000000E+03  0.7818608E-02  0.1093470E+00
         21   -1    0    0  501  502  0.00000000000E+00  0.00000000000E+00  0.28369462423E+01  0.28369462423E+01  0.00000000000E+00 0. -1.
         13   -1    0    0    0    0 -0.00000000000E+00 -0.00000000000E+00 -0.10000000000E+04  0.10000000000E+04  0.00000000000E+00 0.  1.
    9000005    2    1    2  501    0 -0.35167940508E+02  0.16272519428E+02 -0.15537998797E+03  0.16016244872E+03  0.27368577078E+01 0.  0.
         13    1    3    3    0    0 -0.50976972970E+01  0.14229581893E+01 -0.19593309876E+02  0.20295544329E+02  0.00000000000E+00 0.  1.
          1    1    3    3  501    0 -0.30070243211E+02  0.14849561239E+02 -0.13578667809E+03  0.13986690439E+03  0.00000000000E+00 0.  1.
         -1    1    1    2    0  502  0.35167940508E+02 -0.16272519428E+02 -0.84178306579E+03  0.84267449753E+03  0.00000000000E+00 0. -1.
<mgrwt>
<rscale>  1 0.30000000E+03</rscale>
<asrwt>0</asrwt>
<pdfrwt beam="1">  1       21 0.10316190E-01 0.30000000E+03</pdfrwt>
<pdfrwt beam="2">0</pdfrwt>
<totfact> 0.81372891E+03</totfact>
</mgrwt>
</event>
<event>
 6    1  0.1270461E-001  0.3000000E+03  0.7818608E-02  0.1093470E+00
         21   -1    0    0  501  502  0.00000000000E+00  0.00000000000E+00  0.31062213119E+01  0.31062213119E+01  0.00000000000E+00 0. -1.
         13   -1    0    0    0    0 -0.00000000000E+00 -0.00000000000E+00 -0.10000000000E+04  0.10000000000E+04  0.00000000000E+00 0.  1.
    9000005    2    1    2  501    0  0.15122503813E+02  0.50104155631E+02 -0.67007106138E+03  0.67211950695E+03  0.32074593308E+01 0.  0.
         13    1    3    3    0    0  0.13678180055E+02  0.46961852773E+02 -0.61690379421E+03  0.61883988199E+03  0.00000000000E+00 0.  1.
          1    1    3    3  501    0  0.14443237580E+01  0.31423028584E+01 -0.53167267169E+02  0.53279624966E+02  0.00000000000E+00 0.  1.
         -1    1    1    2    0  502 -0.15122503813E+02 -0.50104155631E+02 -0.32682271731E+03  0.33098671436E+03  0.00000000000E+00 0. -1.
<mgrwt>
<rscale>  1 0.30000000E+03</rscale>
<asrwt>0</asrwt>
<pdfrwt beam="1">  1       21 0.11295374E-01 0.30000000E+03</pdfrwt>
<pdfrwt beam="2">0</pdfrwt>
<totfact> 0.69140194E+03</totfact>
</mgrwt>
</event>
<event>
 6    1  0.1270461E-001  0.3000000E+03  0.7818608E-02  0.1093470E+00
         21   -1    0    0  501  502  0.00000000000E+00  0.00000000000E+00  0.62114387399E+01  0.62114387399E+01  0.00000000000E+00 0. -1.
         13   -1    0    0    0    0 -0.00000000000E+00 -0.00000000000E+00 -0.10000000000E+04  0.10000000000E+04  0.00000000000E+00 0.  1.
    9000005    2    1    2  501    0  0.15205581541E+02  0.52065585190E+02 -0.86181368097E+03  0.86352505572E+03  0.32659272580E+01 0.  0.
         13    1    3    3    0    0  0.78820355332E+01  0.32035053574E+02 -0.53506210027E+03  0.53607818673E+03  0.00000000000E+00 0.  1.
          1    1    3    3  501    0  0.73235460074E+01  0.20030531616E+02 -0.32675158070E+03  0.32744686899E+03  0.00000000000E+00 0.  1.
         -3    1    1    2    0  502 -0.15205581541E+02 -0.52065585190E+02 -0.13197488029E+03  0.14268638302E+03  0.00000000000E+00 0. -1.
<mgrwt>
<rscale>  1 0.30000000E+03</rscale>
<asrwt>0</asrwt>
<pdfrwt beam="1">  1       21 0.22587098E-01 0.30000000E+03</pdfrwt>
<pdfrwt beam="2">0</pdfrwt>
<totfact> 0.18996414E+03</totfact>
</mgrwt>
</event>
<event>
 6    1  0.1270461E-001  0.3000000E+03  0.7818608E-02  0.1093470E+00
         21   -1    0    0  501  502  0.00000000000E+00  0.00000000000E+00  0.39664126579E+01  0.39664126579E+01  0.00000000000E+00 0. -1.
         13   -1    0    0    0    0 -0.00000000000E+00 -0.00000000000E+00 -0.10000000000E+04  0.10000000000E+04  0.00000000000E+00 0.  1.
    9000005    2    1    2  501    0 -0.25335151911E+01 -0.62869950302E+02 -0.51117554827E+03  0.51504273006E+03  0.30859828812E+01 0.  0.
         13    1    3    3    0    0 -0.56480182254E+00 -0.15286488633E+02 -0.13540727783E+03  0.13626858268E+03  0.00000000000E+00 0.  1.
          1    1    3    3  501    0 -0.19687133685E+01 -0.47583461669E+02 -0.37576827043E+03  0.37877414737E+03  0.00000000000E+00 0.  1.
         -3    1    1    2    0  502  0.25335151911E+01  0.62869950302E+02 -0.48485803908E+03  0.48892368260E+03  0.00000000000E+00 0. -1.
<mgrwt>
<rscale>  1 0.30000000E+03</rscale>
<asrwt>0</asrwt>
<pdfrwt beam="1">  1       21 0.14423349E-01 0.30000000E+03</pdfrwt>
<pdfrwt beam="2">0</pdfrwt>
<totfact> 0.44272205E+03</totfact>
</mgrwt>
</event>
<event>
 6    1  0.1270461E-001  0.3000000E+03  0.7818608E-02  0.1093470E+00
         21   -1    0    0  501  502  0.00000000000E+00  0.00000000000E+00  0.20913746403E+01  0.20913746403E+01  0.00000000000E+00 0. -1.
         13   -1    0    0    0    0 -0.00000000000E+00 -0.00000000000E+00 -0.10000000000E+04  0.10000000000E+04  0.00000000000E+00 0.  1.
    9000005    2    1    2  501    0 -0.31720141061E+02  0.70648227968E+01 -0.85104082682E+03  0.85167119874E+03  0.41548499812E+01 0.  0.
         13    1    3    3    0    0 -0.29072452306E+02  0.52796999693E+01 -0.75862401810E+03  0.75919923838E+03  0.00000000000E+00 0.  1.
          3    1    3    3  501    0 -0.26476887547E+01  0.17851228275E+01 -0.92416808718E+02  0.92471960360E+02  0.00000000000E+00 0.  1.
         -1    1    1    2    0  502  0.31720141061E+02 -0.70648227968E+01 -0.14686779854E+03  0.15042017590E+03  0.00000000000E+00 0. -1.
<mgrwt>
<rscale>  1 0.30000000E+03</rscale>
<asrwt>0</asrwt>
<pdfrwt beam="1">  1       21 0.76050147E-02 0.30000000E+03</pdfrwt>
<pdfrwt beam="2">0</pdfrwt>
<totfact> 0.13960315E+04</totfact>
</mgrwt>
</event>
<event>
 6    1  0.1270461E-001  0.3000000E+03  0.7818608E-02  0.1093470E+00
         21   -1    0    0  501  502  0.00000000000E+00  0.00000000000E+00  0.23989079602E+01  0.23989079602E+01  0.00000000000E+00 0. -1.
         13   -1    0    0    0    0 -0.00000000000E+00 -0.00000000000E+00 -0.10000000000E+04  0.10000000000E+04  0.00000000000E+00 0.  1.
    9000005    2    1    2  501    0 -0.45027995793E+02  0.20825148070E+01 -0.69403523088E+03  0.69550464387E+03  0.31544669205E+01 0.  0.
         13    1    3    3    0    0 -0.32923802529E+02  0.25895684149E+01 -0.49352362284E+03  0.49462738394E+03  0.00000000000E+00 0.  1.
          3    1    3    3  501    0 -0.12104193263E+02 -0.50705360786E+00 -0.20051160804E+03  0.20087725993E+03  0.00000000000E+00 0.  1.
         -1    1    1    2    0  502  0.45027995793E+02 -0.20825148070E+01 -0.30356586116E+03  0.30689426409E+03  0.00000000000E+00 0. -1.
<mgrwt>
<rscale>  1 0.30000000E+03</rscale>
<asrwt>0</asrwt>
<pdfrwt beam="1">  1       21 0.87233201E-02 0.30000000E+03</pdfrwt>
<pdfrwt beam="2">0</pdfrwt>
<totfact> 0.10967545E+04</totfact>
</mgrwt>
</event>
<event>
 6    1  0.1270461E-001  0.3000000E+03  0.7818608E-02  0.1093470E+00
         21   -1    0    0  501  502  0.00000000000E+00  0.00000000000E+00  0.59074267992E+01  0.59074267992E+01  0.00000000000E+00 0. -1.
         13   -1    0    0    0    0 -0.00000000000E+00 -0.00000000000E+00 -0.10000000000E+04  0.10000000000E+04  0.00000000000E+00 0.  1.
    9000005    2    1    2  501    0 -0.45430914063E+02 -0.35015639332E+02 -0.83170610765E+03  0.83368830142E+03  0.33273835943E+01 0.  0.
         13    1    3    3    0    0 -0.21377490273E+02 -0.14445674996E+02 -0.37917362167E+03  0.38005040454E+03  0.00000000000E+00 0.  1.
          3    1    3    3  501    0 -0.24053423789E+02 -0.20569964336E+02 -0.45253248598E+03  0.45363789689E+03  0.00000000000E+00 0.  1.
         -3    1    1    2    0  502  0.45430914063E+02  0.35015639332E+02 -0.16238646555E+03  0.17221912538E+03  0.00000000000E+00 0. -1.
<mgrwt>
<rscale>  1 0.30000000E+03</rscale>
<asrwt>0</asrwt>
<pdfrwt beam="1">  1       21 0.21481597E-01 0.30000000E+03</pdfrwt>
<pdfrwt beam="2">0</pdfrwt>
<totfact> 0.20923778E+03</totfact>
</mgrwt>
</event>
<event>
 6    1  0.1270461E-001  0.3000000E+03  0.7818608E-02  0.1093470E+00
         21   -1    0    0  501  502  0.00000000000E+00  0.00000000000E+00  0.12849090205E+01  0.12849090205E+01  0.00000000000E+00 0. -1.
         13   -1    0    0    0    0 -0.00000000000E+00 -0.00000000000E+00 -0.10000000000E+04  0.10000000000E+04  0.00000000000E+00 0.  1.
    9000005    2    1    2  501    0 -0.25240947399E+02  0.23491933577E+02 -0.63355935238E+03  0.63450474353E+03  0.31369091019E+01 0.  0.
         13    1    3    3    0    0 -0.18348768076E+02  0.15651120023E+02 -0.45985889114E+03  0.46049086267E+03  0.00000000000E+00 0.  1.
          3    1    3    3  501    0 -0.68921793231E+01  0.78408135540E+01 -0.17370046124E+03  0.17401388085E+03  0.00000000000E+00 0.  1.
         -1    1    1    2    0  502  0.25240947399E+02 -0.23491933577E+02 -0.36515573860E+03  0.36678016549E+03  0.00000000000E+00 0. -1.
<mgrwt>
<rscale>  1 0.30000000E+03</rscale>
<asrwt>0</asrwt>
<pdfrwt beam="1">  1       21 0.46724063E-02 0.30000000E+03</pdfrwt>
<pdfrwt beam="2">0</pdfrwt>
<totfact> 0.32326317E+04</totfact>
</mgrwt>
</event>
<event>
 6    1  0.1270461E-001  0.3000000E+03  0.7818608E-02  0.1093470E+00
         21   -1    0    0  501  502  0.00000000000E+00  0.00000000000E+00  0.16998705646E+01  0.16998705646E+01  0.00000000000E+00 0. -1.
         13   -1    0    0    0    0 -0.00000000000E+00 -0.00000000000E+00 -0.10000000000E+04  0.10000000000E+04  0.00000000000E+00 0.  1.
    9000005    2    1    2  501    0 -0.29095563219E+01 -0.38640468843E+02 -0.66808926315E+03  0.66922315324E+03  0.38488887901E+01 0.  0.
         13    1    3    3    0    0  0.77588567860E+00 -0.14424870945E+02 -0.24925601999E+03  0.24967427261E+03  0.00000000000E+00 0.  1.
          3    1    3    3  501    0 -0.36854420005E+01 -0.24215597899E+02 -0.41883324316E+03  0.41954888063E+03  0.00000000000E+00 0.  1.
         -3    1    1    2    0  502  0.29095563219E+01  0.38640468843E+02 -0.33021086628E+03  0.33247671732E+03  0.00000000000E+00 0. -1.
<mgrwt>
<rscale>  1 0.30000000E+03</rscale>
<asrwt>0</asrwt>
<pdfrwt beam="1">  1       21 0.61813605E-02 0.30000000E+03</pdfrwt>
<pdfrwt beam="2">0</pdfrwt>
<totfact> 0.20016149E+04</totfact>
</mgrwt>
</event>
<event>
 6    1  0.1270461E-001  0.3000000E+03  0.7818608E-02  0.1093470E+00
         21   -1    0    0  501  502  0.00000000000E+00  0.00000000000E+00  0.14478109213E+01  0.14478109213E+01  0.00000000000E+00 0. -1.
         13   -1    0    0    0    0 -0.00000000000E+00 -0.00000000000E+00 -0.10000000000E+04  0.10000000000E+04  0.00000000000E+00 0.  1.
    9000005    2    1    2  501    0  0.32460885561E+02  0.62301713396E+01 -0.74640383469E+03  0.74714225308E+03  0.32152412569E+01 0.  0.
         13    1    3    3    0    0  0.26064657324E+01 -0.14537272065E+00 -0.73393803916E+02  0.73440215482E+02  0.00000000000E+00 0.  1.
          3    1    3    3  501    0  0.29854419828E+02  0.63755440602E+01 -0.67301003077E+03  0.67370203760E+03  0.00000000000E+00 0.  1.
         -1    1    1    2    0  502 -0.32460885561E+02 -0.62301713396E+01 -0.25214835439E+03  0.25430555784E+03  0.00000000000E+00 0. -1.
<mgrwt>
<rscale>  1 0.30000000E+03</rscale>
<asrwt>0</asrwt>
<pdfrwt beam="1">  1       21 0.52647781E-02 0.30000000E+03</pdfrwt>
<pdfrwt beam="2">0</pdfrwt>
<totfact> 0.26375887E+04</totfact>
</mgrwt>
</event>
<event>
 6    1  0.1270461E-001  0.3000000E+03  0.7818608E-02  0.1093470E+00
         21   -1    0    0  501  502  0.00000000000E+00  0.00000000000E+00  0.22391994184E+01  0.22391994184E+01  0.00000000000E+00 0. -1.
         13   -1    0    0    0    0 -0.00000000000E+00 -0.00000000000E+00 -0.10000000000E+04  0.10000000000E+04  0.00000000000E+00 0.  1.
    9000005    2    1    2  501    0 -0.26784861349E+02  0.27172255258E+02 -0.79474798570E+03  0.79567210800E+03  0.37393063911E+01 0.  0.
         13    1    3    3    0    0 -0.85170933121E+01  0.11153237152E+02 -0.28351343008E+03  0.28386053021E+03  0.00000000000E+00 0.  1.
          3    1    3    3  501    0 -0.18267768037E+02  0.16019018106E+02 -0.51123455563E+03  0.51181157779E+03  0.00000000000E+00 0.  1.
         -1    1    1    2    0  502  0.26784861349E+02 -0.27172255258E+02 -0.20301281488E+03  0.20656709142E+03  0.00000000000E+00 0. -1.
<mgrwt>
<rscale>  1 0.30000000E+03</rscale>
<asrwt>0</asrwt>
<pdfrwt beam="1">  1       21 0.81425605E-02 0.30000000E+03</pdfrwt>
<pdfrwt beam="2">0</pdfrwt>
<totfact> 0.12383451E+04</totfact>
</mgrwt>
</event>
<event>
 6    1  0.1270461E-001  0.3000000E+03  0.7818608E-02  0.1093470E+00
         21   -1    0    0  501  502  0.00000000000E+00  0.00000000000E+00  0.20529745764E+01  0.20529745764E+01  0.00000000000E+00 0. -1.
         13   -1    0    0    0    0 -0.00000000000E+00 -0.00000000000E+00 -0.10000000000E+04  0.10000000000E+04  0.00000000000E+00 0.  1.
    9000005    2    1    2  501    0  0.34360965264E+02 -0.86456924531E+01 -0.81081541619E+03  0.81159651470E+03  0.34408749191E+01 0.  0.
         13    1    3    3    0    0  0.13936434154E+02 -0.43638377188E+01 -0.36795287894E+03  0.36824256733E+03  0.00000000000E+00 0.  1.
          1    1    3    3  501    0  0.20424531110E+02 -0.42818547343E+01 -0.44286253725E+03  0.44335394737E+03  0.00000000000E+00 0.  1.
         -1    1    1    2    0  502 -0.34360965264E+02  0.86456924531E+01 -0.18713160924E+03  0.19045645987E+03  0.00000000000E+00 0. -1.
<mgrwt>
<rscale>  1 0.30000000E+03</rscale>
<asrwt>0</asrwt>
<pdfrwt beam="1">  1       21 0.74653778E-02 0.30000000E+03</pdfrwt>
<pdfrwt beam="2">0</pdfrwt>
<totfact> 0.14420806E+04</totfact>
</mgrwt>
</event>
<event>
 6    1  0.1270461E-001  0.3000000E+03  0.7818608E-02  0.1093470E+00
         21   -1    0    0  501  502  0.00000000000E+00  0.00000000000E+00  0.98279250676E+00  0.98279250676E+00  0.00000000000E+00 0. -1.
         13   -1    0    0    0    0 -0.00000000000E+00 -0.00000000000E+00 -0.10000000000E+04  0.10000000000E+04  0.00000000000E+00 0.  1.
    9000005    2    1    2  501    0  0.29730219342E+02  0.74309588051E+01 -0.41860126789E+03  0.41975842272E+03  0.55683815103E+01 0.  0.
         13    1    3    3    0    0  0.24421028907E+02  0.38423580825E+01 -0.32670019317E+03  0.32763419630E+03  0.00000000000E+00 0.  1.
          3    1    3    3  501    0  0.53091904353E+01  0.35886007226E+01 -0.91901074720E+02  0.92124226417E+02  0.00000000000E+00 0.  1.
         -1    1    1    2    0  502 -0.29730219342E+02 -0.74309588051E+01 -0.58041593960E+03  0.58122436979E+03  0.00000000000E+00 0. -1.
<mgrwt>
<rscale>  1 0.30000000E+03</rscale>
<asrwt>0</asrwt>
<pdfrwt beam="1">  1       21 0.35737985E-02 0.30000000E+03</pdfrwt>
<pdfrwt beam="2">0</pdfrwt>
<totfact> 0.50808847E+04</totfact>
</mgrwt>
</event>
<event>
 6    1  0.1270461E-001  0.3000000E+03  0.7818608E-02  0.1093470E+00
         21   -1    0    0  501  502  0.00000000000E+00  0.00000000000E+00  0.10512978797E+01  0.10512978797E+01  0.00000000000E+00 0. -1.
         13   -1    0    0    0    0 -0.00000000000E+00 -0.00000000000E+00 -0.10000000000E+04  0.10000000000E+04  0.00000000000E+00 0.  1.
    9000005    2    1    2  501    0 -0.25372459579E+02 -0.19452359394E+02 -0.57794126851E+03  0.57883166884E+03  0.27991095971E+01 0.  0.
         13    1    3    3    0    0 -0.13921077485E+02 -0.89968988093E+01 -0.30639938573E+03  0.30684739556E+03  0.00000000000E+00 0.  1.
          3    1    3    3  501    0 -0.11451382094E+02 -0.10455460584E+02 -0.27154188277E+03  0.27198427327E+03  0.00000000000E+00 0.  1.
         -3    1    1    2    0  502  0.25372459579E+02  0.19452359394E+02 -0.42100743361E+03  0.42221962904E+03  0.00000000000E+00 0. -1.
<mgrwt>
<rscale>  1 0.30000000E+03</rscale>
<asrwt>0</asrwt>
<pdfrwt beam="1">  1       21 0.38229094E-02 0.30000000E+03</pdfrwt>
<pdfrwt beam="2">0</pdfrwt>
<totfact> 0.45375465E+04</totfact>
</mgrwt>
</event>
<event>
 6    1  0.1270461E-001  0.3000000E+03  0.7818608E-02  0.1093470E+00
         21   -1    0    0  501  502  0.00000000000E+00  0.00000000000E+00  0.15866042966E+01  0.15866042966E+01  0.00000000000E+00 0. -1.
         13   -1    0    0    0    0 -0.00000000000E+00 -0.00000000000E+00 -0.10000000000E+04  0.10000000000E+04  0.00000000000E+00 0.  1.
    9000005    2    1    2  501    0 -0.28874709652E+02  0.16061810462E+02 -0.77790622608E+03  0.77861767716E+03  0.39572718208E+01 0.  0.
         13    1    3    3    0    0 -0.16305552309E+02  0.68447411699E+01 -0.40545254013E+03  0.40583800194E+03  0.00000000000E+00 0.  1.
          1    1    3    3  501    0 -0.12569157343E+02  0.92170692922E+01 -0.37245368595E+03  0.37277967522E+03  0.00000000000E+00 0.  1.
         -1    1    1    2    0  502  0.28874709652E+02 -0.16061810462E+02 -0.22050716962E+03  0.22296892713E+03  0.00000000000E+00 0. -1.
<mgrwt>
<rscale>  1 0.30000000E+03</rscale>
<asrwt>0</asrwt>
<pdfrwt beam="1">  1       21 0.57694823E-02 0.30000000E+03</pdfrwt>
<pdfrwt beam="2">0</pdfrwt>
<totfact> 0.22543411E+04</totfact>
</mgrwt>
</event>
<event>
 6    1  0.1270461E-001  0.3000000E+03  0.7818608E-02  0.1093470E+00
         21   -1    0    0  501  502  0.00000000000E+00  0.00000000000E+00  0.20750941288E+01  0.20750941288E+01  0.00000000000E+00 0. -1.
         13   -1    0    0    0    0 -0.00000000000E+00 -0.00000000000E+00 -0.10000000000E+04  0.10000000000E+04  0.00000000000E+00 0.  1.
    9000005    2    1    2  501    0 -0.48624520544E+01  0.30261524663E+02 -0.86936350155E+03  0.86991065868E+03  0.35004218581E+01 0.  0.
         13    1    3    3    0    0 -0.49699772575E+01  0.22249299338E+02 -0.62371998297E+03  0.62413648280E+03  0.00000000000E+00 0.  1.
          3    1    3    3  501    0  0.10752520314E+00  0.80122253253E+01 -0.24564351857E+03  0.24577417589E+03  0.00000000000E+00 0.  1.
         -1    1    1    2    0  502  0.48624520544E+01 -0.30261524663E+02 -0.12856140432E+03  0.13216443545E+03  0.00000000000E+00 0. -1.
<mgrwt>
<rscale>  1 0.30000000E+03</rscale>
<asrwt>0</asrwt>
<pdfrwt beam="1">  1       21 0.75458127E-02 0.30000000E+03</pdfrwt>
<pdfrwt beam="2">0</pdfrwt>
<totfact> 0.14152733E+04</totfact>
</mgrwt>
</event>
<event>
 6    1  0.1270461E-001  0.3000000E+03  0.7818608E-02  0.1093470E+00
         21   -1    0    0  501  502  0.00000000000E+00  0.00000000000E+00  0.10180948609E+01  0.10180948609E+01  0.00000000000E+00 0. -1.
         13   -1    0    0    0    0 -0.00000000000E+00 -0.00000000000E+00 -0.10000000000E+04  0.10000000000E+04  0.00000000000E+00 0.  1.
    9000005    2    1    2  501    0 -0.27965645221E+02 -0.12520270624E+02 -0.63460283523E+03  0.63535302806E+03  0.37252243638E+01 0.  0.
         13    1    3    3    0    0 -0.90342076913E+01 -0.50351668714E+01 -0.24602064872E+03  0.24623795283E+03  0.00000000000E+00 0.  1.
          1    1    3    3  501    0 -0.18931437530E+02 -0.74851037525E+01 -0.38858218651E+03  0.38911507523E+03  0.00000000000E+00 0.  1.
         -1    1    1    2    0  502  0.27965645221E+02  0.12520270624E+02 -0.36437906991E+03  0.36566506680E+03  0.00000000000E+00 0. -1.
<mgrwt>
<rscale>  1 0.30000000E+03</rscale>
<asrwt>0</asrwt>
<pdfrwt beam="1">  1       21 0.37021709E-02 0.30000000E+03</pdfrwt>
<pdfrwt beam="2">0</pdfrwt>
<totfact> 0.47888267E+04</totfact>
</mgrwt>
</event>
<event>
 6    1  0.1270461E-001  0.3000000E+03  0.7818608E-02  0.1093470E+00
         21   -1    0    0  501  502  0.00000000000E+00  0.00000000000E+00  0.27065107687E+02  0.27065107687E+02  0.00000000000E+00 0. -1.
         13   -1    0    0    0    0 -0.00000000000E+00 -0.00000000000E+00 -0.10000000000E+04  0.10000000000E+04  0.00000000000E+00 0.  1.
    9000005    2    1    2  501    0 -0.77365398148E+02  0.13845634754E+03 -0.62256899962E+03  0.64247204513E+03  0.47544168771E+01 0.  0.
         13    1    3    3    0    0 -0.10038705870E+01  0.11183504013E+01 -0.47326606325E+01  0.49655352620E+01  0.00000000000E+00 0.  1.
          1    1    3    3  501    0 -0.76361527561E+02  0.13733799714E+03 -0.61783633899E+03  0.63750650987E+03  0.00000000000E+00 0.  1.
         -1    1    1    2    0  502  0.77365398148E+02 -0.13845634754E+03 -0.35036589269E+03  0.38459306255E+03  0.00000000000E+00 0. -1.
<mgrwt>
<rscale>  1 0.30000000E+03</rscale>
<asrwt>0</asrwt>
<pdfrwt beam="1">  1       21 0.98418781E-01 0.30000000E+03</pdfrwt>
<pdfrwt beam="2">0</pdfrwt>
<totfact> 0.76778886E+01</totfact>
</mgrwt>
</event>
<event>
 6    1  0.1270461E-001  0.3000000E+03  0.7818608E-02  0.1093470E+00
         21   -1    0    0  501  502  0.00000000000E+00  0.00000000000E+00  0.39671613061E+01  0.39671613061E+01  0.00000000000E+00 0. -1.
         13   -1    0    0    0    0 -0.00000000000E+00 -0.00000000000E+00 -0.10000000000E+04  0.10000000000E+04  0.00000000000E+00 0.  1.
    9000005    2    1    2  501    0 -0.31596495487E+02 -0.12435612322E+01 -0.93207310157E+03  0.93261778889E+03  0.39734753677E+01 0.  0.
         13    1    3    3    0    0 -0.15247918766E+01  0.80811737002E+00 -0.53082274799E+02  0.53110318600E+02  0.00000000000E+00 0.  1.
          3    1    3    3  501    0 -0.30071703611E+02 -0.20516786022E+01 -0.87899082677E+03  0.87950747029E+03  0.00000000000E+00 0.  1.
         -1    1    1    2    0  502  0.31596495487E+02  0.12435612322E+01 -0.63959737122E+02  0.71349372417E+02  0.00000000000E+00 0. -1.
<mgrwt>
<rscale>  1 0.30000000E+03</rscale>
<asrwt>0</asrwt>
<pdfrwt beam="1">  1       21 0.14426072E-01 0.30000000E+03</pdfrwt>
<pdfrwt beam="2">0</pdfrwt>
<totfact> 0.44256810E+03</totfact>
</mgrwt>
</event>
<event>
 6    1  0.1270461E-001  0.3000000E+03  0.7818608E-02  0.1093470E+00
         21   -1    0    0  501  502  0.00000000000E+00  0.00000000000E+00  0.15124073538E+01  0.15124073538E+01  0.00000000000E+00 0. -1.
         13   -1    0    0    0    0 -0.00000000000E+00 -0.00000000000E+00 -0.10000000000E+04  0.10000000000E+04  0.00000000000E+00 0.  1.
    9000005    2    1    2  501    0 -0.35598866588E+02 -0.56272713810E+01 -0.68604442793E+03  0.68699742096E+03  0.30909274587E+01 0.  0.
         13    1    3    3    0    0 -0.52131162080E+01 -0.21490335768E+00 -0.11766901216E+03  0.11778463052E+03  0.00000000000E+00 0.  1.
          1    1    3    3  501    0 -0.30385750380E+02 -0.54123680233E+01 -0.56837541576E+03  0.56921279044E+03  0.00000000000E+00 0.  1.
         -1    1    1    2    0  502  0.35598866588E+02  0.56272713810E+01 -0.31244316472E+03  0.31451498639E+03  0.00000000000E+00 0. -1.
<mgrwt>
<rscale>  1 0.30000000E+03</rscale>
<asrwt>0</asrwt>
<pdfrwt beam="1">  1       21 0.54996747E-02 0.30000000E+03</pdfrwt>
<pdfrwt beam="2">0</pdfrwt>
<totfact> 0.24476631E+04</totfact>
</mgrwt>
</event>
<event>
 6    1  0.1270461E-001  0.3000000E+03  0.7818608E-02  0.1093470E+00
         21   -1    0    0  501  502  0.00000000000E+00  0.00000000000E+00  0.51119775927E+01  0.51119775927E+01  0.00000000000E+00 0. -1.
         13   -1    0    0    0    0 -0.00000000000E+00 -0.00000000000E+00 -0.10000000000E+04  0.10000000000E+04  0.00000000000E+00 0.  1.
    9000005    2    1    2  501    0 -0.59395098349E+02 -0.34053202057E+02 -0.64175655220E+03  0.64540482791E+03  0.29191311551E+01 0.  0.
         13    1    3    3    0    0 -0.38908414494E+02 -0.20886313792E+02 -0.40741561442E+03  0.40980188591E+03  0.00000000000E+00 0.  1.
          1    1    3    3  501    0 -0.20486683856E+02 -0.13166888266E+02 -0.23434093778E+03  0.23560294200E+03  0.00000000000E+00 0.  1.
         -1    1    1    2    0  502  0.59395098349E+02  0.34053202057E+02 -0.35313147021E+03  0.35970714968E+03  0.00000000000E+00 0. -1.
<mgrwt>
<rscale>  1 0.30000000E+03</rscale>
<asrwt>0</asrwt>
<pdfrwt beam="1">  1       21 0.18589049E-01 0.30000000E+03</pdfrwt>
<pdfrwt beam="2">0</pdfrwt>
<totfact> 0.27568631E+03</totfact>
</mgrwt>
</event>
<event>
 6    1  0.1270461E-001  0.3000000E+03  0.7818608E-02  0.1093470E+00
         21   -1    0    0  501  502  0.00000000000E+00  0.00000000000E+00  0.19241885754E+01  0.19241885754E+01  0.00000000000E+00 0. -1.
         13   -1    0    0    0    0 -0.00000000000E+00 -0.00000000000E+00 -0.10000000000E+04  0.10000000000E+04  0.00000000000E+00 0.  1.
    9000005    2    1    2  501    0  0.20076878700E+02  0.25478610025E+02 -0.16375227323E+03  0.16697029344E+03  0.34686127194E+01 0.  0.
         13    1    3    3    0    0  0.15933657205E+02  0.21615806384E+02 -0.13996965199E+03  0.14252237717E+03  0.00000000000E+00 0.  1.
          1    1    3    3  501    0  0.41432214944E+01  0.38628036409E+01 -0.23782621246E+02  0.24447916264E+02  0.00000000000E+00 0.  1.
         -3    1    1    2    0  502 -0.20076878700E+02 -0.25478610025E+02 -0.83432353819E+03  0.83495389514E+03  0.00000000000E+00 0. -1.
<mgrwt>
<rscale>  1 0.30000000E+03</rscale>
<asrwt>0</asrwt>
<pdfrwt beam="1">  1       21 0.69970641E-02 0.30000000E+03</pdfrwt>
<pdfrwt beam="2">0</pdfrwt>
<totfact> 0.16147071E+04</totfact>
</mgrwt>
</event>
<event>
 6    1  0.1270461E-001  0.3000000E+03  0.7818608E-02  0.1093470E+00
         21   -1    0    0  501  502  0.00000000000E+00  0.00000000000E+00  0.20367906943E+01  0.20367906943E+01  0.00000000000E+00 0. -1.
         13   -1    0    0    0    0 -0.00000000000E+00 -0.00000000000E+00 -0.10000000000E+04  0.10000000000E+04  0.00000000000E+00 0.  1.
    9000005    2    1    2  501    0  0.17872984407E+02  0.31868543686E+02 -0.79260444991E+03  0.79345283228E+03  0.32458256034E+01 0.  0.
         13    1    3    3    0    0  0.10840053622E+02  0.18961163506E+02 -0.50737581380E+03  0.50784569400E+03  0.00000000000E+00 0.  1.
          3    1    3    3  501    0  0.70329307851E+01  0.12907380180E+02 -0.28522863611E+03  0.28560713828E+03  0.00000000000E+00 0.  1.
         -1    1    1    2    0  502 -0.17872984407E+02 -0.31868543686E+02 -0.20535875939E+03  0.20858395841E+03  0.00000000000E+00 0. -1.
<mgrwt>
<rscale>  1 0.30000000E+03</rscale>
<asrwt>0</asrwt>
<pdfrwt beam="1">  1       21 0.74065272E-02 0.30000000E+03</pdfrwt>
<pdfrwt beam="2">0</pdfrwt>
<totfact> 0.14621920E+04</totfact>
</mgrwt>
</event>
<event>
 6    1  0.1270461E-001  0.3000000E+03  0.7818608E-02  0.1093470E+00
         21   -1    0    0  501  502  0.00000000000E+00  0.00000000000E+00  0.39212261192E+01  0.39212261192E+01  0.00000000000E+00 0. -1.
         13   -1    0    0    0    0 -0.00000000000E+00 -0.00000000000E+00 -0.10000000000E+04  0.10000000000E+04  0.00000000000E+00 0.  1.
    9000005    2    1    2  501    0  0.35867491631E+02  0.46441159791E+02 -0.67262518526E+03  0.67518807861E+03  0.33231573158E+01 0.  0.
         13    1    3    3    0    0  0.16329950396E+02  0.23836073504E+02 -0.33330479599E+03  0.33455479777E+03  0.00000000000E+00 0.  1.
          1    1    3    3  501    0  0.19537541235E+02  0.22605086287E+02 -0.33932038927E+03  0.34063328084E+03  0.00000000000E+00 0.  1.
         -1    1    1    2    0  502 -0.35867491631E+02 -0.46441159791E+02 -0.32345358862E+03  0.32873314751E+03  0.00000000000E+00 0. -1.
<mgrwt>
<rscale>  1 0.30000000E+03</rscale>
<asrwt>0</asrwt>
<pdfrwt beam="1">  1       21 0.14259034E-01 0.30000000E+03</pdfrwt>
<pdfrwt beam="2">0</pdfrwt>
<totfact> 0.45216342E+03</totfact>
</mgrwt>
</event>
<event>
 6    1  0.1270461E-001  0.3000000E+03  0.7818608E-02  0.1093470E+00
         21   -1    0    0  501  502  0.00000000000E+00  0.00000000000E+00  0.17107173817E+02  0.17107173817E+02  0.00000000000E+00 0. -1.
         13   -1    0    0    0    0 -0.00000000000E+00 -0.00000000000E+00 -0.10000000000E+04  0.10000000000E+04  0.00000000000E+00 0.  1.
    9000005    2    1    2  501    0 -0.17013633261E+02 -0.34621453178E+02 -0.97737054247E+03  0.97813789933E+03  0.35304494691E+01 0.  0.
         13    1    3    3    0    0 -0.52826754783E+01 -0.10161459035E+02 -0.33197027938E+03  0.33216777132E+03  0.00000000000E+00 0.  1.
          3    1    3    3  501    0 -0.11730957783E+02 -0.24459994142E+02 -0.64540026309E+03  0.64597012801E+03  0.00000000000E+00 0.  1.
         -3    1    1    2    0  502  0.17013633261E+02  0.34621453178E+02 -0.55222837116E+01  0.38969274490E+02  0.00000000000E+00 0. -1.
<mgrwt>
<rscale>  1 0.30000000E+03</rscale>
<asrwt>0</asrwt>
<pdfrwt beam="1">  1       21 0.62208036E-01 0.30000000E+03</pdfrwt>
<pdfrwt beam="2">0</pdfrwt>
<totfact> 0.23144480E+02</totfact>
</mgrwt>
</event>
<event>
 6    1  0.1270461E-001  0.3000000E+03  0.7818608E-02  0.1093470E+00
         21   -1    0    0  501  502  0.00000000000E+00  0.00000000000E+00  0.21209795460E+01  0.21209795460E+01  0.00000000000E+00 0. -1.
         13   -1    0    0    0    0 -0.00000000000E+00 -0.00000000000E+00 -0.10000000000E+04  0.10000000000E+04  0.00000000000E+00 0.  1.
    9000005    2    1    2  501    0 -0.35804898047E+02  0.15415604190E+02 -0.76546060836E+03  0.76645606944E+03  0.23090794589E+01 0.  0.
         13    1    3    3    0    0 -0.20289567465E+02  0.93774053783E+01 -0.45775200445E+03  0.45829739238E+03  0.00000000000E+00 0.  1.
          3    1    3    3  501    0 -0.15515330583E+02  0.60381988121E+01 -0.30770860391E+03  0.30815867706E+03  0.00000000000E+00 0.  1.
         -3    1    1    2    0  502  0.35804898047E+02 -0.15415604190E+02 -0.23241841209E+03  0.23566491011E+03  0.00000000000E+00 0. -1.
<mgrwt>
<rscale>  1 0.30000000E+03</rscale>
<asrwt>0</asrwt>
<pdfrwt beam="1">  1       21 0.77126692E-02 0.30000000E+03</pdfrwt>
<pdfrwt beam="2">0</pdfrwt>
<totfact> 0.13620618E+04</totfact>
</mgrwt>
</event>
<event>
 6    1  0.1270461E-001  0.3000000E+03  0.7818608E-02  0.1093470E+00
         21   -1    0    0  501  502  0.00000000000E+00  0.00000000000E+00  0.47391984378E+01  0.47391984378E+01  0.00000000000E+00 0. -1.
         13   -1    0    0    0    0 -0.00000000000E+00 -0.00000000000E+00 -0.10000000000E+04  0.10000000000E+04  0.00000000000E+00 0.  1.
    9000005    2    1    2  501    0 -0.36605151116E+02 -0.55859989056E+01 -0.92106890714E+03  0.92182009527E+03  0.36353644128E+01 0.  0.
         13    1    3    3    0    0 -0.94280258393E+01  0.12032985423E+00 -0.24209301231E+03  0.24227655429E+03  0.00000000000E+00 0.  1.
          1    1    3    3  501    0 -0.27177125277E+02 -0.57063287598E+01 -0.67897589483E+03  0.67954354098E+03  0.00000000000E+00 0.  1.
         -3    1    1    2    0  502  0.36605151116E+02  0.55859989056E+01 -0.74191894426E+02  0.82919103170E+02  0.00000000000E+00 0. -1.
<mgrwt>
<rscale>  1 0.30000000E+03</rscale>
<asrwt>0</asrwt>
<pdfrwt beam="1">  1       21 0.17233485E-01 0.30000000E+03</pdfrwt>
<pdfrwt beam="2">0</pdfrwt>
<totfact> 0.31791985E+03</totfact>
</mgrwt>
</event>
<event>
 6    1  0.1270461E-001  0.3000000E+03  0.7818608E-02  0.1093470E+00
         21   -1    0    0  501  502  0.00000000000E+00  0.00000000000E+00  0.13654300079E+01  0.13654300079E+01  0.00000000000E+00 0. -1.
         13   -1    0    0    0    0 -0.00000000000E+00 -0.00000000000E+00 -0.10000000000E+04  0.10000000000E+04  0.00000000000E+00 0.  1.
    9000005    2    1    2  501    0  0.36559227632E+02  0.22551559760E+01 -0.55853206756E+03  0.55974129627E+03  0.32535215875E+01 0.  0.
         13    1    3    3    0    0  0.17168754098E+02  0.76958708997E+00 -0.23783759895E+03  0.23845771503E+03  0.00000000000E+00 0.  1.
          3    1    3    3  501    0  0.19390473534E+02  0.14855688861E+01 -0.32069446860E+03  0.32128358124E+03  0.00000000000E+00 0.  1.
         -3    1    1    2    0  502 -0.36559227632E+02 -0.22551559760E+01 -0.44010250243E+03  0.44162413374E+03  0.00000000000E+00 0. -1.
<mgrwt>
<rscale>  1 0.30000000E+03</rscale>
<asrwt>0</asrwt>
<pdfrwt beam="1">  1       21 0.49652105E-02 0.30000000E+03</pdfrwt>
<pdfrwt beam="2">0</pdfrwt>
<totfact> 0.29149500E+04</totfact>
</mgrwt>
</event>
<event>
 6    1  0.1270461E-001  0.3000000E+03  0.7818608E-02  0.1093470E+00
         21   -1    0    0  501  502  0.00000000000E+00  0.00000000000E+00  0.94654895127E+01  0.94654895127E+01  0.00000000000E+00 0. -1.
         13   -1    0    0    0    0 -0.00000000000E+00 -0.00000000000E+00 -0.10000000000E+04  0.10000000000E+04  0.00000000000E+00 0.  1.
    9000005    2    1    2  501    0 -0.27295711275E+02 -0.82985525155E+02 -0.27338286821E+03  0.28701263204E+03  0.25308268442E+01 0.  0.
         13    1    3    3    0    0 -0.17195323677E+02 -0.56078461858E+02 -0.18328974078E+03  0.19244636166E+03  0.00000000000E+00 0.  1.
          3    1    3    3  501    0 -0.10100387598E+02 -0.26907063297E+02 -0.90093127423E+02  0.94566270381E+02  0.00000000000E+00 0.  1.
         -3    1    1    2    0  502  0.27295711275E+02  0.82985525155E+02 -0.71715164228E+03  0.72245285747E+03  0.00000000000E+00 0. -1.
<mgrwt>
<rscale>  1 0.30000000E+03</rscale>
<asrwt>0</asrwt>
<pdfrwt beam="1">  1       21 0.34420034E-01 0.30000000E+03</pdfrwt>
<pdfrwt beam="2">0</pdfrwt>
<totfact> 0.82343568E+02</totfact>
</mgrwt>
</event>
<event>
 6    1  0.1270461E-001  0.3000000E+03  0.7818608E-02  0.1093470E+00
         21   -1    0    0  501  502  0.00000000000E+00  0.00000000000E+00  0.94769901455E+00  0.94769901455E+00  0.00000000000E+00 0. -1.
         13   -1    0    0    0    0 -0.00000000000E+00 -0.00000000000E+00 -0.10000000000E+04  0.10000000000E+04  0.00000000000E+00 0.  1.
    9000005    2    1    2  501    0  0.19982804650E+02  0.23269081530E+02 -0.50278388700E+03  0.50373235195E+03  0.37259545492E+01 0.  0.
         13    1    3    3    0    0  0.70999521190E+01  0.60136852844E+01 -0.16633433137E+03  0.16659436823E+03  0.00000000000E+00 0.  1.
          1    1    3    3  501    0  0.12882852531E+02  0.17255396246E+02 -0.33644955563E+03  0.33713798373E+03  0.00000000000E+00 0.  1.
         -3    1    1    2    0  502 -0.19982804650E+02 -0.23269081530E+02 -0.49626841398E+03  0.49721534706E+03  0.00000000000E+00 0. -1.
<mgrwt>
<rscale>  1 0.30000000E+03</rscale>
<asrwt>0</asrwt>
<pdfrwt beam="1">  1       21 0.34461855E-02 0.30000000E+03</pdfrwt>
<pdfrwt beam="2">0</pdfrwt>
<totfact> 0.53999084E+04</totfact>
</mgrwt>
</event>
<event>
 6    1  0.1270461E-001  0.3000000E+03  0.7818608E-02  0.1093470E+00
         21   -1    0    0  501  502  0.00000000000E+00  0.00000000000E+00  0.16894368571E+01  0.16894368571E+01  0.00000000000E+00 0. -1.
         13   -1    0    0    0    0 -0.00000000000E+00 -0.00000000000E+00 -0.10000000000E+04  0.10000000000E+04  0.00000000000E+00 0.  1.
    9000005    2    1    2  501    0 -0.31035503711E+02  0.17779645229E+02 -0.74521622473E+03  0.74608023825E+03  0.30301870583E+01 0.  0.
         13    1    3    3    0    0 -0.15251988810E+02  0.81812507409E+01 -0.39038361496E+03  0.39076709541E+03  0.00000000000E+00 0.  1.
          3    1    3    3  501    0 -0.15783514901E+02  0.95983944881E+01 -0.35483260977E+03  0.35531314284E+03  0.00000000000E+00 0.  1.
         -1    1    1    2    0  502  0.31035503711E+02 -0.17779645229E+02 -0.25309433842E+03  0.25560919861E+03  0.00000000000E+00 0. -1.
<mgrwt>
<rscale>  1 0.30000000E+03</rscale>
<asrwt>0</asrwt>
<pdfrwt beam="1">  1       21 0.61434197E-02 0.30000000E+03</pdfrwt>
<pdfrwt beam="2">0</pdfrwt>
<totfact> 0.20230064E+04</totfact>
</mgrwt>
</event>
<event>
 6    1  0.1270461E-001  0.3000000E+03  0.7818608E-02  0.1093470E+00
         21   -1    0    0  501  502  0.00000000000E+00  0.00000000000E+00  0.18692482733E+01  0.18692482733E+01  0.00000000000E+00 0. -1.
         13   -1    0    0    0    0 -0.00000000000E+00 -0.00000000000E+00 -0.10000000000E+04  0.10000000000E+04  0.00000000000E+00 0.  1.
    9000005    2    1    2  501    0 -0.42940925429E+02 -0.39277286210E+01 -0.52510335947E+03  0.52688054951E+03  0.31976859070E+01 0.  0.
         13    1    3    3    0    0 -0.42890417437E+02 -0.38669436845E+01 -0.52487907251E+03  0.52664274600E+03  0.00000000000E+00 0.  1.
          1    1    3    3  501    0 -0.50507992317E-01 -0.60784936483E-01 -0.22428696375E+00  0.23780350691E+00  0.00000000000E+00 0.  1.
         -3    1    1    2    0  502  0.42940925429E+02  0.39277286210E+01 -0.47302739225E+03  0.47498869876E+03  0.00000000000E+00 0. -1.
<mgrwt>
<rscale>  1 0.30000000E+03</rscale>
<asrwt>0</asrwt>
<pdfrwt beam="1">  1       21 0.67972808E-02 0.30000000E+03</pdfrwt>
<pdfrwt beam="2">0</pdfrwt>
<totfact> 0.16980986E+04</totfact>
</mgrwt>
</event>
<event>
 6    1  0.1270461E-001  0.3000000E+03  0.7818608E-02  0.1093470E+00
         21   -1    0    0  501  502  0.00000000000E+00  0.00000000000E+00  0.12020167110E+01  0.12020167110E+01  0.00000000000E+00 0. -1.
         13   -1    0    0    0    0 -0.00000000000E+00 -0.00000000000E+00 -0.10000000000E+04  0.10000000000E+04  0.00000000000E+00 0.  1.
    9000005    2    1    2  501    0 -0.59316281027E+01 -0.31076733391E+02 -0.70285733451E+03  0.70357504352E+03  0.29088866837E+01 0.  0.
         13    1    3    3    0    0 -0.49321327166E+01 -0.28136999503E+02 -0.64886871871E+03  0.64949721384E+03  0.00000000000E+00 0.  1.
          1    1    3    3  501    0 -0.99949538611E+00 -0.29397338873E+01 -0.53988615805E+02  0.54077829680E+02  0.00000000000E+00 0.  1.
         -3    1    1    2    0  502  0.59316281027E+01  0.31076733391E+02 -0.29594064878E+03  0.29762697319E+03  0.00000000000E+00 0. -1.
<mgrwt>
<rscale>  1 0.30000000E+03</rscale>
<asrwt>0</asrwt>
<pdfrwt beam="1">  1       21 0.43709791E-02 0.30000000E+03</pdfrwt>
<pdfrwt beam="2">0</pdfrwt>
<totfact> 0.36199835E+04</totfact>
</mgrwt>
</event>
<event>
 6    1  0.1270461E-001  0.3000000E+03  0.7818608E-02  0.1093470E+00
         21   -1    0    0  501  502  0.00000000000E+00  0.00000000000E+00  0.12844825680E+02  0.12844825680E+02  0.00000000000E+00 0. -1.
         13   -1    0    0    0    0 -0.00000000000E+00 -0.00000000000E+00 -0.10000000000E+04  0.10000000000E+04  0.00000000000E+00 0.  1.
    9000005    2    1    2  501    0  0.18766432903E+01  0.45281251346E+02 -0.95773661430E+03  0.95881367552E+03  0.32137966515E+01 0.  0.
         13    1    3    3    0    0  0.58041592542E+00  0.18351562996E+02 -0.42152873040E+03  0.42192841490E+03  0.00000000000E+00 0.  1.
          3    1    3    3  501    0  0.12962273649E+01  0.26929688351E+02 -0.53620788390E+03  0.53688526062E+03  0.00000000000E+00 0.  1.
         -1    1    1    2    0  502 -0.18766432903E+01 -0.45281251346E+02 -0.29418560023E+02  0.54031150158E+02  0.00000000000E+00 0. -1.
<mgrwt>
<rscale>  1 0.30000000E+03</rscale>
<asrwt>0</asrwt>
<pdfrwt beam="1">  1       21 0.46708556E-01 0.30000000E+03</pdfrwt>
<pdfrwt beam="2">0</pdfrwt>
<totfact> 0.43507421E+02</totfact>
</mgrwt>
</event>
<event>
 6    1  0.1270461E-001  0.3000000E+03  0.7818608E-02  0.1093470E+00
         21   -1    0    0  501  502  0.00000000000E+00  0.00000000000E+00  0.25164071569E+01  0.25164071569E+01  0.00000000000E+00 0. -1.
         13   -1    0    0    0    0 -0.00000000000E+00 -0.00000000000E+00 -0.10000000000E+04  0.10000000000E+04  0.00000000000E+00 0.  1.
    9000005    2    1    2  501    0  0.36346096853E+02  0.16031202378E+02 -0.80436322582E+03  0.80535273311E+03  0.38454470813E+01 0.  0.
         13    1    3    3    0    0  0.60569835109E+01  0.42399935867E+01 -0.14112405487E+03  0.14131759783E+03  0.00000000000E+00 0.  1.
          1    1    3    3  501    0  0.30289113342E+02  0.11791208792E+02 -0.66323917095E+03  0.66403513527E+03  0.00000000000E+00 0.  1.
         -1    1    1    2    0  502 -0.36346096853E+02 -0.16031202378E+02 -0.19312036702E+03  0.19716367405E+03  0.00000000000E+00 0. -1.
<mgrwt>
<rscale>  1 0.30000000E+03</rscale>
<asrwt>0</asrwt>
<pdfrwt beam="1">  1       21 0.91505908E-02 0.30000000E+03</pdfrwt>
<pdfrwt beam="2">0</pdfrwt>
<totfact> 0.10077200E+04</totfact>
</mgrwt>
</event>
<event>
 6    1  0.1270461E-001  0.3000000E+03  0.7818608E-02  0.1093470E+00
         21   -1    0    0  501  502  0.00000000000E+00  0.00000000000E+00  0.16884981541E+01  0.16884981541E+01  0.00000000000E+00 0. -1.
         13   -1    0    0    0    0 -0.00000000000E+00 -0.00000000000E+00 -0.10000000000E+04  0.10000000000E+04  0.00000000000E+00 0.  1.
    9000005    2    1    2  501    0  0.31503853939E+02  0.26086718235E+02 -0.53504101185E+03  0.53661586234E+03  0.38327109098E+01 0.  0.
         13    1    3    3    0    0  0.11412142048E+02  0.10896543213E+02 -0.18688378801E+03  0.18754871863E+03  0.00000000000E+00 0.  1.
          3    1    3    3  501    0  0.20091711891E+02  0.15190175022E+02 -0.34815722383E+03  0.34906714370E+03  0.00000000000E+00 0.  1.
         -1    1    1    2    0  502 -0.31503853939E+02 -0.26086718235E+02 -0.46327049000E+03  0.46507263582E+03  0.00000000000E+00 0. -1.
<mgrwt>
<rscale>  1 0.30000000E+03</rscale>
<asrwt>0</asrwt>
<pdfrwt beam="1">  1       21 0.61400062E-02 0.30000000E+03</pdfrwt>
<pdfrwt beam="2">0</pdfrwt>
<totfact> 0.20249483E+04</totfact>
</mgrwt>
</event>
<event>
 6    1  0.1270461E-001  0.3000000E+03  0.7818608E-02  0.1093470E+00
         21   -1    0    0  501  502  0.00000000000E+00  0.00000000000E+00  0.15960725723E+01  0.15960725723E+01  0.00000000000E+00 0. -1.
         13   -1    0    0    0    0 -0.00000000000E+00 -0.00000000000E+00 -0.10000000000E+04  0.10000000000E+04  0.00000000000E+00 0.  1.
    9000005    2    1    2  501    0 -0.28387373549E+02 -0.25762321746E+02 -0.63788596057E+03  0.63904573865E+03  0.33789344324E+01 0.  0.
         13    1    3    3    0    0 -0.23908232947E+02 -0.19954078688E+02 -0.52111812163E+03  0.52204776175E+03  0.00000000000E+00 0.  1.
          1    1    3    3  501    0 -0.44791406018E+01 -0.58082430577E+01 -0.11676783894E+03  0.11699797690E+03  0.00000000000E+00 0.  1.
         -1    1    1    2    0  502  0.28387373549E+02  0.25762321746E+02 -0.36051796686E+03  0.36255033392E+03  0.00000000000E+00 0. -1.
<mgrwt>
<rscale>  1 0.30000000E+03</rscale>
<asrwt>0</asrwt>
<pdfrwt beam="1">  1       21 0.58039125E-02 0.30000000E+03</pdfrwt>
<pdfrwt beam="2">0</pdfrwt>
<totfact> 0.22313644E+04</totfact>
</mgrwt>
</event>
<event>
 6    1  0.1270461E-001  0.3000000E+03  0.7818608E-02  0.1093470E+00
         21   -1    0    0  501  502  0.00000000000E+00  0.00000000000E+00  0.33161129483E+01  0.33161129483E+01  0.00000000000E+00 0. -1.
         13   -1    0    0    0    0 -0.00000000000E+00 -0.00000000000E+00 -0.10000000000E+04  0.10000000000E+04  0.00000000000E+00 0.  1.
    9000005    2    1    2  501    0 -0.38064406899E+02  0.13093863881E+02 -0.85677128494E+03  0.85772804828E+03  0.44745688677E+01 0.  0.
         13    1    3    3    0    0 -0.51599260661E+01  0.34705324682E+01 -0.13066878353E+03  0.13081666722E+03  0.00000000000E+00 0.  1.
          3    1    3    3  501    0 -0.32904480833E+02  0.96233314126E+01 -0.72610250141E+03  0.72691138106E+03  0.00000000000E+00 0.  1.
         -1    1    1    2    0  502  0.38064406899E+02 -0.13093863881E+02 -0.13991260211E+03  0.14558806467E+03  0.00000000000E+00 0. -1.
<mgrwt>
<rscale>  1 0.30000000E+03</rscale>
<asrwt>0</asrwt>
<pdfrwt beam="1">  1       21 0.12058618E-01 0.30000000E+03</pdfrwt>
<pdfrwt beam="2">0</pdfrwt>
<totfact> 0.61425387E+03</totfact>
</mgrwt>
</event>
<event>
 6    1  0.1270461E-001  0.3000000E+03  0.7818608E-02  0.1093470E+00
         21   -1    0    0  501  502  0.00000000000E+00  0.00000000000E+00  0.19417872651E+01  0.19417872651E+01  0.00000000000E+00 0. -1.
         13   -1    0    0    0    0 -0.00000000000E+00 -0.00000000000E+00 -0.10000000000E+04  0.10000000000E+04  0.00000000000E+00 0.  1.
    9000005    2    1    2  501    0  0.26006829598E+02 -0.23775160678E+02 -0.79940107727E+03  0.80018383594E+03  0.32365894698E+01 0.  0.
         13    1    3    3    0    0  0.18456900982E+02 -0.16041836477E+02 -0.52253199346E+03  0.52310389207E+03  0.00000000000E+00 0.  1.
          3    1    3    3  501    0  0.75499286166E+01 -0.77333242008E+01 -0.27686908381E+03  0.27707994387E+03  0.00000000000E+00 0.  1.
         -3    1    1    2    0  502 -0.26006829598E+02  0.23775160678E+02 -0.19865713547E+03  0.20175795133E+03  0.00000000000E+00 0. -1.
<mgrwt>
<rscale>  1 0.30000000E+03</rscale>
<asrwt>0</asrwt>
<pdfrwt beam="1">  1       21 0.70610595E-02 0.30000000E+03</pdfrwt>
<pdfrwt beam="2">0</pdfrwt>
<totfact> 0.15893155E+04</totfact>
</mgrwt>
</event>
<event>
 6    1  0.1270461E-001  0.3000000E+03  0.7818608E-02  0.1093470E+00
         21   -1    0    0  501  502  0.00000000000E+00  0.00000000000E+00  0.16191719440E+01  0.16191719440E+01  0.00000000000E+00 0. -1.
         13   -1    0    0    0    0 -0.00000000000E+00 -0.00000000000E+00 -0.10000000000E+04  0.10000000000E+04  0.00000000000E+00 0.  1.
    9000005    2    1    2  501    0 -0.79033420558E+01  0.35377512839E+02 -0.71565933807E+03  0.71658325819E+03  0.30408090136E+01 0.  0.
         13    1    3    3    0    0 -0.63241119269E+01  0.23366071139E+02 -0.45796814319E+03  0.45860744417E+03  0.00000000000E+00 0.  1.
          3    1    3    3  501    0 -0.15792301289E+01  0.12011441700E+02 -0.25769119488E+03  0.25797581401E+03  0.00000000000E+00 0.  1.
         -1    1    1    2    0  502  0.79033420558E+01 -0.35377512839E+02 -0.28272148999E+03  0.28503591376E+03  0.00000000000E+00 0. -1.
<mgrwt>
<rscale>  1 0.30000000E+03</rscale>
<asrwt>0</asrwt>
<pdfrwt beam="1">  1       21 0.58879104E-02 0.30000000E+03</pdfrwt>
<pdfrwt beam="2">0</pdfrwt>
<totfact> 0.21768007E+04</totfact>
</mgrwt>
</event>
<event>
 6    1  0.1270461E-001  0.3000000E+03  0.7818608E-02  0.1093470E+00
         21   -1    0    0  501  502  0.00000000000E+00  0.00000000000E+00  0.13949220521E+01  0.13949220521E+01  0.00000000000E+00 0. -1.
         13   -1    0    0    0    0 -0.00000000000E+00 -0.00000000000E+00 -0.10000000000E+04  0.10000000000E+04  0.00000000000E+00 0.  1.
    9000005    2    1    2  501    0  0.32938878636E+01 -0.32313820613E+02 -0.74554744742E+03  0.74626123736E+03  0.31313448872E+01 0.  0.
         13    1    3    3    0    0  0.31384794726E+00 -0.46908963656E+00 -0.21977229037E+02  0.21984475017E+02  0.00000000000E+00 0.  1.
          3    1    3    3  501    0  0.29800399164E+01 -0.31844730977E+02 -0.72357021839E+03  0.72427676234E+03  0.00000000000E+00 0.  1.
         -1    1    1    2    0  502 -0.32938878636E+01  0.32313820613E+02 -0.25305763052E+03  0.25513368469E+03  0.00000000000E+00 0. -1.
<mgrwt>
<rscale>  1 0.30000000E+03</rscale>
<asrwt>0</asrwt>
<pdfrwt beam="1">  1       21 0.50724545E-02 0.30000000E+03</pdfrwt>
<pdfrwt beam="2">0</pdfrwt>
<totfact> 0.28106543E+04</totfact>
</mgrwt>
</event>
<event>
 6    1  0.1270461E-001  0.3000000E+03  0.7818608E-02  0.1093470E+00
         21   -1    0    0  501  502  0.00000000000E+00  0.00000000000E+00  0.24977149645E+01  0.24977149645E+01  0.00000000000E+00 0. -1.
         13   -1    0    0    0    0 -0.00000000000E+00 -0.00000000000E+00 -0.10000000000E+04  0.10000000000E+04  0.00000000000E+00 0.  1.
    9000005    2    1    2  501    0  0.27887875235E+02  0.11144210749E+02 -0.89924557386E+03  0.89975381826E+03  0.35219816338E+01 0.  0.
         13    1    3    3    0    0  0.24995249576E+01  0.27883296401E+00 -0.56605705086E+02  0.56661549759E+02  0.00000000000E+00 0.  1.
          1    1    3    3  501    0  0.25388350277E+02  0.10865377785E+02 -0.84263986877E+03  0.84309226850E+03  0.00000000000E+00 0.  1.
         -3    1    1    2    0  502 -0.27887875235E+02 -0.11144210749E+02 -0.98256711178E+02  0.10274389670E+03  0.00000000000E+00 0. -1.
<mgrwt>
<rscale>  1 0.30000000E+03</rscale>
<asrwt>0</asrwt>
<pdfrwt beam="1">  1       21 0.90826190E-02 0.30000000E+03</pdfrwt>
<pdfrwt beam="2">0</pdfrwt>
<totfact> 0.10211357E+04</totfact>
</mgrwt>
</event>
<event>
 6    1  0.1270461E-001  0.3000000E+03  0.7818608E-02  0.1093470E+00
         21   -1    0    0  501  502  0.00000000000E+00  0.00000000000E+00  0.93292378508E+01  0.93292378508E+01  0.00000000000E+00 0. -1.
         13   -1    0    0    0    0 -0.00000000000E+00 -0.00000000000E+00 -0.10000000000E+04  0.10000000000E+04  0.00000000000E+00 0.  1.
    9000005    2    1    2  501    0 -0.31516856007E+02 -0.62251356873E+02 -0.84423465293E+03  0.84711925749E+03  0.32161405531E+01 0.  0.
         13    1    3    3    0    0 -0.96606342921E+01 -0.21829590738E+02 -0.27797203429E+03  0.27899518048E+03  0.00000000000E+00 0.  1.
          3    1    3    3  501    0 -0.21856221715E+02 -0.40421766135E+02 -0.56626261864E+03  0.56812407700E+03  0.00000000000E+00 0.  1.
         -1    1    1    2    0  502  0.31516856007E+02  0.62251356873E+02 -0.14643610922E+03  0.16220998036E+03  0.00000000000E+00 0. -1.
<mgrwt>
<rscale>  1 0.30000000E+03</rscale>
<asrwt>0</asrwt>
<pdfrwt beam="1">  1       21 0.33924573E-01 0.30000000E+03</pdfrwt>
<pdfrwt beam="2">0</pdfrwt>
<totfact> 0.84815305E+02</totfact>
</mgrwt>
</event>
<event>
 6    1  0.1270461E-001  0.3000000E+03  0.7818608E-02  0.1093470E+00
         21   -1    0    0  501  502  0.00000000000E+00  0.00000000000E+00  0.14392915014E+01  0.14392915014E+01  0.00000000000E+00 0. -1.
         13   -1    0    0    0    0 -0.00000000000E+00 -0.00000000000E+00 -0.10000000000E+04  0.10000000000E+04  0.00000000000E+00 0.  1.
    9000005    2    1    2  501    0 -0.16854791617E+01 -0.30393212492E+02 -0.79736307889E+03  0.79795200845E+03  0.35972209714E+01 0.  0.
         13    1    3    3    0    0 -0.15591214466E+01 -0.20483537483E+02 -0.57859184505E+03  0.57895641401E+03  0.00000000000E+00 0.  1.
          1    1    3    3  501    0 -0.12635771509E+00 -0.99096750089E+01 -0.21877123385E+03  0.21899559444E+03  0.00000000000E+00 0.  1.
         -1    1    1    2    0  502  0.16854791617E+01  0.30393212492E+02 -0.20119762961E+03  0.20348728305E+03  0.00000000000E+00 0. -1.
<mgrwt>
<rscale>  1 0.30000000E+03</rscale>
<asrwt>0</asrwt>
<pdfrwt beam="1">  1       21 0.52337983E-02 0.30000000E+03</pdfrwt>
<pdfrwt beam="2">0</pdfrwt>
<totfact> 0.26643308E+04</totfact>
</mgrwt>
</event>
<event>
 6    1  0.1270461E-001  0.3000000E+03  0.7818608E-02  0.1093470E+00
         21   -1    0    0  501  502  0.00000000000E+00  0.00000000000E+00  0.26473112325E+01  0.26473112325E+01  0.00000000000E+00 0. -1.
         13   -1    0    0    0    0 -0.00000000000E+00 -0.00000000000E+00 -0.10000000000E+04  0.10000000000E+04  0.00000000000E+00 0.  1.
    9000005    2    1    2  501    0 -0.10954100481E+02 -0.28871326949E+02 -0.89955444286E+03  0.90008980181E+03  0.31479849594E+01 0.  0.
         13    1    3    3    0    0 -0.75328449101E+01 -0.23360563815E+02 -0.71975789839E+03  0.72017629230E+03  0.00000000000E+00 0.  1.
          1    1    3    3  501    0 -0.34212555706E+01 -0.55107631333E+01 -0.17979654447E+03  0.17991350951E+03  0.00000000000E+00 0.  1.
         -3    1    1    2    0  502  0.10954100481E+02  0.28871326949E+02 -0.97798245907E+02  0.10255750943E+03  0.00000000000E+00 0. -1.
<mgrwt>
<rscale>  1 0.30000000E+03</rscale>
<asrwt>0</asrwt>
<pdfrwt beam="1">  1       21 0.96266066E-02 0.30000000E+03</pdfrwt>
<pdfrwt beam="2">0</pdfrwt>
<totfact> 0.92078613E+03</totfact>
</mgrwt>
</event>
<event>
 6    1  0.1270461E-001  0.3000000E+03  0.7818608E-02  0.1093470E+00
         21   -1    0    0  501  502  0.00000000000E+00  0.00000000000E+00  0.11130351069E+01  0.11130351069E+01  0.00000000000E+00 0. -1.
         13   -1    0    0    0    0 -0.00000000000E+00 -0.00000000000E+00 -0.10000000000E+04  0.10000000000E+04  0.00000000000E+00 0.  1.
    9000005    2    1    2  501    0  0.24281468535E+02  0.20453515967E+02 -0.65091013138E+03  0.65169092263E+03  0.30205080211E+01 0.  0.
         13    1    3    3    0    0  0.14475446148E+02  0.10231240742E+02 -0.36197045133E+03  0.36240422799E+03  0.00000000000E+00 0.  1.
          3    1    3    3  501    0  0.98060223874E+01  0.10222275225E+02 -0.28893968005E+03  0.28928669464E+03  0.00000000000E+00 0.  1.
         -1    1    1    2    0  502 -0.24281468535E+02 -0.20453515967E+02 -0.34797683351E+03  0.34942211248E+03  0.00000000000E+00 0. -1.
<mgrwt>
<rscale>  1 0.30000000E+03</rscale>
<asrwt>0</asrwt>
<pdfrwt beam="1">  1       21 0.40474089E-02 0.30000000E+03</pdfrwt>
<pdfrwt beam="2">0</pdfrwt>
<totfact> 0.41220989E+04</totfact>
</mgrwt>
</event>
<event>
 6    1  0.1270461E-001  0.3000000E+03  0.7818608E-02  0.1093470E+00
         21   -1    0    0  501  502  0.00000000000E+00  0.00000000000E+00  0.15362443506E+01  0.15362443506E+01  0.00000000000E+00 0. -1.
         13   -1    0    0    0    0 -0.00000000000E+00 -0.00000000000E+00 -0.10000000000E+04  0.10000000000E+04  0.00000000000E+00 0.  1.
    9000005    2    1    2  501    0  0.27285898605E+02  0.21312480125E+02 -0.73294321860E+03  0.73376787865E+03  0.32857242421E+01 0.  0.
         13    1    3    3    0    0  0.85396082164E+01  0.60834829669E+01 -0.25337601499E+03  0.25359286000E+03  0.00000000000E+00 0.  1.
          1    1    3    3  501    0  0.18746290389E+02  0.15228997158E+02 -0.47956720361E+03  0.48017501865E+03  0.00000000000E+00 0.  1.
         -1    1    1    2    0  502 -0.27285898605E+02 -0.21312480125E+02 -0.26552053705E+03  0.26776836570E+03  0.00000000000E+00 0. -1.
<mgrwt>
<rscale>  1 0.30000000E+03</rscale>
<asrwt>0</asrwt>
<pdfrwt beam="1">  1       21 0.55863549E-02 0.30000000E+03</pdfrwt>
<pdfrwt beam="2">0</pdfrwt>
<totfact> 0.23828658E+04</totfact>
</mgrwt>
</event>
<event>
 6    1  0.1270461E-001  0.3000000E+03  0.7818608E-02  0.1093470E+00
         21   -1    0    0  501  502  0.00000000000E+00  0.00000000000E+00  0.19974705452E+01  0.19974705452E+01  0.00000000000E+00 0. -1.
         13   -1    0    0    0    0 -0.00000000000E+00 -0.00000000000E+00 -0.10000000000E+04  0.10000000000E+04  0.00000000000E+00 0.  1.
    9000005    2    1    2  501    0  0.21438291575E+02 -0.37788088141E+02 -0.61431516776E+03  0.61585820619E+03  0.32657070789E+01 0.  0.
         13    1    3    3    0    0  0.66545520574E+01 -0.12873815744E+02 -0.18508119578E+03  0.18564769653E+03  0.00000000000E+00 0.  1.
          3    1    3    3  501    0  0.14783739518E+02 -0.24914272397E+02 -0.42923397198E+03  0.43021050967E+03  0.00000000000E+00 0.  1.
         -3    1    1    2    0  502 -0.21438291575E+02  0.37788088141E+02 -0.38368736169E+03  0.38613926435E+03  0.00000000000E+00 0. -1.
<mgrwt>
<rscale>  1 0.30000000E+03</rscale>
<asrwt>0</asrwt>
<pdfrwt beam="1">  1       21 0.72635446E-02 0.30000000E+03</pdfrwt>
<pdfrwt beam="2">0</pdfrwt>
<totfact> 0.15128625E+04</totfact>
</mgrwt>
</event>
<event>
 6    1  0.1270461E-001  0.3000000E+03  0.7818608E-02  0.1093470E+00
         21   -1    0    0  501  502  0.00000000000E+00  0.00000000000E+00  0.49107569140E+01  0.49107569140E+01  0.00000000000E+00 0. -1.
         13   -1    0    0    0    0 -0.00000000000E+00 -0.00000000000E+00 -0.10000000000E+04  0.10000000000E+04  0.00000000000E+00 0.  1.
    9000005    2    1    2  501    0  0.28817200959E+02 -0.23648329856E+02 -0.92295374794E+03  0.92371220868E+03  0.33089339159E+01 0.  0.
         13    1    3    3    0    0  0.15642675203E+02 -0.13623893651E+02 -0.47525912000E+03  0.47571160897E+03  0.00000000000E+00 0.  1.
          3    1    3    3  501    0  0.13174525756E+02 -0.10024436205E+02 -0.44769462794E+03  0.44800059971E+03  0.00000000000E+00 0.  1.
         -1    1    1    2    0  502 -0.28817200959E+02  0.23648329856E+02 -0.72135495146E+02  0.81198548239E+02  0.00000000000E+00 0. -1.
<mgrwt>
<rscale>  1 0.30000000E+03</rscale>
<asrwt>0</asrwt>
<pdfrwt beam="1">  1       21 0.17857336E-01 0.30000000E+03</pdfrwt>
<pdfrwt beam="2">0</pdfrwt>
<totfact> 0.29737693E+03</totfact>
</mgrwt>
</event>
<event>
 6    1  0.1270461E-001  0.3000000E+03  0.7818608E-02  0.1093470E+00
         21   -1    0    0  501  502  0.00000000000E+00  0.00000000000E+00  0.22297043647E+01  0.22297043647E+01  0.00000000000E+00 0. -1.
         13   -1    0    0    0    0 -0.00000000000E+00 -0.00000000000E+00 -0.10000000000E+04  0.10000000000E+04  0.00000000000E+00 0.  1.
    9000005    2    1    2  501    0 -0.32565826986E+02  0.20101749777E+02 -0.79195132712E+03  0.79288295557E+03  0.34443098750E+01 0.  0.
         13    1    3    3    0    0 -0.18122409137E+02  0.92323911719E+01 -0.42829829080E+03  0.42878092852E+03  0.00000000000E+00 0.  1.
          3    1    3    3  501    0 -0.14443417848E+02  0.10869358605E+02 -0.36365303632E+03  0.36410202705E+03  0.00000000000E+00 0.  1.
         -1    1    1    2    0  502  0.32565826986E+02 -0.20101749777E+02 -0.20581896851E+03  0.20934674880E+03  0.00000000000E+00 0. -1.
<mgrwt>
<rscale>  1 0.30000000E+03</rscale>
<asrwt>0</asrwt>
<pdfrwt beam="1">  1       21 0.81080330E-02 0.30000000E+03</pdfrwt>
<pdfrwt beam="2">0</pdfrwt>
<totfact> 0.12476311E+04</totfact>
</mgrwt>
</event>
<event>
 6    1  0.1270461E-001  0.3000000E+03  0.7818608E-02  0.1093470E+00
         21   -1    0    0  501  502  0.00000000000E+00  0.00000000000E+00  0.13756309258E+01  0.13756309258E+01  0.00000000000E+00 0. -1.
         13   -1    0    0    0    0 -0.00000000000E+00 -0.00000000000E+00 -0.10000000000E+04  0.10000000000E+04  0.00000000000E+00 0.  1.
    9000005    2    1    2  501    0  0.36566591031E+02 -0.24683678632E+01 -0.57050295294E+03  0.57168835467E+03  0.32782827164E+01 0.  0.
         13    1    3    3    0    0  0.26662185702E+02 -0.19778650853E+01 -0.43760596805E+03  0.43842190567E+03  0.00000000000E+00 0.  1.
          3    1    3    3  501    0  0.99044053288E+01 -0.49050277788E+00 -0.13289698489E+03  0.13326644900E+03  0.00000000000E+00 0.  1.
         -1    1    1    2    0  502 -0.36566591031E+02  0.24683678632E+01 -0.42812141614E+03  0.42968727626E+03  0.00000000000E+00 0. -1.
<mgrwt>
<rscale>  1 0.30000000E+03</rscale>
<asrwt>0</asrwt>
<pdfrwt beam="1">  1       21 0.50023048E-02 0.30000000E+03</pdfrwt>
<pdfrwt beam="2">0</pdfrwt>
<totfact> 0.28782034E+04</totfact>
</mgrwt>
</event>
<event>
 6    1  0.1270461E-001  0.3000000E+03  0.7818608E-02  0.1093470E+00
         21   -1    0    0  501  502  0.00000000000E+00  0.00000000000E+00  0.80929943165E+01  0.80929943165E+01  0.00000000000E+00 0. -1.
         13   -1    0    0    0    0 -0.00000000000E+00 -0.00000000000E+00 -0.10000000000E+04  0.10000000000E+04  0.00000000000E+00 0.  1.
    9000005    2    1    2  501    0  0.29136387547E+02 -0.49383492503E+02 -0.88430682047E+03  0.88616900870E+03  0.30497272133E+01 0.  0.
         13    1    3    3    0    0  0.66585882565E+01 -0.13489617935E+02 -0.22057835596E+03  0.22109074541E+03  0.00000000000E+00 0.  1.
          1    1    3    3  501    0  0.22477799290E+02 -0.35893874567E+02 -0.66372846452E+03  0.66507826329E+03  0.00000000000E+00 0.  1.
         -3    1    1    2    0  502 -0.29136387547E+02  0.49383492503E+02 -0.10760018521E+03  0.12192398561E+03  0.00000000000E+00 0. -1.
<mgrwt>
<rscale>  1 0.30000000E+03</rscale>
<asrwt>0</asrwt>
<pdfrwt beam="1">  1       21 0.29429132E-01 0.30000000E+03</pdfrwt>
<pdfrwt beam="2">0</pdfrwt>
<totfact> 0.11298218E+03</totfact>
</mgrwt>
</event>
<event>
 6    1  0.1270461E-001  0.3000000E+03  0.7818608E-02  0.1093470E+00
         21   -1    0    0  501  502  0.00000000000E+00  0.00000000000E+00  0.25130547021E+01  0.25130547021E+01  0.00000000000E+00 0. -1.
         13   -1    0    0    0    0 -0.00000000000E+00 -0.00000000000E+00 -0.10000000000E+04  0.10000000000E+04  0.00000000000E+00 0.  1.
    9000005    2    1    2  501    0 -0.46070391186E+02 -0.80317549210E+01 -0.67789770529E+03  0.67952037311E+03  0.39558320557E+01 0.  0.
         13    1    3    3    0    0 -0.19468396388E+02 -0.43409719262E+01 -0.31407665392E+03  0.31470940093E+03  0.00000000000E+00 0.  1.
          3    1    3    3  501    0 -0.26601994798E+02 -0.36907829948E+01 -0.36382105136E+03  0.36481097218E+03  0.00000000000E+00 0.  1.
         -1    1    1    2    0  502  0.46070391186E+02  0.80317549210E+01 -0.31958924001E+03  0.32299268159E+03  0.00000000000E+00 0. -1.
<mgrwt>
<rscale>  1 0.30000000E+03</rscale>
<asrwt>0</asrwt>
<pdfrwt beam="1">  1       21 0.91384000E-02 0.30000000E+03</pdfrwt>
<pdfrwt beam="2">0</pdfrwt>
<totfact> 0.10101064E+04</totfact>
</mgrwt>
</event>
<event>
 6    1  0.1270461E-001  0.3000000E+03  0.7818608E-02  0.1093470E+00
         21   -1    0    0  501  502  0.00000000000E+00  0.00000000000E+00  0.16452572729E+01  0.16452572729E+01  0.00000000000E+00 0. -1.
         13   -1    0    0    0    0 -0.00000000000E+00 -0.00000000000E+00 -0.10000000000E+04  0.10000000000E+04  0.00000000000E+00 0.  1.
    9000005    2    1    2  501    0 -0.26109304459E+02 -0.29805797367E+02 -0.60260907084E+03  0.60392083238E+03  0.35493932390E+01 0.  0.
         13    1    3    3    0    0 -0.15048977970E+02 -0.15159645548E+02 -0.34174722689E+03  0.34241415519E+03  0.00000000000E+00 0.  1.
          1    1    3    3  501    0 -0.11060326489E+02 -0.14646151818E+02 -0.26086184395E+03  0.26150667719E+03  0.00000000000E+00 0.  1.
         -3    1    1    2    0  502  0.26109304459E+02  0.29805797367E+02 -0.39574567189E+03  0.39772442489E+03  0.00000000000E+00 0. -1.
<mgrwt>
<rscale>  1 0.30000000E+03</rscale>
<asrwt>0</asrwt>
<pdfrwt beam="1">  1       21 0.59827663E-02 0.30000000E+03</pdfrwt>
<pdfrwt beam="2">0</pdfrwt>
<totfact> 0.21176451E+04</totfact>
</mgrwt>
</event>
<event>
 6    1  0.1270461E-001  0.3000000E+03  0.7818608E-02  0.1093470E+00
         21   -1    0    0  501  502  0.00000000000E+00  0.00000000000E+00  0.11806370776E+01  0.11806370776E+01  0.00000000000E+00 0. -1.
         13   -1    0    0    0    0 -0.00000000000E+00 -0.00000000000E+00 -0.10000000000E+04  0.10000000000E+04  0.00000000000E+00 0.  1.
    9000005    2    1    2  501    0 -0.30698887104E+02  0.14827246045E+02 -0.45183026316E+03  0.45313014291E+03  0.37511084661E+01 0.  0.
         13    1    3    3    0    0 -0.14653834385E+02  0.81005952820E+01 -0.20004566810E+03  0.20074517138E+03  0.00000000000E+00 0.  1.
          3    1    3    3  501    0 -0.16045052719E+02  0.67266507632E+01 -0.25178459506E+03  0.25238497153E+03  0.00000000000E+00 0.  1.
         -1    1    1    2    0  502  0.30698887104E+02 -0.14827246045E+02 -0.54698909976E+03  0.54805049417E+03  0.00000000000E+00 0. -1.
<mgrwt>
<rscale>  1 0.30000000E+03</rscale>
<asrwt>0</asrwt>
<pdfrwt beam="1">  1       21 0.42932348E-02 0.30000000E+03</pdfrwt>
<pdfrwt beam="2">0</pdfrwt>
<totfact> 0.37315975E+04</totfact>
</mgrwt>
</event>
<event>
 6    1  0.1270461E-001  0.3000000E+03  0.7818608E-02  0.1093470E+00
         21   -1    0    0  501  502  0.00000000000E+00  0.00000000000E+00  0.16771249892E+01  0.16771249892E+01  0.00000000000E+00 0. -1.
         13   -1    0    0    0    0 -0.00000000000E+00 -0.00000000000E+00 -0.10000000000E+04  0.10000000000E+04  0.00000000000E+00 0.  1.
    9000005    2    1    2  501    0  0.10407021747E+02 -0.35640320537E+02 -0.70774437464E+03  0.70873616946E+03  0.51302547909E+01 0.  0.
         13    1    3    3    0    0  0.98294357860E+01 -0.27892504143E+02 -0.58371416541E+03  0.58446286152E+03  0.00000000000E+00 0.  1.
          1    1    3    3  501    0  0.57758596149E+00 -0.77478163943E+01 -0.12403020923E+03  0.12427330794E+03  0.00000000000E+00 0.  1.
         -3    1    1    2    0  502 -0.10407021747E+02  0.35640320537E+02 -0.29057850037E+03  0.29294095553E+03  0.00000000000E+00 0. -1.
<mgrwt>
<rscale>  1 0.30000000E+03</rscale>
<asrwt>0</asrwt>
<pdfrwt beam="1">  1       21 0.60986492E-02 0.30000000E+03</pdfrwt>
<pdfrwt beam="2">0</pdfrwt>
<totfact> 0.20487087E+04</totfact>
</mgrwt>
</event>
<event>
 6    1  0.1270461E-001  0.3000000E+03  0.7818608E-02  0.1093470E+00
         21   -1    0    0  501  502  0.00000000000E+00  0.00000000000E+00  0.14310824344E+01  0.14310824344E+01  0.00000000000E+00 0. -1.
         13   -1    0    0    0    0 -0.00000000000E+00 -0.00000000000E+00 -0.10000000000E+04  0.10000000000E+04  0.00000000000E+00 0.  1.
    9000005    2    1    2  501    0 -0.17270096529E+02  0.26485237259E+02 -0.77293599811E+03  0.77359355618E+03  0.41483689755E+01 0.  0.
         13    1    3    3    0    0 -0.16552072598E+02  0.26088869256E+02 -0.76235022171E+03  0.76297605516E+03  0.00000000000E+00 0.  1.
          3    1    3    3  501    0 -0.71802393036E+00  0.39636800357E+00 -0.10585776397E+02  0.10617501019E+02  0.00000000000E+00 0.  1.
         -1    1    1    2    0  502  0.17270096529E+02 -0.26485237259E+02 -0.22563291945E+03  0.22783752625E+03  0.00000000000E+00 0. -1.
<mgrwt>
<rscale>  1 0.30000000E+03</rscale>
<asrwt>0</asrwt>
<pdfrwt beam="1">  1       21 0.52039471E-02 0.30000000E+03</pdfrwt>
<pdfrwt beam="2">0</pdfrwt>
<totfact> 0.26904985E+04</totfact>
</mgrwt>
</event>
<event>
 6    1  0.1270461E-001  0.3000000E+03  0.7818608E-02  0.1093470E+00
         21   -1    0    0  501  502  0.00000000000E+00  0.00000000000E+00  0.13534165586E+01  0.13534165586E+01  0.00000000000E+00 0. -1.
         13   -1    0    0    0    0 -0.00000000000E+00 -0.00000000000E+00 -0.10000000000E+04  0.10000000000E+04  0.00000000000E+00 0.  1.
    9000005    2    1    2  501    0  0.70870777425E+01 -0.35951155805E+02 -0.52899681638E+03  0.53027633584E+03  0.35564505174E+01 0.  0.
         13    1    3    3    0    0  0.56515712708E+01 -0.33370333256E+02 -0.48202547625E+03  0.48321225063E+03  0.00000000000E+00 0.  1.
          1    1    3    3  501    0  0.14355064717E+01 -0.25808225496E+01 -0.46971340127E+02  0.47064085215E+02  0.00000000000E+00 0.  1.
         -1    1    1    2    0  502 -0.70870777425E+01  0.35951155805E+02 -0.46964976706E+03  0.47107708072E+03  0.00000000000E+00 0. -1.
<mgrwt>
<rscale>  1 0.30000000E+03</rscale>
<asrwt>0</asrwt>
<pdfrwt beam="1">  1       21 0.49215251E-02 0.30000000E+03</pdfrwt>
<pdfrwt beam="2">0</pdfrwt>
<totfact> 0.29591718E+04</totfact>
</mgrwt>
</event>
<event>
 6    1  0.1270461E-001  0.3000000E+03  0.7818608E-02  0.1093470E+00
         21   -1    0    0  501  502  0.00000000000E+00  0.00000000000E+00  0.42447710566E+01  0.42447710566E+01  0.00000000000E+00 0. -1.
         13   -1    0    0    0    0 -0.00000000000E+00 -0.00000000000E+00 -0.10000000000E+04  0.10000000000E+04  0.00000000000E+00 0.  1.
    9000005    2    1    2  501    0 -0.13110810654E+02  0.34592308155E+02 -0.91113792599E+03  0.91189430219E+03  0.32213449622E+01 0.  0.
         13    1    3    3    0    0 -0.44197955490E+01  0.79211393759E+01 -0.21312318617E+03  0.21331613048E+03  0.00000000000E+00 0.  1.
          1    1    3    3  501    0 -0.86910151047E+01  0.26671168779E+02 -0.69801473982E+03  0.69857817171E+03  0.00000000000E+00 0.  1.
         -3    1    1    2    0  502  0.13110810654E+02 -0.34592308155E+02 -0.84617302957E+02  0.92350468863E+02  0.00000000000E+00 0. -1.
<mgrwt>
<rscale>  1 0.30000000E+03</rscale>
<asrwt>0</asrwt>
<pdfrwt beam="1">  1       21 0.15435564E-01 0.30000000E+03</pdfrwt>
<pdfrwt beam="2">0</pdfrwt>
<totfact> 0.39051751E+03</totfact>
</mgrwt>
</event>
<event>
 6    1  0.1270461E-001  0.3000000E+03  0.7818608E-02  0.1093470E+00
         21   -1    0    0  501  502  0.00000000000E+00  0.00000000000E+00  0.14196301992E+01  0.14196301992E+01  0.00000000000E+00 0. -1.
         13   -1    0    0    0    0 -0.00000000000E+00 -0.00000000000E+00 -0.10000000000E+04  0.10000000000E+04  0.00000000000E+00 0.  1.
    9000005    2    1    2  501    0  0.26441225754E+02  0.20064811255E+02 -0.73518201247E+03  0.73593812479E+03  0.32553016893E+01 0.  0.
         13    1    3    3    0    0  0.19312183426E+02  0.16290572960E+02 -0.56787675842E+03  0.56843852434E+03  0.00000000000E+00 0.  1.
          1    1    3    3  501    0  0.71290423280E+01  0.37742382954E+01 -0.16730525405E+03  0.16749960046E+03  0.00000000000E+00 0.  1.
         -3    1    1    2    0  502 -0.26441225754E+02 -0.20064811255E+02 -0.26339835733E+03  0.26548150541E+03  0.00000000000E+00 0. -1.
<mgrwt>
<rscale>  1 0.30000000E+03</rscale>
<asrwt>0</asrwt>
<pdfrwt beam="1">  1       21 0.51623025E-02 0.30000000E+03</pdfrwt>
<pdfrwt beam="2">0</pdfrwt>
<totfact> 0.27276756E+04</totfact>
</mgrwt>
</event>
<event>
 6    1  0.1270461E-001  0.3000000E+03  0.7818608E-02  0.1093470E+00
         21   -1    0    0  501  502  0.00000000000E+00  0.00000000000E+00  0.26287324862E+01  0.26287324862E+01  0.00000000000E+00 0. -1.
         13   -1    0    0    0    0 -0.00000000000E+00 -0.00000000000E+00 -0.10000000000E+04  0.10000000000E+04  0.00000000000E+00 0.  1.
    9000005    2    1    2  501    0  0.13855808973E+02  0.35272486166E+02 -0.83596932085E+03  0.83683753818E+03  0.40284217887E+01 0.  0.
         13    1    3    3    0    0  0.84587114884E+01  0.20406935657E+02 -0.44376794573E+03  0.44431743437E+03  0.00000000000E+00 0.  1.
          3    1    3    3  501    0  0.53970974849E+01  0.14865550509E+02 -0.39220137512E+03  0.39252010381E+03  0.00000000000E+00 0.  1.
         -3    1    1    2    0  502 -0.13855808973E+02 -0.35272486166E+02 -0.16140194667E+03  0.16579119431E+03  0.00000000000E+00 0. -1.
<mgrwt>
<rscale>  1 0.30000000E+03</rscale>
<asrwt>0</asrwt>
<pdfrwt beam="1">  1       21 0.95590474E-02 0.30000000E+03</pdfrwt>
<pdfrwt beam="2">0</pdfrwt>
<totfact> 0.93241998E+03</totfact>
</mgrwt>
</event>
<event>
 6    1  0.1270461E-001  0.3000000E+03  0.7818608E-02  0.1093470E+00
         21   -1    0    0  501  502  0.00000000000E+00  0.00000000000E+00  0.23896856021E+01  0.23896856021E+01  0.00000000000E+00 0. -1.
         13   -1    0    0    0    0 -0.00000000000E+00 -0.00000000000E+00 -0.10000000000E+04  0.10000000000E+04  0.00000000000E+00 0.  1.
    9000005    2    1    2  501    0  0.38767480896E+02  0.22940995927E+02 -0.69285544118E+03  0.69432355695E+03  0.27078592423E+01 0.  0.
         13    1    3    3    0    0  0.12427143309E+02  0.59118252880E+01 -0.20953638558E+03  0.20998781024E+03  0.00000000000E+00 0.  1.
          1    1    3    3  501    0  0.26340337587E+02  0.17029170639E+02 -0.48331905560E+03  0.48433574671E+03  0.00000000000E+00 0.  1.
         -1    1    1    2    0  502 -0.38767480896E+02 -0.22940995927E+02 -0.30475487322E+03  0.30806612865E+03  0.00000000000E+00 0. -1.
<mgrwt>
<rscale>  1 0.30000000E+03</rscale>
<asrwt>0</asrwt>
<pdfrwt beam="1">  1       21 0.86897842E-02 0.30000000E+03</pdfrwt>
<pdfrwt beam="2">0</pdfrwt>
<totfact> 0.11042431E+04</totfact>
</mgrwt>
</event>
<event>
 6    1  0.1270461E-001  0.3000000E+03  0.7818608E-02  0.1093470E+00
         21   -1    0    0  501  502  0.00000000000E+00  0.00000000000E+00  0.44904765466E+01  0.44904765466E+01  0.00000000000E+00 0. -1.
         13   -1    0    0    0    0 -0.00000000000E+00 -0.00000000000E+00 -0.10000000000E+04  0.10000000000E+04  0.00000000000E+00 0.  1.
    9000005    2    1    2  501    0  0.23147108066E+02 -0.21934149977E+02 -0.93940444965E+03  0.93995618447E+03  0.44736069063E+01 0.  0.
         13    1    3    3    0    0  0.38303323958E+01 -0.55590811649E+01 -0.23387288681E+03  0.23397030157E+03  0.00000000000E+00 0.  1.
          1    1    3    3  501    0  0.19316775671E+02 -0.16375068812E+02 -0.70553156284E+03  0.70598588290E+03  0.00000000000E+00 0.  1.
         -3    1    1    2    0  502 -0.23147108066E+02  0.21934149977E+02 -0.56105073805E+02  0.64534292075E+02  0.00000000000E+00 0. -1.
<mgrwt>
<rscale>  1 0.30000000E+03</rscale>
<asrwt>0</asrwt>
<pdfrwt beam="1">  1       21 0.16329040E-01 0.30000000E+03</pdfrwt>
<pdfrwt beam="2">0</pdfrwt>
<totfact> 0.35165696E+03</totfact>
</mgrwt>
</event>
<event>
 6    1  0.1270461E-001  0.3000000E+03  0.7818608E-02  0.1093470E+00
         21   -1    0    0  501  502  0.00000000000E+00  0.00000000000E+00  0.19554529082E+01  0.19554529082E+01  0.00000000000E+00 0. -1.
         13   -1    0    0    0    0 -0.00000000000E+00 -0.00000000000E+00 -0.10000000000E+04  0.10000000000E+04  0.00000000000E+00 0.  1.
    9000005    2    1    2  501    0  0.92940993453E+01  0.42818096295E+02 -0.44020962216E+03  0.44240244101E+03  0.39545814534E+01 0.  0.
         13    1    3    3    0    0  0.59717170574E+01  0.31987618499E+02 -0.34049265892E+03  0.34204403214E+03  0.00000000000E+00 0.  1.
          1    1    3    3  501    0  0.33223822878E+01  0.10830477796E+02 -0.99716963237E+02  0.10035840887E+03  0.00000000000E+00 0.  1.
         -3    1    1    2    0  502 -0.92940993453E+01 -0.42818096295E+02 -0.55783492493E+03  0.55955301190E+03  0.00000000000E+00 0. -1.
<mgrwt>
<rscale>  1 0.30000000E+03</rscale>
<asrwt>0</asrwt>
<pdfrwt beam="1">  1       21 0.71107528E-02 0.30000000E+03</pdfrwt>
<pdfrwt beam="2">0</pdfrwt>
<totfact> 0.15700165E+04</totfact>
</mgrwt>
</event>
<event>
 6    1  0.1270461E-001  0.3000000E+03  0.7818608E-02  0.1093470E+00
         21   -1    0    0  501  502  0.00000000000E+00  0.00000000000E+00  0.25943189592E+01  0.25943189592E+01  0.00000000000E+00 0. -1.
         13   -1    0    0    0    0 -0.00000000000E+00 -0.00000000000E+00 -0.10000000000E+04  0.10000000000E+04  0.00000000000E+00 0.  1.
    9000005    2    1    2  501    0 -0.36706959754E+02  0.30277021879E-01 -0.84596491399E+03  0.84676842978E+03  0.35687774346E+01 0.  0.
         13    1    3    3    0    0 -0.28076079351E+02  0.73480700051E+00 -0.67570752672E+03  0.67629096389E+03  0.00000000000E+00 0.  1.
          3    1    3    3  501    0 -0.86308804027E+01 -0.70452997863E+00 -0.17025738726E+03  0.17047746589E+03  0.00000000000E+00 0.  1.
         -1    1    1    2    0  502  0.36706959754E+02 -0.30277021879E-01 -0.15144076705E+03  0.15582588917E+03  0.00000000000E+00 0. -1.
<mgrwt>
<rscale>  1 0.30000000E+03</rscale>
<asrwt>0</asrwt>
<pdfrwt beam="1">  1       21 0.94339070E-02 0.30000000E+03</pdfrwt>
<pdfrwt beam="2">0</pdfrwt>
<totfact> 0.95456584E+03</totfact>
</mgrwt>
</event>
<event>
 6    1  0.1270461E-001  0.3000000E+03  0.7818608E-02  0.1093470E+00
         21   -1    0    0  501  502  0.00000000000E+00  0.00000000000E+00  0.14538013260E+01  0.14538013260E+01  0.00000000000E+00 0. -1.
         13   -1    0    0    0    0 -0.00000000000E+00 -0.00000000000E+00 -0.10000000000E+04  0.10000000000E+04  0.00000000000E+00 0.  1.
    9000005    2    1    2  501    0 -0.87669807009E+01 -0.35675670566E+02 -0.63031234522E+03  0.63139193589E+03  0.35370536212E+01 0.  0.
         13    1    3    3    0    0 -0.29607038733E+01 -0.88985206010E+01 -0.13875789852E+03  0.13907445430E+03  0.00000000000E+00 0.  1.
          3    1    3    3  501    0 -0.58062768275E+01 -0.26777149965E+02 -0.49155444670E+03  0.49231748159E+03  0.00000000000E+00 0.  1.
         -1    1    1    2    0  502  0.87669807009E+01  0.35675670566E+02 -0.36823385345E+03  0.37006186544E+03  0.00000000000E+00 0. -1.
<mgrwt>
<rscale>  1 0.30000000E+03</rscale>
<asrwt>0</asrwt>
<pdfrwt beam="1">  1       21 0.52865614E-02 0.30000000E+03</pdfrwt>
<pdfrwt beam="2">0</pdfrwt>
<totfact> 0.26190331E+04</totfact>
</mgrwt>
</event>
<event>
 6    1  0.1270461E-001  0.3000000E+03  0.7818608E-02  0.1093470E+00
         21   -1    0    0  501  502  0.00000000000E+00  0.00000000000E+00  0.23226304502E+01  0.23226304502E+01  0.00000000000E+00 0. -1.
         13   -1    0    0    0    0 -0.00000000000E+00 -0.00000000000E+00 -0.10000000000E+04  0.10000000000E+04  0.00000000000E+00 0.  1.
    9000005    2    1    2  501    0  0.36118793376E+02 -0.34344258080E+01 -0.82839003718E+03  0.82919099436E+03  0.33598968744E+01 0.  0.
         13    1    3    3    0    0  0.66091797036E+01 -0.86895826458E+00 -0.12514818281E+03  0.12532559198E+03  0.00000000000E+00 0.  1.
          1    1    3    3  501    0  0.29509613673E+02 -0.25654675434E+01 -0.70324185437E+03  0.70386540238E+03  0.00000000000E+00 0.  1.
         -3    1    1    2    0  502 -0.36118793376E+02  0.34344258080E+01 -0.16928733237E+03  0.17313163609E+03  0.00000000000E+00 0. -1.
<mgrwt>
<rscale>  1 0.30000000E+03</rscale>
<asrwt>0</asrwt>
<pdfrwt beam="1">  1       21 0.84459467E-02 0.30000000E+03</pdfrwt>
<pdfrwt beam="2">0</pdfrwt>
<totfact> 0.11611119E+04</totfact>
</mgrwt>
</event>
<event>
 6    1  0.1270461E-001  0.3000000E+03  0.7818608E-02  0.1093470E+00
         21   -1    0    0  501  502  0.00000000000E+00  0.00000000000E+00  0.97422967750E+00  0.97422967750E+00  0.00000000000E+00 0. -1.
         13   -1    0    0    0    0 -0.00000000000E+00 -0.00000000000E+00 -0.10000000000E+04  0.10000000000E+04  0.00000000000E+00 0.  1.
    9000005    2    1    2  501    0  0.39610306734E+01 -0.30901188719E+02 -0.49378047007E+03  0.49476934363E+03  0.26415048910E+01 0.  0.
         13    1    3    3    0    0  0.21852640605E+01 -0.83775257606E+01 -0.14361946612E+03  0.14388019101E+03  0.00000000000E+00 0.  1.
          3    1    3    3  501    0  0.17757666129E+01 -0.22523662958E+02 -0.35016100395E+03  0.35088915262E+03  0.00000000000E+00 0.  1.
         -1    1    1    2    0  502 -0.39610306734E+01  0.30901188719E+02 -0.50524530025E+03  0.50620488604E+03  0.00000000000E+00 0. -1.
<mgrwt>
<rscale>  1 0.30000000E+03</rscale>
<asrwt>0</asrwt>
<pdfrwt beam="1">  1       21 0.35426608E-02 0.30000000E+03</pdfrwt>
<pdfrwt beam="2">0</pdfrwt>
<totfact> 0.51559688E+04</totfact>
</mgrwt>
</event>
<event>
 6    1  0.1270461E-001  0.3000000E+03  0.7818608E-02  0.1093470E+00
         21   -1    0    0  501  502  0.00000000000E+00  0.00000000000E+00  0.23829993730E+01  0.23829993730E+01  0.00000000000E+00 0. -1.
         13   -1    0    0    0    0 -0.00000000000E+00 -0.00000000000E+00 -0.10000000000E+04  0.10000000000E+04  0.00000000000E+00 0.  1.
    9000005    2    1    2  501    0 -0.40333783949E+02  0.24544520491E+02 -0.62426911158E+03  0.62606146947E+03  0.34339869739E+01 0.  0.
         13    1    3    3    0    0 -0.23467457656E+02  0.12413010981E+02 -0.34226463965E+03  0.34329271470E+03  0.00000000000E+00 0.  1.
          3    1    3    3  501    0 -0.16866326293E+02  0.12131509510E+02 -0.28200447193E+03  0.28276875477E+03  0.00000000000E+00 0.  1.
         -1    1    1    2    0  502  0.40333783949E+02 -0.24544520491E+02 -0.37334788904E+03  0.37632152990E+03  0.00000000000E+00 0. -1.
<mgrwt>
<rscale>  1 0.30000000E+03</rscale>
<asrwt>0</asrwt>
<pdfrwt beam="1">  1       21 0.86654705E-02 0.30000000E+03</pdfrwt>
<pdfrwt beam="2">0</pdfrwt>
<totfact> 0.11097210E+04</totfact>
</mgrwt>
</event>
<event>
 6    1  0.1270461E-001  0.3000000E+03  0.7818608E-02  0.1093470E+00
         21   -1    0    0  501  502  0.00000000000E+00  0.00000000000E+00  0.10211442218E+01  0.10211442218E+01  0.00000000000E+00 0. -1.
         13   -1    0    0    0    0 -0.00000000000E+00 -0.00000000000E+00 -0.10000000000E+04  0.10000000000E+04  0.00000000000E+00 0.  1.
    9000005    2    1    2  501    0  0.11324227950E+02 -0.27872973745E+02 -0.66334572376E+03  0.66404230199E+03  0.44146116908E+01 0.  0.
         13    1    3    3    0    0  0.20979885825E+01 -0.47173450657E+01 -0.81919688898E+02  0.82082216891E+02  0.00000000000E+00 0.  1.
          3    1    3    3  501    0  0.92262393673E+01 -0.23155628679E+02 -0.58142603486E+03  0.58196008510E+03  0.00000000000E+00 0.  1.
         -1    1    1    2    0  502 -0.11324227950E+02  0.27872973745E+02 -0.33563313202E+03  0.33697884223E+03  0.00000000000E+00 0. -1.
<mgrwt>
<rscale>  1 0.30000000E+03</rscale>
<asrwt>0</asrwt>
<pdfrwt beam="1">  1       21 0.37132595E-02 0.30000000E+03</pdfrwt>
<pdfrwt beam="2">0</pdfrwt>
<totfact> 0.47648465E+04</totfact>
</mgrwt>
</event>
<event>
 6    1  0.1270461E-001  0.3000000E+03  0.7818608E-02  0.1093470E+00
         21   -1    0    0  501  502  0.00000000000E+00  0.00000000000E+00  0.14066052554E+01  0.14066052554E+01  0.00000000000E+00 0. -1.
         13   -1    0    0    0    0 -0.00000000000E+00 -0.00000000000E+00 -0.10000000000E+04  0.10000000000E+04  0.00000000000E+00 0.  1.
    9000005    2    1    2  501    0 -0.47237571815E+01 -0.29969711635E+02 -0.20746009991E+03  0.20969176538E+03  0.32320136652E+01 0.  0.
         13    1    3    3    0    0 -0.43635919881E+00 -0.70593110920E+00 -0.92548513081E+01  0.92919869143E+01  0.00000000000E+00 0.  1.
          1    1    3    3  501    0 -0.42873979827E+01 -0.29263780526E+02 -0.19820524861E+03  0.20039977846E+03  0.00000000000E+00 0.  1.
         -3    1    1    2    0  502  0.47237571815E+01  0.29969711635E+02 -0.79113329483E+03  0.79171483988E+03  0.00000000000E+00 0. -1.
<mgrwt>
<rscale>  1 0.30000000E+03</rscale>
<asrwt>0</asrwt>
<pdfrwt beam="1">  1       21 0.51149390E-02 0.30000000E+03</pdfrwt>
<pdfrwt beam="2">0</pdfrwt>
<totfact> 0.27709361E+04</totfact>
</mgrwt>
</event>
<event>
 6    1  0.1270461E-001  0.3000000E+03  0.7818608E-02  0.1093470E+00
         21   -1    0    0  501  502  0.00000000000E+00  0.00000000000E+00  0.29826002151E+01  0.29826002151E+01  0.00000000000E+00 0. -1.
         13   -1    0    0    0    0 -0.00000000000E+00 -0.00000000000E+00 -0.10000000000E+04  0.10000000000E+04  0.00000000000E+00 0.  1.
    9000005    2    1    2  501    0  0.26241685204E+02 -0.45229622184E+02 -0.64201486773E+03  0.64414957145E+03  0.33519026399E+01 0.  0.
         13    1    3    3    0    0  0.17545201706E+02 -0.27194659752E+02 -0.40350465937E+03  0.40480043695E+03  0.00000000000E+00 0.  1.
          3    1    3    3  501    0  0.86964834973E+01 -0.18034962432E+02 -0.23851020835E+03  0.23934913449E+03  0.00000000000E+00 0.  1.
         -3    1    1    2    0  502 -0.26241685204E+02  0.45229622184E+02 -0.35500253206E+03  0.35883302877E+03  0.00000000000E+00 0. -1.
<mgrwt>
<rscale>  1 0.30000000E+03</rscale>
<asrwt>0</asrwt>
<pdfrwt beam="1">  1       21 0.10845842E-01 0.30000000E+03</pdfrwt>
<pdfrwt beam="2">0</pdfrwt>
<totfact> 0.74384122E+03</totfact>
</mgrwt>
</event>
<event>
 6    1  0.1374526E-001  0.3000000E+03  0.7818608E-02  0.1093470E+00
         21   -1    0    0  501  502  0.00000000000E+00  0.00000000000E+00  0.10149435251E+01  0.10149435251E+01  0.00000000000E+00 0. -1.
         13   -1    0    0    0    0 -0.00000000000E+00 -0.00000000000E+00 -0.10000000000E+04  0.10000000000E+04  0.00000000000E+00 0.  1.
    9000005    2    1    2  501    0 -0.10780340401E+02 -0.29153467088E+02 -0.45346146285E+03  0.45460655085E+03  0.85835543289E+01 0.  0.
         13    1    3    3    0    0  0.35791361330E+00 -0.25430828918E+01 -0.76420698993E+02  0.76463838560E+02  0.00000000000E+00 0.  1.
          1    1    3    3  501    0 -0.11138254014E+02 -0.26610384196E+02 -0.37704076386E+03  0.37814271229E+03  0.00000000000E+00 0.  1.
         -3    1    1    2    0  502  0.10780340401E+02  0.29153467088E+02 -0.54552359362E+03  0.54640839267E+03  0.00000000000E+00 0. -1.
<mgrwt>
<rscale>  1 0.30000000E+03</rscale>
<asrwt>0</asrwt>
<pdfrwt beam="1">  1       21 0.36907115E-02 0.30000000E+03</pdfrwt>
<pdfrwt beam="2">0</pdfrwt>
<totfact> 0.48138092E+04</totfact>
</mgrwt>
</event>
<event>
 6    1  0.1270461E-001  0.3000000E+03  0.7818608E-02  0.1093470E+00
         21   -1    0    0  501  502  0.00000000000E+00  0.00000000000E+00  0.10182291231E+02  0.10182291231E+02  0.00000000000E+00 0. -1.
         13   -1    0    0    0    0 -0.00000000000E+00 -0.00000000000E+00 -0.10000000000E+04  0.10000000000E+04  0.00000000000E+00 0.  1.
    9000005    2    1    2  501    0  0.23844349077E+02 -0.29805064070E+02 -0.96245887435E+03  0.96322059782E+03  0.31528438849E+01 0.  0.
         13    1    3    3    0    0  0.12029109451E+02 -0.17351622736E+02 -0.54602064336E+03  0.54642869733E+03  0.00000000000E+00 0.  1.
          1    1    3    3  501    0  0.11815239626E+02 -0.12453441334E+02 -0.41643823099E+03  0.41679190049E+03  0.00000000000E+00 0.  1.
         -1    1    1    2    0  502 -0.23844349077E+02  0.29805064070E+02 -0.27358834419E+02  0.46961693410E+02  0.00000000000E+00 0. -1.
<mgrwt>
<rscale>  1 0.30000000E+03</rscale>
<asrwt>0</asrwt>
<pdfrwt beam="1">  1       21 0.37026592E-01 0.30000000E+03</pdfrwt>
<pdfrwt beam="2">0</pdfrwt>
<totfact> 0.70895082E+02</totfact>
</mgrwt>
</event>
<event>
 6    1  0.1270461E-001  0.3000000E+03  0.7818608E-02  0.1093470E+00
         21   -1    0    0  501  502  0.00000000000E+00  0.00000000000E+00  0.69897978171E+01  0.69897978171E+01  0.00000000000E+00 0. -1.
         13   -1    0    0    0    0 -0.00000000000E+00 -0.00000000000E+00 -0.10000000000E+04  0.10000000000E+04  0.00000000000E+00 0.  1.
    9000005    2    1    2  501    0 -0.13708839441E+02  0.78995467785E+02 -0.63771215067E+03  0.64275783653E+03  0.57125395353E+01 0.  0.
         13    1    3    3    0    0 -0.11622563581E+02  0.51278622758E+02 -0.42053159962E+03  0.42380586053E+03  0.00000000000E+00 0.  1.
          1    1    3    3  501    0 -0.20862758599E+01  0.27716845027E+02 -0.21718055104E+03  0.21895197600E+03  0.00000000000E+00 0.  1.
         -1    1    1    2    0  502  0.13708839441E+02 -0.78995467785E+02 -0.35529805152E+03  0.36423196129E+03  0.00000000000E+00 0. -1.
<mgrwt>
<rscale>  1 0.30000000E+03</rscale>
<asrwt>0</asrwt>
<pdfrwt beam="1">  1       21 0.25417500E-01 0.30000000E+03</pdfrwt>
<pdfrwt beam="2">0</pdfrwt>
<totfact> 0.15097868E+03</totfact>
</mgrwt>
</event>
<event>
 6    1  0.1270461E-001  0.3000000E+03  0.7818608E-02  0.1093470E+00
         21   -1    0    0  501  502  0.00000000000E+00  0.00000000000E+00  0.30617731335E+01  0.30617731335E+01  0.00000000000E+00 0. -1.
         13   -1    0    0    0    0 -0.00000000000E+00 -0.00000000000E+00 -0.10000000000E+04  0.10000000000E+04  0.00000000000E+00 0.  1.
    9000005    2    1    2  501    0 -0.11743109907E+02 -0.44559113571E+02 -0.77577249711E+03  0.77714653405E+03  0.32175887092E+01 0.  0.
         13    1    3    3    0    0 -0.51990438629E+01 -0.20599681013E+02 -0.33107627330E+03  0.33175725412E+03  0.00000000000E+00 0.  1.
          3    1    3    3  501    0 -0.65440660440E+01 -0.23959432558E+02 -0.44469622381E+03  0.44538927993E+03  0.00000000000E+00 0.  1.
         -1    1    1    2    0  502  0.11743109907E+02  0.44559113571E+02 -0.22116572975E+03  0.22591523908E+03  0.00000000000E+00 0. -1.
<mgrwt>
<rscale>  1 0.30000000E+03</rscale>
<asrwt>0</asrwt>
<pdfrwt beam="1">  1       21 0.11133744E-01 0.30000000E+03</pdfrwt>
<pdfrwt beam="2">0</pdfrwt>
<totfact> 0.70959635E+03</totfact>
</mgrwt>
</event>
<event>
 6    1  0.1270461E-001  0.3000000E+03  0.7818608E-02  0.1093470E+00
         21   -1    0    0  501  502  0.00000000000E+00  0.00000000000E+00  0.42127342862E+01  0.42127342862E+01  0.00000000000E+00 0. -1.
         13   -1    0    0    0    0 -0.00000000000E+00 -0.00000000000E+00 -0.10000000000E+04  0.10000000000E+04  0.00000000000E+00 0.  1.
    9000005    2    1    2  501    0 -0.43383869467E+02 -0.22260361620E+02 -0.82911374990E+03  0.83055288083E+03  0.32853841410E+01 0.  0.
         13    1    3    3    0    0 -0.16932608838E+02 -0.80459564396E+01 -0.34441668501E+03  0.34492651909E+03  0.00000000000E+00 0.  1.
          1    1    3    3  501    0 -0.26451260629E+02 -0.14214405181E+02 -0.48469706489E+03  0.48562636174E+03  0.00000000000E+00 0.  1.
         -3    1    1    2    0  502  0.43383869467E+02  0.22260361620E+02 -0.16667351581E+03  0.17365985346E+03  0.00000000000E+00 0. -1.
<mgrwt>
<rscale>  1 0.30000000E+03</rscale>
<asrwt>0</asrwt>
<pdfrwt beam="1">  1       21 0.15319066E-01 0.30000000E+03</pdfrwt>
<pdfrwt beam="2">0</pdfrwt>
<totfact> 0.39604930E+03</totfact>
</mgrwt>
</event>
<event>
 6    1  0.1270461E-001  0.3000000E+03  0.7818608E-02  0.1093470E+00
         21   -1    0    0  501  502  0.00000000000E+00  0.00000000000E+00  0.23219463548E+01  0.23219463548E+01  0.00000000000E+00 0. -1.
         13   -1    0    0    0    0 -0.00000000000E+00 -0.00000000000E+00 -0.10000000000E+04  0.10000000000E+04  0.00000000000E+00 0.  1.
    9000005    2    1    2  501    0  0.19200049668E+02 -0.31123940440E+02 -0.82492675701E+03  0.82574235505E+03  0.29901369505E+01 0.  0.
         13    1    3    3    0    0  0.16863943523E+02 -0.27896927119E+02 -0.75314532006E+03  0.75385045219E+03  0.00000000000E+00 0.  1.
          3    1    3    3  501    0  0.23361061451E+01 -0.32270133209E+01 -0.71781436947E+02  0.71891902862E+02  0.00000000000E+00 0.  1.
         -1    1    1    2    0  502 -0.19200049668E+02  0.31123940440E+02 -0.17275129664E+03  0.17657959130E+03  0.00000000000E+00 0. -1.
<mgrwt>
<rscale>  1 0.30000000E+03</rscale>
<asrwt>0</asrwt>
<pdfrwt beam="1">  1       21 0.84434591E-02 0.30000000E+03</pdfrwt>
<pdfrwt beam="2">0</pdfrwt>
<totfact> 0.11617149E+04</totfact>
</mgrwt>
</event>
<event>
 6    1  0.1270461E-001  0.3000000E+03  0.7818608E-02  0.1093470E+00
         21   -1    0    0  501  502  0.00000000000E+00  0.00000000000E+00  0.22358125633E+01  0.22358125633E+01  0.00000000000E+00 0. -1.
         13   -1    0    0    0    0 -0.00000000000E+00 -0.00000000000E+00 -0.10000000000E+04  0.10000000000E+04  0.00000000000E+00 0.  1.
    9000005    2    1    2  501    0  0.23744354939E+02 -0.40167668161E+02 -0.42172918149E+03  0.42431404966E+03  0.31103480287E+01 0.  0.
         13    1    3    3    0    0  0.66185367116E+01 -0.87730947586E+01 -0.10341809015E+03  0.10400035380E+03  0.00000000000E+00 0.  1.
          1    1    3    3  501    0  0.17125818227E+02 -0.31394573403E+02 -0.31831109134E+03  0.32031369586E+03  0.00000000000E+00 0.  1.
         -3    1    1    2    0  502 -0.23744354939E+02  0.40167668161E+02 -0.57603500595E+03  0.57792176290E+03  0.00000000000E+00 0. -1.
<mgrwt>
<rscale>  1 0.30000000E+03</rscale>
<asrwt>0</asrwt>
<pdfrwt beam="1">  1       21 0.81302446E-02 0.30000000E+03</pdfrwt>
<pdfrwt beam="2">0</pdfrwt>
<totfact> 0.12416452E+04</totfact>
</mgrwt>
</event>
<event>
 6    1  0.1270461E-001  0.3000000E+03  0.7818608E-02  0.1093470E+00
         21   -1    0    0  501  502  0.00000000000E+00  0.00000000000E+00  0.47281413481E+01  0.47281413481E+01  0.00000000000E+00 0. -1.
         13   -1    0    0    0    0 -0.00000000000E+00 -0.00000000000E+00 -0.10000000000E+04  0.10000000000E+04  0.00000000000E+00 0.  1.
    9000005    2    1    2  501    0 -0.38552523873E+02 -0.27401739120E+02 -0.86197022288E+03  0.86328388199E+03  0.54077149810E+01 0.  0.
         13    1    3    3    0    0 -0.25853290076E+02 -0.20360181245E+02 -0.56242729399E+03  0.56338919994E+03  0.00000000000E+00 0.  1.
          1    1    3    3  501    0 -0.12699233797E+02 -0.70415578753E+01 -0.29954292889E+03  0.29989468205E+03  0.00000000000E+00 0.  1.
         -3    1    1    2    0  502  0.38552523873E+02  0.27401739120E+02 -0.13330163578E+03  0.14144425935E+03  0.00000000000E+00 0. -1.
<mgrwt>
<rscale>  1 0.30000000E+03</rscale>
<asrwt>0</asrwt>
<pdfrwt beam="1">  1       21 0.17193278E-01 0.30000000E+03</pdfrwt>
<pdfrwt beam="2">0</pdfrwt>
<totfact> 0.31931535E+03</totfact>
</mgrwt>
</event>
<event>
 6    1  0.1270461E-001  0.3000000E+03  0.7818608E-02  0.1093470E+00
         21   -1    0    0  501  502  0.00000000000E+00  0.00000000000E+00  0.15653110346E+01  0.15653110346E+01  0.00000000000E+00 0. -1.
         13   -1    0    0    0    0 -0.00000000000E+00 -0.00000000000E+00 -0.10000000000E+04  0.10000000000E+04  0.00000000000E+00 0.  1.
    9000005    2    1    2  501    0 -0.86286873589E+01  0.29925355895E+02 -0.80761821203E+03  0.80822387978E+03  0.29465686952E+01 0.  0.
         13    1    3    3    0    0 -0.52934121880E+01  0.22940434633E+02 -0.60760473942E+03  0.60806069033E+03  0.00000000000E+00 0.  1.
          1    1    3    3  501    0 -0.33352751710E+01  0.69849212621E+01 -0.20001347261E+03  0.20016318945E+03  0.00000000000E+00 0.  1.
         -3    1    1    2    0  502  0.86286873589E+01 -0.29925355895E+02 -0.19081647693E+03  0.19334143125E+03  0.00000000000E+00 0. -1.
<mgrwt>
<rscale>  1 0.30000000E+03</rscale>
<asrwt>0</asrwt>
<pdfrwt beam="1">  1       21 0.56920521E-02 0.30000000E+03</pdfrwt>
<pdfrwt beam="2">0</pdfrwt>
<totfact> 0.23073552E+04</totfact>
</mgrwt>
</event>
<event>
 6    1  0.1270461E-001  0.3000000E+03  0.7818608E-02  0.1093470E+00
         21   -1    0    0  501  502  0.00000000000E+00  0.00000000000E+00  0.51635029620E+01  0.51635029620E+01  0.00000000000E+00 0. -1.
         13   -1    0    0    0    0 -0.00000000000E+00 -0.00000000000E+00 -0.10000000000E+04  0.10000000000E+04  0.00000000000E+00 0.  1.
    9000005    2    1    2  501    0  0.17257803767E+02  0.29408982509E+02 -0.93976359496E+03  0.94038893553E+03  0.36077146976E+01 0.  0.
         13    1    3    3    0    0  0.16968082442E+02  0.28149264406E+02 -0.88509550134E+03  0.88570556247E+03  0.00000000000E+00 0.  1.
          3    1    3    3  501    0  0.28972132510E+00  0.12597181032E+01 -0.54668093627E+02  0.54683373058E+02  0.00000000000E+00 0.  1.
         -1    1    1    2    0  502 -0.17257803767E+02 -0.29408982509E+02 -0.55072902075E+02  0.64774567432E+02  0.00000000000E+00 0. -1.
<mgrwt>
<rscale>  1 0.30000000E+03</rscale>
<asrwt>0</asrwt>
<pdfrwt beam="1">  1       21 0.18776414E-01 0.30000000E+03</pdfrwt>
<pdfrwt beam="2">0</pdfrwt>
<totfact> 0.27050613E+03</totfact>
</mgrwt>
</event>
<event>
 6    1  0.1270461E-001  0.3000000E+03  0.7818608E-02  0.1093470E+00
         21   -1    0    0  501  502  0.00000000000E+00  0.00000000000E+00  0.54488301570E+01  0.54488301570E+01  0.00000000000E+00 0. -1.
         13   -1    0    0    0    0 -0.00000000000E+00 -0.00000000000E+00 -0.10000000000E+04  0.10000000000E+04  0.00000000000E+00 0.  1.
    9000005    2    1    2  501    0 -0.14378238295E+01  0.45743706487E+02 -0.89163295407E+03  0.89281351971E+03  0.34788190938E+01 0.  0.
         13    1    3    3    0    0  0.44877630941E+00  0.33390394682E+02 -0.64116254810E+03  0.64203156694E+03  0.00000000000E+00 0.  1.
          3    1    3    3  501    0 -0.18866001390E+01  0.12353311805E+02 -0.25047040596E+03  0.25078195277E+03  0.00000000000E+00 0.  1.
         -1    1    1    2    0  502  0.14378238295E+01 -0.45743706487E+02 -0.10291821578E+03  0.11263531045E+03  0.00000000000E+00 0. -1.
<mgrwt>
<rscale>  1 0.30000000E+03</rscale>
<asrwt>0</asrwt>
<pdfrwt beam="1">  1       21 0.19813970E-01 0.30000000E+03</pdfrwt>
<pdfrwt beam="2">0</pdfrwt>
<totfact> 0.24423772E+03</totfact>
</mgrwt>
</event>
<event>
 6    1  0.1270461E-001  0.3000000E+03  0.7818608E-02  0.1093470E+00
         21   -1    0    0  501  502  0.00000000000E+00  0.00000000000E+00  0.21549027000E+01  0.21549027000E+01  0.00000000000E+00 0. -1.
         13   -1    0    0    0    0 -0.00000000000E+00 -0.00000000000E+00 -0.10000000000E+04  0.10000000000E+04  0.00000000000E+00 0.  1.
    9000005    2    1    2  501    0 -0.22479161456E+01 -0.42192002462E+02 -0.29408134259E+03  0.29712395257E+03  0.36863168631E+01 0.  0.
         13    1    3    3    0    0 -0.93666686473E+00 -0.24601765111E+02 -0.15868949388E+03  0.16058791878E+03  0.00000000000E+00 0.  1.
          1    1    3    3  501    0 -0.13112492809E+01 -0.17590237351E+02 -0.13539184871E+03  0.13653603379E+03  0.00000000000E+00 0.  1.
         -3    1    1    2    0  502  0.22479161456E+01  0.42192002462E+02 -0.70376375471E+03  0.70503095013E+03  0.00000000000E+00 0. -1.
<mgrwt>
<rscale>  1 0.30000000E+03</rscale>
<asrwt>0</asrwt>
<pdfrwt beam="1">  1       21 0.78360263E-02 0.30000000E+03</pdfrwt>
<pdfrwt beam="2">0</pdfrwt>
<totfact> 0.13246807E+04</totfact>
</mgrwt>
</event>
<event>
 6    1  0.1270461E-001  0.3000000E+03  0.7818608E-02  0.1093470E+00
         21   -1    0    0  501  502  0.00000000000E+00  0.00000000000E+00  0.12320185433E+01  0.12320185433E+01  0.00000000000E+00 0. -1.
         13   -1    0    0    0    0 -0.00000000000E+00 -0.00000000000E+00 -0.10000000000E+04  0.10000000000E+04  0.00000000000E+00 0.  1.
    9000005    2    1    2  501    0  0.25435271615E+02  0.20704691869E+02 -0.32533458343E+03  0.32700047161E+03  0.33286555194E+01 0.  0.
         13    1    3    3    0    0  0.10847167865E+02  0.10470180245E+02 -0.15970934237E+03  0.16041932479E+03  0.00000000000E+00 0.  1.
          1    1    3    3  501    0  0.14588103750E+02  0.10234511624E+02 -0.16562524107E+03  0.16658114682E+03  0.00000000000E+00 0.  1.
         -3    1    1    2    0  502 -0.25435271615E+02 -0.20704691869E+02 -0.67343339802E+03  0.67423154693E+03  0.00000000000E+00 0. -1.
<mgrwt>
<rscale>  1 0.30000000E+03</rscale>
<asrwt>0</asrwt>
<pdfrwt beam="1">  1       21 0.44800769E-02 0.30000000E+03</pdfrwt>
<pdfrwt beam="2">0</pdfrwt>
<totfact> 0.34718574E+04</totfact>
</mgrwt>
</event>
<event>
 6    1  0.1270461E-001  0.3000000E+03  0.7818608E-02  0.1093470E+00
         21   -1    0    0  501  502  0.00000000000E+00  0.00000000000E+00  0.16501250830E+01  0.16501250830E+01  0.00000000000E+00 0. -1.
         13   -1    0    0    0    0 -0.00000000000E+00 -0.00000000000E+00 -0.10000000000E+04  0.10000000000E+04  0.00000000000E+00 0.  1.
    9000005    2    1    2  501    0  0.30558801617E+02  0.62493157422E+01 -0.81967857587E+03  0.82027667772E+03  0.28224059278E+01 0.  0.
         13    1    3    3    0    0  0.69228733019E+00  0.57383195424E+00 -0.19271485914E+02  0.19292452260E+02  0.00000000000E+00 0.  1.
          1    1    3    3  501    0  0.29866514287E+02  0.56754837880E+01 -0.80040708995E+03  0.80098422546E+03  0.00000000000E+00 0.  1.
         -3    1    1    2    0  502 -0.30558801617E+02 -0.62493157422E+01 -0.17867129905E+03  0.18137344736E+03  0.00000000000E+00 0. -1.
<mgrwt>
<rscale>  1 0.30000000E+03</rscale>
<asrwt>0</asrwt>
<pdfrwt beam="1">  1       21 0.60004675E-02 0.30000000E+03</pdfrwt>
<pdfrwt beam="2">0</pdfrwt>
<totfact> 0.21068834E+04</totfact>
</mgrwt>
</event>
<event>
 6    1  0.1270461E-001  0.3000000E+03  0.7818608E-02  0.1093470E+00
         21   -1    0    0  501  502  0.00000000000E+00  0.00000000000E+00  0.12272403896E+01  0.12272403896E+01  0.00000000000E+00 0. -1.
         13   -1    0    0    0    0 -0.00000000000E+00 -0.00000000000E+00 -0.10000000000E+04  0.10000000000E+04  0.00000000000E+00 0.  1.
    9000005    2    1    2  501    0 -0.26306240446E+02 -0.15188236352E+02 -0.73501465218E+03  0.73572575255E+03  0.11096992195E+02 0.  0.
         13    1    3    3    0    0 -0.15779407522E+02 -0.30160057417E+01 -0.40613258952E+03  0.40645020145E+03  0.00000000000E+00 0.  1.
          1    1    3    3  501    0 -0.10526832924E+02 -0.12172230611E+02 -0.32888206266E+03  0.32927555110E+03  0.00000000000E+00 0.  1.
         -3    1    1    2    0  502  0.26306240446E+02  0.15188236352E+02 -0.26375810743E+03  0.26550148784E+03  0.00000000000E+00 0. -1.
<mgrwt>
<rscale>  1 0.30000000E+03</rscale>
<asrwt>0</asrwt>
<pdfrwt beam="1">  1       21 0.44627017E-02 0.30000000E+03</pdfrwt>
<pdfrwt beam="2">0</pdfrwt>
<totfact> 0.34948145E+04</totfact>
</mgrwt>
</event>
<event>
 6    1  0.1270461E-001  0.3000000E+03  0.7818608E-02  0.1093470E+00
         21   -1    0    0  501  502  0.00000000000E+00  0.00000000000E+00  0.38520689183E+01  0.38520689183E+01  0.00000000000E+00 0. -1.
         13   -1    0    0    0    0 -0.00000000000E+00 -0.00000000000E+00 -0.10000000000E+04  0.10000000000E+04  0.00000000000E+00 0.  1.
    9000005    2    1    2  501    0  0.17291988091E+02 -0.59070192988E+02 -0.56030249214E+03  0.56368216173E+03  0.32243134995E+01 0.  0.
         13    1    3    3    0    0  0.45909820672E+01 -0.18230587760E+02 -0.15941367137E+03  0.16051837921E+03  0.00000000000E+00 0.  1.
          1    1    3    3  501    0  0.12701006024E+02 -0.40839605228E+02 -0.40088882078E+03  0.40316378252E+03  0.00000000000E+00 0.  1.
         -1    1    1    2    0  502 -0.17291988091E+02  0.59070192988E+02 -0.43584543894E+03  0.44016990719E+03  0.00000000000E+00 0. -1.
<mgrwt>
<rscale>  1 0.30000000E+03</rscale>
<asrwt>0</asrwt>
<pdfrwt beam="1">  1       21 0.14007553E-01 0.30000000E+03</pdfrwt>
<pdfrwt beam="2">0</pdfrwt>
<totfact> 0.46720447E+03</totfact>
</mgrwt>
</event>
<event>
 6    1  0.1270461E-001  0.3000000E+03  0.7818608E-02  0.1093470E+00
         21   -1    0    0  501  502  0.00000000000E+00  0.00000000000E+00  0.12435209456E+01  0.12435209456E+01  0.00000000000E+00 0. -1.
         13   -1    0    0    0    0 -0.00000000000E+00 -0.00000000000E+00 -0.10000000000E+04  0.10000000000E+04  0.00000000000E+00 0.  1.
    9000005    2    1    2  501    0 -0.29409863801E+02  0.15759483487E+02 -0.65625520098E+03  0.65712082932E+03  0.48573763927E+01 0.  0.
         13    1    3    3    0    0 -0.42794937074E+01  0.54701068699E+00 -0.93307806181E+02  0.93407494246E+02  0.00000000000E+00 0.  1.
          3    1    3    3  501    0 -0.25130370093E+02  0.15212472800E+02 -0.56294739480E+03  0.56371333507E+03  0.00000000000E+00 0.  1.
         -1    1    1    2    0  502  0.29409863801E+02 -0.15759483487E+02 -0.34250127808E+03  0.34412269163E+03  0.00000000000E+00 0. -1.
<mgrwt>
<rscale>  1 0.30000000E+03</rscale>
<asrwt>0</asrwt>
<pdfrwt beam="1">  1       21 0.45219039E-02 0.30000000E+03</pdfrwt>
<pdfrwt beam="2">0</pdfrwt>
<totfact> 0.34175375E+04</totfact>
</mgrwt>
</event>
<event>
 6    1  0.1270461E-001  0.3000000E+03  0.7818608E-02  0.1093470E+00
         21   -1    0    0  501  502  0.00000000000E+00  0.00000000000E+00  0.22808617660E+01  0.22808617660E+01  0.00000000000E+00 0. -1.
         13   -1    0    0    0    0 -0.00000000000E+00 -0.00000000000E+00 -0.10000000000E+04  0.10000000000E+04  0.00000000000E+00 0.  1.
    9000005    2    1    2  501    0 -0.23953916314E+02 -0.40977534309E+02 -0.55264151755E+03  0.55467943543E+03  0.19185264279E+01 0.  0.
         13    1    3    3    0    0 -0.20952588020E+02 -0.34999549900E+02 -0.46859007077E+03  0.47036223686E+03  0.00000000000E+00 0.  1.
          1    1    3    3  501    0 -0.30013282941E+01 -0.59779844084E+01 -0.84051446786E+02  0.84317198577E+02  0.00000000000E+00 0.  1.
         -3    1    1    2    0  502  0.23953916314E+02  0.40977534309E+02 -0.44507762068E+03  0.44760142633E+03  0.00000000000E+00 0. -1.
<mgrwt>
<rscale>  1 0.30000000E+03</rscale>
<asrwt>0</asrwt>
<pdfrwt beam="1">  1       21 0.82940603E-02 0.30000000E+03</pdfrwt>
<pdfrwt beam="2">0</pdfrwt>
<totfact> 0.11988264E+04</totfact>
</mgrwt>
</event>
<event>
 6    1  0.1270461E-001  0.3000000E+03  0.7818608E-02  0.1093470E+00
         21   -1    0    0  501  502  0.00000000000E+00  0.00000000000E+00  0.15979333982E+01  0.15979333982E+01  0.00000000000E+00 0. -1.
         13   -1    0    0    0    0 -0.00000000000E+00 -0.00000000000E+00 -0.10000000000E+04  0.10000000000E+04  0.00000000000E+00 0.  1.
    9000005    2    1    2  501    0 -0.16594701105E+02  0.36063655391E+02 -0.55206445644E+03  0.55349835340E+03  0.30482475334E+01 0.  0.
         13    1    3    3    0    0 -0.15993550003E+02  0.33130795182E+02 -0.50424075367E+03  0.50558103296E+03  0.00000000000E+00 0.  1.
          3    1    3    3  501    0 -0.60115110165E+00  0.29328602092E+01 -0.47823702770E+02  0.47917320441E+02  0.00000000000E+00 0.  1.
         -1    1    1    2    0  502  0.16594701105E+02 -0.36063655391E+02 -0.44633761017E+03  0.44809958000E+03  0.00000000000E+00 0. -1.
<mgrwt>
<rscale>  1 0.30000000E+03</rscale>
<asrwt>0</asrwt>
<pdfrwt beam="1">  1       21 0.58106792E-02 0.30000000E+03</pdfrwt>
<pdfrwt beam="2">0</pdfrwt>
<totfact> 0.22268908E+04</totfact>
</mgrwt>
</event>
<event>
 6    1  0.1270461E-001  0.3000000E+03  0.7818608E-02  0.1093470E+00
         21   -1    0    0  501  502  0.00000000000E+00  0.00000000000E+00  0.12418177956E+01  0.12418177956E+01  0.00000000000E+00 0. -1.
         13   -1    0    0    0    0 -0.00000000000E+00 -0.00000000000E+00 -0.10000000000E+04  0.10000000000E+04  0.00000000000E+00 0.  1.
    9000005    2    1    2  501    0  0.32771773337E+02 -0.32429604714E+01 -0.67559946782E+03  0.67640946011E+03  0.32574346614E+01 0.  0.
         13    1    3    3    0    0  0.92128545373E+01 -0.64800053648E+00 -0.16137454579E+03  0.16163861117E+03  0.00000000000E+00 0.  1.
          3    1    3    3  501    0  0.23558918799E+02 -0.25949599349E+01 -0.51422492203E+03  0.51477084893E+03  0.00000000000E+00 0.  1.
         -1    1    1    2    0  502 -0.32771773337E+02  0.32429604714E+01 -0.32315871438E+03  0.32483235769E+03  0.00000000000E+00 0. -1.
<mgrwt>
<rscale>  1 0.30000000E+03</rscale>
<asrwt>0</asrwt>
<pdfrwt beam="1">  1       21 0.45157106E-02 0.30000000E+03</pdfrwt>
<pdfrwt beam="2">0</pdfrwt>
<totfact> 0.34254977E+04</totfact>
</mgrwt>
</event>
<event>
 6    1  0.1270461E-001  0.3000000E+03  0.7818608E-02  0.1093470E+00
         21   -1    0    0  501  502  0.00000000000E+00  0.00000000000E+00  0.14957391297E+01  0.14957391297E+01  0.00000000000E+00 0. -1.
         13   -1    0    0    0    0 -0.00000000000E+00 -0.00000000000E+00 -0.10000000000E+04  0.10000000000E+04  0.00000000000E+00 0.  1.
    9000005    2    1    2  501    0  0.46084007379E+01 -0.37924764683E+02 -0.42500075404E+03  0.42672117682E+03  0.24076289176E+01 0.  0.
         13    1    3    3    0    0  0.43129455270E+01 -0.26591611652E+02 -0.30170663352E+03  0.30290692963E+03  0.00000000000E+00 0.  1.
          1    1    3    3  501    0  0.29545521086E+00 -0.11333153030E+02 -0.12329412052E+03  0.12381424718E+03  0.00000000000E+00 0.  1.
         -3    1    1    2    0  502 -0.46084007379E+01  0.37924764683E+02 -0.57350350683E+03  0.57477456231E+03  0.00000000000E+00 0. -1.
<mgrwt>
<rscale>  1 0.30000000E+03</rscale>
<asrwt>0</asrwt>
<pdfrwt beam="1">  1       21 0.54390629E-02 0.30000000E+03</pdfrwt>
<pdfrwt beam="2">0</pdfrwt>
<totfact> 0.24945998E+04</totfact>
</mgrwt>
</event>
<event>
 6    1  0.1270461E-001  0.3000000E+03  0.7818608E-02  0.1093470E+00
         21   -1    0    0  501  502  0.00000000000E+00  0.00000000000E+00  0.17340098776E+01  0.17340098776E+01  0.00000000000E+00 0. -1.
         13   -1    0    0    0    0 -0.00000000000E+00 -0.00000000000E+00 -0.10000000000E+04  0.10000000000E+04  0.00000000000E+00 0.  1.
    9000005    2    1    2  501    0 -0.34706780596E+02  0.16982104418E+02 -0.31861071031E+03  0.32098130010E+03  0.48226342622E+01 0.  0.
         13    1    3    3    0    0 -0.30620090961E+02  0.16601246786E+02 -0.28372938889E+03  0.28585933164E+03  0.00000000000E+00 0.  1.
          3    1    3    3  501    0 -0.40866896347E+01  0.38085763192E+00 -0.34881321421E+02  0.35121968464E+02  0.00000000000E+00 0.  1.
         -3    1    1    2    0  502  0.34706780596E+02 -0.16982104418E+02 -0.67965527981E+03  0.68075270978E+03  0.00000000000E+00 0. -1.
<mgrwt>
<rscale>  1 0.30000000E+03</rscale>
<asrwt>0</asrwt>
<pdfrwt beam="1">  1       21 0.63055038E-02 0.30000000E+03</pdfrwt>
<pdfrwt beam="2">0</pdfrwt>
<totfact> 0.19340198E+04</totfact>
</mgrwt>
</event>
<event>
 6    1  0.1270461E-001  0.3000000E+03  0.7818608E-02  0.1093470E+00
         21   -1    0    0  501  502  0.00000000000E+00  0.00000000000E+00  0.19928345411E+01  0.19928345411E+01  0.00000000000E+00 0. -1.
         13   -1    0    0    0    0 -0.00000000000E+00 -0.00000000000E+00 -0.10000000000E+04  0.10000000000E+04  0.00000000000E+00 0.  1.
    9000005    2    1    2  501    0  0.11540180051E+02  0.35185962948E+02 -0.77827709609E+03  0.77916435537E+03  0.32598526056E+01 0.  0.
         13    1    3    3    0    0  0.65272480636E+01  0.18223295811E+02 -0.43887152231E+03  0.43929819778E+03  0.00000000000E+00 0.  1.
          1    1    3    3  501    0  0.50129319870E+01  0.16962667137E+02 -0.33940557378E+03  0.33986615759E+03  0.00000000000E+00 0.  1.
         -1    1    1    2    0  502 -0.11540180051E+02 -0.35185962948E+02 -0.21973006937E+03  0.22282847917E+03  0.00000000000E+00 0. -1.
<mgrwt>
<rscale>  1 0.30000000E+03</rscale>
<asrwt>0</asrwt>
<pdfrwt beam="1">  1       21 0.72466863E-02 0.30000000E+03</pdfrwt>
<pdfrwt beam="2">0</pdfrwt>
<totfact> 0.15190119E+04</totfact>
</mgrwt>
</event>
<event>
 6    1  0.1270461E-001  0.3000000E+03  0.7818608E-02  0.1093470E+00
         21   -1    0    0  501  502  0.00000000000E+00  0.00000000000E+00  0.24966991413E+01  0.24966991413E+01  0.00000000000E+00 0. -1.
         13   -1    0    0    0    0 -0.00000000000E+00 -0.00000000000E+00 -0.10000000000E+04  0.10000000000E+04  0.00000000000E+00 0.  1.
    9000005    2    1    2  501    0 -0.30538225064E+02 -0.22820178395E+02 -0.82249895942E+03  0.82338817547E+03  0.31946067405E+01 0.  0.
         13    1    3    3    0    0 -0.16054994579E+01 -0.45073966848E+00 -0.31175597705E+02  0.31220164750E+02  0.00000000000E+00 0.  1.
          1    1    3    3  501    0 -0.28932725606E+02 -0.22369438727E+02 -0.79132336172E+03  0.79216801071E+03  0.00000000000E+00 0.  1.
         -1    1    1    2    0  502  0.30538225064E+02  0.22820178395E+02 -0.17500434144E+03  0.17910852368E+03  0.00000000000E+00 0. -1.
<mgrwt>
<rscale>  1 0.30000000E+03</rscale>
<asrwt>0</asrwt>
<pdfrwt beam="1">  1       21 0.90789251E-02 0.30000000E+03</pdfrwt>
<pdfrwt beam="2">0</pdfrwt>
<totfact> 0.10218725E+04</totfact>
</mgrwt>
</event>
<event>
 6    1  0.1270461E-001  0.3000000E+03  0.7818608E-02  0.1093470E+00
         21   -1    0    0  501  502  0.00000000000E+00  0.00000000000E+00  0.16302846461E+01  0.16302846461E+01  0.00000000000E+00 0. -1.
         13   -1    0    0    0    0 -0.00000000000E+00 -0.00000000000E+00 -0.10000000000E+04  0.10000000000E+04  0.00000000000E+00 0.  1.
    9000005    2    1    2  501    0 -0.25206219444E+02 -0.24145727864E+02 -0.75001334124E+03  0.75083303938E+03  0.34454761120E+01 0.  0.
         13    1    3    3    0    0 -0.20191894121E+02 -0.17339042103E+02 -0.57488060010E+03  0.57549635910E+03  0.00000000000E+00 0.  1.
          1    1    3    3  501    0 -0.50143253231E+01 -0.68066857613E+01 -0.17513274114E+03  0.17533668028E+03  0.00000000000E+00 0.  1.
         -3    1    1    2    0  502  0.25206219444E+02  0.24145727864E+02 -0.24835637411E+03  0.25079724527E+03  0.00000000000E+00 0. -1.
<mgrwt>
<rscale>  1 0.30000000E+03</rscale>
<asrwt>0</asrwt>
<pdfrwt beam="1">  1       21 0.59283203E-02 0.30000000E+03</pdfrwt>
<pdfrwt beam="2">0</pdfrwt>
<totfact> 0.21512886E+04</totfact>
</mgrwt>
</event>
<event>
 6    1  0.1270461E-001  0.3000000E+03  0.7818608E-02  0.1093470E+00
         21   -1    0    0  501  502  0.00000000000E+00  0.00000000000E+00  0.10716067680E+01  0.10716067680E+01  0.00000000000E+00 0. -1.
         13   -1    0    0    0    0 -0.00000000000E+00 -0.00000000000E+00 -0.10000000000E+04  0.10000000000E+04  0.00000000000E+00 0.  1.
    9000005    2    1    2  501    0 -0.32571260701E+02  0.17397215181E+00 -0.49077387371E+03  0.49187426487E+03  0.45144247395E+01 0.  0.
         13    1    3    3    0    0 -0.17823997272E+02 -0.64888108788E+00 -0.23635027511E+03  0.23702229530E+03  0.00000000000E+00 0.  1.
          3    1    3    3  501    0 -0.14747263429E+02  0.82285323969E+00 -0.25442359860E+03  0.25485196956E+03  0.00000000000E+00 0.  1.
         -3    1    1    2    0  502  0.32571260701E+02 -0.17397215181E+00 -0.50815451952E+03  0.50919734190E+03  0.00000000000E+00 0. -1.
<mgrwt>
<rscale>  1 0.30000000E+03</rscale>
<asrwt>0</asrwt>
<pdfrwt beam="1">  1       21 0.38967601E-02 0.30000000E+03</pdfrwt>
<pdfrwt beam="2">0</pdfrwt>
<totfact> 0.43939046E+04</totfact>
</mgrwt>
</event>
<event>
 6    1  0.1270461E-001  0.3000000E+03  0.7818608E-02  0.1093470E+00
         21   -1    0    0  501  502  0.00000000000E+00  0.00000000000E+00  0.12485356978E+01  0.12485356978E+01  0.00000000000E+00 0. -1.
         13   -1    0    0    0    0 -0.00000000000E+00 -0.00000000000E+00 -0.10000000000E+04  0.10000000000E+04  0.00000000000E+00 0.  1.
    9000005    2    1    2  501    0  0.19355827359E+02 -0.24788692379E+02 -0.72593020082E+03  0.72662047972E+03  0.36793697890E+01 0.  0.
         13    1    3    3    0    0  0.19270824418E+02 -0.24820788193E+02 -0.72552661879E+03  0.72620679615E+03  0.00000000000E+00 0.  1.
          1    1    3    3  501    0  0.85002941032E-01  0.32095814003E-01 -0.40358203494E+00  0.41368357496E+00  0.00000000000E+00 0.  1.
         -3    1    1    2    0  502 -0.19355827359E+02  0.24788692379E+02 -0.27282126348E+03  0.27462805598E+03  0.00000000000E+00 0. -1.
<mgrwt>
<rscale>  1 0.30000000E+03</rscale>
<asrwt>0</asrwt>
<pdfrwt beam="1">  1       21 0.45401394E-02 0.30000000E+03</pdfrwt>
<pdfrwt beam="2">0</pdfrwt>
<totfact> 0.33942646E+04</totfact>
</mgrwt>
</event>
<event>
 6    1  0.1270461E-001  0.3000000E+03  0.7818608E-02  0.1093470E+00
         21   -1    0    0  501  502  0.00000000000E+00  0.00000000000E+00  0.33625332067E+01  0.33625332067E+01  0.00000000000E+00 0. -1.
         13   -1    0    0    0    0 -0.00000000000E+00 -0.00000000000E+00 -0.10000000000E+04  0.10000000000E+04  0.00000000000E+00 0.  1.
    9000005    2    1    2  501    0 -0.37913490833E+02 -0.19609205362E+02 -0.83772290592E+03  0.83881530175E+03  0.30805238635E+01 0.  0.
         13    1    3    3    0    0 -0.12451577490E+02 -0.71367334016E+01 -0.30793936416E+03  0.30827362318E+03  0.00000000000E+00 0.  1.
          3    1    3    3  501    0 -0.25461913343E+02 -0.12472471960E+02 -0.52978354175E+03  0.53054167857E+03  0.00000000000E+00 0.  1.
         -3    1    1    2    0  502  0.37913490833E+02  0.19609205362E+02 -0.15891456088E+03  0.16454723146E+03  0.00000000000E+00 0. -1.
<mgrwt>
<rscale>  1 0.30000000E+03</rscale>
<asrwt>0</asrwt>
<pdfrwt beam="1">  1       21 0.12227419E-01 0.30000000E+03</pdfrwt>
<pdfrwt beam="2">0</pdfrwt>
<totfact> 0.59892893E+03</totfact>
</mgrwt>
</event>
<event>
 6    1  0.1270461E-001  0.3000000E+03  0.7818608E-02  0.1093470E+00
         21   -1    0    0  501  502  0.00000000000E+00  0.00000000000E+00  0.29861286850E+02  0.29861286850E+02  0.00000000000E+00 0. -1.
         13   -1    0    0    0    0 -0.00000000000E+00 -0.00000000000E+00 -0.10000000000E+04  0.10000000000E+04  0.00000000000E+00 0.  1.
    9000005    2    1    2  501    0 -0.11984491570E+03  0.65755745678E+02 -0.80003803129E+03  0.81163923509E+03  0.32824546410E+01 0.  0.
         13    1    3    3    0    0 -0.29232205649E+02  0.14530897193E+02 -0.19373734960E+03  0.19646839300E+03  0.00000000000E+00 0.  1.
          1    1    3    3  501    0 -0.90612710047E+02  0.51224848485E+02 -0.60630068170E+03  0.61517084208E+03  0.00000000000E+00 0.  1.
         -1    1    1    2    0  502  0.11984491570E+03 -0.65755745678E+02 -0.17010068186E+03  0.21822205176E+03  0.00000000000E+00 0. -1.
<mgrwt>
<rscale>  1 0.30000000E+03</rscale>
<asrwt>0</asrwt>
<pdfrwt beam="1">  1       21 0.10858673E+00 0.30000000E+03</pdfrwt>
<pdfrwt beam="2">0</pdfrwt>
<totfact> 0.59435284E+01</totfact>
</mgrwt>
</event>
<event>
 6    1  0.1270461E-001  0.3000000E+03  0.7818608E-02  0.1093470E+00
         21   -1    0    0  501  502  0.00000000000E+00  0.00000000000E+00  0.19181872653E+01  0.19181872653E+01  0.00000000000E+00 0. -1.
         13   -1    0    0    0    0 -0.00000000000E+00 -0.00000000000E+00 -0.10000000000E+04  0.10000000000E+04  0.00000000000E+00 0.  1.
    9000005    2    1    2  501    0  0.30045025690E+02  0.31701218557E+02 -0.52124856185E+03  0.52308876046E+03  0.37572943538E+01 0.  0.
         13    1    3    3    0    0  0.17161788559E+02  0.20759092368E+02 -0.31871107579E+03  0.31984717716E+03  0.00000000000E+00 0.  1.
          1    1    3    3  501    0  0.12883237131E+02  0.10942126189E+02 -0.20253748606E+03  0.20324158330E+03  0.00000000000E+00 0.  1.
         -3    1    1    2    0  502 -0.30045025690E+02 -0.31701218557E+02 -0.47683325089E+03  0.47882942681E+03  0.00000000000E+00 0. -1.
<mgrwt>
<rscale>  1 0.30000000E+03</rscale>
<asrwt>0</asrwt>
<pdfrwt beam="1">  1       21 0.69752411E-02 0.30000000E+03</pdfrwt>
<pdfrwt beam="2">0</pdfrwt>
<totfact> 0.16235077E+04</totfact>
</mgrwt>
</event>
<event>
 6    1  0.1270461E-001  0.3000000E+03  0.7818608E-02  0.1093470E+00
         21   -1    0    0  501  502  0.00000000000E+00  0.00000000000E+00  0.94925505533E+00  0.94925505533E+00  0.00000000000E+00 0. -1.
         13   -1    0    0    0    0 -0.00000000000E+00 -0.00000000000E+00 -0.10000000000E+04  0.10000000000E+04  0.00000000000E+00 0.  1.
    9000005    2    1    2  501    0 -0.30253964018E+02  0.72628322189E+00 -0.58600411599E+03  0.58679548226E+03  0.35048855223E+01 0.  0.
         13    1    3    3    0    0 -0.23289453597E+02 -0.39690580501E+00 -0.47036791440E+03  0.47094429722E+03  0.00000000000E+00 0.  1.
          1    1    3    3  501    0 -0.69645104219E+01  0.11231890269E+01 -0.11563620159E+03  0.11585118505E+03  0.00000000000E+00 0.  1.
         -3    1    1    2    0  502  0.30253964018E+02 -0.72628322189E+00 -0.41304662896E+03  0.41415377279E+03  0.00000000000E+00 0. -1.
<mgrwt>
<rscale>  1 0.30000000E+03</rscale>
<asrwt>0</asrwt>
<pdfrwt beam="1">  1       21 0.34518438E-02 0.30000000E+03</pdfrwt>
<pdfrwt beam="2">0</pdfrwt>
<totfact> 0.53851102E+04</totfact>
</mgrwt>
</event>
<event>
 6    1  0.1270461E-001  0.3000000E+03  0.7818608E-02  0.1093470E+00
         21   -1    0    0  501  502  0.00000000000E+00  0.00000000000E+00  0.14330808658E+01  0.14330808658E+01  0.00000000000E+00 0. -1.
         13   -1    0    0    0    0 -0.00000000000E+00 -0.00000000000E+00 -0.10000000000E+04  0.10000000000E+04  0.00000000000E+00 0.  1.
    9000005    2    1    2  501    0 -0.96395427298E+01 -0.34824131258E+02 -0.64678483043E+03  0.64780010894E+03  0.29535339349E+01 0.  0.
         13    1    3    3    0    0 -0.15072072250E+01 -0.34124903863E+01 -0.80599664204E+02  0.80685950661E+02  0.00000000000E+00 0.  1.
          1    1    3    3  501    0 -0.81323355048E+01 -0.31411640872E+02 -0.56618516623E+03  0.56711415828E+03  0.00000000000E+00 0.  1.
         -1    1    1    2    0  502  0.96395427298E+01  0.34824131258E+02 -0.35178208870E+03  0.35363297193E+03  0.00000000000E+00 0. -1.
<mgrwt>
<rscale>  1 0.30000000E+03</rscale>
<asrwt>0</asrwt>
<pdfrwt beam="1">  1       21 0.52112141E-02 0.30000000E+03</pdfrwt>
<pdfrwt beam="2">0</pdfrwt>
<totfact> 0.26840916E+04</totfact>
</mgrwt>
</event>
<event>
 6    1  0.1270461E-001  0.3000000E+03  0.7818608E-02  0.1093470E+00
         21   -1    0    0  501  502  0.00000000000E+00  0.00000000000E+00  0.27388704110E+01  0.27388704110E+01  0.00000000000E+00 0. -1.
         13   -1    0    0    0    0 -0.00000000000E+00 -0.00000000000E+00 -0.10000000000E+04  0.10000000000E+04  0.00000000000E+00 0.  1.
    9000005    2    1    2  501    0 -0.23753641674E+02 -0.39962547655E+02 -0.72422760451E+03  0.72577579250E+03  0.91453343046E+01 0.  0.
         13    1    3    3    0    0 -0.16843398999E+02 -0.34038610739E+02 -0.54906835861E+03  0.55038022270E+03  0.00000000000E+00 0.  1.
          3    1    3    3  501    0 -0.69102426752E+01 -0.59239369155E+01 -0.17515924589E+03  0.17539556979E+03  0.00000000000E+00 0.  1.
         -1    1    1    2    0  502  0.23753641674E+02  0.39962547655E+02 -0.27303352508E+03  0.27696307791E+03  0.00000000000E+00 0. -1.
<mgrwt>
<rscale>  1 0.30000000E+03</rscale>
<asrwt>0</asrwt>
<pdfrwt beam="1">  1       21 0.99595498E-02 0.30000000E+03</pdfrwt>
<pdfrwt beam="2">0</pdfrwt>
<totfact> 0.86657245E+03</totfact>
</mgrwt>
</event>
<event>
 6    1  0.1270461E-001  0.3000000E+03  0.7818608E-02  0.1093470E+00
         21   -1    0    0  501  502  0.00000000000E+00  0.00000000000E+00  0.19774853185E+01  0.19774853185E+01  0.00000000000E+00 0. -1.
         13   -1    0    0    0    0 -0.00000000000E+00 -0.00000000000E+00 -0.10000000000E+04  0.10000000000E+04  0.00000000000E+00 0.  1.
    9000005    2    1    2  501    0  0.32045026682E+01  0.43414529027E+02 -0.58066227973E+03  0.58235306290E+03  0.84449158948E+01 0.  0.
         13    1    3    3    0    0  0.37210363379E+01  0.82425507853E+01 -0.13736093546E+03  0.13765831739E+03  0.00000000000E+00 0.  1.
          1    1    3    3  501    0 -0.51653366972E+00  0.35171978241E+02 -0.44330134427E+03  0.44469474551E+03  0.00000000000E+00 0.  1.
         -3    1    1    2    0  502 -0.32045026682E+01 -0.43414529027E+02 -0.41736023495E+03  0.41962442241E+03  0.00000000000E+00 0. -1.
<mgrwt>
<rscale>  1 0.30000000E+03</rscale>
<asrwt>0</asrwt>
<pdfrwt beam="1">  1       21 0.71908709E-02 0.30000000E+03</pdfrwt>
<pdfrwt beam="2">0</pdfrwt>
<totfact> 0.15396452E+04</totfact>
</mgrwt>
</event>
<event>
 6    1  0.1270461E-001  0.3000000E+03  0.7818608E-02  0.1093470E+00
         21   -1    0    0  501  502  0.00000000000E+00  0.00000000000E+00  0.20276800669E+01  0.20276800669E+01  0.00000000000E+00 0. -1.
         13   -1    0    0    0    0 -0.00000000000E+00 -0.00000000000E+00 -0.10000000000E+04  0.10000000000E+04  0.00000000000E+00 0.  1.
    9000005    2    1    2  501    0  0.67511379027E+01 -0.42931299138E+02 -0.62897648159E+03  0.63048144738E+03  0.26013053400E+01 0.  0.
         13    1    3    3    0    0  0.51853518721E+01 -0.26319871077E+02 -0.39825039412E+03  0.39915285281E+03  0.00000000000E+00 0.  1.
          1    1    3    3  501    0  0.15657860306E+01 -0.16611428061E+02 -0.23072608747E+03  0.23132859457E+03  0.00000000000E+00 0.  1.
         -3    1    1    2    0  502 -0.67511379027E+01  0.42931299138E+02 -0.36899583834E+03  0.37154623268E+03  0.00000000000E+00 0. -1.
<mgrwt>
<rscale>  1 0.30000000E+03</rscale>
<asrwt>0</asrwt>
<pdfrwt beam="1">  1       21 0.73733976E-02 0.30000000E+03</pdfrwt>
<pdfrwt beam="2">0</pdfrwt>
<totfact> 0.14737010E+04</totfact>
</mgrwt>
</event>
<event>
 6    1  0.1270461E-001  0.3000000E+03  0.7818608E-02  0.1093470E+00
         21   -1    0    0  501  502  0.00000000000E+00  0.00000000000E+00  0.11500687046E+01  0.11500687046E+01  0.00000000000E+00 0. -1.
         13   -1    0    0    0    0 -0.00000000000E+00 -0.00000000000E+00 -0.10000000000E+04  0.10000000000E+04  0.00000000000E+00 0.  1.
    9000005    2    1    2  501    0 -0.24338466789E+02 -0.20543024565E+02 -0.66872594591E+03  0.66949328444E+03  0.35341688184E+01 0.  0.
         13    1    3    3    0    0 -0.17946009915E+02 -0.16042713619E+02 -0.47472235322E+03  0.47533224231E+03  0.00000000000E+00 0.  1.
          1    1    3    3  501    0 -0.63924568738E+01 -0.45003109467E+01 -0.19400359269E+03  0.19416104213E+03  0.00000000000E+00 0.  1.
         -1    1    1    2    0  502  0.24338466789E+02  0.20543024565E+02 -0.33012398538E+03  0.33165678426E+03  0.00000000000E+00 0. -1.
<mgrwt>
<rscale>  1 0.30000000E+03</rscale>
<asrwt>0</asrwt>
<pdfrwt beam="1">  1       21 0.41820768E-02 0.30000000E+03</pdfrwt>
<pdfrwt beam="2">0</pdfrwt>
<totfact> 0.39007098E+04</totfact>
</mgrwt>
</event>
<event>
 6    1  0.1270461E-001  0.3000000E+03  0.7818608E-02  0.1093470E+00
         21   -1    0    0  501  502  0.00000000000E+00  0.00000000000E+00  0.13352633244E+01  0.13352633244E+01  0.00000000000E+00 0. -1.
         13   -1    0    0    0    0 -0.00000000000E+00 -0.00000000000E+00 -0.10000000000E+04  0.10000000000E+04  0.00000000000E+00 0.  1.
    9000005    2    1    2  501    0  0.10486155534E+02 -0.34124898240E+02 -0.39798944910E+03  0.39960004810E+03  0.31825631747E+01 0.  0.
         13    1    3    3    0    0  0.96508980069E+01 -0.27155055076E+02 -0.31813638728E+03  0.31943903606E+03  0.00000000000E+00 0.  1.
          1    1    3    3  501    0  0.83525752735E+00 -0.69698431640E+01 -0.79853061817E+02  0.80161012035E+02  0.00000000000E+00 0.  1.
         -1    1    1    2    0  502 -0.10486155534E+02  0.34124898240E+02 -0.60067528758E+03  0.60173521523E+03  0.00000000000E+00 0. -1.
<mgrwt>
<rscale>  1 0.30000000E+03</rscale>
<asrwt>0</asrwt>
<pdfrwt beam="1">  1       21 0.48555132E-02 0.30000000E+03</pdfrwt>
<pdfrwt beam="2">0</pdfrwt>
<totfact> 0.30280086E+04</totfact>
</mgrwt>
</event>
<event>
 6    1  0.1270461E-001  0.3000000E+03  0.7818608E-02  0.1093470E+00
         21   -1    0    0  501  502  0.00000000000E+00  0.00000000000E+00  0.36004958123E+01  0.36004958123E+01  0.00000000000E+00 0. -1.
         13   -1    0    0    0    0 -0.00000000000E+00 -0.00000000000E+00 -0.10000000000E+04  0.10000000000E+04  0.00000000000E+00 0.  1.
    9000005    2    1    2  501    0 -0.25768170898E+02 -0.40174174972E+02 -0.80210572408E+03  0.80353041820E+03  0.30947390070E+01 0.  0.
         13    1    3    3    0    0 -0.22827108400E+02 -0.34092000111E+02 -0.67619062924E+03  0.67743420967E+03  0.00000000000E+00 0.  1.
          3    1    3    3  501    0 -0.29410624986E+01 -0.60821748610E+01 -0.12591509483E+03  0.12609620853E+03  0.00000000000E+00 0.  1.
         -1    1    1    2    0  502  0.25768170898E+02  0.40174174972E+02 -0.19429378011E+03  0.20007007761E+03  0.00000000000E+00 0. -1.
<mgrwt>
<rscale>  1 0.30000000E+03</rscale>
<asrwt>0</asrwt>
<pdfrwt beam="1">  1       21 0.13092740E-01 0.30000000E+03</pdfrwt>
<pdfrwt beam="2">0</pdfrwt>
<totfact> 0.52874223E+03</totfact>
</mgrwt>
</event>
<event>
 6    1  0.1270461E-001  0.3000000E+03  0.7818608E-02  0.1093470E+00
         21   -1    0    0  501  502  0.00000000000E+00  0.00000000000E+00  0.57153087249E+01  0.57153087249E+01  0.00000000000E+00 0. -1.
         13   -1    0    0    0    0 -0.00000000000E+00 -0.00000000000E+00 -0.10000000000E+04  0.10000000000E+04  0.00000000000E+00 0.  1.
    9000005    2    1    2  501    0 -0.45967372140E+01  0.31140732146E+02 -0.95431784629E+03  0.95484071890E+03  0.27150567846E+01 0.  0.
         13    1    3    3    0    0 -0.36863480572E+01  0.29402467669E+02 -0.89433266496E+03  0.89482345179E+03  0.00000000000E+00 0.  1.
          1    1    3    3  501    0 -0.91038915674E+00  0.17382644773E+01 -0.59985181332E+02  0.60017267110E+02  0.00000000000E+00 0.  1.
         -1    1    1    2    0  502  0.45967372140E+01 -0.31140732146E+02 -0.39966844984E+02  0.50874589822E+02  0.00000000000E+00 0. -1.
<mgrwt>
<rscale>  1 0.30000000E+03</rscale>
<asrwt>0</asrwt>
<pdfrwt beam="1">  1       21 0.20782985E-01 0.30000000E+03</pdfrwt>
<pdfrwt beam="2">0</pdfrwt>
<totfact> 0.22293556E+03</totfact>
</mgrwt>
</event>
<event>
 6    1  0.1270461E-001  0.3000000E+03  0.7818608E-02  0.1093470E+00
         21   -1    0    0  501  502  0.00000000000E+00  0.00000000000E+00  0.15542048255E+01  0.15542048255E+01  0.00000000000E+00 0. -1.
         13   -1    0    0    0    0 -0.00000000000E+00 -0.00000000000E+00 -0.10000000000E+04  0.10000000000E+04  0.00000000000E+00 0.  1.
    9000005    2    1    2  501    0  0.31694406427E+02 -0.65554482179E+01 -0.78449392648E+03  0.78516818074E+03  0.32927295901E+01 0.  0.
         13    1    3    3    0    0  0.15551777333E+02 -0.48932862359E+01 -0.39023820839E+03  0.39057862373E+03  0.00000000000E+00 0.  1.
          3    1    3    3  501    0  0.16142629095E+02 -0.16621619819E+01 -0.39425571808E+03  0.39458955701E+03  0.00000000000E+00 0.  1.
         -1    1    1    2    0  502 -0.31694406427E+02  0.65554482179E+01 -0.21395186870E+03  0.21638602409E+03  0.00000000000E+00 0. -1.
<mgrwt>
<rscale>  1 0.30000000E+03</rscale>
<asrwt>0</asrwt>
<pdfrwt beam="1">  1       21 0.56516658E-02 0.30000000E+03</pdfrwt>
<pdfrwt beam="2">0</pdfrwt>
<totfact> 0.23357680E+04</totfact>
</mgrwt>
</event>
<event>
 6    1  0.1270461E-001  0.3000000E+03  0.7818608E-02  0.1093470E+00
         21   -1    0    0  501  502  0.00000000000E+00  0.00000000000E+00  0.12107769591E+02  0.12107769591E+02  0.00000000000E+00 0. -1.
         13   -1    0    0    0    0 -0.00000000000E+00 -0.00000000000E+00 -0.10000000000E+04  0.10000000000E+04  0.00000000000E+00 0.  1.
    9000005    2    1    2  501    0  0.32251579232E+02 -0.51071634675E+02 -0.91691170704E+03  0.91890524318E+03  0.33602395820E+01 0.  0.
         13    1    3    3    0    0  0.93008870797E+01 -0.16676243567E+02 -0.30765120867E+03  0.30824319911E+03  0.00000000000E+00 0.  1.
          3    1    3    3  501    0  0.22950692153E+02 -0.34395391107E+02 -0.60926049837E+03  0.61066204407E+03  0.00000000000E+00 0.  1.
         -3    1    1    2    0  502 -0.32251579232E+02  0.51071634675E+02 -0.70980523370E+02  0.93202526410E+02  0.00000000000E+00 0. -1.
<mgrwt>
<rscale>  1 0.30000000E+03</rscale>
<asrwt>0</asrwt>
<pdfrwt beam="1">  1       21 0.44028346E-01 0.30000000E+03</pdfrwt>
<pdfrwt beam="2">0</pdfrwt>
<totfact> 0.49346182E+02</totfact>
</mgrwt>
</event>
<event>
 6    1  0.1270461E-001  0.3000000E+03  0.7818608E-02  0.1093470E+00
         21   -1    0    0  501  502  0.00000000000E+00  0.00000000000E+00  0.50977345345E+01  0.50977345345E+01  0.00000000000E+00 0. -1.
         13   -1    0    0    0    0 -0.00000000000E+00 -0.00000000000E+00 -0.10000000000E+04  0.10000000000E+04  0.00000000000E+00 0.  1.
    9000005    2    1    2  501    0  0.18236083831E+02 -0.56843014166E+02 -0.77294770594E+03  0.77525537659E+03  0.30099493424E+01 0.  0.
         13    1    3    3    0    0  0.54694826555E+01 -0.16744531079E+02 -0.21071006172E+03  0.21144508666E+03  0.00000000000E+00 0.  1.
          3    1    3    3  501    0  0.12766601176E+02 -0.40098483087E+02 -0.56223764422E+03  0.56381028993E+03  0.00000000000E+00 0.  1.
         -1    1    1    2    0  502 -0.18236083831E+02  0.56843014166E+02 -0.22195455952E+03  0.22984235795E+03  0.00000000000E+00 0. -1.
<mgrwt>
<rscale>  1 0.30000000E+03</rscale>
<asrwt>0</asrwt>
<pdfrwt beam="1">  1       21 0.18537256E-01 0.30000000E+03</pdfrwt>
<pdfrwt beam="2">0</pdfrwt>
<totfact> 0.27714390E+03</totfact>
</mgrwt>
</event>
<event>
 6    1  0.1270461E-001  0.3000000E+03  0.7818608E-02  0.1093470E+00
         21   -1    0    0  501  502  0.00000000000E+00  0.00000000000E+00  0.37263505439E+01  0.37263505439E+01  0.00000000000E+00 0. -1.
         13   -1    0    0    0    0 -0.00000000000E+00 -0.00000000000E+00 -0.10000000000E+04  0.10000000000E+04  0.00000000000E+00 0.  1.
    9000005    2    1    2  501    0  0.13822479459E+02  0.35795960624E+02 -0.88828670927E+03  0.88912447016E+03  0.40784613923E+01 0.  0.
         13    1    3    3    0    0  0.13095013629E+02  0.31131861828E+02 -0.75733931801E+03  0.75809202265E+03  0.00000000000E+00 0.  1.
          3    1    3    3  501    0  0.72746583006E+00  0.46640987955E+01 -0.13094739125E+03  0.13103244751E+03  0.00000000000E+00 0.  1.
         -1    1    1    2    0  502 -0.13822479459E+02 -0.35795960624E+02 -0.10798694019E+03  0.11460188038E+03  0.00000000000E+00 0. -1.
<mgrwt>
<rscale>  1 0.30000000E+03</rscale>
<asrwt>0</asrwt>
<pdfrwt beam="1">  1       21 0.13550394E-01 0.30000000E+03</pdfrwt>
<pdfrwt beam="2">0</pdfrwt>
<totfact> 0.49652973E+03</totfact>
</mgrwt>
</event>
<event>
 6    1  0.1270461E-001  0.3000000E+03  0.7818608E-02  0.1093470E+00
         21   -1    0    0  501  502  0.00000000000E+00  0.00000000000E+00  0.14907985074E+01  0.14907985074E+01  0.00000000000E+00 0. -1.
         13   -1    0    0    0    0 -0.00000000000E+00 -0.00000000000E+00 -0.10000000000E+04  0.10000000000E+04  0.00000000000E+00 0.  1.
    9000005    2    1    2  501    0  0.27082426469E+02  0.13525457192E+02 -0.80935173169E+03  0.80992633365E+03  0.37476028589E+01 0.  0.
         13    1    3    3    0    0  0.49593991965E+01  0.26963010173E+01 -0.19325054820E+03  0.19333297716E+03  0.00000000000E+00 0.  1.
          1    1    3    3  501    0  0.22123027273E+02  0.10829156174E+02 -0.61610118350E+03  0.61659335649E+03  0.00000000000E+00 0.  1.
         -3    1    1    2    0  502 -0.27082426469E+02 -0.13525457192E+02 -0.18915746980E+03  0.19156446486E+03  0.00000000000E+00 0. -1.
<mgrwt>
<rscale>  1 0.30000000E+03</rscale>
<asrwt>0</asrwt>
<pdfrwt beam="1">  1       21 0.54210969E-02 0.30000000E+03</pdfrwt>
<pdfrwt beam="2">0</pdfrwt>
<totfact> 0.25087792E+04</totfact>
</mgrwt>
</event>
<event>
 6    1  0.1270461E-001  0.3000000E+03  0.7818608E-02  0.1093470E+00
         21   -1    0    0  501  502  0.00000000000E+00  0.00000000000E+00  0.10263992095E+01  0.10263992095E+01  0.00000000000E+00 0. -1.
         13   -1    0    0    0    0 -0.00000000000E+00 -0.00000000000E+00 -0.10000000000E+04  0.10000000000E+04  0.00000000000E+00 0.  1.
    9000005    2    1    2  501    0  0.16936688133E+02 -0.26669774590E+02 -0.42276871210E+03  0.42395603779E+03  0.26851003151E+01 0.  0.
         13    1    3    3    0    0  0.14998769056E+02 -0.24377802662E+02 -0.39078854796E+03  0.39183533474E+03  0.00000000000E+00 0.  1.
          1    1    3    3  501    0  0.19379190774E+01 -0.22919719279E+01 -0.31980164140E+02  0.32120703045E+02  0.00000000000E+00 0.  1.
         -1    1    1    2    0  502 -0.16936688133E+02  0.26669774590E+02 -0.57620488869E+03  0.57707036142E+03  0.00000000000E+00 0. -1.
<mgrwt>
<rscale>  1 0.30000000E+03</rscale>
<asrwt>0</asrwt>
<pdfrwt beam="1">  1       21 0.37323686E-02 0.30000000E+03</pdfrwt>
<pdfrwt beam="2">0</pdfrwt>
<totfact> 0.47239624E+04</totfact>
</mgrwt>
</event>
<event>
 6    1  0.1270461E-001  0.3000000E+03  0.7818608E-02  0.1093470E+00
         21   -1    0    0  501  502  0.00000000000E+00  0.00000000000E+00  0.37293794546E+01  0.37293794546E+01  0.00000000000E+00 0. -1.
         13   -1    0    0    0    0 -0.00000000000E+00 -0.00000000000E+00 -0.10000000000E+04  0.10000000000E+04  0.00000000000E+00 0.  1.
    9000005    2    1    2  501    0 -0.29052448915E+02  0.53387071070E+02 -0.53160164288E+03  0.53510214705E+03  0.63068946903E+01 0.  0.
         13    1    3    3    0    0 -0.15597052794E+02  0.32970688168E+02 -0.33812740249E+03  0.34008892168E+03  0.00000000000E+00 0.  1.
          1    1    3    3  501    0 -0.13455396121E+02  0.20416382902E+02 -0.19347424039E+03  0.19501322537E+03  0.00000000000E+00 0.  1.
         -1    1    1    2    0  502  0.29052448915E+02 -0.53387071070E+02 -0.46466897766E+03  0.46862723240E+03  0.00000000000E+00 0. -1.
<mgrwt>
<rscale>  1 0.30000000E+03</rscale>
<asrwt>0</asrwt>
<pdfrwt beam="1">  1       21 0.13561408E-01 0.30000000E+03</pdfrwt>
<pdfrwt beam="2">0</pdfrwt>
<totfact> 0.49579116E+03</totfact>
</mgrwt>
</event>
<event>
 6    1  0.1270461E-001  0.3000000E+03  0.7818608E-02  0.1093470E+00
         21   -1    0    0  501  502  0.00000000000E+00  0.00000000000E+00  0.22586671972E+01  0.22586671972E+01  0.00000000000E+00 0. -1.
         13   -1    0    0    0    0 -0.00000000000E+00 -0.00000000000E+00 -0.10000000000E+04  0.10000000000E+04  0.00000000000E+00 0.  1.
    9000005    2    1    2  501    0 -0.25323883278E+02 -0.35520631919E+02 -0.30215817499E+03  0.30530892454E+03  0.33109416656E+01 0.  0.
         13    1    3    3    0    0 -0.18838648097E+02 -0.26839269713E+02 -0.23653407709E+03  0.23879616975E+03  0.00000000000E+00 0.  1.
          3    1    3    3  501    0 -0.64852351813E+01 -0.86813622062E+01 -0.65624097899E+02  0.66512754793E+02  0.00000000000E+00 0.  1.
         -1    1    1    2    0  502  0.25323883278E+02  0.35520631919E+02 -0.69558315781E+03  0.69694974265E+03  0.00000000000E+00 0. -1.
<mgrwt>
<rscale>  1 0.30000000E+03</rscale>
<asrwt>0</asrwt>
<pdfrwt beam="1">  1       21 0.82133526E-02 0.30000000E+03</pdfrwt>
<pdfrwt beam="2">0</pdfrwt>
<totfact> 0.12196344E+04</totfact>
</mgrwt>
</event>
<event>
 6    1  0.1270461E-001  0.3000000E+03  0.7818608E-02  0.1093470E+00
         21   -1    0    0  501  502  0.00000000000E+00  0.00000000000E+00  0.30952475056E+01  0.30952475056E+01  0.00000000000E+00 0. -1.
         13   -1    0    0    0    0 -0.00000000000E+00 -0.00000000000E+00 -0.10000000000E+04  0.10000000000E+04  0.00000000000E+00 0.  1.
    9000005    2    1    2  501    0  0.23157105795E+02 -0.38564673913E+02 -0.79328280264E+03  0.79456375327E+03  0.32353414025E+01 0.  0.
         13    1    3    3    0    0  0.12177843312E+02 -0.19338672648E+02 -0.37571473695E+03  0.37640914932E+03  0.00000000000E+00 0.  1.
          3    1    3    3  501    0  0.10979262483E+02 -0.19226001265E+02 -0.41756806568E+03  0.41815460395E+03  0.00000000000E+00 0.  1.
         -3    1    1    2    0  502 -0.23157105795E+02  0.38564673913E+02 -0.20362194986E+03  0.20853149423E+03  0.00000000000E+00 0. -1.
<mgrwt>
<rscale>  1 0.30000000E+03</rscale>
<asrwt>0</asrwt>
<pdfrwt beam="1">  1       21 0.11255469E-01 0.30000000E+03</pdfrwt>
<pdfrwt beam="2">0</pdfrwt>
<totfact> 0.69582818E+03</totfact>
</mgrwt>
</event>
<event>
 6    1  0.1270461E-001  0.3000000E+03  0.7818608E-02  0.1093470E+00
         21   -1    0    0  501  502  0.00000000000E+00  0.00000000000E+00  0.13984277984E+01  0.13984277984E+01  0.00000000000E+00 0. -1.
         13   -1    0    0    0    0 -0.00000000000E+00 -0.00000000000E+00 -0.10000000000E+04  0.10000000000E+04  0.00000000000E+00 0.  1.
    9000005    2    1    2  501    0 -0.28299179628E+02 -0.23833900571E+02 -0.43406016491E+03  0.43564592101E+03  0.32005236833E+01 0.  0.
         13    1    3    3    0    0 -0.96853477299E+01 -0.65455254332E+01 -0.14672288959E+03  0.14718782624E+03  0.00000000000E+00 0.  1.
          1    1    3    3  501    0 -0.18613831898E+02 -0.17288375138E+02 -0.28733727531E+03  0.28845809477E+03  0.00000000000E+00 0.  1.
         -3    1    1    2    0  502  0.28299179628E+02  0.23833900571E+02 -0.56454140729E+03  0.56575250679E+03  0.00000000000E+00 0. -1.
<mgrwt>
<rscale>  1 0.30000000E+03</rscale>
<asrwt>0</asrwt>
<pdfrwt beam="1">  1       21 0.50852027E-02 0.30000000E+03</pdfrwt>
<pdfrwt beam="2">0</pdfrwt>
<totfact> 0.27986437E+04</totfact>
</mgrwt>
</event>
<event>
 6    1  0.1270461E-001  0.3000000E+03  0.7818608E-02  0.1093470E+00
         21   -1    0    0  501  502  0.00000000000E+00  0.00000000000E+00  0.12079665436E+01  0.12079665436E+01  0.00000000000E+00 0. -1.
         13   -1    0    0    0    0 -0.00000000000E+00 -0.00000000000E+00 -0.10000000000E+04  0.10000000000E+04  0.00000000000E+00 0.  1.
    9000005    2    1    2  501    0  0.11298568712E+02 -0.32601476540E+02 -0.54702491676E+03  0.54812514668E+03  0.37951204226E+01 0.  0.
         13    1    3    3    0    0  0.95306299180E+01 -0.29603554011E+02 -0.47587209986E+03  0.47688725999E+03  0.00000000000E+00 0.  1.
          1    1    3    3  501    0  0.17679387936E+01 -0.29979225293E+01 -0.71152816901E+02  0.71237886690E+02  0.00000000000E+00 0.  1.
         -3    1    1    2    0  502 -0.11298568712E+02  0.32601476540E+02 -0.45176711670E+03  0.45308281987E+03  0.00000000000E+00 0. -1.
<mgrwt>
<rscale>  1 0.30000000E+03</rscale>
<asrwt>0</asrwt>
<pdfrwt beam="1">  1       21 0.43926149E-02 0.30000000E+03</pdfrwt>
<pdfrwt beam="2">0</pdfrwt>
<totfact> 0.35898405E+04</totfact>
</mgrwt>
</event>
<event>
 6    1  0.1270461E-001  0.3000000E+03  0.7818608E-02  0.1093470E+00
         21   -1    0    0  501  502  0.00000000000E+00  0.00000000000E+00  0.11334424307E+01  0.11334424307E+01  0.00000000000E+00 0. -1.
         13   -1    0    0    0    0 -0.00000000000E+00 -0.00000000000E+00 -0.10000000000E+04  0.10000000000E+04  0.00000000000E+00 0.  1.
    9000005    2    1    2  501    0 -0.78813137718E+01 -0.32592076062E+02 -0.47585194925E+03  0.47704505385E+03  0.35422125564E+01 0.  0.
         13    1    3    3    0    0 -0.10085601852E+01 -0.87924173042E+01 -0.14173426519E+03  0.14201030148E+03  0.00000000000E+00 0.  1.
          3    1    3    3  501    0 -0.68727535866E+01 -0.23799658758E+02 -0.33411768406E+03  0.33503475238E+03  0.00000000000E+00 0.  1.
         -1    1    1    2    0  502  0.78813137718E+01  0.32592076062E+02 -0.52301460832E+03  0.52408838858E+03  0.00000000000E+00 0. -1.
<mgrwt>
<rscale>  1 0.30000000E+03</rscale>
<asrwt>0</asrwt>
<pdfrwt beam="1">  1       21 0.41216175E-02 0.30000000E+03</pdfrwt>
<pdfrwt beam="2">0</pdfrwt>
<totfact> 0.39977506E+04</totfact>
</mgrwt>
</event>
<event>
 6    1  0.1270461E-001  0.3000000E+03  0.7818608E-02  0.1093470E+00
         21   -1    0    0  501  502  0.00000000000E+00  0.00000000000E+00  0.10550887859E+01  0.10550887859E+01  0.00000000000E+00 0. -1.
         13   -1    0    0    0    0 -0.00000000000E+00 -0.00000000000E+00 -0.10000000000E+04  0.10000000000E+04  0.00000000000E+00 0.  1.
    9000005    2    1    2  501    0 -0.26274960161E+02 -0.18772612432E+02 -0.45986450882E+03  0.46100836419E+03  0.32497485228E+01 0.  0.
         13    1    3    3    0    0 -0.43503557913E+01 -0.46868780216E+01 -0.89117149474E+02  0.89346285605E+02  0.00000000000E+00 0.  1.
          1    1    3    3  501    0 -0.21924604369E+02 -0.14085734410E+02 -0.37074735935E+03  0.37166207858E+03  0.00000000000E+00 0.  1.
         -1    1    1    2    0  502  0.26274960161E+02  0.18772612432E+02 -0.53908040239E+03  0.54004672460E+03  0.00000000000E+00 0. -1.
<mgrwt>
<rscale>  1 0.30000000E+03</rscale>
<asrwt>0</asrwt>
<pdfrwt beam="1">  1       21 0.38366946E-02 0.30000000E+03</pdfrwt>
<pdfrwt beam="2">0</pdfrwt>
<totfact> 0.45101794E+04</totfact>
</mgrwt>
</event>
<event>
 6    1  0.1270461E-001  0.3000000E+03  0.7818608E-02  0.1093470E+00
         21   -1    0    0  501  502  0.00000000000E+00  0.00000000000E+00  0.33166091890E+01  0.33166091890E+01  0.00000000000E+00 0. -1.
         13   -1    0    0    0    0 -0.00000000000E+00 -0.00000000000E+00 -0.10000000000E+04  0.10000000000E+04  0.00000000000E+00 0.  1.
    9000005    2    1    2  501    0 -0.38148905898E+02 -0.31803233429E+02 -0.75176614121E+03  0.75341414055E+03  0.37082932935E+01 0.  0.
         13    1    3    3    0    0 -0.36256464050E+02 -0.29828717487E+02 -0.72081186779E+03  0.72233927785E+03  0.00000000000E+00 0.  1.
          1    1    3    3  501    0 -0.18924418477E+01 -0.19745159415E+01 -0.30954273420E+02  0.31074862708E+02  0.00000000000E+00 0.  1.
         -1    1    1    2    0  502  0.38148905898E+02  0.31803233429E+02 -0.24491724960E+03  0.24990246863E+03  0.00000000000E+00 0. -1.
<mgrwt>
<rscale>  1 0.30000000E+03</rscale>
<asrwt>0</asrwt>
<pdfrwt beam="1">  1       21 0.12060422E-01 0.30000000E+03</pdfrwt>
<pdfrwt beam="2">0</pdfrwt>
<totfact> 0.61408698E+03</totfact>
</mgrwt>
</event>
<event>
 6    1  0.1270461E-001  0.3000000E+03  0.7818608E-02  0.1093470E+00
         21   -1    0    0  501  502  0.00000000000E+00  0.00000000000E+00  0.49278387572E+01  0.49278387572E+01  0.00000000000E+00 0. -1.
         13   -1    0    0    0    0 -0.00000000000E+00 -0.00000000000E+00 -0.10000000000E+04  0.10000000000E+04  0.00000000000E+00 0.  1.
    9000005    2    1    2  501    0 -0.48701549185E+02 -0.11666832611E+02 -0.84900326655E+03  0.85051256142E+03  0.75574239352E+01 0.  0.
         13    1    3    3    0    0 -0.31523031622E+02 -0.10561510908E+02 -0.59302675021E+03  0.59395788866E+03  0.00000000000E+00 0.  1.
          3    1    3    3  501    0 -0.17178517563E+02 -0.11053217038E+01 -0.25597651634E+03  0.25655467277E+03  0.00000000000E+00 0.  1.
         -1    1    1    2    0  502  0.48701549185E+02  0.11666832611E+02 -0.14606889469E+03  0.15441527733E+03  0.00000000000E+00 0. -1.
<mgrwt>
<rscale>  1 0.30000000E+03</rscale>
<asrwt>0</asrwt>
<pdfrwt beam="1">  1       21 0.17919451E-01 0.30000000E+03</pdfrwt>
<pdfrwt beam="2">0</pdfrwt>
<totfact> 0.29543971E+03</totfact>
</mgrwt>
</event>
<event>
 6    1  0.1270461E-001  0.3000000E+03  0.7818608E-02  0.1093470E+00
         21   -1    0    0  501  502  0.00000000000E+00  0.00000000000E+00  0.10237832185E+01  0.10237832185E+01  0.00000000000E+00 0. -1.
         13   -1    0    0    0    0 -0.00000000000E+00 -0.00000000000E+00 -0.10000000000E+04  0.10000000000E+04  0.00000000000E+00 0.  1.
    9000005    2    1    2  501    0  0.13529358443E+02 -0.27666195720E+02 -0.63142167254E+03  0.63218126273E+03  0.33702332253E+01 0.  0.
         13    1    3    3    0    0  0.95052583678E+01 -0.22190683378E+02 -0.50632721037E+03  0.50690237751E+03  0.00000000000E+00 0.  1.
          1    1    3    3  501    0  0.40241000749E+01 -0.54755123413E+01 -0.12509446216E+03  0.12527888522E+03  0.00000000000E+00 0.  1.
         -1    1    1    2    0  502 -0.13529358443E+02  0.27666195720E+02 -0.36755454424E+03  0.36884252049E+03  0.00000000000E+00 0. -1.
<mgrwt>
<rscale>  1 0.30000000E+03</rscale>
<asrwt>0</asrwt>
<pdfrwt beam="1">  1       21 0.37228559E-02 0.30000000E+03</pdfrwt>
<pdfrwt beam="2">0</pdfrwt>
<totfact> 0.47442456E+04</totfact>
</mgrwt>
</event>
<event>
 6    1  0.1270461E-001  0.3000000E+03  0.7818608E-02  0.1093470E+00
         21   -1    0    0  501  502  0.00000000000E+00  0.00000000000E+00  0.10602221529E+01  0.10602221529E+01  0.00000000000E+00 0. -1.
         13   -1    0    0    0    0 -0.00000000000E+00 -0.00000000000E+00 -0.10000000000E+04  0.10000000000E+04  0.00000000000E+00 0.  1.
    9000005    2    1    2  501    0 -0.11805740029E+02  0.28903488943E+02 -0.36345990297E+03  0.36481384020E+03  0.33540670696E+01 0.  0.
         13    1    3    3    0    0 -0.11063663359E+02  0.28433399505E+02 -0.35486820368E+03  0.35617735026E+03  0.00000000000E+00 0.  1.
          3    1    3    3  501    0 -0.74207666966E+00  0.47008943735E+00 -0.85916992824E+01  0.86364899364E+01  0.00000000000E+00 0.  1.
         -3    1    1    2    0  502  0.11805740029E+02 -0.28903488943E+02 -0.63547987488E+03  0.63624638195E+03  0.00000000000E+00 0. -1.
<mgrwt>
<rscale>  1 0.30000000E+03</rscale>
<asrwt>0</asrwt>
<pdfrwt beam="1">  1       21 0.38553614E-02 0.30000000E+03</pdfrwt>
<pdfrwt beam="2">0</pdfrwt>
<totfact> 0.44735320E+04</totfact>
</mgrwt>
</event>
<event>
 6    1  0.1270461E-001  0.3000000E+03  0.7818608E-02  0.1093470E+00
         21   -1    0    0  501  502  0.00000000000E+00  0.00000000000E+00  0.15407750965E+01  0.15407750965E+01  0.00000000000E+00 0. -1.
         13   -1    0    0    0    0 -0.00000000000E+00 -0.00000000000E+00 -0.10000000000E+04  0.10000000000E+04  0.00000000000E+00 0.  1.
    9000005    2    1    2  501    0 -0.20632999663E+02  0.23566574793E+02 -0.80085138458E+03  0.80146588242E+03  0.18752000698E+01 0.  0.
         13    1    3    3    0    0 -0.49398526011E+01  0.69023331685E+01 -0.21828906633E+03  0.21845402451E+03  0.00000000000E+00 0.  1.
          3    1    3    3  501    0 -0.15693147062E+02  0.16664241625E+02 -0.58256231825E+03  0.58301185791E+03  0.00000000000E+00 0.  1.
         -3    1    1    2    0  502  0.20632999663E+02 -0.23566574793E+02 -0.19760784033E+03  0.20007489268E+03  0.00000000000E+00 0. -1.
<mgrwt>
<rscale>  1 0.30000000E+03</rscale>
<asrwt>0</asrwt>
<pdfrwt beam="1">  1       21 0.56028303E-02 0.30000000E+03</pdfrwt>
<pdfrwt beam="2">0</pdfrwt>
<totfact> 0.23708482E+04</totfact>
</mgrwt>
</event>
<event>
 6    1  0.1270461E-001  0.3000000E+03  0.7818608E-02  0.1093470E+00
         21   -1    0    0  501  502  0.00000000000E+00  0.00000000000E+00  0.18356246683E+01  0.18356246683E+01  0.00000000000E+00 0. -1.
         13   -1    0    0    0    0 -0.00000000000E+00 -0.00000000000E+00 -0.10000000000E+04  0.10000000000E+04  0.00000000000E+00 0.  1.
    9000005    2    1    2  501    0  0.32014476000E+02 -0.28377840659E+02 -0.50245940683E+03  0.50428799448E+03  0.32706796534E+01 0.  0.
         13    1    3    3    0    0  0.12072246211E+02 -0.10221854538E+02 -0.20419472812E+03  0.20480652438E+03  0.00000000000E+00 0.  1.
          1    1    3    3  501    0  0.19942229789E+02 -0.18155986121E+02 -0.29826467872E+03  0.29948147010E+03  0.00000000000E+00 0.  1.
         -1    1    1    2    0  502 -0.32014476000E+02  0.28377840659E+02 -0.49570496850E+03  0.49754763019E+03  0.00000000000E+00 0. -1.
<mgrwt>
<rscale>  1 0.30000000E+03</rscale>
<asrwt>0</asrwt>
<pdfrwt beam="1">  1       21 0.66750129E-02 0.30000000E+03</pdfrwt>
<pdfrwt beam="2">0</pdfrwt>
<totfact> 0.17524384E+04</totfact>
</mgrwt>
</event>
<event>
 6    1  0.1270461E-001  0.3000000E+03  0.7818608E-02  0.1093470E+00
         21   -1    0    0  501  502  0.00000000000E+00  0.00000000000E+00  0.55260099674E+01  0.55260099674E+01  0.00000000000E+00 0. -1.
         13   -1    0    0    0    0 -0.00000000000E+00 -0.00000000000E+00 -0.10000000000E+04  0.10000000000E+04  0.00000000000E+00 0.  1.
    9000005    2    1    2  501    0  0.17161826672E+02  0.65745014091E+02 -0.70082813314E+03  0.70412125811E+03  0.31206967472E+01 0.  0.
         13    1    3    3    0    0  0.12466417885E+02  0.42601524866E+02 -0.46480659698E+03  0.46692127184E+03  0.00000000000E+00 0.  1.
          3    1    3    3  501    0  0.46954087868E+01  0.23143489225E+02 -0.23602153616E+03  0.23719998627E+03  0.00000000000E+00 0.  1.
         -1    1    1    2    0  502 -0.17161826672E+02 -0.65745014091E+02 -0.29364585689E+03  0.30140475186E+03  0.00000000000E+00 0. -1.
<mgrwt>
<rscale>  1 0.30000000E+03</rscale>
<asrwt>0</asrwt>
<pdfrwt beam="1">  1       21 0.20094624E-01 0.30000000E+03</pdfrwt>
<pdfrwt beam="2">0</pdfrwt>
<totfact> 0.23776943E+03</totfact>
</mgrwt>
</event>
<event>
 6    1  0.1270461E-001  0.3000000E+03  0.7818608E-02  0.1093470E+00
         21   -1    0    0  501  502  0.00000000000E+00  0.00000000000E+00  0.15055261254E+01  0.15055261254E+01  0.00000000000E+00 0. -1.
         13   -1    0    0    0    0 -0.00000000000E+00 -0.00000000000E+00 -0.10000000000E+04  0.10000000000E+04  0.00000000000E+00 0.  1.
    9000005    2    1    2  501    0 -0.28653797757E+02 -0.14698678740E+02 -0.77785897317E+03  0.77853217469E+03  0.32670463761E+01 0.  0.
         13    1    3    3    0    0 -0.22868322409E+02 -0.10217419156E+02 -0.60711086800E+03  0.60762732153E+03  0.00000000000E+00 0.  1.
          1    1    3    3  501    0 -0.57854753480E+01 -0.44812595838E+01 -0.17074810517E+03  0.17090485316E+03  0.00000000000E+00 0.  1.
         -1    1    1    2    0  502  0.28653797757E+02  0.14698678740E+02 -0.22063550070E+03  0.22297335144E+03  0.00000000000E+00 0. -1.
<mgrwt>
<rscale>  1 0.30000000E+03</rscale>
<asrwt>0</asrwt>
<pdfrwt beam="1">  1       21 0.54746520E-02 0.30000000E+03</pdfrwt>
<pdfrwt beam="2">0</pdfrwt>
<totfact> 0.24668739E+04</totfact>
</mgrwt>
</event>
<event>
 6    1  0.1270461E-001  0.3000000E+03  0.7818608E-02  0.1093470E+00
         21   -1    0    0  501  502  0.00000000000E+00  0.00000000000E+00  0.14142520055E+01  0.14142520055E+01  0.00000000000E+00 0. -1.
         13   -1    0    0    0    0 -0.00000000000E+00 -0.00000000000E+00 -0.10000000000E+04  0.10000000000E+04  0.00000000000E+00 0.  1.
    9000005    2    1    2  501    0  0.18392945745E+02  0.32196426057E+02 -0.56708811669E+03  0.56832636701E+03  0.55692952583E+01 0.  0.
         13    1    3    3    0    0  0.96731871378E+01  0.13228520806E+02 -0.28111912734E+03  0.28159639215E+03  0.00000000000E+00 0.  1.
          1    1    3    3  501    0  0.87197586077E+01  0.18967905251E+02 -0.28596898934E+03  0.28672997487E+03  0.00000000000E+00 0.  1.
         -1    1    1    2    0  502 -0.18392945745E+02 -0.32196426057E+02 -0.43149763131E+03  0.43308788499E+03  0.00000000000E+00 0. -1.
<mgrwt>
<rscale>  1 0.30000000E+03</rscale>
<asrwt>0</asrwt>
<pdfrwt beam="1">  1       21 0.51427454E-02 0.30000000E+03</pdfrwt>
<pdfrwt beam="2">0</pdfrwt>
<totfact> 0.27454105E+04</totfact>
</mgrwt>
</event>
<event>
 6    1  0.1270461E-001  0.3000000E+03  0.7818608E-02  0.1093470E+00
         21   -1    0    0  501  502  0.00000000000E+00  0.00000000000E+00  0.40000191359E+01  0.40000191359E+01  0.00000000000E+00 0. -1.
         13   -1    0    0    0    0 -0.00000000000E+00 -0.00000000000E+00 -0.10000000000E+04  0.10000000000E+04  0.00000000000E+00 0.  1.
    9000005    2    1    2  501    0  0.35325600796E+02  0.40234888986E+02 -0.23220845447E+03  0.23833413890E+03  0.39561440076E+01 0.  0.
         13    1    3    3    0    0  0.17722617306E+02  0.17205108342E+02 -0.10619381218E+03  0.10902858645E+03  0.00000000000E+00 0.  1.
          3    1    3    3  501    0  0.17602983490E+02  0.23029780644E+02 -0.12601464229E+03  0.12930555246E+03  0.00000000000E+00 0.  1.
         -3    1    1    2    0  502 -0.35325600796E+02 -0.40234888986E+02 -0.76379152639E+03  0.76566588023E+03  0.00000000000E+00 0. -1.
<mgrwt>
<rscale>  1 0.30000000E+03</rscale>
<asrwt>0</asrwt>
<pdfrwt beam="1">  1       21 0.14545555E-01 0.30000000E+03</pdfrwt>
<pdfrwt beam="2">0</pdfrwt>
<totfact> 0.43588897E+03</totfact>
</mgrwt>
</event>
<event>
 6    1  0.1270461E-001  0.3000000E+03  0.7818608E-02  0.1093470E+00
         21   -1    0    0  501  502  0.00000000000E+00  0.00000000000E+00  0.20957584258E+01  0.20957584258E+01  0.00000000000E+00 0. -1.
         13   -1    0    0    0    0 -0.00000000000E+00 -0.00000000000E+00 -0.10000000000E+04  0.10000000000E+04  0.00000000000E+00 0.  1.
    9000005    2    1    2  501    0 -0.35422596353E+02  0.89670740712E+01 -0.80045319249E+03  0.80129215902E+03  0.29397261930E+01 0.  0.
         13    1    3    3    0    0 -0.29536511534E+02  0.69375094779E+01 -0.68415648238E+03  0.68482890340E+03  0.00000000000E+00 0.  1.
          3    1    3    3  501    0 -0.58860848191E+01  0.20295645933E+01 -0.11629671011E+03  0.11646325562E+03  0.00000000000E+00 0.  1.
         -1    1    1    2    0  502  0.35422596353E+02 -0.89670740712E+01 -0.19745104908E+03  0.20080359941E+03  0.00000000000E+00 0. -1.
<mgrwt>
<rscale>  1 0.30000000E+03</rscale>
<asrwt>0</asrwt>
<pdfrwt beam="1">  1       21 0.76209558E-02 0.30000000E+03</pdfrwt>
<pdfrwt beam="2">0</pdfrwt>
<totfact> 0.13909194E+04</totfact>
</mgrwt>
</event>
<event>
 6    1  0.1270461E-001  0.3000000E+03  0.7818608E-02  0.1093470E+00
         21   -1    0    0  501  502  0.00000000000E+00  0.00000000000E+00  0.14046416768E+01  0.14046416768E+01  0.00000000000E+00 0. -1.
         13   -1    0    0    0    0 -0.00000000000E+00 -0.00000000000E+00 -0.10000000000E+04  0.10000000000E+04  0.00000000000E+00 0.  1.
    9000005    2    1    2  501    0  0.29116471312E+02  0.19924002623E+02 -0.66597629728E+03  0.66691970248E+03  0.35673843508E+01 0.  0.
         13    1    3    3    0    0  0.27839765145E+02  0.18768197201E+02 -0.61667626659E+03  0.61758960121E+03  0.00000000000E+00 0.  1.
          3    1    3    3  501    0  0.12767061677E+01  0.11558054216E+01 -0.49300030692E+02  0.49330101268E+02  0.00000000000E+00 0.  1.
         -1    1    1    2    0  502 -0.29116471312E+02 -0.19924002623E+02 -0.33261906104E+03  0.33448493920E+03  0.00000000000E+00 0. -1.
<mgrwt>
<rscale>  1 0.30000000E+03</rscale>
<asrwt>0</asrwt>
<pdfrwt beam="1">  1       21 0.51077987E-02 0.30000000E+03</pdfrwt>
<pdfrwt beam="2">0</pdfrwt>
<totfact> 0.27775503E+04</totfact>
</mgrwt>
</event>
<event>
 6    1  0.1270461E-001  0.3000000E+03  0.7818608E-02  0.1093470E+00
         21   -1    0    0  501  502  0.00000000000E+00  0.00000000000E+00  0.20004476240E+01  0.20004476240E+01  0.00000000000E+00 0. -1.
         13   -1    0    0    0    0 -0.00000000000E+00 -0.00000000000E+00 -0.10000000000E+04  0.10000000000E+04  0.00000000000E+00 0.  1.
    9000005    2    1    2  501    0 -0.43606824677E+02 -0.33900775635E+01 -0.59858161773E+03  0.60019485495E+03  0.45676081582E+01 0.  0.
         13    1    3    3    0    0 -0.37034375753E+02 -0.26032301546E+01 -0.52794908392E+03  0.52925282900E+03  0.00000000000E+00 0.  1.
          1    1    3    3  501    0 -0.65724489242E+01 -0.78684740885E+00 -0.70632533803E+02  0.70942025945E+02  0.00000000000E+00 0.  1.
         -3    1    1    2    0  502  0.43606824677E+02  0.33900775635E+01 -0.39941793465E+03  0.40180559267E+03  0.00000000000E+00 0. -1.
<mgrwt>
<rscale>  1 0.30000000E+03</rscale>
<asrwt>0</asrwt>
<pdfrwt beam="1">  1       21 0.72743703E-02 0.30000000E+03</pdfrwt>
<pdfrwt beam="2">0</pdfrwt>
<totfact> 0.15089335E+04</totfact>
</mgrwt>
</event>
<event>
 6    1  0.1270461E-001  0.3000000E+03  0.7818608E-02  0.1093470E+00
         21   -1    0    0  501  502  0.00000000000E+00  0.00000000000E+00  0.29005856770E+01  0.29005856770E+01  0.00000000000E+00 0. -1.
         13   -1    0    0    0    0 -0.00000000000E+00 -0.00000000000E+00 -0.10000000000E+04  0.10000000000E+04  0.00000000000E+00 0.  1.
    9000005    2    1    2  501    0 -0.54001766108E+01 -0.42125590541E+02 -0.80657882332E+03  0.80770370332E+03  0.34852320708E+01 0.  0.
         13    1    3    3    0    0 -0.32709134741E+01 -0.31420207510E+02 -0.62358536622E+03  0.62438500725E+03  0.00000000000E+00 0.  1.
          3    1    3    3  501    0 -0.21292631367E+01 -0.10705383031E+02 -0.18299345710E+03  0.18331869607E+03  0.00000000000E+00 0.  1.
         -3    1    1    2    0  502  0.54001766108E+01  0.42125590541E+02 -0.19052059100E+03  0.19519688236E+03  0.00000000000E+00 0. -1.
<mgrwt>
<rscale>  1 0.30000000E+03</rscale>
<asrwt>0</asrwt>
<pdfrwt beam="1">  1       21 0.10547607E-01 0.30000000E+03</pdfrwt>
<pdfrwt beam="2">0</pdfrwt>
<totfact> 0.78201864E+03</totfact>
</mgrwt>
</event>
<event>
 6    1  0.1270461E-001  0.3000000E+03  0.7818608E-02  0.1093470E+00
         21   -1    0    0  501  502  0.00000000000E+00  0.00000000000E+00  0.13316668660E+01  0.13316668660E+01  0.00000000000E+00 0. -1.
         13   -1    0    0    0    0 -0.00000000000E+00 -0.00000000000E+00 -0.10000000000E+04  0.10000000000E+04  0.00000000000E+00 0.  1.
    9000005    2    1    2  501    0  0.25567677937E+02  0.23361328874E+02 -0.65575089059E+03  0.65666975971E+03  0.25465602534E+01 0.  0.
         13    1    3    3    0    0  0.24082360248E+01  0.32435904729E+01 -0.71457358494E+02  0.71571464725E+02  0.00000000000E+00 0.  1.
          3    1    3    3  501    0  0.23159441912E+02  0.20117738402E+02 -0.58429353210E+03  0.58509829499E+03  0.00000000000E+00 0.  1.
         -3    1    1    2    0  502 -0.25567677937E+02 -0.23361328874E+02 -0.34291744254E+03  0.34466190715E+03  0.00000000000E+00 0. -1.
<mgrwt>
<rscale>  1 0.30000000E+03</rscale>
<asrwt>0</asrwt>
<pdfrwt beam="1">  1       21 0.48424352E-02 0.30000000E+03</pdfrwt>
<pdfrwt beam="2">0</pdfrwt>
<totfact> 0.30419431E+04</totfact>
</mgrwt>
</event>
<event>
 6    1  0.1270461E-001  0.3000000E+03  0.7818608E-02  0.1093470E+00
         21   -1    0    0  501  502  0.00000000000E+00  0.00000000000E+00  0.13573115738E+01  0.13573115738E+01  0.00000000000E+00 0. -1.
         13   -1    0    0    0    0 -0.00000000000E+00 -0.00000000000E+00 -0.10000000000E+04  0.10000000000E+04  0.00000000000E+00 0.  1.
    9000005    2    1    2  501    0 -0.58660136633E+00 -0.33172416454E+02 -0.71599453446E+03  0.71676860439E+03  0.28819354068E+01 0.  0.
         13    1    3    3    0    0 -0.60199931632E+00 -0.52254677789E+01 -0.13467615602E+03  0.13477883705E+03  0.00000000000E+00 0.  1.
          1    1    3    3  501    0  0.15397949994E-01 -0.27946948675E+02 -0.58131837844E+03  0.58198976734E+03  0.00000000000E+00 0.  1.
         -1    1    1    2    0  502  0.58660136633E+00  0.33172416454E+02 -0.28264815397E+03  0.28458870718E+03  0.00000000000E+00 0. -1.
<mgrwt>
<rscale>  1 0.30000000E+03</rscale>
<asrwt>0</asrwt>
<pdfrwt beam="1">  1       21 0.49356889E-02 0.30000000E+03</pdfrwt>
<pdfrwt beam="2">0</pdfrwt>
<totfact> 0.29447202E+04</totfact>
</mgrwt>
</event>
<event>
 6    1  0.1270461E-001  0.3000000E+03  0.7818608E-02  0.1093470E+00
         21   -1    0    0  501  502  0.00000000000E+00  0.00000000000E+00  0.19338284234E+01  0.19338284234E+01  0.00000000000E+00 0. -1.
         13   -1    0    0    0    0 -0.00000000000E+00 -0.00000000000E+00 -0.10000000000E+04  0.10000000000E+04  0.00000000000E+00 0.  1.
    9000005    2    1    2  501    0  0.13644267755E+02 -0.29739228009E+02 -0.83308365536E+03  0.83373805445E+03  0.44920915049E+01 0.  0.
         13    1    3    3    0    0  0.86190787754E+01 -0.22661306564E+02 -0.58347326901E+03  0.58397677949E+03  0.00000000000E+00 0.  1.
          1    1    3    3  501    0  0.50251889796E+01 -0.70779214449E+01 -0.24961038635E+03  0.24976127496E+03  0.00000000000E+00 0.  1.
         -1    1    1    2    0  502 -0.13644267755E+02  0.29739228009E+02 -0.16498251622E+03  0.16819577397E+03  0.00000000000E+00 0. -1.
<mgrwt>
<rscale>  1 0.30000000E+03</rscale>
<asrwt>0</asrwt>
<pdfrwt beam="1">  1       21 0.70321182E-02 0.30000000E+03</pdfrwt>
<pdfrwt beam="2">0</pdfrwt>
<totfact> 0.16007225E+04</totfact>
</mgrwt>
</event>
<event>
 6    1  0.1270461E-001  0.3000000E+03  0.7818608E-02  0.1093470E+00
         21   -1    0    0  501  502  0.00000000000E+00  0.00000000000E+00  0.43172797494E+01  0.43172797494E+01  0.00000000000E+00 0. -1.
         13   -1    0    0    0    0 -0.00000000000E+00 -0.00000000000E+00 -0.10000000000E+04  0.10000000000E+04  0.00000000000E+00 0.  1.
    9000005    2    1    2  501    0  0.34371779334E+02  0.53678477264E+01 -0.92375286064E+03  0.92441648059E+03  0.40310083720E+01 0.  0.
         13    1    3    3    0    0  0.27186862066E+02  0.50640146743E+01 -0.69291344108E+03  0.69346507233E+03  0.00000000000E+00 0.  1.
          1    1    3    3  501    0  0.71849172685E+01  0.30383305217E+00 -0.23083941957E+03  0.23095140826E+03  0.00000000000E+00 0.  1.
         -3    1    1    2    0  502 -0.34371779334E+02 -0.53678477264E+01 -0.71929859607E+02  0.79900799163E+02  0.00000000000E+00 0. -1.
<mgrwt>
<rscale>  1 0.30000000E+03</rscale>
<asrwt>0</asrwt>
<pdfrwt beam="1">  1       21 0.15699232E-01 0.30000000E+03</pdfrwt>
<pdfrwt beam="2">0</pdfrwt>
<totfact> 0.37840868E+03</totfact>
</mgrwt>
</event>
<event>
 6    1  0.1270461E-001  0.3000000E+03  0.7818608E-02  0.1093470E+00
         21   -1    0    0  501  502  0.00000000000E+00  0.00000000000E+00  0.25399280537E+01  0.25399280537E+01  0.00000000000E+00 0. -1.
         13   -1    0    0    0    0 -0.00000000000E+00 -0.00000000000E+00 -0.10000000000E+04  0.10000000000E+04  0.00000000000E+00 0.  1.
    9000005    2    1    2  501    0 -0.30227724473E+02 -0.30649317479E+01 -0.89840419241E+03  0.89892923168E+03  0.45344773966E+01 0.  0.
         13    1    3    3    0    0 -0.14505265959E+02 -0.28808737758E+01 -0.38354330895E+03  0.38382831060E+03  0.00000000000E+00 0.  1.
          3    1    3    3  501    0 -0.15722458515E+02 -0.18405797209E+00 -0.51486088346E+03  0.51510092108E+03  0.00000000000E+00 0.  1.
         -1    1    1    2    0  502  0.30227724473E+02  0.30649317479E+01 -0.99055879533E+02  0.10361069638E+03  0.00000000000E+00 0. -1.
<mgrwt>
<rscale>  1 0.30000000E+03</rscale>
<asrwt>0</asrwt>
<pdfrwt beam="1">  1       21 0.92361215E-02 0.30000000E+03</pdfrwt>
<pdfrwt beam="2">0</pdfrwt>
<totfact> 0.99121300E+03</totfact>
</mgrwt>
</event>
<event>
 6    1  0.1270461E-001  0.3000000E+03  0.7818608E-02  0.1093470E+00
         21   -1    0    0  501  502  0.00000000000E+00  0.00000000000E+00  0.24748924903E+02  0.24748924903E+02  0.00000000000E+00 0. -1.
         13   -1    0    0    0    0 -0.00000000000E+00 -0.00000000000E+00 -0.10000000000E+04  0.10000000000E+04  0.00000000000E+00 0.  1.
    9000005    2    1    2  501    0 -0.94675318170E+02 -0.10709218398E+03 -0.70154133669E+03  0.71596231146E+03  0.31036445735E+01 0.  0.
         13    1    3    3    0    0 -0.43912950962E+02 -0.50064780098E+02 -0.33449110557E+03  0.34105590329E+03  0.00000000000E+00 0.  1.
          3    1    3    3  501    0 -0.50762367209E+02 -0.57027403885E+02 -0.36705023112E+03  0.37490640817E+03  0.00000000000E+00 0.  1.
         -1    1    1    2    0  502  0.94675318170E+02  0.10709218398E+03 -0.27370973841E+03  0.30878661344E+03  0.00000000000E+00 0. -1.
<mgrwt>
<rscale>  1 0.30000000E+03</rscale>
<asrwt>0</asrwt>
<pdfrwt beam="1">  1       21 0.89996280E-01 0.30000000E+03</pdfrwt>
<pdfrwt beam="2">0</pdfrwt>
<totfact> 0.96207795E+01</totfact>
</mgrwt>
</event>
<event>
 6    1  0.1270461E-001  0.3000000E+03  0.7818608E-02  0.1093470E+00
         21   -1    0    0  501  502  0.00000000000E+00  0.00000000000E+00  0.11928766726E+01  0.11928766726E+01  0.00000000000E+00 0. -1.
         13   -1    0    0    0    0 -0.00000000000E+00 -0.00000000000E+00 -0.10000000000E+04  0.10000000000E+04  0.00000000000E+00 0.  1.
    9000005    2    1    2  501    0  0.25018750653E+02 -0.20189488179E+02 -0.68002666052E+03  0.68079540979E+03  0.35464990767E+01 0.  0.
         13    1    3    3    0    0  0.67647675081E+01 -0.61043918196E+01 -0.22618865803E+03  0.22637211555E+03  0.00000000000E+00 0.  1.
          3    1    3    3  501    0  0.18253983145E+02 -0.14085096360E+02 -0.45383800249E+03  0.45442329424E+03  0.00000000000E+00 0.  1.
         -1    1    1    2    0  502 -0.25018750653E+02  0.20189488179E+02 -0.31878046281E+03  0.32039746688E+03  0.00000000000E+00 0. -1.
<mgrwt>
<rscale>  1 0.30000000E+03</rscale>
<asrwt>0</asrwt>
<pdfrwt beam="1">  1       21 0.43377425E-02 0.30000000E+03</pdfrwt>
<pdfrwt beam="2">0</pdfrwt>
<totfact> 0.36670580E+04</totfact>
</mgrwt>
</event>
<event>
 6    1  0.1270461E-001  0.3000000E+03  0.7818608E-02  0.1093470E+00
         21   -1    0    0  501  502  0.00000000000E+00  0.00000000000E+00  0.16749631878E+02  0.16749631878E+02  0.00000000000E+00 0. -1.
         13   -1    0    0    0    0 -0.00000000000E+00 -0.00000000000E+00 -0.10000000000E+04  0.10000000000E+04  0.00000000000E+00 0.  1.
    9000005    2    1    2  501    0  0.12665246204E+03 -0.26214339696E+02 -0.50213445968E+03  0.51855232648E+03  0.54278868351E+01 0.  0.
         13    1    3    3    0    0  0.25617524442E+02 -0.68143991378E+01 -0.96547468664E+02  0.10012046394E+03  0.00000000000E+00 0.  1.
          3    1    3    3  501    0  0.10103493760E+03 -0.19399940558E+02 -0.40558699101E+03  0.41843186254E+03  0.00000000000E+00 0.  1.
         -1    1    1    2    0  502 -0.12665246204E+03  0.26214339696E+02 -0.48111590844E+03  0.49819730540E+03  0.00000000000E+00 0. -1.
<mgrwt>
<rscale>  1 0.30000000E+03</rscale>
<asrwt>0</asrwt>
<pdfrwt beam="1">  1       21 0.60907881E-01 0.30000000E+03</pdfrwt>
<pdfrwt beam="2">0</pdfrwt>
<totfact> 0.24276232E+02</totfact>
</mgrwt>
</event>
<event>
 6    1  0.1270461E-001  0.3000000E+03  0.7818608E-02  0.1093470E+00
         21   -1    0    0  501  502  0.00000000000E+00  0.00000000000E+00  0.12306007869E+01  0.12306007869E+01  0.00000000000E+00 0. -1.
         13   -1    0    0    0    0 -0.00000000000E+00 -0.00000000000E+00 -0.10000000000E+04  0.10000000000E+04  0.00000000000E+00 0.  1.
    9000005    2    1    2  501    0  0.19641298192E+02  0.22918121975E+02 -0.75312228755E+03  0.75373610715E+03  0.37307258647E+01 0.  0.
         13    1    3    3    0    0  0.16153563561E+01  0.21864326907E+01 -0.45901253858E+02  0.45981680806E+02  0.00000000000E+00 0.  1.
          3    1    3    3  501    0  0.18025941836E+02  0.20731689284E+02 -0.70722103369E+03  0.70775442635E+03  0.00000000000E+00 0.  1.
         -1    1    1    2    0  502 -0.19641298192E+02 -0.22918121975E+02 -0.24564711166E+03  0.24749449363E+03  0.00000000000E+00 0. -1.
<mgrwt>
<rscale>  1 0.30000000E+03</rscale>
<asrwt>0</asrwt>
<pdfrwt beam="1">  1       21 0.44749214E-02 0.30000000E+03</pdfrwt>
<pdfrwt beam="2">0</pdfrwt>
<totfact> 0.34786448E+04</totfact>
</mgrwt>
</event>
<event>
 6    1  0.1270461E-001  0.3000000E+03  0.7818608E-02  0.1093470E+00
         21   -1    0    0  501  502  0.00000000000E+00  0.00000000000E+00  0.32098890842E+01  0.32098890842E+01  0.00000000000E+00 0. -1.
         13   -1    0    0    0    0 -0.00000000000E+00 -0.00000000000E+00 -0.10000000000E+04  0.10000000000E+04  0.00000000000E+00 0.  1.
    9000005    2    1    2  501    0  0.30588596124E+02  0.21251419242E+01 -0.92012192820E+03  0.92063756514E+03  0.29975233827E+01 0.  0.
         13    1    3    3    0    0  0.13698026258E+02  0.15669107245E+01 -0.37315866595E+03  0.37341328459E+03  0.00000000000E+00 0.  1.
          3    1    3    3  501    0  0.16890569866E+02  0.55823119967E+00 -0.54696326225E+03  0.54722428055E+03  0.00000000000E+00 0.  1.
         -1    1    1    2    0  502 -0.30588596124E+02 -0.21251419242E+01 -0.76668182718E+02  0.82572323949E+02  0.00000000000E+00 0. -1.
<mgrwt>
<rscale>  1 0.30000000E+03</rscale>
<asrwt>0</asrwt>
<pdfrwt beam="1">  1       21 0.11672349E-01 0.30000000E+03</pdfrwt>
<pdfrwt beam="2">0</pdfrwt>
<totfact> 0.65159336E+03</totfact>
</mgrwt>
</event>
<event>
 6    1  0.1270461E-001  0.3000000E+03  0.7818608E-02  0.1093470E+00
         21   -1    0    0  501  502  0.00000000000E+00  0.00000000000E+00  0.10309380242E+01  0.10309380242E+01  0.00000000000E+00 0. -1.
         13   -1    0    0    0    0 -0.00000000000E+00 -0.00000000000E+00 -0.10000000000E+04  0.10000000000E+04  0.00000000000E+00 0.  1.
    9000005    2    1    2  501    0  0.80416666381E+01  0.30725028204E+02 -0.56295062480E+03  0.56385731883E+03  0.36019823763E+01 0.  0.
         13    1    3    3    0    0  0.65357855286E+01  0.22414297729E+02 -0.43767657731E+03  0.43829887469E+03  0.00000000000E+00 0.  1.
          3    1    3    3  501    0  0.15058811095E+01  0.83107304751E+01 -0.12527404750E+03  0.12555844414E+03  0.00000000000E+00 0.  1.
         -1    1    1    2    0  502 -0.80416666381E+01 -0.30725028204E+02 -0.43601843717E+03  0.43717361919E+03  0.00000000000E+00 0. -1.
<mgrwt>
<rscale>  1 0.30000000E+03</rscale>
<asrwt>0</asrwt>
<pdfrwt beam="1">  1       21 0.37488734E-02 0.30000000E+03</pdfrwt>
<pdfrwt beam="2">0</pdfrwt>
<totfact> 0.46890927E+04</totfact>
</mgrwt>
</event>
<event>
 6    1  0.1270461E-001  0.3000000E+03  0.7818608E-02  0.1093470E+00
         21   -1    0    0  501  502  0.00000000000E+00  0.00000000000E+00  0.40626442066E+01  0.40626442066E+01  0.00000000000E+00 0. -1.
         13   -1    0    0    0    0 -0.00000000000E+00 -0.00000000000E+00 -0.10000000000E+04  0.10000000000E+04  0.00000000000E+00 0.  1.
    9000005    2    1    2  501    0 -0.88241781615E+01 -0.52188098297E+02 -0.21925059920E+03  0.22557450583E+03  0.34012802308E+01 0.  0.
         13    1    3    3    0    0 -0.17060749414E+00 -0.98139867978E-01 -0.15057393866E+01  0.15185484685E+01  0.00000000000E+00 0.  1.
          3    1    3    3  501    0 -0.86535706674E+01 -0.52089958429E+02 -0.21774485981E+03  0.22405595736E+03  0.00000000000E+00 0.  1.
         -1    1    1    2    0  502  0.88241781615E+01  0.52188098297E+02 -0.77668675659E+03  0.77848813838E+03  0.00000000000E+00 0. -1.
<mgrwt>
<rscale>  1 0.30000000E+03</rscale>
<asrwt>0</asrwt>
<pdfrwt beam="1">  1       21 0.14773283E-01 0.30000000E+03</pdfrwt>
<pdfrwt beam="2">0</pdfrwt>
<totfact> 0.42356632E+03</totfact>
</mgrwt>
</event>
<event>
 6    1  0.1270461E-001  0.3000000E+03  0.7818608E-02  0.1093470E+00
         21   -1    0    0  501  502  0.00000000000E+00  0.00000000000E+00  0.14295314211E+01  0.14295314211E+01  0.00000000000E+00 0. -1.
         13   -1    0    0    0    0 -0.00000000000E+00 -0.00000000000E+00 -0.10000000000E+04  0.10000000000E+04  0.00000000000E+00 0.  1.
    9000005    2    1    2  501    0  0.31610450647E+02  0.89602876758E+01 -0.74616380731E+03  0.74689342396E+03  0.31388022338E+01 0.  0.
         13    1    3    3    0    0  0.28417000026E+02  0.72797197887E+01 -0.67768303407E+03  0.67831763568E+03  0.00000000000E+00 0.  1.
          1    1    3    3  501    0  0.31934506210E+01  0.16805678871E+01 -0.68480773241E+02  0.68575788285E+02  0.00000000000E+00 0.  1.
         -3    1    1    2    0  502 -0.31610450647E+02 -0.89602876758E+01 -0.25240666127E+03  0.25453610746E+03  0.00000000000E+00 0. -1.
<mgrwt>
<rscale>  1 0.30000000E+03</rscale>
<asrwt>0</asrwt>
<pdfrwt beam="1">  1       21 0.51983070E-02 0.30000000E+03</pdfrwt>
<pdfrwt beam="2">0</pdfrwt>
<totfact> 0.26954873E+04</totfact>
</mgrwt>
</event>
<event>
 6    1  0.1270461E-001  0.3000000E+03  0.7818608E-02  0.1093470E+00
         21   -1    0    0  501  502  0.00000000000E+00  0.00000000000E+00  0.21820691867E+01  0.21820691867E+01  0.00000000000E+00 0. -1.
         13   -1    0    0    0    0 -0.00000000000E+00 -0.00000000000E+00 -0.10000000000E+04  0.10000000000E+04  0.00000000000E+00 0.  1.
    9000005    2    1    2  501    0  0.43474885855E+02 -0.34136786082E+01 -0.32114928049E+03  0.32410966801E+03  0.29150710227E+01 0.  0.
         13    1    3    3    0    0  0.12823279752E+02 -0.18971064213E+00 -0.10232700177E+03  0.10312753165E+03  0.00000000000E+00 0.  1.
          1    1    3    3  501    0  0.30651606103E+02 -0.32239679661E+01 -0.21882227872E+03  0.22098213636E+03  0.00000000000E+00 0.  1.
         -3    1    1    2    0  502 -0.43474885855E+02  0.34136786082E+01 -0.67666865033E+03  0.67807240118E+03  0.00000000000E+00 0. -1.
<mgrwt>
<rscale>  1 0.30000000E+03</rscale>
<asrwt>0</asrwt>
<pdfrwt beam="1">  1       21 0.79348138E-02 0.30000000E+03</pdfrwt>
<pdfrwt beam="2">0</pdfrwt>
<totfact> 0.12958721E+04</totfact>
</mgrwt>
</event>
<event>
 6    1  0.1270461E-001  0.3000000E+03  0.7818608E-02  0.1093470E+00
         21   -1    0    0  501  502  0.00000000000E+00  0.00000000000E+00  0.26150236322E+01  0.26150236322E+01  0.00000000000E+00 0. -1.
         13   -1    0    0    0    0 -0.00000000000E+00 -0.00000000000E+00 -0.10000000000E+04  0.10000000000E+04  0.00000000000E+00 0.  1.
    9000005    2    1    2  501    0  0.71192536326E+01  0.50416435516E+02 -0.54157124570E+03  0.54396629333E+03  0.27227500251E+01 0.  0.
         13    1    3    3    0    0  0.40172224892E+01  0.34388956735E+02 -0.35762180025E+03  0.35929387754E+03  0.00000000000E+00 0.  1.
          1    1    3    3  501    0  0.31020311434E+01  0.16027478781E+02 -0.18394944545E+03  0.18467241580E+03  0.00000000000E+00 0.  1.
         -3    1    1    2    0  502 -0.71192536326E+01 -0.50416435516E+02 -0.45581373066E+03  0.45864873030E+03  0.00000000000E+00 0. -1.
<mgrwt>
<rscale>  1 0.30000000E+03</rscale>
<asrwt>0</asrwt>
<pdfrwt beam="1">  1       21 0.95091969E-02 0.30000000E+03</pdfrwt>
<pdfrwt beam="2">0</pdfrwt>
<totfact> 0.94114865E+03</totfact>
</mgrwt>
</event>
<event>
 6    1  0.1270461E-001  0.3000000E+03  0.7818608E-02  0.1093470E+00
         21   -1    0    0  501  502  0.00000000000E+00  0.00000000000E+00  0.14315849825E+01  0.14315849825E+01  0.00000000000E+00 0. -1.
         13   -1    0    0    0    0 -0.00000000000E+00 -0.00000000000E+00 -0.10000000000E+04  0.10000000000E+04  0.00000000000E+00 0.  1.
    9000005    2    1    2  501    0  0.23818472094E+02  0.23609504842E+02 -0.27362964105E+03  0.27571748540E+03  0.47141236934E+01 0.  0.
         13    1    3    3    0    0 -0.34243417285E-01  0.31115586728E+00 -0.75987843570E+01  0.76052294041E+01  0.00000000000E+00 0.  1.
          1    1    3    3  501    0  0.23852715511E+02  0.23298348975E+02 -0.26603085669E+03  0.26811225599E+03  0.00000000000E+00 0.  1.
         -3    1    1    2    0  502 -0.23818472094E+02 -0.23609504842E+02 -0.72493877397E+03  0.72571409958E+03  0.00000000000E+00 0. -1.
<mgrwt>
<rscale>  1 0.30000000E+03</rscale>
<asrwt>0</asrwt>
<pdfrwt beam="1">  1       21 0.52057746E-02 0.30000000E+03</pdfrwt>
<pdfrwt beam="2">0</pdfrwt>
<totfact> 0.26888851E+04</totfact>
</mgrwt>
</event>
<event>
 6    1  0.1270461E-001  0.3000000E+03  0.7818608E-02  0.1093470E+00
         21   -1    0    0  501  502  0.00000000000E+00  0.00000000000E+00  0.11362016862E+02  0.11362016862E+02  0.00000000000E+00 0. -1.
         13   -1    0    0    0    0 -0.00000000000E+00 -0.00000000000E+00 -0.10000000000E+04  0.10000000000E+04  0.00000000000E+00 0.  1.
    9000005    2    1    2  501    0 -0.78816749678E+02 -0.86652548836E+01 -0.83175783861E+03  0.83558219316E+03  0.94516015570E+01 0.  0.
         13    1    3    3    0    0 -0.12187919634E+02 -0.42463465582E+01 -0.11573815166E+03  0.11645555630E+03  0.00000000000E+00 0.  1.
          3    1    3    3  501    0 -0.66628830043E+02 -0.44189083254E+01 -0.71601968695E+03  0.71912663686E+03  0.00000000000E+00 0.  1.
         -3    1    1    2    0  502  0.78816749678E+02  0.86652548836E+01 -0.15688014453E+03  0.17577982370E+03  0.00000000000E+00 0. -1.
<mgrwt>
<rscale>  1 0.30000000E+03</rscale>
<asrwt>0</asrwt>
<pdfrwt beam="1">  1       21 0.41316512E-01 0.30000000E+03</pdfrwt>
<pdfrwt beam="2">0</pdfrwt>
<totfact> 0.56440713E+02</totfact>
</mgrwt>
</event>
<event>
 6    1  0.1270461E-001  0.3000000E+03  0.7818608E-02  0.1093470E+00
         21   -1    0    0  501  502  0.00000000000E+00  0.00000000000E+00  0.17530937253E+01  0.17530937253E+01  0.00000000000E+00 0. -1.
         13   -1    0    0    0    0 -0.00000000000E+00 -0.00000000000E+00 -0.10000000000E+04  0.10000000000E+04  0.00000000000E+00 0.  1.
    9000005    2    1    2  501    0  0.39449648455E+02  0.11072360946E+02 -0.59919535715E+03  0.60060348224E+03  0.32549811600E+01 0.  0.
         13    1    3    3    0    0  0.14501165073E+02  0.57067918228E+01 -0.22574170805E+03  0.22627896503E+03  0.00000000000E+00 0.  1.
          3    1    3    3  501    0  0.24948483382E+02  0.53655691228E+01 -0.37345364910E+03  0.37432451721E+03  0.00000000000E+00 0.  1.
         -1    1    1    2    0  502 -0.39449648455E+02 -0.11072360946E+02 -0.39905154912E+03  0.40114961149E+03  0.00000000000E+00 0. -1.
<mgrwt>
<rscale>  1 0.30000000E+03</rscale>
<asrwt>0</asrwt>
<pdfrwt beam="1">  1       21 0.63748997E-02 0.30000000E+03</pdfrwt>
<pdfrwt beam="2">0</pdfrwt>
<totfact> 0.18977631E+04</totfact>
</mgrwt>
</event>
<event>
 6    1  0.1270461E-001  0.3000000E+03  0.7818608E-02  0.1093470E+00
         21   -1    0    0  501  502  0.00000000000E+00  0.00000000000E+00  0.70615389269E+01  0.70615389269E+01  0.00000000000E+00 0. -1.
         13   -1    0    0    0    0 -0.00000000000E+00 -0.00000000000E+00 -0.10000000000E+04  0.10000000000E+04  0.00000000000E+00 0.  1.
    9000005    2    1    2  501    0  0.43371287590E+01  0.62716263664E+02 -0.83051190927E+03  0.83289344442E+03  0.30525240968E+01 0.  0.
         13    1    3    3    0    0  0.36712553024E+01  0.33521001569E+02 -0.43574794632E+03  0.43705080755E+03  0.00000000000E+00 0.  1.
          1    1    3    3  501    0  0.66587345656E+00  0.29195262094E+02 -0.39476396295E+03  0.39584263687E+03  0.00000000000E+00 0.  1.
         -3    1    1    2    0  502 -0.43371287590E+01 -0.62716263664E+02 -0.16242655180E+03  0.17416809451E+03  0.00000000000E+00 0. -1.
<mgrwt>
<rscale>  1 0.30000000E+03</rscale>
<asrwt>0</asrwt>
<pdfrwt beam="1">  1       21 0.25678378E-01 0.30000000E+03</pdfrwt>
<pdfrwt beam="2">0</pdfrwt>
<totfact> 0.14798062E+03</totfact>
</mgrwt>
</event>
<event>
 6    1  0.1270461E-001  0.3000000E+03  0.7818608E-02  0.1093470E+00
         21   -1    0    0  501  502  0.00000000000E+00  0.00000000000E+00  0.20583929529E+01  0.20583929529E+01  0.00000000000E+00 0. -1.
         13   -1    0    0    0    0 -0.00000000000E+00 -0.00000000000E+00 -0.10000000000E+04  0.10000000000E+04  0.00000000000E+00 0.  1.
    9000005    2    1    2  501    0  0.35671197643E+02 -0.17876281592E+02 -0.73665880253E+03  0.73774664573E+03  0.34534262543E+01 0.  0.
         13    1    3    3    0    0  0.35287150985E+02 -0.17657354631E+02 -0.73299179333E+03  0.73405308684E+03  0.00000000000E+00 0.  1.
          3    1    3    3  501    0  0.38404665870E+00 -0.21892696163E+00 -0.36670091953E+01  0.36935588921E+01  0.00000000000E+00 0.  1.
         -3    1    1    2    0  502 -0.35671197643E+02  0.17876281592E+02 -0.26128280452E+03  0.26431174723E+03  0.00000000000E+00 0. -1.
<mgrwt>
<rscale>  1 0.30000000E+03</rscale>
<asrwt>0</asrwt>
<pdfrwt beam="1">  1       21 0.74850811E-02 0.30000000E+03</pdfrwt>
<pdfrwt beam="2">0</pdfrwt>
<totfact> 0.14354417E+04</totfact>
</mgrwt>
</event>
<event>
 6    1  0.1270461E-001  0.3000000E+03  0.7818608E-02  0.1093470E+00
         21   -1    0    0  501  502  0.00000000000E+00  0.00000000000E+00  0.10263057809E+01  0.10263057809E+01  0.00000000000E+00 0. -1.
         13   -1    0    0    0    0 -0.00000000000E+00 -0.00000000000E+00 -0.10000000000E+04  0.10000000000E+04  0.00000000000E+00 0.  1.
    9000005    2    1    2  501    0  0.12756665285E+02 -0.28975128011E+02 -0.43412334147E+03  0.43528943094E+03  0.33944848780E+01 0.  0.
         13    1    3    3    0    0  0.49708897758E+01 -0.80466634717E+01 -0.14087498036E+03  0.14119213374E+03  0.00000000000E+00 0.  1.
          3    1    3    3  501    0  0.77857755096E+01 -0.20928464540E+02 -0.29324836111E+03  0.29409729720E+03  0.00000000000E+00 0.  1.
         -3    1    1    2    0  502 -0.12756665285E+02  0.28975128011E+02 -0.56485035275E+03  0.56573687484E+03  0.00000000000E+00 0. -1.
<mgrwt>
<rscale>  1 0.30000000E+03</rscale>
<asrwt>0</asrwt>
<pdfrwt beam="1">  1       21 0.37320289E-02 0.30000000E+03</pdfrwt>
<pdfrwt beam="2">0</pdfrwt>
<totfact> 0.47246844E+04</totfact>
</mgrwt>
</event>
<event>
 6    1  0.1270461E-001  0.3000000E+03  0.7818608E-02  0.1093470E+00
         21   -1    0    0  501  502  0.00000000000E+00  0.00000000000E+00  0.15304438110E+01  0.15304438110E+01  0.00000000000E+00 0. -1.
         13   -1    0    0    0    0 -0.00000000000E+00 -0.00000000000E+00 -0.10000000000E+04  0.10000000000E+04  0.00000000000E+00 0.  1.
    9000005    2    1    2  501    0 -0.20939485707E+02  0.27230963348E+02 -0.73763333271E+03  0.73844201209E+03  0.36992253860E+01 0.  0.
         13    1    3    3    0    0 -0.77057256384E+00  0.69687552641E+00 -0.39361199107E+02  0.39374908416E+02  0.00000000000E+00 0.  1.
          1    1    3    3  501    0 -0.20168913143E+02  0.26534087821E+02 -0.69827213360E+03  0.69906710367E+03  0.00000000000E+00 0.  1.
         -1    1    1    2    0  502  0.20939485707E+02 -0.27230963348E+02 -0.26083622348E+03  0.26308843172E+03  0.00000000000E+00 0. -1.
<mgrwt>
<rscale>  1 0.30000000E+03</rscale>
<asrwt>0</asrwt>
<pdfrwt beam="1">  1       21 0.55652620E-02 0.30000000E+03</pdfrwt>
<pdfrwt beam="2">0</pdfrwt>
<totfact> 0.23983887E+04</totfact>
</mgrwt>
</event>
<event>
 6    1  0.1270461E-001  0.3000000E+03  0.7818608E-02  0.1093470E+00
         21   -1    0    0  501  502  0.00000000000E+00  0.00000000000E+00  0.27570922308E+01  0.27570922308E+01  0.00000000000E+00 0. -1.
         13   -1    0    0    0    0 -0.00000000000E+00 -0.00000000000E+00 -0.10000000000E+04  0.10000000000E+04  0.00000000000E+00 0.  1.
    9000005    2    1    2  501    0 -0.52702728145E+01  0.52059610889E+02 -0.53713570229E+03  0.53968407488E+03  0.24817628102E+01 0.  0.
         13    1    3    3    0    0  0.19774290071E+00  0.55718042291E+01 -0.56186728802E+02  0.56462665524E+02  0.00000000000E+00 0.  1.
          1    1    3    3  501    0 -0.54680157153E+01  0.46487806660E+02 -0.48094897349E+03  0.48322140936E+03  0.00000000000E+00 0.  1.
         -1    1    1    2    0  502  0.52702728145E+01 -0.52059610889E+02 -0.46010720548E+03  0.46307301735E+03  0.00000000000E+00 0. -1.
<mgrwt>
<rscale>  1 0.30000000E+03</rscale>
<asrwt>0</asrwt>
<pdfrwt beam="1">  1       21 0.10025811E-01 0.30000000E+03</pdfrwt>
<pdfrwt beam="2">0</pdfrwt>
<totfact> 0.85636588E+03</totfact>
</mgrwt>
</event>
<event>
 6    1  0.1270461E-001  0.3000000E+03  0.7818608E-02  0.1093470E+00
         21   -1    0    0  501  502  0.00000000000E+00  0.00000000000E+00  0.28320509760E+01  0.28320509760E+01  0.00000000000E+00 0. -1.
         13   -1    0    0    0    0 -0.00000000000E+00 -0.00000000000E+00 -0.10000000000E+04  0.10000000000E+04  0.00000000000E+00 0.  1.
    9000005    2    1    2  501    0  0.18897644571E+02 -0.30165675038E+02 -0.87112539699E+03  0.87185948192E+03  0.35227856838E+01 0.  0.
         13    1    3    3    0    0  0.47248400071E+01 -0.86924471659E+01 -0.27903308011E+03  0.27920842134E+03  0.00000000000E+00 0.  1.
          3    1    3    3  501    0  0.14172804564E+02 -0.21473227872E+02 -0.59209231688E+03  0.59265106059E+03  0.00000000000E+00 0.  1.
         -1    1    1    2    0  502 -0.18897644571E+02  0.30165675038E+02 -0.12604255203E+03  0.13097256905E+03  0.00000000000E+00 0. -1.
<mgrwt>
<rscale>  1 0.30000000E+03</rscale>
<asrwt>0</asrwt>
<pdfrwt beam="1">  1       21 0.10298389E-01 0.30000000E+03</pdfrwt>
<pdfrwt beam="2">0</pdfrwt>
<totfact> 0.81624872E+03</totfact>
</mgrwt>
</event>
<event>
 6    1  0.1270461E-001  0.3000000E+03  0.7818608E-02  0.1093470E+00
         21   -1    0    0  501  502  0.00000000000E+00  0.00000000000E+00  0.14035546761E+01  0.14035546761E+01  0.00000000000E+00 0. -1.
         13   -1    0    0    0    0 -0.00000000000E+00 -0.00000000000E+00 -0.10000000000E+04  0.10000000000E+04  0.00000000000E+00 0.  1.
    9000005    2    1    2  501    0  0.30759971261E+02 -0.21076763096E+02 -0.46906773546E+03  0.47056359730E+03  0.38926702838E+01 0.  0.
         13    1    3    3    0    0  0.15647727528E+02 -0.94092696858E+01 -0.20904755935E+03  0.20984343641E+03  0.00000000000E+00 0.  1.
          3    1    3    3  501    0  0.15112243733E+02 -0.11667493410E+02 -0.26002017611E+03  0.26072016089E+03  0.00000000000E+00 0.  1.
         -1    1    1    2    0  502 -0.30759971261E+02  0.21076763096E+02 -0.52952870987E+03  0.53083995738E+03  0.00000000000E+00 0. -1.
<mgrwt>
<rscale>  1 0.30000000E+03</rscale>
<asrwt>0</asrwt>
<pdfrwt beam="1">  1       21 0.51038459E-02 0.30000000E+03</pdfrwt>
<pdfrwt beam="2">0</pdfrwt>
<totfact> 0.27812223E+04</totfact>
</mgrwt>
</event>
<event>
 6    1  0.1270461E-001  0.3000000E+03  0.7818608E-02  0.1093470E+00
         21   -1    0    0  501  502  0.00000000000E+00  0.00000000000E+00  0.25662659252E+01  0.25662659252E+01  0.00000000000E+00 0. -1.
         13   -1    0    0    0    0 -0.00000000000E+00 -0.00000000000E+00 -0.10000000000E+04  0.10000000000E+04  0.00000000000E+00 0.  1.
    9000005    2    1    2  501    0 -0.40338383504E+02  0.29054796802E+02 -0.58806805097E+03  0.59019309888E+03  0.57004372358E+01 0.  0.
         13    1    3    3    0    0 -0.34690677562E+02  0.22343924752E+02 -0.48219456438E+03  0.48395691131E+03  0.00000000000E+00 0.  1.
          3    1    3    3  501    0 -0.56477059417E+01  0.67108720497E+01 -0.10587348659E+03  0.10623618757E+03  0.00000000000E+00 0.  1.
         -3    1    1    2    0  502  0.40338383504E+02 -0.29054796802E+02 -0.40936568310E+03  0.41237316705E+03  0.00000000000E+00 0. -1.
<mgrwt>
<rscale>  1 0.30000000E+03</rscale>
<asrwt>0</asrwt>
<pdfrwt beam="1">  1       21 0.93318958E-02 0.30000000E+03</pdfrwt>
<pdfrwt beam="2">0</pdfrwt>
<totfact> 0.97320790E+03</totfact>
</mgrwt>
</event>
<event>
 6    1  0.1270461E-001  0.3000000E+03  0.7818608E-02  0.1093470E+00
         21   -1    0    0  501  502  0.00000000000E+00  0.00000000000E+00  0.66853646533E+01  0.66853646533E+01  0.00000000000E+00 0. -1.
         13   -1    0    0    0    0 -0.00000000000E+00 -0.00000000000E+00 -0.10000000000E+04  0.10000000000E+04  0.00000000000E+00 0.  1.
    9000005    2    1    2  501    0  0.10082946431E+02 -0.34287333146E+02 -0.94935106860E+03  0.95002777713E+03  0.28352854138E+01 0.  0.
         13    1    3    3    0    0  0.54802723478E+00 -0.54682970550E+01 -0.14406157300E+03  0.14416636023E+03  0.00000000000E+00 0.  1.
          1    1    3    3  501    0  0.95349191959E+01 -0.28819036091E+02 -0.80528949560E+03  0.80586141690E+03  0.00000000000E+00 0.  1.
         -1    1    1    2    0  502 -0.10082946431E+02  0.34287333146E+02 -0.43963566751E+02  0.56657587528E+02  0.00000000000E+00 0. -1.
<mgrwt>
<rscale>  1 0.30000000E+03</rscale>
<asrwt>0</asrwt>
<pdfrwt beam="1">  1       21 0.24310468E-01 0.30000000E+03</pdfrwt>
<pdfrwt beam="2">0</pdfrwt>
<totfact> 0.16471613E+03</totfact>
</mgrwt>
</event>
<event>
 6    1  0.1270461E-001  0.3000000E+03  0.7818608E-02  0.1093470E+00
         21   -1    0    0  501  502  0.00000000000E+00  0.00000000000E+00  0.20173313729E+01  0.20173313729E+01  0.00000000000E+00 0. -1.
         13   -1    0    0    0    0 -0.00000000000E+00 -0.00000000000E+00 -0.10000000000E+04  0.10000000000E+04  0.00000000000E+00 0.  1.
    9000005    2    1    2  501    0  0.37114583806E+02 -0.15886762317E+02 -0.71786281300E+03  0.71900317084E+03  0.29427598696E+01 0.  0.
         13    1    3    3    0    0  0.14557293523E+02 -0.47428234504E+01 -0.27880562156E+03  0.27922568611E+03  0.00000000000E+00 0.  1.
          1    1    3    3  501    0  0.22557290282E+02 -0.11143938866E+02 -0.43905719144E+03  0.43977748473E+03  0.00000000000E+00 0.  1.
         -1    1    1    2    0  502 -0.37114583806E+02  0.15886762317E+02 -0.28011985563E+03  0.28301416054E+03  0.00000000000E+00 0. -1.
<mgrwt>
<rscale>  1 0.30000000E+03</rscale>
<asrwt>0</asrwt>
<pdfrwt beam="1">  1       21 0.73357659E-02 0.30000000E+03</pdfrwt>
<pdfrwt beam="2">0</pdfrwt>
<totfact> 0.14869414E+04</totfact>
</mgrwt>
</event>
<event>
 6    1  0.1270461E-001  0.3000000E+03  0.7818608E-02  0.1093470E+00
         21   -1    0    0  501  502  0.00000000000E+00  0.00000000000E+00  0.11712428143E+01  0.11712428143E+01  0.00000000000E+00 0. -1.
         13   -1    0    0    0    0 -0.00000000000E+00 -0.00000000000E+00 -0.10000000000E+04  0.10000000000E+04  0.00000000000E+00 0.  1.
    9000005    2    1    2  501    0  0.18685757160E+02  0.27145477161E+02 -0.63263843658E+03  0.63350103004E+03  0.24757183468E+01 0.  0.
         13    1    3    3    0    0  0.19919290370E+01  0.32531745950E+01 -0.89214006068E+02  0.89295519512E+02  0.00000000000E+00 0.  1.
          1    1    3    3  501    0  0.16693828123E+02  0.23892302566E+02 -0.54342443051E+03  0.54420551053E+03  0.00000000000E+00 0.  1.
         -3    1    1    2    0  502 -0.18685757160E+02 -0.27145477161E+02 -0.36619032061E+03  0.36767021277E+03  0.00000000000E+00 0. -1.
<mgrwt>
<rscale>  1 0.30000000E+03</rscale>
<asrwt>0</asrwt>
<pdfrwt beam="1">  1       21 0.42590738E-02 0.30000000E+03</pdfrwt>
<pdfrwt beam="2">0</pdfrwt>
<totfact> 0.37823370E+04</totfact>
</mgrwt>
</event>
<event>
 6    1  0.1270461E-001  0.3000000E+03  0.7818608E-02  0.1093470E+00
         21   -1    0    0  501  502  0.00000000000E+00  0.00000000000E+00  0.15403886436E+01  0.15403886436E+01  0.00000000000E+00 0. -1.
         13   -1    0    0    0    0 -0.00000000000E+00 -0.00000000000E+00 -0.10000000000E+04  0.10000000000E+04  0.00000000000E+00 0.  1.
    9000005    2    1    2  501    0 -0.35747465125E+02  0.35504054956E+01 -0.69985548364E+03  0.70078315809E+03  0.29749011693E+01 0.  0.
         13    1    3    3    0    0 -0.34839139152E+02  0.31495194465E+01 -0.68660088048E+03  0.68749142116E+03  0.00000000000E+00 0.  1.
          3    1    3    3  501    0 -0.90832597349E+00  0.40088604909E+00 -0.13254603165E+02  0.13291736936E+02  0.00000000000E+00 0.  1.
         -1    1    1    2    0  502  0.35747465125E+02 -0.35504054956E+01 -0.29860412771E+03  0.30075723055E+03  0.00000000000E+00 0. -1.
<mgrwt>
<rscale>  1 0.30000000E+03</rscale>
<asrwt>0</asrwt>
<pdfrwt beam="1">  1       21 0.56014251E-02 0.30000000E+03</pdfrwt>
<pdfrwt beam="2">0</pdfrwt>
<totfact> 0.23718696E+04</totfact>
</mgrwt>
</event>
<event>
 6    1  0.1270461E-001  0.3000000E+03  0.7818608E-02  0.1093470E+00
         21   -1    0    0  501  502  0.00000000000E+00  0.00000000000E+00  0.21528905188E+01  0.21528905188E+01  0.00000000000E+00 0. -1.
         13   -1    0    0    0    0 -0.00000000000E+00 -0.00000000000E+00 -0.10000000000E+04  0.10000000000E+04  0.00000000000E+00 0.  1.
    9000005    2    1    2  501    0  0.13795287612E+02  0.33837837425E+02 -0.80759317649E+03  0.80842145729E+03  0.17901657708E+01 0.  0.
         13    1    3    3    0    0  0.43603790266E+01  0.12924282254E+02 -0.30560834878E+03  0.30591259016E+03  0.00000000000E+00 0.  1.
          3    1    3    3  501    0  0.94349085851E+01  0.20913555170E+02 -0.50198482771E+03  0.50250886713E+03  0.00000000000E+00 0.  1.
         -3    1    1    2    0  502 -0.13795287612E+02 -0.33837837425E+02 -0.19025393299E+03  0.19373143323E+03  0.00000000000E+00 0. -1.
<mgrwt>
<rscale>  1 0.30000000E+03</rscale>
<asrwt>0</asrwt>
<pdfrwt beam="1">  1       21 0.78287093E-02 0.30000000E+03</pdfrwt>
<pdfrwt beam="2">0</pdfrwt>
<totfact> 0.13268536E+04</totfact>
</mgrwt>
</event>
<event>
 6    1  0.1270461E-001  0.3000000E+03  0.7818608E-02  0.1093470E+00
         21   -1    0    0  501  502  0.00000000000E+00  0.00000000000E+00  0.21237370936E+01  0.21237370936E+01  0.00000000000E+00 0. -1.
         13   -1    0    0    0    0 -0.00000000000E+00 -0.00000000000E+00 -0.10000000000E+04  0.10000000000E+04  0.00000000000E+00 0.  1.
    9000005    2    1    2  501    0 -0.37338157639E+02  0.22544814041E+01 -0.79115739671E+03  0.79204777383E+03  0.32293881105E+01 0.  0.
         13    1    3    3    0    0 -0.68044149511E+00 -0.28011542649E+00 -0.23386005152E+02  0.23397578983E+02  0.00000000000E+00 0.  1.
          3    1    3    3  501    0 -0.36657716144E+02  0.25345968306E+01 -0.76777139156E+03  0.76865019484E+03  0.00000000000E+00 0.  1.
         -3    1    1    2    0  502  0.37338157639E+02 -0.22544814041E+01 -0.20671886619E+03  0.21007596327E+03  0.00000000000E+00 0. -1.
<mgrwt>
<rscale>  1 0.30000000E+03</rscale>
<asrwt>0</asrwt>
<pdfrwt beam="1">  1       21 0.77226966E-02 0.30000000E+03</pdfrwt>
<pdfrwt beam="2">0</pdfrwt>
<totfact> 0.13589627E+04</totfact>
</mgrwt>
</event>
<event>
 6    1  0.1270461E-001  0.3000000E+03  0.7818608E-02  0.1093470E+00
         21   -1    0    0  501  502  0.00000000000E+00  0.00000000000E+00  0.22909432408E+01  0.22909432408E+01  0.00000000000E+00 0. -1.
         13   -1    0    0    0    0 -0.00000000000E+00 -0.00000000000E+00 -0.10000000000E+04  0.10000000000E+04  0.00000000000E+00 0.  1.
    9000005    2    1    2  501    0  0.16161887917E+02 -0.40639009643E+02 -0.70140046492E+03  0.70277213360E+03  0.36501863994E+01 0.  0.
         13    1    3    3    0    0  0.82213662440E+01 -0.24715058491E+02 -0.43243784400E+03  0.43322155291E+03  0.00000000000E+00 0.  1.
          1    1    3    3  501    0  0.79405216725E+01 -0.15923951152E+02 -0.26896262092E+03  0.26955058070E+03  0.00000000000E+00 0.  1.
         -3    1    1    2    0  502 -0.16161887917E+02  0.40639009643E+02 -0.29630859184E+03  0.29951880964E+03  0.00000000000E+00 0. -1.
<mgrwt>
<rscale>  1 0.30000000E+03</rscale>
<asrwt>0</asrwt>
<pdfrwt beam="1">  1       21 0.83307203E-02 0.30000000E+03</pdfrwt>
<pdfrwt beam="2">0</pdfrwt>
<totfact> 0.11895537E+04</totfact>
</mgrwt>
</event>
<event>
 6    1  0.1270461E-001  0.3000000E+03  0.7818608E-02  0.1093470E+00
         21   -1    0    0  501  502  0.00000000000E+00  0.00000000000E+00  0.15096419443E+01  0.15096419443E+01  0.00000000000E+00 0. -1.
         13   -1    0    0    0    0 -0.00000000000E+00 -0.00000000000E+00 -0.10000000000E+04  0.10000000000E+04  0.00000000000E+00 0.  1.
    9000005    2    1    2  501    0  0.29854969738E+02 -0.10720760648E+02 -0.78778752179E+03  0.78843233406E+03  0.31799321609E+01 0.  0.
         13    1    3    3    0    0  0.57285671717E+00 -0.35741264478E+00 -0.31443471994E+02  0.31450720813E+02  0.00000000000E+00 0.  1.
          1    1    3    3  501    0  0.29282113021E+02 -0.10363348003E+02 -0.75634404980E+03  0.75698161325E+03  0.00000000000E+00 0.  1.
         -3    1    1    2    0  502 -0.29854969738E+02  0.10720760648E+02 -0.21070283626E+03  0.21307730789E+03  0.00000000000E+00 0. -1.
<mgrwt>
<rscale>  1 0.30000000E+03</rscale>
<asrwt>0</asrwt>
<pdfrwt beam="1">  1       21 0.54896186E-02 0.30000000E+03</pdfrwt>
<pdfrwt beam="2">0</pdfrwt>
<totfact> 0.24553557E+04</totfact>
</mgrwt>
</event>
<event>
 6    1  0.1270461E-001  0.3000000E+03  0.7818608E-02  0.1093470E+00
         21   -1    0    0  501  502  0.00000000000E+00  0.00000000000E+00  0.11623382581E+01  0.11623382581E+01  0.00000000000E+00 0. -1.
         13   -1    0    0    0    0 -0.00000000000E+00 -0.00000000000E+00 -0.10000000000E+04  0.10000000000E+04  0.00000000000E+00 0.  1.
    9000005    2    1    2  501    0  0.29030993976E+02  0.14576688324E+02 -0.64680256245E+03  0.64763159053E+03  0.42241934789E+01 0.  0.
         13    1    3    3    0    0  0.11014562839E+02  0.67144953889E+01 -0.29219270403E+03  0.29247731763E+03  0.00000000000E+00 0.  1.
          1    1    3    3  501    0  0.18016431137E+02  0.78621929354E+01 -0.35460985842E+03  0.35515427290E+03  0.00000000000E+00 0.  1.
         -3    1    1    2    0  502 -0.29030993976E+02 -0.14576688324E+02 -0.35203509929E+03  0.35353074773E+03  0.00000000000E+00 0. -1.
<mgrwt>
<rscale>  1 0.30000000E+03</rscale>
<asrwt>0</asrwt>
<pdfrwt beam="1">  1       21 0.42266935E-02 0.30000000E+03</pdfrwt>
<pdfrwt beam="2">0</pdfrwt>
<totfact> 0.38314277E+04</totfact>
</mgrwt>
</event>
<event>
 6    1  0.1270461E-001  0.3000000E+03  0.7818608E-02  0.1093470E+00
         21   -1    0    0  501  502  0.00000000000E+00  0.00000000000E+00  0.16689302053E+01  0.16689302053E+01  0.00000000000E+00 0. -1.
         13   -1    0    0    0    0 -0.00000000000E+00 -0.00000000000E+00 -0.10000000000E+04  0.10000000000E+04  0.00000000000E+00 0.  1.
    9000005    2    1    2  501    0  0.36717222323E+02  0.14526844349E+02 -0.62513540276E+03  0.62639011450E+03  0.33346874935E+01 0.  0.
         13    1    3    3    0    0  0.34243273779E+02  0.12654800130E+02 -0.57087668680E+03  0.57204277576E+03  0.00000000000E+00 0.  1.
          3    1    3    3  501    0  0.24739485442E+01  0.18720442186E+01 -0.54258715965E+02  0.54347338749E+02  0.00000000000E+00 0.  1.
         -1    1    1    2    0  502 -0.36717222323E+02 -0.14526844349E+02 -0.37319566703E+03  0.37527881570E+03  0.00000000000E+00 0. -1.
<mgrwt>
<rscale>  1 0.30000000E+03</rscale>
<asrwt>0</asrwt>
<pdfrwt beam="1">  1       21 0.60688499E-02 0.30000000E+03</pdfrwt>
<pdfrwt beam="2">0</pdfrwt>
<totfact> 0.20660986E+04</totfact>
</mgrwt>
</event>
<event>
 6    1  0.1270461E-001  0.3000000E+03  0.7818608E-02  0.1093470E+00
         21   -1    0    0  501  502  0.00000000000E+00  0.00000000000E+00  0.25109532428E+01  0.25109532428E+01  0.00000000000E+00 0. -1.
         13   -1    0    0    0    0 -0.00000000000E+00 -0.00000000000E+00 -0.10000000000E+04  0.10000000000E+04  0.00000000000E+00 0.  1.
    9000005    2    1    2  501    0  0.47029093233E+02 -0.10344249142E+02 -0.36216787235E+03  0.36536753630E+03  0.30215427123E+01 0.  0.
         13    1    3    3    0    0  0.36610946801E+02 -0.76750164861E+01 -0.27181741023E+03  0.27437924814E+03  0.00000000000E+00 0.  1.
          1    1    3    3  501    0  0.10418146432E+02 -0.26692326555E+01 -0.90350462116E+02  0.90988288162E+02  0.00000000000E+00 0.  1.
         -1    1    1    2    0  502 -0.47029093233E+02  0.10344249142E+02 -0.63532117441E+03  0.63714341695E+03  0.00000000000E+00 0. -1.
<mgrwt>
<rscale>  1 0.30000000E+03</rscale>
<asrwt>0</asrwt>
<pdfrwt beam="1">  1       21 0.91307583E-02 0.30000000E+03</pdfrwt>
<pdfrwt beam="2">0</pdfrwt>
<totfact> 0.10116067E+04</totfact>
</mgrwt>
</event>
<event>
 6    1  0.1270461E-001  0.3000000E+03  0.7818608E-02  0.1093470E+00
         21   -1    0    0  501  502  0.00000000000E+00  0.00000000000E+00  0.20015757882E+01  0.20015757882E+01  0.00000000000E+00 0. -1.
         13   -1    0    0    0    0 -0.00000000000E+00 -0.00000000000E+00 -0.10000000000E+04  0.10000000000E+04  0.00000000000E+00 0.  1.
    9000005    2    1    2  501    0 -0.43550490168E+02 -0.90517792761E+01 -0.45531338711E+03  0.45749663605E+03  0.37830696755E+01 0.  0.
         13    1    3    3    0    0 -0.36305657158E+02 -0.61686260419E+01 -0.38061791570E+03  0.38239528036E+03  0.00000000000E+00 0.  1.
          3    1    3    3  501    0 -0.72448330103E+01 -0.28831532342E+01 -0.74695471405E+02  0.75101355690E+02  0.00000000000E+00 0.  1.
         -1    1    1    2    0  502  0.43550490168E+02  0.90517792761E+01 -0.54268503710E+03  0.54450493974E+03  0.00000000000E+00 0. -1.
<mgrwt>
<rscale>  1 0.30000000E+03</rscale>
<asrwt>0</asrwt>
<pdfrwt beam="1">  1       21 0.72784728E-02 0.30000000E+03</pdfrwt>
<pdfrwt beam="2">0</pdfrwt>
<totfact> 0.15074486E+04</totfact>
</mgrwt>
</event>
<event>
 6    1  0.1270461E-001  0.3000000E+03  0.7818608E-02  0.1093470E+00
         21   -1    0    0  501  502  0.00000000000E+00  0.00000000000E+00  0.22126510341E+02  0.22126510341E+02  0.00000000000E+00 0. -1.
         13   -1    0    0    0    0 -0.00000000000E+00 -0.00000000000E+00 -0.10000000000E+04  0.10000000000E+04  0.00000000000E+00 0.  1.
    9000005    2    1    2  501    0 -0.14273205099E+03 -0.30747761499E+02 -0.58385524348E+03  0.60192627053E+03  0.10508406086E+02 0.  0.
         13    1    3    3    0    0 -0.74483132781E+02 -0.20181848075E+02 -0.29433519367E+03  0.30428317452E+03  0.00000000000E+00 0.  1.
          3    1    3    3  501    0 -0.68248918207E+02 -0.10565913424E+02 -0.28952004981E+03  0.29764309601E+03  0.00000000000E+00 0.  1.
         -1    1    1    2    0  502  0.14273205099E+03  0.30747761499E+02 -0.39401824618E+03  0.42020023981E+03  0.00000000000E+00 0. -1.
<mgrwt>
<rscale>  1 0.30000000E+03</rscale>
<asrwt>0</asrwt>
<pdfrwt beam="1">  1       21 0.80460207E-01 0.30000000E+03</pdfrwt>
<pdfrwt beam="2">0</pdfrwt>
<totfact> 0.12693393E+02</totfact>
</mgrwt>
</event>
<event>
 6    1  0.1270461E-001  0.3000000E+03  0.7818608E-02  0.1093470E+00
         21   -1    0    0  501  502  0.00000000000E+00  0.00000000000E+00  0.21356455435E+01  0.21356455435E+01  0.00000000000E+00 0. -1.
         13   -1    0    0    0    0 -0.00000000000E+00 -0.00000000000E+00 -0.10000000000E+04  0.10000000000E+04  0.00000000000E+00 0.  1.
    9000005    2    1    2  501    0  0.44200350777E+01 -0.38035597247E+02 -0.77897192282E+03  0.77991921951E+03  0.32386823135E+01 0.  0.
         13    1    3    3    0    0  0.29694041159E+01 -0.12459883277E+02 -0.26398142831E+03  0.26429199864E+03  0.00000000000E+00 0.  1.
          3    1    3    3  501    0  0.14506309618E+01 -0.25575713969E+02 -0.51499049451E+03  0.51562722088E+03  0.00000000000E+00 0.  1.
         -3    1    1    2    0  502 -0.44200350777E+01  0.38035597247E+02 -0.21889243164E+03  0.22221642603E+03  0.00000000000E+00 0. -1.
<mgrwt>
<rscale>  1 0.30000000E+03</rscale>
<asrwt>0</asrwt>
<pdfrwt beam="1">  1       21 0.77660002E-02 0.30000000E+03</pdfrwt>
<pdfrwt beam="2">0</pdfrwt>
<totfact> 0.13457037E+04</totfact>
</mgrwt>
</event>
<event>
 6    1  0.1270461E-001  0.3000000E+03  0.7818608E-02  0.1093470E+00
         21   -1    0    0  501  502  0.00000000000E+00  0.00000000000E+00  0.80337548317E+01  0.80337548317E+01  0.00000000000E+00 0. -1.
         13   -1    0    0    0    0 -0.00000000000E+00 -0.00000000000E+00 -0.10000000000E+04  0.10000000000E+04  0.00000000000E+00 0.  1.
    9000005    2    1    2  501    0 -0.38963167909E+00  0.32078481178E+02 -0.96658443025E+03  0.96712633135E+03  0.43242595769E+01 0.  0.
         13    1    3    3    0    0 -0.21550639386E+01  0.18847541120E+02 -0.54000275284E+03  0.54033586516E+03  0.00000000000E+00 0.  1.
          3    1    3    3  501    0  0.17654322595E+01  0.13230940058E+02 -0.42658167741E+03  0.42679046618E+03  0.00000000000E+00 0.  1.
         -1    1    1    2    0  502  0.38963167909E+00 -0.32078481178E+02 -0.25381814923E+02  0.40907423486E+02  0.00000000000E+00 0. -1.
<mgrwt>
<rscale>  1 0.30000000E+03</rscale>
<asrwt>0</asrwt>
<pdfrwt beam="1">  1       21 0.29213716E-01 0.30000000E+03</pdfrwt>
<pdfrwt beam="2">0</pdfrwt>
<totfact> 0.11464958E+03</totfact>
</mgrwt>
</event>
<event>
 6    1  0.1270461E-001  0.3000000E+03  0.7818608E-02  0.1093470E+00
         21   -1    0    0  501  502  0.00000000000E+00  0.00000000000E+00  0.10212892509E+02  0.10212892509E+02  0.00000000000E+00 0. -1.
         13   -1    0    0    0    0 -0.00000000000E+00 -0.00000000000E+00 -0.10000000000E+04  0.10000000000E+04  0.00000000000E+00 0.  1.
    9000005    2    1    2  501    0 -0.40997338934E+02 -0.43641614666E+02 -0.90175994528E+03  0.90375091048E+03  0.30556425171E+01 0.  0.
         13    1    3    3    0    0 -0.76844897954E+01 -0.69565135265E+01 -0.16836102795E+03  0.16867981562E+03  0.00000000000E+00 0.  1.
          3    1    3    3  501    0 -0.33312849139E+02 -0.36685101140E+02 -0.73339891733E+03  0.73507109486E+03  0.00000000000E+00 0.  1.
         -3    1    1    2    0  502  0.40997338934E+02  0.43641614666E+02 -0.88027162207E+02  0.10646198202E+03  0.00000000000E+00 0. -1.
<mgrwt>
<rscale>  1 0.30000000E+03</rscale>
<asrwt>0</asrwt>
<pdfrwt beam="1">  1       21 0.37137869E-01 0.30000000E+03</pdfrwt>
<pdfrwt beam="2">0</pdfrwt>
<totfact> 0.70457900E+02</totfact>
</mgrwt>
</event>
<event>
 6    1  0.1270461E-001  0.3000000E+03  0.7818608E-02  0.1093470E+00
         21   -1    0    0  501  502  0.00000000000E+00  0.00000000000E+00  0.22999630515E+01  0.22999630515E+01  0.00000000000E+00 0. -1.
         13   -1    0    0    0    0 -0.00000000000E+00 -0.00000000000E+00 -0.10000000000E+04  0.10000000000E+04  0.00000000000E+00 0.  1.
    9000005    2    1    2  501    0  0.54446669871E+01  0.46133990480E+02 -0.62186302142E+03  0.62360291828E+03  0.29988002768E+01 0.  0.
         13    1    3    3    0    0  0.17784259057E+00  0.50405482176E+01 -0.79524760203E+02  0.79684542037E+02  0.00000000000E+00 0.  1.
          1    1    3    3  501    0  0.52668243965E+01  0.41093442263E+02 -0.54233826122E+03  0.54391837624E+03  0.00000000000E+00 0.  1.
         -3    1    1    2    0  502 -0.54446669871E+01 -0.46133990480E+02 -0.37583701553E+03  0.37869704477E+03  0.00000000000E+00 0. -1.
<mgrwt>
<rscale>  1 0.30000000E+03</rscale>
<asrwt>0</asrwt>
<pdfrwt beam="1">  1       21 0.83635196E-02 0.30000000E+03</pdfrwt>
<pdfrwt beam="2">0</pdfrwt>
<totfact> 0.11813502E+04</totfact>
</mgrwt>
</event>
<event>
 6    1  0.1270461E-001  0.3000000E+03  0.7818608E-02  0.1093470E+00
         21   -1    0    0  501  502  0.00000000000E+00  0.00000000000E+00  0.18623625699E+01  0.18623625699E+01  0.00000000000E+00 0. -1.
         13   -1    0    0    0    0 -0.00000000000E+00 -0.00000000000E+00 -0.10000000000E+04  0.10000000000E+04  0.00000000000E+00 0.  1.
    9000005    2    1    2  501    0  0.24390243662E+02 -0.27930103207E+02 -0.75450879595E+03  0.75542781334E+03  0.35613701487E+01 0.  0.
         13    1    3    3    0    0  0.15154045944E+02 -0.15787536157E+02 -0.41542581574E+03  0.41600180263E+03  0.00000000000E+00 0.  1.
          1    1    3    3  501    0  0.92361977177E+01 -0.12142567050E+02 -0.33908298021E+03  0.33942601072E+03  0.00000000000E+00 0.  1.
         -1    1    1    2    0  502 -0.24390243662E+02  0.27930103207E+02 -0.24362884148E+03  0.24643454923E+03  0.00000000000E+00 0. -1.
<mgrwt>
<rscale>  1 0.30000000E+03</rscale>
<asrwt>0</asrwt>
<pdfrwt beam="1">  1       21 0.67722418E-02 0.30000000E+03</pdfrwt>
<pdfrwt beam="2">0</pdfrwt>
<totfact> 0.17090140E+04</totfact>
</mgrwt>
</event>
<event>
 6    1  0.1270461E-001  0.3000000E+03  0.7818608E-02  0.1093470E+00
         21   -1    0    0  501  502  0.00000000000E+00  0.00000000000E+00  0.22730602354E+01  0.22730602354E+01  0.00000000000E+00 0. -1.
         13   -1    0    0    0    0 -0.00000000000E+00 -0.00000000000E+00 -0.10000000000E+04  0.10000000000E+04  0.00000000000E+00 0.  1.
    9000005    2    1    2  501    0 -0.32771225821E+02 -0.18395656545E+02 -0.80654791579E+03  0.80743524915E+03  0.44483345017E+01 0.  0.
         13    1    3    3    0    0 -0.24326914459E+02 -0.11733335277E+02 -0.55257927921E+03  0.55323894453E+03  0.00000000000E+00 0.  1.
          1    1    3    3  501    0 -0.84443113615E+01 -0.66623212676E+01 -0.25396863657E+03  0.25419630462E+03  0.00000000000E+00 0.  1.
         -1    1    1    2    0  502  0.32771225821E+02  0.18395656545E+02 -0.19117902398E+03  0.19483781109E+03  0.00000000000E+00 0. -1.
<mgrwt>
<rscale>  1 0.30000000E+03</rscale>
<asrwt>0</asrwt>
<pdfrwt beam="1">  1       21 0.82656910E-02 0.30000000E+03</pdfrwt>
<pdfrwt beam="2">0</pdfrwt>
<totfact> 0.12060781E+04</totfact>
</mgrwt>
</event>
<event>
 6    1  0.1270461E-001  0.3000000E+03  0.7818608E-02  0.1093470E+00
         21   -1    0    0  501  502  0.00000000000E+00  0.00000000000E+00  0.16422274926E+01  0.16422274926E+01  0.00000000000E+00 0. -1.
         13   -1    0    0    0    0 -0.00000000000E+00 -0.00000000000E+00 -0.10000000000E+04  0.10000000000E+04  0.00000000000E+00 0.  1.
    9000005    2    1    2  501    0 -0.34468675804E+01  0.35193841576E+02 -0.26007134729E+03  0.26250940246E+03  0.48572952862E+01 0.  0.
         13    1    3    3    0    0  0.11553183222E+01  0.70719151663E+01 -0.47903250911E+02  0.48436228099E+02  0.00000000000E+00 0.  1.
          1    1    3    3  501    0 -0.46021859026E+01  0.28121926410E+02 -0.21216809638E+03  0.21407317436E+03  0.00000000000E+00 0.  1.
         -3    1    1    2    0  502  0.34468675804E+01 -0.35193841576E+02 -0.73828642522E+03  0.73913282503E+03  0.00000000000E+00 0. -1.
<mgrwt>
<rscale>  1 0.30000000E+03</rscale>
<asrwt>0</asrwt>
<pdfrwt beam="1">  1       21 0.59717489E-02 0.30000000E+03</pdfrwt>
<pdfrwt beam="2">0</pdfrwt>
<totfact> 0.21243866E+04</totfact>
</mgrwt>
</event>
<event>
 6    1  0.1270461E-001  0.3000000E+03  0.7818608E-02  0.1093470E+00
         21   -1    0    0  501  502  0.00000000000E+00  0.00000000000E+00  0.10063559379E+01  0.10063559379E+01  0.00000000000E+00 0. -1.
         13   -1    0    0    0    0 -0.00000000000E+00 -0.00000000000E+00 -0.10000000000E+04  0.10000000000E+04  0.00000000000E+00 0.  1.
    9000005    2    1    2  501    0  0.19861871535E+02  0.23170264889E+02 -0.63235560660E+03  0.63310038204E+03  0.33354796466E+01 0.  0.
         13    1    3    3    0    0  0.13948609907E+02  0.18237167519E+02 -0.48699672937E+03  0.48753766256E+03  0.00000000000E+00 0.  1.
          1    1    3    3  501    0  0.59132616281E+01  0.49330973696E+01 -0.14535887723E+03  0.14556271948E+03  0.00000000000E+00 0.  1.
         -3    1    1    2    0  502 -0.19861871535E+02 -0.23170264889E+02 -0.36663803746E+03  0.36790597390E+03  0.00000000000E+00 0. -1.
<mgrwt>
<rscale>  1 0.30000000E+03</rscale>
<asrwt>0</asrwt>
<pdfrwt beam="1">  1       21 0.36594839E-02 0.30000000E+03</pdfrwt>
<pdfrwt beam="2">0</pdfrwt>
<totfact> 0.48829400E+04</totfact>
</mgrwt>
</event>
<event>
 6    1  0.1270461E-001  0.3000000E+03  0.7818608E-02  0.1093470E+00
         21   -1    0    0  501  502  0.00000000000E+00  0.00000000000E+00  0.35052699765E+01  0.35052699765E+01  0.00000000000E+00 0. -1.
         13   -1    0    0    0    0 -0.00000000000E+00 -0.00000000000E+00 -0.10000000000E+04  0.10000000000E+04  0.00000000000E+00 0.  1.
    9000005    2    1    2  501    0 -0.28907347333E+02  0.51592431622E+02 -0.48416700404E+03  0.48777558056E+03  0.31488827453E+01 0.  0.
         13    1    3    3    0    0 -0.64371369840E+01  0.11767994842E+02 -0.12099281449E+03  0.12173406915E+03  0.00000000000E+00 0.  1.
          3    1    3    3  501    0 -0.22470210349E+02  0.39824436781E+02 -0.36317418955E+03  0.36604151141E+03  0.00000000000E+00 0.  1.
         -3    1    1    2    0  502  0.28907347333E+02 -0.51592431622E+02 -0.51232772599E+03  0.51572968941E+03  0.00000000000E+00 0. -1.
<mgrwt>
<rscale>  1 0.30000000E+03</rscale>
<asrwt>0</asrwt>
<pdfrwt beam="1">  1       21 0.12746463E-01 0.30000000E+03</pdfrwt>
<pdfrwt beam="2">0</pdfrwt>
<totfact> 0.55525506E+03</totfact>
</mgrwt>
</event>
<event>
 6    1  0.1270461E-001  0.3000000E+03  0.7818608E-02  0.1093470E+00
         21   -1    0    0  501  502  0.00000000000E+00  0.00000000000E+00  0.13870984233E+01  0.13870984233E+01  0.00000000000E+00 0. -1.
         13   -1    0    0    0    0 -0.00000000000E+00 -0.00000000000E+00 -0.10000000000E+04  0.10000000000E+04  0.00000000000E+00 0.  1.
    9000005    2    1    2  501    0  0.30337190166E+02 -0.10276823541E+02 -0.75377427738E+03  0.75446219059E+03  0.34025847539E+01 0.  0.
         13    1    3    3    0    0  0.13643287968E+02 -0.59909491337E+01 -0.37526338930E+03  0.37555910603E+03  0.00000000000E+00 0.  1.
          1    1    3    3  501    0  0.16693902199E+02 -0.42858744068E+01 -0.37851088809E+03  0.37890308456E+03  0.00000000000E+00 0.  1.
         -1    1    1    2    0  502 -0.30337190166E+02  0.10276823541E+02 -0.24483862419E+03  0.24692490783E+03  0.00000000000E+00 0. -1.
<mgrwt>
<rscale>  1 0.30000000E+03</rscale>
<asrwt>0</asrwt>
<pdfrwt beam="1">  1       21 0.50440049E-02 0.30000000E+03</pdfrwt>
<pdfrwt beam="2">0</pdfrwt>
<totfact> 0.28377487E+04</totfact>
</mgrwt>
</event>
<event>
 6    1  0.1270461E-001  0.3000000E+03  0.7818608E-02  0.1093470E+00
         21   -1    0    0  501  502  0.00000000000E+00  0.00000000000E+00  0.15962475528E+01  0.15962475528E+01  0.00000000000E+00 0. -1.
         13   -1    0    0    0    0 -0.00000000000E+00 -0.00000000000E+00 -0.10000000000E+04  0.10000000000E+04  0.00000000000E+00 0.  1.
    9000005    2    1    2  501    0  0.33526358824E+02  0.16492732545E+02 -0.67519596696E+03  0.67623598636E+03  0.30803390502E+01 0.  0.
         13    1    3    3    0    0  0.33284387800E+02  0.16023560662E+02 -0.66256141837E+03  0.66359041440E+03  0.00000000000E+00 0.  1.
          3    1    3    3  501    0  0.24197102368E+00  0.46917188304E+00 -0.12634548589E+02  0.12645571964E+02  0.00000000000E+00 0.  1.
         -3    1    1    2    0  502 -0.33526358824E+02 -0.16492732545E+02 -0.32320778549E+03  0.32536026119E+03  0.00000000000E+00 0. -1.
<mgrwt>
<rscale>  1 0.30000000E+03</rscale>
<asrwt>0</asrwt>
<pdfrwt beam="1">  1       21 0.58045488E-02 0.30000000E+03</pdfrwt>
<pdfrwt beam="2">0</pdfrwt>
<totfact> 0.22309431E+04</totfact>
</mgrwt>
</event>
<event>
 6    1  0.1270461E-001  0.3000000E+03  0.7818608E-02  0.1093470E+00
         21   -1    0    0  501  502  0.00000000000E+00  0.00000000000E+00  0.29762426776E+01  0.29762426776E+01  0.00000000000E+00 0. -1.
         13   -1    0    0    0    0 -0.00000000000E+00 -0.00000000000E+00 -0.10000000000E+04  0.10000000000E+04  0.00000000000E+00 0.  1.
    9000005    2    1    2  501    0 -0.47702919173E+02 -0.13258005419E+02 -0.70878399095E+03  0.71051512368E+03  0.23773828846E+01 0.  0.
         13    1    3    3    0    0 -0.90473876576E+01 -0.17555286647E+01 -0.12391483233E+03  0.12425708340E+03  0.00000000000E+00 0.  1.
          1    1    3    3  501    0 -0.38655531516E+02 -0.11502476755E+02 -0.58486915862E+03  0.58625804028E+03  0.00000000000E+00 0.  1.
         -3    1    1    2    0  502  0.47702919173E+02  0.13258005419E+02 -0.28823976637E+03  0.29246111899E+03  0.00000000000E+00 0. -1.
<mgrwt>
<rscale>  1 0.30000000E+03</rscale>
<asrwt>0</asrwt>
<pdfrwt beam="1">  1       21 0.10822723E-01 0.30000000E+03</pdfrwt>
<pdfrwt beam="2">0</pdfrwt>
<totfact> 0.74669871E+03</totfact>
</mgrwt>
</event>
<event>
 6    1  0.1270461E-001  0.3000000E+03  0.7818608E-02  0.1093470E+00
         21   -1    0    0  501  502  0.00000000000E+00  0.00000000000E+00  0.14233217005E+01  0.14233217005E+01  0.00000000000E+00 0. -1.
         13   -1    0    0    0    0 -0.00000000000E+00 -0.00000000000E+00 -0.10000000000E+04  0.10000000000E+04  0.00000000000E+00 0.  1.
    9000005    2    1    2  501    0  0.19799875578E+02 -0.26267081573E+02 -0.74359704753E+03  0.74433071824E+03  0.31071484808E+01 0.  0.
         13    1    3    3    0    0  0.34072999966E+01 -0.62136740176E+01 -0.17768584011E+03  0.17782709921E+03  0.00000000000E+00 0.  1.
          1    1    3    3  501    0  0.16392575581E+02 -0.20053407555E+02 -0.56591120742E+03  0.56650361903E+03  0.00000000000E+00 0.  1.
         -3    1    1    2    0  502 -0.19799875578E+02  0.26267081573E+02 -0.25497963077E+03  0.25709260346E+03  0.00000000000E+00 0. -1.
<mgrwt>
<rscale>  1 0.30000000E+03</rscale>
<asrwt>0</asrwt>
<pdfrwt beam="1">  1       21 0.51757262E-02 0.30000000E+03</pdfrwt>
<pdfrwt beam="2">0</pdfrwt>
<totfact> 0.27156053E+04</totfact>
</mgrwt>
</event>
<event>
 6    1  0.1270461E-001  0.3000000E+03  0.7818608E-02  0.1093470E+00
         21   -1    0    0  501  502  0.00000000000E+00  0.00000000000E+00  0.13565290697E+01  0.13565290697E+01  0.00000000000E+00 0. -1.
         13   -1    0    0    0    0 -0.00000000000E+00 -0.00000000000E+00 -0.10000000000E+04  0.10000000000E+04  0.00000000000E+00 0.  1.
    9000005    2    1    2  501    0 -0.33428381002E+02  0.14689629628E+02 -0.44006879151E+03  0.44158968978E+03  0.27696546476E+01 0.  0.
         13    1    3    3    0    0 -0.32862689295E+02  0.14761408624E+02 -0.43488434072E+03  0.43637397417E+03  0.00000000000E+00 0.  1.
          3    1    3    3  501    0 -0.56569170755E+00 -0.71778996335E-01 -0.51844507949E+01  0.52157156151E+01  0.00000000000E+00 0.  1.
         -1    1    1    2    0  502  0.33428381002E+02 -0.14689629628E+02 -0.55857467942E+03  0.55976683928E+03  0.00000000000E+00 0. -1.
<mgrwt>
<rscale>  1 0.30000000E+03</rscale>
<asrwt>0</asrwt>
<pdfrwt beam="1">  1       21 0.49328434E-02 0.30000000E+03</pdfrwt>
<pdfrwt beam="2">0</pdfrwt>
<totfact> 0.29476147E+04</totfact>
</mgrwt>
</event>
<event>
 6    1  0.1270461E-001  0.3000000E+03  0.7818608E-02  0.1093470E+00
         21   -1    0    0  501  502  0.00000000000E+00  0.00000000000E+00  0.10368155351E+01  0.10368155351E+01  0.00000000000E+00 0. -1.
         13   -1    0    0    0    0 -0.00000000000E+00 -0.00000000000E+00 -0.10000000000E+04  0.10000000000E+04  0.00000000000E+00 0.  1.
    9000005    2    1    2  501    0 -0.26541123036E+02 -0.17885885428E+02 -0.53643064759E+03  0.53739828847E+03  0.38398787718E+01 0.  0.
         13    1    3    3    0    0 -0.18487055250E+02 -0.12663664627E+02 -0.40328197056E+03  0.40390405716E+03  0.00000000000E+00 0.  1.
          1    1    3    3  501    0 -0.80540677863E+01 -0.52222208015E+01 -0.13314867703E+03  0.13349423131E+03  0.00000000000E+00 0.  1.
         -3    1    1    2    0  502  0.26541123036E+02  0.17885885428E+02 -0.46253253688E+03  0.46363852706E+03  0.00000000000E+00 0. -1.
<mgrwt>
<rscale>  1 0.30000000E+03</rscale>
<asrwt>0</asrwt>
<pdfrwt beam="1">  1       21 0.37702463E-02 0.30000000E+03</pdfrwt>
<pdfrwt beam="2">0</pdfrwt>
<totfact> 0.46445365E+04</totfact>
</mgrwt>
</event>
<event>
 6    1  0.1270461E-001  0.3000000E+03  0.7818608E-02  0.1093470E+00
         21   -1    0    0  501  502  0.00000000000E+00  0.00000000000E+00  0.14034730441E+01  0.14034730441E+01  0.00000000000E+00 0. -1.
         13   -1    0    0    0    0 -0.00000000000E+00 -0.00000000000E+00 -0.10000000000E+04  0.10000000000E+04  0.00000000000E+00 0.  1.
    9000005    2    1    2  501    0  0.37205548996E+02 -0.36088453013E+01 -0.50539167234E+03  0.50678411914E+03  0.34819966434E+01 0.  0.
         13    1    3    3    0    0  0.70410202762E+01 -0.20656250540E+01 -0.98054991155E+02  0.98329161818E+02  0.00000000000E+00 0.  1.
          3    1    3    3  501    0  0.30164528720E+02 -0.15432202473E+01 -0.40733668118E+03  0.40845495732E+03  0.00000000000E+00 0.  1.
         -3    1    1    2    0  502 -0.37205548996E+02  0.36088453013E+01 -0.49320485462E+03  0.49461935391E+03  0.00000000000E+00 0. -1.
<mgrwt>
<rscale>  1 0.30000000E+03</rscale>
<asrwt>0</asrwt>
<pdfrwt beam="1">  1       21 0.51035491E-02 0.30000000E+03</pdfrwt>
<pdfrwt beam="2">0</pdfrwt>
<totfact> 0.27814984E+04</totfact>
</mgrwt>
</event>
<event>
 6    1  0.1270461E-001  0.3000000E+03  0.7818608E-02  0.1093470E+00
         21   -1    0    0  501  502  0.00000000000E+00  0.00000000000E+00  0.13165015847E+01  0.13165015847E+01  0.00000000000E+00 0. -1.
         13   -1    0    0    0    0 -0.00000000000E+00 -0.00000000000E+00 -0.10000000000E+04  0.10000000000E+04  0.00000000000E+00 0.  1.
    9000005    2    1    2  501    0 -0.14537147766E+02  0.26543715818E+02 -0.77352151990E+03  0.77412976323E+03  0.50449041464E+01 0.  0.
         13    1    3    3    0    0 -0.69194900791E+01  0.16149508315E+02 -0.49161846615E+03  0.49193231467E+03  0.00000000000E+00 0.  1.
          3    1    3    3  501    0 -0.76176576872E+01  0.10394207503E+02 -0.28190305375E+03  0.28219744856E+03  0.00000000000E+00 0.  1.
         -1    1    1    2    0  502  0.14537147766E+02 -0.26543715818E+02 -0.22516197851E+03  0.22718673835E+03  0.00000000000E+00 0. -1.
<mgrwt>
<rscale>  1 0.30000000E+03</rscale>
<asrwt>0</asrwt>
<pdfrwt beam="1">  1       21 0.47872886E-02 0.30000000E+03</pdfrwt>
<pdfrwt beam="2">0</pdfrwt>
<totfact> 0.31018179E+04</totfact>
</mgrwt>
</event>
<event>
 6    1  0.1270461E-001  0.3000000E+03  0.7818608E-02  0.1093470E+00
         21   -1    0    0  501  502  0.00000000000E+00  0.00000000000E+00  0.18704630240E+01  0.18704630240E+01  0.00000000000E+00 0. -1.
         13   -1    0    0    0    0 -0.00000000000E+00 -0.00000000000E+00 -0.10000000000E+04  0.10000000000E+04  0.00000000000E+00 0.  1.
    9000005    2    1    2  501    0  0.17827131508E+02  0.36857872079E+02 -0.65866607848E+03  0.65994686189E+03  0.35423493262E+01 0.  0.
         13    1    3    3    0    0  0.16791091426E+02  0.34535329231E+02 -0.62946628523E+03  0.63063653079E+03  0.00000000000E+00 0.  1.
          3    1    3    3  501    0  0.10360400814E+01  0.23225428480E+01 -0.29199793242E+02  0.29310331109E+02  0.00000000000E+00 0.  1.
         -3    1    1    2    0  502 -0.17827131508E+02 -0.36857872079E+02 -0.33946345850E+03  0.34192360113E+03  0.00000000000E+00 0. -1.
<mgrwt>
<rscale>  1 0.30000000E+03</rscale>
<asrwt>0</asrwt>
<pdfrwt beam="1">  1       21 0.68016981E-02 0.30000000E+03</pdfrwt>
<pdfrwt beam="2">0</pdfrwt>
<totfact> 0.16961840E+04</totfact>
</mgrwt>
</event>
<event>
 6    1  0.1270461E-001  0.3000000E+03  0.7818608E-02  0.1093470E+00
         21   -1    0    0  501  502  0.00000000000E+00  0.00000000000E+00  0.21807602690E+01  0.21807602690E+01  0.00000000000E+00 0. -1.
         13   -1    0    0    0    0 -0.00000000000E+00 -0.00000000000E+00 -0.10000000000E+04  0.10000000000E+04  0.00000000000E+00 0.  1.
    9000005    2    1    2  501    0  0.30365424012E+02  0.23688341275E+02 -0.78180886949E+03  0.78276408693E+03  0.33631659582E+01 0.  0.
         13    1    3    3    0    0  0.25198134186E+02  0.18029294059E+02 -0.61896363747E+03  0.61973864324E+03  0.00000000000E+00 0.  1.
          1    1    3    3  501    0  0.51672898256E+01  0.56590472159E+01 -0.16284523202E+03  0.16302544369E+03  0.00000000000E+00 0.  1.
         -1    1    1    2    0  502 -0.30365424012E+02 -0.23688341275E+02 -0.21601037024E+03  0.21941667334E+03  0.00000000000E+00 0. -1.
<mgrwt>
<rscale>  1 0.30000000E+03</rscale>
<asrwt>0</asrwt>
<pdfrwt beam="1">  1       21 0.79300541E-02 0.30000000E+03</pdfrwt>
<pdfrwt beam="2">0</pdfrwt>
<totfact> 0.12972380E+04</totfact>
</mgrwt>
</event>
<event>
 6    1  0.1270461E-001  0.3000000E+03  0.7818608E-02  0.1093470E+00
         21   -1    0    0  501  502  0.00000000000E+00  0.00000000000E+00  0.15609470644E+01  0.15609470644E+01  0.00000000000E+00 0. -1.
         13   -1    0    0    0    0 -0.00000000000E+00 -0.00000000000E+00 -0.10000000000E+04  0.10000000000E+04  0.00000000000E+00 0.  1.
    9000005    2    1    2  501    0  0.37571683783E+02  0.28114988723E+01 -0.64782280686E+03  0.64892616721E+03  0.33534249167E+01 0.  0.
         13    1    3    3    0    0  0.19499066139E+02  0.26543006672E+01 -0.35782935485E+03  0.35837006862E+03  0.00000000000E+00 0.  1.
          3    1    3    3  501    0  0.18072617644E+02  0.15719820506E+00 -0.28999345201E+03  0.29055609859E+03  0.00000000000E+00 0.  1.
         -3    1    1    2    0  502 -0.37571683783E+02 -0.28114988723E+01 -0.35061624608E+03  0.35263477985E+03  0.00000000000E+00 0. -1.
<mgrwt>
<rscale>  1 0.30000000E+03</rscale>
<asrwt>0</asrwt>
<pdfrwt beam="1">  1       21 0.56761831E-02 0.30000000E+03</pdfrwt>
<pdfrwt beam="2">0</pdfrwt>
<totfact> 0.23184559E+04</totfact>
</mgrwt>
</event>
<event>
 6    1  0.1270461E-001  0.3000000E+03  0.7818608E-02  0.1093470E+00
         21   -1    0    0  501  502  0.00000000000E+00  0.00000000000E+00  0.12797692957E+01  0.12797692957E+01  0.00000000000E+00 0. -1.
         13   -1    0    0    0    0 -0.00000000000E+00 -0.00000000000E+00 -0.10000000000E+04  0.10000000000E+04  0.00000000000E+00 0.  1.
    9000005    2    1    2  501    0  0.35040334014E+02  0.42837894517E+01 -0.45604913494E+03  0.45746169858E+03  0.66495358773E+01 0.  0.
         13    1    3    3    0    0  0.22059551186E+02  0.11868170905E+01 -0.24644471294E+03  0.24743287751E+03  0.00000000000E+00 0.  1.
          3    1    3    3  501    0  0.12980782829E+02  0.30969723612E+01 -0.20960442199E+03  0.21002882107E+03  0.00000000000E+00 0.  1.
         -3    1    1    2    0  502 -0.35040334014E+02 -0.42837894517E+01 -0.54267109577E+03  0.54381807072E+03  0.00000000000E+00 0. -1.
<mgrwt>
<rscale>  1 0.30000000E+03</rscale>
<asrwt>0</asrwt>
<pdfrwt beam="1">  1       21 0.46537163E-02 0.30000000E+03</pdfrwt>
<pdfrwt beam="2">0</pdfrwt>
<totfact> 0.32547300E+04</totfact>
</mgrwt>
</event>
<event>
 6    1  0.1270461E-001  0.3000000E+03  0.7818608E-02  0.1093470E+00
         21   -1    0    0  501  502  0.00000000000E+00  0.00000000000E+00  0.67755045929E+01  0.67755045929E+01  0.00000000000E+00 0. -1.
         13   -1    0    0    0    0 -0.00000000000E+00 -0.00000000000E+00 -0.10000000000E+04  0.10000000000E+04  0.00000000000E+00 0.  1.
    9000005    2    1    2  501    0 -0.73491336587E+02  0.22298429312E+02 -0.67734291346E+03  0.68169186871E+03  0.34906951956E+01 0.  0.
         13    1    3    3    0    0 -0.57193520228E+02  0.16022888005E+02 -0.52972231701E+03  0.53304180402E+03  0.00000000000E+00 0.  1.
          3    1    3    3  501    0 -0.16297816358E+02  0.62755413075E+01 -0.14762059644E+03  0.14865006469E+03  0.00000000000E+00 0.  1.
         -1    1    1    2    0  502  0.73491336587E+02 -0.22298429312E+02 -0.31588158195E+03  0.32508363588E+03  0.00000000000E+00 0. -1.
<mgrwt>
<rscale>  1 0.30000000E+03</rscale>
<asrwt>0</asrwt>
<pdfrwt beam="1">  1       21 0.24638250E-01 0.30000000E+03</pdfrwt>
<pdfrwt beam="2">0</pdfrwt>
<totfact> 0.16046799E+03</totfact>
</mgrwt>
</event>
<event>
 6    1  0.1270461E-001  0.3000000E+03  0.7818608E-02  0.1093470E+00
         21   -1    0    0  501  502  0.00000000000E+00  0.00000000000E+00  0.16675033385E+01  0.16675033385E+01  0.00000000000E+00 0. -1.
         13   -1    0    0    0    0 -0.00000000000E+00 -0.00000000000E+00 -0.10000000000E+04  0.10000000000E+04  0.00000000000E+00 0.  1.
    9000005    2    1    2  501    0 -0.25469415065E+02  0.20399176783E+02 -0.79977953605E+03  0.80045096405E+03  0.31019414420E+01 0.  0.
         13    1    3    3    0    0 -0.17922430267E+01  0.14943765641E+01 -0.40525746829E+02  0.40592874405E+02  0.00000000000E+00 0.  1.
          3    1    3    3  501    0 -0.23677172039E+02  0.18904800219E+02 -0.75925378922E+03  0.75985808964E+03  0.00000000000E+00 0.  1.
         -3    1    1    2    0  502  0.25469415065E+02 -0.20399176783E+02 -0.19855296061E+03  0.20121653929E+03  0.00000000000E+00 0. -1.
<mgrwt>
<rscale>  1 0.30000000E+03</rscale>
<asrwt>0</asrwt>
<pdfrwt beam="1">  1       21 0.60636613E-02 0.30000000E+03</pdfrwt>
<pdfrwt beam="2">0</pdfrwt>
<totfact> 0.20691500E+04</totfact>
</mgrwt>
</event>
<event>
 6    1  0.1270461E-001  0.3000000E+03  0.7818608E-02  0.1093470E+00
         21   -1    0    0  501  502  0.00000000000E+00  0.00000000000E+00  0.37322421344E+01  0.37322421344E+01  0.00000000000E+00 0. -1.
         13   -1    0    0    0    0 -0.00000000000E+00 -0.00000000000E+00 -0.10000000000E+04  0.10000000000E+04  0.00000000000E+00 0.  1.
    9000005    2    1    2  501    0 -0.41655315894E+02 -0.44600148868E+02 -0.48792938861E+03  0.49174373027E+03  0.35311997298E+01 0.  0.
         13    1    3    3    0    0 -0.11575465214E+02 -0.13649369546E+02 -0.15420408521E+03  0.15523915930E+03  0.00000000000E+00 0.  1.
          3    1    3    3  501    0 -0.30079850680E+02 -0.30950779322E+02 -0.33372530340E+03  0.33650457098E+03  0.00000000000E+00 0.  1.
         -3    1    1    2    0  502  0.41655315894E+02  0.44600148868E+02 -0.50833836926E+03  0.51198851186E+03  0.00000000000E+00 0. -1.
<mgrwt>
<rscale>  1 0.30000000E+03</rscale>
<asrwt>0</asrwt>
<pdfrwt beam="1">  1       21 0.13571818E-01 0.30000000E+03</pdfrwt>
<pdfrwt beam="2">0</pdfrwt>
<totfact> 0.49509463E+03</totfact>
</mgrwt>
</event>
<event>
 6    1  0.1270461E-001  0.3000000E+03  0.7818608E-02  0.1093470E+00
         21   -1    0    0  501  502  0.00000000000E+00  0.00000000000E+00  0.10285950371E+01  0.10285950371E+01  0.00000000000E+00 0. -1.
         13   -1    0    0    0    0 -0.00000000000E+00 -0.00000000000E+00 -0.10000000000E+04  0.10000000000E+04  0.00000000000E+00 0.  1.
    9000005    2    1    2  501    0  0.17356448171E+02  0.26857244076E+02 -0.48263272931E+03  0.48370066632E+03  0.30700729353E+01 0.  0.
         13    1    3    3    0    0  0.75024454739E+00  0.17920393633E+01 -0.20937346565E+02  0.21027285919E+02  0.00000000000E+00 0.  1.
          3    1    3    3  501    0  0.16606203623E+02  0.25065204712E+02 -0.46169538275E+03  0.46267338040E+03  0.00000000000E+00 0.  1.
         -3    1    1    2    0  502 -0.17356448171E+02 -0.26857244076E+02 -0.51633867565E+03  0.51732792871E+03  0.00000000000E+00 0. -1.
<mgrwt>
<rscale>  1 0.30000000E+03</rscale>
<asrwt>0</asrwt>
<pdfrwt beam="1">  1       21 0.37403535E-02 0.30000000E+03</pdfrwt>
<pdfrwt beam="2">0</pdfrwt>
<totfact> 0.47070420E+04</totfact>
</mgrwt>
</event>
<event>
 6    1  0.1270461E-001  0.3000000E+03  0.7818608E-02  0.1093470E+00
         21   -1    0    0  501  502  0.00000000000E+00  0.00000000000E+00  0.59316518648E+01  0.59316518648E+01  0.00000000000E+00 0. -1.
         13   -1    0    0    0    0 -0.00000000000E+00 -0.00000000000E+00 -0.10000000000E+04  0.10000000000E+04  0.00000000000E+00 0.  1.
    9000005    2    1    2  501    0  0.89726752464E+01  0.52061635337E+02 -0.86294452052E+03  0.86456552812E+03  0.30633539379E+01 0.  0.
         13    1    3    3    0    0  0.84157507776E+01  0.47601154070E+02 -0.80198519080E+03  0.80344068916E+03  0.00000000000E+00 0.  1.
          1    1    3    3  501    0  0.55692446881E+00  0.44604812666E+01 -0.60959329719E+02  0.61124838959E+02  0.00000000000E+00 0.  1.
         -1    1    1    2    0  502 -0.89726752464E+01 -0.52061635337E+02 -0.13112382761E+03  0.14136612374E+03  0.00000000000E+00 0. -1.
<mgrwt>
<rscale>  1 0.30000000E+03</rscale>
<asrwt>0</asrwt>
<pdfrwt beam="1">  1       21 0.21569689E-01 0.30000000E+03</pdfrwt>
<pdfrwt beam="2">0</pdfrwt>
<totfact> 0.20759911E+03</totfact>
</mgrwt>
</event>
<event>
 6    1  0.1270461E-001  0.3000000E+03  0.7818608E-02  0.1093470E+00
         21   -1    0    0  501  502  0.00000000000E+00  0.00000000000E+00  0.39342872857E+01  0.39342872857E+01  0.00000000000E+00 0. -1.
         13   -1    0    0    0    0 -0.00000000000E+00 -0.00000000000E+00 -0.10000000000E+04  0.10000000000E+04  0.00000000000E+00 0.  1.
    9000005    2    1    2  501    0  0.36314931531E+02 -0.50110793067E+01 -0.90528870780E+03  0.90603459480E+03  0.26753192582E+01 0.  0.
         13    1    3    3    0    0  0.36237218799E+02 -0.50966840106E+01 -0.89847356114E+03  0.89921846750E+03  0.00000000000E+00 0.  1.
          1    1    3    3  501    0  0.77712731743E-01  0.85604703944E-01 -0.68151466601E+01  0.68161273046E+01  0.00000000000E+00 0.  1.
         -1    1    1    2    0  502 -0.36314931531E+02  0.50110793067E+01 -0.90777004912E+02  0.97899692485E+02  0.00000000000E+00 0. -1.
<mgrwt>
<rscale>  1 0.30000000E+03</rscale>
<asrwt>0</asrwt>
<pdfrwt beam="1">  1       21 0.14306529E-01 0.30000000E+03</pdfrwt>
<pdfrwt beam="2">0</pdfrwt>
<totfact> 0.44940385E+03</totfact>
</mgrwt>
</event>
<event>
 6    1  0.1270461E-001  0.3000000E+03  0.7818608E-02  0.1093470E+00
         21   -1    0    0  501  502  0.00000000000E+00  0.00000000000E+00  0.18416982426E+01  0.18416982426E+01  0.00000000000E+00 0. -1.
         13   -1    0    0    0    0 -0.00000000000E+00 -0.00000000000E+00 -0.10000000000E+04  0.10000000000E+04  0.00000000000E+00 0.  1.
    9000005    2    1    2  501    0 -0.41676907027E+01  0.31163546706E+02 -0.83788084333E+03  0.83850952147E+03  0.80853997175E+01 0.  0.
         13    1    3    3    0    0 -0.43046141131E+01  0.11325561462E+02 -0.24898542760E+03  0.24928004573E+03  0.00000000000E+00 0.  1.
          1    1    3    3  501    0  0.13692341040E+00  0.19837985244E+02 -0.58889541574E+03  0.58922947574E+03  0.00000000000E+00 0.  1.
         -1    1    1    2    0  502  0.41676907027E+01 -0.31163546706E+02 -0.16027745843E+03  0.16333217677E+03  0.00000000000E+00 0. -1.
<mgrwt>
<rscale>  1 0.30000000E+03</rscale>
<asrwt>0</asrwt>
<pdfrwt beam="1">  1       21 0.66970986E-02 0.30000000E+03</pdfrwt>
<pdfrwt beam="2">0</pdfrwt>
<totfact> 0.17424267E+04</totfact>
</mgrwt>
</event>
<event>
 6    1  0.1270461E-001  0.3000000E+03  0.7818608E-02  0.1093470E+00
         21   -1    0    0  501  502  0.00000000000E+00  0.00000000000E+00  0.16441593592E+01  0.16441593592E+01  0.00000000000E+00 0. -1.
         13   -1    0    0    0    0 -0.00000000000E+00 -0.00000000000E+00 -0.10000000000E+04  0.10000000000E+04  0.00000000000E+00 0.  1.
    9000005    2    1    2  501    0  0.29590330099E+02 -0.26458689663E+02 -0.57089995654E+03  0.57234917599E+03  0.90093831234E+01 0.  0.
         13    1    3    3    0    0  0.24952339213E+02 -0.17484435558E+02 -0.40773929626E+03  0.40887609179E+03  0.00000000000E+00 0.  1.
          1    1    3    3  501    0  0.46379908867E+01 -0.89742541055E+01 -0.16316066028E+03  0.16347308420E+03  0.00000000000E+00 0.  1.
         -3    1    1    2    0  502 -0.29590330099E+02  0.26458689663E+02 -0.42745588410E+03  0.42929498337E+03  0.00000000000E+00 0. -1.
<mgrwt>
<rscale>  1 0.30000000E+03</rscale>
<asrwt>0</asrwt>
<pdfrwt beam="1">  1       21 0.59787739E-02 0.30000000E+03</pdfrwt>
<pdfrwt beam="2">0</pdfrwt>
<totfact> 0.21200842E+04</totfact>
</mgrwt>
</event>
<event>
 6    1  0.1270461E-001  0.3000000E+03  0.7818608E-02  0.1093470E+00
         21   -1    0    0  501  502  0.00000000000E+00  0.00000000000E+00  0.19386813231E+01  0.19386813231E+01  0.00000000000E+00 0. -1.
         13   -1    0    0    0    0 -0.00000000000E+00 -0.00000000000E+00 -0.10000000000E+04  0.10000000000E+04  0.00000000000E+00 0.  1.
    9000005    2    1    2  501    0 -0.21064532603E+02  0.23115326267E+02 -0.85139212862E+03  0.85197240460E+03  0.32231478089E+01 0.  0.
         13    1    3    3    0    0 -0.16655646654E+02  0.19845413248E+02 -0.71845769337E+03  0.71892468879E+03  0.00000000000E+00 0.  1.
          1    1    3    3  501    0 -0.44088859491E+01  0.32699130195E+01 -0.13293443525E+03  0.13304771580E+03  0.00000000000E+00 0.  1.
         -1    1    1    2    0  502  0.21064532603E+02 -0.23115326267E+02 -0.14666919006E+03  0.14996627673E+03  0.00000000000E+00 0. -1.
<mgrwt>
<rscale>  1 0.30000000E+03</rscale>
<asrwt>0</asrwt>
<pdfrwt beam="1">  1       21 0.70497651E-02 0.30000000E+03</pdfrwt>
<pdfrwt beam="2">0</pdfrwt>
<totfact> 0.15937523E+04</totfact>
</mgrwt>
</event>
<event>
 6    1  0.1270461E-001  0.3000000E+03  0.7818608E-02  0.1093470E+00
         21   -1    0    0  501  502  0.00000000000E+00  0.00000000000E+00  0.10071116538E+01  0.10071116538E+01  0.00000000000E+00 0. -1.
         13   -1    0    0    0    0 -0.00000000000E+00 -0.00000000000E+00 -0.10000000000E+04  0.10000000000E+04  0.00000000000E+00 0.  1.
    9000005    2    1    2  501    0 -0.14651387698E+02  0.27474225828E+02 -0.59009864887E+03  0.59092907601E+03  0.33557743158E+01 0.  0.
         13    1    3    3    0    0 -0.52899011412E+01  0.10272685045E+02 -0.18939288963E+03  0.18974503355E+03  0.00000000000E+00 0.  1.
          3    1    3    3  501    0 -0.93614865572E+01  0.17201540784E+02 -0.40070575924E+03  0.40118404246E+03  0.00000000000E+00 0.  1.
         -1    1    1    2    0  502  0.14651387698E+02 -0.27474225828E+02 -0.40889423947E+03  0.41007803565E+03  0.00000000000E+00 0. -1.
<mgrwt>
<rscale>  1 0.30000000E+03</rscale>
<asrwt>0</asrwt>
<pdfrwt beam="1">  1       21 0.36622319E-02 0.30000000E+03</pdfrwt>
<pdfrwt beam="2">0</pdfrwt>
<totfact> 0.48767938E+04</totfact>
</mgrwt>
</event>
<event>
 6    1  0.1270461E-001  0.3000000E+03  0.7818608E-02  0.1093470E+00
         21   -1    0    0  501  502  0.00000000000E+00  0.00000000000E+00  0.76040775033E+01  0.76040775033E+01  0.00000000000E+00 0. -1.
         13   -1    0    0    0    0 -0.00000000000E+00 -0.00000000000E+00 -0.10000000000E+04  0.10000000000E+04  0.00000000000E+00 0.  1.
    9000005    2    1    2  501    0  0.19619059568E+02  0.45068458831E+02 -0.91229258940E+03  0.91362207149E+03  0.33833967901E+01 0.  0.
         13    1    3    3    0    0  0.74042507636E+00  0.39064018795E+01 -0.78551928623E+02  0.78652486899E+02  0.00000000000E+00 0.  1.
          3    1    3    3  501    0  0.18878634492E+02  0.41162056952E+02 -0.83374066077E+03  0.83496958459E+03  0.00000000000E+00 0.  1.
         -1    1    1    2    0  502 -0.19619059568E+02 -0.45068458831E+02 -0.80103333101E+02  0.93982006010E+02  0.00000000000E+00 0. -1.
<mgrwt>
<rscale>  1 0.30000000E+03</rscale>
<asrwt>0</asrwt>
<pdfrwt beam="1">  1       21 0.27651249E-01 0.30000000E+03</pdfrwt>
<pdfrwt beam="2">0</pdfrwt>
<totfact> 0.12787648E+03</totfact>
</mgrwt>
</event>
<event>
 6    1  0.1270461E-001  0.3000000E+03  0.7818608E-02  0.1093470E+00
         21   -1    0    0  501  502  0.00000000000E+00  0.00000000000E+00  0.28347301449E+01  0.28347301449E+01  0.00000000000E+00 0. -1.
         13   -1    0    0    0    0 -0.00000000000E+00 -0.00000000000E+00 -0.10000000000E+04  0.10000000000E+04  0.00000000000E+00 0.  1.
    9000005    2    1    2  501    0 -0.38563322836E+02  0.14352634999E+02 -0.81650785151E+03  0.81755054085E+03  0.32691385807E+01 0.  0.
         13    1    3    3    0    0 -0.23831796704E+02  0.10495750161E+02 -0.52322775522E+03  0.52387536603E+03  0.00000000000E+00 0.  1.
          3    1    3    3  501    0 -0.14731526132E+02  0.38568848378E+01 -0.29328009629E+03  0.29367517482E+03  0.00000000000E+00 0.  1.
         -3    1    1    2    0  502  0.38563322836E+02 -0.14352634999E+02 -0.18065741835E+03  0.18528418930E+03  0.00000000000E+00 0. -1.
<mgrwt>
<rscale>  1 0.30000000E+03</rscale>
<asrwt>0</asrwt>
<pdfrwt beam="1">  1       21 0.10308131E-01 0.30000000E+03</pdfrwt>
<pdfrwt beam="2">0</pdfrwt>
<totfact> 0.81486816E+03</totfact>
</mgrwt>
</event>
<event>
 6    1  0.1270461E-001  0.3000000E+03  0.7818608E-02  0.1093470E+00
         21   -1    0    0  501  502  0.00000000000E+00  0.00000000000E+00  0.31613887318E+01  0.31613887318E+01  0.00000000000E+00 0. -1.
         13   -1    0    0    0    0 -0.00000000000E+00 -0.00000000000E+00 -0.10000000000E+04  0.10000000000E+04  0.00000000000E+00 0.  1.
    9000005    2    1    2  501    0 -0.14947646938E+02  0.28077454787E+02 -0.91194630887E+03  0.91250556365E+03  0.29253715324E+01 0.  0.
         13    1    3    3    0    0 -0.82014684250E+01  0.13989603779E+02 -0.42725896494E+03  0.42756659858E+03  0.00000000000E+00 0.  1.
          3    1    3    3  501    0 -0.67461785128E+01  0.14087851008E+02 -0.48468734394E+03  0.48493896507E+03  0.00000000000E+00 0.  1.
         -1    1    1    2    0  502  0.14947646938E+02 -0.28077454787E+02 -0.84892302394E+02  0.90655825086E+02  0.00000000000E+00 0. -1.
<mgrwt>
<rscale>  1 0.30000000E+03</rscale>
<asrwt>0</asrwt>
<pdfrwt beam="1">  1       21 0.11495983E-01 0.30000000E+03</pdfrwt>
<pdfrwt beam="2">0</pdfrwt>
<totfact> 0.66977793E+03</totfact>
</mgrwt>
</event>
<event>
 6    1  0.1270461E-001  0.3000000E+03  0.7818608E-02  0.1093470E+00
         21   -1    0    0  501  502  0.00000000000E+00  0.00000000000E+00  0.16080746470E+01  0.16080746470E+01  0.00000000000E+00 0. -1.
         13   -1    0    0    0    0 -0.00000000000E+00 -0.00000000000E+00 -0.10000000000E+04  0.10000000000E+04  0.00000000000E+00 0.  1.
    9000005    2    1    2  501    0 -0.38729395230E+02  0.71084323317E+01 -0.59144679384E+03  0.59276233855E+03  0.27173867711E+01 0.  0.
         13    1    3    3    0    0 -0.26694320979E+02  0.51250248125E+01 -0.42631486719E+03  0.42718054572E+03  0.00000000000E+00 0.  1.
          1    1    3    3  501    0 -0.12035074251E+02  0.19834075192E+01 -0.16513192665E+03  0.16558179283E+03  0.00000000000E+00 0.  1.
         -3    1    1    2    0  502  0.38729395230E+02 -0.71084323317E+01 -0.40694513151E+03  0.40884573610E+03  0.00000000000E+00 0. -1.
<mgrwt>
<rscale>  1 0.30000000E+03</rscale>
<asrwt>0</asrwt>
<pdfrwt beam="1">  1       21 0.58475565E-02 0.30000000E+03</pdfrwt>
<pdfrwt beam="2">0</pdfrwt>
<totfact> 0.22027515E+04</totfact>
</mgrwt>
</event>
<event>
 6    1  0.1270461E-001  0.3000000E+03  0.7818608E-02  0.1093470E+00
         21   -1    0    0  501  502  0.00000000000E+00  0.00000000000E+00  0.24047470559E+01  0.24047470559E+01  0.00000000000E+00 0. -1.
         13   -1    0    0    0    0 -0.00000000000E+00 -0.00000000000E+00 -0.10000000000E+04  0.10000000000E+04  0.00000000000E+00 0.  1.
    9000005    2    1    2  501    0 -0.23125114216E+02 -0.24331634287E+02 -0.86401648872E+03  0.86467281326E+03  0.27896024777E+01 0.  0.
         13    1    3    3    0    0 -0.10368109962E+02 -0.95802767139E+01 -0.38946507688E+03  0.38972083023E+03  0.00000000000E+00 0.  1.
          1    1    3    3  501    0 -0.12757004254E+02 -0.14751357574E+02 -0.47455141184E+03  0.47495198303E+03  0.00000000000E+00 0.  1.
         -3    1    1    2    0  502  0.23125114216E+02  0.24331634287E+02 -0.13357876422E+03  0.13773193379E+03  0.00000000000E+00 0. -1.
<mgrwt>
<rscale>  1 0.30000000E+03</rscale>
<asrwt>0</asrwt>
<pdfrwt beam="1">  1       21 0.87445532E-02 0.30000000E+03</pdfrwt>
<pdfrwt beam="2">0</pdfrwt>
<totfact> 0.10920530E+04</totfact>
</mgrwt>
</event>
<event>
 6    1  0.1270461E-001  0.3000000E+03  0.7818608E-02  0.1093470E+00
         21   -1    0    0  501  502  0.00000000000E+00  0.00000000000E+00  0.35369123095E+01  0.35369123095E+01  0.00000000000E+00 0. -1.
         13   -1    0    0    0    0 -0.00000000000E+00 -0.00000000000E+00 -0.10000000000E+04  0.10000000000E+04  0.00000000000E+00 0.  1.
    9000005    2    1    2  501    0 -0.35368775028E+02  0.30185131422E+02 -0.81055451327E+03  0.81190160646E+03  0.48484203111E+01 0.  0.
         13    1    3    3    0    0 -0.32235471622E+02  0.28121343960E+02 -0.72029818174E+03  0.72156732619E+03  0.00000000000E+00 0.  1.
          3    1    3    3  501    0 -0.31333034064E+01  0.20637874626E+01 -0.90256331535E+02  0.90334280266E+02  0.00000000000E+00 0.  1.
         -1    1    1    2    0  502  0.35368775028E+02 -0.30185131422E+02 -0.18590857442E+03  0.19163530585E+03  0.00000000000E+00 0. -1.
<mgrwt>
<rscale>  1 0.30000000E+03</rscale>
<asrwt>0</asrwt>
<pdfrwt beam="1">  1       21 0.12861526E-01 0.30000000E+03</pdfrwt>
<pdfrwt beam="2">0</pdfrwt>
<totfact> 0.54622674E+03</totfact>
</mgrwt>
</event>
<event>
 6    1  0.1270461E-001  0.3000000E+03  0.7818608E-02  0.1093470E+00
         21   -1    0    0  501  502  0.00000000000E+00  0.00000000000E+00  0.10175848028E+02  0.10175848028E+02  0.00000000000E+00 0. -1.
         13   -1    0    0    0    0 -0.00000000000E+00 -0.00000000000E+00 -0.10000000000E+04  0.10000000000E+04  0.00000000000E+00 0.  1.
    9000005    2    1    2  501    0 -0.37044681651E+02  0.46201100788E+02 -0.90377583132E+03  0.90571933249E+03  0.31473488283E+01 0.  0.
         13    1    3    3    0    0 -0.36488256901E+02  0.44715506403E+02 -0.87831379691E+03  0.88020792728E+03  0.00000000000E+00 0.  1.
          1    1    3    3  501    0 -0.55642475054E+00  0.14855943852E+01 -0.25462034414E+02  0.25511405208E+02  0.00000000000E+00 0.  1.
         -1    1    1    2    0  502  0.37044681651E+02 -0.46201100788E+02 -0.86048320651E+02  0.10445651554E+03  0.00000000000E+00 0. -1.
<mgrwt>
<rscale>  1 0.30000000E+03</rscale>
<asrwt>0</asrwt>
<pdfrwt beam="1">  1       21 0.37003162E-01 0.30000000E+03</pdfrwt>
<pdfrwt beam="2">0</pdfrwt>
<totfact> 0.70987620E+02</totfact>
</mgrwt>
</event>
<event>
 6    1  0.1270461E-001  0.3000000E+03  0.7818608E-02  0.1093470E+00
         21   -1    0    0  501  502  0.00000000000E+00  0.00000000000E+00  0.23943070779E+01  0.23943070779E+01  0.00000000000E+00 0. -1.
         13   -1    0    0    0    0 -0.00000000000E+00 -0.00000000000E+00 -0.10000000000E+04  0.10000000000E+04  0.00000000000E+00 0.  1.
    9000005    2    1    2  501    0 -0.10647555993E+02  0.42107370166E+02 -0.72861762691E+03  0.72992232553E+03  0.40686600387E+01 0.  0.
         13    1    3    3    0    0 -0.10035471619E+01  0.11893003119E+01 -0.31264199710E+02  0.31302902831E+02  0.00000000000E+00 0.  1.
          1    1    3    3  501    0 -0.96440088315E+01  0.40918069854E+02 -0.69735342720E+03  0.69861942270E+03  0.00000000000E+00 0.  1.
         -3    1    1    2    0  502  0.10647555993E+02 -0.42107370166E+02 -0.26898806601E+03  0.27247198155E+03  0.00000000000E+00 0. -1.
<mgrwt>
<rscale>  1 0.30000000E+03</rscale>
<asrwt>0</asrwt>
<pdfrwt beam="1">  1       21 0.87065896E-02 0.30000000E+03</pdfrwt>
<pdfrwt beam="2">0</pdfrwt>
<totfact> 0.11004807E+04</totfact>
</mgrwt>
</event>
<event>
 6    1  0.1270461E-001  0.3000000E+03  0.7818608E-02  0.1093470E+00
         21   -1    0    0  501  502  0.00000000000E+00  0.00000000000E+00  0.11275648490E+01  0.11275648490E+01  0.00000000000E+00 0. -1.
         13   -1    0    0    0    0 -0.00000000000E+00 -0.00000000000E+00 -0.10000000000E+04  0.10000000000E+04  0.00000000000E+00 0.  1.
    9000005    2    1    2  501    0 -0.26127572369E+02  0.19244348400E+02 -0.62123143064E+03  0.62209494980E+03  0.45432551829E+01 0.  0.
         13    1    3    3    0    0 -0.17280174316E+02  0.15195911159E+02 -0.42522523227E+03  0.42584741199E+03  0.00000000000E+00 0.  1.
          1    1    3    3  501    0 -0.88473980531E+01  0.40484372405E+01 -0.19600619837E+03  0.19624753781E+03  0.00000000000E+00 0.  1.
         -3    1    1    2    0  502  0.26127572369E+02 -0.19244348400E+02 -0.37764100451E+03  0.37903261505E+03  0.00000000000E+00 0. -1.
<mgrwt>
<rscale>  1 0.30000000E+03</rscale>
<asrwt>0</asrwt>
<pdfrwt beam="1">  1       21 0.41002445E-02 0.30000000E+03</pdfrwt>
<pdfrwt beam="2">0</pdfrwt>
<totfact> 0.40329581E+04</totfact>
</mgrwt>
</event>
<event>
 6    1  0.1270461E-001  0.3000000E+03  0.7818608E-02  0.1093470E+00
         21   -1    0    0  501  502  0.00000000000E+00  0.00000000000E+00  0.13172917252E+01  0.13172917252E+01  0.00000000000E+00 0. -1.
         13   -1    0    0    0    0 -0.00000000000E+00 -0.00000000000E+00 -0.10000000000E+04  0.10000000000E+04  0.00000000000E+00 0.  1.
    9000005    2    1    2  501    0 -0.28650437200E+02 -0.20455270083E+02 -0.61669293841E+03  0.61770883261E+03  0.38413499894E+01 0.  0.
         13    1    3    3    0    0 -0.23019564729E+02 -0.16154781388E+02 -0.46381539195E+03  0.46466718750E+03  0.00000000000E+00 0.  1.
          1    1    3    3  501    0 -0.56308724706E+01 -0.43004886945E+01 -0.15287754646E+03  0.15304164511E+03  0.00000000000E+00 0.  1.
         -3    1    1    2    0  502  0.28650437200E+02  0.20455270083E+02 -0.38198976986E+03  0.38360845912E+03  0.00000000000E+00 0. -1.
<mgrwt>
<rscale>  1 0.30000000E+03</rscale>
<asrwt>0</asrwt>
<pdfrwt beam="1">  1       21 0.47901618E-02 0.30000000E+03</pdfrwt>
<pdfrwt beam="2">0</pdfrwt>
<totfact> 0.30986529E+04</totfact>
</mgrwt>
</event>
<event>
 6    1  0.1270461E-001  0.3000000E+03  0.7818608E-02  0.1093470E+00
         21   -1    0    0  501  502  0.00000000000E+00  0.00000000000E+00  0.10115883512E+02  0.10115883512E+02  0.00000000000E+00 0. -1.
         13   -1    0    0    0    0 -0.00000000000E+00 -0.00000000000E+00 -0.10000000000E+04  0.10000000000E+04  0.00000000000E+00 0.  1.
    9000005    2    1    2  501    0 -0.81011277871E+02 -0.39464000772E+02 -0.27109466555E+03  0.28569990544E+03  0.34472861994E+01 0.  0.
         13    1    3    3    0    0 -0.58549382608E+02 -0.26995776332E+02 -0.19615762027E+03  0.20648151039E+03  0.00000000000E+00 0.  1.
          1    1    3    3  501    0 -0.22461895263E+02 -0.12468224441E+02 -0.74937045281E+02  0.79218395054E+02  0.00000000000E+00 0.  1.
         -1    1    1    2    0  502  0.81011277871E+02  0.39464000772E+02 -0.71878945094E+03  0.72441597807E+03  0.00000000000E+00 0. -1.
<mgrwt>
<rscale>  1 0.30000000E+03</rscale>
<asrwt>0</asrwt>
<pdfrwt beam="1">  1       21 0.36785109E-01 0.30000000E+03</pdfrwt>
<pdfrwt beam="2">0</pdfrwt>
<totfact> 0.71857098E+02</totfact>
</mgrwt>
</event>
<event>
 6    1  0.1270461E-001  0.3000000E+03  0.7818608E-02  0.1093470E+00
         21   -1    0    0  501  502  0.00000000000E+00  0.00000000000E+00  0.14441214484E+01  0.14441214484E+01  0.00000000000E+00 0. -1.
         13   -1    0    0    0    0 -0.00000000000E+00 -0.00000000000E+00 -0.10000000000E+04  0.10000000000E+04  0.00000000000E+00 0.  1.
    9000005    2    1    2  501    0  0.33412127348E+01 -0.30350829293E+02 -0.79670301997E+03  0.79729487932E+03  0.33295690203E+01 0.  0.
         13    1    3    3    0    0  0.90892324882E+00 -0.14574071062E+02 -0.34152424776E+03  0.34183627879E+03  0.00000000000E+00 0.  1.
          1    1    3    3  501    0  0.24322894860E+01 -0.15776758231E+02 -0.45517877220E+03  0.45545860053E+03  0.00000000000E+00 0.  1.
         -3    1    1    2    0  502 -0.33412127348E+01  0.30350829293E+02 -0.20185285858E+03  0.20414924212E+03  0.00000000000E+00 0. -1.
<mgrwt>
<rscale>  1 0.30000000E+03</rscale>
<asrwt>0</asrwt>
<pdfrwt beam="1">  1       21 0.52513618E-02 0.30000000E+03</pdfrwt>
<pdfrwt beam="2">0</pdfrwt>
<totfact> 0.26491185E+04</totfact>
</mgrwt>
</event>
<event>
 6    1  0.1270461E-001  0.3000000E+03  0.7818608E-02  0.1093470E+00
         21   -1    0    0  501  502  0.00000000000E+00  0.00000000000E+00  0.94979079625E+00  0.94979079625E+00  0.00000000000E+00 0. -1.
         13   -1    0    0    0    0 -0.00000000000E+00 -0.00000000000E+00 -0.10000000000E+04  0.10000000000E+04  0.00000000000E+00 0.  1.
    9000005    2    1    2  501    0  0.30025028188E+02 -0.12081643707E+01 -0.60471516620E+03  0.60547148783E+03  0.35111764465E+01 0.  0.
         13    1    3    3    0    0  0.26861532939E+02 -0.21274252169E+01 -0.54431693505E+03  0.54498348018E+03  0.00000000000E+00 0.  1.
          1    1    3    3  501    0  0.31634952487E+01  0.91926084627E+00 -0.60398231156E+02  0.60488007650E+02  0.00000000000E+00 0.  1.
         -3    1    1    2    0  502 -0.30025028188E+02  0.12081643707E+01 -0.39433504300E+03  0.39547830297E+03  0.00000000000E+00 0. -1.
<mgrwt>
<rscale>  1 0.30000000E+03</rscale>
<asrwt>0</asrwt>
<pdfrwt beam="1">  1       21 0.34537920E-02 0.30000000E+03</pdfrwt>
<pdfrwt beam="2">0</pdfrwt>
<totfact> 0.53800298E+04</totfact>
</mgrwt>
</event>
<event>
 6    1  0.1270461E-001  0.3000000E+03  0.7818608E-02  0.1093470E+00
         21   -1    0    0  501  502  0.00000000000E+00  0.00000000000E+00  0.57027541602E+01  0.57027541602E+01  0.00000000000E+00 0. -1.
         13   -1    0    0    0    0 -0.00000000000E+00 -0.00000000000E+00 -0.10000000000E+04  0.10000000000E+04  0.00000000000E+00 0.  1.
    9000005    2    1    2  501    0  0.12712690967E+02  0.29949941687E+02 -0.95090433986E+03  0.95146664250E+03  0.33311718585E+01 0.  0.
         13    1    3    3    0    0  0.98140529742E+01  0.22089588027E+02 -0.66317137220E+03  0.66361173471E+03  0.00000000000E+00 0.  1.
          1    1    3    3  501    0  0.28986379933E+01  0.78603536594E+01 -0.28773296766E+03  0.28785490780E+03  0.00000000000E+00 0.  1.
         -1    1    1    2    0  502 -0.12712690967E+02 -0.29949941687E+02 -0.43392905978E+02  0.54236111659E+02  0.00000000000E+00 0. -1.
<mgrwt>
<rscale>  1 0.30000000E+03</rscale>
<asrwt>0</asrwt>
<pdfrwt beam="1">  1       21 0.20737332E-01 0.30000000E+03</pdfrwt>
<pdfrwt beam="2">0</pdfrwt>
<totfact> 0.22387637E+03</totfact>
</mgrwt>
</event>
<event>
 6    1  0.1270461E-001  0.3000000E+03  0.7818608E-02  0.1093470E+00
         21   -1    0    0  501  502  0.00000000000E+00  0.00000000000E+00  0.23388496830E+01  0.23388496830E+01  0.00000000000E+00 0. -1.
         13   -1    0    0    0    0 -0.00000000000E+00 -0.00000000000E+00 -0.10000000000E+04  0.10000000000E+04  0.00000000000E+00 0.  1.
    9000005    2    1    2  501    0  0.43877032272E+02  0.15286154394E+01 -0.70809180978E+03  0.70946014850E+03  0.34872065631E+01 0.  0.
         13    1    3    3    0    0  0.84352920496E+01  0.76013960476E+00 -0.15864295783E+03  0.15886887685E+03  0.00000000000E+00 0.  1.
          1    1    3    3  501    0  0.35441740223E+02  0.76847583463E+00 -0.54944885195E+03  0.55059127165E+03  0.00000000000E+00 0.  1.
         -1    1    1    2    0  502 -0.43877032272E+02 -0.15286154394E+01 -0.28956934054E+03  0.29287870118E+03  0.00000000000E+00 0. -1.
<mgrwt>
<rscale>  1 0.30000000E+03</rscale>
<asrwt>0</asrwt>
<pdfrwt beam="1">  1       21 0.85049259E-02 0.30000000E+03</pdfrwt>
<pdfrwt beam="2">0</pdfrwt>
<totfact> 0.11469538E+04</totfact>
</mgrwt>
</event>
<event>
 6    1  0.1270461E-001  0.3000000E+03  0.7818608E-02  0.1093470E+00
         21   -1    0    0  501  502  0.00000000000E+00  0.00000000000E+00  0.14557018526E+01  0.14557018526E+01  0.00000000000E+00 0. -1.
         13   -1    0    0    0    0 -0.00000000000E+00 -0.00000000000E+00 -0.10000000000E+04  0.10000000000E+04  0.00000000000E+00 0.  1.
    9000005    2    1    2  501    0  0.24105198418E+02  0.22772721473E+02 -0.74593114431E+03  0.74667528085E+03  0.33234843316E+01 0.  0.
         13    1    3    3    0    0  0.79220743050E+01  0.96839076511E+01 -0.27608760988E+03  0.27637095661E+03  0.00000000000E+00 0.  1.
          3    1    3    3  501    0  0.16183124113E+02  0.13088813822E+02 -0.46984353443E+03  0.47030432424E+03  0.00000000000E+00 0.  1.
         -3    1    1    2    0  502 -0.24105198418E+02 -0.22772721473E+02 -0.25261315384E+03  0.25478042100E+03  0.00000000000E+00 0. -1.
<mgrwt>
<rscale>  1 0.30000000E+03</rscale>
<asrwt>0</asrwt>
<pdfrwt beam="1">  1       21 0.52934724E-02 0.30000000E+03</pdfrwt>
<pdfrwt beam="2">0</pdfrwt>
<totfact> 0.26131884E+04</totfact>
</mgrwt>
</event>
<event>
 6    1  0.1270461E-001  0.3000000E+03  0.7818608E-02  0.1093470E+00
         21   -1    0    0  501  502  0.00000000000E+00  0.00000000000E+00  0.12578695489E+01  0.12578695489E+01  0.00000000000E+00 0. -1.
         13   -1    0    0    0    0 -0.00000000000E+00 -0.00000000000E+00 -0.10000000000E+04  0.10000000000E+04  0.00000000000E+00 0.  1.
    9000005    2    1    2  501    0  0.30580110816E+02 -0.13842226105E+02 -0.65855502942E+03  0.65941870545E+03  0.33988126290E+01 0.  0.
         13    1    3    3    0    0  0.20330317965E+01 -0.95478656891E+00 -0.63793894036E+02  0.63833421904E+02  0.00000000000E+00 0.  1.
          1    1    3    3  501    0  0.28547079020E+02 -0.12887439536E+02 -0.59476113538E+03  0.59558528355E+03  0.00000000000E+00 0.  1.
         -3    1    1    2    0  502 -0.30580110816E+02  0.13842226105E+02 -0.34018710103E+03  0.34183916410E+03  0.00000000000E+00 0. -1.
<mgrwt>
<rscale>  1 0.30000000E+03</rscale>
<asrwt>0</asrwt>
<pdfrwt beam="1">  1       21 0.45740807E-02 0.30000000E+03</pdfrwt>
<pdfrwt beam="2">0</pdfrwt>
<totfact> 0.33515972E+04</totfact>
</mgrwt>
</event>
<event>
 6    1  0.1270461E-001  0.3000000E+03  0.7818608E-02  0.1093470E+00
         21   -1    0    0  501  502  0.00000000000E+00  0.00000000000E+00  0.18863678571E+01  0.18863678571E+01  0.00000000000E+00 0. -1.
         13   -1    0    0    0    0 -0.00000000000E+00 -0.00000000000E+00 -0.10000000000E+04  0.10000000000E+04  0.00000000000E+00 0.  1.
    9000005    2    1    2  501    0  0.17354777298E+02  0.33630397064E+02 -0.74387416711E+03  0.74484571450E+03  0.37643064168E+01 0.  0.
         13    1    3    3    0    0  0.70249051058E+01  0.10047202605E+02 -0.25280759120E+03  0.25310466954E+03  0.00000000000E+00 0.  1.
          1    1    3    3  501    0  0.10329872192E+02  0.23583194459E+02 -0.49106657591E+03  0.49174104496E+03  0.00000000000E+00 0.  1.
         -3    1    1    2    0  502 -0.17354777298E+02 -0.33630397064E+02 -0.25423946503E+03  0.25704065336E+03  0.00000000000E+00 0. -1.
<mgrwt>
<rscale>  1 0.30000000E+03</rscale>
<asrwt>0</asrwt>
<pdfrwt beam="1">  1       21 0.68595339E-02 0.30000000E+03</pdfrwt>
<pdfrwt beam="2">0</pdfrwt>
<totfact> 0.16714191E+04</totfact>
</mgrwt>
</event>
<event>
 6    1  0.1270461E-001  0.3000000E+03  0.7818608E-02  0.1093470E+00
         21   -1    0    0  501  502  0.00000000000E+00  0.00000000000E+00  0.10366722774E+01  0.10366722774E+01  0.00000000000E+00 0. -1.
         13   -1    0    0    0    0 -0.00000000000E+00 -0.00000000000E+00 -0.10000000000E+04  0.10000000000E+04  0.00000000000E+00 0.  1.
    9000005    2    1    2  501    0  0.11193418097E+02  0.30106787956E+02 -0.50693023504E+03  0.50795627763E+03  0.30992736726E+01 0.  0.
         13    1    3    3    0    0  0.84317762658E+01  0.18570753622E+02 -0.32719099417E+03  0.32782604291E+03  0.00000000000E+00 0.  1.
          1    1    3    3  501    0  0.27616418316E+01  0.11536034334E+02 -0.17973924087E+03  0.18013023473E+03  0.00000000000E+00 0.  1.
         -3    1    1    2    0  502 -0.11193418097E+02 -0.30106787956E+02 -0.49203309268E+03  0.49308039464E+03  0.00000000000E+00 0. -1.
<mgrwt>
<rscale>  1 0.30000000E+03</rscale>
<asrwt>0</asrwt>
<pdfrwt beam="1">  1       21 0.37697253E-02 0.30000000E+03</pdfrwt>
<pdfrwt beam="2">0</pdfrwt>
<totfact> 0.46456146E+04</totfact>
</mgrwt>
</event>
<event>
 6    1  0.1270461E-001  0.3000000E+03  0.7818608E-02  0.1093470E+00
         21   -1    0    0  501  502  0.00000000000E+00  0.00000000000E+00  0.21289860733E+02  0.21289860733E+02  0.00000000000E+00 0. -1.
         13   -1    0    0    0    0 -0.00000000000E+00 -0.00000000000E+00 -0.10000000000E+04  0.10000000000E+04  0.00000000000E+00 0.  1.
    9000005    2    1    2  501    0  0.41058147102E+02  0.72784008911E+02 -0.90793365638E+03  0.91177915839E+03  0.37981446102E+01 0.  0.
         13    1    3    3    0    0  0.23658562281E+01  0.49827592474E+01 -0.51200619380E+02  0.51496879423E+02  0.00000000000E+00 0.  1.
          3    1    3    3  501    0  0.38692290874E+02  0.67801249664E+02 -0.85673303700E+03  0.86028227897E+03  0.00000000000E+00 0.  1.
         -1    1    1    2    0  502 -0.41058147102E+02 -0.72784008911E+02 -0.70776482891E+02  0.10951070234E+03  0.00000000000E+00 0. -1.
<mgrwt>
<rscale>  1 0.30000000E+03</rscale>
<asrwt>0</asrwt>
<pdfrwt beam="1">  1       21 0.77417839E-01 0.30000000E+03</pdfrwt>
<pdfrwt beam="2">0</pdfrwt>
<totfact> 0.13919944E+02</totfact>
</mgrwt>
</event>
<event>
 6    1  0.1270461E-001  0.3000000E+03  0.7818608E-02  0.1093470E+00
         21   -1    0    0  501  502  0.00000000000E+00  0.00000000000E+00  0.47407673420E+01  0.47407673420E+01  0.00000000000E+00 0. -1.
         13   -1    0    0    0    0 -0.00000000000E+00 -0.00000000000E+00 -0.10000000000E+04  0.10000000000E+04  0.00000000000E+00 0.  1.
    9000005    2    1    2  501    0 -0.50455542206E+02  0.41032143970E+02 -0.33385229565E+03  0.34014424697E+03  0.33696962751E+01 0.  0.
         13    1    3    3    0    0 -0.42087046001E+02  0.32584580747E+02 -0.27150406720E+03  0.27667224807E+03  0.00000000000E+00 0.  1.
          3    1    3    3  501    0 -0.83684962056E+01  0.84475632233E+01 -0.62348228450E+02  0.63471998897E+02  0.00000000000E+00 0.  1.
         -3    1    1    2    0  502  0.50455542206E+02 -0.41032143970E+02 -0.66140693700E+03  0.66459652038E+03  0.00000000000E+00 0. -1.
<mgrwt>
<rscale>  1 0.30000000E+03</rscale>
<asrwt>0</asrwt>
<pdfrwt beam="1">  1       21 0.17239190E-01 0.30000000E+03</pdfrwt>
<pdfrwt beam="2">0</pdfrwt>
<totfact> 0.31772258E+03</totfact>
</mgrwt>
</event>
<event>
 6    1  0.1270461E-001  0.3000000E+03  0.7818608E-02  0.1093470E+00
         21   -1    0    0  501  502  0.00000000000E+00  0.00000000000E+00  0.15451272483E+01  0.15451272483E+01  0.00000000000E+00 0. -1.
         13   -1    0    0    0    0 -0.00000000000E+00 -0.00000000000E+00 -0.10000000000E+04  0.10000000000E+04  0.00000000000E+00 0.  1.
    9000005    2    1    2  501    0 -0.29697628205E+02 -0.12413478429E+02 -0.78596227210E+03  0.78662851807E+03  0.34188760070E+01 0.  0.
         13    1    3    3    0    0 -0.12639772742E+02 -0.66843443557E+01 -0.37498170003E+03  0.37525420674E+03  0.00000000000E+00 0.  1.
          1    1    3    3  501    0 -0.17057855463E+02 -0.57291340735E+01 -0.41098057207E+03  0.41137431133E+03  0.00000000000E+00 0.  1.
         -1    1    1    2    0  502  0.29697628205E+02  0.12413478429E+02 -0.21249260065E+03  0.21491660918E+03  0.00000000000E+00 0. -1.
<mgrwt>
<rscale>  1 0.30000000E+03</rscale>
<asrwt>0</asrwt>
<pdfrwt beam="1">  1       21 0.56186564E-02 0.30000000E+03</pdfrwt>
<pdfrwt beam="2">0</pdfrwt>
<totfact> 0.23593917E+04</totfact>
</mgrwt>
</event>
<event>
 6    1  0.1270461E-001  0.3000000E+03  0.7818608E-02  0.1093470E+00
         21   -1    0    0  501  502  0.00000000000E+00  0.00000000000E+00  0.29355149912E+01  0.29355149912E+01  0.00000000000E+00 0. -1.
         13   -1    0    0    0    0 -0.00000000000E+00 -0.00000000000E+00 -0.10000000000E+04  0.10000000000E+04  0.00000000000E+00 0.  1.
    9000005    2    1    2  501    0  0.24486304768E+02 -0.23336896322E+02 -0.89013685785E+03  0.89078513692E+03  0.32163034184E+01 0.  0.
         13    1    3    3    0    0  0.74808329307E+01 -0.87894260501E+01 -0.32792657312E+03  0.32812963023E+03  0.00000000000E+00 0.  1.
          1    1    3    3  501    0  0.17005471838E+02 -0.14547470272E+02 -0.56221028473E+03  0.56265550670E+03  0.00000000000E+00 0.  1.
         -3    1    1    2    0  502 -0.24486304768E+02  0.23336896322E+02 -0.10692762716E+03  0.11215037807E+03  0.00000000000E+00 0. -1.
<mgrwt>
<rscale>  1 0.30000000E+03</rscale>
<asrwt>0</asrwt>
<pdfrwt beam="1">  1       21 0.10674622E-01 0.30000000E+03</pdfrwt>
<pdfrwt beam="2">0</pdfrwt>
<totfact> 0.76540461E+03</totfact>
</mgrwt>
</event>
<event>
 6    1  0.1270461E-001  0.3000000E+03  0.7818608E-02  0.1093470E+00
         21   -1    0    0  501  502  0.00000000000E+00  0.00000000000E+00  0.93698628980E+00  0.93698628980E+00  0.00000000000E+00 0. -1.
         13   -1    0    0    0    0 -0.00000000000E+00 -0.00000000000E+00 -0.10000000000E+04  0.10000000000E+04  0.00000000000E+00 0.  1.
    9000005    2    1    2  501    0  0.29765967113E+01  0.30264688440E+02 -0.45770737930E+03  0.45872786206E+03  0.32241071190E+01 0.  0.
         13    1    3    3    0    0  0.13580966200E+01  0.21617887264E+02 -0.34342320734E+03  0.34410561869E+03  0.00000000000E+00 0.  1.
          1    1    3    3  501    0  0.16185000914E+01  0.86468011758E+01 -0.11428417196E+03  0.11462224336E+03  0.00000000000E+00 0.  1.
         -1    1    1    2    0  502 -0.29765967113E+01 -0.30264688440E+02 -0.54135563441E+03  0.54220912423E+03  0.00000000000E+00 0. -1.
<mgrwt>
<rscale>  1 0.30000000E+03</rscale>
<asrwt>0</asrwt>
<pdfrwt beam="1">  1       21 0.34072301E-02 0.30000000E+03</pdfrwt>
<pdfrwt beam="2">0</pdfrwt>
<totfact> 0.55035294E+04</totfact>
</mgrwt>
</event>
<event>
 6    1  0.1270461E-001  0.3000000E+03  0.7818608E-02  0.1093470E+00
         21   -1    0    0  501  502  0.00000000000E+00  0.00000000000E+00  0.32866579818E+01  0.32866579818E+01  0.00000000000E+00 0. -1.
         13   -1    0    0    0    0 -0.00000000000E+00 -0.00000000000E+00 -0.10000000000E+04  0.10000000000E+04  0.00000000000E+00 0.  1.
    9000005    2    1    2  501    0 -0.24651341753E+02  0.48264798306E+02 -0.66125139894E+03  0.66347510041E+03  0.29354484889E+01 0.  0.
         13    1    3    3    0    0 -0.20473895731E+02  0.38157678513E+02 -0.51805865932E+03  0.51986533192E+03  0.00000000000E+00 0.  1.
          1    1    3    3  501    0 -0.41774460228E+01  0.10107119793E+02 -0.14319273962E+03  0.14360976849E+03  0.00000000000E+00 0.  1.
         -1    1    1    2    0  502  0.24651341753E+02 -0.48264798306E+02 -0.33546194308E+03  0.33981155757E+03  0.00000000000E+00 0. -1.
<mgrwt>
<rscale>  1 0.30000000E+03</rscale>
<asrwt>0</asrwt>
<pdfrwt beam="1">  1       21 0.11951509E-01 0.30000000E+03</pdfrwt>
<pdfrwt beam="2">0</pdfrwt>
<totfact> 0.62428185E+03</totfact>
</mgrwt>
</event>
<event>
 6    1  0.1270461E-001  0.3000000E+03  0.7818608E-02  0.1093470E+00
         21   -1    0    0  501  502  0.00000000000E+00  0.00000000000E+00  0.95976519007E+00  0.95976519007E+00  0.00000000000E+00 0. -1.
         13   -1    0    0    0    0 -0.00000000000E+00 -0.00000000000E+00 -0.10000000000E+04  0.10000000000E+04  0.00000000000E+00 0.  1.
    9000005    2    1    2  501    0 -0.14210322902E+02  0.27226818944E+02 -0.44650171355E+03  0.44756835722E+03  0.32281927480E+01 0.  0.
         13    1    3    3    0    0 -0.49569572479E+00  0.25403941057E+00 -0.50029273664E+01  0.50338387447E+01  0.00000000000E+00 0.  1.
          1    1    3    3  501    0 -0.13714627177E+02  0.26972779534E+02 -0.44149878619E+03  0.44253451847E+03  0.00000000000E+00 0.  1.
         -1    1    1    2    0  502  0.14210322902E+02 -0.27226818944E+02 -0.55253852126E+03  0.55339140797E+03  0.00000000000E+00 0. -1.
<mgrwt>
<rscale>  1 0.30000000E+03</rscale>
<asrwt>0</asrwt>
<pdfrwt beam="1">  1       21 0.34900626E-02 0.30000000E+03</pdfrwt>
<pdfrwt beam="2">0</pdfrwt>
<totfact> 0.52867888E+04</totfact>
</mgrwt>
</event>
<event>
 6    1  0.1270461E-001  0.3000000E+03  0.7818608E-02  0.1093470E+00
         21   -1    0    0  501  502  0.00000000000E+00  0.00000000000E+00  0.31254926800E+01  0.31254926800E+01  0.00000000000E+00 0. -1.
         13   -1    0    0    0    0 -0.00000000000E+00 -0.00000000000E+00 -0.10000000000E+04  0.10000000000E+04  0.00000000000E+00 0.  1.
    9000005    2    1    2  501    0  0.20201755733E+02 -0.26111928008E+02 -0.90306739561E+03  0.90367843176E+03  0.37474376291E+01 0.  0.
         13    1    3    3    0    0  0.82593456416E+01 -0.99256596381E+01 -0.40239645964E+03  0.40260358449E+03  0.00000000000E+00 0.  1.
          1    1    3    3  501    0  0.11942410091E+02 -0.16186268369E+02 -0.50067093597E+03  0.50107484727E+03  0.00000000000E+00 0.  1.
         -3    1    1    2    0  502 -0.20201755733E+02  0.26111928008E+02 -0.93807111707E+02  0.99447060921E+02  0.00000000000E+00 0. -1.
<mgrwt>
<rscale>  1 0.30000000E+03</rscale>
<asrwt>0</asrwt>
<pdfrwt beam="1">  1       21 0.11365452E-01 0.30000000E+03</pdfrwt>
<pdfrwt beam="2">0</pdfrwt>
<totfact> 0.68373059E+03</totfact>
</mgrwt>
</event>
<event>
 6    1  0.1270461E-001  0.3000000E+03  0.7818608E-02  0.1093470E+00
         21   -1    0    0  501  502  0.00000000000E+00  0.00000000000E+00  0.26057160025E+01  0.26057160025E+01  0.00000000000E+00 0. -1.
         13   -1    0    0    0    0 -0.00000000000E+00 -0.00000000000E+00 -0.10000000000E+04  0.10000000000E+04  0.00000000000E+00 0.  1.
    9000005    2    1    2  501    0  0.17424784428E+02  0.42086373141E+02 -0.27418482158E+03  0.27796317485E+03  0.33651555380E+01 0.  0.
         13    1    3    3    0    0  0.33058056874E+01  0.54804115901E+01 -0.42688439251E+02  0.43165566232E+02  0.00000000000E+00 0.  1.
          1    1    3    3  501    0  0.14118978740E+02  0.36605961551E+02 -0.23149638233E+03  0.23479760862E+03  0.00000000000E+00 0.  1.
         -3    1    1    2    0  502 -0.17424784428E+02 -0.42086373141E+02 -0.72320946242E+03  0.72464254115E+03  0.00000000000E+00 0. -1.
<mgrwt>
<rscale>  1 0.30000000E+03</rscale>
<asrwt>0</asrwt>
<pdfrwt beam="1">  1       21 0.94753509E-02 0.30000000E+03</pdfrwt>
<pdfrwt beam="2">0</pdfrwt>
<totfact> 0.94714502E+03</totfact>
</mgrwt>
</event>
<event>
 6    1  0.1270461E-001  0.3000000E+03  0.7818608E-02  0.1093470E+00
         21   -1    0    0  501  502  0.00000000000E+00  0.00000000000E+00  0.40230008627E+01  0.40230008627E+01  0.00000000000E+00 0. -1.
         13   -1    0    0    0    0 -0.00000000000E+00 -0.00000000000E+00 -0.10000000000E+04  0.10000000000E+04  0.00000000000E+00 0.  1.
    9000005    2    1    2  501    0 -0.81204424146E+01  0.32485437434E+02 -0.92429100791E+03  0.92490203924E+03  0.29444272952E+01 0.  0.
         13    1    3    3    0    0 -0.98494507238E+00  0.63462592396E+01 -0.15114095711E+03  0.15127734146E+03  0.00000000000E+00 0.  1.
          3    1    3    3  501    0 -0.71354973422E+01  0.26139178194E+02 -0.77315005080E+03  0.77362469777E+03  0.00000000000E+00 0.  1.
         -1    1    1    2    0  502  0.81204424146E+01 -0.32485437434E+02 -0.71685991228E+02  0.79120961626E+02  0.00000000000E+00 0. -1.
<mgrwt>
<rscale>  1 0.30000000E+03</rscale>
<asrwt>0</asrwt>
<pdfrwt beam="1">  1       21 0.14629125E-01 0.30000000E+03</pdfrwt>
<pdfrwt beam="2">0</pdfrwt>
<totfact> 0.43130591E+03</totfact>
</mgrwt>
</event>
<event>
 6    1  0.1270461E-001  0.3000000E+03  0.7818608E-02  0.1093470E+00
         21   -1    0    0  501  502  0.00000000000E+00  0.00000000000E+00  0.22285973979E+01  0.22285973979E+01  0.00000000000E+00 0. -1.
         13   -1    0    0    0    0 -0.00000000000E+00 -0.00000000000E+00 -0.10000000000E+04  0.10000000000E+04  0.00000000000E+00 0.  1.
    9000005    2    1    2  501    0  0.35804938500E+02  0.30889490346E+01 -0.82336446461E+03  0.82415750135E+03  0.38743032496E+01 0.  0.
         13    1    3    3    0    0  0.15354345009E+02  0.12690049472E+01 -0.39735481020E+03  0.39765338107E+03  0.00000000000E+00 0.  1.
          1    1    3    3  501    0  0.20450593490E+02  0.18199440874E+01 -0.42600965441E+03  0.42650412028E+03  0.00000000000E+00 0.  1.
         -1    1    1    2    0  502 -0.35804938500E+02 -0.30889490346E+01 -0.17440693799E+03  0.17807109605E+03  0.00000000000E+00 0. -1.
<mgrwt>
<rscale>  1 0.30000000E+03</rscale>
<asrwt>0</asrwt>
<pdfrwt beam="1">  1       21 0.81040076E-02 0.30000000E+03</pdfrwt>
<pdfrwt beam="2">0</pdfrwt>
<totfact> 0.12487206E+04</totfact>
</mgrwt>
</event>
<event>
 6    1  0.1270461E-001  0.3000000E+03  0.7818608E-02  0.1093470E+00
         21   -1    0    0  501  502  0.00000000000E+00  0.00000000000E+00  0.67735904734E+01  0.67735904734E+01  0.00000000000E+00 0. -1.
         13   -1    0    0    0    0 -0.00000000000E+00 -0.00000000000E+00 -0.10000000000E+04  0.10000000000E+04  0.00000000000E+00 0.  1.
    9000005    2    1    2  501    0  0.13690102041E+02  0.43990323558E+02 -0.91366517942E+03  0.91483580283E+03  0.42330362225E+01 0.  0.
         13    1    3    3    0    0  0.57184447842E+01  0.12083389700E+02 -0.25573051007E+03  0.25607968037E+03  0.00000000000E+00 0.  1.
          1    1    3    3  501    0  0.79716572564E+01  0.31906933858E+02 -0.65793466935E+03  0.65875612246E+03  0.00000000000E+00 0.  1.
         -3    1    1    2    0  502 -0.13690102041E+02 -0.43990323558E+02 -0.79561230108E+02  0.91937787644E+02  0.00000000000E+00 0. -1.
<mgrwt>
<rscale>  1 0.30000000E+03</rscale>
<asrwt>0</asrwt>
<pdfrwt beam="1">  1       21 0.24631290E-01 0.30000000E+03</pdfrwt>
<pdfrwt beam="2">0</pdfrwt>
<totfact> 0.16055655E+03</totfact>
</mgrwt>
</event>
<event>
 6    1  0.1270461E-001  0.3000000E+03  0.7818608E-02  0.1093470E+00
         21   -1    0    0  501  502  0.00000000000E+00  0.00000000000E+00  0.24061300465E+01  0.24061300465E+01  0.00000000000E+00 0. -1.
         13   -1    0    0    0    0 -0.00000000000E+00 -0.00000000000E+00 -0.10000000000E+04  0.10000000000E+04  0.00000000000E+00 0.  1.
    9000005    2    1    2  501    0  0.23977317454E+01 -0.48327943330E+02 -0.46328629768E+03  0.46591202848E+03  0.99239832024E+01 0.  0.
         13    1    3    3    0    0 -0.22680038087E+00 -0.75292203693E+01 -0.44299822862E+02  0.44935675175E+02  0.00000000000E+00 0.  1.
          3    1    3    3  501    0  0.26245321262E+01 -0.40798722961E+02 -0.41898647481E+03  0.42097635330E+03  0.00000000000E+00 0.  1.
         -3    1    1    2    0  502 -0.23977317454E+01  0.48327943330E+02 -0.53430757228E+03  0.53649410157E+03  0.00000000000E+00 0. -1.
<mgrwt>
<rscale>  1 0.30000000E+03</rscale>
<asrwt>0</asrwt>
<pdfrwt beam="1">  1       21 0.87495823E-02 0.30000000E+03</pdfrwt>
<pdfrwt beam="2">0</pdfrwt>
<totfact> 0.10909440E+04</totfact>
</mgrwt>
</event>
<event>
 6    1  0.1270461E-001  0.3000000E+03  0.7818608E-02  0.1093470E+00
         21   -1    0    0  501  502  0.00000000000E+00  0.00000000000E+00  0.10216487954E+01  0.10216487954E+01  0.00000000000E+00 0. -1.
         13   -1    0    0    0    0 -0.00000000000E+00 -0.00000000000E+00 -0.10000000000E+04  0.10000000000E+04  0.00000000000E+00 0.  1.
    9000005    2    1    2  501    0  0.18993725174E+01 -0.30295995452E+02 -0.65378531685E+03  0.65449648965E+03  0.29932380931E+01 0.  0.
         13    1    3    3    0    0  0.80491108426E+00 -0.79898697479E+01 -0.20191855961E+03  0.20207817947E+03  0.00000000000E+00 0.  1.
          1    1    3    3  501    0  0.10944614331E+01 -0.22306125705E+02 -0.45186675724E+03  0.45241831018E+03  0.00000000000E+00 0.  1.
         -3    1    1    2    0  502 -0.18993725174E+01  0.30295995452E+02 -0.34519303435E+03  0.34652515914E+03  0.00000000000E+00 0. -1.
<mgrwt>
<rscale>  1 0.30000000E+03</rscale>
<asrwt>0</asrwt>
<pdfrwt beam="1">  1       21 0.37150944E-02 0.30000000E+03</pdfrwt>
<pdfrwt beam="2">0</pdfrwt>
<totfact> 0.47608968E+04</totfact>
</mgrwt>
</event>
<event>
 6    1  0.1270461E-001  0.3000000E+03  0.7818608E-02  0.1093470E+00
         21   -1    0    0  501  502  0.00000000000E+00  0.00000000000E+00  0.46000180675E+01  0.46000180675E+01  0.00000000000E+00 0. -1.
         13   -1    0    0    0    0 -0.00000000000E+00 -0.00000000000E+00 -0.10000000000E+04  0.10000000000E+04  0.00000000000E+00 0.  1.
    9000005    2    1    2  501    0 -0.17148459345E+02  0.30862516253E+02 -0.92652205336E+03  0.92720018853E+03  0.32418649312E+01 0.  0.
         13    1    3    3    0    0 -0.16558589962E+02  0.30338973634E+02 -0.89254341309E+03  0.89321239606E+03  0.00000000000E+00 0.  1.
          3    1    3    3  501    0 -0.58986938263E+00  0.52354261974E+00 -0.33978640262E+02  0.33987792468E+02  0.00000000000E+00 0.  1.
         -3    1    1    2    0  502  0.17148459345E+02 -0.30862516253E+02 -0.68877928576E+02  0.77399829536E+02  0.00000000000E+00 0. -1.
<mgrwt>
<rscale>  1 0.30000000E+03</rscale>
<asrwt>0</asrwt>
<pdfrwt beam="1">  1       21 0.16727374E-01 0.30000000E+03</pdfrwt>
<pdfrwt beam="2">0</pdfrwt>
<totfact> 0.33617177E+03</totfact>
</mgrwt>
</event>
<event>
 6    1  0.1270461E-001  0.3000000E+03  0.7818608E-02  0.1093470E+00
         21   -1    0    0  501  502  0.00000000000E+00  0.00000000000E+00  0.53819338198E+01  0.53819338198E+01  0.00000000000E+00 0. -1.
         13   -1    0    0    0    0 -0.00000000000E+00 -0.00000000000E+00 -0.10000000000E+04  0.10000000000E+04  0.00000000000E+00 0.  1.
    9000005    2    1    2  501    0  0.40672930992E+02 -0.48391933092E+02 -0.75216968673E+03  0.75482798114E+03  0.31586353794E+01 0.  0.
         13    1    3    3    0    0  0.37671446100E+02 -0.45684801839E+02 -0.71010991320E+03  0.71257443667E+03  0.00000000000E+00 0.  1.
          1    1    3    3  501    0  0.30014848925E+01 -0.27071312529E+01 -0.42059773526E+02  0.42253544470E+02  0.00000000000E+00 0.  1.
         -3    1    1    2    0  502 -0.40672930992E+02  0.48391933092E+02 -0.24244837945E+03  0.25055395268E+03  0.00000000000E+00 0. -1.
<mgrwt>
<rscale>  1 0.30000000E+03</rscale>
<asrwt>0</asrwt>
<pdfrwt beam="1">  1       21 0.19570710E-01 0.30000000E+03</pdfrwt>
<pdfrwt beam="2">0</pdfrwt>
<totfact> 0.25005237E+03</totfact>
</mgrwt>
</event>
<event>
 6    1  0.1270461E-001  0.3000000E+03  0.7818608E-02  0.1093470E+00
         21   -1    0    0  501  502  0.00000000000E+00  0.00000000000E+00  0.29686056436E+01  0.29686056436E+01  0.00000000000E+00 0. -1.
         13   -1    0    0    0    0 -0.00000000000E+00 -0.00000000000E+00 -0.10000000000E+04  0.10000000000E+04  0.00000000000E+00 0.  1.
    9000005    2    1    2  501    0  0.30808447784E+02 -0.95898931176E+01 -0.90130713931E+03  0.90195247075E+03  0.11071296848E+02 0.  0.
         13    1    3    3    0    0  0.18847248982E+02 -0.44300341387E+01 -0.39095003538E+03  0.39142914322E+03  0.00000000000E+00 0.  1.
          1    1    3    3  501    0  0.11961198802E+02 -0.51598589789E+01 -0.51035710393E+03  0.51052332753E+03  0.00000000000E+00 0.  1.
         -1    1    1    2    0  502 -0.30808447784E+02  0.95898931176E+01 -0.95724255045E+02  0.10101613489E+03  0.00000000000E+00 0. -1.
<mgrwt>
<rscale>  1 0.30000000E+03</rscale>
<asrwt>0</asrwt>
<pdfrwt beam="1">  1       21 0.10794952E-01 0.30000000E+03</pdfrwt>
<pdfrwt beam="2">0</pdfrwt>
<totfact> 0.75015328E+03</totfact>
</mgrwt>
</event>
<event>
 6    1  0.1270461E-001  0.3000000E+03  0.7818608E-02  0.1093470E+00
         21   -1    0    0  501  502  0.00000000000E+00  0.00000000000E+00  0.54080438446E+01  0.54080438446E+01  0.00000000000E+00 0. -1.
         13   -1    0    0    0    0 -0.00000000000E+00 -0.00000000000E+00 -0.10000000000E+04  0.10000000000E+04  0.00000000000E+00 0.  1.
    9000005    2    1    2  501    0 -0.41092235685E+02  0.57455741054E+02 -0.63259498844E+03  0.63658350745E+03  0.85093208132E+01 0.  0.
         13    1    3    3    0    0 -0.32688720071E+01  0.25083707536E+01 -0.53692911321E+02  0.53850776913E+02  0.00000000000E+00 0.  1.
          3    1    3    3  501    0 -0.37823363678E+02  0.54947370301E+02 -0.57890207712E+03  0.58273273053E+03  0.00000000000E+00 0.  1.
         -3    1    1    2    0  502  0.41092235685E+02 -0.57455741054E+02 -0.36199696772E+03  0.36882453640E+03  0.00000000000E+00 0. -1.
<mgrwt>
<rscale>  1 0.30000000E+03</rscale>
<asrwt>0</asrwt>
<pdfrwt beam="1">  1       21 0.19665655E-01 0.30000000E+03</pdfrwt>
<pdfrwt beam="2">0</pdfrwt>
<totfact> 0.24775924E+03</totfact>
</mgrwt>
</event>
<event>
 6    1  0.1270461E-001  0.3000000E+03  0.7818608E-02  0.1093470E+00
         21   -1    0    0  501  502  0.00000000000E+00  0.00000000000E+00  0.14655677477E+01  0.14655677477E+01  0.00000000000E+00 0. -1.
         13   -1    0    0    0    0 -0.00000000000E+00 -0.00000000000E+00 -0.10000000000E+04  0.10000000000E+04  0.00000000000E+00 0.  1.
    9000005    2    1    2  501    0  0.27362260364E+02 -0.22765991144E+02 -0.67817095951E+03  0.67913074445E+03  0.59777993475E+01 0.  0.
         13    1    3    3    0    0  0.13742421456E+02 -0.76003260502E+01 -0.28934909985E+03  0.28977494835E+03  0.00000000000E+00 0.  1.
          1    1    3    3  501    0  0.13619838908E+02 -0.15165665093E+02 -0.38882185966E+03  0.38935579610E+03  0.00000000000E+00 0.  1.
         -3    1    1    2    0  502 -0.27362260364E+02  0.22765991144E+02 -0.32036347274E+03  0.32233482330E+03  0.00000000000E+00 0. -1.
<mgrwt>
<rscale>  1 0.30000000E+03</rscale>
<asrwt>0</asrwt>
<pdfrwt beam="1">  1       21 0.53293485E-02 0.30000000E+03</pdfrwt>
<pdfrwt beam="2">0</pdfrwt>
<totfact> 0.25831692E+04</totfact>
</mgrwt>
</event>
<event>
 6    1  0.1270461E-001  0.3000000E+03  0.7818608E-02  0.1093470E+00
         21   -1    0    0  501  502  0.00000000000E+00  0.00000000000E+00  0.51596439440E+01  0.51596439440E+01  0.00000000000E+00 0. -1.
         13   -1    0    0    0    0 -0.00000000000E+00 -0.00000000000E+00 -0.10000000000E+04  0.10000000000E+04  0.00000000000E+00 0.  1.
    9000005    2    1    2  501    0  0.28122611821E+02 -0.49413106260E+02 -0.80439674132E+03  0.80641028731E+03  0.33011632106E+01 0.  0.
         13    1    3    3    0    0  0.15450406477E+02 -0.23901500477E+02 -0.40744749089E+03  0.40844027057E+03  0.00000000000E+00 0.  1.
          1    1    3    3  501    0  0.12672205345E+02 -0.25511605783E+02 -0.39694925042E+03  0.39797001675E+03  0.00000000000E+00 0.  1.
         -1    1    1    2    0  502 -0.28122611821E+02  0.49413106260E+02 -0.19044361474E+03  0.19874935663E+03  0.00000000000E+00 0. -1.
<mgrwt>
<rscale>  1 0.30000000E+03</rscale>
<asrwt>0</asrwt>
<pdfrwt beam="1">  1       21 0.18762381E-01 0.30000000E+03</pdfrwt>
<pdfrwt beam="2">0</pdfrwt>
<totfact> 0.27088915E+03</totfact>
</mgrwt>
</event>
<event>
 6    1  0.1270461E-001  0.3000000E+03  0.7818608E-02  0.1093470E+00
         21   -1    0    0  501  502  0.00000000000E+00  0.00000000000E+00  0.28439769539E+01  0.28439769539E+01  0.00000000000E+00 0. -1.
         13   -1    0    0    0    0 -0.00000000000E+00 -0.00000000000E+00 -0.10000000000E+04  0.10000000000E+04  0.00000000000E+00 0.  1.
    9000005    2    1    2  501    0  0.30068918750E+02 -0.13662087558E+02 -0.89211860614E+03  0.89273652279E+03  0.34783901843E+01 0.  0.
         13    1    3    3    0    0  0.79955325971E+01 -0.48867354182E+01 -0.28220678040E+03  0.28236231269E+03  0.00000000000E+00 0.  1.
          3    1    3    3  501    0  0.22073386153E+02 -0.87753521395E+01 -0.60991182574E+03  0.61037421010E+03  0.00000000000E+00 0.  1.
         -1    1    1    2    0  502 -0.30068918750E+02  0.13662087558E+02 -0.10503741691E+03  0.11010745416E+03  0.00000000000E+00 0. -1.
<mgrwt>
<rscale>  1 0.30000000E+03</rscale>
<asrwt>0</asrwt>
<pdfrwt beam="1">  1       21 0.10341756E-01 0.30000000E+03</pdfrwt>
<pdfrwt beam="2">0</pdfrwt>
<totfact> 0.81013055E+03</totfact>
</mgrwt>
</event>
<event>
 6    1  0.1270461E-001  0.3000000E+03  0.7818608E-02  0.1093470E+00
         21   -1    0    0  501  502  0.00000000000E+00  0.00000000000E+00  0.34912677297E+01  0.34912677297E+01  0.00000000000E+00 0. -1.
         13   -1    0    0    0    0 -0.00000000000E+00 -0.00000000000E+00 -0.10000000000E+04  0.10000000000E+04  0.00000000000E+00 0.  1.
    9000005    2    1    2  501    0 -0.41333371949E+01  0.37432131207E+02 -0.88476572727E+03  0.88557287184E+03  0.32665366156E+01 0.  0.
         13    1    3    3    0    0 -0.12382700183E+01  0.24491542228E+02 -0.58707309870E+03  0.58758505101E+03  0.00000000000E+00 0.  1.
          3    1    3    3  501    0 -0.28950671766E+01  0.12940588979E+02 -0.29769262857E+03  0.29798782082E+03  0.00000000000E+00 0.  1.
         -3    1    1    2    0  502  0.41333371949E+01 -0.37432131207E+02 -0.11174300500E+03  0.11791839589E+03  0.00000000000E+00 0. -1.
<mgrwt>
<rscale>  1 0.30000000E+03</rscale>
<asrwt>0</asrwt>
<pdfrwt beam="1">  1       21 0.12695546E-01 0.30000000E+03</pdfrwt>
<pdfrwt beam="2">0</pdfrwt>
<totfact> 0.55932239E+03</totfact>
</mgrwt>
</event>
<event>
 6    1  0.1270461E-001  0.3000000E+03  0.7818608E-02  0.1093470E+00
         21   -1    0    0  501  502  0.00000000000E+00  0.00000000000E+00  0.13826735063E+01  0.13826735063E+01  0.00000000000E+00 0. -1.
         13   -1    0    0    0    0 -0.00000000000E+00 -0.00000000000E+00 -0.10000000000E+04  0.10000000000E+04  0.00000000000E+00 0.  1.
    9000005    2    1    2  501    0  0.30694378991E+02 -0.15980799983E+01 -0.78015700359E+03  0.78077077119E+03  0.36535092255E+01 0.  0.
         13    1    3    3    0    0  0.29498312911E+01  0.68867615424E+00 -0.95511613923E+02  0.95559636739E+02  0.00000000000E+00 0.  1.
          1    1    3    3  501    0  0.27744547700E+02 -0.22867561525E+01 -0.68464538967E+03  0.68521113445E+03  0.00000000000E+00 0.  1.
         -1    1    1    2    0  502 -0.30694378991E+02  0.15980799983E+01 -0.21846032290E+03  0.22061190232E+03  0.00000000000E+00 0. -1.
<mgrwt>
<rscale>  1 0.30000000E+03</rscale>
<asrwt>0</asrwt>
<pdfrwt beam="1">  1       21 0.50279143E-02 0.30000000E+03</pdfrwt>
<pdfrwt beam="2">0</pdfrwt>
<totfact> 0.28532533E+04</totfact>
</mgrwt>
</event>
<event>
 6    1  0.1270461E-001  0.3000000E+03  0.7818608E-02  0.1093470E+00
         21   -1    0    0  501  502  0.00000000000E+00  0.00000000000E+00  0.90976112189E+00  0.90976112189E+00  0.00000000000E+00 0. -1.
         13   -1    0    0    0    0 -0.00000000000E+00 -0.00000000000E+00 -0.10000000000E+04  0.10000000000E+04  0.00000000000E+00 0.  1.
    9000005    2    1    2  501    0  0.26591313605E+02 -0.14022905045E+02 -0.49399355825E+03  0.49491925073E+03  0.34189655513E+01 0.  0.
         13    1    3    3    0    0 -0.47491110584E-01  0.88840239233E-01 -0.25334209274E+01  0.25354229606E+01  0.00000000000E+00 0.  1.
          3    1    3    3  501    0  0.26638804716E+02 -0.14111745285E+02 -0.49146013732E+03  0.49238382777E+03  0.00000000000E+00 0.  1.
         -1    1    1    2    0  502 -0.26591313605E+02  0.14022905045E+02 -0.50509668063E+03  0.50599051039E+03  0.00000000000E+00 0. -1.
<mgrwt>
<rscale>  1 0.30000000E+03</rscale>
<asrwt>0</asrwt>
<pdfrwt beam="1">  1       21 0.33082292E-02 0.30000000E+03</pdfrwt>
<pdfrwt beam="2">0</pdfrwt>
<totfact> 0.57812824E+04</totfact>
</mgrwt>
</event>
<event>
 6    1  0.1270461E-001  0.3000000E+03  0.7818608E-02  0.1093470E+00
         21   -1    0    0  501  502  0.00000000000E+00  0.00000000000E+00  0.14645992489E+01  0.14645992489E+01  0.00000000000E+00 0. -1.
         13   -1    0    0    0    0 -0.00000000000E+00 -0.00000000000E+00 -0.10000000000E+04  0.10000000000E+04  0.00000000000E+00 0.  1.
    9000005    2    1    2  501    0  0.31308715851E+02 -0.14423643431E+02 -0.71345426091E+03  0.71430691874E+03  0.53957929332E+01 0.  0.
         13    1    3    3    0    0  0.16726415056E+02 -0.88400281310E+01 -0.44093817082E+03  0.44134384503E+03  0.00000000000E+00 0.  1.
          1    1    3    3  501    0  0.14582300795E+02 -0.55836153004E+01 -0.27251609008E+03  0.27296307371E+03  0.00000000000E+00 0.  1.
         -3    1    1    2    0  502 -0.31308715851E+02  0.14423643431E+02 -0.28508113985E+03  0.28715768051E+03  0.00000000000E+00 0. -1.
<mgrwt>
<rscale>  1 0.30000000E+03</rscale>
<asrwt>0</asrwt>
<pdfrwt beam="1">  1       21 0.53258267E-02 0.30000000E+03</pdfrwt>
<pdfrwt beam="2">0</pdfrwt>
<totfact> 0.25860924E+04</totfact>
</mgrwt>
</event>
<event>
 6    1  0.1270461E-001  0.3000000E+03  0.7818608E-02  0.1093470E+00
         21   -1    0    0  501  502  0.00000000000E+00  0.00000000000E+00  0.17543836039E+01  0.17543836039E+01  0.00000000000E+00 0. -1.
         13   -1    0    0    0    0 -0.00000000000E+00 -0.00000000000E+00 -0.10000000000E+04  0.10000000000E+04  0.00000000000E+00 0.  1.
    9000005    2    1    2  501    0 -0.34718658284E+02  0.13263913656E+02 -0.72911446588E+03  0.73006910094E+03  0.34163067609E+01 0.  0.
         13    1    3    3    0    0 -0.27442380264E+02  0.89860489723E+01 -0.55868275356E+03  0.55942850520E+03  0.00000000000E+00 0.  1.
          1    1    3    3  501    0 -0.72762780204E+01  0.42778646832E+01 -0.17043171233E+03  0.17064059574E+03  0.00000000000E+00 0.  1.
         -1    1    1    2    0  502  0.34718658284E+02 -0.13263913656E+02 -0.26913115051E+03  0.27168528266E+03  0.00000000000E+00 0. -1.
<mgrwt>
<rscale>  1 0.30000000E+03</rscale>
<asrwt>0</asrwt>
<pdfrwt beam="1">  1       21 0.63795902E-02 0.30000000E+03</pdfrwt>
<pdfrwt beam="2">0</pdfrwt>
<totfact> 0.18953505E+04</totfact>
</mgrwt>
</event>
<event>
 6    1  0.1270461E-001  0.3000000E+03  0.7818608E-02  0.1093470E+00
         21   -1    0    0  501  502  0.00000000000E+00  0.00000000000E+00  0.20833327995E+01  0.20833327995E+01  0.00000000000E+00 0. -1.
         13   -1    0    0    0    0 -0.00000000000E+00 -0.00000000000E+00 -0.10000000000E+04  0.10000000000E+04  0.00000000000E+00 0.  1.
    9000005    2    1    2  501    0  0.39628358032E+01  0.32651314638E+02 -0.84579631670E+03  0.84644781805E+03  0.45482877855E+01 0.  0.
         13    1    3    3    0    0  0.22194471605E+01  0.53243550552E+01 -0.16619145281E+03  0.16629153222E+03  0.00000000000E+00 0.  1.
          1    1    3    3  501    0  0.17433886426E+01  0.27326959583E+02 -0.67960486389E+03  0.68015628583E+03  0.00000000000E+00 0.  1.
         -1    1    1    2    0  502 -0.39628358032E+01 -0.32651314638E+02 -0.15212035050E+03  0.15563551475E+03  0.00000000000E+00 0. -1.
<mgrwt>
<rscale>  1 0.30000000E+03</rscale>
<asrwt>0</asrwt>
<pdfrwt beam="1">  1       21 0.75757716E-02 0.30000000E+03</pdfrwt>
<pdfrwt beam="2">0</pdfrwt>
<totfact> 0.14054852E+04</totfact>
</mgrwt>
</event>
<event>
 6    1  0.1270461E-001  0.3000000E+03  0.7818608E-02  0.1093470E+00
         21   -1    0    0  501  502  0.00000000000E+00  0.00000000000E+00  0.11525173781E+01  0.11525173781E+01  0.00000000000E+00 0. -1.
         13   -1    0    0    0    0 -0.00000000000E+00 -0.00000000000E+00 -0.10000000000E+04  0.10000000000E+04  0.00000000000E+00 0.  1.
    9000005    2    1    2  501    0 -0.14172883212E+02 -0.27787662564E+02 -0.31123120698E+03  0.31282907063E+03  0.49130872690E+01 0.  0.
         13    1    3    3    0    0 -0.16353258413E+01 -0.45105810053E+01 -0.33422634587E+02  0.33765250397E+02  0.00000000000E+00 0.  1.
          3    1    3    3  501    0 -0.12537557371E+02 -0.23277081559E+02 -0.27780857239E+03  0.27906382023E+03  0.00000000000E+00 0.  1.
         -3    1    1    2    0  502  0.14172883212E+02  0.27787662564E+02 -0.68761627565E+03  0.68832344675E+03  0.00000000000E+00 0. -1.
<mgrwt>
<rscale>  1 0.30000000E+03</rscale>
<asrwt>0</asrwt>
<pdfrwt beam="1">  1       21 0.41909811E-02 0.30000000E+03</pdfrwt>
<pdfrwt beam="2">0</pdfrwt>
<totfact> 0.38867281E+04</totfact>
</mgrwt>
</event>
<event>
 6    1  0.1270461E-001  0.3000000E+03  0.7818608E-02  0.1093470E+00
         21   -1    0    0  501  502  0.00000000000E+00  0.00000000000E+00  0.24518634452E+01  0.24518634452E+01  0.00000000000E+00 0. -1.
         13   -1    0    0    0    0 -0.00000000000E+00 -0.00000000000E+00 -0.10000000000E+04  0.10000000000E+04  0.00000000000E+00 0.  1.
    9000005    2    1    2  501    0  0.28326059993E+02  0.29065031829E+02 -0.78188005180E+03  0.78299830450E+03  0.10138427109E+02 0.  0.
         13    1    3    3    0    0  0.27695373757E+02  0.25692471848E+02 -0.66868990615E+03  0.66975617012E+03  0.00000000000E+00 0.  1.
          3    1    3    3  501    0  0.63068623611E+00  0.33725599803E+01 -0.11319014565E+03  0.11324213438E+03  0.00000000000E+00 0.  1.
         -3    1    1    2    0  502 -0.28326059993E+02 -0.29065031829E+02 -0.21566808476E+03  0.21945355894E+03  0.00000000000E+00 0. -1.
<mgrwt>
<rscale>  1 0.30000000E+03</rscale>
<asrwt>0</asrwt>
<pdfrwt beam="1">  1       21 0.89158859E-02 0.30000000E+03</pdfrwt>
<pdfrwt beam="2">0</pdfrwt>
<totfact> 0.10552107E+04</totfact>
</mgrwt>
</event>
<event>
 6    1  0.1270461E-001  0.3000000E+03  0.7818608E-02  0.1093470E+00
         21   -1    0    0  501  502  0.00000000000E+00  0.00000000000E+00  0.11389599822E+01  0.11389599822E+01  0.00000000000E+00 0. -1.
         13   -1    0    0    0    0 -0.00000000000E+00 -0.00000000000E+00 -0.10000000000E+04  0.10000000000E+04  0.00000000000E+00 0.  1.
    9000005    2    1    2  501    0 -0.33497651585E+02  0.33669883602E+01 -0.51355828557E+03  0.51466985228E+03  0.30846227893E+01 0.  0.
         13    1    3    3    0    0 -0.21433171780E+02  0.69149833542E+00 -0.33027498981E+03  0.33097043360E+03  0.00000000000E+00 0.  1.
          1    1    3    3  501    0 -0.12064479805E+02  0.26754900248E+01 -0.18328329576E+03  0.18369941868E+03  0.00000000000E+00 0.  1.
         -3    1    1    2    0  502  0.33497651585E+02 -0.33669883602E+01 -0.48530275444E+03  0.48646910770E+03  0.00000000000E+00 0. -1.
<mgrwt>
<rscale>  1 0.30000000E+03</rscale>
<asrwt>0</asrwt>
<pdfrwt beam="1">  1       21 0.41416814E-02 0.30000000E+03</pdfrwt>
<pdfrwt beam="2">0</pdfrwt>
<totfact> 0.39651339E+04</totfact>
</mgrwt>
</event>
<event>
 6    1  0.1270461E-001  0.3000000E+03  0.7818608E-02  0.1093470E+00
         21   -1    0    0  501  502  0.00000000000E+00  0.00000000000E+00  0.30380087846E+01  0.30380087846E+01  0.00000000000E+00 0. -1.
         13   -1    0    0    0    0 -0.00000000000E+00 -0.00000000000E+00 -0.10000000000E+04  0.10000000000E+04  0.00000000000E+00 0.  1.
    9000005    2    1    2  501    0  0.52232844020E+02  0.38835659979E+01 -0.65378035975E+03  0.65588244675E+03  0.31101567168E+01 0.  0.
         13    1    3    3    0    0  0.34351759796E+01 -0.49548922553E+00 -0.41098207348E+02  0.41244497703E+02  0.00000000000E+00 0.  1.
          1    1    3    3  501    0  0.48797668041E+02  0.43790552234E+01 -0.61268215241E+03  0.61463794905E+03  0.00000000000E+00 0.  1.
         -1    1    1    2    0  502 -0.52232844020E+02 -0.38835659979E+01 -0.34318163146E+03  0.34715556204E+03  0.00000000000E+00 0. -1.
<mgrwt>
<rscale>  1 0.30000000E+03</rscale>
<asrwt>0</asrwt>
<pdfrwt beam="1">  1       21 0.11047328E-01 0.30000000E+03</pdfrwt>
<pdfrwt beam="2">0</pdfrwt>
<totfact> 0.71962119E+03</totfact>
</mgrwt>
</event>
<event>
 6    1  0.1270461E-001  0.3000000E+03  0.7818608E-02  0.1093470E+00
         21   -1    0    0  501  502  0.00000000000E+00  0.00000000000E+00  0.22996062966E+01  0.22996062966E+01  0.00000000000E+00 0. -1.
         13   -1    0    0    0    0 -0.00000000000E+00 -0.00000000000E+00 -0.10000000000E+04  0.10000000000E+04  0.00000000000E+00 0.  1.
    9000005    2    1    2  501    0 -0.21627931383E+02 -0.26733626368E+02 -0.84788388369E+03  0.84858740487E+03  0.33240470884E+01 0.  0.
         13    1    3    3    0    0 -0.45374871550E+01 -0.59589427575E+01 -0.15348212990E+03  0.15366477146E+03  0.00000000000E+00 0.  1.
          1    1    3    3  501    0 -0.17090444228E+02 -0.20774683610E+02 -0.69440175378E+03  0.69492263341E+03  0.00000000000E+00 0.  1.
         -3    1    1    2    0  502  0.21627931383E+02  0.26733626368E+02 -0.14981651002E+03  0.15371220143E+03  0.00000000000E+00 0. -1.
<mgrwt>
<rscale>  1 0.30000000E+03</rscale>
<asrwt>0</asrwt>
<pdfrwt beam="1">  1       21 0.83622223E-02 0.30000000E+03</pdfrwt>
<pdfrwt beam="2">0</pdfrwt>
<totfact> 0.11816730E+04</totfact>
</mgrwt>
</event>
<event>
 6    1  0.1270461E-001  0.3000000E+03  0.7818608E-02  0.1093470E+00
         21   -1    0    0  501  502  0.00000000000E+00  0.00000000000E+00  0.57380998360E+01  0.57380998360E+01  0.00000000000E+00 0. -1.
         13   -1    0    0    0    0 -0.00000000000E+00 -0.00000000000E+00 -0.10000000000E+04  0.10000000000E+04  0.00000000000E+00 0.  1.
    9000005    2    1    2  501    0  0.26943991157E+02 -0.27439599977E+02 -0.93032380924E+03  0.93112583692E+03  0.37448410976E+01 0.  0.
         13    1    3    3    0    0  0.17660826881E+02 -0.19937508615E+02 -0.61624452848E+03  0.61681985047E+03  0.00000000000E+00 0.  1.
          3    1    3    3  501    0  0.92831642761E+01 -0.75020913626E+01 -0.31407928077E+03  0.31430598645E+03  0.00000000000E+00 0.  1.
         -3    1    1    2    0  502 -0.26943991157E+02  0.27439599977E+02 -0.63938090922E+02  0.74612262914E+02  0.00000000000E+00 0. -1.
<mgrwt>
<rscale>  1 0.30000000E+03</rscale>
<asrwt>0</asrwt>
<pdfrwt beam="1">  1       21 0.20865862E-01 0.30000000E+03</pdfrwt>
<pdfrwt beam="2">0</pdfrwt>
<totfact> 0.22124252E+03</totfact>
</mgrwt>
</event>
<event>
 6    1  0.1270461E-001  0.3000000E+03  0.7818608E-02  0.1093470E+00
         21   -1    0    0  501  502  0.00000000000E+00  0.00000000000E+00  0.39289050812E+01  0.39289050812E+01  0.00000000000E+00 0. -1.
         13   -1    0    0    0    0 -0.00000000000E+00 -0.00000000000E+00 -0.10000000000E+04  0.10000000000E+04  0.00000000000E+00 0.  1.
    9000005    2    1    2  501    0  0.23007890481E+02 -0.33742153471E+02 -0.87871499759E+03  0.87966970210E+03  0.32926977084E+01 0.  0.
         13    1    3    3    0    0  0.22661427545E+02 -0.32653271114E+02 -0.86186801403E+03  0.86278401123E+03  0.00000000000E+00 0.  1.
          3    1    3    3  501    0  0.34646293609E+00 -0.10888823563E+01 -0.16846983557E+02  0.16885690875E+02  0.00000000000E+00 0.  1.
         -1    1    1    2    0  502 -0.23007890481E+02  0.33742153471E+02 -0.11735609733E+03  0.12425920298E+03  0.00000000000E+00 0. -1.
<mgrwt>
<rscale>  1 0.30000000E+03</rscale>
<asrwt>0</asrwt>
<pdfrwt beam="1">  1       21 0.14286958E-01 0.30000000E+03</pdfrwt>
<pdfrwt beam="2">0</pdfrwt>
<totfact> 0.45053796E+03</totfact>
</mgrwt>
</event>
<event>
 6    1  0.1270461E-001  0.3000000E+03  0.7818608E-02  0.1093470E+00
         21   -1    0    0  501  502  0.00000000000E+00  0.00000000000E+00  0.15771143816E+02  0.15771143816E+02  0.00000000000E+00 0. -1.
         13   -1    0    0    0    0 -0.00000000000E+00 -0.00000000000E+00 -0.10000000000E+04  0.10000000000E+04  0.00000000000E+00 0.  1.
    9000005    2    1    2  501    0 -0.66577871617E+02 -0.48902839817E+02 -0.87462299880E+03  0.87852120865E+03  0.31659565371E+01 0.  0.
         13    1    3    3    0    0 -0.56314341305E+02 -0.40958133423E+02 -0.74855479664E+03  0.75178664347E+03  0.00000000000E+00 0.  1.
          1    1    3    3  501    0 -0.10263530311E+02 -0.79447063936E+01 -0.12606820216E+03  0.12673456517E+03  0.00000000000E+00 0.  1.
         -3    1    1    2    0  502  0.66577871617E+02  0.48902839817E+02 -0.10960585738E+03  0.13724993517E+03  0.00000000000E+00 0. -1.
<mgrwt>
<rscale>  1 0.30000000E+03</rscale>
<asrwt>0</asrwt>
<pdfrwt beam="1">  1       21 0.57349735E-01 0.30000000E+03</pdfrwt>
<pdfrwt beam="2">0</pdfrwt>
<totfact> 0.27783284E+02</totfact>
</mgrwt>
</event>
<event>
 6    1  0.1270461E-001  0.3000000E+03  0.7818608E-02  0.1093470E+00
         21   -1    0    0  501  502  0.00000000000E+00  0.00000000000E+00  0.34004757071E+01  0.34004757071E+01  0.00000000000E+00 0. -1.
         13   -1    0    0    0    0 -0.00000000000E+00 -0.00000000000E+00 -0.10000000000E+04  0.10000000000E+04  0.00000000000E+00 0.  1.
    9000005    2    1    2  501    0 -0.40278935174E+02  0.24699131732E+02 -0.79141710987E+03  0.79284819499E+03  0.58973532624E+01 0.  0.
         13    1    3    3    0    0 -0.20222932566E+02  0.13340221276E+02 -0.35818584582E+03  0.35900421815E+03  0.00000000000E+00 0.  1.
          3    1    3    3  501    0 -0.20056002608E+02  0.11358910456E+02 -0.43323126406E+03  0.43384397684E+03  0.00000000000E+00 0.  1.
         -3    1    1    2    0  502  0.40278935174E+02 -0.24699131732E+02 -0.20518241442E+03  0.21055228071E+03  0.00000000000E+00 0. -1.
<mgrwt>
<rscale>  1 0.30000000E+03</rscale>
<asrwt>0</asrwt>
<pdfrwt beam="1">  1       21 0.12365392E-01 0.30000000E+03</pdfrwt>
<pdfrwt beam="2">0</pdfrwt>
<totfact> 0.58682454E+03</totfact>
</mgrwt>
</event>
<event>
 6    1  0.1270461E-001  0.3000000E+03  0.7818608E-02  0.1093470E+00
         21   -1    0    0  501  502  0.00000000000E+00  0.00000000000E+00  0.39619020518E+01  0.39619020518E+01  0.00000000000E+00 0. -1.
         13   -1    0    0    0    0 -0.00000000000E+00 -0.00000000000E+00 -0.10000000000E+04  0.10000000000E+04  0.00000000000E+00 0.  1.
    9000005    2    1    2  501    0  0.46240280182E+02 -0.12594041411E+02 -0.82326785899E+03  0.82466792876E+03  0.32329063220E+01 0.  0.
         13    1    3    3    0    0  0.49432791296E+01 -0.73111506335E+00 -0.10028605722E+03  0.10041047659E+03  0.00000000000E+00 0.  1.
          1    1    3    3  501    0  0.41297001052E+02 -0.11862926348E+02 -0.72298180178E+03  0.72425745216E+03  0.00000000000E+00 0.  1.
         -3    1    1    2    0  502 -0.46240280182E+02  0.12594041411E+02 -0.17277023896E+03  0.17929397329E+03  0.00000000000E+00 0. -1.
<mgrwt>
<rscale>  1 0.30000000E+03</rscale>
<asrwt>0</asrwt>
<pdfrwt beam="1">  1       21 0.14406947E-01 0.30000000E+03</pdfrwt>
<pdfrwt beam="2">0</pdfrwt>
<totfact> 0.44365127E+03</totfact>
</mgrwt>
</event>
<event>
 6    1  0.1270461E-001  0.3000000E+03  0.7818608E-02  0.1093470E+00
         21   -1    0    0  501  502  0.00000000000E+00  0.00000000000E+00  0.42222751983E+01  0.42222751983E+01  0.00000000000E+00 0. -1.
         13   -1    0    0    0    0 -0.00000000000E+00 -0.00000000000E+00 -0.10000000000E+04  0.10000000000E+04  0.00000000000E+00 0.  1.
    9000005    2    1    2  501    0 -0.48771376839E+02 -0.37476953721E+02 -0.65916619624E+03  0.66203739766E+03  0.32050536390E+01 0.  0.
         13    1    3    3    0    0 -0.24363494633E+02 -0.20725736281E+02 -0.34444268073E+03  0.34592469747E+03  0.00000000000E+00 0.  1.
          1    1    3    3  501    0 -0.24407882205E+02 -0.16751217440E+02 -0.31472351551E+03  0.31611270018E+03  0.00000000000E+00 0.  1.
         -1    1    1    2    0  502  0.48771376839E+02  0.37476953721E+02 -0.33661152856E+03  0.34218487754E+03  0.00000000000E+00 0. -1.
<mgrwt>
<rscale>  1 0.30000000E+03</rscale>
<asrwt>0</asrwt>
<pdfrwt beam="1">  1       21 0.15353760E-01 0.30000000E+03</pdfrwt>
<pdfrwt beam="2">0</pdfrwt>
<totfact> 0.39438990E+03</totfact>
</mgrwt>
</event>
<event>
 6    1  0.1270461E-001  0.3000000E+03  0.7818608E-02  0.1093470E+00
         21   -1    0    0  501  502  0.00000000000E+00  0.00000000000E+00  0.95282168713E+00  0.95282168713E+00  0.00000000000E+00 0. -1.
         13   -1    0    0    0    0 -0.00000000000E+00 -0.00000000000E+00 -0.10000000000E+04  0.10000000000E+04  0.00000000000E+00 0.  1.
    9000005    2    1    2  501    0 -0.10440769733E+02 -0.28941893317E+02 -0.51324787521E+03  0.51418017891E+03  0.33514347085E+01 0.  0.
         13    1    3    3    0    0 -0.10150504907E+02 -0.28383290617E+02 -0.49170375570E+03  0.49262686417E+03  0.00000000000E+00 0.  1.
          1    1    3    3  501    0 -0.29026482529E+00 -0.55860269912E+00 -0.21544119507E+02  0.21553314733E+02  0.00000000000E+00 0.  1.
         -3    1    1    2    0  502  0.10440769733E+02  0.28941893317E+02 -0.48579930311E+03  0.48677264278E+03  0.00000000000E+00 0. -1.
<mgrwt>
<rscale>  1 0.30000000E+03</rscale>
<asrwt>0</asrwt>
<pdfrwt beam="1">  1       21 0.34648134E-02 0.30000000E+03</pdfrwt>
<pdfrwt beam="2">0</pdfrwt>
<totfact> 0.53514281E+04</totfact>
</mgrwt>
</event>
<event>
 6    1  0.1270461E-001  0.3000000E+03  0.7818608E-02  0.1093470E+00
         21   -1    0    0  501  502  0.00000000000E+00  0.00000000000E+00  0.37456254678E+01  0.37456254678E+01  0.00000000000E+00 0. -1.
         13   -1    0    0    0    0 -0.00000000000E+00 -0.00000000000E+00 -0.10000000000E+04  0.10000000000E+04  0.00000000000E+00 0.  1.
    9000005    2    1    2  501    0 -0.45600232654E+02  0.29218194308E+02 -0.26802881540E+03  0.27350898638E+03  0.58852058358E+01 0.  0.
         13    1    3    3    0    0 -0.93853496444E+01  0.34880981355E+01 -0.45384980318E+02  0.46476317141E+02  0.00000000000E+00 0.  1.
          1    1    3    3  501    0 -0.36214883009E+02  0.25730096173E+02 -0.22264383508E+03  0.22703266924E+03  0.00000000000E+00 0.  1.
         -3    1    1    2    0  502  0.45600232654E+02 -0.29218194308E+02 -0.72822555913E+03  0.73023663909E+03  0.00000000000E+00 0. -1.
<mgrwt>
<rscale>  1 0.30000000E+03</rscale>
<asrwt>0</asrwt>
<pdfrwt beam="1">  1       21 0.13620485E-01 0.30000000E+03</pdfrwt>
<pdfrwt beam="2">0</pdfrwt>
<totfact> 0.49185768E+03</totfact>
</mgrwt>
</event>
<event>
 6    1  0.1270461E-001  0.3000000E+03  0.7818608E-02  0.1093470E+00
         21   -1    0    0  501  502  0.00000000000E+00  0.00000000000E+00  0.21397978170E+01  0.21397978170E+01  0.00000000000E+00 0. -1.
         13   -1    0    0    0    0 -0.00000000000E+00 -0.00000000000E+00 -0.10000000000E+04  0.10000000000E+04  0.00000000000E+00 0.  1.
    9000005    2    1    2  501    0 -0.26419494989E+02 -0.34173857205E+02 -0.67623633062E+03  0.67762823101E+03  0.43130477454E+01 0.  0.
         13    1    3    3    0    0  0.62062934931E-01 -0.19215417644E+00 -0.10757835737E+01  0.10945708442E+01  0.00000000000E+00 0.  1.
          3    1    3    3  501    0 -0.26481557924E+02 -0.33981703029E+02 -0.67516054705E+03  0.67653366017E+03  0.00000000000E+00 0.  1.
         -3    1    1    2    0  502  0.26419494989E+02  0.34173857205E+02 -0.32162387156E+03  0.32451156680E+03  0.00000000000E+00 0. -1.
<mgrwt>
<rscale>  1 0.30000000E+03</rscale>
<asrwt>0</asrwt>
<pdfrwt beam="1">  1       21 0.77810994E-02 0.30000000E+03</pdfrwt>
<pdfrwt beam="2">0</pdfrwt>
<totfact> 0.13411274E+04</totfact>
</mgrwt>
</event>
<event>
 6    1  0.1270461E-001  0.3000000E+03  0.7818608E-02  0.1093470E+00
         21   -1    0    0  501  502  0.00000000000E+00  0.00000000000E+00  0.62192862692E+01  0.62192862692E+01  0.00000000000E+00 0. -1.
         13   -1    0    0    0    0 -0.00000000000E+00 -0.00000000000E+00 -0.10000000000E+04  0.10000000000E+04  0.00000000000E+00 0.  1.
    9000005    2    1    2  501    0  0.19937650045E+02 -0.41333828249E+02 -0.90600045175E+03  0.90716692819E+03  0.30036294139E+01 0.  0.
         13    1    3    3    0    0  0.20297865749E+01 -0.54512332069E+01 -0.13239174893E+03  0.13251947465E+03  0.00000000000E+00 0.  1.
          3    1    3    3  501    0  0.17907863470E+02 -0.35882595042E+02 -0.77360870281E+03  0.77464745354E+03  0.00000000000E+00 0.  1.
         -3    1    1    2    0  502 -0.19937650045E+02  0.41333828249E+02 -0.87780261985E+02  0.99052358080E+02  0.00000000000E+00 0. -1.
<mgrwt>
<rscale>  1 0.30000000E+03</rscale>
<asrwt>0</asrwt>
<pdfrwt beam="1">  1       21 0.22615634E-01 0.30000000E+03</pdfrwt>
<pdfrwt beam="2">0</pdfrwt>
<totfact> 0.18950156E+03</totfact>
</mgrwt>
</event>
<event>
 6    1  0.1270461E-001  0.3000000E+03  0.7818608E-02  0.1093470E+00
         21   -1    0    0  501  502  0.00000000000E+00  0.00000000000E+00  0.36742492063E+01  0.36742492063E+01  0.00000000000E+00 0. -1.
         13   -1    0    0    0    0 -0.00000000000E+00 -0.00000000000E+00 -0.10000000000E+04  0.10000000000E+04  0.00000000000E+00 0.  1.
    9000005    2    1    2  501    0  0.30188617020E+01  0.37058196666E+02 -0.89428996332E+03  0.89507532937E+03  0.47836460493E+01 0.  0.
         13    1    3    3    0    0  0.21910304457E+01  0.29159048657E+02 -0.65234713554E+03  0.65300217150E+03  0.00000000000E+00 0.  1.
          1    1    3    3  501    0  0.82783125626E+00  0.78991480096E+01 -0.24194282778E+03  0.24207315787E+03  0.00000000000E+00 0.  1.
         -1    1    1    2    0  502 -0.30188617020E+01 -0.37058196666E+02 -0.10203578747E+03  0.10859891984E+03  0.00000000000E+00 0. -1.
<mgrwt>
<rscale>  1 0.30000000E+03</rscale>
<asrwt>0</asrwt>
<pdfrwt beam="1">  1       21 0.13360934E-01 0.30000000E+03</pdfrwt>
<pdfrwt beam="2">0</pdfrwt>
<totfact> 0.50949719E+03</totfact>
</mgrwt>
</event>
<event>
 6    1  0.1270461E-001  0.3000000E+03  0.7818608E-02  0.1093470E+00
         21   -1    0    0  501  502  0.00000000000E+00  0.00000000000E+00  0.19609998485E+01  0.19609998485E+01  0.00000000000E+00 0. -1.
         13   -1    0    0    0    0 -0.00000000000E+00 -0.00000000000E+00 -0.10000000000E+04  0.10000000000E+04  0.00000000000E+00 0.  1.
    9000005    2    1    2  501    0 -0.20445588122E+02 -0.22767278989E+02 -0.86035485624E+03  0.86091740888E+03  0.56511242836E+01 0.  0.
         13    1    3    3    0    0 -0.12768913254E+02 -0.11623112022E+02 -0.42028759900E+03  0.42064213739E+03  0.00000000000E+00 0.  1.
          3    1    3    3  501    0 -0.76766748683E+01 -0.11144166967E+02 -0.44006725724E+03  0.44027527149E+03  0.00000000000E+00 0.  1.
         -1    1    1    2    0  502  0.20445588122E+02  0.22767278989E+02 -0.13768414392E+03  0.14104359096E+03  0.00000000000E+00 0. -1.
<mgrwt>
<rscale>  1 0.30000000E+03</rscale>
<asrwt>0</asrwt>
<pdfrwt beam="1">  1       21 0.71309236E-02 0.30000000E+03</pdfrwt>
<pdfrwt beam="2">0</pdfrwt>
<totfact> 0.15622847E+04</totfact>
</mgrwt>
</event>
<event>
 6    1  0.1270461E-001  0.3000000E+03  0.7818608E-02  0.1093470E+00
         21   -1    0    0  501  502  0.00000000000E+00  0.00000000000E+00  0.69710289174E+01  0.69710289174E+01  0.00000000000E+00 0. -1.
         13   -1    0    0    0    0 -0.00000000000E+00 -0.00000000000E+00 -0.10000000000E+04  0.10000000000E+04  0.00000000000E+00 0.  1.
    9000005    2    1    2  501    0  0.79227496500E+02 -0.10966739154E+02 -0.64052786939E+03  0.64550970006E+03  0.30912504097E+01 0.  0.
         13    1    3    3    0    0  0.39691179931E+02 -0.42033567405E+01 -0.31246982810E+03  0.31500865297E+03  0.00000000000E+00 0.  1.
          1    1    3    3  501    0  0.39536316569E+02 -0.67633824138E+01 -0.32805804129E+03  0.33050104709E+03  0.00000000000E+00 0.  1.
         -1    1    1    2    0  502 -0.79227496500E+02  0.10966739154E+02 -0.35250110169E+03  0.36146132886E+03  0.00000000000E+00 0. -1.
<mgrwt>
<rscale>  1 0.30000000E+03</rscale>
<asrwt>0</asrwt>
<pdfrwt beam="1">  1       21 0.25349250E-01 0.30000000E+03</pdfrwt>
<pdfrwt beam="2">0</pdfrwt>
<totfact> 0.15177730E+03</totfact>
</mgrwt>
</event>
<event>
 6    1  0.1270461E-001  0.3000000E+03  0.7818608E-02  0.1093470E+00
         21   -1    0    0  501  502  0.00000000000E+00  0.00000000000E+00  0.11108742855E+02  0.11108742855E+02  0.00000000000E+00 0. -1.
         13   -1    0    0    0    0 -0.00000000000E+00 -0.00000000000E+00 -0.10000000000E+04  0.10000000000E+04  0.00000000000E+00 0.  1.
    9000005    2    1    2  501    0 -0.25122418886E+02  0.23596572097E+02 -0.97217045623E+03  0.97280052796E+03  0.61267513537E+01 0.  0.
         13    1    3    3    0    0 -0.58596048933E+01  0.31211771271E+01 -0.14377133177E+03  0.14392453771E+03  0.00000000000E+00 0.  1.
          3    1    3    3  501    0 -0.19262813993E+02  0.20475394970E+02 -0.82839912446E+03  0.82887599024E+03  0.00000000000E+00 0.  1.
         -1    1    1    2    0  502  0.25122418886E+02 -0.23596572097E+02 -0.16720800916E+02  0.38308214898E+02  0.00000000000E+00 0. -1.
<mgrwt>
<rscale>  1 0.30000000E+03</rscale>
<asrwt>0</asrwt>
<pdfrwt beam="1">  1       21 0.40395514E-01 0.30000000E+03</pdfrwt>
<pdfrwt beam="2">0</pdfrwt>
<totfact> 0.59172531E+02</totfact>
</mgrwt>
</event>
<event>
 6    1  0.1270461E-001  0.3000000E+03  0.7818608E-02  0.1093470E+00
         21   -1    0    0  501  502  0.00000000000E+00  0.00000000000E+00  0.23882455099E+01  0.23882455099E+01  0.00000000000E+00 0. -1.
         13   -1    0    0    0    0 -0.00000000000E+00 -0.00000000000E+00 -0.10000000000E+04  0.10000000000E+04  0.00000000000E+00 0.  1.
    9000005    2    1    2  501    0 -0.22783368861E+02  0.31043394045E+02 -0.80640161248E+03  0.80733929622E+03  0.55140189204E+01 0.  0.
         13    1    3    3    0    0 -0.10161261974E+02  0.97227280553E+01 -0.27090594220E+03  0.27127073599E+03  0.00000000000E+00 0.  1.
          1    1    3    3  501    0 -0.12622106886E+02  0.21320665990E+02 -0.53549567028E+03  0.53606856023E+03  0.00000000000E+00 0.  1.
         -3    1    1    2    0  502  0.22783368861E+02 -0.31043394045E+02 -0.19121014201E+03  0.19504894929E+03  0.00000000000E+00 0. -1.
<mgrwt>
<rscale>  1 0.30000000E+03</rscale>
<asrwt>0</asrwt>
<pdfrwt beam="1">  1       21 0.86845474E-02 0.30000000E+03</pdfrwt>
<pdfrwt beam="2">0</pdfrwt>
<totfact> 0.11054194E+04</totfact>
</mgrwt>
</event>
<event>
 6    1  0.1270461E-001  0.3000000E+03  0.7818608E-02  0.1093470E+00
         21   -1    0    0  501  502  0.00000000000E+00  0.00000000000E+00  0.11384469052E+01  0.11384469052E+01  0.00000000000E+00 0. -1.
         13   -1    0    0    0    0 -0.00000000000E+00 -0.00000000000E+00 -0.10000000000E+04  0.10000000000E+04  0.00000000000E+00 0.  1.
    9000005    2    1    2  501    0  0.30477279637E+02 -0.14396788158E+01 -0.71071734388E+03  0.71138333901E+03  0.40218000349E+01 0.  0.
         13    1    3    3    0    0  0.25248322212E+02  0.92779609740E-01 -0.56405474638E+03  0.56461955625E+03  0.00000000000E+00 0.  1.
          3    1    3    3  501    0  0.52289574252E+01 -0.15324584256E+01 -0.14666259750E+03  0.14676378276E+03  0.00000000000E+00 0.  1.
         -3    1    1    2    0  502 -0.30477279637E+02  0.14396788158E+01 -0.28814420922E+03  0.28975510790E+03  0.00000000000E+00 0. -1.
<mgrwt>
<rscale>  1 0.30000000E+03</rscale>
<asrwt>0</asrwt>
<pdfrwt beam="1">  1       21 0.41398157E-02 0.30000000E+03</pdfrwt>
<pdfrwt beam="2">0</pdfrwt>
<totfact> 0.39681494E+04</totfact>
</mgrwt>
</event>
<event>
 6    1  0.1270461E-001  0.3000000E+03  0.7818608E-02  0.1093470E+00
         21   -1    0    0  501  502  0.00000000000E+00  0.00000000000E+00  0.22339156398E+01  0.22339156398E+01  0.00000000000E+00 0. -1.
         13   -1    0    0    0    0 -0.00000000000E+00 -0.00000000000E+00 -0.10000000000E+04  0.10000000000E+04  0.00000000000E+00 0.  1.
    9000005    2    1    2  501    0 -0.30446237282E+02  0.25288842935E+02 -0.77216581699E+03  0.77318811328E+03  0.36483758343E+01 0.  0.
         13    1    3    3    0    0 -0.21394865082E+02  0.19819890444E+02 -0.56019487389E+03  0.56095353198E+03  0.00000000000E+00 0.  1.
          1    1    3    3  501    0 -0.90513722005E+01  0.54689524907E+01 -0.21197094310E+03  0.21223458129E+03  0.00000000000E+00 0.  1.
         -1    1    1    2    0  502  0.30446237282E+02 -0.25288842935E+02 -0.22560026737E+03  0.22904580236E+03  0.00000000000E+00 0. -1.
<mgrwt>
<rscale>  1 0.30000000E+03</rscale>
<asrwt>0</asrwt>
<pdfrwt beam="1">  1       21 0.81233467E-02 0.30000000E+03</pdfrwt>
<pdfrwt beam="2">0</pdfrwt>
<totfact> 0.12434994E+04</totfact>
</mgrwt>
</event>
<event>
 6    1  0.1270461E-001  0.3000000E+03  0.7818608E-02  0.1093470E+00
         21   -1    0    0  501  502  0.00000000000E+00  0.00000000000E+00  0.13565259289E+01  0.13565259289E+01  0.00000000000E+00 0. -1.
         13   -1    0    0    0    0 -0.00000000000E+00 -0.00000000000E+00 -0.10000000000E+04  0.10000000000E+04  0.00000000000E+00 0.  1.
    9000005    2    1    2  501    0 -0.27146893147E+01  0.36106714460E+02 -0.58584008289E+03  0.58696817650E+03  0.34602228982E+01 0.  0.
         13    1    3    3    0    0 -0.15800915847E+01  0.49686157011E+01 -0.85519968762E+02  0.85678754009E+02  0.00000000000E+00 0.  1.
          1    1    3    3  501    0 -0.11345977300E+01  0.31138098759E+02 -0.50032011413E+03  0.50128942250E+03  0.00000000000E+00 0.  1.
         -1    1    1    2    0  502  0.27146893147E+01 -0.36106714460E+02 -0.41280339118E+03  0.41438834942E+03  0.00000000000E+00 0. -1.
<mgrwt>
<rscale>  1 0.30000000E+03</rscale>
<asrwt>0</asrwt>
<pdfrwt beam="1">  1       21 0.49328320E-02 0.30000000E+03</pdfrwt>
<pdfrwt beam="2">0</pdfrwt>
<totfact> 0.29476263E+04</totfact>
</mgrwt>
</event>
<event>
 6    1  0.1270461E-001  0.3000000E+03  0.7818608E-02  0.1093470E+00
         21   -1    0    0  501  502  0.00000000000E+00  0.00000000000E+00  0.96647942204E+00  0.96647942204E+00  0.00000000000E+00 0. -1.
         13   -1    0    0    0    0 -0.00000000000E+00 -0.00000000000E+00 -0.10000000000E+04  0.10000000000E+04  0.00000000000E+00 0.  1.
    9000005    2    1    2  501    0 -0.29212653920E+02 -0.79361148432E+01 -0.39289252890E+03  0.39407006087E+03  0.32113136008E+01 0.  0.
         13    1    3    3    0    0 -0.26624371255E+02 -0.71050521753E+01 -0.36776087639E+03  0.36879181270E+03  0.00000000000E+00 0.  1.
          1    1    3    3  501    0 -0.25882826644E+01 -0.83106266790E+00 -0.25131652513E+02  0.25278248166E+02  0.00000000000E+00 0.  1.
         -1    1    1    2    0  502  0.29212653920E+02  0.79361148432E+01 -0.60614099167E+03  0.60689641856E+03  0.00000000000E+00 0. -1.
<mgrwt>
<rscale>  1 0.30000000E+03</rscale>
<asrwt>0</asrwt>
<pdfrwt beam="1">  1       21 0.35144780E-02 0.30000000E+03</pdfrwt>
<pdfrwt beam="2">0</pdfrwt>
<totfact> 0.52254304E+04</totfact>
</mgrwt>
</event>
<event>
 6    1  0.1270461E-001  0.3000000E+03  0.7818608E-02  0.1093470E+00
         21   -1    0    0  501  502  0.00000000000E+00  0.00000000000E+00  0.10685604656E+01  0.10685604656E+01  0.00000000000E+00 0. -1.
         13   -1    0    0    0    0 -0.00000000000E+00 -0.00000000000E+00 -0.10000000000E+04  0.10000000000E+04  0.00000000000E+00 0.  1.
    9000005    2    1    2  501    0  0.19938829660E+01 -0.30180322206E+02 -0.31554142601E+03  0.31700954401E+03  0.37191455270E+01 0.  0.
         13    1    3    3    0    0  0.49517470909E+00 -0.73408913627E+01 -0.61320860306E+02  0.61760681608E+02  0.00000000000E+00 0.  1.
          3    1    3    3  501    0  0.14987082569E+01 -0.22839430843E+02 -0.25422056571E+03  0.25524886240E+03  0.00000000000E+00 0.  1.
         -1    1    1    2    0  502 -0.19938829660E+01  0.30180322206E+02 -0.68339001352E+03  0.68405901646E+03  0.00000000000E+00 0. -1.
<mgrwt>
<rscale>  1 0.30000000E+03</rscale>
<asrwt>0</asrwt>
<pdfrwt beam="1">  1       21 0.38856826E-02 0.30000000E+03</pdfrwt>
<pdfrwt beam="2">0</pdfrwt>
<totfact> 0.44149922E+04</totfact>
</mgrwt>
</event>
<event>
 6    1  0.1270461E-001  0.3000000E+03  0.7818608E-02  0.1093470E+00
         21   -1    0    0  501  502  0.00000000000E+00  0.00000000000E+00  0.10490307776E+01  0.10490307776E+01  0.00000000000E+00 0. -1.
         13   -1    0    0    0    0 -0.00000000000E+00 -0.00000000000E+00 -0.10000000000E+04  0.10000000000E+04  0.00000000000E+00 0.  1.
    9000005    2    1    2  501    0  0.16255372917E+02 -0.26409808586E+02 -0.36039819946E+03  0.36174366172E+03  0.31463439517E+01 0.  0.
         13    1    3    3    0    0  0.42658155193E+01 -0.45610716067E+01 -0.70075248718E+02  0.70352974629E+02  0.00000000000E+00 0.  1.
          1    1    3    3  501    0  0.11989557398E+02 -0.21848736980E+02 -0.29032295074E+03  0.29139068709E+03  0.00000000000E+00 0.  1.
         -1    1    1    2    0  502 -0.16255372917E+02  0.26409808586E+02 -0.63855276976E+03  0.63930536906E+03  0.00000000000E+00 0. -1.
<mgrwt>
<rscale>  1 0.30000000E+03</rscale>
<asrwt>0</asrwt>
<pdfrwt beam="1">  1       21 0.38146654E-02 0.30000000E+03</pdfrwt>
<pdfrwt beam="2">0</pdfrwt>
<totfact> 0.45540378E+04</totfact>
</mgrwt>
</event>
<event>
 6    1  0.1270461E-001  0.3000000E+03  0.7818608E-02  0.1093470E+00
         21   -1    0    0  501  502  0.00000000000E+00  0.00000000000E+00  0.27854118017E+01  0.27854118017E+01  0.00000000000E+00 0. -1.
         13   -1    0    0    0    0 -0.00000000000E+00 -0.00000000000E+00 -0.10000000000E+04  0.10000000000E+04  0.00000000000E+00 0.  1.
    9000005    2    1    2  501    0  0.43436221864E+02 -0.21810553116E+02 -0.69306291079E+03  0.69477461903E+03  0.36286816842E+01 0.  0.
         13    1    3    3    0    0  0.31417714343E+02 -0.14583181949E+02 -0.47501323332E+03  0.47627441018E+03  0.00000000000E+00 0.  1.
          1    1    3    3  501    0  0.12018507521E+02 -0.72273711667E+01 -0.21804967748E+03  0.21850020884E+03  0.00000000000E+00 0.  1.
         -1    1    1    2    0  502 -0.43436221864E+02  0.21810553116E+02 -0.30415167741E+03  0.30801079278E+03  0.00000000000E+00 0. -1.
<mgrwt>
<rscale>  1 0.30000000E+03</rscale>
<asrwt>0</asrwt>
<pdfrwt beam="1">  1       21 0.10128792E-01 0.30000000E+03</pdfrwt>
<pdfrwt beam="2">0</pdfrwt>
<totfact> 0.84086345E+03</totfact>
</mgrwt>
</event>
<event>
 6    1  0.1270461E-001  0.3000000E+03  0.7818608E-02  0.1093470E+00
         21   -1    0    0  501  502  0.00000000000E+00  0.00000000000E+00  0.12433383902E+01  0.12433383902E+01  0.00000000000E+00 0. -1.
         13   -1    0    0    0    0 -0.00000000000E+00 -0.00000000000E+00 -0.10000000000E+04  0.10000000000E+04  0.00000000000E+00 0.  1.
    9000005    2    1    2  501    0  0.33964206778E+02 -0.85282411008E+01 -0.55182793805E+03  0.55294479704E+03  0.27526564389E+01 0.  0.
         13    1    3    3    0    0  0.13204650076E+02 -0.35776532888E+01 -0.23667860263E+03  0.23707366647E+03  0.00000000000E+00 0.  1.
          1    1    3    3  501    0  0.20759556702E+02 -0.49505878120E+01 -0.31514933542E+03  0.31587113057E+03  0.00000000000E+00 0.  1.
         -3    1    1    2    0  502 -0.33964206778E+02  0.85282411008E+01 -0.44692872356E+03  0.44829854135E+03  0.00000000000E+00 0. -1.
<mgrwt>
<rscale>  1 0.30000000E+03</rscale>
<asrwt>0</asrwt>
<pdfrwt beam="1">  1       21 0.45212400E-02 0.30000000E+03</pdfrwt>
<pdfrwt beam="2">0</pdfrwt>
<totfact> 0.34183894E+04</totfact>
</mgrwt>
</event>
<event>
 6    1  0.1270461E-001  0.3000000E+03  0.7818608E-02  0.1093470E+00
         21   -1    0    0  501  502  0.00000000000E+00  0.00000000000E+00  0.54750178381E+01  0.54750178381E+01  0.00000000000E+00 0. -1.
         13   -1    0    0    0    0 -0.00000000000E+00 -0.00000000000E+00 -0.10000000000E+04  0.10000000000E+04  0.00000000000E+00 0.  1.
    9000005    2    1    2  501    0 -0.36866700666E+02  0.35456799279E+02 -0.86043392658E+03  0.86195934127E+03  0.33205064862E+01 0.  0.
         13    1    3    3    0    0 -0.10942696904E+02  0.11933121095E+02 -0.25292418851E+03  0.25344188116E+03  0.00000000000E+00 0.  1.
          3    1    3    3  501    0 -0.25924003762E+02  0.23523678184E+02 -0.60750973807E+03  0.60851746011E+03  0.00000000000E+00 0.  1.
         -1    1    1    2    0  502  0.36866700666E+02 -0.35456799279E+02 -0.13409105558E+03  0.14351567656E+03  0.00000000000E+00 0. -1.
<mgrwt>
<rscale>  1 0.30000000E+03</rscale>
<asrwt>0</asrwt>
<pdfrwt beam="1">  1       21 0.19909198E-01 0.30000000E+03</pdfrwt>
<pdfrwt beam="2">0</pdfrwt>
<totfact> 0.24201474E+03</totfact>
</mgrwt>
</event>
<event>
 6    1  0.1270461E-001  0.3000000E+03  0.7818608E-02  0.1093470E+00
         21   -1    0    0  501  502  0.00000000000E+00  0.00000000000E+00  0.17362334193E+01  0.17362334193E+01  0.00000000000E+00 0. -1.
         13   -1    0    0    0    0 -0.00000000000E+00 -0.00000000000E+00 -0.10000000000E+04  0.10000000000E+04  0.00000000000E+00 0.  1.
    9000005    2    1    2  501    0 -0.31761922017E+02  0.19520248281E+02 -0.72214814739E+03  0.72311517365E+03  0.27834884479E+01 0.  0.
         13    1    3    3    0    0 -0.21740287636E+02  0.13176792507E+02 -0.46679387563E+03  0.46748560437E+03  0.00000000000E+00 0.  1.
          3    1    3    3  501    0 -0.10021634382E+02  0.63434557738E+01 -0.25535427175E+03  0.25562956928E+03  0.00000000000E+00 0.  1.
         -3    1    1    2    0  502  0.31761922017E+02 -0.19520248281E+02 -0.27611561920E+03  0.27862105977E+03  0.00000000000E+00 0. -1.
<mgrwt>
<rscale>  1 0.30000000E+03</rscale>
<asrwt>0</asrwt>
<pdfrwt beam="1">  1       21 0.63135894E-02 0.30000000E+03</pdfrwt>
<pdfrwt beam="2">0</pdfrwt>
<totfact> 0.19297404E+04</totfact>
</mgrwt>
</event>
<event>
 6    1  0.1270461E-001  0.3000000E+03  0.7818608E-02  0.1093470E+00
         21   -1    0    0  501  502  0.00000000000E+00  0.00000000000E+00  0.11688459345E+01  0.11688459345E+01  0.00000000000E+00 0. -1.
         13   -1    0    0    0    0 -0.00000000000E+00 -0.00000000000E+00 -0.10000000000E+04  0.10000000000E+04  0.00000000000E+00 0.  1.
    9000005    2    1    2  501    0  0.27678279576E+02 -0.19121732890E+02 -0.41905110837E+03  0.42041362279E+03  0.34720264979E+01 0.  0.
         13    1    3    3    0    0  0.76899101436E+01 -0.42864361697E+01 -0.94412045656E+02  0.94821635812E+02  0.00000000000E+00 0.  1.
          3    1    3    3  501    0  0.19988369432E+02 -0.14835296720E+02 -0.32463906271E+03  0.32559198697E+03  0.00000000000E+00 0.  1.
         -1    1    1    2    0  502 -0.27678279576E+02  0.19121732890E+02 -0.57978004569E+03  0.58075522315E+03  0.00000000000E+00 0. -1.
<mgrwt>
<rscale>  1 0.30000000E+03</rscale>
<asrwt>0</asrwt>
<pdfrwt beam="1">  1       21 0.42503578E-02 0.30000000E+03</pdfrwt>
<pdfrwt beam="2">0</pdfrwt>
<totfact> 0.37954544E+04</totfact>
</mgrwt>
</event>
<event>
 6    1  0.1270461E-001  0.3000000E+03  0.7818608E-02  0.1093470E+00
         21   -1    0    0  501  502  0.00000000000E+00  0.00000000000E+00  0.18805471562E+01  0.18805471562E+01  0.00000000000E+00 0. -1.
         13   -1    0    0    0    0 -0.00000000000E+00 -0.00000000000E+00 -0.10000000000E+04  0.10000000000E+04  0.00000000000E+00 0.  1.
    9000005    2    1    2  501    0  0.38197087462E+02  0.11085499665E+02 -0.69768089808E+03  0.69882076595E+03  0.31498556112E+01 0.  0.
         13    1    3    3    0    0  0.27065506639E+02  0.92677346848E+01 -0.50751219679E+03  0.50831787539E+03  0.00000000000E+00 0.  1.
          3    1    3    3  501    0  0.11131580823E+02  0.18177649798E+01 -0.19016870129E+03  0.19050289056E+03  0.00000000000E+00 0.  1.
         -1    1    1    2    0  502 -0.38197087462E+02 -0.11085499665E+02 -0.30043855477E+03  0.30305978120E+03  0.00000000000E+00 0. -1.
<mgrwt>
<rscale>  1 0.30000000E+03</rscale>
<asrwt>0</asrwt>
<pdfrwt beam="1">  1       21 0.68383677E-02 0.30000000E+03</pdfrwt>
<pdfrwt beam="2">0</pdfrwt>
<totfact> 0.16804176E+04</totfact>
</mgrwt>
</event>
<event>
 6    1  0.1270461E-001  0.3000000E+03  0.7818608E-02  0.1093470E+00
         21   -1    0    0  501  502  0.00000000000E+00  0.00000000000E+00  0.22214694165E+01  0.22214694165E+01  0.00000000000E+00 0. -1.
         13   -1    0    0    0    0 -0.00000000000E+00 -0.00000000000E+00 -0.10000000000E+04  0.10000000000E+04  0.00000000000E+00 0.  1.
    9000005    2    1    2  501    0  0.42183300214E+02  0.15092292252E+00 -0.72050173646E+03  0.72175422685E+03  0.51921225171E+01 0.  0.
         13    1    3    3    0    0  0.33576399546E+02  0.99441092035E+00 -0.60279786650E+03  0.60373307953E+03  0.00000000000E+00 0.  1.
          3    1    3    3  501    0  0.86069006684E+01 -0.84348799783E+00 -0.11770386996E+03  0.11802114732E+03  0.00000000000E+00 0.  1.
         -3    1    1    2    0  502 -0.42183300214E+02 -0.15092292252E+00 -0.27727679412E+03  0.28046724257E+03  0.00000000000E+00 0. -1.
<mgrwt>
<rscale>  1 0.30000000E+03</rscale>
<asrwt>0</asrwt>
<pdfrwt beam="1">  1       21 0.80780876E-02 0.30000000E+03</pdfrwt>
<pdfrwt beam="2">0</pdfrwt>
<totfact> 0.12557715E+04</totfact>
</mgrwt>
</event>
<event>
 6    1  0.1270461E-001  0.3000000E+03  0.7818608E-02  0.1093470E+00
         21   -1    0    0  501  502  0.00000000000E+00  0.00000000000E+00  0.95856972242E+00  0.95856972242E+00  0.00000000000E+00 0. -1.
         13   -1    0    0    0    0 -0.00000000000E+00 -0.00000000000E+00 -0.10000000000E+04  0.10000000000E+04  0.00000000000E+00 0.  1.
    9000005    2    1    2  501    0 -0.27518453726E+02  0.13773481526E+02 -0.47686340308E+03  0.47787457438E+03  0.42929662346E+01 0.  0.
         13    1    3    3    0    0 -0.16129429168E+02  0.97844630379E+01 -0.26838357257E+03  0.26904578835E+03  0.00000000000E+00 0.  1.
          1    1    3    3  501    0 -0.11389024558E+02  0.39890184880E+01 -0.20847983051E+03  0.20882878604E+03  0.00000000000E+00 0.  1.
         -3    1    1    2    0  502  0.27518453726E+02 -0.13773481526E+02 -0.52217802720E+03  0.52308399534E+03  0.00000000000E+00 0. -1.
<mgrwt>
<rscale>  1 0.30000000E+03</rscale>
<asrwt>0</asrwt>
<pdfrwt beam="1">  1       21 0.34857154E-02 0.30000000E+03</pdfrwt>
<pdfrwt beam="2">0</pdfrwt>
<totfact> 0.52978310E+04</totfact>
</mgrwt>
</event>
<event>
 6    1  0.1270461E-001  0.3000000E+03  0.7818608E-02  0.1093470E+00
         21   -1    0    0  501  502  0.00000000000E+00  0.00000000000E+00  0.22041665670E+01  0.22041665670E+01  0.00000000000E+00 0. -1.
         13   -1    0    0    0    0 -0.00000000000E+00 -0.00000000000E+00 -0.10000000000E+04  0.10000000000E+04  0.00000000000E+00 0.  1.
    9000005    2    1    2  501    0  0.36280784968E+02 -0.17126372221E+02 -0.75789095233E+03  0.75896773845E+03  0.48707709222E+01 0.  0.
         13    1    3    3    0    0  0.64078961142E+01 -0.11938287931E+01 -0.13533825574E+03  0.13549512842E+03  0.00000000000E+00 0.  1.
          1    1    3    3  501    0  0.29872888854E+02 -0.15932543428E+02 -0.62255269659E+03  0.62347261003E+03  0.00000000000E+00 0.  1.
         -1    1    1    2    0  502 -0.36280784968E+02  0.17126372221E+02 -0.23990488111E+03  0.24323642811E+03  0.00000000000E+00 0. -1.
<mgrwt>
<rscale>  1 0.30000000E+03</rscale>
<asrwt>0</asrwt>
<pdfrwt beam="1">  1       21 0.80151681E-02 0.30000000E+03</pdfrwt>
<pdfrwt beam="2">0</pdfrwt>
<totfact> 0.12731437E+04</totfact>
</mgrwt>
</event>
<event>
 6    1  0.1270461E-001  0.3000000E+03  0.7818608E-02  0.1093470E+00
         21   -1    0    0  501  502  0.00000000000E+00  0.00000000000E+00  0.17334473940E+01  0.17334473940E+01  0.00000000000E+00 0. -1.
         13   -1    0    0    0    0 -0.00000000000E+00 -0.00000000000E+00 -0.10000000000E+04  0.10000000000E+04  0.00000000000E+00 0.  1.
    9000005    2    1    2  501    0  0.19840024739E+02 -0.36459913795E+02 -0.52159131604E+03  0.52325436420E+03  0.38310304305E+01 0.  0.
         13    1    3    3    0    0  0.11271877416E+01 -0.11392877727E+01 -0.28834106589E+02  0.28878612010E+02  0.00000000000E+00 0.  1.
          1    1    3    3  501    0  0.18712836997E+02 -0.35320626022E+02 -0.49275720945E+03  0.49437575219E+03  0.00000000000E+00 0.  1.
         -1    1    1    2    0  502 -0.19840024739E+02  0.36459913795E+02 -0.47667523657E+03  0.47847908319E+03  0.00000000000E+00 0. -1.
<mgrwt>
<rscale>  1 0.30000000E+03</rscale>
<asrwt>0</asrwt>
<pdfrwt beam="1">  1       21 0.63034584E-02 0.30000000E+03</pdfrwt>
<pdfrwt beam="2">0</pdfrwt>
<totfact> 0.19351047E+04</totfact>
</mgrwt>
</event>
<event>
 6    1  0.1270461E-001  0.3000000E+03  0.7818608E-02  0.1093470E+00
         21   -1    0    0  501  502  0.00000000000E+00  0.00000000000E+00  0.85745750634E+01  0.85745750634E+01  0.00000000000E+00 0. -1.
         13   -1    0    0    0    0 -0.00000000000E+00 -0.00000000000E+00 -0.10000000000E+04  0.10000000000E+04  0.00000000000E+00 0.  1.
    9000005    2    1    2  501    0  0.43897735766E+02  0.66382280860E+01 -0.93807794842E+03  0.93916974434E+03  0.88596888503E+01 0.  0.
         13    1    3    3    0    0  0.81900101393E+01 -0.21305789001E+01 -0.16045963606E+03  0.16068263888E+03  0.00000000000E+00 0.  1.
          1    1    3    3  501    0  0.35707725627E+02  0.87688069861E+01 -0.77761831236E+03  0.77848710546E+03  0.00000000000E+00 0.  1.
         -3    1    1    2    0  502 -0.43897735766E+02 -0.66382280860E+01 -0.53347476512E+02  0.69404830723E+02  0.00000000000E+00 0. -1.
<mgrwt>
<rscale>  1 0.30000000E+03</rscale>
<asrwt>0</asrwt>
<pdfrwt beam="1">  1       21 0.31180339E-01 0.30000000E+03</pdfrwt>
<pdfrwt beam="2">0</pdfrwt>
<totfact> 0.10062747E+03</totfact>
</mgrwt>
</event>
<event>
 6    1  0.1270461E-001  0.3000000E+03  0.7818608E-02  0.1093470E+00
         21   -1    0    0  501  502  0.00000000000E+00  0.00000000000E+00  0.31285824101E+01  0.31285824101E+01  0.00000000000E+00 0. -1.
         13   -1    0    0    0    0 -0.00000000000E+00 -0.00000000000E+00 -0.10000000000E+04  0.10000000000E+04  0.00000000000E+00 0.  1.
    9000005    2    1    2  501    0  0.59798023294E+01 -0.45190899996E+02 -0.78877189239E+03  0.79009481076E+03  0.32766254496E+01 0.  0.
         13    1    3    3    0    0  0.58604664204E+00 -0.24098647087E+01 -0.32372843359E+02  0.32467705273E+02  0.00000000000E+00 0.  1.
          3    1    3    3  501    0  0.53937556873E+01 -0.42781035288E+02 -0.75639904903E+03  0.75762710548E+03  0.00000000000E+00 0.  1.
         -3    1    1    2    0  502 -0.59798023294E+01  0.45190899996E+02 -0.20809952520E+03  0.21303377165E+03  0.00000000000E+00 0. -1.
<mgrwt>
<rscale>  1 0.30000000E+03</rscale>
<asrwt>0</asrwt>
<pdfrwt beam="1">  1       21 0.11376687E-01 0.30000000E+03</pdfrwt>
<pdfrwt beam="2">0</pdfrwt>
<totfact> 0.68251256E+03</totfact>
</mgrwt>
</event>
<event>
 6    1  0.1270461E-001  0.3000000E+03  0.7818608E-02  0.1093470E+00
         21   -1    0    0  501  502  0.00000000000E+00  0.00000000000E+00  0.18744510954E+01  0.18744510954E+01  0.00000000000E+00 0. -1.
         13   -1    0    0    0    0 -0.00000000000E+00 -0.00000000000E+00 -0.10000000000E+04  0.10000000000E+04  0.00000000000E+00 0.  1.
    9000005    2    1    2  501    0 -0.28605139527E+02 -0.21091573814E+02 -0.78444541137E+03  0.78525887070E+03  0.37124251032E+01 0.  0.
         13    1    3    3    0    0 -0.25184300509E+02 -0.18704208887E+02 -0.66281621346E+03  0.66355815815E+03  0.00000000000E+00 0.  1.
          3    1    3    3  501    0 -0.34208390178E+01 -0.23873649270E+01 -0.12162919791E+03  0.12170071255E+03  0.00000000000E+00 0.  1.
         -3    1    1    2    0  502  0.28605139527E+02  0.21091573814E+02 -0.21368013754E+03  0.21661558040E+03  0.00000000000E+00 0. -1.
<mgrwt>
<rscale>  1 0.30000000E+03</rscale>
<asrwt>0</asrwt>
<pdfrwt beam="1">  1       21 0.68162002E-02 0.30000000E+03</pdfrwt>
<pdfrwt beam="2">0</pdfrwt>
<totfact> 0.16899217E+04</totfact>
</mgrwt>
</event>
<event>
 6    1  0.1270461E-001  0.3000000E+03  0.7818608E-02  0.1093470E+00
         21   -1    0    0  501  502  0.00000000000E+00  0.00000000000E+00  0.20999161446E+01  0.20999161446E+01  0.00000000000E+00 0. -1.
         13   -1    0    0    0    0 -0.00000000000E+00 -0.00000000000E+00 -0.10000000000E+04  0.10000000000E+04  0.00000000000E+00 0.  1.
    9000005    2    1    2  501    0 -0.24585688653E+02 -0.24644917546E+02 -0.82348302500E+03  0.82424284300E+03  0.63359078382E+01 0.  0.
         13    1    3    3    0    0 -0.15281754305E+02 -0.17721526561E+02 -0.49040710433E+03  0.49096508277E+03  0.00000000000E+00 0.  1.
          1    1    3    3  501    0 -0.93039343477E+01 -0.69233909856E+01 -0.33307592067E+03  0.33327776023E+03  0.00000000000E+00 0.  1.
         -1    1    1    2    0  502  0.24585688653E+02  0.24644917546E+02 -0.17441705885E+03  0.17785707314E+03  0.00000000000E+00 0. -1.
<mgrwt>
<rscale>  1 0.30000000E+03</rscale>
<asrwt>0</asrwt>
<pdfrwt beam="1">  1       21 0.76360748E-02 0.30000000E+03</pdfrwt>
<pdfrwt beam="2">0</pdfrwt>
<totfact> 0.13860976E+04</totfact>
</mgrwt>
</event>
<event>
 6    1  0.1270461E-001  0.3000000E+03  0.7818608E-02  0.1093470E+00
         21   -1    0    0  501  502  0.00000000000E+00  0.00000000000E+00  0.17761534378E+01  0.17761534378E+01  0.00000000000E+00 0. -1.
         13   -1    0    0    0    0 -0.00000000000E+00 -0.00000000000E+00 -0.10000000000E+04  0.10000000000E+04  0.00000000000E+00 0.  1.
    9000005    2    1    2  501    0 -0.23220589486E+02 -0.23704689068E+02 -0.19312646516E+03  0.19599522688E+03  0.38973523805E+01 0.  0.
         13    1    3    3    0    0 -0.21516100770E+02 -0.23181599072E+02 -0.18293228479E+03  0.18564630335E+03  0.00000000000E+00 0.  1.
          1    1    3    3  501    0 -0.17044887155E+01 -0.52308999598E+00 -0.10194180367E+02  0.10348923532E+02  0.00000000000E+00 0.  1.
         -3    1    1    2    0  502  0.23220589486E+02  0.23704689068E+02 -0.80509738140E+03  0.80578092656E+03  0.00000000000E+00 0. -1.
<mgrwt>
<rscale>  1 0.30000000E+03</rscale>
<asrwt>0</asrwt>
<pdfrwt beam="1">  1       21 0.64587534E-02 0.30000000E+03</pdfrwt>
<pdfrwt beam="2">0</pdfrwt>
<totfact> 0.18553376E+04</totfact>
</mgrwt>
</event>
<event>
 6    1  0.1270461E-001  0.3000000E+03  0.7818608E-02  0.1093470E+00
         21   -1    0    0  501  502  0.00000000000E+00  0.00000000000E+00  0.25184874464E+01  0.25184874464E+01  0.00000000000E+00 0. -1.
         13   -1    0    0    0    0 -0.00000000000E+00 -0.00000000000E+00 -0.10000000000E+04  0.10000000000E+04  0.00000000000E+00 0.  1.
    9000005    2    1    2  501    0  0.34179294165E+02  0.25049670892E+02 -0.76672266980E+03  0.76790102503E+03  0.35527026976E+01 0.  0.
         13    1    3    3    0    0  0.18368649148E+02  0.12487213023E+02 -0.43021894369E+03  0.43079191876E+03  0.00000000000E+00 0.  1.
          3    1    3    3  501    0  0.15810645017E+02  0.12562457869E+02 -0.33650372611E+03  0.33710910627E+03  0.00000000000E+00 0.  1.
         -3    1    1    2    0  502 -0.34179294165E+02 -0.25049670892E+02 -0.23075884276E+03  0.23461746242E+03  0.00000000000E+00 0. -1.
<mgrwt>
<rscale>  1 0.30000000E+03</rscale>
<asrwt>0</asrwt>
<pdfrwt beam="1">  1       21 0.91581555E-02 0.30000000E+03</pdfrwt>
<pdfrwt beam="2">0</pdfrwt>
<totfact> 0.10062434E+04</totfact>
</mgrwt>
</event>
<event>
 6    1  0.1270461E-001  0.3000000E+03  0.7818608E-02  0.1093470E+00
         21   -1    0    0  501  502  0.00000000000E+00  0.00000000000E+00  0.34014081357E+01  0.34014081357E+01  0.00000000000E+00 0. -1.
         13   -1    0    0    0    0 -0.00000000000E+00 -0.00000000000E+00 -0.10000000000E+04  0.10000000000E+04  0.00000000000E+00 0.  1.
    9000005    2    1    2  501    0 -0.99172012711E+01 -0.38558832462E+02 -0.86474378276E+03  0.86566678966E+03  0.34708012896E+01 0.  0.
         13    1    3    3    0    0 -0.41837022063E+01 -0.10203343618E+02 -0.23116796351E+03  0.23143085131E+03  0.00000000000E+00 0.  1.
          1    1    3    3  501    0 -0.57334990648E+01 -0.28355488844E+02 -0.63357581925E+03  0.63423593835E+03  0.00000000000E+00 0.  1.
         -1    1    1    2    0  502  0.99172012711E+01  0.38558832462E+02 -0.13185480910E+03  0.13773461847E+03  0.00000000000E+00 0. -1.
<mgrwt>
<rscale>  1 0.30000000E+03</rscale>
<asrwt>0</asrwt>
<pdfrwt beam="1">  1       21 0.12368783E-01 0.30000000E+03</pdfrwt>
<pdfrwt beam="2">0</pdfrwt>
<totfact> 0.58653177E+03</totfact>
</mgrwt>
</event>
<event>
 6    1  0.1270461E-001  0.3000000E+03  0.7818608E-02  0.1093470E+00
         21   -1    0    0  501  502  0.00000000000E+00  0.00000000000E+00  0.25259585294E+01  0.25259585294E+01  0.00000000000E+00 0. -1.
         13   -1    0    0    0    0 -0.00000000000E+00 -0.00000000000E+00 -0.10000000000E+04  0.10000000000E+04  0.00000000000E+00 0.  1.
    9000005    2    1    2  501    0  0.17284119221E+01 -0.49868435104E+02 -0.55365566269E+03  0.55591135782E+03  0.36050924840E+01 0.  0.
         13    1    3    3    0    0  0.22840530743E+01 -0.42059552259E+02 -0.47760522746E+03  0.47945904531E+03  0.00000000000E+00 0.  1.
          3    1    3    3  501    0 -0.55564115221E+00 -0.78088828453E+01 -0.76050435230E+02  0.76452312503E+02  0.00000000000E+00 0.  1.
         -1    1    1    2    0  502 -0.17284119221E+01  0.49868435104E+02 -0.44381837878E+03  0.44661460071E+03  0.00000000000E+00 0. -1.
<mgrwt>
<rscale>  1 0.30000000E+03</rscale>
<asrwt>0</asrwt>
<pdfrwt beam="1">  1       21 0.91853231E-02 0.30000000E+03</pdfrwt>
<pdfrwt beam="2">0</pdfrwt>
<totfact> 0.10009672E+04</totfact>
</mgrwt>
</event>
<event>
 6    1  0.1270461E-001  0.3000000E+03  0.7818608E-02  0.1093470E+00
         21   -1    0    0  501  502  0.00000000000E+00  0.00000000000E+00  0.12635499434E+01  0.12635499434E+01  0.00000000000E+00 0. -1.
         13   -1    0    0    0    0 -0.00000000000E+00 -0.00000000000E+00 -0.10000000000E+04  0.10000000000E+04  0.00000000000E+00 0.  1.
    9000005    2    1    2  501    0  0.35191076203E+02 -0.24556054898E+01 -0.54383165740E+03  0.54499300276E+03  0.44787975133E+01 0.  0.
         13    1    3    3    0    0  0.14274369050E+02 -0.22345219913E+01 -0.19478109512E+03  0.19531621980E+03  0.00000000000E+00 0.  1.
          3    1    3    3  501    0  0.20916707154E+02 -0.22108349848E+00 -0.34905056228E+03  0.34967678296E+03  0.00000000000E+00 0.  1.
         -3    1    1    2    0  502 -0.35191076203E+02  0.24556054898E+01 -0.45490479266E+03  0.45627054719E+03  0.00000000000E+00 0. -1.
<mgrwt>
<rscale>  1 0.30000000E+03</rscale>
<asrwt>0</asrwt>
<pdfrwt beam="1">  1       21 0.45947368E-02 0.30000000E+03</pdfrwt>
<pdfrwt beam="2">0</pdfrwt>
<totfact> 0.33260413E+04</totfact>
</mgrwt>
</event>
<event>
 6    1  0.1270461E-001  0.3000000E+03  0.7818608E-02  0.1093470E+00
         21   -1    0    0  501  502  0.00000000000E+00  0.00000000000E+00  0.23095598809E+01  0.23095598809E+01  0.00000000000E+00 0. -1.
         13   -1    0    0    0    0 -0.00000000000E+00 -0.00000000000E+00 -0.10000000000E+04  0.10000000000E+04  0.00000000000E+00 0.  1.
    9000005    2    1    2  501    0  0.43993506014E+02  0.10929090401E+02 -0.66212438568E+03  0.66369554588E+03  0.53105475953E+01 0.  0.
         13    1    3    3    0    0  0.33308254329E+02  0.86885612681E+01 -0.53301485625E+03  0.53412523615E+03  0.00000000000E+00 0.  1.
          3    1    3    3  501    0  0.10685251685E+02  0.22405291326E+01 -0.12910952943E+03  0.12957030973E+03  0.00000000000E+00 0.  1.
         -1    1    1    2    0  502 -0.43993506014E+02 -0.10929090401E+02 -0.33556605444E+03  0.33861401400E+03  0.00000000000E+00 0. -1.
<mgrwt>
<rscale>  1 0.30000000E+03</rscale>
<asrwt>0</asrwt>
<pdfrwt beam="1">  1       21 0.83984173E-02 0.30000000E+03</pdfrwt>
<pdfrwt beam="2">0</pdfrwt>
<totfact> 0.11727165E+04</totfact>
</mgrwt>
</event>
<event>
 6    1  0.1270461E-001  0.3000000E+03  0.7818608E-02  0.1093470E+00
         21   -1    0    0  501  502  0.00000000000E+00  0.00000000000E+00  0.20202740838E+01  0.20202740838E+01  0.00000000000E+00 0. -1.
         13   -1    0    0    0    0 -0.00000000000E+00 -0.00000000000E+00 -0.10000000000E+04  0.10000000000E+04  0.00000000000E+00 0.  1.
    9000005    2    1    2  501    0  0.14909264274E+02 -0.36589177363E+02 -0.73704984315E+03  0.73811601534E+03  0.34244352245E+01 0.  0.
         13    1    3    3    0    0  0.34986559607E+01 -0.10634668452E+02 -0.23440447981E+03  0.23467167900E+03  0.00000000000E+00 0.  1.
          3    1    3    3  501    0  0.11410608313E+02 -0.25954508910E+02 -0.50264536334E+03  0.50344433635E+03  0.00000000000E+00 0.  1.
         -1    1    1    2    0  502 -0.14909264274E+02  0.36589177363E+02 -0.26092988276E+03  0.26390425874E+03  0.00000000000E+00 0. -1.
<mgrwt>
<rscale>  1 0.30000000E+03</rscale>
<asrwt>0</asrwt>
<pdfrwt beam="1">  1       21 0.73464667E-02 0.30000000E+03</pdfrwt>
<pdfrwt beam="2">0</pdfrwt>
<totfact> 0.14831581E+04</totfact>
</mgrwt>
</event>
<event>
 6    1  0.1270461E-001  0.3000000E+03  0.7818608E-02  0.1093470E+00
         21   -1    0    0  501  502  0.00000000000E+00  0.00000000000E+00  0.96290389816E+00  0.96290389816E+00  0.00000000000E+00 0. -1.
         13   -1    0    0    0    0 -0.00000000000E+00 -0.00000000000E+00 -0.10000000000E+04  0.10000000000E+04  0.00000000000E+00 0.  1.
    9000005    2    1    2  501    0  0.29730695595E+02 -0.44836891599E+01 -0.38182703325E+03  0.38302093299E+03  0.30222600888E+01 0.  0.
         13    1    3    3    0    0  0.11816885166E+02 -0.32260256349E+01 -0.14974833694E+03  0.15024849561E+03  0.00000000000E+00 0.  1.
          3    1    3    3  501    0  0.17913810429E+02 -0.12576635251E+01 -0.23207869631E+03  0.23277243738E+03  0.00000000000E+00 0.  1.
         -1    1    1    2    0  502 -0.29730695595E+02  0.44836891599E+01 -0.61721006285E+03  0.61794197091E+03  0.00000000000E+00 0. -1.
<mgrwt>
<rscale>  1 0.30000000E+03</rscale>
<asrwt>0</asrwt>
<pdfrwt beam="1">  1       21 0.35014761E-02 0.30000000E+03</pdfrwt>
<pdfrwt beam="2">0</pdfrwt>
<totfact> 0.52579670E+04</totfact>
</mgrwt>
</event>
<event>
 6    1  0.1270461E-001  0.3000000E+03  0.7818608E-02  0.1093470E+00
         21   -1    0    0  501  502  0.00000000000E+00  0.00000000000E+00  0.14182140164E+01  0.14182140164E+01  0.00000000000E+00 0. -1.
         13   -1    0    0    0    0 -0.00000000000E+00 -0.00000000000E+00 -0.10000000000E+04  0.10000000000E+04  0.00000000000E+00 0.  1.
    9000005    2    1    2  501    0 -0.18171037767E+02 -0.29917741574E+02 -0.68176013519E+03  0.68266875710E+03  0.38068502223E+01 0.  0.
         13    1    3    3    0    0 -0.50794402877E+01 -0.11680282549E+02 -0.23497200228E+03  0.23531695980E+03  0.00000000000E+00 0.  1.
          3    1    3    3  501    0 -0.13091597479E+02 -0.18237459026E+02 -0.44678813292E+03  0.44735179730E+03  0.00000000000E+00 0.  1.
         -3    1    1    2    0  502  0.18171037767E+02  0.29917741574E+02 -0.31682165079E+03  0.31874945692E+03  0.00000000000E+00 0. -1.
<mgrwt>
<rscale>  1 0.30000000E+03</rscale>
<asrwt>0</asrwt>
<pdfrwt beam="1">  1       21 0.51571528E-02 0.30000000E+03</pdfrwt>
<pdfrwt beam="2">0</pdfrwt>
<totfact> 0.27323282E+04</totfact>
</mgrwt>
</event>
<event>
 6    1  0.1270461E-001  0.3000000E+03  0.7818608E-02  0.1093470E+00
         21   -1    0    0  501  502  0.00000000000E+00  0.00000000000E+00  0.75871552526E+01  0.75871552526E+01  0.00000000000E+00 0. -1.
         13   -1    0    0    0    0 -0.00000000000E+00 -0.00000000000E+00 -0.10000000000E+04  0.10000000000E+04  0.00000000000E+00 0.  1.
    9000005    2    1    2  501    0  0.30050684710E+02 -0.52897064882E+02 -0.85666807883E+03  0.85883304742E+03  0.35864914289E+01 0.  0.
         13    1    3    3    0    0  0.19614747599E+02 -0.36869786603E+02 -0.57043162404E+03  0.57195835268E+03  0.00000000000E+00 0.  1.
          3    1    3    3  501    0  0.10435937111E+02 -0.16027278279E+02 -0.28623645479E+03  0.28687469474E+03  0.00000000000E+00 0.  1.
         -3    1    1    2    0  502 -0.30050684710E+02  0.52897064882E+02 -0.13574476592E+03  0.14875410784E+03  0.00000000000E+00 0. -1.
<mgrwt>
<rscale>  1 0.30000000E+03</rscale>
<asrwt>0</asrwt>
<pdfrwt beam="1">  1       21 0.27589714E-01 0.30000000E+03</pdfrwt>
<pdfrwt beam="2">0</pdfrwt>
<totfact> 0.12844174E+03</totfact>
</mgrwt>
</event>
<event>
 6    1  0.1270461E-001  0.3000000E+03  0.7818608E-02  0.1093470E+00
         21   -1    0    0  501  502  0.00000000000E+00  0.00000000000E+00  0.22778843590E+01  0.22778843590E+01  0.00000000000E+00 0. -1.
         13   -1    0    0    0    0 -0.00000000000E+00 -0.00000000000E+00 -0.10000000000E+04  0.10000000000E+04  0.00000000000E+00 0.  1.
    9000005    2    1    2  501    0 -0.11497940009E+02  0.44300480182E+02 -0.38104011555E+03  0.38389982491E+03  0.96317568749E+01 0.  0.
         13    1    3    3    0    0 -0.92543858837E+01  0.16822743438E+02 -0.15497669184E+03  0.15616152973E+03  0.00000000000E+00 0.  1.
          3    1    3    3  501    0 -0.22435541253E+01  0.27477736744E+02 -0.22606342371E+03  0.22773829518E+03  0.00000000000E+00 0.  1.
         -3    1    1    2    0  502  0.11497940009E+02 -0.44300480182E+02 -0.61668200009E+03  0.61837805945E+03  0.00000000000E+00 0. -1.
<mgrwt>
<rscale>  1 0.30000000E+03</rscale>
<asrwt>0</asrwt>
<pdfrwt beam="1">  1       21 0.82832333E-02 0.30000000E+03</pdfrwt>
<pdfrwt beam="2">0</pdfrwt>
<totfact> 0.12015861E+04</totfact>
</mgrwt>
</event>
<event>
 6    1  0.1270461E-001  0.3000000E+03  0.7818608E-02  0.1093470E+00
         21   -1    0    0  501  502  0.00000000000E+00  0.00000000000E+00  0.10435959194E+02  0.10435959194E+02  0.00000000000E+00 0. -1.
         13   -1    0    0    0    0 -0.00000000000E+00 -0.00000000000E+00 -0.10000000000E+04  0.10000000000E+04  0.00000000000E+00 0.  1.
    9000005    2    1    2  501    0  0.41919388297E+02 -0.89233556665E+02 -0.62682904374E+03  0.63454163782E+03  0.29287013320E+01 0.  0.
         13    1    3    3    0    0  0.37576330882E+02 -0.80644048303E+02 -0.57073711689E+03  0.57762989860E+03  0.00000000000E+00 0.  1.
          3    1    3    3  501    0  0.43430574149E+01 -0.85895083615E+01 -0.56091926859E+02  0.56911739214E+02  0.00000000000E+00 0.  1.
         -1    1    1    2    0  502 -0.41919388297E+02  0.89233556665E+02 -0.36273499706E+03  0.37589432138E+03  0.00000000000E+00 0. -1.
<mgrwt>
<rscale>  1 0.30000000E+03</rscale>
<asrwt>0</asrwt>
<pdfrwt beam="1">  1       21 0.37949023E-01 0.30000000E+03</pdfrwt>
<pdfrwt beam="2">0</pdfrwt>
<totfact> 0.67383092E+02</totfact>
</mgrwt>
</event>
<event>
 6    1  0.1270461E-001  0.3000000E+03  0.7818608E-02  0.1093470E+00
         21   -1    0    0  501  502  0.00000000000E+00  0.00000000000E+00  0.25486964427E+01  0.25486964427E+01  0.00000000000E+00 0. -1.
         13   -1    0    0    0    0 -0.00000000000E+00 -0.00000000000E+00 -0.10000000000E+04  0.10000000000E+04  0.00000000000E+00 0.  1.
    9000005    2    1    2  501    0  0.24294595054E+02  0.34626151210E+02 -0.22676243632E+03  0.23069992383E+03  0.34719784004E+01 0.  0.
         13    1    3    3    0    0  0.23606244953E+02  0.32472537609E+02 -0.21243036197E+03  0.21619060846E+03  0.00000000000E+00 0.  1.
          3    1    3    3  501    0  0.68835010161E+00  0.21536136012E+01 -0.14332074356E+02  0.14509315378E+02  0.00000000000E+00 0.  1.
         -1    1    1    2    0  502 -0.24294595054E+02 -0.34626151210E+02 -0.77068886724E+03  0.77184877261E+03  0.00000000000E+00 0. -1.
<mgrwt>
<rscale>  1 0.30000000E+03</rscale>
<asrwt>0</asrwt>
<pdfrwt beam="1">  1       21 0.92680066E-02 0.30000000E+03</pdfrwt>
<pdfrwt beam="2">0</pdfrwt>
<totfact> 0.98516347E+03</totfact>
</mgrwt>
</event>
<event>
 6    1  0.1270461E-001  0.3000000E+03  0.7818608E-02  0.1093470E+00
         21   -1    0    0  501  502  0.00000000000E+00  0.00000000000E+00  0.11844118697E+01  0.11844118697E+01  0.00000000000E+00 0. -1.
         13   -1    0    0    0    0 -0.00000000000E+00 -0.00000000000E+00 -0.10000000000E+04  0.10000000000E+04  0.00000000000E+00 0.  1.
    9000005    2    1    2  501    0  0.10053864119E+02  0.30788667765E+02 -0.33999169418E+03  0.34156486586E+03  0.48148964527E+01 0.  0.
         13    1    3    3    0    0  0.48235351413E+01  0.78512941140E+01 -0.98038995471E+02  0.98471081762E+02  0.00000000000E+00 0.  1.
          3    1    3    3  501    0  0.52303289773E+01  0.22937373651E+02 -0.24195269871E+03  0.24309378410E+03  0.00000000000E+00 0.  1.
         -1    1    1    2    0  502 -0.10053864119E+02 -0.30788667765E+02 -0.65882389395E+03  0.65961954601E+03  0.00000000000E+00 0. -1.
<mgrwt>
<rscale>  1 0.30000000E+03</rscale>
<asrwt>0</asrwt>
<pdfrwt beam="1">  1       21 0.43069613E-02 0.30000000E+03</pdfrwt>
<pdfrwt beam="2">0</pdfrwt>
<totfact> 0.37115063E+04</totfact>
</mgrwt>
</event>
<event>
 6    1  0.1270461E-001  0.3000000E+03  0.7818608E-02  0.1093470E+00
         21   -1    0    0  501  502  0.00000000000E+00  0.00000000000E+00  0.12182013779E+01  0.12182013779E+01  0.00000000000E+00 0. -1.
         13   -1    0    0    0    0 -0.00000000000E+00 -0.00000000000E+00 -0.10000000000E+04  0.10000000000E+04  0.00000000000E+00 0.  1.
    9000005    2    1    2  501    0 -0.22130702063E+02  0.24704928482E+02 -0.65428856094E+03  0.65513195162E+03  0.20619377042E+01 0.  0.
         13    1    3    3    0    0 -0.21999293446E+02  0.24236581038E+02 -0.64670204846E+03  0.64752986051E+03  0.00000000000E+00 0.  1.
          3    1    3    3  501    0 -0.13140861694E+00  0.46834744399E+00 -0.75865124845E+01  0.76020911090E+01  0.00000000000E+00 0.  1.
         -1    1    1    2    0  502  0.22130702063E+02 -0.24704928482E+02 -0.34449323768E+03  0.34608624976E+03  0.00000000000E+00 0. -1.
<mgrwt>
<rscale>  1 0.30000000E+03</rscale>
<asrwt>0</asrwt>
<pdfrwt beam="1">  1       21 0.44298325E-02 0.30000000E+03</pdfrwt>
<pdfrwt beam="2">0</pdfrwt>
<totfact> 0.35388894E+04</totfact>
</mgrwt>
</event>
<event>
 6    1  0.1270461E-001  0.3000000E+03  0.7818608E-02  0.1093470E+00
         21   -1    0    0  501  502  0.00000000000E+00  0.00000000000E+00  0.81224384757E+01  0.81224384757E+01  0.00000000000E+00 0. -1.
         13   -1    0    0    0    0 -0.00000000000E+00 -0.00000000000E+00 -0.10000000000E+04  0.10000000000E+04  0.00000000000E+00 0.  1.
    9000005    2    1    2  501    0  0.14644797510E+02 -0.40709115960E+02 -0.93809244733E+03  0.93909678582E+03  0.36920418807E+01 0.  0.
         13    1    3    3    0    0  0.75463401929E+00 -0.43402468904E+01 -0.79107122349E+02  0.79229691542E+02  0.00000000000E+00 0.  1.
          1    1    3    3  501    0  0.13890163491E+02 -0.36368869070E+02 -0.85898532498E+03  0.85986709427E+03  0.00000000000E+00 0.  1.
         -3    1    1    2    0  502 -0.14644797510E+02  0.40709115960E+02 -0.53785114193E+02  0.69025652660E+02  0.00000000000E+00 0. -1.
<mgrwt>
<rscale>  1 0.30000000E+03</rscale>
<asrwt>0</asrwt>
<pdfrwt beam="1">  1       21 0.29536202E-01 0.30000000E+03</pdfrwt>
<pdfrwt beam="2">0</pdfrwt>
<totfact> 0.11216633E+03</totfact>
</mgrwt>
</event>
<event>
 6    1  0.1270461E-001  0.3000000E+03  0.7818608E-02  0.1093470E+00
         21   -1    0    0  501  502  0.00000000000E+00  0.00000000000E+00  0.38375355364E+01  0.38375355364E+01  0.00000000000E+00 0. -1.
         13   -1    0    0    0    0 -0.00000000000E+00 -0.00000000000E+00 -0.10000000000E+04  0.10000000000E+04  0.00000000000E+00 0.  1.
    9000005    2    1    2  501    0  0.52617675761E+02  0.76424470991E+01 -0.75519715548E+03  0.75707589562E+03  0.37604900331E+01 0.  0.
         13    1    3    3    0    0  0.12930665870E+02  0.32702306067E+01 -0.20170876470E+03  0.20214925744E+03  0.00000000000E+00 0.  1.
          1    1    3    3  501    0  0.39687009891E+02  0.43722164924E+01 -0.55348839078E+03  0.55492663818E+03  0.00000000000E+00 0.  1.
         -3    1    1    2    0  502 -0.52617675761E+02 -0.76424470991E+01 -0.24096530899E+03  0.24676163992E+03  0.00000000000E+00 0. -1.
<mgrwt>
<rscale>  1 0.30000000E+03</rscale>
<asrwt>0</asrwt>
<pdfrwt beam="1">  1       21 0.13954704E-01 0.30000000E+03</pdfrwt>
<pdfrwt beam="2">0</pdfrwt>
<totfact> 0.47046016E+03</totfact>
</mgrwt>
</event>
<event>
 6    1  0.1270461E-001  0.3000000E+03  0.7818608E-02  0.1093470E+00
         21   -1    0    0  501  502  0.00000000000E+00  0.00000000000E+00  0.47093915378E+01  0.47093915378E+01  0.00000000000E+00 0. -1.
         13   -1    0    0    0    0 -0.00000000000E+00 -0.00000000000E+00 -0.10000000000E+04  0.10000000000E+04  0.00000000000E+00 0.  1.
    9000005    2    1    2  501    0 -0.31877846293E+02  0.27752298171E+02 -0.89267438696E+03  0.89372977154E+03  0.99476769470E+01 0.  0.
         13    1    3    3    0    0 -0.16897994448E+01  0.25650201625E+01 -0.13600208593E+03  0.13603676756E+03  0.00000000000E+00 0.  1.
          1    1    3    3  501    0 -0.30188046848E+02  0.25187278009E+02 -0.75667230102E+03  0.75769300398E+03  0.00000000000E+00 0.  1.
         -3    1    1    2    0  502  0.31877846293E+02 -0.27752298171E+02 -0.10261622151E+03  0.11097962000E+03  0.00000000000E+00 0. -1.
<mgrwt>
<rscale>  1 0.30000000E+03</rscale>
<asrwt>0</asrwt>
<pdfrwt beam="1">  1       21 0.17125096E-01 0.30000000E+03</pdfrwt>
<pdfrwt beam="2">0</pdfrwt>
<totfact> 0.32170259E+03</totfact>
</mgrwt>
</event>
<event>
 6    1  0.1270461E-001  0.3000000E+03  0.7818608E-02  0.1093470E+00
         21   -1    0    0  501  502  0.00000000000E+00  0.00000000000E+00  0.38638450301E+01  0.38638450301E+01  0.00000000000E+00 0. -1.
         13   -1    0    0    0    0 -0.00000000000E+00 -0.00000000000E+00 -0.10000000000E+04  0.10000000000E+04  0.00000000000E+00 0.  1.
    9000005    2    1    2  501    0  0.18957328332E+02 -0.57627472773E+02 -0.60581558485E+03  0.60885694208E+03  0.37345899158E+01 0.  0.
         13    1    3    3    0    0  0.14165026436E+02 -0.38150295987E+02 -0.39714958329E+03  0.39922911287E+03  0.00000000000E+00 0.  1.
          3    1    3    3  501    0  0.47923018967E+01 -0.19477176787E+02 -0.20866600156E+03  0.20962782921E+03  0.00000000000E+00 0.  1.
         -3    1    1    2    0  502 -0.18957328332E+02  0.57627472773E+02 -0.39032057012E+03  0.39500690295E+03  0.00000000000E+00 0. -1.
<mgrwt>
<rscale>  1 0.30000000E+03</rscale>
<asrwt>0</asrwt>
<pdfrwt beam="1">  1       21 0.14050375E-01 0.30000000E+03</pdfrwt>
<pdfrwt beam="2">0</pdfrwt>
<totfact> 0.46459105E+03</totfact>
</mgrwt>
</event>
<event>
 6    1  0.1270461E-001  0.3000000E+03  0.7818608E-02  0.1093470E+00
         21   -1    0    0  501  502  0.00000000000E+00  0.00000000000E+00  0.15195216857E+01  0.15195216857E+01  0.00000000000E+00 0. -1.
         13   -1    0    0    0    0 -0.00000000000E+00 -0.00000000000E+00 -0.10000000000E+04  0.10000000000E+04  0.00000000000E+00 0.  1.
    9000005    2    1    2  501    0  0.28835923475E+02 -0.11658940421E+02 -0.80038907052E+03  0.80100107561E+03  0.35521187026E+01 0.  0.
         13    1    3    3    0    0  0.17897030950E+01 -0.12315344909E+01 -0.79012382514E+02  0.79042243800E+02  0.00000000000E+00 0.  1.
          3    1    3    3  501    0  0.27046220380E+02 -0.10427405930E+02 -0.72137668801E+03  0.72195883181E+03  0.00000000000E+00 0.  1.
         -3    1    1    2    0  502 -0.28835923475E+02  0.11658940421E+02 -0.19809140779E+03  0.20051844607E+03  0.00000000000E+00 0. -1.
<mgrwt>
<rscale>  1 0.30000000E+03</rscale>
<asrwt>0</asrwt>
<pdfrwt beam="1">  1       21 0.55255451E-02 0.30000000E+03</pdfrwt>
<pdfrwt beam="2">0</pdfrwt>
<totfact> 0.24280428E+04</totfact>
</mgrwt>
</event>
<event>
 6    1  0.1270461E-001  0.3000000E+03  0.7818608E-02  0.1093470E+00
         21   -1    0    0  501  502  0.00000000000E+00  0.00000000000E+00  0.21080421735E+01  0.21080421735E+01  0.00000000000E+00 0. -1.
         13   -1    0    0    0    0 -0.00000000000E+00 -0.00000000000E+00 -0.10000000000E+04  0.10000000000E+04  0.00000000000E+00 0.  1.
    9000005    2    1    2  501    0  0.11655821009E+02 -0.28037640619E+02 -0.87458748218E+03  0.87512000664E+03  0.31296287766E+01 0.  0.
         13    1    3    3    0    0  0.76872941447E+01 -0.14912920204E+02 -0.50216874882E+03  0.50244894464E+03  0.00000000000E+00 0.  1.
          3    1    3    3  501    0  0.39685268646E+01 -0.13124720414E+02 -0.37241873336E+03  0.37267106200E+03  0.00000000000E+00 0.  1.
         -1    1    1    2    0  502 -0.11655821009E+02  0.28037640619E+02 -0.12330447565E+03  0.12698803554E+03  0.00000000000E+00 0. -1.
<mgrwt>
<rscale>  1 0.30000000E+03</rscale>
<asrwt>0</asrwt>
<pdfrwt beam="1">  1       21 0.76656241E-02 0.30000000E+03</pdfrwt>
<pdfrwt beam="2">0</pdfrwt>
<totfact> 0.13767478E+04</totfact>
</mgrwt>
</event>
<event>
 6    1  0.1270461E-001  0.3000000E+03  0.7818608E-02  0.1093470E+00
         21   -1    0    0  501  502  0.00000000000E+00  0.00000000000E+00  0.13540055745E+01  0.13540055745E+01  0.00000000000E+00 0. -1.
         13   -1    0    0    0    0 -0.00000000000E+00 -0.00000000000E+00 -0.10000000000E+04  0.10000000000E+04  0.00000000000E+00 0.  1.
    9000005    2    1    2  501    0  0.34493086873E+02  0.37493422093E+01 -0.66308767404E+03  0.66400668160E+03  0.39722970784E+01 0.  0.
         13    1    3    3    0    0  0.10064757127E+02  0.15282963935E+01 -0.22958738540E+03  0.22981297300E+03  0.00000000000E+00 0.  1.
          1    1    3    3  501    0  0.24428329746E+02  0.22210458158E+01 -0.43350028864E+03  0.43419370860E+03  0.00000000000E+00 0.  1.
         -3    1    1    2    0  502 -0.34493086873E+02 -0.37493422093E+01 -0.33555832039E+03  0.33734732397E+03  0.00000000000E+00 0. -1.
<mgrwt>
<rscale>  1 0.30000000E+03</rscale>
<asrwt>0</asrwt>
<pdfrwt beam="1">  1       21 0.49236670E-02 0.30000000E+03</pdfrwt>
<pdfrwt beam="2">0</pdfrwt>
<totfact> 0.29569793E+04</totfact>
</mgrwt>
</event>
<event>
 6    1  0.1270461E-001  0.3000000E+03  0.7818608E-02  0.1093470E+00
         21   -1    0    0  501  502  0.00000000000E+00  0.00000000000E+00  0.44929127611E+01  0.44929127611E+01  0.00000000000E+00 0. -1.
         13   -1    0    0    0    0 -0.00000000000E+00 -0.00000000000E+00 -0.10000000000E+04  0.10000000000E+04  0.00000000000E+00 0.  1.
    9000005    2    1    2  501    0 -0.25796108046E+02 -0.23315250531E+02 -0.92694950734E+03  0.92762170970E+03  0.61324596684E+01 0.  0.
         13    1    3    3    0    0 -0.37888310800E+01 -0.14900359618E+01 -0.77408525506E+02  0.77515516312E+02  0.00000000000E+00 0.  1.
          1    1    3    3  501    0 -0.22007276966E+02 -0.21825214569E+02 -0.84954098183E+03  0.85010619339E+03  0.00000000000E+00 0.  1.
         -3    1    1    2    0  502  0.25796108046E+02  0.23315250531E+02 -0.68557579901E+02  0.76871203058E+02  0.00000000000E+00 0. -1.
<mgrwt>
<rscale>  1 0.30000000E+03</rscale>
<asrwt>0</asrwt>
<pdfrwt beam="1">  1       21 0.16337899E-01 0.30000000E+03</pdfrwt>
<pdfrwt beam="2">0</pdfrwt>
<totfact> 0.35130108E+03</totfact>
</mgrwt>
</event>
<event>
 6    1  0.1270461E-001  0.3000000E+03  0.7818608E-02  0.1093470E+00
         21   -1    0    0  501  502  0.00000000000E+00  0.00000000000E+00  0.81839716798E+01  0.81839716798E+01  0.00000000000E+00 0. -1.
         13   -1    0    0    0    0 -0.00000000000E+00 -0.00000000000E+00 -0.10000000000E+04  0.10000000000E+04  0.00000000000E+00 0.  1.
    9000005    2    1    2  501    0 -0.72604875306E+02 -0.39558240946E+02 -0.70007590854E+03  0.70495366344E+03  0.41312874809E+01 0.  0.
         13    1    3    3    0    0 -0.30409818745E+02 -0.18727460163E+02 -0.29552941823E+03  0.29767954562E+03  0.00000000000E+00 0.  1.
          1    1    3    3  501    0 -0.42195056561E+02 -0.20830780783E+02 -0.40454649031E+03  0.40727411782E+03  0.00000000000E+00 0.  1.
         -1    1    1    2    0  502  0.72604875306E+02  0.39558240946E+02 -0.29174011978E+03  0.30323030824E+03  0.00000000000E+00 0. -1.
<mgrwt>
<rscale>  1 0.30000000E+03</rscale>
<asrwt>0</asrwt>
<pdfrwt beam="1">  1       21 0.29759960E-01 0.30000000E+03</pdfrwt>
<pdfrwt beam="2">0</pdfrwt>
<totfact> 0.11048838E+03</totfact>
</mgrwt>
</event>
<event>
 6    1  0.1270461E-001  0.3000000E+03  0.7818608E-02  0.1093470E+00
         21   -1    0    0  501  502  0.00000000000E+00  0.00000000000E+00  0.25643816196E+01  0.25643816196E+01  0.00000000000E+00 0. -1.
         13   -1    0    0    0    0 -0.00000000000E+00 -0.00000000000E+00 -0.10000000000E+04  0.10000000000E+04  0.00000000000E+00 0.  1.
    9000005    2    1    2  501    0 -0.30380113833E+02 -0.71051914287E+01 -0.89326884052E+03  0.89382546185E+03  0.46151657198E+01 0.  0.
         13    1    3    3    0    0 -0.63211372013E+01 -0.34046535371E+01 -0.19114416395E+03  0.19127895821E+03  0.00000000000E+00 0.  1.
          3    1    3    3  501    0 -0.24058976632E+02 -0.37005378917E+01 -0.70212467656E+03  0.70254650364E+03  0.00000000000E+00 0.  1.
         -3    1    1    2    0  502  0.30380113833E+02  0.71051914287E+01 -0.10416677786E+03  0.10873891977E+03  0.00000000000E+00 0. -1.
<mgrwt>
<rscale>  1 0.30000000E+03</rscale>
<asrwt>0</asrwt>
<pdfrwt beam="1">  1       21 0.93250437E-02 0.30000000E+03</pdfrwt>
<pdfrwt beam="2">0</pdfrwt>
<totfact> 0.97447964E+03</totfact>
</mgrwt>
</event>
<event>
 6    1  0.1270461E-001  0.3000000E+03  0.7818608E-02  0.1093470E+00
         21   -1    0    0  501  502  0.00000000000E+00  0.00000000000E+00  0.31467651294E+01  0.31467651294E+01  0.00000000000E+00 0. -1.
         13   -1    0    0    0    0 -0.00000000000E+00 -0.00000000000E+00 -0.10000000000E+04  0.10000000000E+04  0.00000000000E+00 0.  1.
    9000005    2    1    2  501    0 -0.34003849022E+02 -0.59021977960E+01 -0.89368090856E+03  0.89435509907E+03  0.37919949008E+01 0.  0.
         13    1    3    3    0    0 -0.65587901035E+01 -0.20710093902E+01 -0.21075437016E+03  0.21086657238E+03  0.00000000000E+00 0.  1.
          3    1    3    3  501    0 -0.27445058918E+02 -0.38311884058E+01 -0.68292653840E+03  0.68348852669E+03  0.00000000000E+00 0.  1.
         -3    1    1    2    0  502  0.34003849022E+02  0.59021977960E+01 -0.10317232631E+03  0.10879166606E+03  0.00000000000E+00 0. -1.
<mgrwt>
<rscale>  1 0.30000000E+03</rscale>
<asrwt>0</asrwt>
<pdfrwt beam="1">  1       21 0.11442806E-01 0.30000000E+03</pdfrwt>
<pdfrwt beam="2">0</pdfrwt>
<totfact> 0.67541007E+03</totfact>
</mgrwt>
</event>
<event>
 6    1  0.1270461E-001  0.3000000E+03  0.7818608E-02  0.1093470E+00
         21   -1    0    0  501  502  0.00000000000E+00  0.00000000000E+00  0.40593604564E+01  0.40593604564E+01  0.00000000000E+00 0. -1.
         13   -1    0    0    0    0 -0.00000000000E+00 -0.00000000000E+00 -0.10000000000E+04  0.10000000000E+04  0.00000000000E+00 0.  1.
    9000005    2    1    2  501    0 -0.54618574060E+01 -0.62944370483E+02 -0.55607782717E+03  0.55968213402E+03  0.54512030579E+01 0.  0.
         13    1    3    3    0    0  0.25046013046E+00 -0.21241784622E+02 -0.20004676401E+03  0.20117152863E+03  0.00000000000E+00 0.  1.
          1    1    3    3  501    0 -0.57123175365E+01 -0.41702585861E+02 -0.35603106316E+03  0.35851060539E+03  0.00000000000E+00 0.  1.
         -3    1    1    2    0  502  0.54618574060E+01  0.62944370483E+02 -0.43986281238E+03  0.44437722644E+03  0.00000000000E+00 0. -1.
<mgrwt>
<rscale>  1 0.30000000E+03</rscale>
<asrwt>0</asrwt>
<pdfrwt beam="1">  1       21 0.14761342E-01 0.30000000E+03</pdfrwt>
<pdfrwt beam="2">0</pdfrwt>
<totfact> 0.42419956E+03</totfact>
</mgrwt>
</event>
<event>
 6    1  0.1270461E-001  0.3000000E+03  0.7818608E-02  0.1093470E+00
         21   -1    0    0  501  502  0.00000000000E+00  0.00000000000E+00  0.18810823368E+01  0.18810823368E+01  0.00000000000E+00 0. -1.
         13   -1    0    0    0    0 -0.00000000000E+00 -0.00000000000E+00 -0.10000000000E+04  0.10000000000E+04  0.00000000000E+00 0.  1.
    9000005    2    1    2  501    0  0.15059200313E+02 -0.40364622625E+02 -0.54968849230E+03  0.55138587852E+03  0.35869467219E+01 0.  0.
         13    1    3    3    0    0  0.13755015444E+02 -0.36195447903E+02 -0.50607876905E+03  0.50755790939E+03  0.00000000000E+00 0.  1.
          1    1    3    3  501    0  0.13041848685E+01 -0.41691747211E+01 -0.43609723254E+02  0.43827969133E+02  0.00000000000E+00 0.  1.
         -1    1    1    2    0  502 -0.15059200313E+02  0.40364622625E+02 -0.44843042536E+03  0.45049520382E+03  0.00000000000E+00 0. -1.
<mgrwt>
<rscale>  1 0.30000000E+03</rscale>
<asrwt>0</asrwt>
<pdfrwt beam="1">  1       21 0.68403138E-02 0.30000000E+03</pdfrwt>
<pdfrwt beam="2">0</pdfrwt>
<totfact> 0.16795872E+04</totfact>
</mgrwt>
</event>
<event>
 6    1  0.1270461E-001  0.3000000E+03  0.7818608E-02  0.1093470E+00
         21   -1    0    0  501  502  0.00000000000E+00  0.00000000000E+00  0.23979897459E+01  0.23979897459E+01  0.00000000000E+00 0. -1.
         13   -1    0    0    0    0 -0.00000000000E+00 -0.00000000000E+00 -0.10000000000E+04  0.10000000000E+04  0.00000000000E+00 0.  1.
    9000005    2    1    2  501    0  0.18174552770E+02 -0.25980096725E+02 -0.88059259783E+03  0.88116894046E+03  0.31778120611E+01 0.  0.
         13    1    3    3    0    0  0.13147522593E+02 -0.20193634613E+02 -0.69698597840E+03  0.69740239053E+03  0.00000000000E+00 0.  1.
          1    1    3    3  501    0  0.50270301774E+01 -0.57864621117E+01 -0.18360661943E+03  0.18376654993E+03  0.00000000000E+00 0.  1.
         -1    1    1    2    0  502 -0.18174552770E+02  0.25980096725E+02 -0.11700941242E+03  0.12122904928E+03  0.00000000000E+00 0. -1.
<mgrwt>
<rscale>  1 0.30000000E+03</rscale>
<asrwt>0</asrwt>
<pdfrwt beam="1">  1       21 0.87199811E-02 0.30000000E+03</pdfrwt>
<pdfrwt beam="2">0</pdfrwt>
<totfact> 0.10974966E+04</totfact>
</mgrwt>
</event>
<event>
 6    1  0.1270461E-001  0.3000000E+03  0.7818608E-02  0.1093470E+00
         21   -1    0    0  501  502  0.00000000000E+00  0.00000000000E+00  0.16426790835E+01  0.16426790835E+01  0.00000000000E+00 0. -1.
         13   -1    0    0    0    0 -0.00000000000E+00 -0.00000000000E+00 -0.10000000000E+04  0.10000000000E+04  0.00000000000E+00 0.  1.
    9000005    2    1    2  501    0  0.39555828949E+01  0.33798331803E+02 -0.77010951789E+03  0.77087215789E+03  0.41521543427E+01 0.  0.
         13    1    3    3    0    0  0.33102203041E+00  0.19454115884E+02 -0.42156144666E+03  0.42201021968E+03  0.00000000000E+00 0.  1.
          1    1    3    3  501    0  0.36245608645E+01  0.14344215919E+02 -0.34854807123E+03  0.34886193821E+03  0.00000000000E+00 0.  1.
         -3    1    1    2    0  502 -0.39555828949E+01 -0.33798331803E+02 -0.22824780302E+03  0.23077052120E+03  0.00000000000E+00 0. -1.
<mgrwt>
<rscale>  1 0.30000000E+03</rscale>
<asrwt>0</asrwt>
<pdfrwt beam="1">  1       21 0.59733911E-02 0.30000000E+03</pdfrwt>
<pdfrwt beam="2">0</pdfrwt>
<totfact> 0.21233796E+04</totfact>
</mgrwt>
</event>
<event>
 6    1  0.1270461E-001  0.3000000E+03  0.7818608E-02  0.1093470E+00
         21   -1    0    0  501  502  0.00000000000E+00  0.00000000000E+00  0.15272307993E+01  0.15272307993E+01  0.00000000000E+00 0. -1.
         13   -1    0    0    0    0 -0.00000000000E+00 -0.00000000000E+00 -0.10000000000E+04  0.10000000000E+04  0.00000000000E+00 0.  1.
    9000005    2    1    2  501    0  0.28776213240E+02  0.16272394443E+02 -0.76562218179E+03  0.76634165019E+03  0.30558626604E+01 0.  0.
         13    1    3    3    0    0  0.18437488124E+02  0.11010767106E+02 -0.52780092405E+03  0.52823762966E+03  0.00000000000E+00 0.  1.
          1    1    3    3  501    0  0.10338725116E+02  0.52616273375E+01 -0.23782125774E+03  0.23810402053E+03  0.00000000000E+00 0.  1.
         -3    1    1    2    0  502 -0.28776213240E+02 -0.16272394443E+02 -0.23285058741E+03  0.23518558061E+03  0.00000000000E+00 0. -1.
<mgrwt>
<rscale>  1 0.30000000E+03</rscale>
<asrwt>0</asrwt>
<pdfrwt beam="1">  1       21 0.55535783E-02 0.30000000E+03</pdfrwt>
<pdfrwt beam="2">0</pdfrwt>
<totfact> 0.24070541E+04</totfact>
</mgrwt>
</event>
<event>
 6    1  0.1270461E-001  0.3000000E+03  0.7818608E-02  0.1093470E+00
         21   -1    0    0  501  502  0.00000000000E+00  0.00000000000E+00  0.20046872118E+01  0.20046872118E+01  0.00000000000E+00 0. -1.
         13   -1    0    0    0    0 -0.00000000000E+00 -0.00000000000E+00 -0.10000000000E+04  0.10000000000E+04  0.00000000000E+00 0.  1.
    9000005    2    1    2  501    0 -0.30399517509E+02 -0.17736142406E+02 -0.80822734419E+03  0.80900058539E+03  0.34359657481E+01 0.  0.
         13    1    3    3    0    0 -0.14884080632E+02 -0.68149007358E+01 -0.38750312691E+03  0.38784874899E+03  0.00000000000E+00 0.  1.
          3    1    3    3  501    0 -0.15515436877E+02 -0.10921241670E+02 -0.42072421728E+03  0.42115183640E+03  0.00000000000E+00 0.  1.
         -1    1    1    2    0  502  0.30399517509E+02  0.17736142406E+02 -0.18976796860E+03  0.19300410182E+03  0.00000000000E+00 0. -1.
<mgrwt>
<rscale>  1 0.30000000E+03</rscale>
<asrwt>0</asrwt>
<pdfrwt beam="1">  1       21 0.72897871E-02 0.30000000E+03</pdfrwt>
<pdfrwt beam="2">0</pdfrwt>
<totfact> 0.15033650E+04</totfact>
</mgrwt>
</event>
<event>
 6    1  0.1270461E-001  0.3000000E+03  0.7818608E-02  0.1093470E+00
         21   -1    0    0  501  502  0.00000000000E+00  0.00000000000E+00  0.15770401781E+01  0.15770401781E+01  0.00000000000E+00 0. -1.
         13   -1    0    0    0    0 -0.00000000000E+00 -0.00000000000E+00 -0.10000000000E+04  0.10000000000E+04  0.00000000000E+00 0.  1.
    9000005    2    1    2  501    0  0.36877548023E+02  0.65203977258E+01 -0.33377010795E+03  0.33586998551E+03  0.19217362427E+01 0.  0.
         13    1    3    3    0    0  0.30243679973E+02  0.60795711975E+01 -0.27578288572E+03  0.27750286740E+03  0.00000000000E+00 0.  1.
          3    1    3    3  501    0  0.66338680496E+01  0.44082652836E+00 -0.57987222238E+02  0.58367118108E+02  0.00000000000E+00 0.  1.
         -1    1    1    2    0  502 -0.36877548023E+02 -0.65203977258E+01 -0.66465285187E+03  0.66570705467E+03  0.00000000000E+00 0. -1.
<mgrwt>
<rscale>  1 0.30000000E+03</rscale>
<asrwt>0</asrwt>
<pdfrwt beam="1">  1       21 0.57347036E-02 0.30000000E+03</pdfrwt>
<pdfrwt beam="2">0</pdfrwt>
<totfact> 0.22779198E+04</totfact>
</mgrwt>
</event>
<event>
 6    1  0.1270461E-001  0.3000000E+03  0.7818608E-02  0.1093470E+00
         21   -1    0    0  501  502  0.00000000000E+00  0.00000000000E+00  0.20313379579E+01  0.20313379579E+01  0.00000000000E+00 0. -1.
         13   -1    0    0    0    0 -0.00000000000E+00 -0.00000000000E+00 -0.10000000000E+04  0.10000000000E+04  0.00000000000E+00 0.  1.
    9000005    2    1    2  501    0 -0.19287870311E+02 -0.40572733357E+02 -0.52930558827E+03  0.53122007497E+03  0.34919407656E+01 0.  0.
         13    1    3    3    0    0 -0.14352625546E+02 -0.30958771299E+02 -0.38403379899E+03  0.38554688709E+03  0.00000000000E+00 0.  1.
          3    1    3    3  501    0 -0.49352447645E+01 -0.96139620582E+01 -0.14527178928E+03  0.14567318788E+03  0.00000000000E+00 0.  1.
         -1    1    1    2    0  502  0.19287870311E+02  0.40572733357E+02 -0.46866307377E+03  0.47081126298E+03  0.00000000000E+00 0. -1.
<mgrwt>
<rscale>  1 0.30000000E+03</rscale>
<asrwt>0</asrwt>
<pdfrwt beam="1">  1       21 0.73866991E-02 0.30000000E+03</pdfrwt>
<pdfrwt beam="2">0</pdfrwt>
<totfact> 0.14690638E+04</totfact>
</mgrwt>
</event>
<event>
 6    1  0.1270461E-001  0.3000000E+03  0.7818608E-02  0.1093470E+00
         21   -1    0    0  501  502  0.00000000000E+00  0.00000000000E+00  0.53059825618E+01  0.53059825618E+01  0.00000000000E+00 0. -1.
         13   -1    0    0    0    0 -0.00000000000E+00 -0.00000000000E+00 -0.10000000000E+04  0.10000000000E+04  0.00000000000E+00 0.  1.
    9000005    2    1    2  501    0  0.34126852976E+02  0.11851982771E+02 -0.93378251668E+03  0.93448704078E+03  0.33360681119E+01 0.  0.
         13    1    3    3    0    0  0.22076274812E+02  0.74557442338E+01 -0.64193081228E+03  0.64235357692E+03  0.00000000000E+00 0.  1.
          1    1    3    3  501    0  0.12050578165E+02  0.43962385371E+01 -0.29185170440E+03  0.29213346386E+03  0.00000000000E+00 0.  1.
         -3    1    1    2    0  502 -0.34126852976E+02 -0.11851982771E+02 -0.60911500761E+02  0.70818941779E+02  0.00000000000E+00 0. -1.
<mgrwt>
<rscale>  1 0.30000000E+03</rscale>
<asrwt>0</asrwt>
<pdfrwt beam="1">  1       21 0.19294523E-01 0.30000000E+03</pdfrwt>
<pdfrwt beam="2">0</pdfrwt>
<totfact> 0.25690080E+03</totfact>
</mgrwt>
</event>
<event>
 6    1  0.1270461E-001  0.3000000E+03  0.7818608E-02  0.1093470E+00
         21   -1    0    0  501  502  0.00000000000E+00  0.00000000000E+00  0.26545181770E+01  0.26545181770E+01  0.00000000000E+00 0. -1.
         13   -1    0    0    0    0 -0.00000000000E+00 -0.00000000000E+00 -0.10000000000E+04  0.10000000000E+04  0.00000000000E+00 0.  1.
    9000005    2    1    2  501    0 -0.15949513451E+02 -0.48638547022E+02 -0.55117074320E+03  0.55355320152E+03  0.34443461189E+01 0.  0.
         13    1    3    3    0    0 -0.33191076403E+01 -0.64467471326E+01 -0.81776890603E+02  0.82097727501E+02  0.00000000000E+00 0.  1.
          1    1    3    3  501    0 -0.12630405811E+02 -0.42191799890E+02 -0.46939385260E+03  0.47145547402E+03  0.00000000000E+00 0.  1.
         -1    1    1    2    0  502  0.15949513451E+02  0.48638547022E+02 -0.44617473862E+03  0.44910131666E+03  0.00000000000E+00 0. -1.
<mgrwt>
<rscale>  1 0.30000000E+03</rscale>
<asrwt>0</asrwt>
<pdfrwt beam="1">  1       21 0.96528137E-02 0.30000000E+03</pdfrwt>
<pdfrwt beam="2">0</pdfrwt>
<totfact> 0.91633300E+03</totfact>
</mgrwt>
</event>
<event>
 6    1  0.1270461E-001  0.3000000E+03  0.7818608E-02  0.1093470E+00
         21   -1    0    0  501  502  0.00000000000E+00  0.00000000000E+00  0.10925478935E+01  0.10925478935E+01  0.00000000000E+00 0. -1.
         13   -1    0    0    0    0 -0.00000000000E+00 -0.00000000000E+00 -0.10000000000E+04  0.10000000000E+04  0.00000000000E+00 0.  1.
    9000005    2    1    2  501    0 -0.74080112380E+00 -0.31737651613E+02 -0.63562493723E+03  0.63642555880E+03  0.32563407250E+01 0.  0.
         13    1    3    3    0    0  0.11230250142E+01 -0.19556320943E+02 -0.38744099573E+03  0.38793586589E+03  0.00000000000E+00 0.  1.
          1    1    3    3  501    0 -0.18638261380E+01 -0.12181330670E+02 -0.24818394150E+03  0.24848969291E+03  0.00000000000E+00 0.  1.
         -3    1    1    2    0  502  0.74080112380E+00  0.31737651613E+02 -0.36328251488E+03  0.36466698909E+03  0.00000000000E+00 0. -1.
<mgrwt>
<rscale>  1 0.30000000E+03</rscale>
<asrwt>0</asrwt>
<pdfrwt beam="1">  1       21 0.39729098E-02 0.30000000E+03</pdfrwt>
<pdfrwt beam="2">0</pdfrwt>
<totfact> 0.42531194E+04</totfact>
</mgrwt>
</event>
<event>
 6    1  0.1270461E-001  0.3000000E+03  0.7818608E-02  0.1093470E+00
         21   -1    0    0  501  502  0.00000000000E+00  0.00000000000E+00  0.14537666962E+01  0.14537666962E+01  0.00000000000E+00 0. -1.
         13   -1    0    0    0    0 -0.00000000000E+00 -0.00000000000E+00 -0.10000000000E+04  0.10000000000E+04  0.00000000000E+00 0.  1.
    9000005    2    1    2  501    0 -0.25336748818E+02  0.28222091415E+02 -0.54223742320E+03  0.54357150294E+03  0.31809440365E+01 0.  0.
         13    1    3    3    0    0 -0.58062849353E+00  0.10747706981E+01 -0.25761765322E+02  0.25790711778E+02  0.00000000000E+00 0.  1.
          3    1    3    3  501    0 -0.24756120325E+02  0.27147320717E+02 -0.51647565788E+03  0.51778079116E+03  0.00000000000E+00 0.  1.
         -1    1    1    2    0  502  0.25336748818E+02 -0.28222091415E+02 -0.45630881010E+03  0.45788226375E+03  0.00000000000E+00 0. -1.
<mgrwt>
<rscale>  1 0.30000000E+03</rscale>
<asrwt>0</asrwt>
<pdfrwt beam="1">  1       21 0.52864355E-02 0.30000000E+03</pdfrwt>
<pdfrwt beam="2">0</pdfrwt>
<totfact> 0.26191398E+04</totfact>
</mgrwt>
</event>
<event>
 6    1  0.1270461E-001  0.3000000E+03  0.7818608E-02  0.1093470E+00
         21   -1    0    0  501  502  0.00000000000E+00  0.00000000000E+00  0.24398227900E+01  0.24398227900E+01  0.00000000000E+00 0. -1.
         13   -1    0    0    0    0 -0.00000000000E+00 -0.00000000000E+00 -0.10000000000E+04  0.10000000000E+04  0.00000000000E+00 0.  1.
    9000005    2    1    2  501    0  0.30460846587E+02  0.24102043952E+02 -0.80725515732E+03  0.80821116298E+03  0.59685210300E+01 0.  0.
         13    1    3    3    0    0  0.22919294763E+02  0.18671399220E+02 -0.55759562058E+03  0.55837871674E+03  0.00000000000E+00 0.  1.
          3    1    3    3  501    0  0.75415518244E+01  0.54306447319E+01 -0.24965953675E+03  0.24983244624E+03  0.00000000000E+00 0.  1.
         -1    1    1    2    0  502 -0.30460846587E+02 -0.24102043952E+02 -0.19030501989E+03  0.19422865981E+03  0.00000000000E+00 0. -1.
<mgrwt>
<rscale>  1 0.30000000E+03</rscale>
<asrwt>0</asrwt>
<pdfrwt beam="1">  1       21 0.88721016E-02 0.30000000E+03</pdfrwt>
<pdfrwt beam="2">0</pdfrwt>
<totfact> 0.10644444E+04</totfact>
</mgrwt>
</event>
<event>
 6    1  0.1270461E-001  0.3000000E+03  0.7818608E-02  0.1093470E+00
         21   -1    0    0  501  502  0.00000000000E+00  0.00000000000E+00  0.15803707338E+02  0.15803707338E+02  0.00000000000E+00 0. -1.
         13   -1    0    0    0    0 -0.00000000000E+00 -0.00000000000E+00 -0.10000000000E+04  0.10000000000E+04  0.00000000000E+00 0.  1.
    9000005    2    1    2  501    0 -0.53797839999E+02  0.22688692081E+02 -0.94188610267E+03  0.94369866928E+03  0.29603459540E+01 0.  0.
         13    1    3    3    0    0 -0.29353164508E+02  0.13975651877E+02 -0.52375393634E+03  0.52476195836E+03  0.00000000000E+00 0.  1.
          1    1    3    3  501    0 -0.24444675492E+02  0.87130402047E+01 -0.41813216634E+03  0.41893671092E+03  0.00000000000E+00 0.  1.
         -3    1    1    2    0  502  0.53797839999E+02 -0.22688692081E+02 -0.42310189988E+02  0.72105038061E+02  0.00000000000E+00 0. -1.
<mgrwt>
<rscale>  1 0.30000000E+03</rscale>
<asrwt>0</asrwt>
<pdfrwt beam="1">  1       21 0.57468148E-01 0.30000000E+03</pdfrwt>
<pdfrwt beam="2">0</pdfrwt>
<totfact> 0.27655809E+02</totfact>
</mgrwt>
</event>
<event>
 6    1  0.1270461E-001  0.3000000E+03  0.7818608E-02  0.1093470E+00
         21   -1    0    0  501  502  0.00000000000E+00  0.00000000000E+00  0.13418826902E+01  0.13418826902E+01  0.00000000000E+00 0. -1.
         13   -1    0    0    0    0 -0.00000000000E+00 -0.00000000000E+00 -0.10000000000E+04  0.10000000000E+04  0.00000000000E+00 0.  1.
    9000005    2    1    2  501    0  0.51048558024E+01 -0.36199703649E+02 -0.47761432524E+03  0.47901716439E+03  0.23498946738E+01 0.  0.
         13    1    3    3    0    0  0.29835270229E+00 -0.94602784091E+01 -0.12248314345E+03  0.12284830610E+03  0.00000000000E+00 0.  1.
          3    1    3    3  501    0  0.48065031001E+01 -0.26739425240E+02 -0.35513118179E+03  0.35616885829E+03  0.00000000000E+00 0.  1.
         -3    1    1    2    0  502 -0.51048558024E+01  0.36199703649E+02 -0.52104379207E+03  0.52232471830E+03  0.00000000000E+00 0. -1.
<mgrwt>
<rscale>  1 0.30000000E+03</rscale>
<asrwt>0</asrwt>
<pdfrwt beam="1">  1       21 0.48795837E-02 0.30000000E+03</pdfrwt>
<pdfrwt beam="2">0</pdfrwt>
<totfact> 0.30026212E+04</totfact>
</mgrwt>
</event>
<event>
 6    1  0.1270461E-001  0.3000000E+03  0.7818608E-02  0.1093470E+00
         21   -1    0    0  501  502  0.00000000000E+00  0.00000000000E+00  0.18544493594E+01  0.18544493594E+01  0.00000000000E+00 0. -1.
         13   -1    0    0    0    0 -0.00000000000E+00 -0.00000000000E+00 -0.10000000000E+04  0.10000000000E+04  0.00000000000E+00 0.  1.
    9000005    2    1    2  501    0  0.25915697508E+02  0.28887369109E+02 -0.71511299625E+03  0.71617363041E+03  0.34594820322E+01 0.  0.
         13    1    3    3    0    0  0.11498911897E+02  0.10345016113E+02 -0.27713595648E+03  0.27756725799E+03  0.00000000000E+00 0.  1.
          3    1    3    3  501    0  0.14416785610E+02  0.18542352996E+02 -0.43797703978E+03  0.43860637243E+03  0.00000000000E+00 0.  1.
         -1    1    1    2    0  502 -0.25915697508E+02 -0.28887369109E+02 -0.28303255439E+03  0.28568081895E+03  0.00000000000E+00 0. -1.
<mgrwt>
<rscale>  1 0.30000000E+03</rscale>
<asrwt>0</asrwt>
<pdfrwt beam="1">  1       21 0.67434664E-02 0.30000000E+03</pdfrwt>
<pdfrwt beam="2">0</pdfrwt>
<totfact> 0.17216918E+04</totfact>
</mgrwt>
</event>
<event>
 6    1  0.1270461E-001  0.3000000E+03  0.7818608E-02  0.1093470E+00
         21   -1    0    0  501  502  0.00000000000E+00  0.00000000000E+00  0.14379222242E+01  0.14379222242E+01  0.00000000000E+00 0. -1.
         13   -1    0    0    0    0 -0.00000000000E+00 -0.00000000000E+00 -0.10000000000E+04  0.10000000000E+04  0.00000000000E+00 0.  1.
    9000005    2    1    2  501    0 -0.23906149854E+02  0.29245308222E+02 -0.53214716665E+03  0.53349597991E+03  0.32498546816E+01 0.  0.
         13    1    3    3    0    0 -0.95032512031E+01  0.11902288303E+02 -0.23723695669E+03  0.23772536649E+03  0.00000000000E+00 0.  1.
          1    1    3    3  501    0 -0.14402898651E+02  0.17343019919E+02 -0.29491020996E+03  0.29577061343E+03  0.00000000000E+00 0.  1.
         -3    1    1    2    0  502  0.23906149854E+02 -0.29245308222E+02 -0.46641491113E+03  0.46794194231E+03  0.00000000000E+00 0. -1.
<mgrwt>
<rscale>  1 0.30000000E+03</rscale>
<asrwt>0</asrwt>
<pdfrwt beam="1">  1       21 0.52288191E-02 0.30000000E+03</pdfrwt>
<pdfrwt beam="2">0</pdfrwt>
<totfact> 0.26686681E+04</totfact>
</mgrwt>
</event>
<event>
 6    1  0.1270461E-001  0.3000000E+03  0.7818608E-02  0.1093470E+00
         21   -1    0    0  501  502  0.00000000000E+00  0.00000000000E+00  0.20660320373E+01  0.20660320373E+01  0.00000000000E+00 0. -1.
         13   -1    0    0    0    0 -0.00000000000E+00 -0.00000000000E+00 -0.10000000000E+04  0.10000000000E+04  0.00000000000E+00 0.  1.
    9000005    2    1    2  501    0  0.84328027975E+01  0.44482145255E+02 -0.46400806610E+03  0.46622403845E+03  0.34051747496E+01 0.  0.
         13    1    3    3    0    0  0.61295147864E+01  0.35627218625E+02 -0.38222732335E+03  0.38393306236E+03  0.00000000000E+00 0.  1.
          1    1    3    3  501    0  0.23032880111E+01  0.88549266306E+01 -0.81780742753E+02  0.82290976094E+02  0.00000000000E+00 0.  1.
         -3    1    1    2    0  502 -0.84328027975E+01 -0.44482145255E+02 -0.53392590186E+03  0.53584199359E+03  0.00000000000E+00 0. -1.
<mgrwt>
<rscale>  1 0.30000000E+03</rscale>
<asrwt>0</asrwt>
<pdfrwt beam="1">  1       21 0.75128596E-02 0.30000000E+03</pdfrwt>
<pdfrwt beam="2">0</pdfrwt>
<totfact> 0.14261620E+04</totfact>
</mgrwt>
</event>
<event>
 6    1  0.1270461E-001  0.3000000E+03  0.7818608E-02  0.1093470E+00
         21   -1    0    0  501  502  0.00000000000E+00  0.00000000000E+00  0.10687066032E+01  0.10687066032E+01  0.00000000000E+00 0. -1.
         13   -1    0    0    0    0 -0.00000000000E+00 -0.00000000000E+00 -0.10000000000E+04  0.10000000000E+04  0.00000000000E+00 0.  1.
    9000005    2    1    2  501    0 -0.31016983082E+02  0.41587853412E+01 -0.63883177173E+03  0.63961191217E+03  0.42446303973E+01 0.  0.
         13    1    3    3    0    0 -0.15810206471E+02  0.39742052708E+01 -0.35189904465E+03  0.35227644622E+03  0.00000000000E+00 0.  1.
          3    1    3    3  501    0 -0.15206776610E+02  0.18458007038E+00 -0.28693272708E+03  0.28733546595E+03  0.00000000000E+00 0.  1.
         -3    1    1    2    0  502  0.31016983082E+02 -0.41587853412E+01 -0.36009952167E+03  0.36145679443E+03  0.00000000000E+00 0. -1.
<mgrwt>
<rscale>  1 0.30000000E+03</rscale>
<asrwt>0</asrwt>
<pdfrwt beam="1">  1       21 0.38862140E-02 0.30000000E+03</pdfrwt>
<pdfrwt beam="2">0</pdfrwt>
<totfact> 0.44139769E+04</totfact>
</mgrwt>
</event>
<event>
 6    1  0.1270461E-001  0.3000000E+03  0.7818608E-02  0.1093470E+00
         21   -1    0    0  501  502  0.00000000000E+00  0.00000000000E+00  0.16156939922E+01  0.16156939922E+01  0.00000000000E+00 0. -1.
         13   -1    0    0    0    0 -0.00000000000E+00 -0.00000000000E+00 -0.10000000000E+04  0.10000000000E+04  0.00000000000E+00 0.  1.
    9000005    2    1    2  501    0 -0.10765611017E+02 -0.33085394497E+02 -0.74889635309E+03  0.74971337093E+03  0.37214486971E+01 0.  0.
         13    1    3    3    0    0 -0.28936244402E+01 -0.13572082360E+02 -0.27427859951E+03  0.27462943148E+03  0.00000000000E+00 0.  1.
          1    1    3    3  501    0 -0.78719865770E+01 -0.19513312137E+02 -0.47461775357E+03  0.47508393946E+03  0.00000000000E+00 0.  1.
         -3    1    1    2    0  502  0.10765611017E+02  0.33085394497E+02 -0.24948795292E+03  0.25190232306E+03  0.00000000000E+00 0. -1.
<mgrwt>
<rscale>  1 0.30000000E+03</rscale>
<asrwt>0</asrwt>
<pdfrwt beam="1">  1       21 0.58752633E-02 0.30000000E+03</pdfrwt>
<pdfrwt beam="2">0</pdfrwt>
<totfact> 0.21848823E+04</totfact>
</mgrwt>
</event>
<event>
 6    1  0.1270461E-001  0.3000000E+03  0.7818608E-02  0.1093470E+00
         21   -1    0    0  501  502  0.00000000000E+00  0.00000000000E+00  0.20689275146E+01  0.20689275146E+01  0.00000000000E+00 0. -1.
         13   -1    0    0    0    0 -0.00000000000E+00 -0.00000000000E+00 -0.10000000000E+04  0.10000000000E+04  0.00000000000E+00 0.  1.
    9000005    2    1    2  501    0  0.36730931144E+02 -0.26246630370E+02 -0.45944628040E+03  0.46169505859E+03  0.57788965361E+01 0.  0.
         13    1    3    3    0    0  0.27500297691E+02 -0.16412838201E+02 -0.32357174327E+03  0.32515276514E+03  0.00000000000E+00 0.  1.
          3    1    3    3  501    0  0.92306334528E+01 -0.98337921693E+01 -0.13587453713E+03  0.13654229346E+03  0.00000000000E+00 0.  1.
         -1    1    1    2    0  502 -0.36730931144E+02  0.26246630370E+02 -0.53848479208E+03  0.54037386892E+03  0.00000000000E+00 0. -1.
<mgrwt>
<rscale>  1 0.30000000E+03</rscale>
<asrwt>0</asrwt>
<pdfrwt beam="1">  1       21 0.75233886E-02 0.30000000E+03</pdfrwt>
<pdfrwt beam="2">0</pdfrwt>
<totfact> 0.14226688E+04</totfact>
</mgrwt>
</event>
<event>
 6    1  0.1270461E-001  0.3000000E+03  0.7818608E-02  0.1093470E+00
         21   -1    0    0  501  502  0.00000000000E+00  0.00000000000E+00  0.99565324803E+00  0.99565324803E+00  0.00000000000E+00 0. -1.
         13   -1    0    0    0    0 -0.00000000000E+00 -0.00000000000E+00 -0.10000000000E+04  0.10000000000E+04  0.00000000000E+00 0.  1.
    9000005    2    1    2  501    0 -0.28533775863E+02  0.13169054302E+02 -0.51567139872E+03  0.51664212636E+03  0.38072188165E+01 0.  0.
         13    1    3    3    0    0 -0.57447120375E+01  0.43777829692E+01 -0.12239451863E+03  0.12260744224E+03  0.00000000000E+00 0.  1.
          1    1    3    3  501    0 -0.22789063825E+02  0.87912713330E+01 -0.39327688009E+03  0.39403468412E+03  0.00000000000E+00 0.  1.
         -1    1    1    2    0  502  0.28533775863E+02 -0.13169054302E+02 -0.48333294803E+03  0.48435352689E+03  0.00000000000E+00 0. -1.
<mgrwt>
<rscale>  1 0.30000000E+03</rscale>
<asrwt>0</asrwt>
<pdfrwt beam="1">  1       21 0.36205649E-02 0.30000000E+03</pdfrwt>
<pdfrwt beam="2">0</pdfrwt>
<totfact> 0.49713120E+04</totfact>
</mgrwt>
</event>
<event>
 6    1  0.1270461E-001  0.3000000E+03  0.7818608E-02  0.1093470E+00
         21   -1    0    0  501  502  0.00000000000E+00  0.00000000000E+00  0.73396877633E+01  0.73396877633E+01  0.00000000000E+00 0. -1.
         13   -1    0    0    0    0 -0.00000000000E+00 -0.00000000000E+00 -0.10000000000E+04  0.10000000000E+04  0.00000000000E+00 0.  1.
    9000005    2    1    2  501    0  0.34703974781E+02  0.33582055817E+02 -0.91228294064E+03  0.91357059795E+03  0.43535421830E+01 0.  0.
         13    1    3    3    0    0  0.10815067245E+02  0.13094908125E+02 -0.33617949883E+03  0.33660822588E+03  0.00000000000E+00 0.  1.
          3    1    3    3  501    0  0.23888907536E+02  0.20487147692E+02 -0.57610344181E+03  0.57696237207E+03  0.00000000000E+00 0.  1.
         -1    1    1    2    0  502 -0.34703974781E+02 -0.33582055817E+02 -0.80377371601E+02  0.93769089811E+02  0.00000000000E+00 0. -1.
<mgrwt>
<rscale>  1 0.30000000E+03</rscale>
<asrwt>0</asrwt>
<pdfrwt beam="1">  1       21 0.26689830E-01 0.30000000E+03</pdfrwt>
<pdfrwt beam="2">0</pdfrwt>
<totfact> 0.13714010E+03</totfact>
</mgrwt>
</event>
<event>
 6    1  0.1270461E-001  0.3000000E+03  0.7818608E-02  0.1093470E+00
         21   -1    0    0  501  502  0.00000000000E+00  0.00000000000E+00  0.26817490181E+01  0.26817490181E+01  0.00000000000E+00 0. -1.
         13   -1    0    0    0    0 -0.00000000000E+00 -0.00000000000E+00 -0.10000000000E+04  0.10000000000E+04  0.00000000000E+00 0.  1.
    9000005    2    1    2  501    0  0.38392812524E+02  0.20144018316E+02 -0.77234142611E+03  0.77356526935E+03  0.34868218760E+01 0.  0.
         13    1    3    3    0    0  0.54677440846E+01  0.28344551585E+01 -0.13320014685E+03  0.13334245191E+03  0.00000000000E+00 0.  1.
          1    1    3    3  501    0  0.32925068439E+02  0.17309563158E+02 -0.63914127926E+03  0.64022281744E+03  0.00000000000E+00 0.  1.
         -1    1    1    2    0  502 -0.38392812524E+02 -0.20144018316E+02 -0.22497682487E+03  0.22911647967E+03  0.00000000000E+00 0. -1.
<mgrwt>
<rscale>  1 0.30000000E+03</rscale>
<asrwt>0</asrwt>
<pdfrwt beam="1">  1       21 0.97518352E-02 0.30000000E+03</pdfrwt>
<pdfrwt beam="2">0</pdfrwt>
<totfact> 0.89980148E+03</totfact>
</mgrwt>
</event>
<event>
 6    1  0.1270461E-001  0.3000000E+03  0.7818608E-02  0.1093470E+00
         21   -1    0    0  501  502  0.00000000000E+00  0.00000000000E+00  0.18747733043E+01  0.18747733043E+01  0.00000000000E+00 0. -1.
         13   -1    0    0    0    0 -0.00000000000E+00 -0.00000000000E+00 -0.10000000000E+04  0.10000000000E+04  0.00000000000E+00 0.  1.
    9000005    2    1    2  501    0 -0.13921321578E+02 -0.26727014138E+02 -0.85852002462E+03  0.85905408528E+03  0.30252760468E+01 0.  0.
         13    1    3    3    0    0 -0.98365086419E+01 -0.16816658109E+02 -0.52226034498E+03  0.52262359766E+03  0.00000000000E+00 0.  1.
          3    1    3    3  501    0 -0.40848129359E+01 -0.99103560289E+01 -0.33625967964E+03  0.33643048763E+03  0.00000000000E+00 0.  1.
         -3    1    1    2    0  502  0.13921321578E+02  0.26727014138E+02 -0.13960520208E+03  0.14282068802E+03  0.00000000000E+00 0. -1.
<mgrwt>
<rscale>  1 0.30000000E+03</rscale>
<asrwt>0</asrwt>
<pdfrwt beam="1">  1       21 0.68173718E-02 0.30000000E+03</pdfrwt>
<pdfrwt beam="2">0</pdfrwt>
<totfact> 0.16894173E+04</totfact>
</mgrwt>
</event>
<event>
 6    1  0.1270461E-001  0.3000000E+03  0.7818608E-02  0.1093470E+00
         21   -1    0    0  501  502  0.00000000000E+00  0.00000000000E+00  0.11113677432E+01  0.11113677432E+01  0.00000000000E+00 0. -1.
         13   -1    0    0    0    0 -0.00000000000E+00 -0.00000000000E+00 -0.10000000000E+04  0.10000000000E+04  0.00000000000E+00 0.  1.
    9000005    2    1    2  501    0 -0.27134003800E+02  0.15882778417E+02 -0.65676201014E+03  0.65754311780E+03  0.61722752785E+01 0.  0.
         13    1    3    3    0    0 -0.24065565955E+02  0.13139753383E+02 -0.60338351415E+03  0.60400618352E+03  0.00000000000E+00 0.  1.
          1    1    3    3  501    0 -0.30684378448E+01  0.27430250337E+01 -0.53378495993E+02  0.53536934276E+02  0.00000000000E+00 0.  1.
         -3    1    1    2    0  502  0.27134003800E+02 -0.15882778417E+02 -0.34212662211E+03  0.34356824995E+03  0.00000000000E+00 0. -1.
<mgrwt>
<rscale>  1 0.30000000E+03</rscale>
<asrwt>0</asrwt>
<pdfrwt beam="1">  1       21 0.40413458E-02 0.30000000E+03</pdfrwt>
<pdfrwt beam="2">0</pdfrwt>
<totfact> 0.41325247E+04</totfact>
</mgrwt>
</event>
<event>
 6    1  0.1270461E-001  0.3000000E+03  0.7818608E-02  0.1093470E+00
         21   -1    0    0  501  502  0.00000000000E+00  0.00000000000E+00  0.44206749869E+01  0.44206749869E+01  0.00000000000E+00 0. -1.
         13   -1    0    0    0    0 -0.00000000000E+00 -0.00000000000E+00 -0.10000000000E+04  0.10000000000E+04  0.00000000000E+00 0.  1.
    9000005    2    1    2  501    0 -0.38715488710E+02 -0.19000352268E+02 -0.87992558686E+03  0.88098773934E+03  0.32335759928E+01 0.  0.
         13    1    3    3    0    0 -0.44793480988E+01 -0.10918917350E+01 -0.94085163538E+02  0.94198061471E+02  0.00000000000E+00 0.  1.
          1    1    3    3  501    0 -0.34236140611E+02 -0.17908460533E+02 -0.78584042332E+03  0.78678967787E+03  0.00000000000E+00 0.  1.
         -3    1    1    2    0  502  0.38715488710E+02  0.19000352268E+02 -0.11565373816E+03  0.12343293565E+03  0.00000000000E+00 0. -1.
<mgrwt>
<rscale>  1 0.30000000E+03</rscale>
<asrwt>0</asrwt>
<pdfrwt beam="1">  1       21 0.16075216E-01 0.30000000E+03</pdfrwt>
<pdfrwt beam="2">0</pdfrwt>
<totfact> 0.36208678E+03</totfact>
</mgrwt>
</event>
<event>
 6    1  0.1270461E-001  0.3000000E+03  0.7818608E-02  0.1093470E+00
         21   -1    0    0  501  502  0.00000000000E+00  0.00000000000E+00  0.11019872736E+01  0.11019872736E+01  0.00000000000E+00 0. -1.
         13   -1    0    0    0    0 -0.00000000000E+00 -0.00000000000E+00 -0.10000000000E+04  0.10000000000E+04  0.00000000000E+00 0.  1.
    9000005    2    1    2  501    0 -0.30301157469E+02 -0.63106228146E+00 -0.70171690085E+03  0.70237942093E+03  0.34181327492E+01 0.  0.
         13    1    3    3    0    0 -0.14202023378E+02 -0.26016262945E+00 -0.36842371735E+03  0.36869743783E+03  0.00000000000E+00 0.  1.
          1    1    3    3  501    0 -0.16099134092E+02 -0.37089965201E+00 -0.33329318349E+03  0.33368198310E+03  0.00000000000E+00 0.  1.
         -1    1    1    2    0  502  0.30301157469E+02  0.63106228146E+00 -0.29718111188E+03  0.29872256634E+03  0.00000000000E+00 0. -1.
<mgrwt>
<rscale>  1 0.30000000E+03</rscale>
<asrwt>0</asrwt>
<pdfrwt beam="1">  1       21 0.40072349E-02 0.30000000E+03</pdfrwt>
<pdfrwt beam="2">0</pdfrwt>
<totfact> 0.41919554E+04</totfact>
</mgrwt>
</event>
<event>
 6    1  0.1270461E-001  0.3000000E+03  0.7818608E-02  0.1093470E+00
         21   -1    0    0  501  502  0.00000000000E+00  0.00000000000E+00  0.16406578828E+01  0.16406578828E+01  0.00000000000E+00 0. -1.
         13   -1    0    0    0    0 -0.00000000000E+00 -0.00000000000E+00 -0.10000000000E+04  0.10000000000E+04  0.00000000000E+00 0.  1.
    9000005    2    1    2  501    0 -0.39411110079E+02 -0.90277046910E+01 -0.49022313882E+03  0.49189843269E+03  0.32568685165E+01 0.  0.
         13    1    3    3    0    0 -0.30293357237E+02 -0.64830681527E+01 -0.39058172894E+03  0.39180837746E+03  0.00000000000E+00 0.  1.
          1    1    3    3  501    0 -0.91177528422E+01 -0.25446365383E+01 -0.99641409886E+02  0.10009005523E+03  0.00000000000E+00 0.  1.
         -1    1    1    2    0  502  0.39411110079E+02  0.90277046910E+01 -0.50813620329E+03  0.50974222520E+03  0.00000000000E+00 0. -1.
<mgrwt>
<rscale>  1 0.30000000E+03</rscale>
<asrwt>0</asrwt>
<pdfrwt beam="1">  1       21 0.59660412E-02 0.30000000E+03</pdfrwt>
<pdfrwt beam="2">0</pdfrwt>
<totfact> 0.21278922E+04</totfact>
</mgrwt>
</event>
<event>
 6    1  0.1270461E-001  0.3000000E+03  0.7818608E-02  0.1093470E+00
         21   -1    0    0  501  502  0.00000000000E+00  0.00000000000E+00  0.20446184100E+01  0.20446184100E+01  0.00000000000E+00 0. -1.
         13   -1    0    0    0    0 -0.00000000000E+00 -0.00000000000E+00 -0.10000000000E+04  0.10000000000E+04  0.00000000000E+00 0.  1.
    9000005    2    1    2  501    0  0.32386372735E+02  0.30967502358E+02 -0.56237447728E+03  0.56416496880E+03  0.30324884707E+01 0.  0.
         13    1    3    3    0    0  0.23792770981E+02  0.24061217122E+02 -0.41258370700E+03  0.41396902469E+03  0.00000000000E+00 0.  1.
          1    1    3    3  501    0  0.85936017547E+01  0.69062852357E+01 -0.14979077028E+03  0.15019594411E+03  0.00000000000E+00 0.  1.
         -1    1    1    2    0  502 -0.32386372735E+02 -0.30967502358E+02 -0.43558090431E+03  0.43787964961E+03  0.00000000000E+00 0. -1.
<mgrwt>
<rscale>  1 0.30000000E+03</rscale>
<asrwt>0</asrwt>
<pdfrwt beam="1">  1       21 0.74349917E-02 0.30000000E+03</pdfrwt>
<pdfrwt beam="2">0</pdfrwt>
<totfact> 0.14524120E+04</totfact>
</mgrwt>
</event>
<event>
 6    1  0.1270461E-001  0.3000000E+03  0.7818608E-02  0.1093470E+00
         21   -1    0    0  501  502  0.00000000000E+00  0.00000000000E+00  0.30428062912E+01  0.30428062912E+01  0.00000000000E+00 0. -1.
         13   -1    0    0    0    0 -0.00000000000E+00 -0.00000000000E+00 -0.10000000000E+04  0.10000000000E+04  0.00000000000E+00 0.  1.
    9000005    2    1    2  501    0  0.40254035690E+02  0.25077138107E+02 -0.75430169076E+03  0.75579608062E+03  0.27248025285E+01 0.  0.
         13    1    3    3    0    0  0.20223866632E+02  0.11288810921E+02 -0.38049133505E+03  0.38119561656E+03  0.00000000000E+00 0.  1.
          1    1    3    3  501    0  0.20030169058E+02  0.13788327186E+02 -0.37381035571E+03  0.37460046406E+03  0.00000000000E+00 0.  1.
         -1    1    1    2    0  502 -0.40254035690E+02 -0.25077138107E+02 -0.24265550295E+03  0.24724672567E+03  0.00000000000E+00 0. -1.
<mgrwt>
<rscale>  1 0.30000000E+03</rscale>
<asrwt>0</asrwt>
<pdfrwt beam="1">  1       21 0.11064773E-01 0.30000000E+03</pdfrwt>
<pdfrwt beam="2">0</pdfrwt>
<totfact> 0.71758028E+03</totfact>
</mgrwt>
</event>
<event>
 6    1  0.1270461E-001  0.3000000E+03  0.7818608E-02  0.1093470E+00
         21   -1    0    0  501  502  0.00000000000E+00  0.00000000000E+00  0.16527382790E+01  0.16527382790E+01  0.00000000000E+00 0. -1.
         13   -1    0    0    0    0 -0.00000000000E+00 -0.00000000000E+00 -0.10000000000E+04  0.10000000000E+04  0.00000000000E+00 0.  1.
    9000005    2    1    2  501    0  0.14629466580E+02  0.31578566483E+02 -0.75749544245E+03  0.75829944366E+03  0.27338207730E+01 0.  0.
         13    1    3    3    0    0  0.39322875397E+00  0.17087417667E+01 -0.29044420877E+02  0.29097299038E+02  0.00000000000E+00 0.  1.
          1    1    3    3  501    0  0.14236237826E+02  0.29869824716E+02 -0.72845102157E+03  0.72920214463E+03  0.00000000000E+00 0.  1.
         -3    1    1    2    0  502 -0.14629466580E+02 -0.31578566483E+02 -0.24085181927E+03  0.24335329462E+03  0.00000000000E+00 0. -1.
<mgrwt>
<rscale>  1 0.30000000E+03</rscale>
<asrwt>0</asrwt>
<pdfrwt beam="1">  1       21 0.60099701E-02 0.30000000E+03</pdfrwt>
<pdfrwt beam="2">0</pdfrwt>
<totfact> 0.21011413E+04</totfact>
</mgrwt>
</event>
<event>
 6    1  0.1270461E-001  0.3000000E+03  0.7818608E-02  0.1093470E+00
         21   -1    0    0  501  502  0.00000000000E+00  0.00000000000E+00  0.13254205563E+01  0.13254205563E+01  0.00000000000E+00 0. -1.
         13   -1    0    0    0    0 -0.00000000000E+00 -0.00000000000E+00 -0.10000000000E+04  0.10000000000E+04  0.00000000000E+00 0.  1.
    9000005    2    1    2  501    0  0.22335180748E+02 -0.27873836592E+02 -0.59010256638E+03  0.59119507430E+03  0.38426497572E+01 0.  0.
         13    1    3    3    0    0  0.21230204066E+02 -0.25259256577E+02 -0.53076400506E+03  0.53178866167E+03  0.00000000000E+00 0.  1.
          1    1    3    3  501    0  0.11049766820E+01 -0.26145800156E+01 -0.59338561320E+02  0.59406412631E+02  0.00000000000E+00 0.  1.
         -1    1    1    2    0  502 -0.22335180748E+02  0.27873836592E+02 -0.40857201306E+03  0.41013034626E+03  0.00000000000E+00 0. -1.
<mgrwt>
<rscale>  1 0.30000000E+03</rscale>
<asrwt>0</asrwt>
<pdfrwt beam="1">  1       21 0.48197213E-02 0.30000000E+03</pdfrwt>
<pdfrwt beam="2">0</pdfrwt>
<totfact> 0.30663838E+04</totfact>
</mgrwt>
</event>
<event>
 6    1  0.1270461E-001  0.3000000E+03  0.7818608E-02  0.1093470E+00
         21   -1    0    0  501  502  0.00000000000E+00  0.00000000000E+00  0.48484194406E+01  0.48484194406E+01  0.00000000000E+00 0. -1.
         13   -1    0    0    0    0 -0.00000000000E+00 -0.00000000000E+00 -0.10000000000E+04  0.10000000000E+04  0.00000000000E+00 0.  1.
    9000005    2    1    2  501    0 -0.32564431794E+02  0.50291654522E+02 -0.75323072775E+03  0.75561882297E+03  0.36856028001E+01 0.  0.
         13    1    3    3    0    0 -0.14802973668E+02  0.23120826422E+02 -0.32220902302E+03  0.32337649135E+03  0.00000000000E+00 0.  1.
          1    1    3    3  501    0 -0.17761458126E+02  0.27170828100E+02 -0.43102170473E+03  0.43224233161E+03  0.00000000000E+00 0.  1.
         -3    1    1    2    0  502  0.32564431794E+02 -0.50291654522E+02 -0.24192085281E+03  0.24922959647E+03  0.00000000000E+00 0. -1.
<mgrwt>
<rscale>  1 0.30000000E+03</rscale>
<asrwt>0</asrwt>
<pdfrwt beam="1">  1       21 0.17630653E-01 0.30000000E+03</pdfrwt>
<pdfrwt beam="2">0</pdfrwt>
<totfact> 0.30460799E+03</totfact>
</mgrwt>
</event>
<event>
 6    1  0.1270461E-001  0.3000000E+03  0.7818608E-02  0.1093470E+00
         21   -1    0    0  501  502  0.00000000000E+00  0.00000000000E+00  0.95832585880E+00  0.95832585880E+00  0.00000000000E+00 0. -1.
         13   -1    0    0    0    0 -0.00000000000E+00 -0.00000000000E+00 -0.10000000000E+04  0.10000000000E+04  0.00000000000E+00 0.  1.
    9000005    2    1    2  501    0  0.18887671703E+02 -0.23386690855E+02 -0.38784247915E+03  0.38902030824E+03  0.33660268959E+01 0.  0.
         13    1    3    3    0    0  0.15879263977E+02 -0.21067227451E+02 -0.32962785610E+03  0.33068187525E+03  0.00000000000E+00 0.  1.
          3    1    3    3  501    0  0.30084077260E+01 -0.23194634042E+01 -0.58214623051E+02  0.58338432997E+02  0.00000000000E+00 0.  1.
         -1    1    1    2    0  502 -0.18887671703E+02  0.23386690855E+02 -0.61119919499E+03  0.61193801762E+03  0.00000000000E+00 0. -1.
<mgrwt>
<rscale>  1 0.30000000E+03</rscale>
<asrwt>0</asrwt>
<pdfrwt beam="1">  1       21 0.34848287E-02 0.30000000E+03</pdfrwt>
<pdfrwt beam="2">0</pdfrwt>
<totfact> 0.53000879E+04</totfact>
</mgrwt>
</event>
<event>
 6    1  0.1270461E-001  0.3000000E+03  0.7818608E-02  0.1093470E+00
         21   -1    0    0  501  502  0.00000000000E+00  0.00000000000E+00  0.44986024893E+01  0.44986024893E+01  0.00000000000E+00 0. -1.
         13   -1    0    0    0    0 -0.00000000000E+00 -0.00000000000E+00 -0.10000000000E+04  0.10000000000E+04  0.00000000000E+00 0.  1.
    9000005    2    1    2  501    0  0.28264825181E+01  0.41034913802E+02 -0.89434943534E+03  0.89530348994E+03  0.39463207906E+01 0.  0.
         13    1    3    3    0    0  0.60975510790E+00  0.89467975949E+01 -0.16190481620E+03  0.16215297252E+03  0.00000000000E+00 0.  1.
          3    1    3    3  501    0  0.22167274102E+01  0.32088116207E+02 -0.73244461914E+03  0.73315051742E+03  0.00000000000E+00 0.  1.
         -1    1    1    2    0  502 -0.28264825181E+01 -0.41034913802E+02 -0.10115196217E+03  0.10919511255E+03  0.00000000000E+00 0. -1.
<mgrwt>
<rscale>  1 0.30000000E+03</rscale>
<asrwt>0</asrwt>
<pdfrwt beam="1">  1       21 0.16358589E-01 0.30000000E+03</pdfrwt>
<pdfrwt beam="2">0</pdfrwt>
<totfact> 0.35047204E+03</totfact>
</mgrwt>
</event>
<event>
 6    1  0.1270461E-001  0.3000000E+03  0.7818608E-02  0.1093470E+00
         21   -1    0    0  501  502  0.00000000000E+00  0.00000000000E+00  0.98713993182E+00  0.98713993182E+00  0.00000000000E+00 0. -1.
         13   -1    0    0    0    0 -0.00000000000E+00 -0.00000000000E+00 -0.10000000000E+04  0.10000000000E+04  0.00000000000E+00 0.  1.
    9000005    2    1    2  501    0 -0.12863593519E+01 -0.31198842210E+02 -0.49097083875E+03  0.49198643472E+03  0.48233779887E+01 0.  0.
         13    1    3    3    0    0 -0.26646518660E+00 -0.29704213998E+02 -0.45341404555E+03  0.45438607817E+03  0.00000000000E+00 0.  1.
          1    1    3    3  501    0 -0.10198941653E+01 -0.14946282125E+01 -0.37556793197E+02  0.37600356552E+02  0.00000000000E+00 0.  1.
         -3    1    1    2    0  502  0.12863593519E+01  0.31198842210E+02 -0.50804202132E+03  0.50900070521E+03  0.00000000000E+00 0. -1.
<mgrwt>
<rscale>  1 0.30000000E+03</rscale>
<asrwt>0</asrwt>
<pdfrwt beam="1">  1       21 0.35896073E-02 0.30000000E+03</pdfrwt>
<pdfrwt beam="2">0</pdfrwt>
<totfact> 0.50434220E+04</totfact>
</mgrwt>
</event>
<event>
 6    1  0.1270461E-001  0.3000000E+03  0.7818608E-02  0.1093470E+00
         21   -1    0    0  501  502  0.00000000000E+00  0.00000000000E+00  0.13892064866E+01  0.13892064866E+01  0.00000000000E+00 0. -1.
         13   -1    0    0    0    0 -0.00000000000E+00 -0.00000000000E+00 -0.10000000000E+04  0.10000000000E+04  0.00000000000E+00 0.  1.
    9000005    2    1    2  501    0 -0.17850285269E+02 -0.32610173052E+02 -0.48222172626E+03  0.48366367606E+03  0.32714213310E+01 0.  0.
         13    1    3    3    0    0 -0.14114035322E+02 -0.24024546290E+02 -0.37512770163E+03  0.37616110557E+03  0.00000000000E+00 0.  1.
          1    1    3    3  501    0 -0.37362499479E+01 -0.85856267622E+01 -0.10709402463E+03  0.10750257049E+03  0.00000000000E+00 0.  1.
         -1    1    1    2    0  502  0.17850285269E+02  0.32610173052E+02 -0.51638906726E+03  0.51772553043E+03  0.00000000000E+00 0. -1.
<mgrwt>
<rscale>  1 0.30000000E+03</rscale>
<asrwt>0</asrwt>
<pdfrwt beam="1">  1       21 0.50516706E-02 0.30000000E+03</pdfrwt>
<pdfrwt beam="2">0</pdfrwt>
<totfact> 0.28304083E+04</totfact>
</mgrwt>
</event>
<event>
 6    1  0.1270461E-001  0.3000000E+03  0.7818608E-02  0.1093470E+00
         21   -1    0    0  501  502  0.00000000000E+00  0.00000000000E+00  0.20320537546E+01  0.20320537546E+01  0.00000000000E+00 0. -1.
         13   -1    0    0    0    0 -0.00000000000E+00 -0.00000000000E+00 -0.10000000000E+04  0.10000000000E+04  0.00000000000E+00 0.  1.
    9000005    2    1    2  501    0  0.26873607854E+02 -0.28832776088E+02 -0.74126570832E+03  0.74232152503E+03  0.35883716938E+01 0.  0.
         13    1    3    3    0    0  0.32586402526E+01 -0.21390867176E+01 -0.83586983044E+02  0.83677823602E+02  0.00000000000E+00 0.  1.
          3    1    3    3  501    0  0.23614967601E+02 -0.26693689370E+02 -0.65767872528E+03  0.65864370143E+03  0.00000000000E+00 0.  1.
         -3    1    1    2    0  502 -0.26873607854E+02  0.28832776088E+02 -0.25670223792E+03  0.25971052873E+03  0.00000000000E+00 0. -1.
<mgrwt>
<rscale>  1 0.30000000E+03</rscale>
<asrwt>0</asrwt>
<pdfrwt beam="1">  1       21 0.73893020E-02 0.30000000E+03</pdfrwt>
<pdfrwt beam="2">0</pdfrwt>
<totfact> 0.14681589E+04</totfact>
</mgrwt>
</event>
<event>
 6    1  0.1270461E-001  0.3000000E+03  0.7818608E-02  0.1093470E+00
         21   -1    0    0  501  502  0.00000000000E+00  0.00000000000E+00  0.23880181216E+01  0.23880181216E+01  0.00000000000E+00 0. -1.
         13   -1    0    0    0    0 -0.00000000000E+00 -0.00000000000E+00 -0.10000000000E+04  0.10000000000E+04  0.00000000000E+00 0.  1.
    9000005    2    1    2  501    0  0.12501660114E+02  0.33063590225E+02 -0.84458832040E+03  0.84533473583E+03  0.34485000115E+01 0.  0.
         13    1    3    3    0    0  0.93801131418E+01  0.20736665690E+02 -0.56091869328E+03  0.56138024217E+03  0.00000000000E+00 0.  1.
          1    1    3    3  501    0  0.31215469717E+01  0.12326924535E+02 -0.28366962711E+03  0.28395449366E+03  0.00000000000E+00 0.  1.
         -1    1    1    2    0  502 -0.12501660114E+02 -0.33063590225E+02 -0.15302366148E+03  0.15705328229E+03  0.00000000000E+00 0. -1.
<mgrwt>
<rscale>  1 0.30000000E+03</rscale>
<asrwt>0</asrwt>
<pdfrwt beam="1">  1       21 0.86837206E-02 0.30000000E+03</pdfrwt>
<pdfrwt beam="2">0</pdfrwt>
<totfact> 0.11056054E+04</totfact>
</mgrwt>
</event>
<event>
 6    1  0.1270461E-001  0.3000000E+03  0.7818608E-02  0.1093470E+00
         21   -1    0    0  501  502  0.00000000000E+00  0.00000000000E+00  0.18358713061E+01  0.18358713061E+01  0.00000000000E+00 0. -1.
         13   -1    0    0    0    0 -0.00000000000E+00 -0.00000000000E+00 -0.10000000000E+04  0.10000000000E+04  0.00000000000E+00 0.  1.
    9000005    2    1    2  501    0  0.38949385171E+02 -0.12998193073E+02 -0.35942875967E+03  0.36178206164E+03  0.33495099454E+01 0.  0.
         13    1    3    3    0    0  0.14304161160E+02 -0.31179850439E+01 -0.13056943189E+03  0.13138762271E+03  0.00000000000E+00 0.  1.
          1    1    3    3  501    0  0.24645224011E+02 -0.98802080288E+01 -0.22885932778E+03  0.23039443893E+03  0.00000000000E+00 0.  1.
         -1    1    1    2    0  502 -0.38949385171E+02  0.12998193073E+02 -0.63873536902E+03  0.64005380966E+03  0.00000000000E+00 0. -1.
<mgrwt>
<rscale>  1 0.30000000E+03</rscale>
<asrwt>0</asrwt>
<pdfrwt beam="1">  1       21 0.66759097E-02 0.30000000E+03</pdfrwt>
<pdfrwt beam="2">0</pdfrwt>
<totfact> 0.17520301E+04</totfact>
</mgrwt>
</event>
<event>
 6    1  0.1270461E-001  0.3000000E+03  0.7818608E-02  0.1093470E+00
         21   -1    0    0  501  502  0.00000000000E+00  0.00000000000E+00  0.18048205960E+01  0.18048205960E+01  0.00000000000E+00 0. -1.
         13   -1    0    0    0    0 -0.00000000000E+00 -0.00000000000E+00 -0.10000000000E+04  0.10000000000E+04  0.00000000000E+00 0.  1.
    9000005    2    1    2  501    0 -0.15383777815E+02  0.30900378148E+02 -0.79000409238E+03  0.79077159406E+03  0.46641175017E+01 0.  0.
         13    1    3    3    0    0 -0.51226154533E+01  0.98285297971E+01 -0.30543462866E+03  0.30563565494E+03  0.00000000000E+00 0.  1.
          3    1    3    3  501    0 -0.10261162361E+02  0.21071848351E+02 -0.48456946372E+03  0.48513593911E+03  0.00000000000E+00 0.  1.
         -3    1    1    2    0  502  0.15383777815E+02 -0.30900378148E+02 -0.20819108702E+03  0.21103322654E+03  0.00000000000E+00 0. -1.
<mgrwt>
<rscale>  1 0.30000000E+03</rscale>
<asrwt>0</asrwt>
<pdfrwt beam="1">  1       21 0.65629978E-02 0.30000000E+03</pdfrwt>
<pdfrwt beam="2">0</pdfrwt>
<totfact> 0.18046060E+04</totfact>
</mgrwt>
</event>
<event>
 6    1  0.1270461E-001  0.3000000E+03  0.7818608E-02  0.1093470E+00
         21   -1    0    0  501  502  0.00000000000E+00  0.00000000000E+00  0.13450514951E+01  0.13450514951E+01  0.00000000000E+00 0. -1.
         13   -1    0    0    0    0 -0.00000000000E+00 -0.00000000000E+00 -0.10000000000E+04  0.10000000000E+04  0.00000000000E+00 0.  1.
    9000005    2    1    2  501    0  0.31879887777E+02  0.16149604019E+02 -0.60816255893E+03  0.60922078131E+03  0.33354665757E+01 0.  0.
         13    1    3    3    0    0  0.50103056452E+01  0.13687055865E+01 -0.97486939242E+02  0.97625200847E+02  0.00000000000E+00 0.  1.
          1    1    3    3  501    0  0.26869582132E+02  0.14780898432E+02 -0.51067561969E+03  0.51159558046E+03  0.00000000000E+00 0.  1.
         -3    1    1    2    0  502 -0.31879887777E+02 -0.16149604019E+02 -0.39049238957E+03  0.39212427019E+03  0.00000000000E+00 0. -1.
<mgrwt>
<rscale>  1 0.30000000E+03</rscale>
<asrwt>0</asrwt>
<pdfrwt beam="1">  1       21 0.48911067E-02 0.30000000E+03</pdfrwt>
<pdfrwt beam="2">0</pdfrwt>
<totfact> 0.29905852E+04</totfact>
</mgrwt>
</event>
<event>
 6    1  0.1270461E-001  0.3000000E+03  0.7818608E-02  0.1093470E+00
         21   -1    0    0  501  502  0.00000000000E+00  0.00000000000E+00  0.27985273223E+01  0.27985273223E+01  0.00000000000E+00 0. -1.
         13   -1    0    0    0    0 -0.00000000000E+00 -0.00000000000E+00 -0.10000000000E+04  0.10000000000E+04  0.00000000000E+00 0.  1.
    9000005    2    1    2  501    0  0.45515258433E+02  0.24026663408E+02 -0.61297676784E+03  0.61514205167E+03  0.32103770740E+01 0.  0.
         13    1    3    3    0    0  0.37569823545E+02  0.18430616314E+02 -0.49517670651E+03  0.49694179733E+03  0.00000000000E+00 0.  1.
          3    1    3    3  501    0  0.79454348876E+01  0.55960470941E+01 -0.11780006133E+03  0.11820025435E+03  0.00000000000E+00 0.  1.
         -1    1    1    2    0  502 -0.45515258433E+02 -0.24026663408E+02 -0.38422470484E+03  0.38765647565E+03  0.00000000000E+00 0. -1.
<mgrwt>
<rscale>  1 0.30000000E+03</rscale>
<asrwt>0</asrwt>
<pdfrwt beam="1">  1       21 0.10176484E-01 0.30000000E+03</pdfrwt>
<pdfrwt beam="2">0</pdfrwt>
<totfact> 0.83382842E+03</totfact>
</mgrwt>
</event>
<event>
 6    1  0.1270461E-001  0.3000000E+03  0.7818608E-02  0.1093470E+00
         21   -1    0    0  501  502  0.00000000000E+00  0.00000000000E+00  0.48625602109E+01  0.48625602109E+01  0.00000000000E+00 0. -1.
         13   -1    0    0    0    0 -0.00000000000E+00 -0.00000000000E+00 -0.10000000000E+04  0.10000000000E+04  0.00000000000E+00 0.  1.
    9000005    2    1    2  501    0 -0.15959390866E+02 -0.44074597646E+02 -0.86944591764E+03  0.87071476465E+03  0.32749593752E+01 0.  0.
         13    1    3    3    0    0 -0.11310837968E+02 -0.32336461189E+02 -0.60837615658E+03  0.60933991308E+03  0.00000000000E+00 0.  1.
          3    1    3    3  501    0 -0.46485528982E+01 -0.11738136457E+02 -0.26106976106E+03  0.26137485157E+03  0.00000000000E+00 0.  1.
         -1    1    1    2    0  502  0.15959390866E+02  0.44074597646E+02 -0.12569152215E+03  0.13414779556E+03  0.00000000000E+00 0. -1.
<mgrwt>
<rscale>  1 0.30000000E+03</rscale>
<asrwt>0</asrwt>
<pdfrwt beam="1">  1       21 0.17682074E-01 0.30000000E+03</pdfrwt>
<pdfrwt beam="2">0</pdfrwt>
<totfact> 0.30294507E+03</totfact>
</mgrwt>
</event>
<event>
 6    1  0.1270461E-001  0.3000000E+03  0.7818608E-02  0.1093470E+00
         21   -1    0    0  501  502  0.00000000000E+00  0.00000000000E+00  0.68843881413E+01  0.68843881413E+01  0.00000000000E+00 0. -1.
         13   -1    0    0    0    0 -0.00000000000E+00 -0.00000000000E+00 -0.10000000000E+04  0.10000000000E+04  0.00000000000E+00 0.  1.
    9000005    2    1    2  501    0 -0.30341440340E+02 -0.23600830051E+02 -0.94267458174E+03  0.94346593893E+03  0.38741037785E+01 0.  0.
         13    1    3    3    0    0 -0.28442864348E+02 -0.23128926908E+02 -0.88816781885E+03  0.88892407900E+03  0.00000000000E+00 0.  1.
          1    1    3    3  501    0 -0.18985759922E+01 -0.47190314370E+00 -0.54506762891E+02  0.54541859927E+02  0.00000000000E+00 0.  1.
         -1    1    1    2    0  502  0.30341440340E+02  0.23600830051E+02 -0.50441030119E+02  0.63418449212E+02  0.00000000000E+00 0. -1.
<mgrwt>
<rscale>  1 0.30000000E+03</rscale>
<asrwt>0</asrwt>
<pdfrwt beam="1">  1       21 0.25034191E-01 0.30000000E+03</pdfrwt>
<pdfrwt beam="2">0</pdfrwt>
<totfact> 0.15554310E+03</totfact>
</mgrwt>
</event>
<event>
 6    1  0.1270461E-001  0.3000000E+03  0.7818608E-02  0.1093470E+00
         21   -1    0    0  501  502  0.00000000000E+00  0.00000000000E+00  0.23686038659E+01  0.23686038659E+01  0.00000000000E+00 0. -1.
         13   -1    0    0    0    0 -0.00000000000E+00 -0.00000000000E+00 -0.10000000000E+04  0.10000000000E+04  0.00000000000E+00 0.  1.
    9000005    2    1    2  501    0  0.25578568124E+02  0.18550991581E+02 -0.87984108218E+03  0.88041385612E+03  0.31346010978E+01 0.  0.
         13    1    3    3    0    0  0.63872731503E+01  0.35156107381E+01 -0.17711588924E+03  0.17726588785E+03  0.00000000000E+00 0.  1.
          3    1    3    3  501    0  0.19191294974E+02  0.15035380843E+02 -0.70272519294E+03  0.70314796826E+03  0.00000000000E+00 0.  1.
         -3    1    1    2    0  502 -0.25578568124E+02 -0.18550991581E+02 -0.11779031396E+03  0.12195474775E+03  0.00000000000E+00 0. -1.
<mgrwt>
<rscale>  1 0.30000000E+03</rscale>
<asrwt>0</asrwt>
<pdfrwt beam="1">  1       21 0.86131231E-02 0.30000000E+03</pdfrwt>
<pdfrwt beam="2">0</pdfrwt>
<totfact> 0.11216563E+04</totfact>
</mgrwt>
</event>
<event>
 6    1  0.1270461E-001  0.3000000E+03  0.7818608E-02  0.1093470E+00
         21   -1    0    0  501  502  0.00000000000E+00  0.00000000000E+00  0.60923923173E+01  0.60923923173E+01  0.00000000000E+00 0. -1.
         13   -1    0    0    0    0 -0.00000000000E+00 -0.00000000000E+00 -0.10000000000E+04  0.10000000000E+04  0.00000000000E+00 0.  1.
    9000005    2    1    2  501    0 -0.30069410568E+02  0.55532689351E+02 -0.79255111352E+03  0.79506517422E+03  0.18206233640E+01 0.  0.
         13    1    3    3    0    0 -0.17549650182E+02  0.32702713866E+02 -0.47686697232E+03  0.47830907059E+03  0.00000000000E+00 0.  1.
          1    1    3    3  501    0 -0.12519760386E+02  0.22829975485E+02 -0.31568414120E+03  0.31675610363E+03  0.00000000000E+00 0.  1.
         -3    1    1    2    0  502  0.30069410568E+02 -0.55532689351E+02 -0.20135649416E+03  0.21102721810E+03  0.00000000000E+00 0. -1.
<mgrwt>
<rscale>  1 0.30000000E+03</rscale>
<asrwt>0</asrwt>
<pdfrwt beam="1">  1       21 0.22154201E-01 0.30000000E+03</pdfrwt>
<pdfrwt beam="2">0</pdfrwt>
<totfact> 0.19718861E+03</totfact>
</mgrwt>
</event>
<event>
 6    1  0.1270461E-001  0.3000000E+03  0.7818608E-02  0.1093470E+00
         21   -1    0    0  501  502  0.00000000000E+00  0.00000000000E+00  0.17408925421E+01  0.17408925421E+01  0.00000000000E+00 0. -1.
         13   -1    0    0    0    0 -0.00000000000E+00 -0.00000000000E+00 -0.10000000000E+04  0.10000000000E+04  0.00000000000E+00 0.  1.
    9000005    2    1    2  501    0 -0.38143636569E+02  0.20962227947E+00 -0.68847712578E+03  0.68961935031E+03  0.10913965796E+02 0.  0.
         13    1    3    3    0    0 -0.13164606064E+02 -0.45424248209E+01 -0.20332878829E+03  0.20380514376E+03  0.00000000000E+00 0.  1.
          1    1    3    3  501    0 -0.24979030505E+02  0.47520471003E+01 -0.48514833749E+03  0.48581420655E+03  0.00000000000E+00 0.  1.
         -3    1    1    2    0  502  0.38143636569E+02 -0.20962227947E+00 -0.30978198168E+03  0.31212154223E+03  0.00000000000E+00 0. -1.
<mgrwt>
<rscale>  1 0.30000000E+03</rscale>
<asrwt>0</asrwt>
<pdfrwt beam="1">  1       21 0.63305317E-02 0.30000000E+03</pdfrwt>
<pdfrwt beam="2">0</pdfrwt>
<totfact> 0.19208210E+04</totfact>
</mgrwt>
</event>
<event>
 6    1  0.1270461E-001  0.3000000E+03  0.7818608E-02  0.1093470E+00
         21   -1    0    0  501  502  0.00000000000E+00  0.00000000000E+00  0.16388185715E+01  0.16388185715E+01  0.00000000000E+00 0. -1.
         13   -1    0    0    0    0 -0.00000000000E+00 -0.00000000000E+00 -0.10000000000E+04  0.10000000000E+04  0.00000000000E+00 0.  1.
    9000005    2    1    2  501    0  0.19582418166E+02 -0.34420379557E+02 -0.59921977945E+03  0.60053771860E+03  0.36019077584E+01 0.  0.
         13    1    3    3    0    0  0.15464887014E+02 -0.25617203204E+02 -0.47166543620E+03  0.47261367684E+03  0.00000000000E+00 0.  1.
          1    1    3    3  501    0  0.41175311517E+01 -0.88031763535E+01 -0.12755434325E+03  0.12792404176E+03  0.00000000000E+00 0.  1.
         -3    1    1    2    0  502 -0.19582418166E+02  0.34420379557E+02 -0.39914140197E+03  0.40110109997E+03  0.00000000000E+00 0. -1.
<mgrwt>
<rscale>  1 0.30000000E+03</rscale>
<asrwt>0</asrwt>
<pdfrwt beam="1">  1       21 0.59593528E-02 0.30000000E+03</pdfrwt>
<pdfrwt beam="2">0</pdfrwt>
<totfact> 0.21320117E+04</totfact>
</mgrwt>
</event>
<event>
 6    1  0.1270461E-001  0.3000000E+03  0.7818608E-02  0.1093470E+00
         21   -1    0    0  501  502  0.00000000000E+00  0.00000000000E+00  0.33552271225E+01  0.33552271225E+01  0.00000000000E+00 0. -1.
         13   -1    0    0    0    0 -0.00000000000E+00 -0.00000000000E+00 -0.10000000000E+04  0.10000000000E+04  0.00000000000E+00 0.  1.
    9000005    2    1    2  501    0  0.23272258307E+02  0.36136393658E+02 -0.83441705652E+03  0.83553011306E+03  0.33628375607E+01 0.  0.
         13    1    3    3    0    0  0.14057388214E+02  0.21812037098E+02 -0.53511782776E+03  0.53574664227E+03  0.00000000000E+00 0.  1.
          1    1    3    3  501    0  0.92148700931E+01  0.14324356560E+02 -0.29929922876E+03  0.29978347079E+03  0.00000000000E+00 0.  1.
         -1    1    1    2    0  502 -0.23272258307E+02 -0.36136393658E+02 -0.16222771636E+03  0.16782511406E+03  0.00000000000E+00 0. -1.
<mgrwt>
<rscale>  1 0.30000000E+03</rscale>
<asrwt>0</asrwt>
<pdfrwt beam="1">  1       21 0.12200852E-01 0.30000000E+03</pdfrwt>
<pdfrwt beam="2">0</pdfrwt>
<totfact> 0.60130306E+03</totfact>
</mgrwt>
</event>
<event>
 6    1  0.1270461E-001  0.3000000E+03  0.7818608E-02  0.1093470E+00
         21   -1    0    0  501  502  0.00000000000E+00  0.00000000000E+00  0.11137449133E+01  0.11137449133E+01  0.00000000000E+00 0. -1.
         13   -1    0    0    0    0 -0.00000000000E+00 -0.00000000000E+00 -0.10000000000E+04  0.10000000000E+04  0.00000000000E+00 0.  1.
    9000005    2    1    2  501    0  0.31217354435E+02  0.61911937178E+01 -0.64679222275E+03  0.64758430950E+03  0.35219882584E+01 0.  0.
         13    1    3    3    0    0  0.67795976821E+01  0.18865482330E+01 -0.17238714163E+03  0.17253071787E+03  0.00000000000E+00 0.  1.
          3    1    3    3  501    0  0.24437756753E+02  0.43046454848E+01 -0.47440508112E+03  0.47505359163E+03  0.00000000000E+00 0.  1.
         -3    1    1    2    0  502 -0.31217354435E+02 -0.61911937178E+01 -0.35209403233E+03  0.35352943541E+03  0.00000000000E+00 0. -1.
<mgrwt>
<rscale>  1 0.30000000E+03</rscale>
<asrwt>0</asrwt>
<pdfrwt beam="1">  1       21 0.40499900E-02 0.30000000E+03</pdfrwt>
<pdfrwt beam="2">0</pdfrwt>
<totfact> 0.41176730E+04</totfact>
</mgrwt>
</event>
<event>
 6    1  0.1270461E-001  0.3000000E+03  0.7818608E-02  0.1093470E+00
         21   -1    0    0  501  502  0.00000000000E+00  0.00000000000E+00  0.11638160113E+01  0.11638160113E+01  0.00000000000E+00 0. -1.
         13   -1    0    0    0    0 -0.00000000000E+00 -0.00000000000E+00 -0.10000000000E+04  0.10000000000E+04  0.00000000000E+00 0.  1.
    9000005    2    1    2  501    0  0.55738804048E+01 -0.29937972344E+02 -0.72335738965E+03  0.72400697149E+03  0.35820782079E+01 0.  0.
         13    1    3    3    0    0  0.10616232157E+01 -0.21421147982E+01 -0.42083712352E+02  0.42151566340E+02  0.00000000000E+00 0.  1.
          1    1    3    3  501    0  0.45122571892E+01 -0.27795857545E+02 -0.68127367730E+03  0.68185540515E+03  0.00000000000E+00 0.  1.
         -1    1    1    2    0  502 -0.55738804048E+01  0.29937972344E+02 -0.27547879434E+03  0.27715684452E+03  0.00000000000E+00 0. -1.
<mgrwt>
<rscale>  1 0.30000000E+03</rscale>
<asrwt>0</asrwt>
<pdfrwt beam="1">  1       21 0.42320671E-02 0.30000000E+03</pdfrwt>
<pdfrwt beam="2">0</pdfrwt>
<totfact> 0.38232126E+04</totfact>
</mgrwt>
</event>
<event>
 6    1  0.1270461E-001  0.3000000E+03  0.7818608E-02  0.1093470E+00
         21   -1    0    0  501  502  0.00000000000E+00  0.00000000000E+00  0.14857849102E+01  0.14857849102E+01  0.00000000000E+00 0. -1.
         13   -1    0    0    0    0 -0.00000000000E+00 -0.00000000000E+00 -0.10000000000E+04  0.10000000000E+04  0.00000000000E+00 0.  1.
    9000005    2    1    2  501    0  0.32106868513E+02 -0.48125503425E+01 -0.76735418536E+03  0.76805705704E+03  0.50185103488E+01 0.  0.
         13    1    3    3    0    0  0.21131620816E+02 -0.51159523152E+01 -0.47668260403E+03  0.47717818826E+03  0.00000000000E+00 0.  1.
          3    1    3    3  501    0  0.10975247696E+02  0.30340197267E+00 -0.29067158133E+03  0.29087886878E+03  0.00000000000E+00 0.  1.
         -3    1    1    2    0  502 -0.32106868513E+02  0.48125503425E+01 -0.23116002973E+03  0.23342872787E+03  0.00000000000E+00 0. -1.
<mgrwt>
<rscale>  1 0.30000000E+03</rscale>
<asrwt>0</asrwt>
<pdfrwt beam="1">  1       21 0.54028656E-02 0.30000000E+03</pdfrwt>
<pdfrwt beam="2">0</pdfrwt>
<totfact> 0.25232956E+04</totfact>
</mgrwt>
</event>
<event>
 6    1  0.1270461E-001  0.3000000E+03  0.7818608E-02  0.1093470E+00
         21   -1    0    0  501  502  0.00000000000E+00  0.00000000000E+00  0.13475130571E+01  0.13475130571E+01  0.00000000000E+00 0. -1.
         13   -1    0    0    0    0 -0.00000000000E+00 -0.00000000000E+00 -0.10000000000E+04  0.10000000000E+04  0.00000000000E+00 0.  1.
    9000005    2    1    2  501    0  0.25969930856E+02  0.25637969546E+02 -0.49823479776E+03  0.49960095708E+03  0.56089055815E+01 0.  0.
         13    1    3    3    0    0  0.76070585059E+01  0.49424743620E+01 -0.14568138330E+03  0.14596355995E+03  0.00000000000E+00 0.  1.
          1    1    3    3  501    0  0.18362872351E+02  0.20695495184E+02 -0.35255341446E+03  0.35363739713E+03  0.00000000000E+00 0.  1.
         -3    1    1    2    0  502 -0.25969930856E+02 -0.25637969546E+02 -0.50041768918E+03  0.50174655598E+03  0.00000000000E+00 0. -1.
<mgrwt>
<rscale>  1 0.30000000E+03</rscale>
<asrwt>0</asrwt>
<pdfrwt beam="1">  1       21 0.49000578E-02 0.30000000E+03</pdfrwt>
<pdfrwt beam="2">0</pdfrwt>
<totfact> 0.29812875E+04</totfact>
</mgrwt>
</event>
<event>
 6    1  0.1270461E-001  0.3000000E+03  0.7818608E-02  0.1093470E+00
         21   -1    0    0  501  502  0.00000000000E+00  0.00000000000E+00  0.30866839796E+01  0.30866839796E+01  0.00000000000E+00 0. -1.
         13   -1    0    0    0    0 -0.00000000000E+00 -0.00000000000E+00 -0.10000000000E+04  0.10000000000E+04  0.00000000000E+00 0.  1.
    9000005    2    1    2  501    0 -0.48872426065E+02  0.81458044131E+01 -0.27291277720E+03  0.27739277580E+03  0.32403622067E+01 0.  0.
         13    1    3    3    0    0 -0.31610570085E+02  0.64715445289E+01 -0.17190422535E+03  0.17490617978E+03  0.00000000000E+00 0.  1.
          1    1    3    3  501    0 -0.17261855980E+02  0.16742598841E+01 -0.10100855185E+03  0.10248659602E+03  0.00000000000E+00 0.  1.
         -1    1    1    2    0  502  0.48872426065E+02 -0.81458044131E+01 -0.72400053882E+03  0.72569390818E+03  0.00000000000E+00 0. -1.
<mgrwt>
<rscale>  1 0.30000000E+03</rscale>
<asrwt>0</asrwt>
<pdfrwt beam="1">  1       21 0.11224329E-01 0.30000000E+03</pdfrwt>
<pdfrwt beam="2">0</pdfrwt>
<totfact> 0.69931190E+03</totfact>
</mgrwt>
</event>
<event>
 6    1  0.1270461E-001  0.3000000E+03  0.7818608E-02  0.1093470E+00
         21   -1    0    0  501  502  0.00000000000E+00  0.00000000000E+00  0.11123934483E+02  0.11123934483E+02  0.00000000000E+00 0. -1.
         13   -1    0    0    0    0 -0.00000000000E+00 -0.00000000000E+00 -0.10000000000E+04  0.10000000000E+04  0.00000000000E+00 0.  1.
    9000005    2    1    2  501    0 -0.35229562272E+02 -0.23206912606E+02 -0.95777922276E+03  0.95871499937E+03  0.37050789118E+01 0.  0.
         13    1    3    3    0    0 -0.35128332397E+02 -0.22955599783E+02 -0.95525503214E+03  0.95617630996E+03  0.00000000000E+00 0.  1.
          3    1    3    3  501    0 -0.10122987471E+00 -0.25131282297E+00 -0.25241906157E+01  0.25386894034E+01  0.00000000000E+00 0.  1.
         -3    1    1    2    0  502  0.35229562272E+02  0.23206912606E+02 -0.31096842759E+02  0.52408935117E+02  0.00000000000E+00 0. -1.
<mgrwt>
<rscale>  1 0.30000000E+03</rscale>
<asrwt>0</asrwt>
<pdfrwt beam="1">  1       21 0.40450756E-01 0.30000000E+03</pdfrwt>
<pdfrwt beam="2">0</pdfrwt>
<totfact> 0.59003590E+02</totfact>
</mgrwt>
</event>
<event>
 6    1  0.1270461E-001  0.3000000E+03  0.7818608E-02  0.1093470E+00
         21   -1    0    0  501  502  0.00000000000E+00  0.00000000000E+00  0.31442628336E+01  0.31442628336E+01  0.00000000000E+00 0. -1.
         13   -1    0    0    0    0 -0.00000000000E+00 -0.00000000000E+00 -0.10000000000E+04  0.10000000000E+04  0.00000000000E+00 0.  1.
    9000005    2    1    2  501    0  0.12776535891E+02  0.32748680240E+02 -0.88889368243E+03  0.88960342794E+03  0.51540664361E+01 0.  0.
         13    1    3    3    0    0  0.12523435118E+02  0.32749972036E+02 -0.88702064091E+03  0.88771336280E+03  0.00000000000E+00 0.  1.
          1    1    3    3  501    0  0.25310077244E+00 -0.12917960148E-02 -0.18730415201E+01  0.18900651327E+01  0.00000000000E+00 0.  1.
         -3    1    1    2    0  502 -0.12776535891E+02 -0.32748680240E+02 -0.10796205473E+03  0.11354083490E+03  0.00000000000E+00 0. -1.
<mgrwt>
<rscale>  1 0.30000000E+03</rscale>
<asrwt>0</asrwt>
<pdfrwt beam="1">  1       21 0.11433707E-01 0.30000000E+03</pdfrwt>
<pdfrwt beam="2">0</pdfrwt>
<totfact> 0.67638092E+03</totfact>
</mgrwt>
</event>
<event>
 6    1  0.1270461E-001  0.3000000E+03  0.7818608E-02  0.1093470E+00
         21   -1    0    0  501  502  0.00000000000E+00  0.00000000000E+00  0.29351162358E+01  0.29351162358E+01  0.00000000000E+00 0. -1.
         13   -1    0    0    0    0 -0.00000000000E+00 -0.00000000000E+00 -0.10000000000E+04  0.10000000000E+04  0.00000000000E+00 0.  1.
    9000005    2    1    2  501    0 -0.29331453780E+01  0.40291995792E+02 -0.83238850790E+03  0.83337581383E+03  0.35455204967E+01 0.  0.
         13    1    3    3    0    0 -0.14428975201E+01  0.13284438666E+02 -0.24335652023E+03  0.24372310970E+03  0.00000000000E+00 0.  1.
          3    1    3    3  501    0 -0.14902478579E+01  0.27007557125E+02 -0.58903198768E+03  0.58965270413E+03  0.00000000000E+00 0.  1.
         -3    1    1    2    0  502  0.29331453780E+01 -0.40291995792E+02 -0.16467637586E+03  0.16955930241E+03  0.00000000000E+00 0. -1.
<mgrwt>
<rscale>  1 0.30000000E+03</rscale>
<asrwt>0</asrwt>
<pdfrwt beam="1">  1       21 0.10673172E-01 0.30000000E+03</pdfrwt>
<pdfrwt beam="2">0</pdfrwt>
<totfact> 0.76559125E+03</totfact>
</mgrwt>
</event>
<event>
 6    1  0.1270461E-001  0.3000000E+03  0.7818608E-02  0.1093470E+00
         21   -1    0    0  501  502  0.00000000000E+00  0.00000000000E+00  0.25051651026E+01  0.25051651026E+01  0.00000000000E+00 0. -1.
         13   -1    0    0    0    0 -0.00000000000E+00 -0.00000000000E+00 -0.10000000000E+04  0.10000000000E+04  0.00000000000E+00 0.  1.
    9000005    2    1    2  501    0  0.37541148581E+02 -0.32467048065E+02 -0.43890302772E+03  0.44171264189E+03  0.32776844988E+01 0.  0.
         13    1    3    3    0    0  0.34021547530E+02 -0.30592017573E+02 -0.40327361647E+03  0.40586074825E+03  0.00000000000E+00 0.  1.
          1    1    3    3  501    0  0.35196010514E+01 -0.18750304915E+01 -0.35629411252E+02  0.35851893633E+02  0.00000000000E+00 0.  1.
         -1    1    1    2    0  502 -0.37541148581E+02  0.32467048065E+02 -0.55859180718E+03  0.56079252322E+03  0.00000000000E+00 0. -1.
<mgrwt>
<rscale>  1 0.30000000E+03</rscale>
<asrwt>0</asrwt>
<pdfrwt beam="1">  1       21 0.91097105E-02 0.30000000E+03</pdfrwt>
<pdfrwt beam="2">0</pdfrwt>
<totfact> 0.10157565E+04</totfact>
</mgrwt>
</event>
<event>
 6    1  0.1270461E-001  0.3000000E+03  0.7818608E-02  0.1093470E+00
         21   -1    0    0  501  502  0.00000000000E+00  0.00000000000E+00  0.49414820224E+01  0.49414820224E+01  0.00000000000E+00 0. -1.
         13   -1    0    0    0    0 -0.00000000000E+00 -0.00000000000E+00 -0.10000000000E+04  0.10000000000E+04  0.00000000000E+00 0.  1.
    9000005    2    1    2  501    0  0.15449078497E+02  0.25779321032E+02 -0.95172786111E+03  0.95220825489E+03  0.33751516615E+01 0.  0.
         13    1    3    3    0    0  0.10545502691E+01  0.54688584035E+00 -0.41079286543E+02  0.41096459011E+02  0.00000000000E+00 0.  1.
          3    1    3    3  501    0  0.14394528228E+02  0.25232435191E+02 -0.91064857456E+03  0.91111179588E+03  0.00000000000E+00 0.  1.
         -1    1    1    2    0  502 -0.15449078497E+02 -0.25779321032E+02 -0.43330656871E+02  0.52733227135E+02  0.00000000000E+00 0. -1.
<mgrwt>
<rscale>  1 0.30000000E+03</rscale>
<asrwt>0</asrwt>
<pdfrwt beam="1">  1       21 0.17969063E-01 0.30000000E+03</pdfrwt>
<pdfrwt beam="2">0</pdfrwt>
<totfact> 0.29390579E+03</totfact>
</mgrwt>
</event>
<event>
 6    1  0.1270461E-001  0.3000000E+03  0.7818608E-02  0.1093470E+00
         21   -1    0    0  501  502  0.00000000000E+00  0.00000000000E+00  0.16747895105E+01  0.16747895105E+01  0.00000000000E+00 0. -1.
         13   -1    0    0    0    0 -0.00000000000E+00 -0.00000000000E+00 -0.10000000000E+04  0.10000000000E+04  0.00000000000E+00 0.  1.
    9000005    2    1    2  501    0 -0.36484285763E+02  0.38115546168E+01 -0.71916077329E+03  0.72011056229E+03  0.46230962558E+01 0.  0.
         13    1    3    3    0    0 -0.98694041419E+01 -0.76534346803E+00 -0.17410781393E+03  0.17438899552E+03  0.00000000000E+00 0.  1.
          1    1    3    3  501    0 -0.26614881621E+02  0.45768980848E+01 -0.54505295937E+03  0.54572156677E+03  0.00000000000E+00 0.  1.
         -1    1    1    2    0  502  0.36484285763E+02 -0.38115546168E+01 -0.27916443719E+03  0.28156422722E+03  0.00000000000E+00 0. -1.
<mgrwt>
<rscale>  1 0.30000000E+03</rscale>
<asrwt>0</asrwt>
<pdfrwt beam="1">  1       21 0.60901565E-02 0.30000000E+03</pdfrwt>
<pdfrwt beam="2">0</pdfrwt>
<totfact> 0.20536415E+04</totfact>
</mgrwt>
</event>
<event>
 6    1  0.1270461E-001  0.3000000E+03  0.7818608E-02  0.1093470E+00
         21   -1    0    0  501  502  0.00000000000E+00  0.00000000000E+00  0.15880301278E+01  0.15880301278E+01  0.00000000000E+00 0. -1.
         13   -1    0    0    0    0 -0.00000000000E+00 -0.00000000000E+00 -0.10000000000E+04  0.10000000000E+04  0.00000000000E+00 0.  1.
    9000005    2    1    2  501    0 -0.19681649916E+02  0.23188731986E+02 -0.82241326880E+03  0.82298056273E+03  0.28874353450E+01 0.  0.
         13    1    3    3    0    0 -0.18426077681E+02  0.20666806994E+02 -0.75862944658E+03  0.75913455623E+03  0.00000000000E+00 0.  1.
          3    1    3    3  501    0 -0.12555722356E+01  0.25219249919E+01 -0.63783822224E+02  0.63846006491E+02  0.00000000000E+00 0.  1.
         -3    1    1    2    0  502  0.19681649916E+02 -0.23188731986E+02 -0.17599870107E+03  0.17860746740E+03  0.00000000000E+00 0. -1.
<mgrwt>
<rscale>  1 0.30000000E+03</rscale>
<asrwt>0</asrwt>
<pdfrwt beam="1">  1       21 0.57746672E-02 0.30000000E+03</pdfrwt>
<pdfrwt beam="2">0</pdfrwt>
<totfact> 0.22508579E+04</totfact>
</mgrwt>
</event>
<event>
 6    1  0.1270461E-001  0.3000000E+03  0.7818608E-02  0.1093470E+00
         21   -1    0    0  501  502  0.00000000000E+00  0.00000000000E+00  0.11453759044E+01  0.11453759044E+01  0.00000000000E+00 0. -1.
         13   -1    0    0    0    0 -0.00000000000E+00 -0.00000000000E+00 -0.10000000000E+04  0.10000000000E+04  0.00000000000E+00 0.  1.
    9000005    2    1    2  501    0  0.30194600893E+02 -0.57946880102E+01 -0.70565722465E+03  0.70634034309E+03  0.43896743047E+01 0.  0.
         13    1    3    3    0    0  0.42378320813E+01 -0.21987774492E+01 -0.91827188060E+02  0.91951217012E+02  0.00000000000E+00 0.  1.
          3    1    3    3  501    0  0.25956768812E+02 -0.35959105609E+01 -0.61383003659E+03  0.61438912608E+03  0.00000000000E+00 0.  1.
         -1    1    1    2    0  502 -0.30194600893E+02  0.57946880102E+01 -0.29319739944E+03  0.29480503281E+03  0.00000000000E+00 0. -1.
<mgrwt>
<rscale>  1 0.30000000E+03</rscale>
<asrwt>0</asrwt>
<pdfrwt beam="1">  1       21 0.41650121E-02 0.30000000E+03</pdfrwt>
<pdfrwt beam="2">0</pdfrwt>
<totfact> 0.39277250E+04</totfact>
</mgrwt>
</event>
<event>
 6    1  0.1270461E-001  0.3000000E+03  0.7818608E-02  0.1093470E+00
         21   -1    0    0  501  502  0.00000000000E+00  0.00000000000E+00  0.22637018054E+01  0.22637018054E+01  0.00000000000E+00 0. -1.
         13   -1    0    0    0    0 -0.00000000000E+00 -0.00000000000E+00 -0.10000000000E+04  0.10000000000E+04  0.00000000000E+00 0.  1.
    9000005    2    1    2  501    0 -0.31850655526E+02  0.16190962101E+02 -0.82951813955E+03  0.83029288914E+03  0.30539158547E+01 0.  0.
         13    1    3    3    0    0 -0.12472227163E+02  0.56210172202E+01 -0.28696670403E+03  0.28729260607E+03  0.00000000000E+00 0.  1.
          3    1    3    3  501    0 -0.19378428362E+02  0.10569944881E+02 -0.54255143553E+03  0.54300028307E+03  0.00000000000E+00 0.  1.
         -1    1    1    2    0  502  0.31850655526E+02 -0.16190962101E+02 -0.16821815864E+03  0.17197081266E+03  0.00000000000E+00 0. -1.
<mgrwt>
<rscale>  1 0.30000000E+03</rscale>
<asrwt>0</asrwt>
<pdfrwt beam="1">  1       21 0.82316603E-02 0.30000000E+03</pdfrwt>
<pdfrwt beam="2">0</pdfrwt>
<totfact> 0.12148661E+04</totfact>
</mgrwt>
</event>
<event>
 6    1  0.1270461E-001  0.3000000E+03  0.7818608E-02  0.1093470E+00
         21   -1    0    0  501  502  0.00000000000E+00  0.00000000000E+00  0.10353896481E+01  0.10353896481E+01  0.00000000000E+00 0. -1.
         13   -1    0    0    0    0 -0.00000000000E+00 -0.00000000000E+00 -0.10000000000E+04  0.10000000000E+04  0.00000000000E+00 0.  1.
    9000005    2    1    2  501    0  0.19291840657E+02 -0.24807881302E+02 -0.59681486802E+03  0.59765960784E+03  0.46275333232E+01 0.  0.
         13    1    3    3    0    0  0.78849947719E+01 -0.69963047835E+01 -0.21799555464E+03  0.21825027667E+03  0.00000000000E+00 0.  1.
          1    1    3    3  501    0  0.11406845885E+02 -0.17811576519E+02 -0.37881931338E+03  0.37940933117E+03  0.00000000000E+00 0.  1.
         -1    1    1    2    0  502 -0.19291840657E+02  0.24807881302E+02 -0.40214974233E+03  0.40337578181E+03  0.00000000000E+00 0. -1.
<mgrwt>
<rscale>  1 0.30000000E+03</rscale>
<asrwt>0</asrwt>
<pdfrwt beam="1">  1       21 0.37650612E-02 0.30000000E+03</pdfrwt>
<pdfrwt beam="2">0</pdfrwt>
<totfact> 0.46552845E+04</totfact>
</mgrwt>
</event>
<event>
 6    1  0.1270461E-001  0.3000000E+03  0.7818608E-02  0.1093470E+00
         21   -1    0    0  501  502  0.00000000000E+00  0.00000000000E+00  0.13619843353E+01  0.13619843353E+01  0.00000000000E+00 0. -1.
         13   -1    0    0    0    0 -0.00000000000E+00 -0.00000000000E+00 -0.10000000000E+04  0.10000000000E+04  0.00000000000E+00 0.  1.
    9000005    2    1    2  501    0  0.24571061875E+02  0.27354381608E+02 -0.47004688552E+03  0.47149352694E+03  0.31736547424E+01 0.  0.
         13    1    3    3    0    0  0.15944159992E+02  0.17761848677E+02 -0.32396165036E+03  0.32483973034E+03  0.00000000000E+00 0.  1.
          3    1    3    3  501    0  0.86269018829E+01  0.95925329316E+01 -0.14608523517E+03  0.14665379660E+03  0.00000000000E+00 0.  1.
         -1    1    1    2    0  502 -0.24571061875E+02 -0.27354381608E+02 -0.52859113014E+03  0.52986845739E+03  0.00000000000E+00 0. -1.
<mgrwt>
<rscale>  1 0.30000000E+03</rscale>
<asrwt>0</asrwt>
<pdfrwt beam="1">  1       21 0.49526808E-02 0.30000000E+03</pdfrwt>
<pdfrwt beam="2">0</pdfrwt>
<totfact> 0.29275276E+04</totfact>
</mgrwt>
</event>
<event>
 6    1  0.1270461E-001  0.3000000E+03  0.7818608E-02  0.1093470E+00
         21   -1    0    0  501  502  0.00000000000E+00  0.00000000000E+00  0.27605299639E+01  0.27605299639E+01  0.00000000000E+00 0. -1.
         13   -1    0    0    0    0 -0.00000000000E+00 -0.00000000000E+00 -0.10000000000E+04  0.10000000000E+04  0.00000000000E+00 0.  1.
    9000005    2    1    2  501    0  0.50785214868E+02  0.91252105051E+01 -0.58393876579E+03  0.58625137082E+03  0.66166522123E+01 0.  0.
         13    1    3    3    0    0  0.20014553901E+02  0.62865766775E+01 -0.25760572207E+03  0.25845852947E+03  0.00000000000E+00 0.  1.
          1    1    3    3  501    0  0.30770660967E+02  0.28386338277E+01 -0.32633304372E+03  0.32779284135E+03  0.00000000000E+00 0.  1.
         -3    1    1    2    0  502 -0.50785214868E+02 -0.91252105051E+01 -0.41330070425E+03  0.41650915914E+03  0.00000000000E+00 0. -1.
<mgrwt>
<rscale>  1 0.30000000E+03</rscale>
<asrwt>0</asrwt>
<pdfrwt beam="1">  1       21 0.10038312E-01 0.30000000E+03</pdfrwt>
<pdfrwt beam="2">0</pdfrwt>
<totfact> 0.85446088E+03</totfact>
</mgrwt>
</event>
<event>
 6    1  0.1270461E-001  0.3000000E+03  0.7818608E-02  0.1093470E+00
         21   -1    0    0  501  502  0.00000000000E+00  0.00000000000E+00  0.55192063856E+01  0.55192063856E+01  0.00000000000E+00 0. -1.
         13   -1    0    0    0    0 -0.00000000000E+00 -0.00000000000E+00 -0.10000000000E+04  0.10000000000E+04  0.00000000000E+00 0.  1.
    9000005    2    1    2  501    0  0.19402686364E+02  0.35712057237E+02 -0.91800995405E+03  0.91891894903E+03  0.42360220476E+01 0.  0.
         13    1    3    3    0    0  0.52892915783E+01  0.13855381646E+02 -0.32154257696E+03  0.32188441559E+03  0.00000000000E+00 0.  1.
          3    1    3    3  501    0  0.14113394786E+02  0.21856675592E+02 -0.59646737709E+03  0.59703453343E+03  0.00000000000E+00 0.  1.
         -1    1    1    2    0  502 -0.19402686364E+02 -0.35712057237E+02 -0.76470839567E+02  0.86600257358E+02  0.00000000000E+00 0. -1.
<mgrwt>
<rscale>  1 0.30000000E+03</rscale>
<asrwt>0</asrwt>
<pdfrwt beam="1">  1       21 0.20069884E-01 0.30000000E+03</pdfrwt>
<pdfrwt beam="2">0</pdfrwt>
<totfact> 0.23832954E+03</totfact>
</mgrwt>
</event>
<event>
 6    1  0.1270461E-001  0.3000000E+03  0.7818608E-02  0.1093470E+00
         21   -1    0    0  501  502  0.00000000000E+00  0.00000000000E+00  0.16903202291E+01  0.16903202291E+01  0.00000000000E+00 0. -1.
         13   -1    0    0    0    0 -0.00000000000E+00 -0.00000000000E+00 -0.10000000000E+04  0.10000000000E+04  0.00000000000E+00 0.  1.
    9000005    2    1    2  501    0 -0.17971761178E+02  0.36773167650E+02 -0.53707455229E+03  0.53864270617E+03  0.34117648268E+01 0.  0.
         13    1    3    3    0    0 -0.94143631749E+01  0.16290111515E+02 -0.23216218790E+03  0.23292333386E+03  0.00000000000E+00 0.  1.
          3    1    3    3  501    0 -0.85573980027E+01  0.20483056135E+02 -0.30491236439E+03  0.30571937231E+03  0.00000000000E+00 0.  1.
         -1    1    1    2    0  502  0.17971761178E+02 -0.36773167650E+02 -0.46123512748E+03  0.46304761406E+03  0.00000000000E+00 0. -1.
<mgrwt>
<rscale>  1 0.30000000E+03</rscale>
<asrwt>0</asrwt>
<pdfrwt beam="1">  1       21 0.61466320E-02 0.30000000E+03</pdfrwt>
<pdfrwt beam="2">0</pdfrwt>
<totfact> 0.20211815E+04</totfact>
</mgrwt>
</event>
<event>
 6    1  0.1270461E-001  0.3000000E+03  0.7818608E-02  0.1093470E+00
         21   -1    0    0  501  502  0.00000000000E+00  0.00000000000E+00  0.18897431614E+01  0.18897431614E+01  0.00000000000E+00 0. -1.
         13   -1    0    0    0    0 -0.00000000000E+00 -0.00000000000E+00 -0.10000000000E+04  0.10000000000E+04  0.00000000000E+00 0.  1.
    9000005    2    1    2  501    0 -0.17117290546E+02  0.32893728481E+02 -0.24252428208E+03  0.24539442642E+03  0.50396535176E+01 0.  0.
         13    1    3    3    0    0 -0.99985120647E+01  0.17276072949E+02 -0.11485611762E+03  0.11657770239E+03  0.00000000000E+00 0.  1.
          1    1    3    3  501    0 -0.71187784817E+01  0.15617655532E+02 -0.12766816446E+03  0.12881672403E+03  0.00000000000E+00 0.  1.
         -1    1    1    2    0  502  0.17117290546E+02 -0.32893728481E+02 -0.75558597476E+03  0.75649531674E+03  0.00000000000E+00 0. -1.
<mgrwt>
<rscale>  1 0.30000000E+03</rscale>
<asrwt>0</asrwt>
<pdfrwt beam="1">  1       21 0.68718078E-02 0.30000000E+03</pdfrwt>
<pdfrwt beam="2">0</pdfrwt>
<totfact> 0.16662348E+04</totfact>
</mgrwt>
</event>
<event>
 6    1  0.1270461E-001  0.3000000E+03  0.7818608E-02  0.1093470E+00
         21   -1    0    0  501  502  0.00000000000E+00  0.00000000000E+00  0.11434627823E+01  0.11434627823E+01  0.00000000000E+00 0. -1.
         13   -1    0    0    0    0 -0.00000000000E+00 -0.00000000000E+00 -0.10000000000E+04  0.10000000000E+04  0.00000000000E+00 0.  1.
    9000005    2    1    2  501    0 -0.21659304728E+01 -0.33044820985E+02 -0.58889640152E+03  0.58984799198E+03  0.50030450731E+01 0.  0.
         13    1    3    3    0    0  0.23422458209E+00 -0.56308061310E+01 -0.72402147479E+02  0.72621152555E+02  0.00000000000E+00 0.  1.
          3    1    3    3  501    0 -0.24001550549E+01 -0.27414014854E+02 -0.51649425405E+03  0.51722683942E+03  0.00000000000E+00 0.  1.
         -3    1    1    2    0  502  0.21659304728E+01  0.33044820985E+02 -0.40996013569E+03  0.41129547081E+03  0.00000000000E+00 0. -1.
<mgrwt>
<rscale>  1 0.30000000E+03</rscale>
<asrwt>0</asrwt>
<pdfrwt beam="1">  1       21 0.41580552E-02 0.30000000E+03</pdfrwt>
<pdfrwt beam="2">0</pdfrwt>
<totfact> 0.39388220E+04</totfact>
</mgrwt>
</event>
<event>
 6    1  0.1270461E-001  0.3000000E+03  0.7818608E-02  0.1093470E+00
         21   -1    0    0  501  502  0.00000000000E+00  0.00000000000E+00  0.15489172917E+01  0.15489172917E+01  0.00000000000E+00 0. -1.
         13   -1    0    0    0    0 -0.00000000000E+00 -0.00000000000E+00 -0.10000000000E+04  0.10000000000E+04  0.00000000000E+00 0.  1.
    9000005    2    1    2  501    0 -0.27969006222E+02  0.17415885297E+02 -0.77240281006E+03  0.77311205525E+03  0.32512494730E+01 0.  0.
         13    1    3    3    0    0 -0.15198037443E+02  0.97766345853E+01 -0.46050384812E+03  0.46085828306E+03  0.00000000000E+00 0.  1.
          1    1    3    3  501    0 -0.12770968779E+02  0.76392507118E+01 -0.31189896193E+03  0.31225377219E+03  0.00000000000E+00 0.  1.
         -3    1    1    2    0  502  0.27969006222E+02 -0.17415885297E+02 -0.22604827265E+03  0.22843686204E+03  0.00000000000E+00 0. -1.
<mgrwt>
<rscale>  1 0.30000000E+03</rscale>
<asrwt>0</asrwt>
<pdfrwt beam="1">  1       21 0.56324384E-02 0.30000000E+03</pdfrwt>
<pdfrwt beam="2">0</pdfrwt>
<totfact> 0.23494840E+04</totfact>
</mgrwt>
</event>
<event>
 6    1  0.1270461E-001  0.3000000E+03  0.7818608E-02  0.1093470E+00
         21   -1    0    0  501  502  0.00000000000E+00  0.00000000000E+00  0.10388485786E+01  0.10388485786E+01  0.00000000000E+00 0. -1.
         13   -1    0    0    0    0 -0.00000000000E+00 -0.00000000000E+00 -0.10000000000E+04  0.10000000000E+04  0.00000000000E+00 0.  1.
    9000005    2    1    2  501    0  0.85111104880E+01 -0.29068953366E+02 -0.66839970133E+03  0.66909259489E+03  0.30490566914E+01 0.  0.
         13    1    3    3    0    0  0.53683930939E+01 -0.19218436253E+02 -0.40791252277E+03  0.40840028669E+03  0.00000000000E+00 0.  1.
          1    1    3    3  501    0  0.31427173941E+01 -0.98505171127E+01 -0.26048717856E+03  0.26069230820E+03  0.00000000000E+00 0.  1.
         -1    1    1    2    0  502 -0.85111104880E+01  0.29068953366E+02 -0.33056145009E+03  0.33194625368E+03  0.00000000000E+00 0. -1.
<mgrwt>
<rscale>  1 0.30000000E+03</rscale>
<asrwt>0</asrwt>
<pdfrwt beam="1">  1       21 0.37776392E-02 0.30000000E+03</pdfrwt>
<pdfrwt beam="2">0</pdfrwt>
<totfact> 0.46292793E+04</totfact>
</mgrwt>
</event>
<event>
 6    1  0.1270461E-001  0.3000000E+03  0.7818608E-02  0.1093470E+00
         21   -1    0    0  501  502  0.00000000000E+00  0.00000000000E+00  0.22420775202E+01  0.22420775202E+01  0.00000000000E+00 0. -1.
         13   -1    0    0    0    0 -0.00000000000E+00 -0.00000000000E+00 -0.10000000000E+04  0.10000000000E+04  0.00000000000E+00 0.  1.
    9000005    2    1    2  501    0  0.23460388620E+02 -0.37011195197E+02 -0.68781081640E+03  0.68921264285E+03  0.31826876038E+01 0.  0.
         13    1    3    3    0    0  0.66984233857E+01 -0.90582037270E+01 -0.15949544844E+03  0.15989283287E+03  0.00000000000E+00 0.  1.
          3    1    3    3  501    0  0.16761965234E+02 -0.27952991470E+02 -0.52831536796E+03  0.52931980998E+03  0.00000000000E+00 0.  1.
         -1    1    1    2    0  502 -0.23460388620E+02  0.37011195197E+02 -0.30994710608E+03  0.31302943467E+03  0.00000000000E+00 0. -1.
<mgrwt>
<rscale>  1 0.30000000E+03</rscale>
<asrwt>0</asrwt>
<pdfrwt beam="1">  1       21 0.81530264E-02 0.30000000E+03</pdfrwt>
<pdfrwt beam="2">0</pdfrwt>
<totfact> 0.12355513E+04</totfact>
</mgrwt>
</event>
<event>
 6    1  0.1270461E-001  0.3000000E+03  0.7818608E-02  0.1093470E+00
         21   -1    0    0  501  502  0.00000000000E+00  0.00000000000E+00  0.17164053864E+01  0.17164053864E+01  0.00000000000E+00 0. -1.
         13   -1    0    0    0    0 -0.00000000000E+00 -0.00000000000E+00 -0.10000000000E+04  0.10000000000E+04  0.00000000000E+00 0.  1.
    9000005    2    1    2  501    0  0.37117678028E+02 -0.16732294523E+02 -0.58914294456E+03  0.59055492466E+03  0.28316461079E+01 0.  0.
         13    1    3    3    0    0  0.67969712143E+01 -0.39037848432E+01 -0.10200147071E+03  0.10230219148E+03  0.00000000000E+00 0.  1.
          1    1    3    3  501    0  0.30320706814E+02 -0.12828509679E+02 -0.48714147385E+03  0.48825273319E+03  0.00000000000E+00 0.  1.
         -3    1    1    2    0  502 -0.37117678028E+02  0.16732294523E+02 -0.40914065006E+03  0.41116148072E+03  0.00000000000E+00 0. -1.
<mgrwt>
<rscale>  1 0.30000000E+03</rscale>
<asrwt>0</asrwt>
<pdfrwt beam="1">  1       21 0.62414873E-02 0.30000000E+03</pdfrwt>
<pdfrwt beam="2">0</pdfrwt>
<totfact> 0.19684265E+04</totfact>
</mgrwt>
</event>
<event>
 6    1  0.1270461E-001  0.3000000E+03  0.7818608E-02  0.1093470E+00
         21   -1    0    0  501  502  0.00000000000E+00  0.00000000000E+00  0.29126998020E+01  0.29126998020E+01  0.00000000000E+00 0. -1.
         13   -1    0    0    0    0 -0.00000000000E+00 -0.00000000000E+00 -0.10000000000E+04  0.10000000000E+04  0.00000000000E+00 0.  1.
    9000005    2    1    2  501    0 -0.35612945400E+02  0.93608498904E+01 -0.86314951191E+03  0.86400539789E+03  0.11060754774E+02 0.  0.
         13    1    3    3    0    0 -0.21627984970E+02  0.23167416540E+01 -0.59653998023E+03  0.59693641624E+03  0.00000000000E+00 0.  1.
          3    1    3    3  501    0 -0.13984960430E+02  0.70441082365E+01 -0.26660953168E+03  0.26706898165E+03  0.00000000000E+00 0.  1.
         -1    1    1    2    0  502  0.35612945400E+02 -0.93608498904E+01 -0.13393778829E+03  0.13890730191E+03  0.00000000000E+00 0. -1.
<mgrwt>
<rscale>  1 0.30000000E+03</rscale>
<asrwt>0</asrwt>
<pdfrwt beam="1">  1       21 0.10591658E-01 0.30000000E+03</pdfrwt>
<pdfrwt beam="2">0</pdfrwt>
<totfact> 0.77619520E+03</totfact>
</mgrwt>
</event>
<event>
 6    1  0.1270461E-001  0.3000000E+03  0.7818608E-02  0.1093470E+00
         21   -1    0    0  501  502  0.00000000000E+00  0.00000000000E+00  0.22491265125E+01  0.22491265125E+01  0.00000000000E+00 0. -1.
         13   -1    0    0    0    0 -0.00000000000E+00 -0.00000000000E+00 -0.10000000000E+04  0.10000000000E+04  0.00000000000E+00 0.  1.
    9000005    2    1    2  501    0 -0.47477064180E+00 -0.32926964529E+02 -0.85931498951E+03  0.85995048150E+03  0.28581518477E+01 0.  0.
         13    1    3    3    0    0 -0.17591467120E+00 -0.30100497655E+02 -0.80270377562E+03  0.80326796420E+03  0.00000000000E+00 0.  1.
          1    1    3    3  501    0 -0.29885597060E+00 -0.28264668739E+01 -0.56611213889E+02  0.56682517304E+02  0.00000000000E+00 0.  1.
         -3    1    1    2    0  502  0.47477064180E+00  0.32926964529E+02 -0.13843588397E+03  0.14229864501E+03  0.00000000000E+00 0. -1.
<mgrwt>
<rscale>  1 0.30000000E+03</rscale>
<asrwt>0</asrwt>
<pdfrwt beam="1">  1       21 0.81786591E-02 0.30000000E+03</pdfrwt>
<pdfrwt beam="2">0</pdfrwt>
<totfact> 0.12287495E+04</totfact>
</mgrwt>
</event>
<event>
 6    1  0.1270461E-001  0.3000000E+03  0.7818608E-02  0.1093470E+00
         21   -1    0    0  501  502  0.00000000000E+00  0.00000000000E+00  0.20044340030E+01  0.20044340030E+01  0.00000000000E+00 0. -1.
         13   -1    0    0    0    0 -0.00000000000E+00 -0.00000000000E+00 -0.10000000000E+04  0.10000000000E+04  0.00000000000E+00 0.  1.
    9000005    2    1    2  501    0  0.39987153351E+02  0.12093377924E+01 -0.72307040411E+03  0.72418384519E+03  0.33162328391E+01 0.  0.
         13    1    3    3    0    0  0.28127391890E+02 -0.66571170082E+00 -0.50809219134E+03  0.50887058104E+03  0.00000000000E+00 0.  1.
          3    1    3    3  501    0  0.11859761461E+02  0.18750494932E+01 -0.21497821277E+03  0.21531326415E+03  0.00000000000E+00 0.  1.
         -3    1    1    2    0  502 -0.39987153351E+02 -0.12093377924E+01 -0.27492516188E+03  0.27782058881E+03  0.00000000000E+00 0. -1.
<mgrwt>
<rscale>  1 0.30000000E+03</rscale>
<asrwt>0</asrwt>
<pdfrwt beam="1">  1       21 0.72888663E-02 0.30000000E+03</pdfrwt>
<pdfrwt beam="2">0</pdfrwt>
<totfact> 0.15036967E+04</totfact>
</mgrwt>
</event>
<event>
 6    1  0.1270461E-001  0.3000000E+03  0.7818608E-02  0.1093470E+00
         21   -1    0    0  501  502  0.00000000000E+00  0.00000000000E+00  0.11301672066E+01  0.11301672066E+01  0.00000000000E+00 0. -1.
         13   -1    0    0    0    0 -0.00000000000E+00 -0.00000000000E+00 -0.10000000000E+04  0.10000000000E+04  0.00000000000E+00 0.  1.
    9000005    2    1    2  501    0  0.22296450187E+02  0.22334649213E+02 -0.34760789407E+03  0.34910403194E+03  0.68124039484E+01 0.  0.
         13    1    3    3    0    0  0.59422574022E+01  0.55508412463E+01 -0.60980127198E+02  0.61519900639E+02  0.00000000000E+00 0.  1.
          3    1    3    3  501    0  0.16354192785E+02  0.16783807967E+02 -0.28662776688E+03  0.28758413130E+03  0.00000000000E+00 0.  1.
         -3    1    1    2    0  502 -0.22296450187E+02 -0.22334649213E+02 -0.65126193872E+03  0.65202613527E+03  0.00000000000E+00 0. -1.
<mgrwt>
<rscale>  1 0.30000000E+03</rscale>
<asrwt>0</asrwt>
<pdfrwt beam="1">  1       21 0.41097076E-02 0.30000000E+03</pdfrwt>
<pdfrwt beam="2">0</pdfrwt>
<totfact> 0.40173102E+04</totfact>
</mgrwt>
</event>
<event>
 6    1  0.1270461E-001  0.3000000E+03  0.7818608E-02  0.1093470E+00
         21   -1    0    0  501  502  0.00000000000E+00  0.00000000000E+00  0.10959435914E+01  0.10959435914E+01  0.00000000000E+00 0. -1.
         13   -1    0    0    0    0 -0.00000000000E+00 -0.00000000000E+00 -0.10000000000E+04  0.10000000000E+04  0.00000000000E+00 0.  1.
    9000005    2    1    2  501    0 -0.30285333316E+02 -0.60884323408E+01 -0.33113893792E+03  0.33261668147E+03  0.51565647395E+01 0.  0.
         13    1    3    3    0    0 -0.20734628953E+02 -0.49931648848E+01 -0.25064139390E+03  0.25154714244E+03  0.00000000000E+00 0.  1.
          1    1    3    3  501    0 -0.95507043626E+01 -0.10952674560E+01 -0.80497544027E+02  0.81069539033E+02  0.00000000000E+00 0.  1.
         -1    1    1    2    0  502  0.30285333316E+02  0.60884323408E+01 -0.66776511848E+03  0.66847926212E+03  0.00000000000E+00 0. -1.
<mgrwt>
<rscale>  1 0.30000000E+03</rscale>
<asrwt>0</asrwt>
<pdfrwt beam="1">  1       21 0.39852578E-02 0.30000000E+03</pdfrwt>
<pdfrwt beam="2">0</pdfrwt>
<totfact> 0.42309565E+04</totfact>
</mgrwt>
</event>
<event>
 6    1  0.1270461E-001  0.3000000E+03  0.7818608E-02  0.1093470E+00
         21   -1    0    0  501  502  0.00000000000E+00  0.00000000000E+00  0.31021268336E+01  0.31021268336E+01  0.00000000000E+00 0. -1.
         13   -1    0    0    0    0 -0.00000000000E+00 -0.00000000000E+00 -0.10000000000E+04  0.10000000000E+04  0.00000000000E+00 0.  1.
    9000005    2    1    2  501    0 -0.86363442911E+01 -0.46233160220E+02 -0.76672763038E+03  0.76817568684E+03  0.32457830536E+01 0.  0.
         13    1    3    3    0    0 -0.82478225268E+01 -0.43012046697E+02 -0.69933809613E+03  0.70070809574E+03  0.00000000000E+00 0.  1.
          1    1    3    3  501    0 -0.38852176432E+00 -0.32211135233E+01 -0.67389534258E+02  0.67467591101E+02  0.00000000000E+00 0.  1.
         -1    1    1    2    0  502  0.86363442911E+01  0.46233160220E+02 -0.23017024278E+03  0.23492643999E+03  0.00000000000E+00 0. -1.
<mgrwt>
<rscale>  1 0.30000000E+03</rscale>
<asrwt>0</asrwt>
<pdfrwt beam="1">  1       21 0.11280485E-01 0.30000000E+03</pdfrwt>
<pdfrwt beam="2">0</pdfrwt>
<totfact> 0.69304847E+03</totfact>
</mgrwt>
</event>
<event>
 6    1  0.1270461E-001  0.3000000E+03  0.7818608E-02  0.1093470E+00
         21   -1    0    0  501  502  0.00000000000E+00  0.00000000000E+00  0.17790297112E+01  0.17790297112E+01  0.00000000000E+00 0. -1.
         13   -1    0    0    0    0 -0.00000000000E+00 -0.00000000000E+00 -0.10000000000E+04  0.10000000000E+04  0.00000000000E+00 0.  1.
    9000005    2    1    2  501    0  0.31387337975E+02 -0.26778967709E+01 -0.83192128005E+03  0.83252205618E+03  0.27607436957E+01 0.  0.
         13    1    3    3    0    0  0.18069631869E+02 -0.20063806197E+00 -0.48295081568E+03  0.48328877725E+03  0.00000000000E+00 0.  1.
          1    1    3    3  501    0  0.13317706106E+02 -0.24772587089E+01 -0.34897046437E+03  0.34923327893E+03  0.00000000000E+00 0.  1.
         -3    1    1    2    0  502 -0.31387337975E+02  0.26778967709E+01 -0.16629969024E+03  0.16925697353E+03  0.00000000000E+00 0. -1.
<mgrwt>
<rscale>  1 0.30000000E+03</rscale>
<asrwt>0</asrwt>
<pdfrwt beam="1">  1       21 0.64692126E-02 0.30000000E+03</pdfrwt>
<pdfrwt beam="2">0</pdfrwt>
<totfact> 0.18501488E+04</totfact>
</mgrwt>
</event>
<event>
 6    1  0.1270461E-001  0.3000000E+03  0.7818608E-02  0.1093470E+00
         21   -1    0    0  501  502  0.00000000000E+00  0.00000000000E+00  0.18246491508E+01  0.18246491508E+01  0.00000000000E+00 0. -1.
         13   -1    0    0    0    0 -0.00000000000E+00 -0.00000000000E+00 -0.10000000000E+04  0.10000000000E+04  0.00000000000E+00 0.  1.
    9000005    2    1    2  501    0  0.26604296260E+02 -0.28823274492E+02 -0.69636208157E+03  0.69747317594E+03  0.31800592303E+01 0.  0.
         13    1    3    3    0    0  0.16754583536E+02 -0.19325520012E+02 -0.47602441611E+03  0.47671106189E+03  0.00000000000E+00 0.  1.
          3    1    3    3  501    0  0.98497127242E+01 -0.94977544799E+01 -0.22033766546E+03  0.22076211405E+03  0.00000000000E+00 0.  1.
         -3    1    1    2    0  502 -0.26604296260E+02  0.28823274492E+02 -0.30181326928E+03  0.30435147321E+03  0.00000000000E+00 0. -1.
<mgrwt>
<rscale>  1 0.30000000E+03</rscale>
<asrwt>0</asrwt>
<pdfrwt beam="1">  1       21 0.66351018E-02 0.30000000E+03</pdfrwt>
<pdfrwt beam="2">0</pdfrwt>
<totfact> 0.17707563E+04</totfact>
</mgrwt>
</event>
<event>
 6    1  0.1270461E-001  0.3000000E+03  0.7818608E-02  0.1093470E+00
         21   -1    0    0  501  502  0.00000000000E+00  0.00000000000E+00  0.51703951475E+01  0.51703951475E+01  0.00000000000E+00 0. -1.
         13   -1    0    0    0    0 -0.00000000000E+00 -0.00000000000E+00 -0.10000000000E+04  0.10000000000E+04  0.00000000000E+00 0.  1.
    9000005    2    1    2  501    0  0.34522957991E+02  0.51430666789E+02 -0.75243558555E+03  0.75498684511E+03  0.29795595400E+01 0.  0.
         13    1    3    3    0    0  0.28115395326E+02  0.42342819015E+02 -0.60326183064E+03  0.60539922868E+03  0.00000000000E+00 0.  1.
          3    1    3    3  501    0  0.64075626656E+01  0.90878477740E+01 -0.14917375491E+03  0.14958761643E+03  0.00000000000E+00 0.  1.
         -3    1    1    2    0  502 -0.34522957991E+02 -0.51430666789E+02 -0.24239401931E+03  0.25018355004E+03  0.00000000000E+00 0. -1.
<mgrwt>
<rscale>  1 0.30000000E+03</rscale>
<asrwt>0</asrwt>
<pdfrwt beam="1">  1       21 0.18801477E-01 0.30000000E+03</pdfrwt>
<pdfrwt beam="2">0</pdfrwt>
<totfact> 0.26982404E+03</totfact>
</mgrwt>
</event>
<event>
 6    1  0.1270461E-001  0.3000000E+03  0.7818608E-02  0.1093470E+00
         21   -1    0    0  501  502  0.00000000000E+00  0.00000000000E+00  0.10396740396E+01  0.10396740396E+01  0.00000000000E+00 0. -1.
         13   -1    0    0    0    0 -0.00000000000E+00 -0.00000000000E+00 -0.10000000000E+04  0.10000000000E+04  0.00000000000E+00 0.  1.
    9000005    2    1    2  501    0  0.21540491845E+02  0.23507808337E+02 -0.56555033465E+03  0.56645846137E+03  0.33760313931E+01 0.  0.
         13    1    3    3    0    0  0.91783414459E+01  0.89155832243E+01 -0.25331789490E+03  0.25364085919E+03  0.00000000000E+00 0.  1.
          3    1    3    3  501    0  0.12362150399E+02  0.14592225113E+02 -0.31223243975E+03  0.31281760218E+03  0.00000000000E+00 0.  1.
         -1    1    1    2    0  502 -0.21540491845E+02 -0.23507808337E+02 -0.43340999131E+03  0.43458121267E+03  0.00000000000E+00 0. -1.
<mgrwt>
<rscale>  1 0.30000000E+03</rscale>
<asrwt>0</asrwt>
<pdfrwt beam="1">  1       21 0.37806408E-02 0.30000000E+03</pdfrwt>
<pdfrwt beam="2">0</pdfrwt>
<totfact> 0.46231070E+04</totfact>
</mgrwt>
</event>
<event>
 6    1  0.1270461E-001  0.3000000E+03  0.7818608E-02  0.1093470E+00
         21   -1    0    0  501  502  0.00000000000E+00  0.00000000000E+00  0.26271577358E+01  0.26271577358E+01  0.00000000000E+00 0. -1.
         13   -1    0    0    0    0 -0.00000000000E+00 -0.00000000000E+00 -0.10000000000E+04  0.10000000000E+04  0.00000000000E+00 0.  1.
    9000005    2    1    2  501    0  0.88946208685E+01  0.49500037004E+02 -0.59289694309E+03  0.59503652860E+03  0.35096015541E+01 0.  0.
         13    1    3    3    0    0  0.32578386662E+01  0.19425819945E+02 -0.21246300117E+03  0.21337409135E+03  0.00000000000E+00 0.  1.
          3    1    3    3  501    0  0.56367822023E+01  0.30074217059E+02 -0.38043394192E+03  0.38166243726E+03  0.00000000000E+00 0.  1.
         -3    1    1    2    0  502 -0.88946208685E+01 -0.49500037004E+02 -0.40447589917E+03  0.40759062913E+03  0.00000000000E+00 0. -1.
<mgrwt>
<rscale>  1 0.30000000E+03</rscale>
<asrwt>0</asrwt>
<pdfrwt beam="1">  1       21 0.95533210E-02 0.30000000E+03</pdfrwt>
<pdfrwt beam="2">0</pdfrwt>
<totfact> 0.93341642E+03</totfact>
</mgrwt>
</event>
<event>
 6    1  0.1270461E-001  0.3000000E+03  0.7818608E-02  0.1093470E+00
         21   -1    0    0  501  502  0.00000000000E+00  0.00000000000E+00  0.14333107073E+01  0.14333107073E+01  0.00000000000E+00 0. -1.
         13   -1    0    0    0    0 -0.00000000000E+00 -0.00000000000E+00 -0.10000000000E+04  0.10000000000E+04  0.00000000000E+00 0.  1.
    9000005    2    1    2  501    0 -0.28124924709E+02  0.20958770179E+02 -0.68551420899E+03  0.68642198256E+03  0.38892129694E+01 0.  0.
         13    1    3    3    0    0 -0.24625977428E+02  0.16654452133E+02 -0.58465435489E+03  0.58540970630E+03  0.00000000000E+00 0.  1.
          1    1    3    3  501    0 -0.34989472809E+01  0.43043180457E+01 -0.10085985410E+03  0.10101227626E+03  0.00000000000E+00 0.  1.
         -3    1    1    2    0  502  0.28124924709E+02 -0.20958770179E+02 -0.31305248030E+03  0.31501132815E+03  0.00000000000E+00 0. -1.
<mgrwt>
<rscale>  1 0.30000000E+03</rscale>
<asrwt>0</asrwt>
<pdfrwt beam="1">  1       21 0.52120499E-02 0.30000000E+03</pdfrwt>
<pdfrwt beam="2">0</pdfrwt>
<totfact> 0.26833562E+04</totfact>
</mgrwt>
</event>
<event>
 6    1  0.1270461E-001  0.3000000E+03  0.7818608E-02  0.1093470E+00
         21   -1    0    0  501  502  0.00000000000E+00  0.00000000000E+00  0.14606300837E+01  0.14606300837E+01  0.00000000000E+00 0. -1.
         13   -1    0    0    0    0 -0.00000000000E+00 -0.00000000000E+00 -0.10000000000E+04  0.10000000000E+04  0.00000000000E+00 0.  1.
    9000005    2    1    2  501    0  0.19083815711E+02  0.31523323079E+02 -0.39370389555E+03  0.39550364896E+03  0.79036099189E+01 0.  0.
         13    1    3    3    0    0  0.14684850583E+02  0.18548215370E+02 -0.27358162154E+03  0.27460259426E+03  0.00000000000E+00 0.  1.
          1    1    3    3  501    0  0.43989651281E+01  0.12975107710E+02 -0.12012227401E+03  0.12090105470E+03  0.00000000000E+00 0.  1.
         -1    1    1    2    0  502 -0.19083815711E+02 -0.31523323079E+02 -0.60483547437E+03  0.60595698113E+03  0.00000000000E+00 0. -1.
<mgrwt>
<rscale>  1 0.30000000E+03</rscale>
<asrwt>0</asrwt>
<pdfrwt beam="1">  1       21 0.53113933E-02 0.30000000E+03</pdfrwt>
<pdfrwt beam="2">0</pdfrwt>
<totfact> 0.25981261E+04</totfact>
</mgrwt>
</event>
<event>
 6    1  0.1270461E-001  0.3000000E+03  0.7818608E-02  0.1093470E+00
         21   -1    0    0  501  502  0.00000000000E+00  0.00000000000E+00  0.15018284798E+01  0.15018284798E+01  0.00000000000E+00 0. -1.
         13   -1    0    0    0    0 -0.00000000000E+00 -0.00000000000E+00 -0.10000000000E+04  0.10000000000E+04  0.00000000000E+00 0.  1.
    9000005    2    1    2  501    0 -0.24581571029E+02 -0.17776370500E+02 -0.80926086394E+03  0.80984846544E+03  0.55801519611E+01 0.  0.
         13    1    3    3    0    0 -0.32489840803E+01 -0.49922985818E+01 -0.16768432460E+03  0.16779008213E+03  0.00000000000E+00 0.  1.
          3    1    3    3  501    0 -0.21332586949E+02 -0.12784071918E+02 -0.64157653934E+03  0.64205838332E+03  0.00000000000E+00 0.  1.
         -3    1    1    2    0  502  0.24581571029E+02  0.17776370500E+02 -0.18923730758E+03  0.19165336304E+03  0.00000000000E+00 0. -1.
<mgrwt>
<rscale>  1 0.30000000E+03</rscale>
<asrwt>0</asrwt>
<pdfrwt beam="1">  1       21 0.54612060E-02 0.30000000E+03</pdfrwt>
<pdfrwt beam="2">0</pdfrwt>
<totfact> 0.24772930E+04</totfact>
</mgrwt>
</event>
<event>
 6    1  0.1270461E-001  0.3000000E+03  0.7818608E-02  0.1093470E+00
         21   -1    0    0  501  502  0.00000000000E+00  0.00000000000E+00  0.10438821337E+01  0.10438821337E+01  0.00000000000E+00 0. -1.
         13   -1    0    0    0    0 -0.00000000000E+00 -0.00000000000E+00 -0.10000000000E+04  0.10000000000E+04  0.00000000000E+00 0.  1.
    9000005    2    1    2  501    0  0.28220982382E+02 -0.13484925204E+02 -0.62166390348E+03  0.62245745595E+03  0.30014201345E+01 0.  0.
         13    1    3    3    0    0  0.18280050671E+02 -0.72696741016E+01 -0.40127638717E+03  0.40175831953E+03  0.00000000000E+00 0.  1.
          1    1    3    3  501    0  0.99409317107E+01 -0.62152511027E+01 -0.22038751631E+03  0.22069913642E+03  0.00000000000E+00 0.  1.
         -3    1    1    2    0  502 -0.28220982382E+02  0.13484925204E+02 -0.37729221438E+03  0.37858642618E+03  0.00000000000E+00 0. -1.
<mgrwt>
<rscale>  1 0.30000000E+03</rscale>
<asrwt>0</asrwt>
<pdfrwt beam="1">  1       21 0.37959430E-02 0.30000000E+03</pdfrwt>
<pdfrwt beam="2">0</pdfrwt>
<totfact> 0.45918416E+04</totfact>
</mgrwt>
</event>
<event>
 6    1  0.1270461E-001  0.3000000E+03  0.7818608E-02  0.1093470E+00
         21   -1    0    0  501  502  0.00000000000E+00  0.00000000000E+00  0.19729391220E+01  0.19729391220E+01  0.00000000000E+00 0. -1.
         13   -1    0    0    0    0 -0.00000000000E+00 -0.00000000000E+00 -0.10000000000E+04  0.10000000000E+04  0.00000000000E+00 0.  1.
    9000005    2    1    2  501    0 -0.19301342610E+02  0.31683147143E+02 -0.77410041877E+03  0.77499385488E+03  0.27664266152E+01 0.  0.
         13    1    3    3    0    0 -0.10191963872E+02  0.17455128555E+02 -0.39388397938E+03  0.39440226527E+03  0.00000000000E+00 0.  1.
          1    1    3    3  501    0 -0.91093787376E+01  0.14228018588E+02 -0.38021643940E+03  0.38059158961E+03  0.00000000000E+00 0.  1.
         -3    1    1    2    0  502  0.19301342610E+02 -0.31683147143E+02 -0.22392664210E+03  0.22697908424E+03  0.00000000000E+00 0. -1.
<mgrwt>
<rscale>  1 0.30000000E+03</rscale>
<asrwt>0</asrwt>
<pdfrwt beam="1">  1       21 0.71743392E-02 0.30000000E+03</pdfrwt>
<pdfrwt beam="2">0</pdfrwt>
<totfact> 0.15458384E+04</totfact>
</mgrwt>
</event>
<event>
 6    1  0.1270461E-001  0.3000000E+03  0.7818608E-02  0.1093470E+00
         21   -1    0    0  501  502  0.00000000000E+00  0.00000000000E+00  0.16685047398E+01  0.16685047398E+01  0.00000000000E+00 0. -1.
         13   -1    0    0    0    0 -0.00000000000E+00 -0.00000000000E+00 -0.10000000000E+04  0.10000000000E+04  0.00000000000E+00 0.  1.
    9000005    2    1    2  501    0 -0.14049812527E+02  0.29714142344E+02 -0.79602965448E+03  0.79671396766E+03  0.30996714296E+01 0.  0.
         13    1    3    3    0    0 -0.25432456146E+01  0.49341490744E+01 -0.16442253647E+03  0.16451621326E+03  0.00000000000E+00 0.  1.
          3    1    3    3  501    0 -0.11506566913E+02  0.24779993269E+02 -0.63160711801E+03  0.63219775441E+03  0.00000000000E+00 0.  1.
         -3    1    1    2    0  502  0.14049812527E+02 -0.29714142344E+02 -0.20230184078E+03  0.20495453708E+03  0.00000000000E+00 0. -1.
<mgrwt>
<rscale>  1 0.30000000E+03</rscale>
<asrwt>0</asrwt>
<pdfrwt beam="1">  1       21 0.60673028E-02 0.30000000E+03</pdfrwt>
<pdfrwt beam="2">0</pdfrwt>
<totfact> 0.20670077E+04</totfact>
</mgrwt>
</event>
<event>
 6    1  0.1270461E-001  0.3000000E+03  0.7818608E-02  0.1093470E+00
         21   -1    0    0  501  502  0.00000000000E+00  0.00000000000E+00  0.13799832467E+01  0.13799832467E+01  0.00000000000E+00 0. -1.
         13   -1    0    0    0    0 -0.00000000000E+00 -0.00000000000E+00 -0.10000000000E+04  0.10000000000E+04  0.00000000000E+00 0.  1.
    9000005    2    1    2  501    0 -0.21770160488E+02  0.27907274726E+02 -0.64871789486E+03  0.64969226556E+03  0.35180874358E+01 0.  0.
         13    1    3    3    0    0 -0.19375274695E+02  0.25193994040E+02 -0.56078015379E+03  0.56168008642E+03  0.00000000000E+00 0.  1.
          1    1    3    3  501    0 -0.23948857937E+01  0.27132806860E+01 -0.87937741079E+02  0.88012179135E+02  0.00000000000E+00 0.  1.
         -3    1    1    2    0  502  0.21770160488E+02 -0.27907274726E+02 -0.34990212189E+03  0.35168771769E+03  0.00000000000E+00 0. -1.
<mgrwt>
<rscale>  1 0.30000000E+03</rscale>
<asrwt>0</asrwt>
<pdfrwt beam="1">  1       21 0.50181315E-02 0.30000000E+03</pdfrwt>
<pdfrwt beam="2">0</pdfrwt>
<totfact> 0.28627443E+04</totfact>
</mgrwt>
</event>
<event>
 6    1  0.1270461E-001  0.3000000E+03  0.7818608E-02  0.1093470E+00
         21   -1    0    0  501  502  0.00000000000E+00  0.00000000000E+00  0.34537346882E+01  0.34537346882E+01  0.00000000000E+00 0. -1.
         13   -1    0    0    0    0 -0.00000000000E+00 -0.00000000000E+00 -0.10000000000E+04  0.10000000000E+04  0.00000000000E+00 0.  1.
    9000005    2    1    2  501    0 -0.18904953560E+02  0.30623214508E+02 -0.89481768337E+03  0.89554690951E+03  0.32252329369E+01 0.  0.
         13    1    3    3    0    0 -0.17653132956E+02  0.29396814629E+02 -0.83553242531E+03  0.83623575597E+03  0.00000000000E+00 0.  1.
          3    1    3    3  501    0 -0.12518206033E+01  0.12263998787E+01 -0.59285258058E+02  0.59311153542E+02  0.00000000000E+00 0.  1.
         -3    1    1    2    0  502  0.18904953560E+02 -0.30623214508E+02 -0.10172858194E+03  0.10790682517E+03  0.00000000000E+00 0. -1.
<mgrwt>
<rscale>  1 0.30000000E+03</rscale>
<asrwt>0</asrwt>
<pdfrwt beam="1">  1       21 0.12559062E-01 0.30000000E+03</pdfrwt>
<pdfrwt beam="2">0</pdfrwt>
<totfact> 0.57044994E+03</totfact>
</mgrwt>
</event>
<event>
 6    1  0.1270461E-001  0.3000000E+03  0.7818608E-02  0.1093470E+00
         21   -1    0    0  501  502  0.00000000000E+00  0.00000000000E+00  0.14070303377E+01  0.14070303377E+01  0.00000000000E+00 0. -1.
         13   -1    0    0    0    0 -0.00000000000E+00 -0.00000000000E+00 -0.10000000000E+04  0.10000000000E+04  0.00000000000E+00 0.  1.
    9000005    2    1    2  501    0  0.12260632909E+02 -0.33806271144E+02 -0.37376056530E+03  0.37554065432E+03  0.63746204471E+01 0.  0.
         13    1    3    3    0    0  0.59521957340E+01 -0.24662483130E+02 -0.26807716199E+03  0.26927501089E+03  0.00000000000E+00 0.  1.
          1    1    3    3  501    0  0.63084371752E+01 -0.91437880144E+01 -0.10568340331E+03  0.10626564343E+03  0.00000000000E+00 0.  1.
         -1    1    1    2    0  502 -0.12260632909E+02  0.33806271144E+02 -0.62483240436E+03  0.62586637602E+03  0.00000000000E+00 0. -1.
<mgrwt>
<rscale>  1 0.30000000E+03</rscale>
<asrwt>0</asrwt>
<pdfrwt beam="1">  1       21 0.51164847E-02 0.30000000E+03</pdfrwt>
<pdfrwt beam="2">0</pdfrwt>
<totfact> 0.27695075E+04</totfact>
</mgrwt>
</event>
<event>
 6    1  0.1270461E-001  0.3000000E+03  0.7818608E-02  0.1093470E+00
         21   -1    0    0  501  502  0.00000000000E+00  0.00000000000E+00  0.22758740313E+01  0.22758740313E+01  0.00000000000E+00 0. -1.
         13   -1    0    0    0    0 -0.00000000000E+00 -0.00000000000E+00 -0.10000000000E+04  0.10000000000E+04  0.00000000000E+00 0.  1.
    9000005    2    1    2  501    0  0.60994589974E+01  0.40088372338E+02 -0.76230575820E+03  0.76339077848E+03  0.33362669150E+01 0.  0.
         13    1    3    3    0    0  0.29322665971E+01  0.23755833108E+02 -0.42127177151E+03  0.42195123327E+03  0.00000000000E+00 0.  1.
          3    1    3    3  501    0  0.31671924002E+01  0.16332539230E+02 -0.34103398670E+03  0.34143954520E+03  0.00000000000E+00 0.  1.
         -1    1    1    2    0  502 -0.60994589974E+01 -0.40088372338E+02 -0.23541836777E+03  0.23888509556E+03  0.00000000000E+00 0. -1.
<mgrwt>
<rscale>  1 0.30000000E+03</rscale>
<asrwt>0</asrwt>
<pdfrwt beam="1">  1       21 0.82759230E-02 0.30000000E+03</pdfrwt>
<pdfrwt beam="2">0</pdfrwt>
<totfact> 0.12034549E+04</totfact>
</mgrwt>
</event>
<event>
 6    1  0.1270461E-001  0.3000000E+03  0.7818608E-02  0.1093470E+00
         21   -1    0    0  501  502  0.00000000000E+00  0.00000000000E+00  0.13824922375E+01  0.13824922375E+01  0.00000000000E+00 0. -1.
         13   -1    0    0    0    0 -0.00000000000E+00 -0.00000000000E+00 -0.10000000000E+04  0.10000000000E+04  0.00000000000E+00 0.  1.
    9000005    2    1    2  501    0  0.32216019283E+02 -0.17435595277E+02 -0.55169858879E+03  0.55296483869E+03  0.75437436893E+01 0.  0.
         13    1    3    3    0    0  0.28975991973E+02 -0.12655991780E+02 -0.47020561117E+03  0.47126754505E+03  0.00000000000E+00 0.  1.
          3    1    3    3  501    0  0.32400273106E+01 -0.47796034966E+01 -0.81492977623E+02  0.81697293642E+02  0.00000000000E+00 0.  1.
         -3    1    1    2    0  502 -0.32216019283E+02  0.17435595277E+02 -0.44691891897E+03  0.44841765355E+03  0.00000000000E+00 0. -1.
<mgrwt>
<rscale>  1 0.30000000E+03</rscale>
<asrwt>0</asrwt>
<pdfrwt beam="1">  1       21 0.50272551E-02 0.30000000E+03</pdfrwt>
<pdfrwt beam="2">0</pdfrwt>
<totfact> 0.28538913E+04</totfact>
</mgrwt>
</event>
<event>
 6    1  0.1270461E-001  0.3000000E+03  0.7818608E-02  0.1093470E+00
         21   -1    0    0  501  502  0.00000000000E+00  0.00000000000E+00  0.43254097246E+01  0.43254097246E+01  0.00000000000E+00 0. -1.
         13   -1    0    0    0    0 -0.00000000000E+00 -0.00000000000E+00 -0.10000000000E+04  0.10000000000E+04  0.00000000000E+00 0.  1.
    9000005    2    1    2  501    0 -0.27717733107E+02  0.39240134027E+02 -0.84063704162E+03  0.84201489762E+03  0.32235416835E+01 0.  0.
         13    1    3    3    0    0 -0.62912378543E+01  0.84331478488E+01 -0.16225660524E+03  0.16259736653E+03  0.00000000000E+00 0.  1.
          1    1    3    3  501    0 -0.21426495253E+02  0.30806986179E+02 -0.67838043637E+03  0.67941753109E+03  0.00000000000E+00 0.  1.
         -3    1    1    2    0  502  0.27717733107E+02 -0.39240134027E+02 -0.15503754866E+03  0.16231051211E+03  0.00000000000E+00 0. -1.
<mgrwt>
<rscale>  1 0.30000000E+03</rscale>
<asrwt>0</asrwt>
<pdfrwt beam="1">  1       21 0.15728796E-01 0.30000000E+03</pdfrwt>
<pdfrwt beam="2">0</pdfrwt>
<totfact> 0.37708571E+03</totfact>
</mgrwt>
</event>
<event>
 6    1  0.1270461E-001  0.3000000E+03  0.7818608E-02  0.1093470E+00
         21   -1    0    0  501  502  0.00000000000E+00  0.00000000000E+00  0.41065132445E+01  0.41065132445E+01  0.00000000000E+00 0. -1.
         13   -1    0    0    0    0 -0.00000000000E+00 -0.00000000000E+00 -0.10000000000E+04  0.10000000000E+04  0.00000000000E+00 0.  1.
    9000005    2    1    2  501    0  0.39353425005E+02  0.36295772109E+02 -0.77361898287E+03  0.77547574058E+03  0.31966287031E+01 0.  0.
         13    1    3    3    0    0  0.66003999746E+01  0.75460508819E+01 -0.15407690554E+03  0.15440272337E+03  0.00000000000E+00 0.  1.
          1    1    3    3  501    0  0.32753025030E+02  0.28749721227E+02 -0.61954207733E+03  0.62107301721E+03  0.00000000000E+00 0.  1.
         -3    1    1    2    0  502 -0.39353425005E+02 -0.36295772109E+02 -0.22227450388E+03  0.22863077266E+03  0.00000000000E+00 0. -1.
<mgrwt>
<rscale>  1 0.30000000E+03</rscale>
<asrwt>0</asrwt>
<pdfrwt beam="1">  1       21 0.14932807E-01 0.30000000E+03</pdfrwt>
<pdfrwt beam="2">0</pdfrwt>
<totfact> 0.41523892E+03</totfact>
</mgrwt>
</event>
<event>
 6    1  0.1270461E-001  0.3000000E+03  0.7818608E-02  0.1093470E+00
         21   -1    0    0  501  502  0.00000000000E+00  0.00000000000E+00  0.11819956616E+01  0.11819956616E+01  0.00000000000E+00 0. -1.
         13   -1    0    0    0    0 -0.00000000000E+00 -0.00000000000E+00 -0.10000000000E+04  0.10000000000E+04  0.00000000000E+00 0.  1.
    9000005    2    1    2  501    0  0.32336329619E+02 -0.10770644588E+02 -0.45320891721E+03  0.45450940539E+03  0.43395795345E+01 0.  0.
         13    1    3    3    0    0  0.15629132243E+02 -0.74563461216E+01 -0.22337986150E+03  0.22405006002E+03  0.00000000000E+00 0.  1.
          1    1    3    3  501    0  0.16707197376E+02 -0.33142984662E+01 -0.22982905571E+03  0.23045934537E+03  0.00000000000E+00 0.  1.
         -3    1    1    2    0  502 -0.32336329619E+02  0.10770644588E+02 -0.54560908713E+03  0.54667259027E+03  0.00000000000E+00 0. -1.
<mgrwt>
<rscale>  1 0.30000000E+03</rscale>
<asrwt>0</asrwt>
<pdfrwt beam="1">  1       21 0.42981751E-02 0.30000000E+03</pdfrwt>
<pdfrwt beam="2">0</pdfrwt>
<totfact> 0.37243471E+04</totfact>
</mgrwt>
</event>
<event>
 6    1  0.1270461E-001  0.3000000E+03  0.7818608E-02  0.1093470E+00
         21   -1    0    0  501  502  0.00000000000E+00  0.00000000000E+00  0.11137681749E+01  0.11137681749E+01  0.00000000000E+00 0. -1.
         13   -1    0    0    0    0 -0.00000000000E+00 -0.00000000000E+00 -0.10000000000E+04  0.10000000000E+04  0.00000000000E+00 0.  1.
    9000005    2    1    2  501    0 -0.26988027043E+02  0.18678600626E+02 -0.41758130431E+03  0.41888300424E+03  0.34032047279E+01 0.  0.
         13    1    3    3    0    0 -0.81361588876E+01  0.43878962275E+01 -0.13231416846E+03  0.13263668381E+03  0.00000000000E+00 0.  1.
          3    1    3    3  501    0 -0.18851868156E+02  0.14290704398E+02 -0.28526713585E+03  0.28624632043E+03  0.00000000000E+00 0.  1.
         -1    1    1    2    0  502  0.26988027043E+02 -0.18678600626E+02 -0.58130492751E+03  0.58223076394E+03  0.00000000000E+00 0. -1.
<mgrwt>
<rscale>  1 0.30000000E+03</rscale>
<asrwt>0</asrwt>
<pdfrwt beam="1">  1       21 0.40500746E-02 0.30000000E+03</pdfrwt>
<pdfrwt beam="2">0</pdfrwt>
<totfact> 0.41175281E+04</totfact>
</mgrwt>
</event>
<event>
 6    1  0.1270461E-001  0.3000000E+03  0.7818608E-02  0.1093470E+00
         21   -1    0    0  501  502  0.00000000000E+00  0.00000000000E+00  0.20626623673E+01  0.20626623673E+01  0.00000000000E+00 0. -1.
         13   -1    0    0    0    0 -0.00000000000E+00 -0.00000000000E+00 -0.10000000000E+04  0.10000000000E+04  0.00000000000E+00 0.  1.
    9000005    2    1    2  501    0  0.19608645276E+02  0.24055289004E+02 -0.86414010529E+03  0.86471327110E+03  0.52691317334E+01 0.  0.
         13    1    3    3    0    0  0.16909390694E+01  0.11641452420E+01 -0.98729950946E+02  0.98751292260E+02  0.00000000000E+00 0.  1.
          1    1    3    3  501    0  0.17917706207E+02  0.22891143762E+02 -0.76541015434E+03  0.76596197884E+03  0.00000000000E+00 0.  1.
         -1    1    1    2    0  502 -0.19608645276E+02 -0.24055289004E+02 -0.13379723234E+03  0.13734939127E+03  0.00000000000E+00 0. -1.
<mgrwt>
<rscale>  1 0.30000000E+03</rscale>
<asrwt>0</asrwt>
<pdfrwt beam="1">  1       21 0.75006062E-02 0.30000000E+03</pdfrwt>
<pdfrwt beam="2">0</pdfrwt>
<totfact> 0.14302439E+04</totfact>
</mgrwt>
</event>
<event>
 6    1  0.1270461E-001  0.3000000E+03  0.7818608E-02  0.1093470E+00
         21   -1    0    0  501  502  0.00000000000E+00  0.00000000000E+00  0.15894774970E+01  0.15894774970E+01  0.00000000000E+00 0. -1.
         13   -1    0    0    0    0 -0.00000000000E+00 -0.00000000000E+00 -0.10000000000E+04  0.10000000000E+04  0.00000000000E+00 0.  1.
    9000005    2    1    2  501    0 -0.29754998884E+02  0.21186996969E+02 -0.69839575182E+03  0.69935924832E+03  0.35331649266E+01 0.  0.
         13    1    3    3    0    0 -0.23696387165E+02  0.15234624975E+02 -0.54884941636E+03  0.54957191922E+03  0.00000000000E+00 0.  1.
          1    1    3    3  501    0 -0.60586117182E+01  0.59523719942E+01 -0.14954633546E+03  0.14978732910E+03  0.00000000000E+00 0.  1.
         -1    1    1    2    0  502  0.29754998884E+02 -0.21186996969E+02 -0.30001477068E+03  0.30223022918E+03  0.00000000000E+00 0. -1.
<mgrwt>
<rscale>  1 0.30000000E+03</rscale>
<asrwt>0</asrwt>
<pdfrwt beam="1">  1       21 0.57799304E-02 0.30000000E+03</pdfrwt>
<pdfrwt beam="2">0</pdfrwt>
<totfact> 0.22473306E+04</totfact>
</mgrwt>
</event>
<event>
 6    1  0.1270461E-001  0.3000000E+03  0.7818608E-02  0.1093470E+00
         21   -1    0    0  501  502  0.00000000000E+00  0.00000000000E+00  0.16865588157E+01  0.16865588157E+01  0.00000000000E+00 0. -1.
         13   -1    0    0    0    0 -0.00000000000E+00 -0.00000000000E+00 -0.10000000000E+04  0.10000000000E+04  0.00000000000E+00 0.  1.
    9000005    2    1    2  501    0  0.32210918274E+02 -0.38100045039E+00 -0.80918284574E+03  0.80983226371E+03  0.37052784429E+01 0.  0.
         13    1    3    3    0    0  0.16161792931E+02 -0.20326759771E+01 -0.41161651935E+03  0.41193870215E+03  0.00000000000E+00 0.  1.
          3    1    3    3  501    0  0.16049125343E+02  0.16516755267E+01 -0.39756632639E+03  0.39789356156E+03  0.00000000000E+00 0.  1.
         -1    1    1    2    0  502 -0.32210918274E+02  0.38100045039E+00 -0.18913059544E+03  0.19185429510E+03  0.00000000000E+00 0. -1.
<mgrwt>
<rscale>  1 0.30000000E+03</rscale>
<asrwt>0</asrwt>
<pdfrwt beam="1">  1       21 0.61329541E-02 0.30000000E+03</pdfrwt>
<pdfrwt beam="2">0</pdfrwt>
<totfact> 0.20289695E+04</totfact>
</mgrwt>
</event>
<event>
 6    1  0.1270461E-001  0.3000000E+03  0.7818608E-02  0.1093470E+00
         21   -1    0    0  501  502  0.00000000000E+00  0.00000000000E+00  0.13220087754E+01  0.13220087754E+01  0.00000000000E+00 0. -1.
         13   -1    0    0    0    0 -0.00000000000E+00 -0.00000000000E+00 -0.10000000000E+04  0.10000000000E+04  0.00000000000E+00 0.  1.
    9000005    2    1    2  501    0  0.31518956399E+02 -0.14033143240E+02 -0.34343709585E+03  0.34517339398E+03  0.22933352956E+01 0.  0.
         13    1    3    3    0    0  0.29986969520E+02 -0.12960980284E+02 -0.32072081940E+03  0.32238028684E+03  0.00000000000E+00 0.  1.
          1    1    3    3  501    0  0.15319868791E+01 -0.10721629556E+01 -0.22716276454E+02  0.22793107141E+02  0.00000000000E+00 0.  1.
         -1    1    1    2    0  502 -0.31518956399E+02  0.14033143240E+02 -0.65524089538E+03  0.65614861479E+03  0.00000000000E+00 0. -1.
<mgrwt>
<rscale>  1 0.30000000E+03</rscale>
<asrwt>0</asrwt>
<pdfrwt beam="1">  1       21 0.48073148E-02 0.30000000E+03</pdfrwt>
<pdfrwt beam="2">0</pdfrwt>
<totfact> 0.30798633E+04</totfact>
</mgrwt>
</event>
<event>
 6    1  0.1270461E-001  0.3000000E+03  0.7818608E-02  0.1093470E+00
         21   -1    0    0  501  502  0.00000000000E+00  0.00000000000E+00  0.45358373779E+01  0.45358373779E+01  0.00000000000E+00 0. -1.
         13   -1    0    0    0    0 -0.00000000000E+00 -0.00000000000E+00 -0.10000000000E+04  0.10000000000E+04  0.00000000000E+00 0.  1.
    9000005    2    1    2  501    0  0.42921396406E+02 -0.32675545710E+02 -0.79803966497E+03  0.79987423905E+03  0.46426149698E+01 0.  0.
         13    1    3    3    0    0  0.22692943119E+02 -0.19767646564E+02 -0.46133808835E+03  0.46231867936E+03  0.00000000000E+00 0.  1.
          3    1    3    3  501    0  0.20228453287E+02 -0.12907899147E+02 -0.33670157662E+03  0.33755555969E+03  0.00000000000E+00 0.  1.
         -1    1    1    2    0  502 -0.42921396406E+02  0.32675545710E+02 -0.19742449765E+03  0.20466159833E+03  0.00000000000E+00 0. -1.
<mgrwt>
<rscale>  1 0.30000000E+03</rscale>
<asrwt>0</asrwt>
<pdfrwt beam="1">  1       21 0.16493989E-01 0.30000000E+03</pdfrwt>
<pdfrwt beam="2">0</pdfrwt>
<totfact> 0.34511802E+03</totfact>
</mgrwt>
</event>
<event>
 6    1  0.1270461E-001  0.3000000E+03  0.7818608E-02  0.1093470E+00
         21   -1    0    0  501  502  0.00000000000E+00  0.00000000000E+00  0.66059811907E+01  0.66059811907E+01  0.00000000000E+00 0. -1.
         13   -1    0    0    0    0 -0.00000000000E+00 -0.00000000000E+00 -0.10000000000E+04  0.10000000000E+04  0.00000000000E+00 0.  1.
    9000005    2    1    2  501    0 -0.50909261826E+02 -0.60206056041E+01 -0.88720303098E+03  0.88868852477E+03  0.31741541348E+01 0.  0.
         13    1    3    3    0    0 -0.19516527092E+02 -0.10103999659E+01 -0.32325937900E+03  0.32384956670E+03  0.00000000000E+00 0.  1.
          1    1    3    3  501    0 -0.31392734734E+02 -0.50102056382E+01 -0.56394365198E+03  0.56483895807E+03  0.00000000000E+00 0.  1.
         -3    1    1    2    0  502  0.50909261826E+02  0.60206056041E+01 -0.10619098783E+03  0.11791745642E+03  0.00000000000E+00 0. -1.
<mgrwt>
<rscale>  1 0.30000000E+03</rscale>
<asrwt>0</asrwt>
<pdfrwt beam="1">  1       21 0.24021800E-01 0.30000000E+03</pdfrwt>
<pdfrwt beam="2">0</pdfrwt>
<totfact> 0.16859268E+03</totfact>
</mgrwt>
</event>
<event>
 6    1  0.1270461E-001  0.3000000E+03  0.7818608E-02  0.1093470E+00
         21   -1    0    0  501  502  0.00000000000E+00  0.00000000000E+00  0.16633026888E+01  0.16633026888E+01  0.00000000000E+00 0. -1.
         13   -1    0    0    0    0 -0.00000000000E+00 -0.00000000000E+00 -0.10000000000E+04  0.10000000000E+04  0.00000000000E+00 0.  1.
    9000005    2    1    2  501    0  0.50630662778E+01 -0.35968437167E+02 -0.72638941442E+03  0.72730097331E+03  0.24002662502E+01 0.  0.
         13    1    3    3    0    0  0.54968510494E+00 -0.10072362538E+02 -0.21457365148E+03  0.21481062951E+03  0.00000000000E+00 0.  1.
          3    1    3    3  501    0  0.45133811729E+01 -0.25896074629E+02 -0.51181576294E+03  0.51249034380E+03  0.00000000000E+00 0.  1.
         -1    1    1    2    0  502 -0.50630662778E+01  0.35968437167E+02 -0.27194728289E+03  0.27436232938E+03  0.00000000000E+00 0. -1.
<mgrwt>
<rscale>  1 0.30000000E+03</rscale>
<asrwt>0</asrwt>
<pdfrwt beam="1">  1       21 0.60483862E-02 0.30000000E+03</pdfrwt>
<pdfrwt beam="2">0</pdfrwt>
<totfact> 0.20781739E+04</totfact>
</mgrwt>
</event>
<event>
 6    1  0.1270461E-001  0.3000000E+03  0.7818608E-02  0.1093470E+00
         21   -1    0    0  501  502  0.00000000000E+00  0.00000000000E+00  0.14487606326E+01  0.14487606326E+01  0.00000000000E+00 0. -1.
         13   -1    0    0    0    0 -0.00000000000E+00 -0.00000000000E+00 -0.10000000000E+04  0.10000000000E+04  0.00000000000E+00 0.  1.
    9000005    2    1    2  501    0  0.19851263122E+02 -0.26926956966E+02 -0.73730939725E+03  0.73807367880E+03  0.29110824077E+01 0.  0.
         13    1    3    3    0    0  0.12709531307E+02 -0.19227246573E+02 -0.49185697058E+03  0.49239668836E+03  0.00000000000E+00 0.  1.
          1    1    3    3  501    0  0.71417318152E+01 -0.76997103931E+01 -0.24545242667E+03  0.24567699044E+03  0.00000000000E+00 0.  1.
         -3    1    1    2    0  502 -0.19851263122E+02  0.26926956966E+02 -0.26124184212E+03  0.26337508184E+03  0.00000000000E+00 0. -1.
<mgrwt>
<rscale>  1 0.30000000E+03</rscale>
<asrwt>0</asrwt>
<pdfrwt beam="1">  1       21 0.52682316E-02 0.30000000E+03</pdfrwt>
<pdfrwt beam="2">0</pdfrwt>
<totfact> 0.26346334E+04</totfact>
</mgrwt>
</event>
<event>
 6    1  0.1270461E-001  0.3000000E+03  0.7818608E-02  0.1093470E+00
         21   -1    0    0  501  502  0.00000000000E+00  0.00000000000E+00  0.11869275513E+01  0.11869275513E+01  0.00000000000E+00 0. -1.
         13   -1    0    0    0    0 -0.00000000000E+00 -0.00000000000E+00 -0.10000000000E+04  0.10000000000E+04  0.00000000000E+00 0.  1.
    9000005    2    1    2  501    0  0.32838239318E+02 -0.10041718217E+02 -0.52312517181E+03  0.52426118398E+03  0.32645951259E+01 0.  0.
         13    1    3    3    0    0  0.31040656976E+02 -0.87110839140E+01 -0.48479941125E+03  0.48587022395E+03  0.00000000000E+00 0.  1.
          3    1    3    3  501    0  0.17975823420E+01 -0.13306343032E+01 -0.38325760555E+02  0.38390960030E+02  0.00000000000E+00 0.  1.
         -3    1    1    2    0  502 -0.32838239318E+02  0.10041718217E+02 -0.47568790064E+03  0.47692574357E+03  0.00000000000E+00 0. -1.
<mgrwt>
<rscale>  1 0.30000000E+03</rscale>
<asrwt>0</asrwt>
<pdfrwt beam="1">  1       21 0.43161093E-02 0.30000000E+03</pdfrwt>
<pdfrwt beam="2">0</pdfrwt>
<totfact> 0.36982097E+04</totfact>
</mgrwt>
</event>
<event>
 6    1  0.1270461E-001  0.3000000E+03  0.7818608E-02  0.1093470E+00
         21   -1    0    0  501  502  0.00000000000E+00  0.00000000000E+00  0.98879300359E+00  0.98879300359E+00  0.00000000000E+00 0. -1.
         13   -1    0    0    0    0 -0.00000000000E+00 -0.00000000000E+00 -0.10000000000E+04  0.10000000000E+04  0.00000000000E+00 0.  1.
    9000005    2    1    2  501    0  0.26413358469E+02  0.14256859114E+02 -0.64557738053E+03  0.64628272704E+03  0.32070994410E+01 0.  0.
         13    1    3    3    0    0  0.17255331657E+02  0.75526181887E+01 -0.40494114308E+03  0.40537898055E+03  0.00000000000E+00 0.  1.
          1    1    3    3  501    0  0.91580268125E+01  0.67042409253E+01 -0.24063623745E+03  0.24090374649E+03  0.00000000000E+00 0.  1.
         -3    1    1    2    0  502 -0.26413358469E+02 -0.14256859114E+02 -0.35343382647E+03  0.35470606596E+03  0.00000000000E+00 0. -1.
<mgrwt>
<rscale>  1 0.30000000E+03</rscale>
<asrwt>0</asrwt>
<pdfrwt beam="1">  1       21 0.35956185E-02 0.30000000E+03</pdfrwt>
<pdfrwt beam="2">0</pdfrwt>
<totfact> 0.50292914E+04</totfact>
</mgrwt>
</event>
<event>
 6    1  0.1270461E-001  0.3000000E+03  0.7818608E-02  0.1093470E+00
         21   -1    0    0  501  502  0.00000000000E+00  0.00000000000E+00  0.92985380021E+00  0.92985380021E+00  0.00000000000E+00 0. -1.
         13   -1    0    0    0    0 -0.00000000000E+00 -0.00000000000E+00 -0.10000000000E+04  0.10000000000E+04  0.00000000000E+00 0.  1.
    9000005    2    1    2  501    0 -0.67688240532E+01  0.29484794584E+02 -0.54763462691E+03  0.54848184776E+03  0.36718719686E+01 0.  0.
         13    1    3    3    0    0  0.36475848672E+00  0.11847538461E+01 -0.29312228615E+02  0.29338429352E+02  0.00000000000E+00 0.  1.
          3    1    3    3  501    0 -0.71335825399E+01  0.28300040738E+02 -0.51832239829E+03  0.51914341841E+03  0.00000000000E+00 0.  1.
         -3    1    1    2    0  502  0.67688240532E+01 -0.29484794584E+02 -0.45143551929E+03  0.45244800604E+03  0.00000000000E+00 0. -1.
<mgrwt>
<rscale>  1 0.30000000E+03</rscale>
<asrwt>0</asrwt>
<pdfrwt beam="1">  1       21 0.33812937E-02 0.30000000E+03</pdfrwt>
<pdfrwt beam="2">0</pdfrwt>
<totfact> 0.55742491E+04</totfact>
</mgrwt>
</event>
<event>
 6    1  0.1270461E-001  0.3000000E+03  0.7818608E-02  0.1093470E+00
         21   -1    0    0  501  502  0.00000000000E+00  0.00000000000E+00  0.38287177271E+01  0.38287177271E+01  0.00000000000E+00 0. -1.
         13   -1    0    0    0    0 -0.00000000000E+00 -0.00000000000E+00 -0.10000000000E+04  0.10000000000E+04  0.00000000000E+00 0.  1.
    9000005    2    1    2  501    0  0.33638179680E+02 -0.50739936501E+02 -0.58587765160E+03  0.58904331338E+03  0.36515894368E+01 0.  0.
         13    1    3    3    0    0  0.18128826089E+02 -0.26274411741E+02 -0.32376771931E+03  0.32533757102E+03  0.00000000000E+00 0.  1.
          3    1    3    3  501    0  0.15509353591E+02 -0.24465524760E+02 -0.26210993228E+03  0.26370574236E+03  0.00000000000E+00 0.  1.
         -3    1    1    2    0  502 -0.33638179680E+02  0.50739936501E+02 -0.41029363067E+03  0.41478540435E+03  0.00000000000E+00 0. -1.
<mgrwt>
<rscale>  1 0.30000000E+03</rscale>
<asrwt>0</asrwt>
<pdfrwt beam="1">  1       21 0.13922639E-01 0.30000000E+03</pdfrwt>
<pdfrwt beam="2">0</pdfrwt>
<totfact> 0.47245203E+03</totfact>
</mgrwt>
</event>
<event>
 6    1  0.1270461E-001  0.3000000E+03  0.7818608E-02  0.1093470E+00
         21   -1    0    0  501  502  0.00000000000E+00  0.00000000000E+00  0.98977867428E+00  0.98977867428E+00  0.00000000000E+00 0. -1.
         13   -1    0    0    0    0 -0.00000000000E+00 -0.00000000000E+00 -0.10000000000E+04  0.10000000000E+04  0.00000000000E+00 0.  1.
    9000005    2    1    2  501    0 -0.14485633933E+02  0.27119444642E+02 -0.60140076249E+03  0.60219336492E+03  0.29451250083E+01 0.  0.
         13    1    3    3    0    0 -0.37592151626E+01  0.78535162295E+01 -0.14654870464E+03  0.14680712601E+03  0.00000000000E+00 0.  1.
          1    1    3    3  501    0 -0.10726418770E+02  0.19265928412E+02 -0.45485205785E+03  0.45538623891E+03  0.00000000000E+00 0.  1.
         -1    1    1    2    0  502  0.14485633933E+02 -0.27119444642E+02 -0.39760945884E+03  0.39879641375E+03  0.00000000000E+00 0. -1.
<mgrwt>
<rscale>  1 0.30000000E+03</rscale>
<asrwt>0</asrwt>
<pdfrwt beam="1">  1       21 0.35992028E-02 0.30000000E+03</pdfrwt>
<pdfrwt beam="2">0</pdfrwt>
<totfact> 0.50208956E+04</totfact>
</mgrwt>
</event>
<event>
 6    1  0.1270461E-001  0.3000000E+03  0.7818608E-02  0.1093470E+00
         21   -1    0    0  501  502  0.00000000000E+00  0.00000000000E+00  0.21559167068E+01  0.21559167068E+01  0.00000000000E+00 0. -1.
         13   -1    0    0    0    0 -0.00000000000E+00 -0.00000000000E+00 -0.10000000000E+04  0.10000000000E+04  0.00000000000E+00 0.  1.
    9000005    2    1    2  501    0  0.19494316611E+01  0.37533861322E+02 -0.79287851670E+03  0.79377291712E+03  0.25516021078E+01 0.  0.
         13    1    3    3    0    0  0.75577615785E+00  0.26915894413E+02 -0.58722966528E+03  0.58784667759E+03  0.00000000000E+00 0.  1.
          1    1    3    3  501    0  0.11936555033E+01  0.10617966908E+02 -0.20564885142E+03  0.20592623953E+03  0.00000000000E+00 0.  1.
         -1    1    1    2    0  502 -0.19494316611E+01 -0.37533861322E+02 -0.20496556659E+03  0.20838299959E+03  0.00000000000E+00 0. -1.
<mgrwt>
<rscale>  1 0.30000000E+03</rscale>
<asrwt>0</asrwt>
<pdfrwt beam="1">  1       21 0.78397136E-02 0.30000000E+03</pdfrwt>
<pdfrwt beam="2">0</pdfrwt>
<totfact> 0.13235877E+04</totfact>
</mgrwt>
</event>
<event>
 6    1  0.1270461E-001  0.3000000E+03  0.7818608E-02  0.1093470E+00
         21   -1    0    0  501  502  0.00000000000E+00  0.00000000000E+00  0.13088794616E+01  0.13088794616E+01  0.00000000000E+00 0. -1.
         13   -1    0    0    0    0 -0.00000000000E+00 -0.00000000000E+00 -0.10000000000E+04  0.10000000000E+04  0.00000000000E+00 0.  1.
    9000005    2    1    2  501    0  0.12180504187E+02 -0.31061811877E+02 -0.68949854146E+03  0.69032133663E+03  0.47019455132E+01 0.  0.
         13    1    3    3    0    0  0.86586996779E+01 -0.18527879458E+02 -0.38155317155E+03  0.38210087427E+03  0.00000000000E+00 0.  1.
          3    1    3    3  501    0  0.35218045093E+01 -0.12533932420E+02 -0.30794536991E+03  0.30822046236E+03  0.00000000000E+00 0.  1.
         -3    1    1    2    0  502 -0.12180504187E+02  0.31061811877E+02 -0.30919257907E+03  0.31098754283E+03  0.00000000000E+00 0. -1.
<mgrwt>
<rscale>  1 0.30000000E+03</rscale>
<asrwt>0</asrwt>
<pdfrwt beam="1">  1       21 0.47595717E-02 0.30000000E+03</pdfrwt>
<pdfrwt beam="2">0</pdfrwt>
<totfact> 0.31326100E+04</totfact>
</mgrwt>
</event>
<event>
 6    1  0.1270461E-001  0.3000000E+03  0.7818608E-02  0.1093470E+00
         21   -1    0    0  501  502  0.00000000000E+00  0.00000000000E+00  0.13144226471E+02  0.13144226471E+02  0.00000000000E+00 0. -1.
         13   -1    0    0    0    0 -0.00000000000E+00 -0.00000000000E+00 -0.10000000000E+04  0.10000000000E+04  0.00000000000E+00 0.  1.
    9000005    2    1    2  501    0 -0.37226637675E+02  0.31424942525E+02 -0.95197796865E+03  0.95322919632E+03  0.32401153888E+01 0.  0.
         13    1    3    3    0    0 -0.23333625042E+02  0.19980756243E+02 -0.62996907519E+03  0.63071762649E+03  0.00000000000E+00 0.  1.
          1    1    3    3  501    0 -0.13893012633E+02  0.11444186282E+02 -0.32200889346E+03  0.32251156982E+03  0.00000000000E+00 0.  1.
         -3    1    1    2    0  502  0.37226637675E+02 -0.31424942525E+02 -0.34877804878E+02  0.59915030154E+02  0.00000000000E+00 0. -1.
<mgrwt>
<rscale>  1 0.30000000E+03</rscale>
<asrwt>0</asrwt>
<pdfrwt beam="1">  1       21 0.47797288E-01 0.30000000E+03</pdfrwt>
<pdfrwt beam="2">0</pdfrwt>
<totfact> 0.41409539E+02</totfact>
</mgrwt>
</event>
<event>
 6    1  0.1270461E-001  0.3000000E+03  0.7818608E-02  0.1093470E+00
         21   -1    0    0  501  502  0.00000000000E+00  0.00000000000E+00  0.14774203755E+01  0.14774203755E+01  0.00000000000E+00 0. -1.
         13   -1    0    0    0    0 -0.00000000000E+00 -0.00000000000E+00 -0.10000000000E+04  0.10000000000E+04  0.00000000000E+00 0.  1.
    9000005    2    1    2  501    0 -0.37984947798E+02 -0.40716662211E+01 -0.46342483311E+03  0.46501769863E+03  0.44101446340E+01 0.  0.
         13    1    3    3    0    0 -0.41741614871E+01 -0.12659023697E+01 -0.68204356667E+02  0.68343693208E+02  0.00000000000E+00 0.  1.
          3    1    3    3  501    0 -0.33810786311E+02 -0.28057638514E+01 -0.39522047644E+03  0.39667400542E+03  0.00000000000E+00 0.  1.
         -3    1    1    2    0  502  0.37984947798E+02  0.40716662211E+01 -0.53509774652E+03  0.53645972174E+03  0.00000000000E+00 0. -1.
<mgrwt>
<rscale>  1 0.30000000E+03</rscale>
<asrwt>0</asrwt>
<pdfrwt beam="1">  1       21 0.53724491E-02 0.30000000E+03</pdfrwt>
<pdfrwt beam="2">0</pdfrwt>
<totfact> 0.25478047E+04</totfact>
</mgrwt>
</event>
<event>
 6    1  0.1270461E-001  0.3000000E+03  0.7818608E-02  0.1093470E+00
         21   -1    0    0  501  502  0.00000000000E+00  0.00000000000E+00  0.14667221210E+01  0.14667221210E+01  0.00000000000E+00 0. -1.
         13   -1    0    0    0    0 -0.00000000000E+00 -0.00000000000E+00 -0.10000000000E+04  0.10000000000E+04  0.00000000000E+00 0.  1.
    9000005    2    1    2  501    0  0.32424099393E+02  0.67297090875E+01 -0.24973843939E+03  0.25193999054E+03  0.28034833455E+01 0.  0.
         13    1    3    3    0    0  0.23246518711E+02  0.50597696752E+01 -0.16961533532E+03  0.17127569553E+03  0.00000000000E+00 0.  1.
          1    1    3    3  501    0  0.91775806814E+01  0.16699394123E+01 -0.80123104066E+02  0.80664295014E+02  0.00000000000E+00 0.  1.
         -3    1    1    2    0  502 -0.32424099393E+02 -0.67297090875E+01 -0.74879483849E+03  0.74952673158E+03  0.00000000000E+00 0. -1.
<mgrwt>
<rscale>  1 0.30000000E+03</rscale>
<asrwt>0</asrwt>
<pdfrwt beam="1">  1       21 0.53335462E-02 0.30000000E+03</pdfrwt>
<pdfrwt beam="2">0</pdfrwt>
<totfact> 0.25796917E+04</totfact>
</mgrwt>
</event>
<event>
 6    1  0.1270461E-001  0.3000000E+03  0.7818608E-02  0.1093470E+00
         21   -1    0    0  501  502  0.00000000000E+00  0.00000000000E+00  0.20247692152E+01  0.20247692152E+01  0.00000000000E+00 0. -1.
         13   -1    0    0    0    0 -0.00000000000E+00 -0.00000000000E+00 -0.10000000000E+04  0.10000000000E+04  0.00000000000E+00 0.  1.
    9000005    2    1    2  501    0  0.30261933052E+02  0.32743764367E+02 -0.43716315499E+03  0.43944311021E+03  0.32686892360E+01 0.  0.
         13    1    3    3    0    0  0.11312441796E+02  0.13009612731E+02 -0.15444293890E+03  0.15540219670E+03  0.00000000000E+00 0.  1.
          3    1    3    3  501    0  0.18949491256E+02  0.19734151636E+02 -0.28272021609E+03  0.28404091350E+03  0.00000000000E+00 0.  1.
         -1    1    1    2    0  502 -0.30261933052E+02 -0.32743764367E+02 -0.56081207579E+03  0.56258165901E+03  0.00000000000E+00 0. -1.
<mgrwt>
<rscale>  1 0.30000000E+03</rscale>
<asrwt>0</asrwt>
<pdfrwt beam="1">  1       21 0.73628127E-02 0.30000000E+03</pdfrwt>
<pdfrwt beam="2">0</pdfrwt>
<totfact> 0.14774071E+04</totfact>
</mgrwt>
</event>
<event>
 6    1  0.1270461E-001  0.3000000E+03  0.7818608E-02  0.1093470E+00
         21   -1    0    0  501  502  0.00000000000E+00  0.00000000000E+00  0.12701059976E+01  0.12701059976E+01  0.00000000000E+00 0. -1.
         13   -1    0    0    0    0 -0.00000000000E+00 -0.00000000000E+00 -0.10000000000E+04  0.10000000000E+04  0.00000000000E+00 0.  1.
    9000005    2    1    2  501    0  0.24002801158E+02  0.18856800980E+02 -0.75679398337E+03  0.75741625989E+03  0.32471646391E+01 0.  0.
         13    1    3    3    0    0  0.19757256763E+02  0.16991559484E+02 -0.64337408433E+03  0.64390160326E+03  0.00000000000E+00 0.  1.
          3    1    3    3  501    0  0.42455443953E+01  0.18652414956E+01 -0.11341989904E+03  0.11351465663E+03  0.00000000000E+00 0.  1.
         -3    1    1    2    0  502 -0.24002801158E+02 -0.18856800980E+02 -0.24193591063E+03  0.24385384610E+03  0.00000000000E+00 0. -1.
<mgrwt>
<rscale>  1 0.30000000E+03</rscale>
<asrwt>0</asrwt>
<pdfrwt beam="1">  1       21 0.46185770E-02 0.30000000E+03</pdfrwt>
<pdfrwt beam="2">0</pdfrwt>
<totfact> 0.32969240E+04</totfact>
</mgrwt>
</event>
<event>
 6    1  0.1270461E-001  0.3000000E+03  0.7818608E-02  0.1093470E+00
         21   -1    0    0  501  502  0.00000000000E+00  0.00000000000E+00  0.15445296237E+01  0.15445296237E+01  0.00000000000E+00 0. -1.
         13   -1    0    0    0    0 -0.00000000000E+00 -0.00000000000E+00 -0.10000000000E+04  0.10000000000E+04  0.00000000000E+00 0.  1.
    9000005    2    1    2  501    0  0.35008881732E+02  0.15865119939E+02 -0.39978618049E+03  0.40164266891E+03  0.32433856058E+01 0.  0.
         13    1    3    3    0    0  0.23021820431E+02  0.11999588127E+02 -0.26366440899E+03  0.26493945516E+03  0.00000000000E+00 0.  1.
          3    1    3    3  501    0  0.11987061301E+02  0.38655318121E+01 -0.13612177149E+03  0.13670321375E+03  0.00000000000E+00 0.  1.
         -1    1    1    2    0  502 -0.35008881732E+02 -0.15865119939E+02 -0.59866928989E+03  0.59990186071E+03  0.00000000000E+00 0. -1.
<mgrwt>
<rscale>  1 0.30000000E+03</rscale>
<asrwt>0</asrwt>
<pdfrwt beam="1">  1       21 0.56164832E-02 0.30000000E+03</pdfrwt>
<pdfrwt beam="2">0</pdfrwt>
<totfact> 0.23609599E+04</totfact>
</mgrwt>
</event>
<event>
 6    1  0.1270461E-001  0.3000000E+03  0.7818608E-02  0.1093470E+00
         21   -1    0    0  501  502  0.00000000000E+00  0.00000000000E+00  0.22924635125E+01  0.22924635125E+01  0.00000000000E+00 0. -1.
         13   -1    0    0    0    0 -0.00000000000E+00 -0.00000000000E+00 -0.10000000000E+04  0.10000000000E+04  0.00000000000E+00 0.  1.
    9000005    2    1    2  501    0 -0.15344867151E+02  0.33061857429E+02 -0.82315723234E+03  0.82397712473E+03  0.46820478831E+01 0.  0.
         13    1    3    3    0    0 -0.78141997084E+01  0.19483885065E+02 -0.42692182515E+03  0.42743763087E+03  0.00000000000E+00 0.  1.
          3    1    3    3  501    0 -0.75306674422E+01  0.13577972364E+02 -0.39623540719E+03  0.39653949387E+03  0.00000000000E+00 0.  1.
         -1    1    1    2    0  502  0.15344867151E+02 -0.33061857429E+02 -0.17455030415E+03  0.17831533878E+03  0.00000000000E+00 0. -1.
<mgrwt>
<rscale>  1 0.30000000E+03</rscale>
<asrwt>0</asrwt>
<pdfrwt beam="1">  1       21 0.83362485E-02 0.30000000E+03</pdfrwt>
<pdfrwt beam="2">0</pdfrwt>
<totfact> 0.11881649E+04</totfact>
</mgrwt>
</event>
<event>
 6    1  0.1270461E-001  0.3000000E+03  0.7818608E-02  0.1093470E+00
         21   -1    0    0  501  502  0.00000000000E+00  0.00000000000E+00  0.28334313016E+01  0.28334313016E+01  0.00000000000E+00 0. -1.
         13   -1    0    0    0    0 -0.00000000000E+00 -0.00000000000E+00 -0.10000000000E+04  0.10000000000E+04  0.00000000000E+00 0.  1.
    9000005    2    1    2  501    0 -0.81880698320E+01 -0.49763245605E+02 -0.33999367022E+03  0.34372824729E+03  0.31602361568E+01 0.  0.
         13    1    3    3    0    0 -0.58129628047E+01 -0.33160090845E+02 -0.23656762661E+03  0.23895109148E+03  0.00000000000E+00 0.  1.
          3    1    3    3  501    0 -0.23751070273E+01 -0.16603154760E+02 -0.10342604361E+03  0.10477715580E+03  0.00000000000E+00 0.  1.
         -1    1    1    2    0  502  0.81880698320E+01  0.49763245605E+02 -0.65717289848E+03  0.65910518401E+03  0.00000000000E+00 0. -1.
<mgrwt>
<rscale>  1 0.30000000E+03</rscale>
<asrwt>0</asrwt>
<pdfrwt beam="1">  1       21 0.10303408E-01 0.30000000E+03</pdfrwt>
<pdfrwt beam="2">0</pdfrwt>
<totfact> 0.81553700E+03</totfact>
</mgrwt>
</event>
<event>
 6    1  0.1270461E-001  0.3000000E+03  0.7818608E-02  0.1093470E+00
         21   -1    0    0  501  502  0.00000000000E+00  0.00000000000E+00  0.72071092498E+01  0.72071092498E+01  0.00000000000E+00 0. -1.
         13   -1    0    0    0    0 -0.00000000000E+00 -0.00000000000E+00 -0.10000000000E+04  0.10000000000E+04  0.00000000000E+00 0.  1.
    9000005    2    1    2  501    0  0.37533161362E+02 -0.63597612403E+02 -0.74462983954E+03  0.74828956544E+03  0.32064485329E+01 0.  0.
         13    1    3    3    0    0  0.35853333825E+02 -0.60883490340E+02 -0.70521498042E+03  0.70874567339E+03  0.00000000000E+00 0.  1.
          3    1    3    3  501    0  0.16798275368E+01 -0.27141220624E+01 -0.39414859113E+02  0.39543892045E+02  0.00000000000E+00 0.  1.
         -3    1    1    2    0  502 -0.37533161362E+02  0.63597612403E+02 -0.24816305121E+03  0.25891754381E+03  0.00000000000E+00 0. -1.
<mgrwt>
<rscale>  1 0.30000000E+03</rscale>
<asrwt>0</asrwt>
<pdfrwt beam="1">  1       21 0.26207725E-01 0.30000000E+03</pdfrwt>
<pdfrwt beam="2">0</pdfrwt>
<totfact> 0.14215705E+03</totfact>
</mgrwt>
</event>
<event>
 6    1  0.1270461E-001  0.3000000E+03  0.7818608E-02  0.1093470E+00
         21   -1    0    0  501  502  0.00000000000E+00  0.00000000000E+00  0.12505563617E+01  0.12505563617E+01  0.00000000000E+00 0. -1.
         13   -1    0    0    0    0 -0.00000000000E+00 -0.00000000000E+00 -0.10000000000E+04  0.10000000000E+04  0.00000000000E+00 0.  1.
    9000005    2    1    2  501    0 -0.20521383564E+02  0.28580392208E+02 -0.53473278053E+03  0.53590183804E+03  0.36969498976E+01 0.  0.
         13    1    3    3    0    0 -0.11714289389E+02  0.13902367837E+02 -0.29351594016E+03  0.29407840372E+03  0.00000000000E+00 0.  1.
          1    1    3    3  501    0 -0.88070941751E+01  0.14678024370E+02 -0.24121684037E+03  0.24182343432E+03  0.00000000000E+00 0.  1.
         -3    1    1    2    0  502  0.20521383564E+02 -0.28580392208E+02 -0.46401666311E+03  0.46534871832E+03  0.00000000000E+00 0. -1.
<mgrwt>
<rscale>  1 0.30000000E+03</rscale>
<asrwt>0</asrwt>
<pdfrwt beam="1">  1       21 0.45474873E-02 0.30000000E+03</pdfrwt>
<pdfrwt beam="2">0</pdfrwt>
<totfact> 0.33849558E+04</totfact>
</mgrwt>
</event>
<event>
 6    1  0.1270461E-001  0.3000000E+03  0.7818608E-02  0.1093470E+00
         21   -1    0    0  501  502  0.00000000000E+00  0.00000000000E+00  0.13871396679E+02  0.13871396679E+02  0.00000000000E+00 0. -1.
         13   -1    0    0    0    0 -0.00000000000E+00 -0.00000000000E+00 -0.10000000000E+04  0.10000000000E+04  0.00000000000E+00 0.  1.
    9000005    2    1    2  501    0  0.92251804823E+02  0.63480470273E+02 -0.64857426797E+03  0.65822677783E+03  0.85874550760E+01 0.  0.
         13    1    3    3    0    0  0.13832524979E+02  0.80293899616E+01 -0.77605748737E+02  0.79236747078E+02  0.00000000000E+00 0.  1.
          1    1    3    3  501    0  0.78419279844E+02  0.55451080311E+02 -0.57096851923E+03  0.57899003076E+03  0.00000000000E+00 0.  1.
         -1    1    1    2    0  502 -0.92251804823E+02 -0.63480470273E+02 -0.33755433535E+03  0.35564461884E+03  0.00000000000E+00 0. -1.
<mgrwt>
<rscale>  1 0.30000000E+03</rscale>
<asrwt>0</asrwt>
<pdfrwt beam="1">  1       21 0.50441549E-01 0.30000000E+03</pdfrwt>
<pdfrwt beam="2">0</pdfrwt>
<totfact> 0.36862462E+02</totfact>
</mgrwt>
</event>
<event>
 6    1  0.1270461E-001  0.3000000E+03  0.7818608E-02  0.1093470E+00
         21   -1    0    0  501  502  0.00000000000E+00  0.00000000000E+00  0.11221638103E+01  0.11221638103E+01  0.00000000000E+00 0. -1.
         13   -1    0    0    0    0 -0.00000000000E+00 -0.00000000000E+00 -0.10000000000E+04  0.10000000000E+04  0.00000000000E+00 0.  1.
    9000005    2    1    2  501    0 -0.15491668482E+02  0.28499461441E+02 -0.39158028824E+03  0.39295892680E+03  0.54207864372E+01 0.  0.
         13    1    3    3    0    0 -0.25747674845E+01  0.17311962082E+01 -0.30475059145E+02  0.30632592084E+02  0.00000000000E+00 0.  1.
          3    1    3    3  501    0 -0.12916900998E+02  0.26768265233E+02 -0.36110522909E+03  0.36232633472E+03  0.00000000000E+00 0.  1.
         -1    1    1    2    0  502  0.15491668482E+02 -0.28499461441E+02 -0.60729754795E+03  0.60816323701E+03  0.00000000000E+00 0. -1.
<mgrwt>
<rscale>  1 0.30000000E+03</rscale>
<asrwt>0</asrwt>
<pdfrwt beam="1">  1       21 0.40806043E-02 0.30000000E+03</pdfrwt>
<pdfrwt beam="2">0</pdfrwt>
<totfact> 0.40657393E+04</totfact>
</mgrwt>
</event>
<event>
 6    1  0.1270461E-001  0.3000000E+03  0.7818608E-02  0.1093470E+00
         21   -1    0    0  501  502  0.00000000000E+00  0.00000000000E+00  0.14683727437E+01  0.14683727437E+01  0.00000000000E+00 0. -1.
         13   -1    0    0    0    0 -0.00000000000E+00 -0.00000000000E+00 -0.10000000000E+04  0.10000000000E+04  0.00000000000E+00 0.  1.
    9000005    2    1    2  501    0  0.29421597512E-01 -0.32182034363E+02 -0.77033400521E+03  0.77101265268E+03  0.32166461153E+01 0.  0.
         13    1    3    3    0    0 -0.41367071741E+00 -0.27190365626E+02 -0.62236130590E+03  0.62295512052E+03  0.00000000000E+00 0.  1.
          3    1    3    3  501    0  0.44309231492E+00 -0.49916687373E+01 -0.14797269931E+03  0.14805753216E+03  0.00000000000E+00 0.  1.
         -3    1    1    2    0  502 -0.29421597512E-01  0.32182034363E+02 -0.22819762205E+03  0.23045572006E+03  0.00000000000E+00 0. -1.
<mgrwt>
<rscale>  1 0.30000000E+03</rscale>
<asrwt>0</asrwt>
<pdfrwt beam="1">  1       21 0.53395485E-02 0.30000000E+03</pdfrwt>
<pdfrwt beam="2">0</pdfrwt>
<totfact> 0.25747318E+04</totfact>
</mgrwt>
</event>
<event>
 6    1  0.1270461E-001  0.3000000E+03  0.7818608E-02  0.1093470E+00
         21   -1    0    0  501  502  0.00000000000E+00  0.00000000000E+00  0.73562912218E+01  0.73562912218E+01  0.00000000000E+00 0. -1.
         13   -1    0    0    0    0 -0.00000000000E+00 -0.00000000000E+00 -0.10000000000E+04  0.10000000000E+04  0.00000000000E+00 0.  1.
    9000005    2    1    2  501    0 -0.18143438028E+02  0.82494407703E+02 -0.41519782867E+03  0.42376546187E+03  0.73087686178E+01 0.  0.
         13    1    3    3    0    0 -0.81181538707E+01  0.46044329455E+02 -0.24474793698E+03  0.24917370920E+03  0.00000000000E+00 0.  1.
          1    1    3    3  501    0 -0.10025284157E+02  0.36450078248E+02 -0.17044989169E+03  0.17459175268E+03  0.00000000000E+00 0.  1.
         -1    1    1    2    0  502  0.18143438028E+02 -0.82494407703E+02 -0.57744588011E+03  0.58359082935E+03  0.00000000000E+00 0. -1.
<mgrwt>
<rscale>  1 0.30000000E+03</rscale>
<asrwt>0</asrwt>
<pdfrwt beam="1">  1       21 0.26750206E-01 0.30000000E+03</pdfrwt>
<pdfrwt beam="2">0</pdfrwt>
<totfact> 0.13653007E+03</totfact>
</mgrwt>
</event>
<event>
 6    1  0.1270461E-001  0.3000000E+03  0.7818608E-02  0.1093470E+00
         21   -1    0    0  501  502  0.00000000000E+00  0.00000000000E+00  0.46501297697E+01  0.46501297697E+01  0.00000000000E+00 0. -1.
         13   -1    0    0    0    0 -0.00000000000E+00 -0.00000000000E+00 -0.10000000000E+04  0.10000000000E+04  0.00000000000E+00 0.  1.
    9000005    2    1    2  501    0  0.47496357642E+02 -0.49409787648E+01 -0.85611732566E+03  0.85745631629E+03  0.37605561287E+01 0.  0.
         13    1    3    3    0    0  0.31522082603E+02 -0.22852938099E+01 -0.53898667745E+03  0.53991249544E+03  0.00000000000E+00 0.  1.
          1    1    3    3  501    0  0.15974275039E+02 -0.26556849549E+01 -0.31713064821E+03  0.31754382085E+03  0.00000000000E+00 0.  1.
         -1    1    1    2    0  502 -0.47496357642E+02  0.49409787648E+01 -0.13923254457E+03  0.14719381348E+03  0.00000000000E+00 0. -1.
<mgrwt>
<rscale>  1 0.30000000E+03</rscale>
<asrwt>0</asrwt>
<pdfrwt beam="1">  1       21 0.16909598E-01 0.30000000E+03</pdfrwt>
<pdfrwt beam="2">0</pdfrwt>
<totfact> 0.32942474E+03</totfact>
</mgrwt>
</event>
<event>
 6    1  0.1270461E-001  0.3000000E+03  0.7818608E-02  0.1093470E+00
         21   -1    0    0  501  502  0.00000000000E+00  0.00000000000E+00  0.15737210700E+01  0.15737210700E+01  0.00000000000E+00 0. -1.
         13   -1    0    0    0    0 -0.00000000000E+00 -0.00000000000E+00 -0.10000000000E+04  0.10000000000E+04  0.00000000000E+00 0.  1.
    9000005    2    1    2  501    0  0.13827329366E+02  0.32616034496E+02 -0.72359497735E+03  0.72446860550E+03  0.31730700889E+01 0.  0.
         13    1    3    3    0    0  0.68012022515E+01  0.14869169258E+02 -0.36490453441E+03  0.36527067742E+03  0.00000000000E+00 0.  1.
          1    1    3    3  501    0  0.70261271148E+01  0.17746865238E+02 -0.35869044294E+03  0.35919792809E+03  0.00000000000E+00 0.  1.
         -1    1    1    2    0  502 -0.13827329366E+02 -0.32616034496E+02 -0.27483130158E+03  0.27710511557E+03  0.00000000000E+00 0. -1.
<mgrwt>
<rscale>  1 0.30000000E+03</rscale>
<asrwt>0</asrwt>
<pdfrwt beam="1">  1       21 0.57226341E-02 0.30000000E+03</pdfrwt>
<pdfrwt beam="2">0</pdfrwt>
<totfact> 0.22861908E+04</totfact>
</mgrwt>
</event>
<event>
 6    1  0.1270461E-001  0.3000000E+03  0.7818608E-02  0.1093470E+00
         21   -1    0    0  501  502  0.00000000000E+00  0.00000000000E+00  0.42622175074E+01  0.42622175074E+01  0.00000000000E+00 0. -1.
         13   -1    0    0    0    0 -0.00000000000E+00 -0.00000000000E+00 -0.10000000000E+04  0.10000000000E+04  0.00000000000E+00 0.  1.
    9000005    2    1    2  501    0 -0.23460153364E+02  0.45681272481E+02 -0.80743166691E+03  0.80907935295E+03  0.51327564393E+01 0.  0.
         13    1    3    3    0    0 -0.23707720687E+02  0.45056693588E+02 -0.79372857131E+03  0.79535979693E+03  0.00000000000E+00 0.  1.
          1    1    3    3  501    0  0.24756732297E+00  0.62457889283E+00 -0.13703095591E+02  0.13719556012E+02  0.00000000000E+00 0.  1.
         -3    1    1    2    0  502  0.23460153364E+02 -0.45681272481E+02 -0.18830611559E+03  0.19518286456E+03  0.00000000000E+00 0. -1.
<mgrwt>
<rscale>  1 0.30000000E+03</rscale>
<asrwt>0</asrwt>
<pdfrwt beam="1">  1       21 0.15499005E-01 0.30000000E+03</pdfrwt>
<pdfrwt beam="2">0</pdfrwt>
<totfact> 0.38755261E+03</totfact>
</mgrwt>
</event>
<event>
 6    1  0.1270461E-001  0.3000000E+03  0.7818608E-02  0.1093470E+00
         21   -1    0    0  501  502  0.00000000000E+00  0.00000000000E+00  0.15556759265E+02  0.15556759265E+02  0.00000000000E+00 0. -1.
         13   -1    0    0    0    0 -0.00000000000E+00 -0.00000000000E+00 -0.10000000000E+04  0.10000000000E+04  0.00000000000E+00 0.  1.
    9000005    2    1    2  501    0  0.48250601074E+02  0.89541590391E+01 -0.95903760798E+03  0.96029607121E+03  0.26670965519E+01 0.  0.
         13    1    3    3    0    0  0.33839430881E+02  0.61389834255E+01 -0.64781340281E+03  0.64872567319E+03  0.00000000000E+00 0.  1.
          1    1    3    3  501    0  0.14411170193E+02  0.28151756135E+01 -0.31122420517E+03  0.31157039802E+03  0.00000000000E+00 0.  1.
         -3    1    1    2    0  502 -0.48250601074E+02 -0.89541590391E+01 -0.25405632757E+02  0.55260688052E+02  0.00000000000E+00 0. -1.
<mgrwt>
<rscale>  1 0.30000000E+03</rscale>
<asrwt>0</asrwt>
<pdfrwt beam="1">  1       21 0.56570153E-01 0.30000000E+03</pdfrwt>
<pdfrwt beam="2">0</pdfrwt>
<totfact> 0.28642988E+02</totfact>
</mgrwt>
</event>
<event>
 6    1  0.1270461E-001  0.3000000E+03  0.7818608E-02  0.1093470E+00
         21   -1    0    0  501  502  0.00000000000E+00  0.00000000000E+00  0.22932570776E+01  0.22932570776E+01  0.00000000000E+00 0. -1.
         13   -1    0    0    0    0 -0.00000000000E+00 -0.00000000000E+00 -0.10000000000E+04  0.10000000000E+04  0.00000000000E+00 0.  1.
    9000005    2    1    2  501    0 -0.85134668910E+01  0.34044558372E+02 -0.83958395118E+03  0.84032311062E+03  0.31950116630E+01 0.  0.
         13    1    3    3    0    0 -0.82828184855E+01  0.32336156444E+02 -0.81156093321E+03  0.81224711782E+03  0.00000000000E+00 0.  1.
          3    1    3    3  501    0 -0.23064840553E+00  0.17084019276E+01 -0.28023017966E+02  0.28075992801E+02  0.00000000000E+00 0.  1.
         -1    1    1    2    0  502  0.85134668910E+01 -0.34044558372E+02 -0.15812279175E+03  0.16197014646E+03  0.00000000000E+00 0. -1.
<mgrwt>
<rscale>  1 0.30000000E+03</rscale>
<asrwt>0</asrwt>
<pdfrwt beam="1">  1       21 0.83391342E-02 0.30000000E+03</pdfrwt>
<pdfrwt beam="2">0</pdfrwt>
<totfact> 0.11874410E+04</totfact>
</mgrwt>
</event>
<event>
 6    1  0.1270461E-001  0.3000000E+03  0.7818608E-02  0.1093470E+00
         21   -1    0    0  501  502  0.00000000000E+00  0.00000000000E+00  0.44663079472E+01  0.44663079472E+01  0.00000000000E+00 0. -1.
         13   -1    0    0    0    0 -0.00000000000E+00 -0.00000000000E+00 -0.10000000000E+04  0.10000000000E+04  0.00000000000E+00 0.  1.
    9000005    2    1    2  501    0 -0.15571399233E+02  0.45634324932E+02 -0.84511663379E+03  0.84650982184E+03  0.56385886105E+01 0.  0.
         13    1    3    3    0    0 -0.68078253387E+01  0.28405832960E+02 -0.51553388491E+03  0.51636075017E+03  0.00000000000E+00 0.  1.
          1    1    3    3  501    0 -0.87635738947E+01  0.17228491972E+02 -0.32958274888E+03  0.33014907167E+03  0.00000000000E+00 0.  1.
         -3    1    1    2    0  502  0.15571399233E+02 -0.45634324932E+02 -0.15041705827E+03  0.15795648611E+03  0.00000000000E+00 0. -1.
<mgrwt>
<rscale>  1 0.30000000E+03</rscale>
<asrwt>0</asrwt>
<pdfrwt beam="1">  1       21 0.16241154E-01 0.30000000E+03</pdfrwt>
<pdfrwt beam="2">0</pdfrwt>
<totfact> 0.35521681E+03</totfact>
</mgrwt>
</event>
<event>
 6    1  0.1270461E-001  0.3000000E+03  0.7818608E-02  0.1093470E+00
         21   -1    0    0  501  502  0.00000000000E+00  0.00000000000E+00  0.11099242270E+01  0.11099242270E+01  0.00000000000E+00 0. -1.
         13   -1    0    0    0    0 -0.00000000000E+00 -0.00000000000E+00 -0.10000000000E+04  0.10000000000E+04  0.00000000000E+00 0.  1.
    9000005    2    1    2  501    0  0.27006592939E+02 -0.18035730732E+02 -0.60616355793E+03  0.60704297375E+03  0.35027653881E+01 0.  0.
         13    1    3    3    0    0  0.57337946672E+01 -0.43496586899E+01 -0.16190166186E+03  0.16206154400E+03  0.00000000000E+00 0.  1.
          3    1    3    3  501    0  0.21272798272E+02 -0.13686072043E+02 -0.44426189607E+03  0.44498142974E+03  0.00000000000E+00 0.  1.
         -1    1    1    2    0  502 -0.27006592939E+02  0.18035730732E+02 -0.39272651784E+03  0.39406695048E+03  0.00000000000E+00 0. -1.
<mgrwt>
<rscale>  1 0.30000000E+03</rscale>
<asrwt>0</asrwt>
<pdfrwt beam="1">  1       21 0.40360966E-02 0.30000000E+03</pdfrwt>
<pdfrwt beam="2">0</pdfrwt>
<totfact> 0.41415842E+04</totfact>
</mgrwt>
</event>
<event>
 6    1  0.1270461E-001  0.3000000E+03  0.7818608E-02  0.1093470E+00
         21   -1    0    0  501  502  0.00000000000E+00  0.00000000000E+00  0.15164807008E+01  0.15164807008E+01  0.00000000000E+00 0. -1.
         13   -1    0    0    0    0 -0.00000000000E+00 -0.00000000000E+00 -0.10000000000E+04  0.10000000000E+04  0.00000000000E+00 0.  1.
    9000005    2    1    2  501    0  0.30507037244E+00 -0.31932475664E+02 -0.78524769792E+03  0.78590272513E+03  0.30610808713E+01 0.  0.
         13    1    3    3    0    0  0.12523945543E+00 -0.16208542209E+02 -0.36103732418E+03  0.36140099886E+03  0.00000000000E+00 0.  1.
          1    1    3    3  501    0  0.17983091702E+00 -0.15723933455E+02 -0.42421037374E+03  0.42450172628E+03  0.00000000000E+00 0.  1.
         -1    1    1    2    0  502 -0.30507037244E+00  0.31932475664E+02 -0.21323582138E+03  0.21561375557E+03  0.00000000000E+00 0. -1.
<mgrwt>
<rscale>  1 0.30000000E+03</rscale>
<asrwt>0</asrwt>
<pdfrwt beam="1">  1       21 0.55144869E-02 0.30000000E+03</pdfrwt>
<pdfrwt beam="2">0</pdfrwt>
<totfact> 0.24363997E+04</totfact>
</mgrwt>
</event>
<event>
 6    1  0.1270461E-001  0.3000000E+03  0.7818608E-02  0.1093470E+00
         21   -1    0    0  501  502  0.00000000000E+00  0.00000000000E+00  0.57161672888E+01  0.57161672888E+01  0.00000000000E+00 0. -1.
         13   -1    0    0    0    0 -0.00000000000E+00 -0.00000000000E+00 -0.10000000000E+04  0.10000000000E+04  0.00000000000E+00 0.  1.
    9000005    2    1    2  501    0 -0.61231869547E+02  0.38635398747E+02 -0.64131238096E+03  0.64539564104E+03  0.34536382316E+01 0.  0.
         13    1    3    3    0    0 -0.50520717003E+02  0.31131316139E+02 -0.53555647287E+03  0.53883414640E+03  0.00000000000E+00 0.  1.
          1    1    3    3  501    0 -0.10711152544E+02  0.75040826080E+01 -0.10575590808E+03  0.10656149463E+03  0.00000000000E+00 0.  1.
         -3    1    1    2    0  502  0.61231869547E+02 -0.38635398747E+02 -0.35297145176E+03  0.36032052625E+03  0.00000000000E+00 0. -1.
<mgrwt>
<rscale>  1 0.30000000E+03</rscale>
<asrwt>0</asrwt>
<pdfrwt beam="1">  1       21 0.20786107E-01 0.30000000E+03</pdfrwt>
<pdfrwt beam="2">0</pdfrwt>
<totfact> 0.22287144E+03</totfact>
</mgrwt>
</event>
<event>
 6    1  0.1270461E-001  0.3000000E+03  0.7818608E-02  0.1093470E+00
         21   -1    0    0  501  502  0.00000000000E+00  0.00000000000E+00  0.21262959220E+01  0.21262959220E+01  0.00000000000E+00 0. -1.
         13   -1    0    0    0    0 -0.00000000000E+00 -0.00000000000E+00 -0.10000000000E+04  0.10000000000E+04  0.00000000000E+00 0.  1.
    9000005    2    1    2  501    0  0.25326947072E+02  0.38344933473E+02 -0.53175366147E+03  0.53374644763E+03  0.33949511258E+01 0.  0.
         13    1    3    3    0    0  0.22438394845E+02  0.31831418603E+02 -0.44561447981E+03  0.44731307313E+03  0.00000000000E+00 0.  1.
          1    1    3    3  501    0  0.28885522274E+01  0.65135148696E+01 -0.86139181660E+02  0.86433374497E+02  0.00000000000E+00 0.  1.
         -3    1    1    2    0  502 -0.25326947072E+02 -0.38344933473E+02 -0.46612004261E+03  0.46837984830E+03  0.00000000000E+00 0. -1.
<mgrwt>
<rscale>  1 0.30000000E+03</rscale>
<asrwt>0</asrwt>
<pdfrwt beam="1">  1       21 0.77320015E-02 0.30000000E+03</pdfrwt>
<pdfrwt beam="2">0</pdfrwt>
<totfact> 0.13560968E+04</totfact>
</mgrwt>
</event>
<event>
 6    1  0.1270461E-001  0.3000000E+03  0.7818608E-02  0.1093470E+00
         21   -1    0    0  501  502  0.00000000000E+00  0.00000000000E+00  0.65133587535E+01  0.65133587535E+01  0.00000000000E+00 0. -1.
         13   -1    0    0    0    0 -0.00000000000E+00 -0.00000000000E+00 -0.10000000000E+04  0.10000000000E+04  0.00000000000E+00 0.  1.
    9000005    2    1    2  501    0 -0.42530235611E+02  0.68491890466E+02 -0.51126277957E+03  0.51759637933E+03  0.40524213362E+01 0.  0.
         13    1    3    3    0    0 -0.64236730648E+01  0.80550486905E+01 -0.61484161774E+02  0.62341395029E+02  0.00000000000E+00 0.  1.
          3    1    3    3  501    0 -0.36106562546E+02  0.60436841775E+02 -0.44977861780E+03  0.45525498430E+03  0.00000000000E+00 0.  1.
         -1    1    1    2    0  502  0.42530235611E+02 -0.68491890466E+02 -0.48222386167E+03  0.48891697942E+03  0.00000000000E+00 0. -1.
<mgrwt>
<rscale>  1 0.30000000E+03</rscale>
<asrwt>0</asrwt>
<pdfrwt beam="1">  1       21 0.23684991E-01 0.30000000E+03</pdfrwt>
<pdfrwt beam="2">0</pdfrwt>
<totfact> 0.17328432E+03</totfact>
</mgrwt>
</event>
<event>
 6    1  0.1270461E-001  0.3000000E+03  0.7818608E-02  0.1093470E+00
         21   -1    0    0  501  502  0.00000000000E+00  0.00000000000E+00  0.24696724587E+01  0.24696724587E+01  0.00000000000E+00 0. -1.
         13   -1    0    0    0    0 -0.00000000000E+00 -0.00000000000E+00 -0.10000000000E+04  0.10000000000E+04  0.00000000000E+00 0.  1.
    9000005    2    1    2  501    0 -0.18037412178E+02  0.29099345065E+02 -0.86186059148E+03  0.86254684586E+03  0.33558948641E+01 0.  0.
         13    1    3    3    0    0 -0.21427140042E+01  0.54427688621E+01 -0.16518461711E+03  0.16528815047E+03  0.00000000000E+00 0.  1.
          3    1    3    3  501    0 -0.15894698173E+02  0.23656576203E+02 -0.69667597437E+03  0.69725869539E+03  0.00000000000E+00 0.  1.
         -3    1    1    2    0  502  0.18037412178E+02 -0.29099345065E+02 -0.13566973606E+03  0.13992282660E+03  0.00000000000E+00 0. -1.
<mgrwt>
<rscale>  1 0.30000000E+03</rscale>
<asrwt>0</asrwt>
<pdfrwt beam="1">  1       21 0.89806461E-02 0.30000000E+03</pdfrwt>
<pdfrwt beam="2">0</pdfrwt>
<totfact> 0.10417743E+04</totfact>
</mgrwt>
</event>
<event>
 6    1  0.1270461E-001  0.3000000E+03  0.7818608E-02  0.1093470E+00
         21   -1    0    0  501  502  0.00000000000E+00  0.00000000000E+00  0.14642168330E+01  0.14642168330E+01  0.00000000000E+00 0. -1.
         13   -1    0    0    0    0 -0.00000000000E+00 -0.00000000000E+00 -0.10000000000E+04  0.10000000000E+04  0.00000000000E+00 0.  1.
    9000005    2    1    2  501    0 -0.29054229298E+02 -0.17577326280E+02 -0.72859789163E+03  0.72939882777E+03  0.38277439112E+01 0.  0.
         13    1    3    3    0    0 -0.26502201099E+02 -0.17195740508E+02 -0.67325598247E+03  0.67399679382E+03  0.00000000000E+00 0.  1.
          3    1    3    3  501    0 -0.25520281987E+01 -0.38158577206E+00 -0.55341909165E+02  0.55402033948E+02  0.00000000000E+00 0.  1.
         -3    1    1    2    0  502  0.29054229298E+02  0.17577326280E+02 -0.26993789154E+03  0.27206538906E+03  0.00000000000E+00 0. -1.
<mgrwt>
<rscale>  1 0.30000000E+03</rscale>
<asrwt>0</asrwt>
<pdfrwt beam="1">  1       21 0.53244361E-02 0.30000000E+03</pdfrwt>
<pdfrwt beam="2">0</pdfrwt>
<totfact> 0.25872481E+04</totfact>
</mgrwt>
</event>
<event>
 6    1  0.1270461E-001  0.3000000E+03  0.7818608E-02  0.1093470E+00
         21   -1    0    0  501  502  0.00000000000E+00  0.00000000000E+00  0.11558359703E+01  0.11558359703E+01  0.00000000000E+00 0. -1.
         13   -1    0    0    0    0 -0.00000000000E+00 -0.00000000000E+00 -0.10000000000E+04  0.10000000000E+04  0.00000000000E+00 0.  1.
    9000005    2    1    2  501    0  0.20760534052E+02 -0.26105412271E+02 -0.59149217737E+03  0.59244061316E+03  0.32236475728E+01 0.  0.
         13    1    3    3    0    0  0.13654509118E+02 -0.17855756201E+02 -0.37195180917E+03  0.37263040938E+03  0.00000000000E+00 0.  1.
          3    1    3    3  501    0  0.71060249344E+01 -0.82496560698E+01 -0.21954036820E+03  0.21981020377E+03  0.00000000000E+00 0.  1.
         -1    1    1    2    0  502 -0.20760534052E+02  0.26105412271E+02 -0.40735198666E+03  0.40871522282E+03  0.00000000000E+00 0. -1.
<mgrwt>
<rscale>  1 0.30000000E+03</rscale>
<asrwt>0</asrwt>
<pdfrwt beam="1">  1       21 0.42030488E-02 0.30000000E+03</pdfrwt>
<pdfrwt beam="2">0</pdfrwt>
<totfact> 0.38679034E+04</totfact>
</mgrwt>
</event>
<event>
 6    1  0.1270461E-001  0.3000000E+03  0.7818608E-02  0.1093470E+00
         21   -1    0    0  501  502  0.00000000000E+00  0.00000000000E+00  0.15689638667E+01  0.15689638667E+01  0.00000000000E+00 0. -1.
         13   -1    0    0    0    0 -0.00000000000E+00 -0.00000000000E+00 -0.10000000000E+04  0.10000000000E+04  0.00000000000E+00 0.  1.
    9000005    2    1    2  501    0 -0.29961964843E+01  0.32256380543E+02 -0.78679974917E+03  0.78747260028E+03  0.31304343622E+01 0.  0.
         13    1    3    3    0    0 -0.35361918226E+01  0.27101814802E+02 -0.67361485299E+03  0.67416910578E+03  0.00000000000E+00 0.  1.
          1    1    3    3  501    0  0.53999533827E+00  0.51545657407E+01 -0.11318489618E+03  0.11330349450E+03  0.00000000000E+00 0.  1.
         -3    1    1    2    0  502  0.29961964843E+01 -0.32256380543E+02 -0.21163128696E+03  0.21409636359E+03  0.00000000000E+00 0. -1.
<mgrwt>
<rscale>  1 0.30000000E+03</rscale>
<asrwt>0</asrwt>
<pdfrwt beam="1">  1       21 0.57053352E-02 0.30000000E+03</pdfrwt>
<pdfrwt beam="2">0</pdfrwt>
<totfact> 0.22981259E+04</totfact>
</mgrwt>
</event>
<event>
 6    1  0.1270461E-001  0.3000000E+03  0.7818608E-02  0.1093470E+00
         21   -1    0    0  501  502  0.00000000000E+00  0.00000000000E+00  0.14106934725E+01  0.14106934725E+01  0.00000000000E+00 0. -1.
         13   -1    0    0    0    0 -0.00000000000E+00 -0.00000000000E+00 -0.10000000000E+04  0.10000000000E+04  0.00000000000E+00 0.  1.
    9000005    2    1    2  501    0 -0.37288267578E+02  0.39595810488E+01 -0.49930214779E+03  0.50071741404E+03  0.30332757798E+01 0.  0.
         13    1    3    3    0    0 -0.24487192768E+02  0.33230113482E+01 -0.34498073785E+03  0.34586467657E+03  0.00000000000E+00 0.  1.
          1    1    3    3  501    0 -0.12801074809E+02  0.63656970058E+00 -0.15432140994E+03  0.15485273747E+03  0.00000000000E+00 0.  1.
         -3    1    1    2    0  502  0.37288267578E+02 -0.39595810488E+01 -0.49928715874E+03  0.50069327943E+03  0.00000000000E+00 0. -1.
<mgrwt>
<rscale>  1 0.30000000E+03</rscale>
<asrwt>0</asrwt>
<pdfrwt beam="1">  1       21 0.51298053E-02 0.30000000E+03</pdfrwt>
<pdfrwt beam="2">0</pdfrwt>
<totfact> 0.27572436E+04</totfact>
</mgrwt>
</event>
<event>
 6    1  0.1270461E-001  0.3000000E+03  0.7818608E-02  0.1093470E+00
         21   -1    0    0  501  502  0.00000000000E+00  0.00000000000E+00  0.12625747880E+01  0.12625747880E+01  0.00000000000E+00 0. -1.
         13   -1    0    0    0    0 -0.00000000000E+00 -0.00000000000E+00 -0.10000000000E+04  0.10000000000E+04  0.00000000000E+00 0.  1.
    9000005    2    1    2  501    0  0.20411042470E+02  0.23046302294E+02 -0.74830913317E+03  0.74894913448E+03  0.32410725376E+01 0.  0.
         13    1    3    3    0    0  0.17790180583E+02  0.18616768683E+02 -0.63989073559E+03  0.64040864149E+03  0.00000000000E+00 0.  1.
          3    1    3    3  501    0  0.26208618869E+01  0.44295336109E+01 -0.10841839758E+03  0.10854049299E+03  0.00000000000E+00 0.  1.
         -1    1    1    2    0  502 -0.20411042470E+02 -0.23046302294E+02 -0.25042829204E+03  0.25231344031E+03  0.00000000000E+00 0. -1.
<mgrwt>
<rscale>  1 0.30000000E+03</rscale>
<asrwt>0</asrwt>
<pdfrwt beam="1">  1       21 0.45911907E-02 0.30000000E+03</pdfrwt>
<pdfrwt beam="2">0</pdfrwt>
<totfact> 0.33304067E+04</totfact>
</mgrwt>
</event>
<event>
 6    1  0.1270461E-001  0.3000000E+03  0.7818608E-02  0.1093470E+00
         21   -1    0    0  501  502  0.00000000000E+00  0.00000000000E+00  0.53957878306E+01  0.53957878306E+01  0.00000000000E+00 0. -1.
         13   -1    0    0    0    0 -0.00000000000E+00 -0.00000000000E+00 -0.10000000000E+04  0.10000000000E+04  0.00000000000E+00 0.  1.
    9000005    2    1    2  501    0 -0.49875757186E+00  0.36874963876E+02 -0.93202040382E+03  0.93275458198E+03  0.30108716332E+01 0.  0.
         13    1    3    3    0    0 -0.27585875334E+00  0.27318624214E+00 -0.77749071512E+01  0.77845944008E+01  0.00000000000E+00 0.  1.
          1    1    3    3  501    0 -0.22289881851E+00  0.36601777634E+02 -0.92424549667E+03  0.92496998758E+03  0.00000000000E+00 0.  1.
         -1    1    1    2    0  502  0.49875757186E+00 -0.36874963876E+02 -0.62583808352E+02  0.72641205854E+02  0.00000000000E+00 0. -1.
<mgrwt>
<rscale>  1 0.30000000E+03</rscale>
<asrwt>0</asrwt>
<pdfrwt beam="1">  1       21 0.19621088E-01 0.30000000E+03</pdfrwt>
<pdfrwt beam="2">0</pdfrwt>
<totfact> 0.24883182E+03</totfact>
</mgrwt>
</event>
<event>
 6    1  0.1270461E-001  0.3000000E+03  0.7818608E-02  0.1093470E+00
         21   -1    0    0  501  502  0.00000000000E+00  0.00000000000E+00  0.45119324137E+01  0.45119324137E+01  0.00000000000E+00 0. -1.
         13   -1    0    0    0    0 -0.00000000000E+00 -0.00000000000E+00 -0.10000000000E+04  0.10000000000E+04  0.00000000000E+00 0.  1.
    9000005    2    1    2  501    0 -0.15652999288E+02 -0.42435569768E+02 -0.86898702438E+03  0.87016794148E+03  0.28291106849E+01 0.  0.
         13    1    3    3    0    0 -0.93439487462E+01 -0.21833111603E+02 -0.46957490728E+03  0.47017506068E+03  0.00000000000E+00 0.  1.
          1    1    3    3  501    0 -0.63090505418E+01 -0.20602458165E+02 -0.39941211710E+03  0.39999288079E+03  0.00000000000E+00 0.  1.
         -3    1    1    2    0  502  0.15652999288E+02  0.42435569768E+02 -0.12650104321E+03  0.13434399094E+03  0.00000000000E+00 0. -1.
<mgrwt>
<rscale>  1 0.30000000E+03</rscale>
<asrwt>0</asrwt>
<pdfrwt beam="1">  1       21 0.16407062E-01 0.30000000E+03</pdfrwt>
<pdfrwt beam="2">0</pdfrwt>
<totfact> 0.34854116E+03</totfact>
</mgrwt>
</event>
<event>
 6    1  0.1270461E-001  0.3000000E+03  0.7818608E-02  0.1093470E+00
         21   -1    0    0  501  502  0.00000000000E+00  0.00000000000E+00  0.13084336153E+01  0.13084336153E+01  0.00000000000E+00 0. -1.
         13   -1    0    0    0    0 -0.00000000000E+00 -0.00000000000E+00 -0.10000000000E+04  0.10000000000E+04  0.00000000000E+00 0.  1.
    9000005    2    1    2  501    0  0.33727708694E+02 -0.68752820449E+01 -0.65061372004E+03  0.65153276986E+03  0.34510382532E+01 0.  0.
         13    1    3    3    0    0  0.16302018625E+02 -0.36785672815E+01 -0.34772050587E+03  0.34812187216E+03  0.00000000000E+00 0.  1.
          1    1    3    3  501    0  0.17425690069E+02 -0.31967147634E+01 -0.30289321416E+03  0.30341089770E+03  0.00000000000E+00 0.  1.
         -1    1    1    2    0  502 -0.33727708694E+02  0.68752820449E+01 -0.34807784635E+03  0.34977566375E+03  0.00000000000E+00 0. -1.
<mgrwt>
<rscale>  1 0.30000000E+03</rscale>
<asrwt>0</asrwt>
<pdfrwt beam="1">  1       21 0.47579505E-02 0.30000000E+03</pdfrwt>
<pdfrwt beam="2">0</pdfrwt>
<totfact> 0.31344260E+04</totfact>
</mgrwt>
</event>
<event>
 6    1  0.1270461E-001  0.3000000E+03  0.7818608E-02  0.1093470E+00
         21   -1    0    0  501  502  0.00000000000E+00  0.00000000000E+00  0.47299258892E+01  0.47299258892E+01  0.00000000000E+00 0. -1.
         13   -1    0    0    0    0 -0.00000000000E+00 -0.00000000000E+00 -0.10000000000E+04  0.10000000000E+04  0.00000000000E+00 0.  1.
    9000005    2    1    2  501    0 -0.59331274595E+01  0.29815228902E+02 -0.94821178756E+03  0.94870642895E+03  0.37609029997E+01 0.  0.
         13    1    3    3    0    0 -0.50626289354E+01  0.20606639805E+02 -0.70330694701E+03  0.70362697896E+03  0.00000000000E+00 0.  1.
          1    1    3    3  501    0 -0.87049852408E+00  0.92085890977E+01 -0.24490484055E+03  0.24507944999E+03  0.00000000000E+00 0.  1.
         -3    1    1    2    0  502  0.59331274595E+01 -0.29815228902E+02 -0.47058286550E+02  0.56023496937E+02  0.00000000000E+00 0. -1.
<mgrwt>
<rscale>  1 0.30000000E+03</rscale>
<asrwt>0</asrwt>
<pdfrwt beam="1">  1       21 0.17199767E-01 0.30000000E+03</pdfrwt>
<pdfrwt beam="2">0</pdfrwt>
<totfact> 0.31908951E+03</totfact>
</mgrwt>
</event>
<event>
 6    1  0.1270461E-001  0.3000000E+03  0.7818608E-02  0.1093470E+00
         21   -1    0    0  501  502  0.00000000000E+00  0.00000000000E+00  0.10203634920E+01  0.10203634920E+01  0.00000000000E+00 0. -1.
         13   -1    0    0    0    0 -0.00000000000E+00 -0.00000000000E+00 -0.10000000000E+04  0.10000000000E+04  0.00000000000E+00 0.  1.
    9000005    2    1    2  501    0 -0.95483062262E+01 -0.28722821153E+02 -0.34504598129E+03  0.34638657577E+03  0.32802529164E+01 0.  0.
         13    1    3    3    0    0 -0.59953393718E+01 -0.19413862842E+02 -0.21404970854E+03  0.21501190640E+03  0.00000000000E+00 0.  1.
          1    1    3    3  501    0 -0.35529668544E+01 -0.93089583107E+01 -0.13099627275E+03  0.13137466937E+03  0.00000000000E+00 0.  1.
         -1    1    1    2    0  502  0.95483062262E+01  0.28722821153E+02 -0.65393365521E+03  0.65463378772E+03  0.00000000000E+00 0. -1.
<mgrwt>
<rscale>  1 0.30000000E+03</rscale>
<asrwt>0</asrwt>
<pdfrwt beam="1">  1       21 0.37104205E-02 0.30000000E+03</pdfrwt>
<pdfrwt beam="2">0</pdfrwt>
<totfact> 0.47709681E+04</totfact>
</mgrwt>
</event>
<event>
 6    1  0.1270461E-001  0.3000000E+03  0.7818608E-02  0.1093470E+00
         21   -1    0    0  501  502  0.00000000000E+00  0.00000000000E+00  0.69995395851E+01  0.69995395851E+01  0.00000000000E+00 0. -1.
         13   -1    0    0    0    0 -0.00000000000E+00 -0.00000000000E+00 -0.10000000000E+04  0.10000000000E+04  0.00000000000E+00 0.  1.
    9000005    2    1    2  501    0 -0.68987600742E+01 -0.75068439358E+02 -0.71361154448E+03  0.71761911553E+03  0.72729005913E+01 0.  0.
         13    1    3    3    0    0 -0.54125879799E+01 -0.25622815605E+02 -0.23169322828E+03  0.23316855881E+03  0.00000000000E+00 0.  1.
          3    1    3    3  501    0 -0.14861720943E+01 -0.49445623752E+02 -0.48191831620E+03  0.48445055672E+03  0.00000000000E+00 0.  1.
         -3    1    1    2    0  502  0.68987600742E+01  0.75068439358E+02 -0.27938891594E+03  0.28938042405E+03  0.00000000000E+00 0. -1.
<mgrwt>
<rscale>  1 0.30000000E+03</rscale>
<asrwt>0</asrwt>
<pdfrwt beam="1">  1       21 0.25452925E-01 0.30000000E+03</pdfrwt>
<pdfrwt beam="2">0</pdfrwt>
<totfact> 0.15056653E+03</totfact>
</mgrwt>
</event>
<event>
 6    1  0.1270461E-001  0.3000000E+03  0.7818608E-02  0.1093470E+00
         21   -1    0    0  501  502  0.00000000000E+00  0.00000000000E+00  0.15111887090E+01  0.15111887090E+01  0.00000000000E+00 0. -1.
         13   -1    0    0    0    0 -0.00000000000E+00 -0.00000000000E+00 -0.10000000000E+04  0.10000000000E+04  0.00000000000E+00 0.  1.
    9000005    2    1    2  501    0 -0.52127277547E+01 -0.30374406278E+02 -0.80378312883E+03  0.80438158700E+03  0.35555907116E+01 0.  0.
         13    1    3    3    0    0 -0.22804442166E+01 -0.22562912344E+02 -0.59084046002E+03  0.59127551500E+03  0.00000000000E+00 0.  1.
          3    1    3    3  501    0 -0.29322835381E+01 -0.78114939339E+01 -0.21294266881E+03  0.21310607200E+03  0.00000000000E+00 0.  1.
         -1    1    1    2    0  502  0.52127277547E+01  0.30374406278E+02 -0.19470568246E+03  0.19712960171E+03  0.00000000000E+00 0. -1.
<mgrwt>
<rscale>  1 0.30000000E+03</rscale>
<asrwt>0</asrwt>
<pdfrwt beam="1">  1       21 0.54952433E-02 0.30000000E+03</pdfrwt>
<pdfrwt beam="2">0</pdfrwt>
<totfact> 0.24510485E+04</totfact>
</mgrwt>
</event>
<event>
 6    1  0.1270461E-001  0.3000000E+03  0.7818608E-02  0.1093470E+00
         21   -1    0    0  501  502  0.00000000000E+00  0.00000000000E+00  0.17960253950E+01  0.17960253950E+01  0.00000000000E+00 0. -1.
         13   -1    0    0    0    0 -0.00000000000E+00 -0.00000000000E+00 -0.10000000000E+04  0.10000000000E+04  0.00000000000E+00 0.  1.
    9000005    2    1    2  501    0 -0.36430238733E+02  0.12494644461E+02 -0.70723327754E+03  0.70828755024E+03  0.30110692234E+01 0.  0.
         13    1    3    3    0    0 -0.35781048531E+02  0.12385975358E+02 -0.68609667284E+03  0.68714069906E+03  0.00000000000E+00 0.  1.
          3    1    3    3  501    0 -0.64919020164E+00  0.10866910267E+00 -0.21136604695E+02  0.21146851182E+02  0.00000000000E+00 0.  1.
         -3    1    1    2    0  502  0.36430238733E+02 -0.12494644461E+02 -0.29097069707E+03  0.29350847515E+03  0.00000000000E+00 0. -1.
<mgrwt>
<rscale>  1 0.30000000E+03</rscale>
<asrwt>0</asrwt>
<pdfrwt beam="1">  1       21 0.65310152E-02 0.30000000E+03</pdfrwt>
<pdfrwt beam="2">0</pdfrwt>
<totfact> 0.18199408E+04</totfact>
</mgrwt>
</event>
<event>
 6    1  0.1270461E-001  0.3000000E+03  0.7818608E-02  0.1093470E+00
         21   -1    0    0  501  502  0.00000000000E+00  0.00000000000E+00  0.16963724128E+01  0.16963724128E+01  0.00000000000E+00 0. -1.
         13   -1    0    0    0    0 -0.00000000000E+00 -0.00000000000E+00 -0.10000000000E+04  0.10000000000E+04  0.00000000000E+00 0.  1.
    9000005    2    1    2  501    0 -0.27110575718E+01  0.30441529345E+02 -0.83397888126E+03  0.83455374231E+03  0.50137685144E+01 0.  0.
         13    1    3    3    0    0 -0.19382433947E+01  0.39839808548E+01 -0.10106961688E+03  0.10116667607E+03  0.00000000000E+00 0.  1.
          3    1    3    3  501    0 -0.77281417704E+00  0.26457548490E+02 -0.73290926437E+03  0.73338706623E+03  0.00000000000E+00 0.  1.
         -1    1    1    2    0  502  0.27110575718E+01 -0.30441529345E+02 -0.16432474633E+03  0.16714263011E+03  0.00000000000E+00 0. -1.
<mgrwt>
<rscale>  1 0.30000000E+03</rscale>
<asrwt>0</asrwt>
<pdfrwt beam="1">  1       21 0.61686400E-02 0.30000000E+03</pdfrwt>
<pdfrwt beam="2">0</pdfrwt>
<totfact> 0.20087476E+04</totfact>
</mgrwt>
</event>
<event>
 6    1  0.1270461E-001  0.3000000E+03  0.7818608E-02  0.1093470E+00
         21   -1    0    0  501  502  0.00000000000E+00  0.00000000000E+00  0.51394918865E+01  0.51394918865E+01  0.00000000000E+00 0. -1.
         13   -1    0    0    0    0 -0.00000000000E+00 -0.00000000000E+00 -0.10000000000E+04  0.10000000000E+04  0.00000000000E+00 0.  1.
    9000005    2    1    2  501    0 -0.41392379574E+02  0.51078098942E+02 -0.69752636713E+03  0.70062365868E+03  0.28595426006E+01 0.  0.
         13    1    3    3    0    0 -0.93673016673E+00  0.89678839289E+00 -0.18176907887E+02  0.18223108219E+02  0.00000000000E+00 0.  1.
          1    1    3    3  501    0 -0.40455649407E+02  0.50181310549E+02 -0.67934945924E+03  0.68240055046E+03  0.00000000000E+00 0.  1.
         -3    1    1    2    0  502  0.41392379574E+02 -0.51078098942E+02 -0.29733414098E+03  0.30451583321E+03  0.00000000000E+00 0. -1.
<mgrwt>
<rscale>  1 0.30000000E+03</rscale>
<asrwt>0</asrwt>
<pdfrwt beam="1">  1       21 0.18689101E-01 0.30000000E+03</pdfrwt>
<pdfrwt beam="2">0</pdfrwt>
<totfact> 0.27290222E+03</totfact>
</mgrwt>
</event>
<event>
 6    1  0.1270461E-001  0.3000000E+03  0.7818608E-02  0.1093470E+00
         21   -1    0    0  501  502  0.00000000000E+00  0.00000000000E+00  0.12657383304E+01  0.12657383304E+01  0.00000000000E+00 0. -1.
         13   -1    0    0    0    0 -0.00000000000E+00 -0.00000000000E+00 -0.10000000000E+04  0.10000000000E+04  0.00000000000E+00 0.  1.
    9000005    2    1    2  501    0 -0.28347948180E+02 -0.11064166475E+02 -0.75798226250E+03  0.75859817344E+03  0.28384037587E+01 0.  0.
         13    1    3    3    0    0 -0.21399376420E+02 -0.74612453700E+01 -0.53965344524E+03  0.54012909980E+03  0.00000000000E+00 0.  1.
          3    1    3    3  501    0 -0.69485717594E+01 -0.36029211050E+01 -0.21832881725E+03  0.21846907363E+03  0.00000000000E+00 0.  1.
         -1    1    1    2    0  502  0.28347948180E+02  0.11064166475E+02 -0.24075199917E+03  0.24266756489E+03  0.00000000000E+00 0. -1.
<mgrwt>
<rscale>  1 0.30000000E+03</rscale>
<asrwt>0</asrwt>
<pdfrwt beam="1">  1       21 0.46026945E-02 0.30000000E+03</pdfrwt>
<pdfrwt beam="2">0</pdfrwt>
<totfact> 0.33162773E+04</totfact>
</mgrwt>
</event>
<event>
 6    1  0.1270461E-001  0.3000000E+03  0.7818608E-02  0.1093470E+00
         21   -1    0    0  501  502  0.00000000000E+00  0.00000000000E+00  0.18720984693E+01  0.18720984693E+01  0.00000000000E+00 0. -1.
         13   -1    0    0    0    0 -0.00000000000E+00 -0.00000000000E+00 -0.10000000000E+04  0.10000000000E+04  0.00000000000E+00 0.  1.
    9000005    2    1    2  501    0  0.12265997259E+02 -0.30766174604E+02 -0.82096379433E+03  0.82163854702E+03  0.33672179660E+01 0.  0.
         13    1    3    3    0    0  0.26670220422E+01 -0.83715261575E+01 -0.25254491821E+03  0.25269770709E+03  0.00000000000E+00 0.  1.
          3    1    3    3  501    0  0.95989752164E+01 -0.22394648446E+02 -0.56841887613E+03  0.56894083993E+03  0.00000000000E+00 0.  1.
         -1    1    1    2    0  502 -0.12265997259E+02  0.30766174604E+02 -0.17716410720E+03  0.18023355145E+03  0.00000000000E+00 0. -1.
<mgrwt>
<rscale>  1 0.30000000E+03</rscale>
<asrwt>0</asrwt>
<pdfrwt beam="1">  1       21 0.68076452E-02 0.30000000E+03</pdfrwt>
<pdfrwt beam="2">0</pdfrwt>
<totfact> 0.16936116E+04</totfact>
</mgrwt>
</event>
<event>
 6    1  0.1270461E-001  0.3000000E+03  0.7818608E-02  0.1093470E+00
         21   -1    0    0  501  502  0.00000000000E+00  0.00000000000E+00  0.21347149096E+01  0.21347149096E+01  0.00000000000E+00 0. -1.
         13   -1    0    0    0    0 -0.00000000000E+00 -0.00000000000E+00 -0.10000000000E+04  0.10000000000E+04  0.00000000000E+00 0.  1.
    9000005    2    1    2  501    0  0.62800906830E+01 -0.37330649426E+02 -0.78547700531E+03  0.78639923264E+03  0.40755720355E+01 0.  0.
         13    1    3    3    0    0  0.15936992932E+01 -0.19955758275E+02 -0.43540454726E+03  0.43586453393E+03  0.00000000000E+00 0.  1.
          1    1    3    3  501    0  0.46863913898E+01 -0.17374891151E+02 -0.35007245806E+03  0.35053469871E+03  0.00000000000E+00 0.  1.
         -3    1    1    2    0  502 -0.62800906830E+01  0.37330649426E+02 -0.21238827978E+03  0.21573548227E+03  0.00000000000E+00 0. -1.
<mgrwt>
<rscale>  1 0.30000000E+03</rscale>
<asrwt>0</asrwt>
<pdfrwt beam="1">  1       21 0.77626160E-02 0.30000000E+03</pdfrwt>
<pdfrwt beam="2">0</pdfrwt>
<totfact> 0.13467327E+04</totfact>
</mgrwt>
</event>
<event>
 6    1  0.1270461E-001  0.3000000E+03  0.7818608E-02  0.1093470E+00
         21   -1    0    0  501  502  0.00000000000E+00  0.00000000000E+00  0.35600371681E+01  0.35600371681E+01  0.00000000000E+00 0. -1.
         13   -1    0    0    0    0 -0.00000000000E+00 -0.00000000000E+00 -0.10000000000E+04  0.10000000000E+04  0.00000000000E+00 0.  1.
    9000005    2    1    2  501    0 -0.23932950600E+02 -0.22201508161E+02 -0.91818470202E+03  0.91876865238E+03  0.26450877590E+01 0.  0.
         13    1    3    3    0    0 -0.16885196746E+02 -0.15680481161E+02 -0.68071830756E+03  0.68110821579E+03  0.00000000000E+00 0.  1.
          3    1    3    3  501    0 -0.70477538536E+01 -0.65210270002E+01 -0.23746639445E+03  0.23766043660E+03  0.00000000000E+00 0.  1.
         -3    1    1    2    0  502  0.23932950600E+02  0.22201508161E+02 -0.78255260814E+02  0.84791384788E+02  0.00000000000E+00 0. -1.
<mgrwt>
<rscale>  1 0.30000000E+03</rscale>
<asrwt>0</asrwt>
<pdfrwt beam="1">  1       21 0.12945617E-01 0.30000000E+03</pdfrwt>
<pdfrwt beam="2">0</pdfrwt>
<totfact> 0.53976815E+03</totfact>
</mgrwt>
</event>
<event>
 6    1  0.1270461E-001  0.3000000E+03  0.7818608E-02  0.1093470E+00
         21   -1    0    0  501  502  0.00000000000E+00  0.00000000000E+00  0.32354360153E+01  0.32354360153E+01  0.00000000000E+00 0. -1.
         13   -1    0    0    0    0 -0.00000000000E+00 -0.00000000000E+00 -0.10000000000E+04  0.10000000000E+04  0.00000000000E+00 0.  1.
    9000005    2    1    2  501    0 -0.30073038255E+02 -0.13273064220E+02 -0.90736340636E+03  0.90798246311E+03  0.65757311427E+01 0.  0.
         13    1    3    3    0    0 -0.21836187551E+02 -0.86840562640E+01 -0.56346163336E+03  0.56395145553E+03  0.00000000000E+00 0.  1.
          1    1    3    3  501    0 -0.82368507041E+01 -0.45890079559E+01 -0.34390177300E+03  0.34403100758E+03  0.00000000000E+00 0.  1.
         -3    1    1    2    0  502  0.30073038255E+02  0.13273064220E+02 -0.89401157621E+02  0.95252972907E+02  0.00000000000E+00 0. -1.
<mgrwt>
<rscale>  1 0.30000000E+03</rscale>
<asrwt>0</asrwt>
<pdfrwt beam="1">  1       21 0.11765247E-01 0.30000000E+03</pdfrwt>
<pdfrwt beam="2">0</pdfrwt>
<totfact> 0.64231018E+03</totfact>
</mgrwt>
</event>
<event>
 6    1  0.1270461E-001  0.3000000E+03  0.7818608E-02  0.1093470E+00
         21   -1    0    0  501  502  0.00000000000E+00  0.00000000000E+00  0.13672052669E+01  0.13672052669E+01  0.00000000000E+00 0. -1.
         13   -1    0    0    0    0 -0.00000000000E+00 -0.00000000000E+00 -0.10000000000E+04  0.10000000000E+04  0.00000000000E+00 0.  1.
    9000005    2    1    2  501    0 -0.35923906057E+02  0.82140803946E+01 -0.52181397167E+03  0.52312648328E+03  0.36740075410E+01 0.  0.
         13    1    3    3    0    0 -0.14282400245E+02  0.18570080470E+01 -0.18732786393E+03  0.18788071759E+03  0.00000000000E+00 0.  1.
          1    1    3    3  501    0 -0.21641505812E+02  0.63570723475E+01 -0.33448610774E+03  0.33524576569E+03  0.00000000000E+00 0.  1.
         -1    1    1    2    0  502  0.35923906057E+02 -0.82140803946E+01 -0.47681882306E+03  0.47824072199E+03  0.00000000000E+00 0. -1.
<mgrwt>
<rscale>  1 0.30000000E+03</rscale>
<asrwt>0</asrwt>
<pdfrwt beam="1">  1       21 0.49716660E-02 0.30000000E+03</pdfrwt>
<pdfrwt beam="2">0</pdfrwt>
<totfact> 0.29085026E+04</totfact>
</mgrwt>
</event>
<event>
 6    1  0.1270461E-001  0.3000000E+03  0.7818608E-02  0.1093470E+00
         21   -1    0    0  501  502  0.00000000000E+00  0.00000000000E+00  0.18188648321E+01  0.18188648321E+01  0.00000000000E+00 0. -1.
         13   -1    0    0    0    0 -0.00000000000E+00 -0.00000000000E+00 -0.10000000000E+04  0.10000000000E+04  0.00000000000E+00 0.  1.
    9000005    2    1    2  501    0 -0.25868012801E+02 -0.15283633236E+02 -0.85433514956E+03  0.85486849530E+03  0.29753899024E+01 0.  0.
         13    1    3    3    0    0 -0.79716492721E+01 -0.54250196183E+01 -0.31037350144E+03  0.31052324941E+03  0.00000000000E+00 0.  1.
          1    1    3    3  501    0 -0.17896363529E+02 -0.98586136179E+01 -0.54396164813E+03  0.54434524589E+03  0.00000000000E+00 0.  1.
         -1    1    1    2    0  502  0.25868012801E+02  0.15283633236E+02 -0.14384598560E+03  0.14695036953E+03  0.00000000000E+00 0. -1.
<mgrwt>
<rscale>  1 0.30000000E+03</rscale>
<asrwt>0</asrwt>
<pdfrwt beam="1">  1       21 0.66140679E-02 0.30000000E+03</pdfrwt>
<pdfrwt beam="2">0</pdfrwt>
<totfact> 0.17805291E+04</totfact>
</mgrwt>
</event>
<event>
 6    1  0.1270461E-001  0.3000000E+03  0.7818608E-02  0.1093470E+00
         21   -1    0    0  501  502  0.00000000000E+00  0.00000000000E+00  0.24958967741E+01  0.24958967741E+01  0.00000000000E+00 0. -1.
         13   -1    0    0    0    0 -0.00000000000E+00 -0.00000000000E+00 -0.10000000000E+04  0.10000000000E+04  0.00000000000E+00 0.  1.
    9000005    2    1    2  501    0  0.24307985246E+02 -0.18866675496E+02 -0.89322535181E+03  0.89377199146E+03  0.54785036273E+01 0.  0.
         13    1    3    3    0    0  0.76394042621E+01 -0.43716671810E+01 -0.19746153128E+03  0.19765760371E+03  0.00000000000E+00 0.  1.
          3    1    3    3  501    0  0.16668580984E+02 -0.14495008315E+02 -0.69576382053E+03  0.69611438774E+03  0.00000000000E+00 0.  1.
         -1    1    1    2    0  502 -0.24307985246E+02  0.18866675496E+02 -0.10427875141E+03  0.10872390532E+03  0.00000000000E+00 0. -1.
<mgrwt>
<rscale>  1 0.30000000E+03</rscale>
<asrwt>0</asrwt>
<pdfrwt beam="1">  1       21 0.90760074E-02 0.30000000E+03</pdfrwt>
<pdfrwt beam="2">0</pdfrwt>
<totfact> 0.10224550E+04</totfact>
</mgrwt>
</event>
<event>
 6    1  0.1270461E-001  0.3000000E+03  0.7818608E-02  0.1093470E+00
         21   -1    0    0  501  502  0.00000000000E+00  0.00000000000E+00  0.40233643613E+01  0.40233643613E+01  0.00000000000E+00 0. -1.
         13   -1    0    0    0    0 -0.00000000000E+00 -0.00000000000E+00 -0.10000000000E+04  0.10000000000E+04  0.00000000000E+00 0.  1.
    9000005    2    1    2  501    0 -0.25038490909E+02  0.19533644353E+02 -0.93248791235E+03  0.93303528597E+03  0.35565290114E+01 0.  0.
         13    1    3    3    0    0 -0.88477827222E+01  0.75723972379E+01 -0.39077495241E+03  0.39094844659E+03  0.00000000000E+00 0.  1.
          1    1    3    3  501    0 -0.16190708187E+02  0.11961247115E+02 -0.54171295994E+03  0.54208683938E+03  0.00000000000E+00 0.  1.
         -1    1    1    2    0  502  0.25038490909E+02 -0.19533644353E+02 -0.63488723286E+02  0.70988078388E+02  0.00000000000E+00 0. -1.
<mgrwt>
<rscale>  1 0.30000000E+03</rscale>
<asrwt>0</asrwt>
<pdfrwt beam="1">  1       21 0.14630447E-01 0.30000000E+03</pdfrwt>
<pdfrwt beam="2">0</pdfrwt>
<totfact> 0.43123399E+03</totfact>
</mgrwt>
</event>
<event>
 6    1  0.1270461E-001  0.3000000E+03  0.7818608E-02  0.1093470E+00
         21   -1    0    0  501  502  0.00000000000E+00  0.00000000000E+00  0.12718524059E+01  0.12718524059E+01  0.00000000000E+00 0. -1.
         13   -1    0    0    0    0 -0.00000000000E+00 -0.00000000000E+00 -0.10000000000E+04  0.10000000000E+04  0.00000000000E+00 0.  1.
    9000005    2    1    2  501    0 -0.31899290972E+02  0.10925404691E+02 -0.36399927186E+03  0.36564800537E+03  0.81280184029E+01 0.  0.
         13    1    3    3    0    0 -0.55218529251E+01  0.11158313969E+01 -0.98604294203E+02  0.98765088846E+02  0.00000000000E+00 0.  1.
          3    1    3    3  501    0 -0.26377438047E+02  0.98095732937E+01 -0.26539497765E+03  0.26688291652E+03  0.00000000000E+00 0.  1.
         -1    1    1    2    0  502  0.31899290972E+02 -0.10925404691E+02 -0.63472887574E+03  0.63562384704E+03  0.00000000000E+00 0. -1.
<mgrwt>
<rscale>  1 0.30000000E+03</rscale>
<asrwt>0</asrwt>
<pdfrwt beam="1">  1       21 0.46249276E-02 0.30000000E+03</pdfrwt>
<pdfrwt beam="2">0</pdfrwt>
<totfact> 0.32892352E+04</totfact>
</mgrwt>
</event>
<event>
 6    1  0.1270461E-001  0.3000000E+03  0.7818608E-02  0.1093470E+00
         21   -1    0    0  501  502  0.00000000000E+00  0.00000000000E+00  0.63230159218E+01  0.63230159218E+01  0.00000000000E+00 0. -1.
         13   -1    0    0    0    0 -0.00000000000E+00 -0.00000000000E+00 -0.10000000000E+04  0.10000000000E+04  0.00000000000E+00 0.  1.
    9000005    2    1    2  501    0 -0.23406937060E+02  0.25955932061E+02 -0.94875617634E+03  0.94940663797E+03  0.36175904374E+01 0.  0.
         13    1    3    3    0    0 -0.21979775226E+02  0.22959155197E+02 -0.87063916177E+03  0.87121913623E+03  0.00000000000E+00 0.  1.
          3    1    3    3  501    0 -0.14271618339E+01  0.29967768637E+01 -0.78117014570E+02  0.78187501736E+02  0.00000000000E+00 0.  1.
         -3    1    1    2    0  502  0.23406937060E+02 -0.25955932061E+02 -0.44920807740E+02  0.56916377956E+02  0.00000000000E+00 0. -1.
<mgrwt>
<rscale>  1 0.30000000E+03</rscale>
<asrwt>0</asrwt>
<pdfrwt beam="1">  1       21 0.22992834E-01 0.30000000E+03</pdfrwt>
<pdfrwt beam="2">0</pdfrwt>
<totfact> 0.18353840E+03</totfact>
</mgrwt>
</event>
<event>
 6    1  0.1270461E-001  0.3000000E+03  0.7818608E-02  0.1093470E+00
         21   -1    0    0  501  502  0.00000000000E+00  0.00000000000E+00  0.93407710744E+00  0.93407710744E+00  0.00000000000E+00 0. -1.
         13   -1    0    0    0    0 -0.00000000000E+00 -0.00000000000E+00 -0.10000000000E+04  0.10000000000E+04  0.00000000000E+00 0.  1.
    9000005    2    1    2  501    0 -0.30387269246E+02  0.28671185112E+01 -0.51622187757E+03  0.51712628613E+03  0.17211712633E+01 0.  0.
         13    1    3    3    0    0 -0.10238387863E+02  0.62267612084E+00 -0.18613272462E+03  0.18641513749E+03  0.00000000000E+00 0.  1.
          3    1    3    3  501    0 -0.20148881384E+02  0.22444423904E+01 -0.33008915295E+03  0.33071114864E+03  0.00000000000E+00 0.  1.
         -3    1    1    2    0  502  0.30387269246E+02 -0.28671185112E+01 -0.48284404533E+03  0.48380779097E+03  0.00000000000E+00 0. -1.
<mgrwt>
<rscale>  1 0.30000000E+03</rscale>
<asrwt>0</asrwt>
<pdfrwt beam="1">  1       21 0.33966512E-02 0.30000000E+03</pdfrwt>
<pdfrwt beam="2">0</pdfrwt>
<totfact> 0.55322045E+04</totfact>
</mgrwt>
</event>
<event>
 6    1  0.1270461E-001  0.3000000E+03  0.7818608E-02  0.1093470E+00
         21   -1    0    0  501  502  0.00000000000E+00  0.00000000000E+00  0.32410284477E+01  0.32410284477E+01  0.00000000000E+00 0. -1.
         13   -1    0    0    0    0 -0.00000000000E+00 -0.00000000000E+00 -0.10000000000E+04  0.10000000000E+04  0.00000000000E+00 0.  1.
    9000005    2    1    2  501    0  0.43336855841E+02 -0.21041999809E+02 -0.76518918408E+03  0.76671319647E+03  0.37134051742E+01 0.  0.
         13    1    3    3    0    0  0.40415685598E+02 -0.20445327402E+02 -0.70944261833E+03  0.71088695849E+03  0.00000000000E+00 0.  1.
          3    1    3    3  501    0  0.29211702439E+01 -0.59667240772E+00 -0.55746565748E+02  0.55826237973E+02  0.00000000000E+00 0.  1.
         -3    1    1    2    0  502 -0.43336855841E+02  0.21041999809E+02 -0.23156978748E+03  0.23652783198E+03  0.00000000000E+00 0. -1.
<mgrwt>
<rscale>  1 0.30000000E+03</rscale>
<asrwt>0</asrwt>
<pdfrwt beam="1">  1       21 0.11785583E-01 0.30000000E+03</pdfrwt>
<pdfrwt beam="2">0</pdfrwt>
<totfact> 0.64030436E+03</totfact>
</mgrwt>
</event>
<event>
 6    1  0.1270461E-001  0.3000000E+03  0.7818608E-02  0.1093470E+00
         21   -1    0    0  501  502  0.00000000000E+00  0.00000000000E+00  0.20325607535E+01  0.20325607535E+01  0.00000000000E+00 0. -1.
         13   -1    0    0    0    0 -0.00000000000E+00 -0.00000000000E+00 -0.10000000000E+04  0.10000000000E+04  0.00000000000E+00 0.  1.
    9000005    2    1    2  501    0  0.69940057268E+01  0.36264410511E+02 -0.78581650903E+03  0.78669087696E+03  0.33055177693E+01 0.  0.
         13    1    3    3    0    0  0.73578822223E+01  0.34965481102E+02 -0.75685331258E+03  0.75769628484E+03  0.00000000000E+00 0.  1.
          3    1    3    3  501    0 -0.36387649549E+00  0.12989294093E+01 -0.28963196452E+02  0.28994592124E+02  0.00000000000E+00 0.  1.
         -3    1    1    2    0  502 -0.69940057268E+01 -0.36264410511E+02 -0.21215093022E+03  0.21534168379E+03  0.00000000000E+00 0. -1.
<mgrwt>
<rscale>  1 0.30000000E+03</rscale>
<asrwt>0</asrwt>
<pdfrwt beam="1">  1       21 0.73911456E-02 0.30000000E+03</pdfrwt>
<pdfrwt beam="2">0</pdfrwt>
<totfact> 0.14675185E+04</totfact>
</mgrwt>
</event>
<event>
 6    1  0.1270461E-001  0.3000000E+03  0.7818608E-02  0.1093470E+00
         21   -1    0    0  501  502  0.00000000000E+00  0.00000000000E+00  0.34106716877E+01  0.34106716877E+01  0.00000000000E+00 0. -1.
         13   -1    0    0    0    0 -0.00000000000E+00 -0.00000000000E+00 -0.10000000000E+04  0.10000000000E+04  0.00000000000E+00 0.  1.
    9000005    2    1    2  501    0  0.28985349095E+02 -0.25327130339E+02 -0.87548095989E+03  0.87633254259E+03  0.31937558198E+01 0.  0.
         13    1    3    3    0    0  0.25820556460E+02 -0.23503428983E+02 -0.77774943963E+03  0.77853278874E+03  0.00000000000E+00 0.  1.
          3    1    3    3  501    0  0.31647926358E+01 -0.18237013566E+01 -0.97731520269E+02  0.97799753851E+02  0.00000000000E+00 0.  1.
         -3    1    1    2    0  502 -0.28985349095E+02  0.25327130339E+02 -0.12110836842E+03  0.12707812909E+03  0.00000000000E+00 0. -1.
<mgrwt>
<rscale>  1 0.30000000E+03</rscale>
<asrwt>0</asrwt>
<pdfrwt beam="1">  1       21 0.12402469E-01 0.30000000E+03</pdfrwt>
<pdfrwt beam="2">0</pdfrwt>
<totfact> 0.58363508E+03</totfact>
</mgrwt>
</event>
<event>
 6    1  0.1270461E-001  0.3000000E+03  0.7818608E-02  0.1093470E+00
         21   -1    0    0  501  502  0.00000000000E+00  0.00000000000E+00  0.15227515399E+01  0.15227515399E+01  0.00000000000E+00 0. -1.
         13   -1    0    0    0    0 -0.00000000000E+00 -0.00000000000E+00 -0.10000000000E+04  0.10000000000E+04  0.00000000000E+00 0.  1.
    9000005    2    1    2  501    0 -0.34414063090E+02  0.17267775066E+02 -0.57552613575E+03  0.57682268381E+03  0.34017381963E+01 0.  0.
         13    1    3    3    0    0 -0.11994939705E+02  0.43226176427E+01 -0.19757846446E+03  0.19798942704E+03  0.00000000000E+00 0.  1.
          3    1    3    3  501    0 -0.22419123386E+02  0.12945157424E+02 -0.37794767129E+03  0.37883325676E+03  0.00000000000E+00 0.  1.
         -3    1    1    2    0  502  0.34414063090E+02 -0.17267775066E+02 -0.42295111271E+03  0.42470006773E+03  0.00000000000E+00 0. -1.
<mgrwt>
<rscale>  1 0.30000000E+03</rscale>
<asrwt>0</asrwt>
<pdfrwt beam="1">  1       21 0.55372900E-02 0.30000000E+03</pdfrwt>
<pdfrwt beam="2">0</pdfrwt>
<totfact> 0.24192151E+04</totfact>
</mgrwt>
</event>
<event>
 6    1  0.1358963E-001  0.3000000E+03  0.7818608E-02  0.1093470E+00
         21   -1    0    0  501  502  0.00000000000E+00  0.00000000000E+00  0.11331064312E+01  0.11331064312E+01  0.00000000000E+00 0. -1.
         13   -1    0    0    0    0 -0.00000000000E+00 -0.00000000000E+00 -0.10000000000E+04  0.10000000000E+04  0.00000000000E+00 0.  1.
    9000005    2    1    2  501    0 -0.11068414090E+02 -0.30653339516E+02 -0.61971648695E+03  0.62058459723E+03  0.38185220818E+01 0.  0.
         13    1    3    3    0    0  0.15496769444E+00 -0.10989883136E+01 -0.31055110230E+02  0.31074936230E+02  0.00000000000E+00 0.  1.
          3    1    3    3  501    0 -0.11223381785E+02 -0.29554351203E+02 -0.58866137672E+03  0.58950966100E+03  0.00000000000E+00 0.  1.
         -3    1    1    2    0  502  0.11068414090E+02  0.30653339516E+02 -0.37915040662E+03  0.38054850920E+03  0.00000000000E+00 0. -1.
<mgrwt>
<rscale>  1 0.30000000E+03</rscale>
<asrwt>0</asrwt>
<pdfrwt beam="1">  1       21 0.41203957E-02 0.30000000E+03</pdfrwt>
<pdfrwt beam="2">0</pdfrwt>
<totfact> 0.39997504E+04</totfact>
</mgrwt>
</event>
<event>
 6    1  0.1270461E-001  0.3000000E+03  0.7818608E-02  0.1093470E+00
         21   -1    0    0  501  502  0.00000000000E+00  0.00000000000E+00  0.17003309300E+01  0.17003309300E+01  0.00000000000E+00 0. -1.
         13   -1    0    0    0    0 -0.00000000000E+00 -0.00000000000E+00 -0.10000000000E+04  0.10000000000E+04  0.00000000000E+00 0.  1.
    9000005    2    1    2  501    0 -0.14156809253E+02  0.38180008646E+02 -0.57420047757E+03  0.57565074163E+03  0.30756452152E+01 0.  0.
         13    1    3    3    0    0 -0.12760802169E+02  0.35011457468E+02 -0.53591408196E+03  0.53720810071E+03  0.00000000000E+00 0.  1.
          3    1    3    3  501    0 -0.13960070842E+01  0.31685511780E+01 -0.38286395607E+02  0.38442640920E+02  0.00000000000E+00 0.  1.
         -3    1    1    2    0  502  0.14156809253E+02 -0.38180008646E+02 -0.42409919150E+03  0.42604958930E+03  0.00000000000E+00 0. -1.
<mgrwt>
<rscale>  1 0.30000000E+03</rscale>
<asrwt>0</asrwt>
<pdfrwt beam="1">  1       21 0.61830346E-02 0.30000000E+03</pdfrwt>
<pdfrwt beam="2">0</pdfrwt>
<totfact> 0.20006791E+04</totfact>
</mgrwt>
</event>
<event>
 6    1  0.1270461E-001  0.3000000E+03  0.7818608E-02  0.1093470E+00
         21   -1    0    0  501  502  0.00000000000E+00  0.00000000000E+00  0.13576104833E+01  0.13576104833E+01  0.00000000000E+00 0. -1.
         13   -1    0    0    0    0 -0.00000000000E+00 -0.00000000000E+00 -0.10000000000E+04  0.10000000000E+04  0.00000000000E+00 0.  1.
    9000005    2    1    2  501    0 -0.28009308499E+02  0.16587573601E+02 -0.26783683900E+03  0.26982741860E+03  0.32549264350E+01 0.  0.
         13    1    3    3    0    0 -0.20856967862E+02  0.13946714089E+02 -0.20586583679E+03  0.20738916726E+03  0.00000000000E+00 0.  1.
          1    1    3    3  501    0 -0.71523406370E+01  0.26408595118E+01 -0.61971002210E+02  0.62438251341E+02  0.00000000000E+00 0.  1.
         -1    1    1    2    0  502  0.28009308499E+02 -0.16587573601E+02 -0.73080555052E+03  0.73153019188E+03  0.00000000000E+00 0. -1.
<mgrwt>
<rscale>  1 0.30000000E+03</rscale>
<asrwt>0</asrwt>
<pdfrwt beam="1">  1       21 0.49367758E-02 0.30000000E+03</pdfrwt>
<pdfrwt beam="2">0</pdfrwt>
<totfact> 0.29436157E+04</totfact>
</mgrwt>
</event>
<event>
 6    1  0.1270461E-001  0.3000000E+03  0.7818608E-02  0.1093470E+00
         21   -1    0    0  501  502  0.00000000000E+00  0.00000000000E+00  0.16179244627E+01  0.16179244627E+01  0.00000000000E+00 0. -1.
         13   -1    0    0    0    0 -0.00000000000E+00 -0.00000000000E+00 -0.10000000000E+04  0.10000000000E+04  0.00000000000E+00 0.  1.
    9000005    2    1    2  501    0  0.36323684337E+02  0.60996584345E+01 -0.69916384756E+03  0.70014128552E+03  0.33343772982E+01 0.  0.
         13    1    3    3    0    0  0.33265570364E+02  0.55322618296E+01 -0.62008864431E+03  0.62100493629E+03  0.00000000000E+00 0.  1.
          1    1    3    3  501    0  0.30581139730E+01  0.56739660492E+00 -0.79075203249E+02  0.79136349226E+02  0.00000000000E+00 0.  1.
         -3    1    1    2    0  502 -0.36323684337E+02 -0.60996584345E+01 -0.29921822797E+03  0.30147663894E+03  0.00000000000E+00 0. -1.
<mgrwt>
<rscale>  1 0.30000000E+03</rscale>
<asrwt>0</asrwt>
<pdfrwt beam="1">  1       21 0.58833741E-02 0.30000000E+03</pdfrwt>
<pdfrwt beam="2">0</pdfrwt>
<totfact> 0.21796941E+04</totfact>
</mgrwt>
</event>
<event>
 6    1  0.1270461E-001  0.3000000E+03  0.7818608E-02  0.1093470E+00
         21   -1    0    0  501  502  0.00000000000E+00  0.00000000000E+00  0.12935459879E+01  0.12935459879E+01  0.00000000000E+00 0. -1.
         13   -1    0    0    0    0 -0.00000000000E+00 -0.00000000000E+00 -0.10000000000E+04  0.10000000000E+04  0.00000000000E+00 0.  1.
    9000005    2    1    2  501    0 -0.21858790388E+02 -0.24600271885E+02 -0.30177866374E+03  0.30358922111E+03  0.36156871874E+01 0.  0.
         13    1    3    3    0    0 -0.16849777399E+02 -0.20553508093E+02 -0.25128988492E+03  0.25269144813E+03  0.00000000000E+00 0.  1.
          3    1    3    3  501    0 -0.50090129895E+01 -0.40467637921E+01 -0.50488778814E+02  0.50897772981E+02  0.00000000000E+00 0.  1.
         -1    1    1    2    0  502  0.21858790388E+02  0.24600271885E+02 -0.69692779028E+03  0.69770432488E+03  0.00000000000E+00 0. -1.
<mgrwt>
<rscale>  1 0.30000000E+03</rscale>
<asrwt>0</asrwt>
<pdfrwt beam="1">  1       21 0.47038135E-02 0.30000000E+03</pdfrwt>
<pdfrwt beam="2">0</pdfrwt>
<totfact> 0.31960229E+04</totfact>
</mgrwt>
</event>
<event>
 6    1  0.1270461E-001  0.3000000E+03  0.7818608E-02  0.1093470E+00
         21   -1    0    0  501  502  0.00000000000E+00  0.00000000000E+00  0.92553741893E+00  0.92553741893E+00  0.00000000000E+00 0. -1.
         13   -1    0    0    0    0 -0.00000000000E+00 -0.00000000000E+00 -0.10000000000E+04  0.10000000000E+04  0.00000000000E+00 0.  1.
    9000005    2    1    2  501    0 -0.19825327462E+02 -0.22926724345E+02 -0.48932000887E+03  0.49027077990E+03  0.35620563415E+01 0.  0.
         13    1    3    3    0    0 -0.19963754575E+02 -0.22863852511E+02 -0.48563387698E+03  0.48658151395E+03  0.00000000000E+00 0.  1.
          3    1    3    3  501    0  0.13842711318E+00 -0.62871833432E-01 -0.36861318823E+01  0.36892659415E+01  0.00000000000E+00 0.  1.
         -1    1    1    2    0  502  0.19825327462E+02  0.22926724345E+02 -0.50975445372E+03  0.51065475752E+03  0.00000000000E+00 0. -1.
<mgrwt>
<rscale>  1 0.30000000E+03</rscale>
<asrwt>0</asrwt>
<pdfrwt beam="1">  1       21 0.33655977E-02 0.30000000E+03</pdfrwt>
<pdfrwt beam="2">0</pdfrwt>
<totfact> 0.56177376E+04</totfact>
</mgrwt>
</event>
<event>
 6    1  0.1270461E-001  0.3000000E+03  0.7818608E-02  0.1093470E+00
         21   -1    0    0  501  502  0.00000000000E+00  0.00000000000E+00  0.11564403231E+02  0.11564403231E+02  0.00000000000E+00 0. -1.
         13   -1    0    0    0    0 -0.00000000000E+00 -0.00000000000E+00 -0.10000000000E+04  0.10000000000E+04  0.00000000000E+00 0.  1.
    9000005    2    1    2  501    0 -0.91696646061E+01  0.53325783027E+02 -0.93129077674E+03  0.93286718384E+03  0.33090711227E+01 0.  0.
         13    1    3    3    0    0 -0.37787187434E+01  0.21604251389E+02 -0.34987660880E+03  0.35056335202E+03  0.00000000000E+00 0.  1.
          1    1    3    3  501    0 -0.53909458626E+01  0.31721531637E+02 -0.58141416794E+03  0.58230383182E+03  0.00000000000E+00 0.  1.
         -3    1    1    2    0  502  0.91696646061E+01 -0.53325783027E+02 -0.57144820029E+02  0.78697219395E+02  0.00000000000E+00 0. -1.
<mgrwt>
<rscale>  1 0.30000000E+03</rscale>
<asrwt>0</asrwt>
<pdfrwt beam="1">  1       21 0.42052464E-01 0.30000000E+03</pdfrwt>
<pdfrwt beam="2">0</pdfrwt>
<totfact> 0.54380888E+02</totfact>
</mgrwt>
</event>
<event>
 6    1  0.1270461E-001  0.3000000E+03  0.7818608E-02  0.1093470E+00
         21   -1    0    0  501  502  0.00000000000E+00  0.00000000000E+00  0.24092589920E+01  0.24092589920E+01  0.00000000000E+00 0. -1.
         13   -1    0    0    0    0 -0.00000000000E+00 -0.00000000000E+00 -0.10000000000E+04  0.10000000000E+04  0.00000000000E+00 0.  1.
    9000005    2    1    2  501    0  0.32325147008E+02 -0.28341420586E+02 -0.74027942561E+03  0.74153138665E+03  0.26491780016E+01 0.  0.
         13    1    3    3    0    0  0.23024811530E+02 -0.19232805114E+02 -0.49897938637E+03  0.49988045647E+03  0.00000000000E+00 0.  1.
          3    1    3    3  501    0  0.93003354778E+01 -0.91086154717E+01 -0.24130003924E+03  0.24165093017E+03  0.00000000000E+00 0.  1.
         -1    1    1    2    0  502 -0.32325147008E+02  0.28341420586E+02 -0.25731131539E+03  0.26087787235E+03  0.00000000000E+00 0. -1.
<mgrwt>
<rscale>  1 0.30000000E+03</rscale>
<asrwt>0</asrwt>
<pdfrwt beam="1">  1       21 0.87609603E-02 0.30000000E+03</pdfrwt>
<pdfrwt beam="2">0</pdfrwt>
<totfact> 0.10884411E+04</totfact>
</mgrwt>
</event>
<event>
 6    1  0.1270461E-001  0.3000000E+03  0.7818608E-02  0.1093470E+00
         21   -1    0    0  501  502  0.00000000000E+00  0.00000000000E+00  0.30822814999E+01  0.30822814999E+01  0.00000000000E+00 0. -1.
         13   -1    0    0    0    0 -0.00000000000E+00 -0.00000000000E+00 -0.10000000000E+04  0.10000000000E+04  0.00000000000E+00 0.  1.
    9000005    2    1    2  501    0 -0.26018833002E+02  0.15873271454E+02 -0.91734474280E+03  0.91787196006E+03  0.62142989758E+01 0.  0.
         13    1    3    3    0    0 -0.21261689056E+02  0.12010018727E+02 -0.65354357875E+03  0.65399962485E+03  0.00000000000E+00 0.  1.
          3    1    3    3  501    0 -0.47571439458E+01  0.38632527270E+01 -0.26380116405E+03  0.26387233522E+03  0.00000000000E+00 0.  1.
         -3    1    1    2    0  502  0.26018833002E+02 -0.15873271454E+02 -0.79572975700E+02  0.85210321436E+02  0.00000000000E+00 0. -1.
<mgrwt>
<rscale>  1 0.30000000E+03</rscale>
<asrwt>0</asrwt>
<pdfrwt beam="1">  1       21 0.11208320E-01 0.30000000E+03</pdfrwt>
<pdfrwt beam="2">0</pdfrwt>
<totfact> 0.70111308E+03</totfact>
</mgrwt>
</event>
<event>
 6    1  0.1270461E-001  0.3000000E+03  0.7818608E-02  0.1093470E+00
         21   -1    0    0  501  502  0.00000000000E+00  0.00000000000E+00  0.12758991925E+01  0.12758991925E+01  0.00000000000E+00 0. -1.
         13   -1    0    0    0    0 -0.00000000000E+00 -0.00000000000E+00 -0.10000000000E+04  0.10000000000E+04  0.00000000000E+00 0.  1.
    9000005    2    1    2  501    0 -0.20365044181E+02 -0.28874880415E+02 -0.56569714657E+03  0.56680974765E+03  0.33962693330E+01 0.  0.
         13    1    3    3    0    0 -0.89631462742E+01 -0.10083321705E+02 -0.22570277899E+03  0.22610562977E+03  0.00000000000E+00 0.  1.
          1    1    3    3  501    0 -0.11401897907E+02 -0.18791558710E+02 -0.33999436758E+03  0.34070411788E+03  0.00000000000E+00 0.  1.
         -3    1    1    2    0  502  0.20365044181E+02  0.28874880415E+02 -0.43302695423E+03  0.43446615154E+03  0.00000000000E+00 0. -1.
<mgrwt>
<rscale>  1 0.30000000E+03</rscale>
<asrwt>0</asrwt>
<pdfrwt beam="1">  1       21 0.46396432E-02 0.30000000E+03</pdfrwt>
<pdfrwt beam="2">0</pdfrwt>
<totfact> 0.32715263E+04</totfact>
</mgrwt>
</event>
<event>
 6    1  0.1270461E-001  0.3000000E+03  0.7818608E-02  0.1093470E+00
         21   -1    0    0  501  502  0.00000000000E+00  0.00000000000E+00  0.82774760578E+01  0.82774760578E+01  0.00000000000E+00 0. -1.
         13   -1    0    0    0    0 -0.00000000000E+00 -0.00000000000E+00 -0.10000000000E+04  0.10000000000E+04  0.00000000000E+00 0.  1.
    9000005    2    1    2  501    0  0.61162353844E+02 -0.37028706996E+02 -0.80750493426E+03  0.81067160819E+03  0.35041108159E+01 0.  0.
         13    1    3    3    0    0  0.77312368648E+01 -0.51041552214E+01 -0.11796253355E+03  0.11832575268E+03  0.00000000000E+00 0.  1.
          1    1    3    3  501    0  0.53431116979E+02 -0.31924551775E+02 -0.68954240071E+03  0.69234585551E+03  0.00000000000E+00 0.  1.
         -1    1    1    2    0  502 -0.61162353844E+02  0.37028706996E+02 -0.18421758968E+03  0.19760586787E+03  0.00000000000E+00 0. -1.
<mgrwt>
<rscale>  1 0.30000000E+03</rscale>
<asrwt>0</asrwt>
<pdfrwt beam="1">  1       21 0.30099976E-01 0.30000000E+03</pdfrwt>
<pdfrwt beam="2">0</pdfrwt>
<totfact> 0.10800653E+03</totfact>
</mgrwt>
</event>
<event>
 6    1  0.1270461E-001  0.3000000E+03  0.7818608E-02  0.1093470E+00
         21   -1    0    0  501  502  0.00000000000E+00  0.00000000000E+00  0.10200309930E+01  0.10200309930E+01  0.00000000000E+00 0. -1.
         13   -1    0    0    0    0 -0.00000000000E+00 -0.00000000000E+00 -0.10000000000E+04  0.10000000000E+04  0.00000000000E+00 0.  1.
    9000005    2    1    2  501    0  0.30315497515E+02  0.61616916724E+01 -0.61608192286E+03  0.61687434303E+03  0.44747721294E+01 0.  0.
         13    1    3    3    0    0  0.28433813299E+01 -0.31074294991E+00 -0.40536670569E+02  0.40637458574E+02  0.00000000000E+00 0.  1.
          1    1    3    3  501    0  0.27472116185E+02  0.64724346223E+01 -0.57554525229E+03  0.57623688446E+03  0.00000000000E+00 0.  1.
         -3    1    1    2    0  502 -0.30315497515E+02 -0.61616916724E+01 -0.38289804615E+03  0.38414568796E+03  0.00000000000E+00 0. -1.
<mgrwt>
<rscale>  1 0.30000000E+03</rscale>
<asrwt>0</asrwt>
<pdfrwt beam="1">  1       21 0.37092114E-02 0.30000000E+03</pdfrwt>
<pdfrwt beam="2">0</pdfrwt>
<totfact> 0.47735790E+04</totfact>
</mgrwt>
</event>
<event>
 6    1  0.1270461E-001  0.3000000E+03  0.7818608E-02  0.1093470E+00
         21   -1    0    0  501  502  0.00000000000E+00  0.00000000000E+00  0.35648806344E+01  0.35648806344E+01  0.00000000000E+00 0. -1.
         13   -1    0    0    0    0 -0.00000000000E+00 -0.00000000000E+00 -0.10000000000E+04  0.10000000000E+04  0.00000000000E+00 0.  1.
    9000005    2    1    2  501    0  0.11671151303E+02  0.31365765129E+02 -0.91332176979E+03  0.91396657779E+03  0.76304095516E+01 0.  0.
         13    1    3    3    0    0  0.32524014883E+01  0.14840176625E+02 -0.32906714534E+03  0.32941766058E+03  0.00000000000E+00 0.  1.
          1    1    3    3  501    0  0.84187498148E+01  0.16525588504E+02 -0.58425462446E+03  0.58454891722E+03  0.00000000000E+00 0.  1.
         -3    1    1    2    0  502 -0.11671151303E+02 -0.31365765129E+02 -0.83113349571E+02  0.89598302839E+02  0.00000000000E+00 0. -1.
<mgrwt>
<rscale>  1 0.30000000E+03</rscale>
<asrwt>0</asrwt>
<pdfrwt beam="1">  1       21 0.12963230E-01 0.30000000E+03</pdfrwt>
<pdfrwt beam="2">0</pdfrwt>
<totfact> 0.53843001E+03</totfact>
</mgrwt>
</event>
<event>
 6    1  0.1270461E-001  0.3000000E+03  0.7818608E-02  0.1093470E+00
         21   -1    0    0  501  502  0.00000000000E+00  0.00000000000E+00  0.13911215710E+02  0.13911215710E+02  0.00000000000E+00 0. -1.
         13   -1    0    0    0    0 -0.00000000000E+00 -0.00000000000E+00 -0.10000000000E+04  0.10000000000E+04  0.00000000000E+00 0.  1.
    9000005    2    1    2  501    0 -0.43044751225E+02  0.25327461590E+02 -0.95225342530E+03  0.95358574483E+03  0.66974496139E+01 0.  0.
         13    1    3    3    0    0 -0.26936834614E+01 -0.81268364977E-01 -0.46650437833E+02  0.46728212947E+02  0.00000000000E+00 0.  1.
          1    1    3    3  501    0 -0.40351067763E+02  0.25408729955E+02 -0.90560298747E+03  0.90685753189E+03  0.00000000000E+00 0.  1.
         -3    1    1    2    0  502  0.43044751225E+02 -0.25327461590E+02 -0.33835358989E+02  0.60325470877E+02  0.00000000000E+00 0. -1.
<mgrwt>
<rscale>  1 0.30000000E+03</rscale>
<asrwt>0</asrwt>
<pdfrwt beam="1">  1       21 0.50586346E-01 0.30000000E+03</pdfrwt>
<pdfrwt beam="2">0</pdfrwt>
<totfact> 0.36633598E+02</totfact>
</mgrwt>
</event>
<event>
 6    1  0.1270461E-001  0.3000000E+03  0.7818608E-02  0.1093470E+00
         21   -1    0    0  501  502  0.00000000000E+00  0.00000000000E+00  0.13324383029E+01  0.13324383029E+01  0.00000000000E+00 0. -1.
         13   -1    0    0    0    0 -0.00000000000E+00 -0.00000000000E+00 -0.10000000000E+04  0.10000000000E+04  0.00000000000E+00 0.  1.
    9000005    2    1    2  501    0 -0.33772041444E+02  0.27155757213E+01 -0.68188674757E+03  0.68274491605E+03  0.48123537762E+01 0.  0.
         13    1    3    3    0    0 -0.27718051832E+02  0.35138960195E+00 -0.55493159566E+03  0.55562351438E+03  0.00000000000E+00 0.  1.
          1    1    3    3  501    0 -0.60539896125E+01  0.23641861194E+01 -0.12695515191E+03  0.12712140167E+03  0.00000000000E+00 0.  1.
         -3    1    1    2    0  502  0.33772041444E+02 -0.27155757213E+01 -0.31678081413E+03  0.31858752225E+03  0.00000000000E+00 0. -1.
<mgrwt>
<rscale>  1 0.30000000E+03</rscale>
<asrwt>0</asrwt>
<pdfrwt beam="1">  1       21 0.48452404E-02 0.30000000E+03</pdfrwt>
<pdfrwt beam="2">0</pdfrwt>
<totfact> 0.30389457E+04</totfact>
</mgrwt>
</event>
<event>
 6    1  0.1270461E-001  0.3000000E+03  0.7818608E-02  0.1093470E+00
         21   -1    0    0  501  502  0.00000000000E+00  0.00000000000E+00  0.13545521360E+01  0.13545521360E+01  0.00000000000E+00 0. -1.
         13   -1    0    0    0    0 -0.00000000000E+00 -0.00000000000E+00 -0.10000000000E+04  0.10000000000E+04  0.00000000000E+00 0.  1.
    9000005    2    1    2  501    0 -0.28948591023E+02 -0.16604788231E+02 -0.29248426336E+03  0.29440521985E+03  0.36944890586E+01 0.  0.
         13    1    3    3    0    0 -0.24607328172E+02 -0.14983786011E+02 -0.26018465577E+03  0.26177488333E+03  0.00000000000E+00 0.  1.
          3    1    3    3  501    0 -0.43412628505E+01 -0.16210022201E+01 -0.32299607587E+02  0.32630336523E+02  0.00000000000E+00 0.  1.
         -1    1    1    2    0  502  0.28948591023E+02  0.16604788231E+02 -0.70616118450E+03  0.70694933228E+03  0.00000000000E+00 0. -1.
<mgrwt>
<rscale>  1 0.30000000E+03</rscale>
<asrwt>0</asrwt>
<pdfrwt beam="1">  1       21 0.49256545E-02 0.30000000E+03</pdfrwt>
<pdfrwt beam="2">0</pdfrwt>
<totfact> 0.29549471E+04</totfact>
</mgrwt>
</event>
<event>
 6    1  0.1270461E-001  0.3000000E+03  0.7818608E-02  0.1093470E+00
         21   -1    0    0  501  502  0.00000000000E+00  0.00000000000E+00  0.85765428509E+01  0.85765428509E+01  0.00000000000E+00 0. -1.
         13   -1    0    0    0    0 -0.00000000000E+00 -0.00000000000E+00 -0.10000000000E+04  0.10000000000E+04  0.00000000000E+00 0.  1.
    9000005    2    1    2  501    0 -0.63847675301E+02 -0.22594207821E+02 -0.83957749797E+03  0.84231103474E+03  0.32373257948E+01 0.  0.
         13    1    3    3    0    0 -0.21146418409E+02 -0.63712110235E+01 -0.28743202327E+03  0.28827925930E+03  0.00000000000E+00 0.  1.
          1    1    3    3  501    0 -0.42701256892E+02 -0.16222996798E+02 -0.55214547470E+03  0.55403177544E+03  0.00000000000E+00 0.  1.
         -1    1    1    2    0  502  0.63847675301E+02  0.22594207821E+02 -0.15184595918E+03  0.16626550811E+03  0.00000000000E+00 0. -1.
<mgrwt>
<rscale>  1 0.30000000E+03</rscale>
<asrwt>0</asrwt>
<pdfrwt beam="1">  1       21 0.31187494E-01 0.30000000E+03</pdfrwt>
<pdfrwt beam="2">0</pdfrwt>
<totfact> 0.10058102E+03</totfact>
</mgrwt>
</event>
<event>
 6    1  0.1270461E-001  0.3000000E+03  0.7818608E-02  0.1093470E+00
         21   -1    0    0  501  502  0.00000000000E+00  0.00000000000E+00  0.23764217805E+01  0.23764217805E+01  0.00000000000E+00 0. -1.
         13   -1    0    0    0    0 -0.00000000000E+00 -0.00000000000E+00 -0.10000000000E+04  0.10000000000E+04  0.00000000000E+00 0.  1.
    9000005    2    1    2  501    0 -0.30161303289E+02 -0.10280264859E+02 -0.87788933329E+03  0.87847453532E+03  0.35269852773E+01 0.  0.
         13    1    3    3    0    0 -0.28208833496E+02 -0.94864823258E+01 -0.83952097032E+03  0.84004832673E+03  0.00000000000E+00 0.  1.
          1    1    3    3  501    0 -0.19524697925E+01 -0.79378253334E+00 -0.38368362969E+02  0.38426208581E+02  0.00000000000E+00 0.  1.
         -3    1    1    2    0  502  0.30161303289E+02  0.10280264859E+02 -0.11973424493E+03  0.12390188646E+03  0.00000000000E+00 0. -1.
<mgrwt>
<rscale>  1 0.30000000E+03</rscale>
<asrwt>0</asrwt>
<pdfrwt beam="1">  1       21 0.86415520E-02 0.30000000E+03</pdfrwt>
<pdfrwt beam="2">0</pdfrwt>
<totfact> 0.11151504E+04</totfact>
</mgrwt>
</event>
<event>
 6    1  0.1270461E-001  0.3000000E+03  0.7818608E-02  0.1093470E+00
         21   -1    0    0  501  502  0.00000000000E+00  0.00000000000E+00  0.30244538256E+01  0.30244538256E+01  0.00000000000E+00 0. -1.
         13   -1    0    0    0    0 -0.00000000000E+00 -0.00000000000E+00 -0.10000000000E+04  0.10000000000E+04  0.00000000000E+00 0.  1.
    9000005    2    1    2  501    0 -0.19173203391E+02 -0.26059767852E+02 -0.90393808141E+03  0.90452220472E+03  0.31049287036E+01 0.  0.
         13    1    3    3    0    0 -0.15248676723E+02 -0.22276463171E+02 -0.73137369682E+03  0.73187174242E+03  0.00000000000E+00 0.  1.
          1    1    3    3  501    0 -0.39245266682E+01 -0.37833046804E+01 -0.17256438459E+03  0.17265046230E+03  0.00000000000E+00 0.  1.
         -1    1    1    2    0  502  0.19173203391E+02  0.26059767852E+02 -0.93037464763E+02  0.98502249102E+02  0.00000000000E+00 0. -1.
<mgrwt>
<rscale>  1 0.30000000E+03</rscale>
<asrwt>0</asrwt>
<pdfrwt beam="1">  1       21 0.10998037E-01 0.30000000E+03</pdfrwt>
<pdfrwt beam="2">0</pdfrwt>
<totfact> 0.72543515E+03</totfact>
</mgrwt>
</event>
<event>
 6    1  0.1270461E-001  0.3000000E+03  0.7818608E-02  0.1093470E+00
         21   -1    0    0  501  502  0.00000000000E+00  0.00000000000E+00  0.84822764776E+01  0.84822764776E+01  0.00000000000E+00 0. -1.
         13   -1    0    0    0    0 -0.00000000000E+00 -0.00000000000E+00 -0.10000000000E+04  0.10000000000E+04  0.00000000000E+00 0.  1.
    9000005    2    1    2  501    0  0.39429382753E+02  0.13051623481E+02 -0.94579915425E+03  0.94671490098E+03  0.28359223865E+01 0.  0.
         13    1    3    3    0    0  0.25938929790E+02  0.98336568392E+01 -0.64448466685E+03  0.64508140160E+03  0.00000000000E+00 0.  1.
          3    1    3    3  501    0  0.13490452963E+02  0.32179666416E+01 -0.30131448740E+03  0.30163349938E+03  0.00000000000E+00 0.  1.
         -3    1    1    2    0  502 -0.39429382753E+02 -0.13051623481E+02 -0.45718569276E+02  0.61767375502E+02  0.00000000000E+00 0. -1.
<mgrwt>
<rscale>  1 0.30000000E+03</rscale>
<asrwt>0</asrwt>
<pdfrwt beam="1">  1       21 0.30844707E-01 0.30000000E+03</pdfrwt>
<pdfrwt beam="2">0</pdfrwt>
<totfact> 0.10284115E+03</totfact>
</mgrwt>
</event>
<event>
 6    1  0.1270461E-001  0.3000000E+03  0.7818608E-02  0.1093470E+00
         21   -1    0    0  501  502  0.00000000000E+00  0.00000000000E+00  0.15799640202E+01  0.15799640202E+01  0.00000000000E+00 0. -1.
         13   -1    0    0    0    0 -0.00000000000E+00 -0.00000000000E+00 -0.10000000000E+04  0.10000000000E+04  0.00000000000E+00 0.  1.
    9000005    2    1    2  501    0  0.37670950611E+02 -0.61198636500E+01 -0.36266251904E+03  0.36467795147E+03  0.30581558801E+01 0.  0.
         13    1    3    3    0    0  0.30044038747E+02 -0.52162231398E+01 -0.27779489007E+03  0.27946351139E+03  0.00000000000E+00 0.  1.
          3    1    3    3  501    0  0.76269118645E+01 -0.90364051027E+00 -0.84867628974E+02  0.85214440081E+02  0.00000000000E+00 0.  1.
         -3    1    1    2    0  502 -0.37670950611E+02  0.61198636500E+01 -0.63575751694E+03  0.63690201255E+03  0.00000000000E+00 0. -1.
<mgrwt>
<rscale>  1 0.30000000E+03</rscale>
<asrwt>0</asrwt>
<pdfrwt beam="1">  1       21 0.57453358E-02 0.30000000E+03</pdfrwt>
<pdfrwt beam="2">0</pdfrwt>
<totfact> 0.22706716E+04</totfact>
</mgrwt>
</event>
<event>
 6    1  0.1270461E-001  0.3000000E+03  0.7818608E-02  0.1093470E+00
         21   -1    0    0  501  502  0.00000000000E+00  0.00000000000E+00  0.16382371656E+01  0.16382371656E+01  0.00000000000E+00 0. -1.
         13   -1    0    0    0    0 -0.00000000000E+00 -0.00000000000E+00 -0.10000000000E+04  0.10000000000E+04  0.00000000000E+00 0.  1.
    9000005    2    1    2  501    0 -0.15494837299E+02  0.37306045242E+02 -0.51406270312E+03  0.51565736282E+03  0.31972005741E+01 0.  0.
         13    1    3    3    0    0 -0.10615372062E+02  0.21671272466E+02 -0.31241186306E+03  0.31334246816E+03  0.00000000000E+00 0.  1.
          1    1    3    3  501    0 -0.48794652364E+01  0.15634772776E+02 -0.20165084006E+03  0.20231489465E+03  0.00000000000E+00 0.  1.
         -1    1    1    2    0  502  0.15494837299E+02 -0.37306045242E+02 -0.48429905971E+03  0.48598087435E+03  0.00000000000E+00 0. -1.
<mgrwt>
<rscale>  1 0.30000000E+03</rscale>
<asrwt>0</asrwt>
<pdfrwt beam="1">  1       21 0.59572386E-02 0.30000000E+03</pdfrwt>
<pdfrwt beam="2">0</pdfrwt>
<totfact> 0.21333165E+04</totfact>
</mgrwt>
</event>
<event>
 6    1  0.1270461E-001  0.3000000E+03  0.7818608E-02  0.1093470E+00
         21   -1    0    0  501  502  0.00000000000E+00  0.00000000000E+00  0.49895265914E+01  0.49895265914E+01  0.00000000000E+00 0. -1.
         13   -1    0    0    0    0 -0.00000000000E+00 -0.00000000000E+00 -0.10000000000E+04  0.10000000000E+04  0.00000000000E+00 0.  1.
    9000005    2    1    2  501    0 -0.50564127543E+02 -0.44933980119E+02 -0.64161382427E+03  0.64517709603E+03  0.30646671545E+01 0.  0.
         13    1    3    3    0    0 -0.47232269293E+02 -0.41840409533E+02 -0.60520235554E+03  0.60848286606E+03  0.00000000000E+00 0.  1.
          3    1    3    3  501    0 -0.33318582507E+01 -0.30935705860E+01 -0.36411468728E+02  0.36694229973E+02  0.00000000000E+00 0.  1.
         -1    1    1    2    0  502  0.50564127543E+02  0.44933980119E+02 -0.35339664914E+03  0.35981243056E+03  0.00000000000E+00 0. -1.
<mgrwt>
<rscale>  1 0.30000000E+03</rscale>
<asrwt>0</asrwt>
<pdfrwt beam="1">  1       21 0.18143771E-01 0.30000000E+03</pdfrwt>
<pdfrwt beam="2">0</pdfrwt>
<totfact> 0.28859655E+03</totfact>
</mgrwt>
</event>
<event>
 6    1  0.1270461E-001  0.3000000E+03  0.7818608E-02  0.1093470E+00
         21   -1    0    0  501  502  0.00000000000E+00  0.00000000000E+00  0.13266563633E+01  0.13266563633E+01  0.00000000000E+00 0. -1.
         13   -1    0    0    0    0 -0.00000000000E+00 -0.00000000000E+00 -0.10000000000E+04  0.10000000000E+04  0.00000000000E+00 0.  1.
    9000005    2    1    2  501    0 -0.26366899644E+02  0.21149506514E+02 -0.68486219740E+03  0.68570037336E+03  0.25015136293E+01 0.  0.
         13    1    3    3    0    0 -0.13575955175E+02  0.11891118973E+02 -0.38488701784E+03  0.38530990355E+03  0.00000000000E+00 0.  1.
          1    1    3    3  501    0 -0.12790944468E+02  0.92583875413E+01 -0.29997517956E+03  0.30039046981E+03  0.00000000000E+00 0.  1.
         -1    1    1    2    0  502  0.26366899644E+02 -0.21149506514E+02 -0.31381114624E+03  0.31562628301E+03  0.00000000000E+00 0. -1.
<mgrwt>
<rscale>  1 0.30000000E+03</rscale>
<asrwt>0</asrwt>
<pdfrwt beam="1">  1       21 0.48242151E-02 0.30000000E+03</pdfrwt>
<pdfrwt beam="2">0</pdfrwt>
<totfact> 0.30615240E+04</totfact>
</mgrwt>
</event>
<event>
 6    1  0.1270461E-001  0.3000000E+03  0.7818608E-02  0.1093470E+00
         21   -1    0    0  501  502  0.00000000000E+00  0.00000000000E+00  0.69364215897E+01  0.69364215897E+01  0.00000000000E+00 0. -1.
         13   -1    0    0    0    0 -0.00000000000E+00 -0.00000000000E+00 -0.10000000000E+04  0.10000000000E+04  0.00000000000E+00 0.  1.
    9000005    2    1    2  501    0  0.66648764093E+02 -0.34473348544E+02 -0.71475590136E+03  0.71869063651E+03  0.31245725229E+01 0.  0.
         13    1    3    3    0    0  0.13776065886E+02 -0.79873194737E+01 -0.14207679738E+03  0.14296640730E+03  0.00000000000E+00 0.  1.
          3    1    3    3  501    0  0.52872698207E+02 -0.26486029070E+02 -0.57267910399E+03  0.57572422920E+03  0.00000000000E+00 0.  1.
         -3    1    1    2    0  502 -0.66648764093E+02  0.34473348544E+02 -0.27830767705E+03  0.28824578508E+03  0.00000000000E+00 0. -1.
<mgrwt>
<rscale>  1 0.30000000E+03</rscale>
<asrwt>0</asrwt>
<pdfrwt beam="1">  1       21 0.25223404E-01 0.30000000E+03</pdfrwt>
<pdfrwt beam="2">0</pdfrwt>
<totfact> 0.15326571E+03</totfact>
</mgrwt>
</event>
<event>
 6    1  0.1270461E-001  0.3000000E+03  0.7818608E-02  0.1093470E+00
         21   -1    0    0  501  502  0.00000000000E+00  0.00000000000E+00  0.18528556075E+01  0.18528556075E+01  0.00000000000E+00 0. -1.
         13   -1    0    0    0    0 -0.00000000000E+00 -0.00000000000E+00 -0.10000000000E+04  0.10000000000E+04  0.00000000000E+00 0.  1.
    9000005    2    1    2  501    0 -0.17323049364E+01  0.35270558167E+02 -0.78268451877E+03  0.78351560227E+03  0.73912061377E+01 0.  0.
         13    1    3    3    0    0  0.17315285591E+01  0.25948170939E+02 -0.53549514738E+03  0.53612625251E+03  0.00000000000E+00 0.  1.
          1    1    3    3  501    0 -0.34638334955E+01  0.93223872283E+01 -0.24718937139E+03  0.24738934976E+03  0.00000000000E+00 0.  1.
         -3    1    1    2    0  502  0.17323049364E+01 -0.35270558167E+02 -0.21546262562E+03  0.21833725334E+03  0.00000000000E+00 0. -1.
<mgrwt>
<rscale>  1 0.30000000E+03</rscale>
<asrwt>0</asrwt>
<pdfrwt beam="1">  1       21 0.67376710E-02 0.30000000E+03</pdfrwt>
<pdfrwt beam="2">0</pdfrwt>
<totfact> 0.17242627E+04</totfact>
</mgrwt>
</event>
<event>
 6    1  0.1270461E-001  0.3000000E+03  0.7818608E-02  0.1093470E+00
         21   -1    0    0  501  502  0.00000000000E+00  0.00000000000E+00  0.43073444173E+01  0.43073444173E+01  0.00000000000E+00 0. -1.
         13   -1    0    0    0    0 -0.00000000000E+00 -0.00000000000E+00 -0.10000000000E+04  0.10000000000E+04  0.00000000000E+00 0.  1.
    9000005    2    1    2  501    0 -0.12109379244E+02 -0.54986159952E+02 -0.75550695390E+03  0.75761059506E+03  0.35974296393E+01 0.  0.
         13    1    3    3    0    0 -0.37524980999E+00 -0.71105861200E+01 -0.91901532637E+02  0.92176965390E+02  0.00000000000E+00 0.  1.
          3    1    3    3  501    0 -0.11734129434E+02 -0.47875573832E+02 -0.66360542126E+03  0.66543362967E+03  0.00000000000E+00 0.  1.
         -3    1    1    2    0  502  0.12109379244E+02  0.54986159952E+02 -0.24018570168E+03  0.24669674936E+03  0.00000000000E+00 0. -1.
<mgrwt>
<rscale>  1 0.30000000E+03</rscale>
<asrwt>0</asrwt>
<pdfrwt beam="1">  1       21 0.15663104E-01 0.30000000E+03</pdfrwt>
<pdfrwt beam="2">0</pdfrwt>
<totfact> 0.38003492E+03</totfact>
</mgrwt>
</event>
<event>
 6    1  0.1270461E-001  0.3000000E+03  0.7818608E-02  0.1093470E+00
         21   -1    0    0  501  502  0.00000000000E+00  0.00000000000E+00  0.18341735637E+01  0.18341735637E+01  0.00000000000E+00 0. -1.
         13   -1    0    0    0    0 -0.00000000000E+00 -0.00000000000E+00 -0.10000000000E+04  0.10000000000E+04  0.00000000000E+00 0.  1.
    9000005    2    1    2  501    0 -0.99874747101E+01  0.39293112964E+02 -0.65896471011E+03  0.66021875281E+03  0.32579163075E+01 0.  0.
         13    1    3    3    0    0 -0.69554974551E+01  0.21954998670E+02 -0.35862853225E+03  0.35936725651E+03  0.00000000000E+00 0.  1.
          3    1    3    3  501    0 -0.30319772551E+01  0.17338114294E+02 -0.30033617786E+03  0.30085149630E+03  0.00000000000E+00 0.  1.
         -3    1    1    2    0  502  0.99874747101E+01 -0.39293112964E+02 -0.33920111633E+03  0.34161542075E+03  0.00000000000E+00 0. -1.
<mgrwt>
<rscale>  1 0.30000000E+03</rscale>
<asrwt>0</asrwt>
<pdfrwt beam="1">  1       21 0.66697361E-02 0.30000000E+03</pdfrwt>
<pdfrwt beam="2">0</pdfrwt>
<totfact> 0.17548435E+04</totfact>
</mgrwt>
</event>
<event>
 6    1  0.1270461E-001  0.3000000E+03  0.7818608E-02  0.1093470E+00
         21   -1    0    0  501  502  0.00000000000E+00  0.00000000000E+00  0.13729733806E+01  0.13729733806E+01  0.00000000000E+00 0. -1.
         13   -1    0    0    0    0 -0.00000000000E+00 -0.00000000000E+00 -0.10000000000E+04  0.10000000000E+04  0.00000000000E+00 0.  1.
    9000005    2    1    2  501    0  0.34661466379E+02 -0.33308144642E+01 -0.66828819484E+03  0.66920395713E+03  0.35090308239E+01 0.  0.
         13    1    3    3    0    0  0.10509086958E+02 -0.22668328436E+01 -0.18656630130E+03  0.18687579892E+03  0.00000000000E+00 0.  1.
          3    1    3    3  501    0  0.24152379421E+02 -0.10639816205E+01 -0.48172189354E+03  0.48232815821E+03  0.00000000000E+00 0.  1.
         -3    1    1    2    0  502 -0.34661466379E+02  0.33308144642E+01 -0.33033883178E+03  0.33216901625E+03  0.00000000000E+00 0. -1.
<mgrwt>
<rscale>  1 0.30000000E+03</rscale>
<asrwt>0</asrwt>
<pdfrwt beam="1">  1       21 0.49926410E-02 0.30000000E+03</pdfrwt>
<pdfrwt beam="2">0</pdfrwt>
<totfact> 0.28877068E+04</totfact>
</mgrwt>
</event>
<event>
 6    1  0.1270461E-001  0.3000000E+03  0.7818608E-02  0.1093470E+00
         21   -1    0    0  501  502  0.00000000000E+00  0.00000000000E+00  0.25786884153E+01  0.25786884153E+01  0.00000000000E+00 0. -1.
         13   -1    0    0    0    0 -0.00000000000E+00 -0.00000000000E+00 -0.10000000000E+04  0.10000000000E+04  0.00000000000E+00 0.  1.
    9000005    2    1    2  501    0  0.34574074534E+02  0.21414712030E+02 -0.79856825256E+03  0.79960948975E+03  0.31820730616E+01 0.  0.
         13    1    3    3    0    0  0.28838702146E+02  0.18574067406E+02 -0.69118187921E+03  0.69203255477E+03  0.00000000000E+00 0.  1.
          3    1    3    3  501    0  0.57353723880E+01  0.28406446241E+01 -0.10738637335E+03  0.10757693498E+03  0.00000000000E+00 0.  1.
         -3    1    1    2    0  502 -0.34574074534E+02 -0.21414712030E+02 -0.19885305903E+03  0.20296919866E+03  0.00000000000E+00 0. -1.
<mgrwt>
<rscale>  1 0.30000000E+03</rscale>
<asrwt>0</asrwt>
<pdfrwt beam="1">  1       21 0.93770686E-02 0.30000000E+03</pdfrwt>
<pdfrwt beam="2">0</pdfrwt>
<totfact> 0.96488592E+03</totfact>
</mgrwt>
</event>
<event>
 6    1  0.1270461E-001  0.3000000E+03  0.7818608E-02  0.1093470E+00
         21   -1    0    0  501  502  0.00000000000E+00  0.00000000000E+00  0.13203615937E+01  0.13203615937E+01  0.00000000000E+00 0. -1.
         13   -1    0    0    0    0 -0.00000000000E+00 -0.00000000000E+00 -0.10000000000E+04  0.10000000000E+04  0.00000000000E+00 0.  1.
    9000005    2    1    2  501    0 -0.10921909259E+02 -0.32878447288E+02 -0.35136410132E+03  0.35307836592E+03  0.27056216267E+01 0.  0.
         13    1    3    3    0    0 -0.40598851613E+01 -0.15819108836E+02 -0.15784910684E+03  0.15869173703E+03  0.00000000000E+00 0.  1.
          1    1    3    3  501    0 -0.68620240976E+01 -0.17059338452E+02 -0.19351499448E+03  0.19438662889E+03  0.00000000000E+00 0.  1.
         -1    1    1    2    0  502  0.10921909259E+02  0.32878447288E+02 -0.64731553709E+03  0.64824199567E+03  0.00000000000E+00 0. -1.
<mgrwt>
<rscale>  1 0.30000000E+03</rscale>
<asrwt>0</asrwt>
<pdfrwt beam="1">  1       21 0.48013250E-02 0.30000000E+03</pdfrwt>
<pdfrwt beam="2">0</pdfrwt>
<totfact> 0.30864043E+04</totfact>
</mgrwt>
</event>
<event>
 6    1  0.1270461E-001  0.3000000E+03  0.7818608E-02  0.1093470E+00
         21   -1    0    0  501  502  0.00000000000E+00  0.00000000000E+00  0.17032754192E+01  0.17032754192E+01  0.00000000000E+00 0. -1.
         13   -1    0    0    0    0 -0.00000000000E+00 -0.00000000000E+00 -0.10000000000E+04  0.10000000000E+04  0.00000000000E+00 0.  1.
    9000005    2    1    2  501    0  0.21836200591E+02 -0.34347638719E+02 -0.42146171139E+03  0.42343412322E+03  0.31468393494E+01 0.  0.
         13    1    3    3    0    0  0.38064980385E-01  0.70838171313E-01 -0.67830845359E+00  0.68305881698E+00  0.00000000000E+00 0.  1.
          3    1    3    3  501    0  0.21798135611E+02 -0.34418476891E+02 -0.42078340294E+03  0.42275106440E+03  0.00000000000E+00 0.  1.
         -3    1    1    2    0  502 -0.21836200591E+02  0.34347638719E+02 -0.57683501319E+03  0.57826915220E+03  0.00000000000E+00 0. -1.
<mgrwt>
<rscale>  1 0.30000000E+03</rscale>
<asrwt>0</asrwt>
<pdfrwt beam="1">  1       21 0.61937419E-02 0.30000000E+03</pdfrwt>
<pdfrwt beam="2">0</pdfrwt>
<totfact> 0.19947101E+04</totfact>
</mgrwt>
</event>
<event>
 6    1  0.1270461E-001  0.3000000E+03  0.7818608E-02  0.1093470E+00
         21   -1    0    0  501  502  0.00000000000E+00  0.00000000000E+00  0.25203473846E+01  0.25203473846E+01  0.00000000000E+00 0. -1.
         13   -1    0    0    0    0 -0.00000000000E+00 -0.00000000000E+00 -0.10000000000E+04  0.10000000000E+04  0.00000000000E+00 0.  1.
    9000005    2    1    2  501    0  0.11892006152E+02  0.43201942974E+02 -0.27469023005E+03  0.27834331305E+03  0.35284198959E+01 0.  0.
         13    1    3    3    0    0  0.85641827849E+01  0.28351004857E+02 -0.17192776620E+03  0.17445997103E+03  0.00000000000E+00 0.  1.
          1    1    3    3  501    0  0.33278233676E+01  0.14850938117E+02 -0.10276246385E+03  0.10388334202E+03  0.00000000000E+00 0.  1.
         -1    1    1    2    0  502 -0.11892006152E+02 -0.43201942974E+02 -0.72278942256E+03  0.72417703433E+03  0.00000000000E+00 0. -1.
<mgrwt>
<rscale>  1 0.30000000E+03</rscale>
<asrwt>0</asrwt>
<pdfrwt beam="1">  1       21 0.91649189E-02 0.30000000E+03</pdfrwt>
<pdfrwt beam="2">0</pdfrwt>
<totfact> 0.10049259E+04</totfact>
</mgrwt>
</event>
<event>
 6    1  0.1270461E-001  0.3000000E+03  0.7818608E-02  0.1093470E+00
         21   -1    0    0  501  502  0.00000000000E+00  0.00000000000E+00  0.51588608424E+01  0.51588608424E+01  0.00000000000E+00 0. -1.
         13   -1    0    0    0    0 -0.00000000000E+00 -0.00000000000E+00 -0.10000000000E+04  0.10000000000E+04  0.00000000000E+00 0.  1.
    9000005    2    1    2  501    0  0.14314035943E+02  0.64394701198E+02 -0.29946305282E+03  0.30665885932E+03  0.31570283823E+01 0.  0.
         13    1    3    3    0    0  0.30420951540E+01  0.95064051122E+01 -0.48498512867E+02  0.49514965731E+02  0.00000000000E+00 0.  1.
          3    1    3    3  501    0  0.11271940789E+02  0.54888296086E+02 -0.25096453996E+03  0.25714389359E+03  0.00000000000E+00 0.  1.
         -3    1    1    2    0  502 -0.14314035943E+02 -0.64394701198E+02 -0.69537808633E+03  0.69850000152E+03  0.00000000000E+00 0. -1.
<mgrwt>
<rscale>  1 0.30000000E+03</rscale>
<asrwt>0</asrwt>
<pdfrwt beam="1">  1       21 0.18759534E-01 0.30000000E+03</pdfrwt>
<pdfrwt beam="2">0</pdfrwt>
<totfact> 0.27096697E+03</totfact>
</mgrwt>
</event>
<event>
 6    1  0.1270461E-001  0.3000000E+03  0.7818608E-02  0.1093470E+00
         21   -1    0    0  501  502  0.00000000000E+00  0.00000000000E+00  0.12489879600E+01  0.12489879600E+01  0.00000000000E+00 0. -1.
         13   -1    0    0    0    0 -0.00000000000E+00 -0.00000000000E+00 -0.10000000000E+04  0.10000000000E+04  0.00000000000E+00 0.  1.
    9000005    2    1    2  501    0  0.11179943856E+01  0.32900718956E+02 -0.67935401210E+03  0.68015998038E+03  0.34666889562E+01 0.  0.
         13    1    3    3    0    0  0.98133028941E-01  0.47970607353E+01 -0.12688392877E+03  0.12697461480E+03  0.00000000000E+00 0.  1.
          1    1    3    3  501    0  0.10198613567E+01  0.28103658221E+02 -0.55247008333E+03  0.55318536558E+03  0.00000000000E+00 0.  1.
         -3    1    1    2    0  502 -0.11179943856E+01 -0.32900718956E+02 -0.31939699994E+03  0.32108900758E+03  0.00000000000E+00 0. -1.
<mgrwt>
<rscale>  1 0.30000000E+03</rscale>
<asrwt>0</asrwt>
<pdfrwt beam="1">  1       21 0.45417840E-02 0.30000000E+03</pdfrwt>
<pdfrwt beam="2">0</pdfrwt>
<totfact> 0.33921777E+04</totfact>
</mgrwt>
</event>
<event>
 6    1  0.1270461E-001  0.3000000E+03  0.7818608E-02  0.1093470E+00
         21   -1    0    0  501  502  0.00000000000E+00  0.00000000000E+00  0.16966817021E+01  0.16966817021E+01  0.00000000000E+00 0. -1.
         13   -1    0    0    0    0 -0.00000000000E+00 -0.00000000000E+00 -0.10000000000E+04  0.10000000000E+04  0.00000000000E+00 0.  1.
    9000005    2    1    2  501    0  0.27868094965E+02 -0.24970347774E+02 -0.70733309488E+03  0.70833032388E+03  0.34046487308E+01 0.  0.
         13    1    3    3    0    0  0.56746372759E+01 -0.45153937165E+01 -0.11450293861E+03  0.11473235480E+03  0.00000000000E+00 0.  1.
          3    1    3    3  501    0  0.22193457689E+02 -0.20454954057E+02 -0.59283015627E+03  0.59359796908E+03  0.00000000000E+00 0.  1.
         -1    1    1    2    0  502 -0.27868094965E+02  0.24970347774E+02 -0.29097022342E+03  0.29336635782E+03  0.00000000000E+00 0. -1.
<mgrwt>
<rscale>  1 0.30000000E+03</rscale>
<asrwt>0</asrwt>
<pdfrwt beam="1">  1       21 0.61697647E-02 0.30000000E+03</pdfrwt>
<pdfrwt beam="2">0</pdfrwt>
<totfact> 0.20081154E+04</totfact>
</mgrwt>
</event>
<event>
 6    1  0.1270461E-001  0.3000000E+03  0.7818608E-02  0.1093470E+00
         21   -1    0    0  501  502  0.00000000000E+00  0.00000000000E+00  0.51597257200E+01  0.51597257200E+01  0.00000000000E+00 0. -1.
         13   -1    0    0    0    0 -0.00000000000E+00 -0.00000000000E+00 -0.10000000000E+04  0.10000000000E+04  0.00000000000E+00 0.  1.
    9000005    2    1    2  501    0  0.26054717644E+02 -0.41097959944E+02 -0.86702681377E+03  0.86839653143E+03  0.30247962179E+01 0.  0.
         13    1    3    3    0    0  0.14042182880E+02 -0.20951620731E+02 -0.42481844157E+03  0.42556651843E+03  0.00000000000E+00 0.  1.
          1    1    3    3  501    0  0.12012534764E+02 -0.20146339213E+02 -0.44220837220E+03  0.44283001300E+03  0.00000000000E+00 0.  1.
         -3    1    1    2    0  502 -0.26054717644E+02  0.41097959944E+02 -0.12781346051E+03  0.13676319429E+03  0.00000000000E+00 0. -1.
<mgrwt>
<rscale>  1 0.30000000E+03</rscale>
<asrwt>0</asrwt>
<pdfrwt beam="1">  1       21 0.18762679E-01 0.30000000E+03</pdfrwt>
<pdfrwt beam="2">0</pdfrwt>
<totfact> 0.27088102E+03</totfact>
</mgrwt>
</event>
<event>
 6    1  0.1270461E-001  0.3000000E+03  0.7818608E-02  0.1093470E+00
         21   -1    0    0  501  502  0.00000000000E+00  0.00000000000E+00  0.17265423553E+01  0.17265423553E+01  0.00000000000E+00 0. -1.
         13   -1    0    0    0    0 -0.00000000000E+00 -0.00000000000E+00 -0.10000000000E+04  0.10000000000E+04  0.00000000000E+00 0.  1.
    9000005    2    1    2  501    0  0.27935948561E+02  0.26117250560E+02 -0.69369576670E+03  0.69475732921E+03  0.33766481213E+01 0.  0.
         13    1    3    3    0    0  0.24527846720E+02  0.22370359100E+02 -0.58073506092E+03  0.58168312612E+03  0.00000000000E+00 0.  1.
          1    1    3    3  501    0  0.34081018410E+01  0.37468914603E+01 -0.11296070577E+03  0.11307420308E+03  0.00000000000E+00 0.  1.
         -1    1    1    2    0  502 -0.27935948561E+02 -0.26117250560E+02 -0.30457769095E+03  0.30696921315E+03  0.00000000000E+00 0. -1.
<mgrwt>
<rscale>  1 0.30000000E+03</rscale>
<asrwt>0</asrwt>
<pdfrwt beam="1">  1       21 0.62783491E-02 0.30000000E+03</pdfrwt>
<pdfrwt beam="2">0</pdfrwt>
<totfact> 0.19484998E+04</totfact>
</mgrwt>
</event>
<event>
 6    1  0.1270461E-001  0.3000000E+03  0.7818608E-02  0.1093470E+00
         21   -1    0    0  501  502  0.00000000000E+00  0.00000000000E+00  0.10825669940E+01  0.10825669940E+01  0.00000000000E+00 0. -1.
         13   -1    0    0    0    0 -0.00000000000E+00 -0.00000000000E+00 -0.10000000000E+04  0.10000000000E+04  0.00000000000E+00 0.  1.
    9000005    2    1    2  501    0  0.19807599878E+02  0.23113342341E+02 -0.68764556584E+03  0.68832588378E+03  0.30871431149E+01 0.  0.
         13    1    3    3    0    0  0.99926878384E+01  0.12188661688E+02 -0.32201421983E+03  0.32239971318E+03  0.00000000000E+00 0.  1.
          1    1    3    3  501    0  0.98149120399E+01  0.10924680653E+02 -0.36563134601E+03  0.36592617060E+03  0.00000000000E+00 0.  1.
         -1    1    1    2    0  502 -0.19807599878E+02 -0.23113342341E+02 -0.31127186716E+03  0.31275668321E+03  0.00000000000E+00 0. -1.
<mgrwt>
<rscale>  1 0.30000000E+03</rscale>
<asrwt>0</asrwt>
<pdfrwt beam="1">  1       21 0.39366156E-02 0.30000000E+03</pdfrwt>
<pdfrwt beam="2">0</pdfrwt>
<totfact> 0.43193248E+04</totfact>
</mgrwt>
</event>
<event>
 6    1  0.1270461E-001  0.3000000E+03  0.7818608E-02  0.1093470E+00
         21   -1    0    0  501  502  0.00000000000E+00  0.00000000000E+00  0.24524406351E+01  0.24524406351E+01  0.00000000000E+00 0. -1.
         13   -1    0    0    0    0 -0.00000000000E+00 -0.00000000000E+00 -0.10000000000E+04  0.10000000000E+04  0.00000000000E+00 0.  1.
    9000005    2    1    2  501    0 -0.47108562663E+02 -0.15020745470E+02 -0.51360798460E+03  0.51599344802E+03  0.33521762855E+01 0.  0.
         13    1    3    3    0    0 -0.12613294438E-01  0.18493186872E-01 -0.24659910269E+01  0.24660926256E+01  0.00000000000E+00 0.  1.
          3    1    3    3  501    0 -0.47095949369E+02 -0.15039238657E+02 -0.51114199357E+03  0.51352735540E+03  0.00000000000E+00 0.  1.
         -1    1    1    2    0  502  0.47108562663E+02  0.15020745470E+02 -0.48393957477E+03  0.48645899261E+03  0.00000000000E+00 0. -1.
<mgrwt>
<rscale>  1 0.30000000E+03</rscale>
<asrwt>0</asrwt>
<pdfrwt beam="1">  1       21 0.89179848E-02 0.30000000E+03</pdfrwt>
<pdfrwt beam="2">0</pdfrwt>
<totfact> 0.10547711E+04</totfact>
</mgrwt>
</event>
<event>
 6    1  0.1270461E-001  0.3000000E+03  0.7818608E-02  0.1093470E+00
         21   -1    0    0  501  502  0.00000000000E+00  0.00000000000E+00  0.23786207022E+01  0.23786207022E+01  0.00000000000E+00 0. -1.
         13   -1    0    0    0    0 -0.00000000000E+00 -0.00000000000E+00 -0.10000000000E+04  0.10000000000E+04  0.00000000000E+00 0.  1.
    9000005    2    1    2  501    0  0.17786933168E+02  0.30411960568E+02 -0.84512429407E+03  0.84586464900E+03  0.32664433688E+01 0.  0.
         13    1    3    3    0    0  0.10973122282E+02  0.16331155851E+02 -0.49600915731E+03  0.49639923469E+03  0.00000000000E+00 0.  1.
          3    1    3    3  501    0  0.68138108854E+01  0.14080804717E+02 -0.34911513676E+03  0.34946541431E+03  0.00000000000E+00 0.  1.
         -1    1    1    2    0  502 -0.17786933168E+02 -0.30411960568E+02 -0.15249708523E+03  0.15651397171E+03  0.00000000000E+00 0. -1.
<mgrwt>
<rscale>  1 0.30000000E+03</rscale>
<asrwt>0</asrwt>
<pdfrwt beam="1">  1       21 0.86495481E-02 0.30000000E+03</pdfrwt>
<pdfrwt beam="2">0</pdfrwt>
<totfact> 0.11133308E+04</totfact>
</mgrwt>
</event>
<event>
 6    1  0.1270461E-001  0.3000000E+03  0.7818608E-02  0.1093470E+00
         21   -1    0    0  501  502  0.00000000000E+00  0.00000000000E+00  0.38612420260E+01  0.38612420260E+01  0.00000000000E+00 0. -1.
         13   -1    0    0    0    0 -0.00000000000E+00 -0.00000000000E+00 -0.10000000000E+04  0.10000000000E+04  0.00000000000E+00 0.  1.
    9000005    2    1    2  501    0  0.28621927747E+02  0.19248033525E+02 -0.91551804581E+03  0.91617201365E+03  0.28574215298E+01 0.  0.
         13    1    3    3    0    0  0.16124369235E+01  0.82882816268E+00 -0.66691412080E+02  0.66716050199E+02  0.00000000000E+00 0.  1.
          3    1    3    3  501    0  0.27009490824E+02  0.18419205362E+02 -0.84882663373E+03  0.84945596346E+03  0.00000000000E+00 0.  1.
         -3    1    1    2    0  502 -0.28621927747E+02 -0.19248033525E+02 -0.80620712165E+02  0.87689228372E+02  0.00000000000E+00 0. -1.
<mgrwt>
<rscale>  1 0.30000000E+03</rscale>
<asrwt>0</asrwt>
<pdfrwt beam="1">  1       21 0.14040910E-01 0.30000000E+03</pdfrwt>
<pdfrwt beam="2">0</pdfrwt>
<totfact> 0.46516684E+03</totfact>
</mgrwt>
</event>
<event>
 6    1  0.1270461E-001  0.3000000E+03  0.7818608E-02  0.1093470E+00
         21   -1    0    0  501  502  0.00000000000E+00  0.00000000000E+00  0.58512431897E+01  0.58512431897E+01  0.00000000000E+00 0. -1.
         13   -1    0    0    0    0 -0.00000000000E+00 -0.00000000000E+00 -0.10000000000E+04  0.10000000000E+04  0.00000000000E+00 0.  1.
    9000005    2    1    2  501    0 -0.19909532768E+01 -0.48871828846E+02 -0.88366243362E+03  0.88502224351E+03  0.35574401344E+01 0.  0.
         13    1    3    3    0    0 -0.63475156611E+00 -0.12666530395E+01 -0.25037792309E+02  0.25077846064E+02  0.00000000000E+00 0.  1.
          1    1    3    3  501    0 -0.13562017107E+01 -0.47605175806E+02 -0.85862464131E+03  0.85994439745E+03  0.00000000000E+00 0.  1.
         -3    1    1    2    0  502  0.19909532768E+01  0.48871828846E+02 -0.11048632319E+03  0.12082899968E+03  0.00000000000E+00 0. -1.
<mgrwt>
<rscale>  1 0.30000000E+03</rscale>
<asrwt>0</asrwt>
<pdfrwt beam="1">  1       21 0.21277293E-01 0.30000000E+03</pdfrwt>
<pdfrwt beam="2">0</pdfrwt>
<totfact> 0.21311227E+03</totfact>
</mgrwt>
</event>
<event>
 6    1  0.1270461E-001  0.3000000E+03  0.7818608E-02  0.1093470E+00
         21   -1    0    0  501  502  0.00000000000E+00  0.00000000000E+00  0.81409082753E+01  0.81409082753E+01  0.00000000000E+00 0. -1.
         13   -1    0    0    0    0 -0.00000000000E+00 -0.00000000000E+00 -0.10000000000E+04  0.10000000000E+04  0.00000000000E+00 0.  1.
    9000005    2    1    2  501    0 -0.35155092720E+02  0.29264119656E+02 -0.93039987151E+03  0.93152821355E+03  0.29364080786E+01 0.  0.
         13    1    3    3    0    0 -0.11712843765E+02  0.11553315292E+02 -0.32890102106E+03  0.32931224006E+03  0.00000000000E+00 0.  1.
          3    1    3    3  501    0 -0.23442248955E+02  0.17710804364E+02 -0.60149885046E+03  0.60221597349E+03  0.00000000000E+00 0.  1.
         -3    1    1    2    0  502  0.35155092720E+02 -0.29264119656E+02 -0.61459220212E+02  0.76612694721E+02  0.00000000000E+00 0. -1.
<mgrwt>
<rscale>  1 0.30000000E+03</rscale>
<asrwt>0</asrwt>
<pdfrwt beam="1">  1       21 0.29603365E-01 0.30000000E+03</pdfrwt>
<pdfrwt beam="2">0</pdfrwt>
<totfact> 0.11165887E+03</totfact>
</mgrwt>
</event>
<event>
 6    1  0.1270461E-001  0.3000000E+03  0.7818608E-02  0.1093470E+00
         21   -1    0    0  501  502  0.00000000000E+00  0.00000000000E+00  0.18586318226E+01  0.18586318226E+01  0.00000000000E+00 0. -1.
         13   -1    0    0    0    0 -0.00000000000E+00 -0.00000000000E+00 -0.10000000000E+04  0.10000000000E+04  0.00000000000E+00 0.  1.
    9000005    2    1    2  501    0 -0.32498467697E+02  0.12134224914E+02 -0.79603856732E+03  0.79680026956E+03  0.31431040578E+01 0.  0.
         13    1    3    3    0    0 -0.37849830346E+01  0.62066918828E+00 -0.10364967887E+03  0.10372062117E+03  0.00000000000E+00 0.  1.
          1    1    3    3  501    0 -0.28713484662E+02  0.11513555726E+02 -0.69238888845E+03  0.69307964839E+03  0.00000000000E+00 0.  1.
         -3    1    1    2    0  502  0.32498467697E+02 -0.12134224914E+02 -0.20210280086E+03  0.20505836226E+03  0.00000000000E+00 0. -1.
<mgrwt>
<rscale>  1 0.30000000E+03</rscale>
<asrwt>0</asrwt>
<pdfrwt beam="1">  1       21 0.67586754E-02 0.30000000E+03</pdfrwt>
<pdfrwt beam="2">0</pdfrwt>
<totfact> 0.17149731E+04</totfact>
</mgrwt>
</event>
<event>
 6    1  0.1270461E-001  0.3000000E+03  0.7818608E-02  0.1093470E+00
         21   -1    0    0  501  502  0.00000000000E+00  0.00000000000E+00  0.14148511683E+01  0.14148511683E+01  0.00000000000E+00 0. -1.
         13   -1    0    0    0    0 -0.00000000000E+00 -0.00000000000E+00 -0.10000000000E+04  0.10000000000E+04  0.00000000000E+00 0.  1.
    9000005    2    1    2  501    0  0.32919469030E+02  0.16012414422E+02 -0.44188347250E+03  0.44351087620E+03  0.10040178316E+02 0.  0.
         13    1    3    3    0    0  0.12420159571E+02  0.69359710280E+01 -0.23139676809E+03  0.23183363073E+03  0.00000000000E+00 0.  1.
          1    1    3    3  501    0  0.20499309459E+02  0.90764433938E+01 -0.21048670441E+03  0.21167724546E+03  0.00000000000E+00 0.  1.
         -3    1    1    2    0  502 -0.32919469030E+02 -0.16012414422E+02 -0.55670167633E+03  0.55790397497E+03  0.00000000000E+00 0. -1.
<mgrwt>
<rscale>  1 0.30000000E+03</rscale>
<asrwt>0</asrwt>
<pdfrwt beam="1">  1       21 0.51449242E-02 0.30000000E+03</pdfrwt>
<pdfrwt beam="2">0</pdfrwt>
<totfact> 0.27434259E+04</totfact>
</mgrwt>
</event>
<event>
 6    1  0.1270461E-001  0.3000000E+03  0.7818608E-02  0.1093470E+00
         21   -1    0    0  501  502  0.00000000000E+00  0.00000000000E+00  0.16616620152E+01  0.16616620152E+01  0.00000000000E+00 0. -1.
         13   -1    0    0    0    0 -0.00000000000E+00 -0.00000000000E+00 -0.10000000000E+04  0.10000000000E+04  0.00000000000E+00 0.  1.
    9000005    2    1    2  501    0  0.26753597541E+00  0.34775739756E+02 -0.75917687473E+03  0.75998495822E+03  0.42644982070E+01 0.  0.
         13    1    3    3    0    0 -0.78330062057E+00  0.22651567883E+02 -0.53156208592E+03  0.53204507166E+03  0.00000000000E+00 0.  1.
          3    1    3    3  501    0  0.10508365960E+01  0.12124171873E+02 -0.22761478881E+03  0.22793988656E+03  0.00000000000E+00 0.  1.
         -1    1    1    2    0  502 -0.26753597541E+00 -0.34775739756E+02 -0.23916146325E+03  0.24167670379E+03  0.00000000000E+00 0. -1.
<mgrwt>
<rscale>  1 0.30000000E+03</rscale>
<asrwt>0</asrwt>
<pdfrwt beam="1">  1       21 0.60424201E-02 0.30000000E+03</pdfrwt>
<pdfrwt beam="2">0</pdfrwt>
<totfact> 0.20817151E+04</totfact>
</mgrwt>
</event>
<event>
 6    1  0.1270461E-001  0.3000000E+03  0.7818608E-02  0.1093470E+00
         21   -1    0    0  501  502  0.00000000000E+00  0.00000000000E+00  0.11941013311E+02  0.11941013311E+02  0.00000000000E+00 0. -1.
         13   -1    0    0    0    0 -0.00000000000E+00 -0.00000000000E+00 -0.10000000000E+04  0.10000000000E+04  0.00000000000E+00 0.  1.
    9000005    2    1    2  501    0  0.98382807137E+02 -0.30501832558E+02 -0.66103898273E+03  0.66908299383E+03  0.94856428610E+01 0.  0.
         13    1    3    3    0    0  0.24924262202E+02 -0.38791314374E+01 -0.17289849561E+03  0.17472880785E+03  0.00000000000E+00 0.  1.
          1    1    3    3  501    0  0.73458544935E+02 -0.26622701120E+02 -0.48814048712E+03  0.49435418599E+03  0.00000000000E+00 0.  1.
         -3    1    1    2    0  502 -0.98382807137E+02  0.30501832558E+02 -0.32702000396E+03  0.34285801948E+03  0.00000000000E+00 0. -1.
<mgrwt>
<rscale>  1 0.30000000E+03</rscale>
<asrwt>0</asrwt>
<pdfrwt beam="1">  1       21 0.43421958E-01 0.30000000E+03</pdfrwt>
<pdfrwt beam="2">0</pdfrwt>
<totfact> 0.50818616E+02</totfact>
</mgrwt>
</event>
<event>
 6    1  0.1270461E-001  0.3000000E+03  0.7818608E-02  0.1093470E+00
         21   -1    0    0  501  502  0.00000000000E+00  0.00000000000E+00  0.19389833847E+01  0.19389833847E+01  0.00000000000E+00 0. -1.
         13   -1    0    0    0    0 -0.00000000000E+00 -0.00000000000E+00 -0.10000000000E+04  0.10000000000E+04  0.00000000000E+00 0.  1.
    9000005    2    1    2  501    0 -0.33458968806E+02  0.74797380493E+01 -0.80956462140E+03  0.81034999601E+03  0.98382281382E+01 0.  0.
         13    1    3    3    0    0 -0.98091260484E+01 -0.12872321829E+00 -0.15200266258E+03  0.15231889231E+03  0.00000000000E+00 0.  1.
          1    1    3    3  501    0 -0.23649842758E+02  0.76084612676E+01 -0.65756195883E+03  0.65803110370E+03  0.00000000000E+00 0.  1.
         -1    1    1    2    0  502  0.33458968806E+02 -0.74797380493E+01 -0.18849639521E+03  0.19158898737E+03  0.00000000000E+00 0. -1.
<mgrwt>
<rscale>  1 0.30000000E+03</rscale>
<asrwt>0</asrwt>
<pdfrwt beam="1">  1       21 0.70508635E-02 0.30000000E+03</pdfrwt>
<pdfrwt beam="2">0</pdfrwt>
<totfact> 0.15933200E+04</totfact>
</mgrwt>
</event>
<event>
 6    1  0.1270461E-001  0.3000000E+03  0.7818608E-02  0.1093470E+00
         21   -1    0    0  501  502  0.00000000000E+00  0.00000000000E+00  0.20050206231E+01  0.20050206231E+01  0.00000000000E+00 0. -1.
         13   -1    0    0    0    0 -0.00000000000E+00 -0.00000000000E+00 -0.10000000000E+04  0.10000000000E+04  0.00000000000E+00 0.  1.
    9000005    2    1    2  501    0 -0.18157530391E+02 -0.24046604920E+02 -0.86904179809E+03  0.86957821789E+03  0.49694147749E+01 0.  0.
         13    1    3    3    0    0 -0.70485329801E+01 -0.61799931189E+01 -0.23274581943E+03  0.23293451997E+03  0.00000000000E+00 0.  1.
          1    1    3    3  501    0 -0.11108997411E+02 -0.17866611801E+02 -0.63629597866E+03  0.63664369792E+03  0.00000000000E+00 0.  1.
         -1    1    1    2    0  502  0.18157530391E+02  0.24046604920E+02 -0.12895318129E+03  0.13242680273E+03  0.00000000000E+00 0. -1.
<mgrwt>
<rscale>  1 0.30000000E+03</rscale>
<asrwt>0</asrwt>
<pdfrwt beam="1">  1       21 0.72909995E-02 0.30000000E+03</pdfrwt>
<pdfrwt beam="2">0</pdfrwt>
<totfact> 0.15029284E+04</totfact>
</mgrwt>
</event>
<event>
 6    1  0.1270461E-001  0.3000000E+03  0.7818608E-02  0.1093470E+00
         21   -1    0    0  501  502  0.00000000000E+00  0.00000000000E+00  0.12538500980E+01  0.12538500980E+01  0.00000000000E+00 0. -1.
         13   -1    0    0    0    0 -0.00000000000E+00 -0.00000000000E+00 -0.10000000000E+04  0.10000000000E+04  0.00000000000E+00 0.  1.
    9000005    2    1    2  501    0  0.31252265883E+02  0.16489414255E+02 -0.48905169989E+03  0.49033601201E+03  0.30388487074E+01 0.  0.
         13    1    3    3    0    0  0.15429785826E+02  0.92946586554E+01 -0.23330919021E+03  0.23400351965E+03  0.00000000000E+00 0.  1.
          3    1    3    3  501    0  0.15822480057E+02  0.71947555997E+01 -0.25574250968E+03  0.25633249236E+03  0.00000000000E+00 0.  1.
         -1    1    1    2    0  502 -0.31252265883E+02 -0.16489414255E+02 -0.50969445001E+03  0.51091783809E+03  0.00000000000E+00 0. -1.
<mgrwt>
<rscale>  1 0.30000000E+03</rscale>
<asrwt>0</asrwt>
<pdfrwt beam="1">  1       21 0.45594645E-02 0.30000000E+03</pdfrwt>
<pdfrwt beam="2">0</pdfrwt>
<totfact> 0.33698674E+04</totfact>
</mgrwt>
</event>
<event>
 6    1  0.1270461E-001  0.3000000E+03  0.7818608E-02  0.1093470E+00
         21   -1    0    0  501  502  0.00000000000E+00  0.00000000000E+00  0.17609578952E+01  0.17609578952E+01  0.00000000000E+00 0. -1.
         13   -1    0    0    0    0 -0.00000000000E+00 -0.00000000000E+00 -0.10000000000E+04  0.10000000000E+04  0.00000000000E+00 0.  1.
    9000005    2    1    2  501    0 -0.26569083239E+02 -0.14934861821E+02 -0.84307776190E+03  0.84363446057E+03  0.31660966635E+01 0.  0.
         13    1    3    3    0    0 -0.21498381690E+02 -0.11715138578E+02 -0.70805330530E+03  0.70847646964E+03  0.00000000000E+00 0.  1.
          1    1    3    3  501    0 -0.50707015482E+01 -0.32197232432E+01 -0.13502445660E+03  0.13515799093E+03  0.00000000000E+00 0.  1.
         -1    1    1    2    0  502  0.26569083239E+02  0.14934861821E+02 -0.15516128021E+03  0.15812649733E+03  0.00000000000E+00 0. -1.
<mgrwt>
<rscale>  1 0.30000000E+03</rscale>
<asrwt>0</asrwt>
<pdfrwt beam="1">  1       21 0.64034968E-02 0.30000000E+03</pdfrwt>
<pdfrwt beam="2">0</pdfrwt>
<totfact> 0.18831274E+04</totfact>
</mgrwt>
</event>
<event>
 6    1  0.1270461E-001  0.3000000E+03  0.7818608E-02  0.1093470E+00
         21   -1    0    0  501  502  0.00000000000E+00  0.00000000000E+00  0.35255661059E+01  0.35255661059E+01  0.00000000000E+00 0. -1.
         13   -1    0    0    0    0 -0.00000000000E+00 -0.00000000000E+00 -0.10000000000E+04  0.10000000000E+04  0.00000000000E+00 0.  1.
    9000005    2    1    2  501    0 -0.30821502338E+02 -0.82676234499E+00 -0.92697345423E+03  0.92749245019E+03  0.34368242391E+01 0.  0.
         13    1    3    3    0    0 -0.16954242809E+02 -0.29240991798E+00 -0.45831928437E+03  0.45863285783E+03  0.00000000000E+00 0.  1.
          3    1    3    3  501    0 -0.13867259530E+02 -0.53435242701E+00 -0.46865416986E+03  0.46885959236E+03  0.00000000000E+00 0.  1.
         -3    1    1    2    0  502  0.30821502338E+02  0.82676234499E+00 -0.69500979664E+02  0.76033115921E+02  0.00000000000E+00 0. -1.
<mgrwt>
<rscale>  1 0.30000000E+03</rscale>
<asrwt>0</asrwt>
<pdfrwt beam="1">  1       21 0.12820267E-01 0.30000000E+03</pdfrwt>
<pdfrwt beam="2">0</pdfrwt>
<totfact> 0.54943841E+03</totfact>
</mgrwt>
</event>
<event>
 6    1  0.1270461E-001  0.3000000E+03  0.7818608E-02  0.1093470E+00
         21   -1    0    0  501  502  0.00000000000E+00  0.00000000000E+00  0.16801393180E+01  0.16801393180E+01  0.00000000000E+00 0. -1.
         13   -1    0    0    0    0 -0.00000000000E+00 -0.00000000000E+00 -0.10000000000E+04  0.10000000000E+04  0.00000000000E+00 0.  1.
    9000005    2    1    2  501    0  0.39269306115E+02  0.79126945331E+01 -0.39737822809E+03  0.39940484104E+03  0.31751765289E+01 0.  0.
         13    1    3    3    0    0  0.14525375478E+02  0.43873861832E+01 -0.14453877837E+03  0.14533304560E+03  0.00000000000E+00 0.  1.
          1    1    3    3  501    0  0.24743930637E+02  0.35253083499E+01 -0.25283944972E+03  0.25407179544E+03  0.00000000000E+00 0.  1.
         -3    1    1    2    0  502 -0.39269306115E+02 -0.79126945331E+01 -0.60094163259E+03  0.60227529828E+03  0.00000000000E+00 0. -1.
<mgrwt>
<rscale>  1 0.30000000E+03</rscale>
<asrwt>0</asrwt>
<pdfrwt beam="1">  1       21 0.61096104E-02 0.30000000E+03</pdfrwt>
<pdfrwt beam="2">0</pdfrwt>
<totfact> 0.20423692E+04</totfact>
</mgrwt>
</event>
<event>
 6    1  0.1270461E-001  0.3000000E+03  0.7818608E-02  0.1093470E+00
         21   -1    0    0  501  502  0.00000000000E+00  0.00000000000E+00  0.16737904991E+01  0.16737904991E+01  0.00000000000E+00 0. -1.
         13   -1    0    0    0    0 -0.00000000000E+00 -0.00000000000E+00 -0.10000000000E+04  0.10000000000E+04  0.00000000000E+00 0.  1.
    9000005    2    1    2  501    0 -0.32299420646E+02  0.12040694890E+02 -0.76823126148E+03  0.76901112480E+03  0.32569981152E+01 0.  0.
         13    1    3    3    0    0 -0.66568809121E+01  0.38359366480E+01 -0.18110606955E+03  0.18126896288E+03  0.00000000000E+00 0.  1.
          3    1    3    3  501    0 -0.25642539734E+02  0.82047582423E+01 -0.58712519193E+03  0.58774216192E+03  0.00000000000E+00 0.  1.
         -1    1    1    2    0  502  0.32299420646E+02 -0.12040694890E+02 -0.23009494802E+03  0.23266266570E+03  0.00000000000E+00 0. -1.
<mgrwt>
<rscale>  1 0.30000000E+03</rscale>
<asrwt>0</asrwt>
<pdfrwt beam="1">  1       21 0.60865237E-02 0.30000000E+03</pdfrwt>
<pdfrwt beam="2">0</pdfrwt>
<totfact> 0.20557571E+04</totfact>
</mgrwt>
</event>
<event>
 6    1  0.1270461E-001  0.3000000E+03  0.7818608E-02  0.1093470E+00
         21   -1    0    0  501  502  0.00000000000E+00  0.00000000000E+00  0.21612794570E+01  0.21612794570E+01  0.00000000000E+00 0. -1.
         13   -1    0    0    0    0 -0.00000000000E+00 -0.00000000000E+00 -0.10000000000E+04  0.10000000000E+04  0.00000000000E+00 0.  1.
    9000005    2    1    2  501    0 -0.38691125645E+02 -0.85353725064E+01 -0.76034875530E+03  0.76138889861E+03  0.36013127203E+01 0.  0.
         13    1    3    3    0    0 -0.13881080113E+02 -0.26066700692E+01 -0.30370198922E+03  0.30403022444E+03  0.00000000000E+00 0.  1.
          3    1    3    3  501    0 -0.24810045532E+02 -0.59287024372E+01 -0.45664676607E+03  0.45735867417E+03  0.00000000000E+00 0.  1.
         -1    1    1    2    0  502  0.38691125645E+02  0.85353725064E+01 -0.23748996525E+03  0.24077238085E+03  0.00000000000E+00 0. -1.
<mgrwt>
<rscale>  1 0.30000000E+03</rscale>
<asrwt>0</asrwt>
<pdfrwt beam="1">  1       21 0.78592146E-02 0.30000000E+03</pdfrwt>
<pdfrwt beam="2">0</pdfrwt>
<totfact> 0.13178305E+04</totfact>
</mgrwt>
</event>
<event>
 6    1  0.1270461E-001  0.3000000E+03  0.7818608E-02  0.1093470E+00
         21   -1    0    0  501  502  0.00000000000E+00  0.00000000000E+00  0.13503693380E+01  0.13503693380E+01  0.00000000000E+00 0. -1.
         13   -1    0    0    0    0 -0.00000000000E+00 -0.00000000000E+00 -0.10000000000E+04  0.10000000000E+04  0.00000000000E+00 0.  1.
    9000005    2    1    2  501    0  0.21769693623E+02  0.26788884409E+02 -0.66865936193E+03  0.66955955972E+03  0.36190923101E+01 0.  0.
         13    1    3    3    0    0  0.17225695515E+02  0.23286593166E+02 -0.55347538929E+03  0.55423279996E+03  0.00000000000E+00 0.  1.
          3    1    3    3  501    0  0.45439981086E+01  0.35022912434E+01 -0.11518397264E+03  0.11532675976E+03  0.00000000000E+00 0.  1.
         -1    1    1    2    0  502 -0.21769693623E+02 -0.26788884409E+02 -0.32999026874E+03  0.33179080962E+03  0.00000000000E+00 0. -1.
<mgrwt>
<rscale>  1 0.30000000E+03</rscale>
<asrwt>0</asrwt>
<pdfrwt beam="1">  1       21 0.49104443E-02 0.30000000E+03</pdfrwt>
<pdfrwt beam="2">0</pdfrwt>
<totfact> 0.29705552E+04</totfact>
</mgrwt>
</event>
<event>
 6    1  0.1270461E-001  0.3000000E+03  0.7818608E-02  0.1093470E+00
         21   -1    0    0  501  502  0.00000000000E+00  0.00000000000E+00  0.14441915023E+01  0.14441915023E+01  0.00000000000E+00 0. -1.
         13   -1    0    0    0    0 -0.00000000000E+00 -0.00000000000E+00 -0.10000000000E+04  0.10000000000E+04  0.00000000000E+00 0.  1.
    9000005    2    1    2  501    0  0.23217650420E+02 -0.20263411432E+02 -0.79144606926E+03  0.79205434165E+03  0.36789191846E+01 0.  0.
         13    1    3    3    0    0  0.16650439063E+02 -0.16035924273E+02 -0.56144461424E+03  0.56192031716E+03  0.00000000000E+00 0.  1.
          3    1    3    3  501    0  0.65672113574E+01 -0.42274871581E+01 -0.23000145502E+03  0.23013402448E+03  0.00000000000E+00 0.  1.
         -3    1    1    2    0  502 -0.23217650420E+02  0.20263411432E+02 -0.20710973924E+03  0.20938984985E+03  0.00000000000E+00 0. -1.
<mgrwt>
<rscale>  1 0.30000000E+03</rscale>
<asrwt>0</asrwt>
<pdfrwt beam="1">  1       21 0.52516165E-02 0.30000000E+03</pdfrwt>
<pdfrwt beam="2">0</pdfrwt>
<totfact> 0.26488989E+04</totfact>
</mgrwt>
</event>
<event>
 6    1  0.1270461E-001  0.3000000E+03  0.7818608E-02  0.1093470E+00
         21   -1    0    0  501  502  0.00000000000E+00  0.00000000000E+00  0.46857501746E+01  0.46857501746E+01  0.00000000000E+00 0. -1.
         13   -1    0    0    0    0 -0.00000000000E+00 -0.00000000000E+00 -0.10000000000E+04  0.10000000000E+04  0.00000000000E+00 0.  1.
    9000005    2    1    2  501    0 -0.64127293541E+02 -0.23695430873E+02 -0.51615905691E+03  0.52067802077E+03  0.34126333678E+01 0.  0.
         13    1    3    3    0    0 -0.28182398986E+02 -0.10790536371E+02 -0.21529474593E+03  0.21739942712E+03  0.00000000000E+00 0.  1.
          1    1    3    3  501    0 -0.35944894555E+02 -0.12904894502E+02 -0.30086431098E+03  0.30327859365E+03  0.00000000000E+00 0.  1.
         -1    1    1    2    0  502  0.64127293541E+02  0.23695430873E+02 -0.47915519292E+03  0.48400772940E+03  0.00000000000E+00 0. -1.
<mgrwt>
<rscale>  1 0.30000000E+03</rscale>
<asrwt>0</asrwt>
<pdfrwt beam="1">  1       21 0.17039127E-01 0.30000000E+03</pdfrwt>
<pdfrwt beam="2">0</pdfrwt>
<totfact> 0.32475060E+03</totfact>
</mgrwt>
</event>
<event>
 6    1  0.1270461E-001  0.3000000E+03  0.7818608E-02  0.1093470E+00
         21   -1    0    0  501  502  0.00000000000E+00  0.00000000000E+00  0.16892653977E+01  0.16892653977E+01  0.00000000000E+00 0. -1.
         13   -1    0    0    0    0 -0.00000000000E+00 -0.00000000000E+00 -0.10000000000E+04  0.10000000000E+04  0.00000000000E+00 0.  1.
    9000005    2    1    2  501    0  0.12422176018E+02  0.30743641216E+02 -0.79449553057E+03  0.79519442448E+03  0.33974536247E+01 0.  0.
         13    1    3    3    0    0  0.98340542358E+00  0.52508929670E+01 -0.14404347414E+03  0.14414250381E+03  0.00000000000E+00 0.  1.
          3    1    3    3  501    0  0.11438770595E+02  0.25492748249E+02 -0.65045205643E+03  0.65105192067E+03  0.00000000000E+00 0.  1.
         -3    1    1    2    0  502 -0.12422176018E+02 -0.30743641216E+02 -0.20381520403E+03  0.20649484092E+03  0.00000000000E+00 0. -1.
<mgrwt>
<rscale>  1 0.30000000E+03</rscale>
<asrwt>0</asrwt>
<pdfrwt beam="1">  1       21 0.61427962E-02 0.30000000E+03</pdfrwt>
<pdfrwt beam="2">0</pdfrwt>
<totfact> 0.20233609E+04</totfact>
</mgrwt>
</event>
<event>
 6    1  0.1270461E-001  0.3000000E+03  0.7818608E-02  0.1093470E+00
         21   -1    0    0  501  502  0.00000000000E+00  0.00000000000E+00  0.68122062220E+01  0.68122062220E+01  0.00000000000E+00 0. -1.
         13   -1    0    0    0    0 -0.00000000000E+00 -0.00000000000E+00 -0.10000000000E+04  0.10000000000E+04  0.00000000000E+00 0.  1.
    9000005    2    1    2  501    0  0.50329696429E+02  0.32385825151E+02 -0.84313700127E+03  0.84526605075E+03  0.35740227321E+01 0.  0.
         13    1    3    3    0    0  0.47693586815E+02  0.31337521765E+02 -0.79511054843E+03  0.79715588358E+03  0.00000000000E+00 0.  1.
          3    1    3    3  501    0  0.26361096137E+01  0.10483033853E+01 -0.48026452835E+02  0.48110167177E+02  0.00000000000E+00 0.  1.
         -3    1    1    2    0  502 -0.50329696429E+02 -0.32385825151E+02 -0.15005079251E+03  0.16154615547E+03  0.00000000000E+00 0. -1.
<mgrwt>
<rscale>  1 0.30000000E+03</rscale>
<asrwt>0</asrwt>
<pdfrwt beam="1">  1       21 0.24771711E-01 0.30000000E+03</pdfrwt>
<pdfrwt beam="2">0</pdfrwt>
<totfact> 0.15878329E+03</totfact>
</mgrwt>
</event>
<event>
 6    1  0.1270461E-001  0.3000000E+03  0.7818608E-02  0.1093470E+00
         21   -1    0    0  501  502  0.00000000000E+00  0.00000000000E+00  0.39424524856E+01  0.39424524856E+01  0.00000000000E+00 0. -1.
         13   -1    0    0    0    0 -0.00000000000E+00 -0.00000000000E+00 -0.10000000000E+04  0.10000000000E+04  0.00000000000E+00 0.  1.
    9000005    2    1    2  501    0  0.47918063339E+02  0.78234621449E+01 -0.81608755532E+03  0.81753819974E+03  0.35302576154E+01 0.  0.
         13    1    3    3    0    0  0.20318867616E+02  0.44492862293E+01 -0.32687287069E+03  0.32753400759E+03  0.00000000000E+00 0.  1.
          3    1    3    3  501    0  0.27599195724E+02  0.33741759155E+01 -0.48921468463E+03  0.49000419215E+03  0.00000000000E+00 0.  1.
         -1    1    1    2    0  502 -0.47918063339E+02 -0.78234621449E+01 -0.17996999219E+03  0.18640425275E+03  0.00000000000E+00 0. -1.
<mgrwt>
<rscale>  1 0.30000000E+03</rscale>
<asrwt>0</asrwt>
<pdfrwt beam="1">  1       21 0.14336221E-01 0.30000000E+03</pdfrwt>
<pdfrwt beam="2">0</pdfrwt>
<totfact> 0.44769142E+03</totfact>
</mgrwt>
</event>
<event>
 6    1  0.1270461E-001  0.3000000E+03  0.7818608E-02  0.1093470E+00
         21   -1    0    0  501  502  0.00000000000E+00  0.00000000000E+00  0.14016533828E+01  0.14016533828E+01  0.00000000000E+00 0. -1.
         13   -1    0    0    0    0 -0.00000000000E+00 -0.00000000000E+00 -0.10000000000E+04  0.10000000000E+04  0.00000000000E+00 0.  1.
    9000005    2    1    2  501    0  0.30401245009E+02 -0.10595318867E+02 -0.75380620791E+03  0.75450149613E+03  0.34945807467E+01 0.  0.
         13    1    3    3    0    0  0.68540329658E+01 -0.88833669564E+00 -0.15680429363E+03  0.15695653351E+03  0.00000000000E+00 0.  1.
          3    1    3    3  501    0  0.23547212043E+02 -0.97069821717E+01 -0.59700191428E+03  0.59754496262E+03  0.00000000000E+00 0.  1.
         -1    1    1    2    0  502 -0.30401245009E+02  0.10595318867E+02 -0.24479213871E+03  0.24690015726E+03  0.00000000000E+00 0. -1.
<mgrwt>
<rscale>  1 0.30000000E+03</rscale>
<asrwt>0</asrwt>
<pdfrwt beam="1">  1       21 0.50969321E-02 0.30000000E+03</pdfrwt>
<pdfrwt beam="2">0</pdfrwt>
<totfact> 0.27876633E+04</totfact>
</mgrwt>
</event>
<event>
 6    1  0.1270461E-001  0.3000000E+03  0.7818608E-02  0.1093470E+00
         21   -1    0    0  501  502  0.00000000000E+00  0.00000000000E+00  0.10635716480E+01  0.10635716480E+01  0.00000000000E+00 0. -1.
         13   -1    0    0    0    0 -0.00000000000E+00 -0.00000000000E+00 -0.10000000000E+04  0.10000000000E+04  0.00000000000E+00 0.  1.
    9000005    2    1    2  501    0  0.19486191046E+01 -0.30569927043E+02 -0.33309134799E+03  0.33451425720E+03  0.34094874988E+01 0.  0.
         13    1    3    3    0    0 -0.75863199653E+00 -0.24411539801E+01 -0.25856045018E+02  0.25982105751E+02  0.00000000000E+00 0.  1.
          3    1    3    3  501    0  0.27072511012E+01 -0.28128773063E+02 -0.30723530297E+03  0.30853215145E+03  0.00000000000E+00 0.  1.
         -3    1    1    2    0  502 -0.19486191046E+01  0.30569927043E+02 -0.66584508036E+03  0.66654931445E+03  0.00000000000E+00 0. -1.
<mgrwt>
<rscale>  1 0.30000000E+03</rscale>
<asrwt>0</asrwt>
<pdfrwt beam="1">  1       21 0.38675414E-02 0.30000000E+03</pdfrwt>
<pdfrwt beam="2">0</pdfrwt>
<totfact> 0.44498711E+04</totfact>
</mgrwt>
</event>
<event>
 6    1  0.1270461E-001  0.3000000E+03  0.7818608E-02  0.1093470E+00
         21   -1    0    0  501  502  0.00000000000E+00  0.00000000000E+00  0.13788882381E+01  0.13788882381E+01  0.00000000000E+00 0. -1.
         13   -1    0    0    0    0 -0.00000000000E+00 -0.00000000000E+00 -0.10000000000E+04  0.10000000000E+04  0.00000000000E+00 0.  1.
    9000005    2    1    2  501    0  0.22226875098E+02 -0.26544350806E+02 -0.67717622714E+03  0.67807492850E+03  0.43965341801E+01 0.  0.
         13    1    3    3    0    0  0.87463289631E+01 -0.75854423321E+01 -0.20684559369E+03  0.20716934337E+03  0.00000000000E+00 0.  1.
          1    1    3    3  501    0  0.13480546135E+02 -0.18958908474E+02 -0.47033063346E+03  0.47090558512E+03  0.00000000000E+00 0.  1.
         -1    1    1    2    0  502 -0.22226875098E+02  0.26544350806E+02 -0.32144488462E+03  0.32330395974E+03  0.00000000000E+00 0. -1.
<mgrwt>
<rscale>  1 0.30000000E+03</rscale>
<asrwt>0</asrwt>
<pdfrwt beam="1">  1       21 0.50141496E-02 0.30000000E+03</pdfrwt>
<pdfrwt beam="2">0</pdfrwt>
<totfact> 0.28666215E+04</totfact>
</mgrwt>
</event>
<event>
 6    1  0.1270461E-001  0.3000000E+03  0.7818608E-02  0.1093470E+00
         21   -1    0    0  501  502  0.00000000000E+00  0.00000000000E+00  0.20521344211E+01  0.20521344211E+01  0.00000000000E+00 0. -1.
         13   -1    0    0    0    0 -0.00000000000E+00 -0.00000000000E+00 -0.10000000000E+04  0.10000000000E+04  0.00000000000E+00 0.  1.
    9000005    2    1    2  501    0 -0.29538961226E+02 -0.10052173498E+02 -0.86198025347E+03  0.86255020625E+03  0.30503275799E+01 0.  0.
         13    1    3    3    0    0 -0.13626587098E+02 -0.32392617037E+01 -0.40601349120E+03  0.40625500825E+03  0.00000000000E+00 0.  1.
          3    1    3    3  501    0 -0.15912374128E+02 -0.68129117941E+01 -0.45596676227E+03  0.45629519800E+03  0.00000000000E+00 0.  1.
         -3    1    1    2    0  502  0.29538961226E+02  0.10052173498E+02 -0.13596761211E+03  0.13950192818E+03  0.00000000000E+00 0. -1.
<mgrwt>
<rscale>  1 0.30000000E+03</rscale>
<asrwt>0</asrwt>
<pdfrwt beam="1">  1       21 0.74623227E-02 0.30000000E+03</pdfrwt>
<pdfrwt beam="2">0</pdfrwt>
<totfact> 0.14431143E+04</totfact>
</mgrwt>
</event>
<event>
 6    1  0.1270461E-001  0.3000000E+03  0.7818608E-02  0.1093470E+00
         21   -1    0    0  501  502  0.00000000000E+00  0.00000000000E+00  0.55878839963E+01  0.55878839963E+01  0.00000000000E+00 0. -1.
         13   -1    0    0    0    0 -0.00000000000E+00 -0.00000000000E+00 -0.10000000000E+04  0.10000000000E+04  0.00000000000E+00 0.  1.
    9000005    2    1    2  501    0  0.31201282770E+02 -0.13030226176E+02 -0.94558822244E+03  0.94619866423E+03  0.33939579425E+01 0.  0.
         13    1    3    3    0    0  0.18793035139E+02 -0.76369410689E+01 -0.52033571332E+03  0.52073098198E+03  0.00000000000E+00 0.  1.
          3    1    3    3  501    0  0.12408247631E+02 -0.53932851068E+01 -0.42525250911E+03  0.42546768225E+03  0.00000000000E+00 0.  1.
         -1    1    1    2    0  502 -0.31201282770E+02  0.13030226176E+02 -0.48823893568E+02  0.59389219762E+02  0.00000000000E+00 0. -1.
<mgrwt>
<rscale>  1 0.30000000E+03</rscale>
<asrwt>0</asrwt>
<pdfrwt beam="1">  1       21 0.20319621E-01 0.30000000E+03</pdfrwt>
<pdfrwt beam="2">0</pdfrwt>
<totfact> 0.23276400E+03</totfact>
</mgrwt>
</event>
<event>
 6    1  0.1270461E-001  0.3000000E+03  0.7818608E-02  0.1093470E+00
         21   -1    0    0  501  502  0.00000000000E+00  0.00000000000E+00  0.10041473133E+01  0.10041473133E+01  0.00000000000E+00 0. -1.
         13   -1    0    0    0    0 -0.00000000000E+00 -0.00000000000E+00 -0.10000000000E+04  0.10000000000E+04  0.00000000000E+00 0.  1.
    9000005    2    1    2  501    0  0.62760658568E+01 -0.30934848581E+02 -0.52489986986E+03  0.52585853301E+03  0.33120236710E+01 0.  0.
         13    1    3    3    0    0  0.36098350297E+01 -0.11398189182E+02 -0.18215930125E+03  0.18255125488E+03  0.00000000000E+00 0.  1.
          1    1    3    3  501    0  0.26662308271E+01 -0.19536659400E+02 -0.34274056861E+03  0.34330727813E+03  0.00000000000E+00 0.  1.
         -3    1    1    2    0  502 -0.62760658568E+01  0.30934848581E+02 -0.47409598282E+03  0.47514561430E+03  0.00000000000E+00 0. -1.
<mgrwt>
<rscale>  1 0.30000000E+03</rscale>
<asrwt>0</asrwt>
<pdfrwt beam="1">  1       21 0.36514525E-02 0.30000000E+03</pdfrwt>
<pdfrwt beam="2">0</pdfrwt>
<totfact> 0.49009727E+04</totfact>
</mgrwt>
</event>
<event>
 6    1  0.1270461E-001  0.3000000E+03  0.7818608E-02  0.1093470E+00
         21   -1    0    0  501  502  0.00000000000E+00  0.00000000000E+00  0.10179436272E+01  0.10179436272E+01  0.00000000000E+00 0. -1.
         13   -1    0    0    0    0 -0.00000000000E+00 -0.00000000000E+00 -0.10000000000E+04  0.10000000000E+04  0.00000000000E+00 0.  1.
    9000005    2    1    2  501    0  0.24465265427E+02 -0.19667327518E+02 -0.45816290005E+03  0.45928857131E+03  0.68844586406E+01 0.  0.
         13    1    3    3    0    0  0.19784383453E+02 -0.17055426848E+02 -0.33884346388E+03  0.33984879348E+03  0.00000000000E+00 0.  1.
          3    1    3    3  501    0  0.46808819738E+01 -0.26119006705E+01 -0.11931943617E+03  0.11943977783E+03  0.00000000000E+00 0.  1.
         -1    1    1    2    0  502 -0.24465265427E+02  0.19667327518E+02 -0.54081915633E+03  0.54172937232E+03  0.00000000000E+00 0. -1.
<mgrwt>
<rscale>  1 0.30000000E+03</rscale>
<asrwt>0</asrwt>
<pdfrwt beam="1">  1       21 0.37016210E-02 0.30000000E+03</pdfrwt>
<pdfrwt beam="2">0</pdfrwt>
<totfact> 0.47900210E+04</totfact>
</mgrwt>
</event>
<event>
 6    1  0.1270461E-001  0.3000000E+03  0.7818608E-02  0.1093470E+00
         21   -1    0    0  501  502  0.00000000000E+00  0.00000000000E+00  0.15117314732E+01  0.15117314732E+01  0.00000000000E+00 0. -1.
         13   -1    0    0    0    0 -0.00000000000E+00 -0.00000000000E+00 -0.10000000000E+04  0.10000000000E+04  0.00000000000E+00 0.  1.
    9000005    2    1    2  501    0 -0.22924704120E+02 -0.30640430563E+02 -0.58235364640E+03  0.58362131309E+03  0.36999423244E+01 0.  0.
         13    1    3    3    0    0 -0.14518610282E+02 -0.17577078957E+02 -0.32402580070E+03  0.32482682043E+03  0.00000000000E+00 0.  1.
          3    1    3    3  501    0 -0.84060938378E+01 -0.13063351606E+02 -0.25832784570E+03  0.25879449266E+03  0.00000000000E+00 0.  1.
         -1    1    1    2    0  502  0.22924704120E+02  0.30640430563E+02 -0.41613462213E+03  0.41789041839E+03  0.00000000000E+00 0. -1.
<mgrwt>
<rscale>  1 0.30000000E+03</rscale>
<asrwt>0</asrwt>
<pdfrwt beam="1">  1       21 0.54972169E-02 0.30000000E+03</pdfrwt>
<pdfrwt beam="2">0</pdfrwt>
<totfact> 0.24495398E+04</totfact>
</mgrwt>
</event>
<event>
 6    1  0.1270461E-001  0.3000000E+03  0.7818608E-02  0.1093470E+00
         21   -1    0    0  501  502  0.00000000000E+00  0.00000000000E+00  0.97882785839E+01  0.97882785839E+01  0.00000000000E+00 0. -1.
         13   -1    0    0    0    0 -0.00000000000E+00 -0.00000000000E+00 -0.10000000000E+04  0.10000000000E+04  0.00000000000E+00 0.  1.
    9000005    2    1    2  501    0  0.35723566035E+02  0.22094295324E+02 -0.95216168098E+03  0.95311256392E+03  0.68819842585E+01 0.  0.
         13    1    3    3    0    0  0.15388184006E+02  0.12878238494E+02 -0.40820423925E+03  0.40869713257E+03  0.00000000000E+00 0.  1.
          3    1    3    3  501    0  0.20335382029E+02  0.92160568298E+01 -0.54395744173E+03  0.54441543134E+03  0.00000000000E+00 0.  1.
         -1    1    1    2    0  502 -0.35723566035E+02 -0.22094295324E+02 -0.38050040434E+02  0.56675714668E+02  0.00000000000E+00 0. -1.
<mgrwt>
<rscale>  1 0.30000000E+03</rscale>
<asrwt>0</asrwt>
<pdfrwt beam="1">  1       21 0.35593815E-01 0.30000000E+03</pdfrwt>
<pdfrwt beam="2">0</pdfrwt>
<totfact> 0.76884742E+02</totfact>
</mgrwt>
</event>
<event>
 6    1  0.1270461E-001  0.3000000E+03  0.7818608E-02  0.1093470E+00
         21   -1    0    0  501  502  0.00000000000E+00  0.00000000000E+00  0.10736934726E+01  0.10736934726E+01  0.00000000000E+00 0. -1.
         13   -1    0    0    0    0 -0.00000000000E+00 -0.00000000000E+00 -0.10000000000E+04  0.10000000000E+04  0.00000000000E+00 0.  1.
    9000005    2    1    2  501    0 -0.16543213312E+02  0.27553461130E+02 -0.59235153030E+03  0.59323068471E+03  0.30722489338E+01 0.  0.
         13    1    3    3    0    0 -0.14063094632E+02  0.21544009482E+02 -0.45822297615E+03  0.45894467080E+03  0.00000000000E+00 0.  1.
          1    1    3    3  501    0 -0.24801186803E+01  0.60094516478E+01 -0.13412855414E+03  0.13428601392E+03  0.00000000000E+00 0.  1.
         -3    1    1    2    0  502  0.16543213312E+02 -0.27553461130E+02 -0.40657477623E+03  0.40784300876E+03  0.00000000000E+00 0. -1.
<mgrwt>
<rscale>  1 0.30000000E+03</rscale>
<asrwt>0</asrwt>
<pdfrwt beam="1">  1       21 0.39043481E-02 0.30000000E+03</pdfrwt>
<pdfrwt beam="2">0</pdfrwt>
<totfact> 0.43795506E+04</totfact>
</mgrwt>
</event>
<event>
 6    1  0.1270461E-001  0.3000000E+03  0.7818608E-02  0.1093470E+00
         21   -1    0    0  501  502  0.00000000000E+00  0.00000000000E+00  0.21554646153E+01  0.21554646153E+01  0.00000000000E+00 0. -1.
         13   -1    0    0    0    0 -0.00000000000E+00 -0.00000000000E+00 -0.10000000000E+04  0.10000000000E+04  0.00000000000E+00 0.  1.
    9000005    2    1    2  501    0 -0.20358182156E+02  0.30895763381E+02 -0.80107336837E+03  0.80193584533E+03  0.36816775320E+01 0.  0.
         13    1    3    3    0    0 -0.75745834226E+01  0.89261902614E+01 -0.23230548850E+03  0.23260028197E+03  0.00000000000E+00 0.  1.
          3    1    3    3  501    0 -0.12783598733E+02  0.21969573120E+02 -0.56876787987E+03  0.56933556336E+03  0.00000000000E+00 0.  1.
         -3    1    1    2    0  502  0.20358182156E+02 -0.30895763381E+02 -0.19677116702E+03  0.20021961928E+03  0.00000000000E+00 0. -1.
<mgrwt>
<rscale>  1 0.30000000E+03</rscale>
<asrwt>0</asrwt>
<pdfrwt beam="1">  1       21 0.78380697E-02 0.30000000E+03</pdfrwt>
<pdfrwt beam="2">0</pdfrwt>
<totfact> 0.13240748E+04</totfact>
</mgrwt>
</event>
<event>
 6    1  0.1270461E-001  0.3000000E+03  0.7818608E-02  0.1093470E+00
         21   -1    0    0  501  502  0.00000000000E+00  0.00000000000E+00  0.15023059860E+01  0.15023059860E+01  0.00000000000E+00 0. -1.
         13   -1    0    0    0    0 -0.00000000000E+00 -0.00000000000E+00 -0.10000000000E+04  0.10000000000E+04  0.00000000000E+00 0.  1.
    9000005    2    1    2  501    0 -0.11769770479E+02  0.34769442786E+02 -0.65812714538E+03  0.65915810488E+03  0.32597704256E+01 0.  0.
         13    1    3    3    0    0 -0.73674911264E+01  0.24123497524E+02 -0.47449816756E+03  0.47516811139E+03  0.00000000000E+00 0.  1.
          1    1    3    3  501    0 -0.44022793531E+01  0.10645945262E+02 -0.18362897781E+03  0.18398999349E+03  0.00000000000E+00 0.  1.
         -3    1    1    2    0  502  0.11769770479E+02 -0.34769442786E+02 -0.34037054864E+03  0.34234420110E+03  0.00000000000E+00 0. -1.
<mgrwt>
<rscale>  1 0.30000000E+03</rscale>
<asrwt>0</asrwt>
<pdfrwt beam="1">  1       21 0.54629424E-02 0.30000000E+03</pdfrwt>
<pdfrwt beam="2">0</pdfrwt>
<totfact> 0.24759437E+04</totfact>
</mgrwt>
</event>
<event>
 6    1  0.1270461E-001  0.3000000E+03  0.7818608E-02  0.1093470E+00
         21   -1    0    0  501  502  0.00000000000E+00  0.00000000000E+00  0.56330738217E+01  0.56330738217E+01  0.00000000000E+00 0. -1.
         13   -1    0    0    0    0 -0.00000000000E+00 -0.00000000000E+00 -0.10000000000E+04  0.10000000000E+04  0.00000000000E+00 0.  1.
    9000005    2    1    2  501    0 -0.38002188118E+02  0.20978053860E+02 -0.90731054587E+03  0.90835482138E+03  0.34365438334E+01 0.  0.
         13    1    3    3    0    0 -0.11463506268E+02  0.79818258237E+01 -0.27701658177E+03  0.27736854201E+03  0.00000000000E+00 0.  1.
          1    1    3    3  501    0 -0.26538681850E+02  0.12996228036E+02 -0.63029396410E+03  0.63098627937E+03  0.00000000000E+00 0.  1.
         -1    1    1    2    0  502  0.38002188118E+02 -0.20978053860E+02 -0.87056380308E+02  0.97278252441E+02  0.00000000000E+00 0. -1.
<mgrwt>
<rscale>  1 0.30000000E+03</rscale>
<asrwt>0</asrwt>
<pdfrwt beam="1">  1       21 0.20483948E-01 0.30000000E+03</pdfrwt>
<pdfrwt beam="2">0</pdfrwt>
<totfact> 0.22920633E+03</totfact>
</mgrwt>
</event>
<event>
 6    1  0.1270461E-001  0.3000000E+03  0.7818608E-02  0.1093470E+00
         21   -1    0    0  501  502  0.00000000000E+00  0.00000000000E+00  0.12508448247E+02  0.12508448247E+02  0.00000000000E+00 0. -1.
         13   -1    0    0    0    0 -0.00000000000E+00 -0.00000000000E+00 -0.10000000000E+04  0.10000000000E+04  0.00000000000E+00 0.  1.
    9000005    2    1    2  501    0  0.52347869372E+02 -0.73807727185E+02 -0.79121079457E+03  0.79637419446E+03  0.30750831135E+01 0.  0.
         13    1    3    3    0    0  0.40538863468E+02 -0.55530235074E+02 -0.60894324548E+03  0.61281227360E+03  0.00000000000E+00 0.  1.
          3    1    3    3  501    0  0.11809005904E+02 -0.18277492111E+02 -0.18226754909E+03  0.18356192086E+03  0.00000000000E+00 0.  1.
         -3    1    1    2    0  502 -0.52347869372E+02  0.73807727185E+02 -0.19628075719E+03  0.21613425379E+03  0.00000000000E+00 0. -1.
<mgrwt>
<rscale>  1 0.30000000E+03</rscale>
<asrwt>0</asrwt>
<pdfrwt beam="1">  1       21 0.45485362E-01 0.30000000E+03</pdfrwt>
<pdfrwt beam="2">0</pdfrwt>
<totfact> 0.46044951E+02</totfact>
</mgrwt>
</event>
<event>
 6    1  0.1270461E-001  0.3000000E+03  0.7818608E-02  0.1093470E+00
         21   -1    0    0  501  502  0.00000000000E+00  0.00000000000E+00  0.36138406426E+01  0.36138406426E+01  0.00000000000E+00 0. -1.
         13   -1    0    0    0    0 -0.00000000000E+00 -0.00000000000E+00 -0.10000000000E+04  0.10000000000E+04  0.00000000000E+00 0.  1.
    9000005    2    1    2  501    0  0.45961722499E+02  0.37500382122E+02 -0.57801808348E+03  0.58106135218E+03  0.29379534562E+01 0.  0.
         13    1    3    3    0    0  0.31329599460E+02  0.25936747158E+02 -0.38300829424E+03  0.38516179991E+03  0.00000000000E+00 0.  1.
          3    1    3    3  501    0  0.14632123038E+02  0.11563634964E+02 -0.19500978924E+03  0.19589955227E+03  0.00000000000E+00 0.  1.
         -3    1    1    2    0  502 -0.45961722499E+02 -0.37500382122E+02 -0.41836807588E+03  0.42255248846E+03  0.00000000000E+00 0. -1.
<mgrwt>
<rscale>  1 0.30000000E+03</rscale>
<asrwt>0</asrwt>
<pdfrwt beam="1">  1       21 0.13141266E-01 0.30000000E+03</pdfrwt>
<pdfrwt beam="2">0</pdfrwt>
<totfact> 0.52517983E+03</totfact>
</mgrwt>
</event>
<event>
 6    1  0.1270461E-001  0.3000000E+03  0.7818608E-02  0.1093470E+00
         21   -1    0    0  501  502  0.00000000000E+00  0.00000000000E+00  0.19735555785E+01  0.19735555785E+01  0.00000000000E+00 0. -1.
         13   -1    0    0    0    0 -0.00000000000E+00 -0.00000000000E+00 -0.10000000000E+04  0.10000000000E+04  0.00000000000E+00 0.  1.
    9000005    2    1    2  501    0 -0.54232422559E+01 -0.38431122789E+02 -0.73799304553E+03  0.73905963184E+03  0.83091162397E+01 0.  0.
         13    1    3    3    0    0 -0.43349480853E+01 -0.10461047155E+02 -0.16943302855E+03  0.16981100214E+03  0.00000000000E+00 0.  1.
          1    1    3    3  501    0 -0.10882941705E+01 -0.27970075634E+02 -0.56856001697E+03  0.56924862970E+03  0.00000000000E+00 0.  1.
         -3    1    1    2    0  502  0.54232422559E+01  0.38431122789E+02 -0.26003339890E+03  0.26291392374E+03  0.00000000000E+00 0. -1.
<mgrwt>
<rscale>  1 0.30000000E+03</rscale>
<asrwt>0</asrwt>
<pdfrwt beam="1">  1       21 0.71765809E-02 0.30000000E+03</pdfrwt>
<pdfrwt beam="2">0</pdfrwt>
<totfact> 0.15449964E+04</totfact>
</mgrwt>
</event>
<event>
 6    1  0.1270461E-001  0.3000000E+03  0.7818608E-02  0.1093470E+00
         21   -1    0    0  501  502  0.00000000000E+00  0.00000000000E+00  0.17072387957E+01  0.17072387957E+01  0.00000000000E+00 0. -1.
         13   -1    0    0    0    0 -0.00000000000E+00 -0.00000000000E+00 -0.10000000000E+04  0.10000000000E+04  0.00000000000E+00 0.  1.
    9000005    2    1    2  501    0  0.36193500072E+02 -0.14780499401E+02 -0.64479107482E+03  0.64605027642E+03  0.98486996315E+01 0.  0.
         13    1    3    3    0    0  0.56743480323E+01  0.81247115095E+00 -0.12430015328E+03  0.12443225643E+03  0.00000000000E+00 0.  1.
          3    1    3    3  501    0  0.30519152040E+02 -0.15592970552E+02 -0.52049092154E+03  0.52161801999E+03  0.00000000000E+00 0.  1.
         -3    1    1    2    0  502 -0.36193500072E+02  0.14780499401E+02 -0.35350168638E+03  0.35565696237E+03  0.00000000000E+00 0. -1.
<mgrwt>
<rscale>  1 0.30000000E+03</rscale>
<asrwt>0</asrwt>
<pdfrwt beam="1">  1       21 0.62081542E-02 0.30000000E+03</pdfrwt>
<pdfrwt beam="2">0</pdfrwt>
<totfact> 0.19867191E+04</totfact>
</mgrwt>
</event>
<event>
 6    1  0.1270461E-001  0.3000000E+03  0.7818608E-02  0.1093470E+00
         21   -1    0    0  501  502  0.00000000000E+00  0.00000000000E+00  0.63886253752E+01  0.63886253752E+01  0.00000000000E+00 0. -1.
         13   -1    0    0    0    0 -0.00000000000E+00 -0.00000000000E+00 -0.10000000000E+04  0.10000000000E+04  0.00000000000E+00 0.  1.
    9000005    2    1    2  501    0  0.29588506657E+02 -0.65878989079E+02 -0.28224578108E+03  0.29136657774E+03  0.40349420147E+01 0.  0.
         13    1    3    3    0    0  0.27259003449E+02 -0.62798769928E+02 -0.26607725536E+03  0.27474323393E+03  0.00000000000E+00 0.  1.
          1    1    3    3  501    0  0.23295032078E+01 -0.30802191504E+01 -0.16168525720E+02  0.16623343803E+02  0.00000000000E+00 0.  1.
         -3    1    1    2    0  502 -0.29588506657E+02  0.65878989079E+02 -0.71136559355E+03  0.71502204764E+03  0.00000000000E+00 0. -1.
<mgrwt>
<rscale>  1 0.30000000E+03</rscale>
<asrwt>0</asrwt>
<pdfrwt beam="1">  1       21 0.23231414E-01 0.30000000E+03</pdfrwt>
<pdfrwt beam="2">0</pdfrwt>
<totfact> 0.17990673E+03</totfact>
</mgrwt>
</event>
<event>
 6    1  0.1270461E-001  0.3000000E+03  0.7818608E-02  0.1093470E+00
         21   -1    0    0  501  502  0.00000000000E+00  0.00000000000E+00  0.12355316225E+01  0.12355316225E+01  0.00000000000E+00 0. -1.
         13   -1    0    0    0    0 -0.00000000000E+00 -0.00000000000E+00 -0.10000000000E+04  0.10000000000E+04  0.00000000000E+00 0.  1.
    9000005    2    1    2  501    0 -0.20914033488E+02  0.24309819584E+02 -0.70304104257E+03  0.70377846128E+03  0.30084713604E+01 0.  0.
         13    1    3    3    0    0 -0.10175198692E+02  0.97702744625E+01 -0.32254126653E+03  0.32284959586E+03  0.00000000000E+00 0.  1.
          3    1    3    3  501    0 -0.10738834796E+02  0.14539545121E+02 -0.38049977604E+03  0.38092886542E+03  0.00000000000E+00 0.  1.
         -1    1    1    2    0  502  0.20914033488E+02 -0.24309819584E+02 -0.29572342581E+03  0.29745707034E+03  0.00000000000E+00 0. -1.
<mgrwt>
<rscale>  1 0.30000000E+03</rscale>
<asrwt>0</asrwt>
<pdfrwt beam="1">  1       21 0.44928517E-02 0.30000000E+03</pdfrwt>
<pdfrwt beam="2">0</pdfrwt>
<totfact> 0.34551265E+04</totfact>
</mgrwt>
</event>
<event>
 6    1  0.1270461E-001  0.3000000E+03  0.7818608E-02  0.1093470E+00
         21   -1    0    0  501  502  0.00000000000E+00  0.00000000000E+00  0.14036122412E+01  0.14036122412E+01  0.00000000000E+00 0. -1.
         13   -1    0    0    0    0 -0.00000000000E+00 -0.00000000000E+00 -0.10000000000E+04  0.10000000000E+04  0.00000000000E+00 0.  1.
    9000005    2    1    2  501    0  0.33983640392E+02 -0.13061630352E+02 -0.61130348205E+03  0.61240324102E+03  0.45042688028E+01 0.  0.
         13    1    3    3    0    0  0.57918844123E+01 -0.18273506959E+01 -0.77370094530E+02  0.77608096634E+02  0.00000000000E+00 0.  1.
          1    1    3    3  501    0  0.28191755980E+02 -0.11234279656E+02 -0.53393338752E+03  0.53479514438E+03  0.00000000000E+00 0.  1.
         -1    1    1    2    0  502 -0.33983640392E+02  0.13061630352E+02 -0.38729290571E+03  0.38900037122E+03  0.00000000000E+00 0. -1.
<mgrwt>
<rscale>  1 0.30000000E+03</rscale>
<asrwt>0</asrwt>
<pdfrwt beam="1">  1       21 0.51040553E-02 0.30000000E+03</pdfrwt>
<pdfrwt beam="2">0</pdfrwt>
<totfact> 0.27810277E+04</totfact>
</mgrwt>
</event>
<event>
 6    1  0.1270461E-001  0.3000000E+03  0.7818608E-02  0.1093470E+00
         21   -1    0    0  501  502  0.00000000000E+00  0.00000000000E+00  0.19702431023E+01  0.19702431023E+01  0.00000000000E+00 0. -1.
         13   -1    0    0    0    0 -0.00000000000E+00 -0.00000000000E+00 -0.10000000000E+04  0.10000000000E+04  0.00000000000E+00 0.  1.
    9000005    2    1    2  501    0 -0.39995423759E+02  0.65210034981E+01 -0.70244093401E+03  0.70361657776E+03  0.32962576739E+01 0.  0.
         13    1    3    3    0    0 -0.68790812161E+01  0.14384503738E+01 -0.14416489364E+03  0.14433609201E+03  0.00000000000E+00 0.  1.
          1    1    3    3  501    0 -0.33116342543E+02  0.50825531243E+01 -0.55827604037E+03  0.55928048575E+03  0.00000000000E+00 0.  1.
         -3    1    1    2    0  502  0.39995423759E+02 -0.65210034981E+01 -0.29558882289E+03  0.29835366534E+03  0.00000000000E+00 0. -1.
<mgrwt>
<rscale>  1 0.30000000E+03</rscale>
<asrwt>0</asrwt>
<pdfrwt beam="1">  1       21 0.71645355E-02 0.30000000E+03</pdfrwt>
<pdfrwt beam="2">0</pdfrwt>
<totfact> 0.15495290E+04</totfact>
</mgrwt>
</event>
<event>
 6    1  0.1270461E-001  0.3000000E+03  0.7818608E-02  0.1093470E+00
         21   -1    0    0  501  502  0.00000000000E+00  0.00000000000E+00  0.96069460001E+00  0.96069460001E+00  0.00000000000E+00 0. -1.
         13   -1    0    0    0    0 -0.00000000000E+00 -0.00000000000E+00 -0.10000000000E+04  0.10000000000E+04  0.00000000000E+00 0.  1.
    9000005    2    1    2  501    0  0.21248462382E+02 -0.22378586254E+02 -0.52313347640E+03  0.52405540384E+03  0.36240708994E+01 0.  0.
         13    1    3    3    0    0  0.20846392706E+02 -0.22174115931E+02 -0.50496229130E+03  0.50587862096E+03  0.00000000000E+00 0.  1.
          3    1    3    3  501    0  0.40206967587E+00 -0.20447032274E+00 -0.18171185101E+02  0.18176782887E+02  0.00000000000E+00 0.  1.
         -3    1    1    2    0  502 -0.21248462382E+02  0.22378586254E+02 -0.47590582900E+03  0.47690529076E+03  0.00000000000E+00 0. -1.
<mgrwt>
<rscale>  1 0.30000000E+03</rscale>
<asrwt>0</asrwt>
<pdfrwt beam="1">  1       21 0.34934423E-02 0.30000000E+03</pdfrwt>
<pdfrwt beam="2">0</pdfrwt>
<totfact> 0.52782287E+04</totfact>
</mgrwt>
</event>
<event>
 6    1  0.1270461E-001  0.3000000E+03  0.7818608E-02  0.1093470E+00
         21   -1    0    0  501  502  0.00000000000E+00  0.00000000000E+00  0.17747027664E+01  0.17747027664E+01  0.00000000000E+00 0. -1.
         13   -1    0    0    0    0 -0.00000000000E+00 -0.00000000000E+00 -0.10000000000E+04  0.10000000000E+04  0.00000000000E+00 0.  1.
    9000005    2    1    2  501    0 -0.16938677381E+02 -0.34189304009E+02 -0.71043341812E+03  0.71146453591E+03  0.32120036036E+01 0.  0.
         13    1    3    3    0    0 -0.64237057370E+01 -0.10541151308E+02 -0.21039376980E+03  0.21075558886E+03  0.00000000000E+00 0.  1.
          1    1    3    3  501    0 -0.10514971644E+02 -0.23648152701E+02 -0.50003964833E+03  0.50070894705E+03  0.00000000000E+00 0.  1.
         -1    1    1    2    0  502  0.16938677381E+02  0.34189304009E+02 -0.28779187911E+03  0.29031016686E+03  0.00000000000E+00 0. -1.
<mgrwt>
<rscale>  1 0.30000000E+03</rscale>
<asrwt>0</asrwt>
<pdfrwt beam="1">  1       21 0.64534782E-02 0.30000000E+03</pdfrwt>
<pdfrwt beam="2">0</pdfrwt>
<totfact> 0.18579632E+04</totfact>
</mgrwt>
</event>
<event>
 6    1  0.1270461E-001  0.3000000E+03  0.7818608E-02  0.1093470E+00
         21   -1    0    0  501  502  0.00000000000E+00  0.00000000000E+00  0.11911917101E+01  0.11911917101E+01  0.00000000000E+00 0. -1.
         13   -1    0    0    0    0 -0.00000000000E+00 -0.00000000000E+00 -0.10000000000E+04  0.10000000000E+04  0.00000000000E+00 0.  1.
    9000005    2    1    2  501    0  0.33309651317E+02  0.38977875730E+01 -0.60222657315E+03  0.60319345950E+03  0.63858086492E+01 0.  0.
         13    1    3    3    0    0  0.32361971472E+02  0.49293015943E+01 -0.57574457770E+03  0.57667444366E+03  0.00000000000E+00 0.  1.
          3    1    3    3  501    0  0.94767984491E+00 -0.10315140213E+01 -0.26481995450E+02  0.26519015842E+02  0.00000000000E+00 0.  1.
         -1    1    1    2    0  502 -0.33309651317E+02 -0.38977875730E+01 -0.39658223514E+03  0.39799773221E+03  0.00000000000E+00 0. -1.
<mgrwt>
<rscale>  1 0.30000000E+03</rscale>
<asrwt>0</asrwt>
<pdfrwt beam="1">  1       21 0.43316154E-02 0.30000000E+03</pdfrwt>
<pdfrwt beam="2">0</pdfrwt>
<totfact> 0.36758397E+04</totfact>
</mgrwt>
</event>
<event>
 6    1  0.1270461E-001  0.3000000E+03  0.7818608E-02  0.1093470E+00
         21   -1    0    0  501  502  0.00000000000E+00  0.00000000000E+00  0.31218235182E+01  0.31218235182E+01  0.00000000000E+00 0. -1.
         13   -1    0    0    0    0 -0.00000000000E+00 -0.00000000000E+00 -0.10000000000E+04  0.10000000000E+04  0.00000000000E+00 0.  1.
    9000005    2    1    2  501    0  0.47983031851E+02 -0.70773661710E+01 -0.74329872884E+03  0.74494553350E+03  0.99190291571E+01 0.  0.
         13    1    3    3    0    0  0.26376835466E+02 -0.95775670966E+00 -0.34059196071E+03  0.34161314150E+03  0.00000000000E+00 0.  1.
          3    1    3    3  501    0  0.21606196385E+02 -0.61196094614E+01 -0.40270676813E+03  0.40333239200E+03  0.00000000000E+00 0.  1.
         -3    1    1    2    0  502 -0.47983031851E+02  0.70773661710E+01 -0.25357944764E+03  0.25817629001E+03  0.00000000000E+00 0. -1.
<mgrwt>
<rscale>  1 0.30000000E+03</rscale>
<asrwt>0</asrwt>
<pdfrwt beam="1">  1       21 0.11352109E-01 0.30000000E+03</pdfrwt>
<pdfrwt beam="2">0</pdfrwt>
<totfact> 0.68518129E+03</totfact>
</mgrwt>
</event>
<event>
 6    1  0.1270461E-001  0.3000000E+03  0.7818608E-02  0.1093470E+00
         21   -1    0    0  501  502  0.00000000000E+00  0.00000000000E+00  0.97072974614E+00  0.97072974614E+00  0.00000000000E+00 0. -1.
         13   -1    0    0    0    0 -0.00000000000E+00 -0.00000000000E+00 -0.10000000000E+04  0.10000000000E+04  0.00000000000E+00 0.  1.
    9000005    2    1    2  501    0  0.30111966895E+02 -0.66323599873E+01 -0.55812083217E+03  0.55898547035E+03  0.38953833888E+01 0.  0.
         13    1    3    3    0    0  0.20556578164E+02 -0.40839523817E+01 -0.34592045159E+03  0.34655477258E+03  0.00000000000E+00 0.  1.
          3    1    3    3  501    0  0.95553887314E+01 -0.25484076057E+01 -0.21220038059E+03  0.21243069777E+03  0.00000000000E+00 0.  1.
         -3    1    1    2    0  502 -0.30111966895E+02  0.66323599873E+01 -0.44090843808E+03  0.44198525939E+03  0.00000000000E+00 0. -1.
<mgrwt>
<rscale>  1 0.30000000E+03</rscale>
<asrwt>0</asrwt>
<pdfrwt beam="1">  1       21 0.35299338E-02 0.30000000E+03</pdfrwt>
<pdfrwt beam="2">0</pdfrwt>
<totfact> 0.51871583E+04</totfact>
</mgrwt>
</event>
<event>
 6    1  0.1270461E-001  0.3000000E+03  0.7818608E-02  0.1093470E+00
         21   -1    0    0  501  502  0.00000000000E+00  0.00000000000E+00  0.35846457446E+01  0.35846457446E+01  0.00000000000E+00 0. -1.
         13   -1    0    0    0    0 -0.00000000000E+00 -0.00000000000E+00 -0.10000000000E+04  0.10000000000E+04  0.00000000000E+00 0.  1.
    9000005    2    1    2  501    0 -0.15282969462E+02 -0.47646042247E+02 -0.77348524851E+03  0.77510806807E+03  0.30615404828E+01 0.  0.
         13    1    3    3    0    0 -0.93832179366E+01 -0.33767291140E+02 -0.53669965301E+03  0.53784272076E+03  0.00000000000E+00 0.  1.
          1    1    3    3  501    0 -0.58997515254E+01 -0.13878751107E+02 -0.23678559550E+03  0.23726534731E+03  0.00000000000E+00 0.  1.
         -1    1    1    2    0  502  0.15282969462E+02  0.47646042247E+02 -0.22293010574E+03  0.22847657767E+03  0.00000000000E+00 0. -1.
<mgrwt>
<rscale>  1 0.30000000E+03</rscale>
<asrwt>0</asrwt>
<pdfrwt beam="1">  1       21 0.13035103E-01 0.30000000E+03</pdfrwt>
<pdfrwt beam="2">0</pdfrwt>
<totfact> 0.53302092E+03</totfact>
</mgrwt>
</event>
<event>
 6    1  0.1855918E-001  0.3000000E+03  0.7818608E-02  0.1093470E+00
         21   -1    0    0  501  502  0.00000000000E+00  0.00000000000E+00  0.24499478594E+01  0.24499478594E+01  0.00000000000E+00 0. -1.
         13   -1    0    0    0    0 -0.00000000000E+00 -0.00000000000E+00 -0.10000000000E+04  0.10000000000E+04  0.00000000000E+00 0.  1.
    9000005    2    1    2  501    0 -0.16394514191E+02 -0.44314523020E+02 -0.64644361222E+03  0.64817845705E+03  0.36621521847E+01 0.  0.
         13    1    3    3    0    0 -0.87627812650E+01 -0.20638334361E+02 -0.28611229858E+03  0.28698950256E+03  0.00000000000E+00 0.  1.
          3    1    3    3  501    0 -0.76317329261E+01 -0.23676188659E+02 -0.36033131365E+03  0.36118895450E+03  0.00000000000E+00 0.  1.
         -1    1    1    2    0  502  0.16394514191E+02  0.44314523020E+02 -0.35110643992E+03  0.35427149081E+03  0.00000000000E+00 0. -1.
<mgrwt>
<rscale>  1 0.30000000E+03</rscale>
<asrwt>0</asrwt>
<pdfrwt beam="1">  1       21 0.89089201E-02 0.30000000E+03</pdfrwt>
<pdfrwt beam="2">0</pdfrwt>
<totfact> 0.10566716E+04</totfact>
</mgrwt>
</event>
<event>
 6    1  0.1270461E-001  0.3000000E+03  0.7818608E-02  0.1093470E+00
         21   -1    0    0  501  502  0.00000000000E+00  0.00000000000E+00  0.20883407057E+01  0.20883407057E+01  0.00000000000E+00 0. -1.
         13   -1    0    0    0    0 -0.00000000000E+00 -0.00000000000E+00 -0.10000000000E+04  0.10000000000E+04  0.00000000000E+00 0.  1.
    9000005    2    1    2  501    0 -0.55568156198E+01 -0.44124837450E+02 -0.61135390425E+03  0.61298067249E+03  0.37187530207E+01 0.  0.
         13    1    3    3    0    0 -0.55673372189E+00 -0.11304760621E+02 -0.13732806327E+03  0.13779370278E+03  0.00000000000E+00 0.  1.
          1    1    3    3  501    0 -0.50000818979E+01 -0.32820076829E+02 -0.47402584098E+03  0.47518696971E+03  0.00000000000E+00 0.  1.
         -1    1    1    2    0  502  0.55568156198E+01  0.44124837450E+02 -0.38655775505E+03  0.38910766822E+03  0.00000000000E+00 0. -1.
<mgrwt>
<rscale>  1 0.30000000E+03</rscale>
<asrwt>0</asrwt>
<pdfrwt beam="1">  1       21 0.75939822E-02 0.30000000E+03</pdfrwt>
<pdfrwt beam="2">0</pdfrwt>
<totfact> 0.13995866E+04</totfact>
</mgrwt>
</event>
<event>
 6    1  0.1270461E-001  0.3000000E+03  0.7818608E-02  0.1093470E+00
         21   -1    0    0  501  502  0.00000000000E+00  0.00000000000E+00  0.37830723379E+01  0.37830723379E+01  0.00000000000E+00 0. -1.
         13   -1    0    0    0    0 -0.00000000000E+00 -0.00000000000E+00 -0.10000000000E+04  0.10000000000E+04  0.00000000000E+00 0.  1.
    9000005    2    1    2  501    0 -0.55065798918E+02 -0.15735501770E+02 -0.31645292271E+03  0.32161084287E+03  0.33516763521E+01 0.  0.
         13    1    3    3    0    0 -0.46189591617E+02 -0.14461972198E+02 -0.26671443211E+03  0.27107049878E+03  0.00000000000E+00 0.  1.
          3    1    3    3  501    0 -0.88762073013E+01 -0.12735295721E+01 -0.49738490604E+02  0.50540344095E+02  0.00000000000E+00 0.  1.
         -3    1    1    2    0  502  0.55065798918E+02  0.15735501770E+02 -0.67976400495E+03  0.68217222947E+03  0.00000000000E+00 0. -1.
<mgrwt>
<rscale>  1 0.30000000E+03</rscale>
<asrwt>0</asrwt>
<pdfrwt beam="1">  1       21 0.13756656E-01 0.30000000E+03</pdfrwt>
<pdfrwt beam="2">0</pdfrwt>
<totfact> 0.48296730E+03</totfact>
</mgrwt>
</event>
<event>
 6    1  0.1270461E-001  0.3000000E+03  0.7818608E-02  0.1093470E+00
         21   -1    0    0  501  502  0.00000000000E+00  0.00000000000E+00  0.16405939333E+01  0.16405939333E+01  0.00000000000E+00 0. -1.
         13   -1    0    0    0    0 -0.00000000000E+00 -0.00000000000E+00 -0.10000000000E+04  0.10000000000E+04  0.00000000000E+00 0.  1.
    9000005    2    1    2  501    0  0.33287630477E+02 -0.22945939100E+02 -0.51118831921E+03  0.51279475900E+03  0.32225293949E+01 0.  0.
         13    1    3    3    0    0  0.29224668501E+02 -0.18779823506E+02 -0.43864318934E+03  0.44001660261E+03  0.00000000000E+00 0.  1.
          1    1    3    3  501    0  0.40629619761E+01 -0.41661155940E+01 -0.72545129878E+02  0.72778156395E+02  0.00000000000E+00 0.  1.
         -3    1    1    2    0  502 -0.33287630477E+02  0.22945939100E+02 -0.48717108685E+03  0.48884583493E+03  0.00000000000E+00 0. -1.
<mgrwt>
<rscale>  1 0.30000000E+03</rscale>
<asrwt>0</asrwt>
<pdfrwt beam="1">  1       21 0.59658087E-02 0.30000000E+03</pdfrwt>
<pdfrwt beam="2">0</pdfrwt>
<totfact> 0.21280352E+04</totfact>
</mgrwt>
</event>
<event>
 6    1  0.1270461E-001  0.3000000E+03  0.7818608E-02  0.1093470E+00
         21   -1    0    0  501  502  0.00000000000E+00  0.00000000000E+00  0.15251501617E+01  0.15251501617E+01  0.00000000000E+00 0. -1.
         13   -1    0    0    0    0 -0.00000000000E+00 -0.00000000000E+00 -0.10000000000E+04  0.10000000000E+04  0.00000000000E+00 0.  1.
    9000005    2    1    2  501    0  0.25847676179E+02  0.20000282976E+02 -0.77271920924E+03  0.77341613468E+03  0.30704020742E+01 0.  0.
         13    1    3    3    0    0  0.25360294686E+02  0.19296237725E+02 -0.74017369071E+03  0.74085935356E+03  0.00000000000E+00 0.  1.
          3    1    3    3  501    0  0.48738149317E+00  0.70404525127E+00 -0.32545518532E+02  0.32556781120E+02  0.00000000000E+00 0.  1.
         -1    1    1    2    0  502 -0.25847676179E+02 -0.20000282976E+02 -0.22575564060E+03  0.22810901548E+03  0.00000000000E+00 0. -1.
<mgrwt>
<rscale>  1 0.30000000E+03</rscale>
<asrwt>0</asrwt>
<pdfrwt beam="1">  1       21 0.55460123E-02 0.30000000E+03</pdfrwt>
<pdfrwt beam="2">0</pdfrwt>
<totfact> 0.24126912E+04</totfact>
</mgrwt>
</event>
<event>
 6    1  0.1270461E-001  0.3000000E+03  0.7818608E-02  0.1093470E+00
         21   -1    0    0  501  502  0.00000000000E+00  0.00000000000E+00  0.35128422095E+01  0.35128422095E+01  0.00000000000E+00 0. -1.
         13   -1    0    0    0    0 -0.00000000000E+00 -0.00000000000E+00 -0.10000000000E+04  0.10000000000E+04  0.00000000000E+00 0.  1.
    9000005    2    1    2  501    0  0.26518848774E+02  0.33519139073E+02 -0.84569715563E+03  0.84678247892E+03  0.31789219878E+01 0.  0.
         13    1    3    3    0    0  0.25054056376E+02  0.32645446644E+02 -0.81038739411E+03  0.81143154946E+03  0.00000000000E+00 0.  1.
          1    1    3    3  501    0  0.14647923974E+01  0.87369242910E+00 -0.35309761523E+02  0.35350929465E+02  0.00000000000E+00 0.  1.
         -3    1    1    2    0  502 -0.26518848774E+02 -0.33519139073E+02 -0.15079000216E+03  0.15673036329E+03  0.00000000000E+00 0. -1.
<mgrwt>
<rscale>  1 0.30000000E+03</rscale>
<asrwt>0</asrwt>
<pdfrwt beam="1">  1       21 0.12773999E-01 0.30000000E+03</pdfrwt>
<pdfrwt beam="2">0</pdfrwt>
<totfact> 0.55307410E+03</totfact>
</mgrwt>
</event>
<event>
 6    1  0.1270461E-001  0.3000000E+03  0.7818608E-02  0.1093470E+00
         21   -1    0    0  501  502  0.00000000000E+00  0.00000000000E+00  0.13841699726E+01  0.13841699726E+01  0.00000000000E+00 0. -1.
         13   -1    0    0    0    0 -0.00000000000E+00 -0.00000000000E+00 -0.10000000000E+04  0.10000000000E+04  0.00000000000E+00 0.  1.
    9000005    2    1    2  501    0  0.38477904223E+01  0.33686740983E+02 -0.70452081658E+03  0.70534113434E+03  0.26330201152E+01 0.  0.
         13    1    3    3    0    0  0.28294242340E+01  0.30628393855E+02 -0.62923018493E+03  0.62998153130E+03  0.00000000000E+00 0.  1.
          1    1    3    3  501    0  0.10183661883E+01  0.30583471281E+01 -0.75290631650E+02  0.75359603045E+02  0.00000000000E+00 0.  1.
         -3    1    1    2    0  502 -0.38477904223E+01 -0.33686740983E+02 -0.29409501345E+03  0.29604303563E+03  0.00000000000E+00 0. -1.
<mgrwt>
<rscale>  1 0.30000000E+03</rscale>
<asrwt>0</asrwt>
<pdfrwt beam="1">  1       21 0.50333560E-02 0.30000000E+03</pdfrwt>
<pdfrwt beam="2">0</pdfrwt>
<totfact> 0.28479951E+04</totfact>
</mgrwt>
</event>
<event>
 6    1  0.1270461E-001  0.3000000E+03  0.7818608E-02  0.1093470E+00
         21   -1    0    0  501  502  0.00000000000E+00  0.00000000000E+00  0.35472578038E+01  0.35472578038E+01  0.00000000000E+00 0. -1.
         13   -1    0    0    0    0 -0.00000000000E+00 -0.00000000000E+00 -0.10000000000E+04  0.10000000000E+04  0.00000000000E+00 0.  1.
    9000005    2    1    2  501    0 -0.14478185569E+02  0.29800156784E+02 -0.91512103888E+03  0.91572634249E+03  0.32482815400E+01 0.  0.
         13    1    3    3    0    0 -0.10428618987E+02  0.19444395815E+02 -0.57302841023E+03  0.57345304913E+03  0.00000000000E+00 0.  1.
          3    1    3    3  501    0 -0.40495665826E+01  0.10355760969E+02 -0.34209262865E+03  0.34227329337E+03  0.00000000000E+00 0.  1.
         -1    1    1    2    0  502  0.14478185569E+02 -0.29800156784E+02 -0.81331703317E+02  0.87820915312E+02  0.00000000000E+00 0. -1.
<mgrwt>
<rscale>  1 0.30000000E+03</rscale>
<asrwt>0</asrwt>
<pdfrwt beam="1">  1       21 0.12899146E-01 0.30000000E+03</pdfrwt>
<pdfrwt beam="2">0</pdfrwt>
<totfact> 0.54332298E+03</totfact>
</mgrwt>
</event>
<event>
 6    1  0.1270461E-001  0.3000000E+03  0.7818608E-02  0.1093470E+00
         21   -1    0    0  501  502  0.00000000000E+00  0.00000000000E+00  0.36167813087E+01  0.36167813087E+01  0.00000000000E+00 0. -1.
         13   -1    0    0    0    0 -0.00000000000E+00 -0.00000000000E+00 -0.10000000000E+04  0.10000000000E+04  0.00000000000E+00 0.  1.
    9000005    2    1    2  501    0  0.14371510020E+02  0.27014254660E+02 -0.93012422506E+03  0.93063346478E+03  0.33558101483E+01 0.  0.
         13    1    3    3    0    0  0.12459000355E+02  0.22344664588E+02 -0.80833084417E+03  0.80873559608E+03  0.00000000000E+00 0.  1.
          3    1    3    3  501    0  0.19125096647E+01  0.46695900722E+01 -0.12179338089E+03  0.12189786870E+03  0.00000000000E+00 0.  1.
         -3    1    1    2    0  502 -0.14371510020E+02 -0.27014254660E+02 -0.66258993629E+02  0.72983316531E+02  0.00000000000E+00 0. -1.
<mgrwt>
<rscale>  1 0.30000000E+03</rscale>
<asrwt>0</asrwt>
<pdfrwt beam="1">  1       21 0.13151960E-01 0.30000000E+03</pdfrwt>
<pdfrwt beam="2">0</pdfrwt>
<totfact> 0.52439968E+03</totfact>
</mgrwt>
</event>
<event>
 6    1  0.1270461E-001  0.3000000E+03  0.7818608E-02  0.1093470E+00
         21   -1    0    0  501  502  0.00000000000E+00  0.00000000000E+00  0.19991136212E+01  0.19991136212E+01  0.00000000000E+00 0. -1.
         13   -1    0    0    0    0 -0.00000000000E+00 -0.00000000000E+00 -0.10000000000E+04  0.10000000000E+04  0.00000000000E+00 0.  1.
    9000005    2    1    2  501    0  0.92011759569E+01  0.31464239933E+02 -0.83939561842E+03  0.84004143069E+03  0.31529403863E+01 0.  0.
         13    1    3    3    0    0  0.44962591258E+01  0.15523154409E+02 -0.45406016507E+03  0.45434768424E+03  0.00000000000E+00 0.  1.
          3    1    3    3  501    0  0.47049168312E+01  0.15941085524E+02 -0.38533545334E+03  0.38569374645E+03  0.00000000000E+00 0.  1.
         -1    1    1    2    0  502 -0.92011759569E+01 -0.31464239933E+02 -0.15860526796E+03  0.16195768293E+03  0.00000000000E+00 0. -1.
<mgrwt>
<rscale>  1 0.30000000E+03</rscale>
<asrwt>0</asrwt>
<pdfrwt beam="1">  1       21 0.72695194E-02 0.30000000E+03</pdfrwt>
<pdfrwt beam="2">0</pdfrwt>
<totfact> 0.15106921E+04</totfact>
</mgrwt>
</event>
<event>
 6    1  0.1270461E-001  0.3000000E+03  0.7818608E-02  0.1093470E+00
         21   -1    0    0  501  502  0.00000000000E+00  0.00000000000E+00  0.95138849463E+00  0.95138849463E+00  0.00000000000E+00 0. -1.
         13   -1    0    0    0    0 -0.00000000000E+00 -0.00000000000E+00 -0.10000000000E+04  0.10000000000E+04  0.00000000000E+00 0.  1.
    9000005    2    1    2  501    0  0.18409689286E+01  0.30371807752E+02 -0.44395902384E+03  0.44502847459E+03  0.49892355940E+01 0.  0.
         13    1    3    3    0    0  0.40727588307E+00  0.18002421744E+01 -0.49006138378E+02  0.49040884415E+02  0.00000000000E+00 0.  1.
          3    1    3    3  501    0  0.14336930455E+01  0.28571565578E+02 -0.39495288546E+03  0.39598759017E+03  0.00000000000E+00 0.  1.
         -1    1    1    2    0  502 -0.18409689286E+01 -0.30371807752E+02 -0.55508958767E+03  0.55592291391E+03  0.00000000000E+00 0. -1.
<mgrwt>
<rscale>  1 0.30000000E+03</rscale>
<asrwt>0</asrwt>
<pdfrwt beam="1">  1       21 0.34596018E-02 0.30000000E+03</pdfrwt>
<pdfrwt beam="2">0</pdfrwt>
<totfact> 0.53649232E+04</totfact>
</mgrwt>
</event>
<event>
 6    1  0.1270461E-001  0.3000000E+03  0.7818608E-02  0.1093470E+00
         21   -1    0    0  501  502  0.00000000000E+00  0.00000000000E+00  0.16372161223E+01  0.16372161223E+01  0.00000000000E+00 0. -1.
         13   -1    0    0    0    0 -0.00000000000E+00 -0.00000000000E+00 -0.10000000000E+04  0.10000000000E+04  0.00000000000E+00 0.  1.
    9000005    2    1    2  501    0 -0.31461295192E+02  0.86222690007E+01 -0.21277782293E+03  0.21537524484E+03  0.69236941790E+01 0.  0.
         13    1    3    3    0    0 -0.29651513242E+02  0.96781099441E+01 -0.19583703199E+03  0.19830537347E+03  0.00000000000E+00 0.  1.
          1    1    3    3  501    0 -0.18097819501E+01 -0.10558409433E+01 -0.16940790940E+02  0.17069871367E+02  0.00000000000E+00 0.  1.
         -1    1    1    2    0  502  0.31461295192E+02 -0.86222690007E+01 -0.78558496095E+03  0.78626197128E+03  0.00000000000E+00 0. -1.
<mgrwt>
<rscale>  1 0.30000000E+03</rscale>
<asrwt>0</asrwt>
<pdfrwt beam="1">  1       21 0.59535257E-02 0.30000000E+03</pdfrwt>
<pdfrwt beam="2">0</pdfrwt>
<totfact> 0.21356108E+04</totfact>
</mgrwt>
</event>
<event>
 6    1  0.1270461E-001  0.3000000E+03  0.7818608E-02  0.1093470E+00
         21   -1    0    0  501  502  0.00000000000E+00  0.00000000000E+00  0.31055964113E+01  0.31055964113E+01  0.00000000000E+00 0. -1.
         13   -1    0    0    0    0 -0.00000000000E+00 -0.00000000000E+00 -0.10000000000E+04  0.10000000000E+04  0.00000000000E+00 0.  1.
    9000005    2    1    2  501    0  0.16627210681E+02 -0.53025856986E+02 -0.51560800447E+03  0.51862153721E+03  0.53365662890E+01 0.  0.
         13    1    3    3    0    0  0.82158969166E+01 -0.34638449343E+02 -0.32464061647E+03  0.32658666996E+03  0.00000000000E+00 0.  1.
          3    1    3    3  501    0  0.84113137641E+01 -0.18387407644E+02 -0.19096738800E+03  0.19203486724E+03  0.00000000000E+00 0.  1.
         -1    1    1    2    0  502 -0.16627210681E+02  0.53025856986E+02 -0.48128639912E+03  0.48448405920E+03  0.00000000000E+00 0. -1.
<mgrwt>
<rscale>  1 0.30000000E+03</rscale>
<asrwt>0</asrwt>
<pdfrwt beam="1">  1       21 0.11293102E-01 0.30000000E+03</pdfrwt>
<pdfrwt beam="2">0</pdfrwt>
<totfact> 0.69165285E+03</totfact>
</mgrwt>
</event>
<event>
 6    1  0.1270461E-001  0.3000000E+03  0.7818608E-02  0.1093470E+00
         21   -1    0    0  501  502  0.00000000000E+00  0.00000000000E+00  0.57587816176E+01  0.57587816176E+01  0.00000000000E+00 0. -1.
         13   -1    0    0    0    0 -0.00000000000E+00 -0.00000000000E+00 -0.10000000000E+04  0.10000000000E+04  0.00000000000E+00 0.  1.
    9000005    2    1    2  501    0 -0.20083116211E+02  0.24206735585E+02 -0.95475856406E+03  0.95527930463E+03  0.23101094314E+01 0.  0.
         13    1    3    3    0    0 -0.16711312749E+02  0.18861106543E+02 -0.77599397468E+03  0.77640302553E+03  0.00000000000E+00 0.  1.
          3    1    3    3  501    0 -0.33718034629E+01  0.53456290421E+01 -0.17876458938E+03  0.17887627910E+03  0.00000000000E+00 0.  1.
         -3    1    1    2    0  502  0.20083116211E+02 -0.24206735585E+02 -0.39482654319E+02  0.50479476983E+02  0.00000000000E+00 0. -1.
<mgrwt>
<rscale>  1 0.30000000E+03</rscale>
<asrwt>0</asrwt>
<pdfrwt beam="1">  1       21 0.20941068E-01 0.30000000E+03</pdfrwt>
<pdfrwt beam="2">0</pdfrwt>
<totfact> 0.21972256E+03</totfact>
</mgrwt>
</event>
<event>
 6    1  0.1270461E-001  0.3000000E+03  0.7818608E-02  0.1093470E+00
         21   -1    0    0  501  502  0.00000000000E+00  0.00000000000E+00  0.34041460010E+01  0.34041460010E+01  0.00000000000E+00 0. -1.
         13   -1    0    0    0    0 -0.00000000000E+00 -0.00000000000E+00 -0.10000000000E+04  0.10000000000E+04  0.00000000000E+00 0.  1.
    9000005    2    1    2  501    0 -0.44177277096E+02 -0.10076022178E+02 -0.81408301408E+03  0.81535071006E+03  0.35310825962E+01 0.  0.
         13    1    3    3    0    0 -0.22298148526E+02 -0.32986754980E+01 -0.39867445539E+03  0.39931116947E+03  0.00000000000E+00 0.  1.
          1    1    3    3  501    0 -0.21879128570E+02 -0.67773466803E+01 -0.41540855869E+03  0.41603954058E+03  0.00000000000E+00 0.  1.
         -3    1    1    2    0  502  0.44177277096E+02  0.10076022178E+02 -0.18251283992E+03  0.18805343594E+03  0.00000000000E+00 0. -1.
<mgrwt>
<rscale>  1 0.30000000E+03</rscale>
<asrwt>0</asrwt>
<pdfrwt beam="1">  1       21 0.12378739E-01 0.30000000E+03</pdfrwt>
<pdfrwt beam="2">0</pdfrwt>
<totfact> 0.58567338E+03</totfact>
</mgrwt>
</event>
<event>
 6    1  0.1270461E-001  0.3000000E+03  0.7818608E-02  0.1093470E+00
         21   -1    0    0  501  502  0.00000000000E+00  0.00000000000E+00  0.27191950036E+01  0.27191950036E+01  0.00000000000E+00 0. -1.
         13   -1    0    0    0    0 -0.00000000000E+00 -0.00000000000E+00 -0.10000000000E+04  0.10000000000E+04  0.00000000000E+00 0.  1.
    9000005    2    1    2  501    0 -0.72161036628E+00  0.34229719847E+02 -0.87664106614E+03  0.87731528345E+03  0.32176520208E+01 0.  0.
         13    1    3    3    0    0 -0.12378655153E+01  0.56552017386E+01 -0.15917874735E+03  0.15928398295E+03  0.00000000000E+00 0.  1.
          3    1    3    3  501    0  0.51625514899E+00  0.28574518109E+02 -0.71746231879E+03  0.71803130050E+03  0.00000000000E+00 0.  1.
         -3    1    1    2    0  502  0.72161036628E+00 -0.34229719847E+02 -0.12063973886E+03  0.12540391156E+03  0.00000000000E+00 0. -1.
<mgrwt>
<rscale>  1 0.30000000E+03</rscale>
<asrwt>0</asrwt>
<pdfrwt beam="1">  1       21 0.98880027E-02 0.30000000E+03</pdfrwt>
<pdfrwt beam="2">0</pdfrwt>
<totfact> 0.87780326E+03</totfact>
</mgrwt>
</event>
<event>
 6    1  0.1270461E-001  0.3000000E+03  0.7818608E-02  0.1093470E+00
         21   -1    0    0  501  502  0.00000000000E+00  0.00000000000E+00  0.21822587184E+01  0.21822587184E+01  0.00000000000E+00 0. -1.
         13   -1    0    0    0    0 -0.00000000000E+00 -0.00000000000E+00 -0.10000000000E+04  0.10000000000E+04  0.00000000000E+00 0.  1.
    9000005    2    1    2  501    0  0.26740090972E+02  0.37262787600E+02 -0.40875406094E+03  0.41133577502E+03  0.36999552526E+01 0.  0.
         13    1    3    3    0    0  0.92229197816E+01  0.15173697668E+02 -0.14746320485E+03  0.14852844890E+03  0.00000000000E+00 0.  1.
          3    1    3    3  501    0  0.17517171191E+02  0.22089089932E+02 -0.26129085610E+03  0.26280732612E+03  0.00000000000E+00 0.  1.
         -1    1    1    2    0  502 -0.26740090972E+02 -0.37262787600E+02 -0.58906368034E+03  0.59084648370E+03  0.00000000000E+00 0. -1.
<mgrwt>
<rscale>  1 0.30000000E+03</rscale>
<asrwt>0</asrwt>
<pdfrwt beam="1">  1       21 0.79355030E-02 0.30000000E+03</pdfrwt>
<pdfrwt beam="2">0</pdfrwt>
<totfact> 0.12956745E+04</totfact>
</mgrwt>
</event>
<event>
 6    1  0.1270461E-001  0.3000000E+03  0.7818608E-02  0.1093470E+00
         21   -1    0    0  501  502  0.00000000000E+00  0.00000000000E+00  0.35245219764E+01  0.35245219764E+01  0.00000000000E+00 0. -1.
         13   -1    0    0    0    0 -0.00000000000E+00 -0.00000000000E+00 -0.10000000000E+04  0.10000000000E+04  0.00000000000E+00 0.  1.
    9000005    2    1    2  501    0  0.30007809635E+02  0.50728134266E+02 -0.55477368615E+03  0.55790777500E+03  0.36647388694E+01 0.  0.
         13    1    3    3    0    0  0.24033839281E+02  0.37546017049E+02 -0.42005350934E+03  0.42241245192E+03  0.00000000000E+00 0.  1.
          3    1    3    3  501    0  0.59739703545E+01  0.13182117217E+02 -0.13472017681E+03  0.13549532308E+03  0.00000000000E+00 0.  1.
         -1    1    1    2    0  502 -0.30007809635E+02 -0.50728134266E+02 -0.44170179187E+03  0.44561674698E+03  0.00000000000E+00 0. -1.
<mgrwt>
<rscale>  1 0.30000000E+03</rscale>
<asrwt>0</asrwt>
<pdfrwt beam="1">  1       21 0.12816471E-01 0.30000000E+03</pdfrwt>
<pdfrwt beam="2">0</pdfrwt>
<totfact> 0.54973539E+03</totfact>
</mgrwt>
</event>
<event>
 6    1  0.1270461E-001  0.3000000E+03  0.7818608E-02  0.1093470E+00
         21   -1    0    0  501  502  0.00000000000E+00  0.00000000000E+00  0.29904181685E+01  0.29904181685E+01  0.00000000000E+00 0. -1.
         13   -1    0    0    0    0 -0.00000000000E+00 -0.00000000000E+00 -0.10000000000E+04  0.10000000000E+04  0.00000000000E+00 0.  1.
    9000005    2    1    2  501    0 -0.30675929496E+01 -0.43555935186E+02 -0.80014501864E+03  0.80134174881E+03  0.31651071651E+01 0.  0.
         13    1    3    3    0    0 -0.18277504595E+01 -0.83705824231E+01 -0.16060379910E+03  0.16083217218E+03  0.00000000000E+00 0.  1.
          3    1    3    3  501    0 -0.12398424901E+01 -0.35185352763E+02 -0.63954121954E+03  0.64050957663E+03  0.00000000000E+00 0.  1.
         -3    1    1    2    0  502  0.30675929496E+01  0.43555935186E+02 -0.19686456319E+03  0.20164866936E+03  0.00000000000E+00 0. -1.
<mgrwt>
<rscale>  1 0.30000000E+03</rscale>
<asrwt>0</asrwt>
<pdfrwt beam="1">  1       21 0.10874271E-01 0.30000000E+03</pdfrwt>
<pdfrwt beam="2">0</pdfrwt>
<totfact> 0.74034993E+03</totfact>
</mgrwt>
</event>
<event>
 6    1  0.1270461E-001  0.3000000E+03  0.7818608E-02  0.1093470E+00
         21   -1    0    0  501  502  0.00000000000E+00  0.00000000000E+00  0.25713264230E+01  0.25713264230E+01  0.00000000000E+00 0. -1.
         13   -1    0    0    0    0 -0.00000000000E+00 -0.00000000000E+00 -0.10000000000E+04  0.10000000000E+04  0.00000000000E+00 0.  1.
    9000005    2    1    2  501    0  0.15877923685E+02 -0.30026097672E+02 -0.87057255999E+03  0.87124673407E+03  0.45403106319E+01 0.  0.
         13    1    3    3    0    0  0.12967795122E+02 -0.26944214775E+02 -0.73526542091E+03  0.73587321844E+03  0.00000000000E+00 0.  1.
          1    1    3    3  501    0  0.29101285627E+01 -0.30818828969E+01 -0.13530713908E+03  0.13537351563E+03  0.00000000000E+00 0.  1.
         -3    1    1    2    0  502 -0.15877923685E+02  0.30026097672E+02 -0.12685611359E+03  0.13132459235E+03  0.00000000000E+00 0. -1.
<mgrwt>
<rscale>  1 0.30000000E+03</rscale>
<asrwt>0</asrwt>
<pdfrwt beam="1">  1       21 0.93502976E-02 0.30000000E+03</pdfrwt>
<pdfrwt beam="2">0</pdfrwt>
<totfact> 0.96980483E+03</totfact>
</mgrwt>
</event>
<event>
 6    1  0.1270461E-001  0.3000000E+03  0.7818608E-02  0.1093470E+00
         21   -1    0    0  501  502  0.00000000000E+00  0.00000000000E+00  0.30840750047E+01  0.30840750047E+01  0.00000000000E+00 0. -1.
         13   -1    0    0    0    0 -0.00000000000E+00 -0.00000000000E+00 -0.10000000000E+04  0.10000000000E+04  0.00000000000E+00 0.  1.
    9000005    2    1    2  501    0 -0.37022092070E+02  0.52638327679E+01 -0.86894400481E+03  0.86976057523E+03  0.46294156783E+01 0.  0.
         13    1    3    3    0    0 -0.22911762518E+02  0.45944012596E+01 -0.58232773153E+03  0.58279640037E+03  0.00000000000E+00 0.  1.
          1    1    3    3  501    0 -0.14110329553E+02  0.66943150823E+00 -0.28661627329E+03  0.28696417486E+03  0.00000000000E+00 0.  1.
         -3    1    1    2    0  502  0.37022092070E+02 -0.52638327679E+01 -0.12797192018E+03  0.13332349977E+03  0.00000000000E+00 0. -1.
<mgrwt>
<rscale>  1 0.30000000E+03</rscale>
<asrwt>0</asrwt>
<pdfrwt beam="1">  1       21 0.11214842E-01 0.30000000E+03</pdfrwt>
<pdfrwt beam="2">0</pdfrwt>
<totfact> 0.70037847E+03</totfact>
</mgrwt>
</event>
<event>
 6    1  0.1270461E-001  0.3000000E+03  0.7818608E-02  0.1093470E+00
         21   -1    0    0  501  502  0.00000000000E+00  0.00000000000E+00  0.17319439639E+01  0.17319439639E+01  0.00000000000E+00 0. -1.
         13   -1    0    0    0    0 -0.00000000000E+00 -0.00000000000E+00 -0.10000000000E+04  0.10000000000E+04  0.00000000000E+00 0.  1.
    9000005    2    1    2  501    0 -0.18226891937E+01  0.40987217267E+02 -0.42078842853E+03  0.42279671930E+03  0.33000134307E+01 0.  0.
         13    1    3    3    0    0 -0.52126369459E+00  0.25887141136E+02 -0.28015526564E+03  0.28134922899E+03  0.00000000000E+00 0.  1.
          1    1    3    3  501    0 -0.13014254991E+01  0.15100076131E+02 -0.14063316290E+03  0.14144749031E+03  0.00000000000E+00 0.  1.
         -3    1    1    2    0  502  0.18226891937E+01 -0.40987217267E+02 -0.57747962750E+03  0.57893522466E+03  0.00000000000E+00 0. -1.
<mgrwt>
<rscale>  1 0.30000000E+03</rscale>
<asrwt>0</asrwt>
<pdfrwt beam="1">  1       21 0.62979913E-02 0.30000000E+03</pdfrwt>
<pdfrwt beam="2">0</pdfrwt>
<totfact> 0.19380090E+04</totfact>
</mgrwt>
</event>
<event>
 6    1  0.1270461E-001  0.3000000E+03  0.7818608E-02  0.1093470E+00
         21   -1    0    0  501  502  0.00000000000E+00  0.00000000000E+00  0.12583923403E+01  0.12583923403E+01  0.00000000000E+00 0. -1.
         13   -1    0    0    0    0 -0.00000000000E+00 -0.00000000000E+00 -0.10000000000E+04  0.10000000000E+04  0.00000000000E+00 0.  1.
    9000005    2    1    2  501    0  0.22665142956E+02 -0.23689295645E+02 -0.68869796991E+03  0.68948612169E+03  0.33655342033E+01 0.  0.
         13    1    3    3    0    0  0.17329999807E+02 -0.16957662888E+02 -0.53339892949E+03  0.53394972535E+03  0.00000000000E+00 0.  1.
          1    1    3    3  501    0  0.53351431484E+01 -0.67316327570E+01 -0.15529904042E+03  0.15553639634E+03  0.00000000000E+00 0.  1.
         -1    1    1    2    0  502 -0.22665142956E+02  0.23689295645E+02 -0.31004363775E+03  0.31177227065E+03  0.00000000000E+00 0. -1.
<mgrwt>
<rscale>  1 0.30000000E+03</rscale>
<asrwt>0</asrwt>
<pdfrwt beam="1">  1       21 0.45759818E-02 0.30000000E+03</pdfrwt>
<pdfrwt beam="2">0</pdfrwt>
<totfact> 0.33492323E+04</totfact>
</mgrwt>
</event>
<event>
 6    1  0.1270461E-001  0.3000000E+03  0.7818608E-02  0.1093470E+00
         21   -1    0    0  501  502  0.00000000000E+00  0.00000000000E+00  0.17525714268E+01  0.17525714268E+01  0.00000000000E+00 0. -1.
         13   -1    0    0    0    0 -0.00000000000E+00 -0.00000000000E+00 -0.10000000000E+04  0.10000000000E+04  0.00000000000E+00 0.  1.
    9000005    2    1    2  501    0 -0.26207379882E+02  0.31468823575E+02 -0.59953748845E+03  0.60094497423E+03  0.35423689834E+01 0.  0.
         13    1    3    3    0    0 -0.45184523751E+01  0.42783661680E+01 -0.10720939774E+03  0.10738983096E+03  0.00000000000E+00 0.  1.
          3    1    3    3  501    0 -0.21688927507E+02  0.27190457407E+02 -0.49232809070E+03  0.49355514327E+03  0.00000000000E+00 0.  1.
         -3    1    1    2    0  502  0.26207379882E+02 -0.31468823575E+02 -0.39870994013E+03  0.40080759720E+03  0.00000000000E+00 0. -1.
<mgrwt>
<rscale>  1 0.30000000E+03</rscale>
<asrwt>0</asrwt>
<pdfrwt beam="1">  1       21 0.63730004E-02 0.30000000E+03</pdfrwt>
<pdfrwt beam="2">0</pdfrwt>
<totfact> 0.18987413E+04</totfact>
</mgrwt>
</event>
<event>
 6    1  0.1270461E-001  0.3000000E+03  0.7818608E-02  0.1093470E+00
         21   -1    0    0  501  502  0.00000000000E+00  0.00000000000E+00  0.16093347398E+01  0.16093347398E+01  0.00000000000E+00 0. -1.
         13   -1    0    0    0    0 -0.00000000000E+00 -0.00000000000E+00 -0.10000000000E+04  0.10000000000E+04  0.00000000000E+00 0.  1.
    9000005    2    1    2  501    0 -0.12415474880E+02  0.32790038907E+02 -0.74126089250E+03  0.74210008499E+03  0.39363331190E+01 0.  0.
         13    1    3    3    0    0 -0.10362740998E+01  0.38920091120E+01 -0.11341830480E+03  0.11348979453E+03  0.00000000000E+00 0.  1.
          3    1    3    3  501    0 -0.11379200781E+02  0.28898029795E+02 -0.62784258770E+03  0.62861029045E+03  0.00000000000E+00 0.  1.
         -1    1    1    2    0  502  0.12415474880E+02 -0.32790038907E+02 -0.25712977276E+03  0.25950924975E+03  0.00000000000E+00 0. -1.
<mgrwt>
<rscale>  1 0.30000000E+03</rscale>
<asrwt>0</asrwt>
<pdfrwt beam="1">  1       21 0.58521387E-02 0.30000000E+03</pdfrwt>
<pdfrwt beam="2">0</pdfrwt>
<totfact> 0.21997806E+04</totfact>
</mgrwt>
</event>
<event>
 6    1  0.1270461E-001  0.3000000E+03  0.7818608E-02  0.1093470E+00
         21   -1    0    0  501  502  0.00000000000E+00  0.00000000000E+00  0.97964071788E+00  0.97964071788E+00  0.00000000000E+00 0. -1.
         13   -1    0    0    0    0 -0.00000000000E+00 -0.00000000000E+00 -0.10000000000E+04  0.10000000000E+04  0.00000000000E+00 0.  1.
    9000005    2    1    2  501    0  0.96814347634E+01  0.29121651522E+02 -0.59204306352E+03  0.59284691716E+03  0.32676240506E+01 0.  0.
         13    1    3    3    0    0  0.48321224975E+01  0.12275291351E+02 -0.22670611094E+03  0.22708961430E+03  0.00000000000E+00 0.  1.
          3    1    3    3  501    0  0.48493122659E+01  0.16846360171E+02 -0.36533695258E+03  0.36575730287E+03  0.00000000000E+00 0.  1.
         -3    1    1    2    0  502 -0.96814347634E+01 -0.29121651522E+02 -0.40697729577E+03  0.40813272355E+03  0.00000000000E+00 0. -1.
<mgrwt>
<rscale>  1 0.30000000E+03</rscale>
<asrwt>0</asrwt>
<pdfrwt beam="1">  1       21 0.35623374E-02 0.30000000E+03</pdfrwt>
<pdfrwt beam="2">0</pdfrwt>
<totfact> 0.51083199E+04</totfact>
</mgrwt>
</event>
<event>
 6    1  0.1270461E-001  0.3000000E+03  0.7818608E-02  0.1093470E+00
         21   -1    0    0  501  502  0.00000000000E+00  0.00000000000E+00  0.18896965956E+01  0.18896965956E+01  0.00000000000E+00 0. -1.
         13   -1    0    0    0    0 -0.00000000000E+00 -0.00000000000E+00 -0.10000000000E+04  0.10000000000E+04  0.00000000000E+00 0.  1.
    9000005    2    1    2  501    0 -0.31407645942E+02  0.86138060616E+01 -0.83047389682E+03  0.83111908235E+03  0.33760720618E+01 0.  0.
         13    1    3    3    0    0 -0.16746090096E+02  0.33033020867E+01 -0.46281080464E+03  0.46312545194E+03  0.00000000000E+00 0.  1.
          1    1    3    3  501    0 -0.14661555846E+02  0.53105039748E+01 -0.36766309218E+03  0.36799363041E+03  0.00000000000E+00 0.  1.
         -3    1    1    2    0  502  0.31407645942E+02 -0.86138060616E+01 -0.16763640658E+03  0.17077061425E+03  0.00000000000E+00 0. -1.
<mgrwt>
<rscale>  1 0.30000000E+03</rscale>
<asrwt>0</asrwt>
<pdfrwt beam="1">  1       21 0.68716385E-02 0.30000000E+03</pdfrwt>
<pdfrwt beam="2">0</pdfrwt>
<totfact> 0.16663062E+04</totfact>
</mgrwt>
</event>
<event>
 6    1  0.1270461E-001  0.3000000E+03  0.7818608E-02  0.1093470E+00
         21   -1    0    0  501  502  0.00000000000E+00  0.00000000000E+00  0.52101005949E+01  0.52101005949E+01  0.00000000000E+00 0. -1.
         13   -1    0    0    0    0 -0.00000000000E+00 -0.00000000000E+00 -0.10000000000E+04  0.10000000000E+04  0.00000000000E+00 0.  1.
    9000005    2    1    2  501    0 -0.37462001223E+02 -0.10643614235E+02 -0.92051063487E+03  0.92134057574E+03  0.34553631338E+01 0.  0.
         13    1    3    3    0    0 -0.31496600990E+01 -0.13082509273E+01 -0.10418815710E+03  0.10424396366E+03  0.00000000000E+00 0.  1.
          1    1    3    3  501    0 -0.34312341124E+02 -0.93353633079E+01 -0.81632247778E+03  0.81709661209E+03  0.00000000000E+00 0.  1.
         -3    1    1    2    0  502  0.37462001223E+02  0.10643614235E+02 -0.74279264532E+02  0.83869524853E+02  0.00000000000E+00 0. -1.
<mgrwt>
<rscale>  1 0.30000000E+03</rscale>
<asrwt>0</asrwt>
<pdfrwt beam="1">  1       21 0.18945860E-01 0.30000000E+03</pdfrwt>
<pdfrwt beam="2">0</pdfrwt>
<totfact> 0.26594311E+03</totfact>
</mgrwt>
</event>
<event>
 6    1  0.1270461E-001  0.3000000E+03  0.7818608E-02  0.1093470E+00
         21   -1    0    0  501  502  0.00000000000E+00  0.00000000000E+00  0.10171838978E+01  0.10171838978E+01  0.00000000000E+00 0. -1.
         13   -1    0    0    0    0 -0.00000000000E+00 -0.00000000000E+00 -0.10000000000E+04  0.10000000000E+04  0.00000000000E+00 0.  1.
    9000005    2    1    2  501    0  0.30968201397E+02  0.66287295562E+01 -0.53718781435E+03  0.53813750925E+03  0.42733393035E+01 0.  0.
         13    1    3    3    0    0  0.27382761493E+02  0.45272835120E+01 -0.47641588133E+03  0.47722364139E+03  0.00000000000E+00 0.  1.
          3    1    3    3  501    0  0.35854399039E+01  0.21014460443E+01 -0.60771933018E+02  0.60913867858E+02  0.00000000000E+00 0.  1.
         -3    1    1    2    0  502 -0.30968201397E+02 -0.66287295562E+01 -0.46179500176E+03  0.46287967465E+03  0.00000000000E+00 0. -1.
<mgrwt>
<rscale>  1 0.30000000E+03</rscale>
<asrwt>0</asrwt>
<pdfrwt beam="1">  1       21 0.36988583E-02 0.30000000E+03</pdfrwt>
<pdfrwt beam="2">0</pdfrwt>
<totfact> 0.47960274E+04</totfact>
</mgrwt>
</event>
<event>
 6    1  0.1270461E-001  0.3000000E+03  0.7818608E-02  0.1093470E+00
         21   -1    0    0  501  502  0.00000000000E+00  0.00000000000E+00  0.13158841368E+01  0.13158841368E+01  0.00000000000E+00 0. -1.
         13   -1    0    0    0    0 -0.00000000000E+00 -0.00000000000E+00 -0.10000000000E+04  0.10000000000E+04  0.00000000000E+00 0.  1.
    9000005    2    1    2  501    0  0.29588035905E+02  0.73983368623E+01 -0.76940958264E+03  0.77002170167E+03  0.34825180046E+01 0.  0.
         13    1    3    3    0    0  0.54126719980E+01  0.15434680060E+01 -0.17874885824E+03  0.17883745032E+03  0.00000000000E+00 0.  1.
          1    1    3    3  501    0  0.24175363907E+02  0.58548688563E+01 -0.59066072440E+03  0.59118425136E+03  0.00000000000E+00 0.  1.
         -1    1    1    2    0  502 -0.29588035905E+02 -0.73983368623E+01 -0.22927453322E+03  0.23129418246E+03  0.00000000000E+00 0. -1.
<mgrwt>
<rscale>  1 0.30000000E+03</rscale>
<asrwt>0</asrwt>
<pdfrwt beam="1">  1       21 0.47850433E-02 0.30000000E+03</pdfrwt>
<pdfrwt beam="2">0</pdfrwt>
<totfact> 0.31042946E+04</totfact>
</mgrwt>
</event>
<event>
 6    1  0.1270461E-001  0.3000000E+03  0.7818608E-02  0.1093470E+00
         21   -1    0    0  501  502  0.00000000000E+00  0.00000000000E+00  0.25846583740E+01  0.25846583740E+01  0.00000000000E+00 0. -1.
         13   -1    0    0    0    0 -0.00000000000E+00 -0.00000000000E+00 -0.10000000000E+04  0.10000000000E+04  0.00000000000E+00 0.  1.
    9000005    2    1    2  501    0  0.35868680495E+02  0.31891848790E+02 -0.66303852676E+03  0.66478071142E+03  0.31070958231E+01 0.  0.
         13    1    3    3    0    0  0.27249297606E+02  0.22651208165E+02 -0.49815904517E+03  0.49941769666E+03  0.00000000000E+00 0.  1.
          1    1    3    3  501    0  0.86193828892E+01  0.92406406247E+01 -0.16487948160E+03  0.16536301477E+03  0.00000000000E+00 0.  1.
         -1    1    1    2    0  502 -0.35868680495E+02 -0.31891848790E+02 -0.33437681486E+03  0.33780394695E+03  0.00000000000E+00 0. -1.
<mgrwt>
<rscale>  1 0.30000000E+03</rscale>
<asrwt>0</asrwt>
<pdfrwt beam="1">  1       21 0.93987775E-02 0.30000000E+03</pdfrwt>
<pdfrwt beam="2">0</pdfrwt>
<totfact> 0.96092456E+03</totfact>
</mgrwt>
</event>
<event>
 6    1  0.1270461E-001  0.3000000E+03  0.7818608E-02  0.1093470E+00
         21   -1    0    0  501  502  0.00000000000E+00  0.00000000000E+00  0.19580575328E+01  0.19580575328E+01  0.00000000000E+00 0. -1.
         13   -1    0    0    0    0 -0.00000000000E+00 -0.00000000000E+00 -0.10000000000E+04  0.10000000000E+04  0.00000000000E+00 0.  1.
    9000005    2    1    2  501    0  0.14322085082E+02 -0.28247175602E+02 -0.84862118369E+03  0.84921779367E+03  0.31500209303E+01 0.  0.
         13    1    3    3    0    0  0.49234796177E+01 -0.74433040529E+01 -0.21331964847E+03  0.21350624312E+03  0.00000000000E+00 0.  1.
          3    1    3    3  501    0  0.93986054645E+01 -0.20803871549E+02 -0.63530153522E+03  0.63571155055E+03  0.00000000000E+00 0.  1.
         -3    1    1    2    0  502 -0.14322085082E+02  0.28247175602E+02 -0.14942075878E+03  0.15274026386E+03  0.00000000000E+00 0. -1.
<mgrwt>
<rscale>  1 0.30000000E+03</rscale>
<asrwt>0</asrwt>
<pdfrwt beam="1">  1       21 0.71202242E-02 0.30000000E+03</pdfrwt>
<pdfrwt beam="2">0</pdfrwt>
<totfact> 0.15663787E+04</totfact>
</mgrwt>
</event>
<event>
 6    1  0.1270461E-001  0.3000000E+03  0.7818608E-02  0.1093470E+00
         21   -1    0    0  501  502  0.00000000000E+00  0.00000000000E+00  0.10155941173E+01  0.10155941173E+01  0.00000000000E+00 0. -1.
         13   -1    0    0    0    0 -0.00000000000E+00 -0.00000000000E+00 -0.10000000000E+04  0.10000000000E+04  0.00000000000E+00 0.  1.
    9000005    2    1    2  501    0  0.31107115743E+02 -0.59201141454E+01 -0.47622904151E+03  0.47730205469E+03  0.45222815512E+01 0.  0.
         13    1    3    3    0    0  0.20543705185E+02 -0.26914173934E+01 -0.33635984865E+03  0.33699738179E+03  0.00000000000E+00 0.  1.
          3    1    3    3  501    0  0.10563410557E+02 -0.32286967519E+01 -0.13986919287E+03  0.14030467290E+03  0.00000000000E+00 0.  1.
         -1    1    1    2    0  502 -0.31107115743E+02  0.59201141454E+01 -0.52275536437E+03  0.52371353943E+03  0.00000000000E+00 0. -1.
<mgrwt>
<rscale>  1 0.30000000E+03</rscale>
<asrwt>0</asrwt>
<pdfrwt beam="1">  1       21 0.36930773E-02 0.30000000E+03</pdfrwt>
<pdfrwt beam="2">0</pdfrwt>
<totfact> 0.48086348E+04</totfact>
</mgrwt>
</event>
<event>
 6    1  0.1270461E-001  0.3000000E+03  0.7818608E-02  0.1093470E+00
         21   -1    0    0  501  502  0.00000000000E+00  0.00000000000E+00  0.15471686496E+01  0.15471686496E+01  0.00000000000E+00 0. -1.
         13   -1    0    0    0    0 -0.00000000000E+00 -0.00000000000E+00 -0.10000000000E+04  0.10000000000E+04  0.00000000000E+00 0.  1.
    9000005    2    1    2  501    0  0.36322402757E+02  0.12665906234E+02 -0.40134638875E+03  0.40320291496E+03  0.37315882141E+01 0.  0.
         13    1    3    3    0    0  0.42228725792E+00 -0.22895183604E+00 -0.36921860039E+01  0.37233026950E+01  0.00000000000E+00 0.  1.
          3    1    3    3  501    0  0.35900115499E+02  0.12894858070E+02 -0.39765420274E+03  0.39947961227E+03  0.00000000000E+00 0.  1.
         -1    1    1    2    0  502 -0.36322402757E+02 -0.12665906234E+02 -0.59710644260E+03  0.59834425369E+03  0.00000000000E+00 0. -1.
<mgrwt>
<rscale>  1 0.30000000E+03</rscale>
<asrwt>0</asrwt>
<pdfrwt beam="1">  1       21 0.56260797E-02 0.30000000E+03</pdfrwt>
<pdfrwt beam="2">0</pdfrwt>
<totfact> 0.23540473E+04</totfact>
</mgrwt>
</event>
<event>
 6    1  0.1270461E-001  0.3000000E+03  0.7818608E-02  0.1093470E+00
         21   -1    0    0  501  502  0.00000000000E+00  0.00000000000E+00  0.10981201358E+01  0.10981201358E+01  0.00000000000E+00 0. -1.
         13   -1    0    0    0    0 -0.00000000000E+00 -0.00000000000E+00 -0.10000000000E+04  0.10000000000E+04  0.00000000000E+00 0.  1.
    9000005    2    1    2  501    0  0.31719176448E+02 -0.69585464318E+01 -0.59418397206E+03  0.59507950921E+03  0.32406947074E+01 0.  0.
         13    1    3    3    0    0  0.16816044314E+02 -0.52573491855E+01 -0.33025389237E+03  0.33072352878E+03  0.00000000000E+00 0.  1.
          3    1    3    3  501    0  0.14903132134E+02 -0.17011972462E+01 -0.26393007969E+03  0.26435598042E+03  0.00000000000E+00 0.  1.
         -3    1    1    2    0  502 -0.31719176448E+02  0.69585464318E+01 -0.40471790780E+03  0.40601861093E+03  0.00000000000E+00 0. -1.
<mgrwt>
<rscale>  1 0.30000000E+03</rscale>
<asrwt>0</asrwt>
<pdfrwt beam="1">  1       21 0.39931726E-02 0.30000000E+03</pdfrwt>
<pdfrwt beam="2">0</pdfrwt>
<totfact> 0.42168457E+04</totfact>
</mgrwt>
</event>
<event>
 6    1  0.1270461E-001  0.3000000E+03  0.7818608E-02  0.1093470E+00
         21   -1    0    0  501  502  0.00000000000E+00  0.00000000000E+00  0.14835733299E+01  0.14835733299E+01  0.00000000000E+00 0. -1.
         13   -1    0    0    0    0 -0.00000000000E+00 -0.00000000000E+00 -0.10000000000E+04  0.10000000000E+04  0.00000000000E+00 0.  1.
    9000005    2    1    2  501    0  0.28669993995E+02 -0.97552255067E+01 -0.80483448656E+03  0.80544830379E+03  0.84431235380E+01 0.  0.
         13    1    3    3    0    0  0.17212931125E+02 -0.74725742625E+01 -0.58799778089E+03  0.58829713130E+03  0.00000000000E+00 0.  1.
          1    1    3    3  501    0  0.11457062870E+02 -0.22826512442E+01 -0.21683670567E+03  0.21715117249E+03  0.00000000000E+00 0.  1.
         -3    1    1    2    0  502 -0.28669993995E+02  0.97552255067E+01 -0.19368194011E+03  0.19603526954E+03  0.00000000000E+00 0. -1.
<mgrwt>
<rscale>  1 0.30000000E+03</rscale>
<asrwt>0</asrwt>
<pdfrwt beam="1">  1       21 0.53948235E-02 0.30000000E+03</pdfrwt>
<pdfrwt beam="2">0</pdfrwt>
<totfact> 0.25297403E+04</totfact>
</mgrwt>
</event>
<event>
 6    1  0.1270461E-001  0.3000000E+03  0.7818608E-02  0.1093470E+00
         21   -1    0    0  501  502  0.00000000000E+00  0.00000000000E+00  0.14865151717E+01  0.14865151717E+01  0.00000000000E+00 0. -1.
         13   -1    0    0    0    0 -0.00000000000E+00 -0.00000000000E+00 -0.10000000000E+04  0.10000000000E+04  0.00000000000E+00 0.  1.
    9000005    2    1    2  501    0  0.19522364877E+02  0.31471203952E+02 -0.63615102921E+03  0.63723645182E+03  0.32564024925E+01 0.  0.
         13    1    3    3    0    0  0.30137283014E+01  0.73494309614E+01 -0.13210439761E+03  0.13234299589E+03  0.00000000000E+00 0.  1.
          1    1    3    3  501    0  0.16508636575E+02  0.24121772990E+02 -0.50404663160E+03  0.50489345593E+03  0.00000000000E+00 0.  1.
         -3    1    1    2    0  502 -0.19522364877E+02 -0.31471203952E+02 -0.36236245562E+03  0.36425006335E+03  0.00000000000E+00 0. -1.
<mgrwt>
<rscale>  1 0.30000000E+03</rscale>
<asrwt>0</asrwt>
<pdfrwt beam="1">  1       21 0.54055211E-02 0.30000000E+03</pdfrwt>
<pdfrwt beam="2">0</pdfrwt>
<totfact> 0.25211732E+04</totfact>
</mgrwt>
</event>
<event>
 6    1  0.1270461E-001  0.3000000E+03  0.7818608E-02  0.1093470E+00
         21   -1    0    0  501  502  0.00000000000E+00  0.00000000000E+00  0.11767920290E+01  0.11767920290E+01  0.00000000000E+00 0. -1.
         13   -1    0    0    0    0 -0.00000000000E+00 -0.00000000000E+00 -0.10000000000E+04  0.10000000000E+04  0.00000000000E+00 0.  1.
    9000005    2    1    2  501    0  0.30981206052E+02 -0.14354780125E+02 -0.53445137603E+03  0.53555130611E+03  0.33216397456E+01 0.  0.
         13    1    3    3    0    0  0.17540145122E+02 -0.88368594348E+01 -0.28329447268E+03  0.28397447953E+03  0.00000000000E+00 0.  1.
          1    1    3    3  501    0  0.13441060930E+02 -0.55179206901E+01 -0.25115690335E+03  0.25157682657E+03  0.00000000000E+00 0.  1.
         -1    1    1    2    0  502 -0.30981206052E+02  0.14354780125E+02 -0.46437183194E+03  0.46562548592E+03  0.00000000000E+00 0. -1.
<mgrwt>
<rscale>  1 0.30000000E+03</rscale>
<asrwt>0</asrwt>
<pdfrwt beam="1">  1       21 0.42792528E-02 0.30000000E+03</pdfrwt>
<pdfrwt beam="2">0</pdfrwt>
<totfact> 0.37522366E+04</totfact>
</mgrwt>
</event>
<event>
 6    1  0.1270461E-001  0.3000000E+03  0.7818608E-02  0.1093470E+00
         21   -1    0    0  501  502  0.00000000000E+00  0.00000000000E+00  0.18821146752E+01  0.18821146752E+01  0.00000000000E+00 0. -1.
         13   -1    0    0    0    0 -0.00000000000E+00 -0.00000000000E+00 -0.10000000000E+04  0.10000000000E+04  0.00000000000E+00 0.  1.
    9000005    2    1    2  501    0  0.16287000043E+02 -0.29875751859E+02 -0.80938112057E+03  0.81010257122E+03  0.32481741101E+01 0.  0.
         13    1    3    3    0    0  0.11639685455E+02 -0.18643366216E+02 -0.50045555144E+03  0.50093793663E+03  0.00000000000E+00 0.  1.
          1    1    3    3  501    0  0.46473145885E+01 -0.11232385643E+02 -0.30892556913E+03  0.30916463459E+03  0.00000000000E+00 0.  1.
         -1    1    1    2    0  502 -0.16287000043E+02  0.29875751859E+02 -0.18873676475E+03  0.19177954346E+03  0.00000000000E+00 0. -1.
<mgrwt>
<rscale>  1 0.30000000E+03</rscale>
<asrwt>0</asrwt>
<pdfrwt beam="1">  1       21 0.68440678E-02 0.30000000E+03</pdfrwt>
<pdfrwt beam="2">0</pdfrwt>
<totfact> 0.16779870E+04</totfact>
</mgrwt>
</event>
<event>
 6    1  0.1270461E-001  0.3000000E+03  0.7818608E-02  0.1093470E+00
         21   -1    0    0  501  502  0.00000000000E+00  0.00000000000E+00  0.37192448988E+01  0.37192448988E+01  0.00000000000E+00 0. -1.
         13   -1    0    0    0    0 -0.00000000000E+00 -0.00000000000E+00 -0.10000000000E+04  0.10000000000E+04  0.00000000000E+00 0.  1.
    9000005    2    1    2  501    0  0.39624427950E+02  0.10430901802E+02 -0.86971835769E+03  0.87068940073E+03  0.33334406561E+01 0.  0.
         13    1    3    3    0    0  0.35304514983E+02  0.10118114469E+02 -0.76352140497E+03  0.76440416068E+03  0.00000000000E+00 0.  1.
          1    1    3    3  501    0  0.43199129673E+01  0.31278733314E+00 -0.10619695272E+03  0.10628524004E+03  0.00000000000E+00 0.  1.
         -3    1    1    2    0  502 -0.39624427950E+02 -0.10430901802E+02 -0.12656239741E+03  0.13302984417E+03  0.00000000000E+00 0. -1.
<mgrwt>
<rscale>  1 0.30000000E+03</rscale>
<asrwt>0</asrwt>
<pdfrwt beam="1">  1       21 0.13524555E-01 0.30000000E+03</pdfrwt>
<pdfrwt beam="2">0</pdfrwt>
<totfact> 0.49826888E+03</totfact>
</mgrwt>
</event>
<event>
 6    1  0.1270461E-001  0.3000000E+03  0.7818608E-02  0.1093470E+00
         21   -1    0    0  501  502  0.00000000000E+00  0.00000000000E+00  0.53742792348E+01  0.53742792348E+01  0.00000000000E+00 0. -1.
         13   -1    0    0    0    0 -0.00000000000E+00 -0.00000000000E+00 -0.10000000000E+04  0.10000000000E+04  0.00000000000E+00 0.  1.
    9000005    2    1    2  501    0 -0.48846985175E+02  0.29050790770E+02 -0.81465010210E+03  0.81663848582E+03  0.36947601040E+01 0.  0.
         13    1    3    3    0    0 -0.30449493322E+02  0.18323566539E+02 -0.53447642944E+03  0.53565658622E+03  0.00000000000E+00 0.  1.
          1    1    3    3  501    0 -0.18397491853E+02  0.10727224231E+02 -0.28017367266E+03  0.28098189959E+03  0.00000000000E+00 0.  1.
         -1    1    1    2    0  502  0.48846985175E+02 -0.29050790770E+02 -0.17997561866E+03  0.18873579342E+03  0.00000000000E+00 0. -1.
<mgrwt>
<rscale>  1 0.30000000E+03</rscale>
<asrwt>0</asrwt>
<pdfrwt beam="1">  1       21 0.19542875E-01 0.30000000E+03</pdfrwt>
<pdfrwt beam="2">0</pdfrwt>
<totfact> 0.25073047E+03</totfact>
</mgrwt>
</event>
<event>
 6    1  0.1270461E-001  0.3000000E+03  0.7818608E-02  0.1093470E+00
         21   -1    0    0  501  502  0.00000000000E+00  0.00000000000E+00  0.29224462453E+01  0.29224462453E+01  0.00000000000E+00 0. -1.
         13   -1    0    0    0    0 -0.00000000000E+00 -0.00000000000E+00 -0.10000000000E+04  0.10000000000E+04  0.00000000000E+00 0.  1.
    9000005    2    1    2  501    0  0.26676507525E+02 -0.31704916106E+02 -0.82022844848E+03  0.82128422396E+03  0.40287799878E+01 0.  0.
         13    1    3    3    0    0  0.15302920958E+02 -0.15139790074E+02 -0.41533903028E+03  0.41589650480E+03  0.00000000000E+00 0.  1.
          1    1    3    3  501    0  0.11373586567E+02 -0.16565126032E+02 -0.40488941820E+03  0.40538771916E+03  0.00000000000E+00 0.  1.
         -3    1    1    2    0  502 -0.26676507525E+02  0.31704916106E+02 -0.17684910527E+03  0.18163822228E+03  0.00000000000E+00 0. -1.
<mgrwt>
<rscale>  1 0.30000000E+03</rscale>
<asrwt>0</asrwt>
<pdfrwt beam="1">  1       21 0.10627100E-01 0.30000000E+03</pdfrwt>
<pdfrwt beam="2">0</pdfrwt>
<totfact> 0.77155753E+03</totfact>
</mgrwt>
</event>
<event>
 6    1  0.1270461E-001  0.3000000E+03  0.7818608E-02  0.1093470E+00
         21   -1    0    0  501  502  0.00000000000E+00  0.00000000000E+00  0.14704240568E+01  0.14704240568E+01  0.00000000000E+00 0. -1.
         13   -1    0    0    0    0 -0.00000000000E+00 -0.00000000000E+00 -0.10000000000E+04  0.10000000000E+04  0.00000000000E+00 0.  1.
    9000005    2    1    2  501    0  0.38077851563E+02 -0.29331459752E+01 -0.53692112725E+03  0.53828483919E+03  0.27829997486E+01 0.  0.
         13    1    3    3    0    0  0.60749277369E+01  0.38972063083E+00 -0.93441531743E+02  0.93639609587E+02  0.00000000000E+00 0.  1.
          3    1    3    3  501    0  0.32002923826E+02 -0.33228666060E+01 -0.44347959551E+03  0.44464522960E+03  0.00000000000E+00 0.  1.
         -3    1    1    2    0  502 -0.38077851563E+02  0.29331459752E+01 -0.46160844870E+03  0.46318558487E+03  0.00000000000E+00 0. -1.
<mgrwt>
<rscale>  1 0.30000000E+03</rscale>
<asrwt>0</asrwt>
<pdfrwt beam="1">  1       21 0.53470078E-02 0.30000000E+03</pdfrwt>
<pdfrwt beam="2">0</pdfrwt>
<totfact> 0.25685883E+04</totfact>
</mgrwt>
</event>
<event>
 6    1  0.1270461E-001  0.3000000E+03  0.7818608E-02  0.1093470E+00
         21   -1    0    0  501  502  0.00000000000E+00  0.00000000000E+00  0.11982101210E+02  0.11982101210E+02  0.00000000000E+00 0. -1.
         13   -1    0    0    0    0 -0.00000000000E+00 -0.00000000000E+00 -0.10000000000E+04  0.10000000000E+04  0.00000000000E+00 0.  1.
    9000005    2    1    2  501    0 -0.84084457827E+01 -0.10816668156E+03 -0.55975588953E+03  0.57019133452E+03  0.45573168259E+01 0.  0.
         13    1    3    3    0    0 -0.16913201692E+01 -0.13722568277E+02 -0.78915691675E+02  0.80117762304E+02  0.00000000000E+00 0.  1.
          3    1    3    3  501    0 -0.67171256134E+01 -0.94444113280E+02 -0.48084019786E+03  0.49007357222E+03  0.00000000000E+00 0.  1.
         -1    1    1    2    0  502  0.84084457827E+01  0.10816668156E+03 -0.42826200926E+03  0.44179076669E+03  0.00000000000E+00 0. -1.
<mgrwt>
<rscale>  1 0.30000000E+03</rscale>
<asrwt>0</asrwt>
<pdfrwt beam="1">  1       21 0.43571369E-01 0.30000000E+03</pdfrwt>
<pdfrwt beam="2">0</pdfrwt>
<totfact> 0.50450120E+02</totfact>
</mgrwt>
</event>
<event>
 6    1  0.1270461E-001  0.3000000E+03  0.7818608E-02  0.1093470E+00
         21   -1    0    0  501  502  0.00000000000E+00  0.00000000000E+00  0.51326763944E+01  0.51326763944E+01  0.00000000000E+00 0. -1.
         13   -1    0    0    0    0 -0.00000000000E+00 -0.00000000000E+00 -0.10000000000E+04  0.10000000000E+04  0.00000000000E+00 0.  1.
    9000005    2    1    2  501    0 -0.15810564293E+02  0.69843503571E+02 -0.49454909728E+03  0.49971560453E+03  0.29642638143E+01 0.  0.
         13    1    3    3    0    0 -0.88189999261E+01  0.32832439939E+02 -0.23042272084E+03  0.23291709716E+03  0.00000000000E+00 0.  1.
          3    1    3    3  501    0 -0.69915643672E+01  0.37011063632E+02 -0.26412637644E+03  0.26679850737E+03  0.00000000000E+00 0.  1.
         -3    1    1    2    0  502  0.15810564293E+02 -0.69843503571E+02 -0.50031822633E+03  0.50541707186E+03  0.00000000000E+00 0. -1.
<mgrwt>
<rscale>  1 0.30000000E+03</rscale>
<asrwt>0</asrwt>
<pdfrwt beam="1">  1       21 0.18664317E-01 0.30000000E+03</pdfrwt>
<pdfrwt beam="2">0</pdfrwt>
<totfact> 0.27358801E+03</totfact>
</mgrwt>
</event>
<event>
 6    1  0.1270461E-001  0.3000000E+03  0.7818608E-02  0.1093470E+00
         21   -1    0    0  501  502  0.00000000000E+00  0.00000000000E+00  0.24737265725E+01  0.24737265725E+01  0.00000000000E+00 0. -1.
         13   -1    0    0    0    0 -0.00000000000E+00 -0.00000000000E+00 -0.10000000000E+04  0.10000000000E+04  0.00000000000E+00 0.  1.
    9000005    2    1    2  501    0  0.20911175367E+02 -0.26243502731E+02 -0.86856672680E+03  0.86921997106E+03  0.30332327609E+01 0.  0.
         13    1    3    3    0    0  0.18848290035E+02 -0.24269851459E+02 -0.77282912545E+03  0.77343981076E+03  0.00000000000E+00 0.  1.
          1    1    3    3  501    0  0.20628853321E+01 -0.19736512716E+01 -0.95737601355E+02  0.95780160307E+02  0.00000000000E+00 0.  1.
         -3    1    1    2    0  502 -0.20911175367E+02  0.26243502731E+02 -0.12895954663E+03  0.13325375551E+03  0.00000000000E+00 0. -1.
<mgrwt>
<rscale>  1 0.30000000E+03</rscale>
<asrwt>0</asrwt>
<pdfrwt beam="1">  1       21 0.89953883E-02 0.30000000E+03</pdfrwt>
<pdfrwt beam="2">0</pdfrwt>
<totfact> 0.10387517E+04</totfact>
</mgrwt>
</event>
<event>
 6    1  0.1270461E-001  0.3000000E+03  0.7818608E-02  0.1093470E+00
         21   -1    0    0  501  502  0.00000000000E+00  0.00000000000E+00  0.59545294834E+01  0.59545294834E+01  0.00000000000E+00 0. -1.
         13   -1    0    0    0    0 -0.00000000000E+00 -0.00000000000E+00 -0.10000000000E+04  0.10000000000E+04  0.00000000000E+00 0.  1.
    9000005    2    1    2  501    0 -0.48959769841E+02  0.31663270728E+02 -0.82629888135E+03  0.82836359517E+03  0.40966685882E+01 0.  0.
         13    1    3    3    0    0 -0.34863881411E+02  0.20301306279E+02 -0.57274878945E+03  0.57416792760E+03  0.00000000000E+00 0.  1.
          3    1    3    3  501    0 -0.14095888430E+02  0.11361964448E+02 -0.25355009190E+03  0.25419566757E+03  0.00000000000E+00 0.  1.
         -3    1    1    2    0  502  0.48959769841E+02 -0.31663270728E+02 -0.16774658916E+03  0.17759093432E+03  0.00000000000E+00 0. -1.
<mgrwt>
<rscale>  1 0.30000000E+03</rscale>
<asrwt>0</asrwt>
<pdfrwt beam="1">  1       21 0.21652880E-01 0.30000000E+03</pdfrwt>
<pdfrwt beam="2">0</pdfrwt>
<totfact> 0.20606886E+03</totfact>
</mgrwt>
</event>
<event>
 6    1  0.1270461E-001  0.3000000E+03  0.7818608E-02  0.1093470E+00
         21   -1    0    0  501  502  0.00000000000E+00  0.00000000000E+00  0.10178550222E+01  0.10178550222E+01  0.00000000000E+00 0. -1.
         13   -1    0    0    0    0 -0.00000000000E+00 -0.00000000000E+00 -0.10000000000E+04  0.10000000000E+04  0.00000000000E+00 0.  1.
    9000005    2    1    2  501    0 -0.20275536255E+01 -0.30768521253E+02 -0.59267396199E+03  0.59354128828E+03  0.88330520866E+01 0.  0.
         13    1    3    3    0    0 -0.10009259313E+01 -0.28313392770E+02 -0.57133998773E+03  0.57204198416E+03  0.00000000000E+00 0.  1.
          1    1    3    3  501    0 -0.10266276942E+01 -0.24551284828E+01 -0.21333974254E+02  0.21499304123E+02  0.00000000000E+00 0.  1.
         -1    1    1    2    0  502  0.20275536255E+01  0.30768521253E+02 -0.40630818299E+03  0.40747656674E+03  0.00000000000E+00 0. -1.
<mgrwt>
<rscale>  1 0.30000000E+03</rscale>
<asrwt>0</asrwt>
<pdfrwt beam="1">  1       21 0.37012988E-02 0.30000000E+03</pdfrwt>
<pdfrwt beam="2">0</pdfrwt>
<totfact> 0.47907209E+04</totfact>
</mgrwt>
</event>
<event>
 6    1  0.1270461E-001  0.3000000E+03  0.7818608E-02  0.1093470E+00
         21   -1    0    0  501  502  0.00000000000E+00  0.00000000000E+00  0.13644925609E+01  0.13644925609E+01  0.00000000000E+00 0. -1.
         13   -1    0    0    0    0 -0.00000000000E+00 -0.00000000000E+00 -0.10000000000E+04  0.10000000000E+04  0.00000000000E+00 0.  1.
    9000005    2    1    2  501    0 -0.30029344117E+02 -0.17798335408E+02 -0.66094859070E+03  0.66187812172E+03  0.33265912099E+01 0.  0.
         13    1    3    3    0    0 -0.11545368016E+01 -0.84519966907E+00 -0.42143976290E+02  0.42168258860E+02  0.00000000000E+00 0.  1.
          3    1    3    3  501    0 -0.28874807316E+02 -0.16953135739E+02 -0.61880461441E+03  0.61970986286E+03  0.00000000000E+00 0.  1.
         -3    1    1    2    0  502  0.30029344117E+02  0.17798335408E+02 -0.33768691674E+03  0.33948637084E+03  0.00000000000E+00 0. -1.
<mgrwt>
<rscale>  1 0.30000000E+03</rscale>
<asrwt>0</asrwt>
<pdfrwt beam="1">  1       21 0.49618016E-02 0.30000000E+03</pdfrwt>
<pdfrwt beam="2">0</pdfrwt>
<totfact> 0.29183636E+04</totfact>
</mgrwt>
</event>
<event>
 6    1  0.1270461E-001  0.3000000E+03  0.7818608E-02  0.1093470E+00
         21   -1    0    0  501  502  0.00000000000E+00  0.00000000000E+00  0.98176840978E+00  0.98176840978E+00  0.00000000000E+00 0. -1.
         13   -1    0    0    0    0 -0.00000000000E+00 -0.00000000000E+00 -0.10000000000E+04  0.10000000000E+04  0.00000000000E+00 0.  1.
    9000005    2    1    2  501    0 -0.30956225037E+02  0.15908106984E+01 -0.44869003321E+03  0.44978131079E+03  0.44343079860E+01 0.  0.
         13    1    3    3    0    0 -0.23307443957E+02  0.16387157730E+01 -0.30906687030E+03  0.30994879037E+03  0.00000000000E+00 0.  1.
          3    1    3    3  501    0 -0.76487810795E+01 -0.47905074654E-01 -0.13962316292E+03  0.13983252043E+03  0.00000000000E+00 0.  1.
         -3    1    1    2    0  502  0.30956225037E+02 -0.15908106984E+01 -0.55032819838E+03  0.55120045762E+03  0.00000000000E+00 0. -1.
<mgrwt>
<rscale>  1 0.30000000E+03</rscale>
<asrwt>0</asrwt>
<pdfrwt beam="1">  1       21 0.35700745E-02 0.30000000E+03</pdfrwt>
<pdfrwt beam="2">0</pdfrwt>
<totfact> 0.50897735E+04</totfact>
</mgrwt>
</event>
<event>
 6    1  0.1270461E-001  0.3000000E+03  0.7818608E-02  0.1093470E+00
         21   -1    0    0  501  502  0.00000000000E+00  0.00000000000E+00  0.22966186727E+01  0.22966186727E+01  0.00000000000E+00 0. -1.
         13   -1    0    0    0    0 -0.00000000000E+00 -0.00000000000E+00 -0.10000000000E+04  0.10000000000E+04  0.00000000000E+00 0.  1.
    9000005    2    1    2  501    0 -0.13262665720E+02  0.31460315865E+02 -0.84996382381E+03  0.85066342102E+03  0.49096121792E+01 0.  0.
         13    1    3    3    0    0 -0.12506602041E+02  0.29005563484E+02 -0.74694343862E+03  0.74761102072E+03  0.00000000000E+00 0.  1.
          3    1    3    3  501    0 -0.75606367872E+00  0.24547523811E+01 -0.10302038520E+03  0.10305240030E+03  0.00000000000E+00 0.  1.
         -3    1    1    2    0  502  0.13262665720E+02 -0.31460315865E+02 -0.14773955751E+03  0.15163319765E+03  0.00000000000E+00 0. -1.
<mgrwt>
<rscale>  1 0.30000000E+03</rscale>
<asrwt>0</asrwt>
<pdfrwt beam="1">  1       21 0.83513582E-02 0.30000000E+03</pdfrwt>
<pdfrwt beam="2">0</pdfrwt>
<totfact> 0.11843818E+04</totfact>
</mgrwt>
</event>
<event>
 6    1  0.1270461E-001  0.3000000E+03  0.7818608E-02  0.1093470E+00
         21   -1    0    0  501  502  0.00000000000E+00  0.00000000000E+00  0.52317135391E+01  0.52317135391E+01  0.00000000000E+00 0. -1.
         13   -1    0    0    0    0 -0.00000000000E+00 -0.00000000000E+00 -0.10000000000E+04  0.10000000000E+04  0.00000000000E+00 0.  1.
    9000005    2    1    2  501    0 -0.53887372844E+02 -0.24916811465E+02 -0.78433442309E+03  0.78658334904E+03  0.28602963367E+01 0.  0.
         13    1    3    3    0    0 -0.20371484125E+02 -0.82854735873E+01 -0.27827074753E+03  0.27913841615E+03  0.00000000000E+00 0.  1.
          1    1    3    3  501    0 -0.33515888719E+02 -0.16631337878E+02 -0.50606367556E+03  0.50744493289E+03  0.00000000000E+00 0.  1.
         -1    1    1    2    0  502  0.53887372844E+02  0.24916811465E+02 -0.21043386337E+03  0.21864836450E+03  0.00000000000E+00 0. -1.
<mgrwt>
<rscale>  1 0.30000000E+03</rscale>
<asrwt>0</asrwt>
<pdfrwt beam="1">  1       21 0.19024453E-01 0.30000000E+03</pdfrwt>
<pdfrwt beam="2">0</pdfrwt>
<totfact> 0.26386479E+03</totfact>
</mgrwt>
</event>
<event>
 6    1  0.1270461E-001  0.3000000E+03  0.7818608E-02  0.1093470E+00
         21   -1    0    0  501  502  0.00000000000E+00  0.00000000000E+00  0.34269499850E+01  0.34269499850E+01  0.00000000000E+00 0. -1.
         13   -1    0    0    0    0 -0.00000000000E+00 -0.00000000000E+00 -0.10000000000E+04  0.10000000000E+04  0.00000000000E+00 0.  1.
    9000005    2    1    2  501    0 -0.54885443119E+02  0.19858167448E+02 -0.53298185229E+03  0.53617588547E+03  0.28577281481E+01 0.  0.
         13    1    3    3    0    0 -0.53908960646E+02  0.19521965308E+02 -0.52644615365E+03  0.52955909572E+03  0.00000000000E+00 0.  1.
          3    1    3    3  501    0 -0.97648247312E+00  0.33620214057E+00 -0.65356986367E+01  0.66167897480E+01  0.00000000000E+00 0.  1.
         -3    1    1    2    0  502  0.54885443119E+02 -0.19858167448E+02 -0.46359119773E+03  0.46725106452E+03  0.00000000000E+00 0. -1.
<mgrwt>
<rscale>  1 0.30000000E+03</rscale>
<asrwt>0</asrwt>
<pdfrwt beam="1">  1       21 0.12461663E-01 0.30000000E+03</pdfrwt>
<pdfrwt beam="2">0</pdfrwt>
<totfact> 0.57859717E+03</totfact>
</mgrwt>
</event>
<event>
 6    1  0.1270461E-001  0.3000000E+03  0.7818608E-02  0.1093470E+00
         21   -1    0    0  501  502  0.00000000000E+00  0.00000000000E+00  0.52999838548E+01  0.52999838548E+01  0.00000000000E+00 0. -1.
         13   -1    0    0    0    0 -0.00000000000E+00 -0.00000000000E+00 -0.10000000000E+04  0.10000000000E+04  0.00000000000E+00 0.  1.
    9000005    2    1    2  501    0 -0.11821738182E+02  0.32886482086E+02 -0.93824873459E+03  0.93890705210E+03  0.38066163200E+01 0.  0.
         13    1    3    3    0    0 -0.67709921763E+01  0.23925277730E+02 -0.66815897540E+03  0.66862147861E+03  0.00000000000E+00 0.  1.
          3    1    3    3  501    0 -0.50507460053E+01  0.89612043564E+01 -0.27008975919E+03  0.27028557349E+03  0.00000000000E+00 0.  1.
         -3    1    1    2    0  502  0.11821738182E+02 -0.32886482086E+02 -0.56451281557E+02  0.66392931755E+02  0.00000000000E+00 0. -1.
<mgrwt>
<rscale>  1 0.30000000E+03</rscale>
<asrwt>0</asrwt>
<pdfrwt beam="1">  1       21 0.19272709E-01 0.30000000E+03</pdfrwt>
<pdfrwt beam="2">0</pdfrwt>
<totfact> 0.25745328E+03</totfact>
</mgrwt>
</event>
<event>
 6    1  0.1270461E-001  0.3000000E+03  0.7818608E-02  0.1093470E+00
         21   -1    0    0  501  502  0.00000000000E+00  0.00000000000E+00  0.26809520142E+01  0.26809520142E+01  0.00000000000E+00 0. -1.
         13   -1    0    0    0    0 -0.00000000000E+00 -0.00000000000E+00 -0.10000000000E+04  0.10000000000E+04  0.00000000000E+00 0.  1.
    9000005    2    1    2  501    0 -0.91101644471E+01  0.38647760645E+02 -0.82019790412E+03  0.82116361372E+03  0.29041463985E+01 0.  0.
         13    1    3    3    0    0 -0.15503328783E+01  0.36004761780E+01 -0.70557559076E+02  0.70666371801E+02  0.00000000000E+00 0.  1.
          3    1    3    3  501    0 -0.75598315688E+01  0.35047284467E+02 -0.74964034505E+03  0.75049724192E+03  0.00000000000E+00 0.  1.
         -1    1    1    2    0  502  0.91101644471E+01 -0.38647760645E+02 -0.17712114386E+03  0.18151733830E+03  0.00000000000E+00 0. -1.
<mgrwt>
<rscale>  1 0.30000000E+03</rscale>
<asrwt>0</asrwt>
<pdfrwt beam="1">  1       21 0.97489370E-02 0.30000000E+03</pdfrwt>
<pdfrwt beam="2">0</pdfrwt>
<totfact> 0.90027882E+03</totfact>
</mgrwt>
</event>
<event>
 6    1  0.1270461E-001  0.3000000E+03  0.7818608E-02  0.1093470E+00
         21   -1    0    0  501  502  0.00000000000E+00  0.00000000000E+00  0.14009336186E+01  0.14009336186E+01  0.00000000000E+00 0. -1.
         13   -1    0    0    0    0 -0.00000000000E+00 -0.00000000000E+00 -0.10000000000E+04  0.10000000000E+04  0.00000000000E+00 0.  1.
    9000005    2    1    2  501    0 -0.35289460752E+02 -0.11479061619E+02 -0.44274014202E+03  0.44430465945E+03  0.32683575224E+01 0.  0.
         13    1    3    3    0    0 -0.26777437557E+02 -0.72141167025E+01 -0.32891638831E+03  0.33008342149E+03  0.00000000000E+00 0.  1.
          3    1    3    3  501    0 -0.85120231954E+01 -0.42649449162E+01 -0.11382375370E+03  0.11422123796E+03  0.00000000000E+00 0.  1.
         -3    1    1    2    0  502  0.35289460752E+02  0.11479061619E+02 -0.55585892437E+03  0.55709627417E+03  0.00000000000E+00 0. -1.
<mgrwt>
<rscale>  1 0.30000000E+03</rscale>
<asrwt>0</asrwt>
<pdfrwt beam="1">  1       21 0.50943148E-02 0.30000000E+03</pdfrwt>
<pdfrwt beam="2">0</pdfrwt>
<totfact> 0.27901077E+04</totfact>
</mgrwt>
</event>
<event>
 6    1  0.1270461E-001  0.3000000E+03  0.7818608E-02  0.1093470E+00
         21   -1    0    0  501  502  0.00000000000E+00  0.00000000000E+00  0.34572916319E+01  0.34572916319E+01  0.00000000000E+00 0. -1.
         13   -1    0    0    0    0 -0.00000000000E+00 -0.00000000000E+00 -0.10000000000E+04  0.10000000000E+04  0.00000000000E+00 0.  1.
    9000005    2    1    2  501    0 -0.45943685084E+02 -0.36101333277E+02 -0.55012185107E+03  0.55322878266E+03  0.37291381501E+01 0.  0.
         13    1    3    3    0    0 -0.14454570460E+02 -0.97552392081E+01 -0.17506624374E+03  0.17593262630E+03  0.00000000000E+00 0.  1.
          3    1    3    3  501    0 -0.31489114625E+02 -0.26346094069E+02 -0.37505560733E+03  0.37729615636E+03  0.00000000000E+00 0.  1.
         -1    1    1    2    0  502  0.45943685084E+02  0.36101333277E+02 -0.44642085729E+03  0.45022850897E+03  0.00000000000E+00 0. -1.
<mgrwt>
<rscale>  1 0.30000000E+03</rscale>
<asrwt>0</asrwt>
<pdfrwt beam="1">  1       21 0.12571996E-01 0.30000000E+03</pdfrwt>
<pdfrwt beam="2">0</pdfrwt>
<totfact> 0.56938109E+03</totfact>
</mgrwt>
</event>
<event>
 6    1  0.1270461E-001  0.3000000E+03  0.7818608E-02  0.1093470E+00
         21   -1    0    0  501  502  0.00000000000E+00  0.00000000000E+00  0.42617079087E+01  0.42617079087E+01  0.00000000000E+00 0. -1.
         13   -1    0    0    0    0 -0.00000000000E+00 -0.00000000000E+00 -0.10000000000E+04  0.10000000000E+04  0.00000000000E+00 0.  1.
    9000005    2    1    2  501    0 -0.45889754321E+02 -0.24096438779E+02 -0.80295679545E+03  0.80463402105E+03  0.31280277628E+01 0.  0.
         13    1    3    3    0    0 -0.24488143978E+02 -0.13717938096E+02 -0.45563043941E+03  0.45649419311E+03  0.00000000000E+00 0.  1.
          3    1    3    3  501    0 -0.21401610343E+02 -0.10378500683E+02 -0.34732635603E+03  0.34813982794E+03  0.00000000000E+00 0.  1.
         -1    1    1    2    0  502  0.45889754321E+02  0.24096438779E+02 -0.19278149665E+03  0.19962768686E+03  0.00000000000E+00 0. -1.
<mgrwt>
<rscale>  1 0.30000000E+03</rscale>
<asrwt>0</asrwt>
<pdfrwt beam="1">  1       21 0.15497152E-01 0.30000000E+03</pdfrwt>
<pdfrwt beam="2">0</pdfrwt>
<totfact> 0.38763874E+03</totfact>
</mgrwt>
</event>
<event>
 6    1  0.1270461E-001  0.3000000E+03  0.7818608E-02  0.1093470E+00
         21   -1    0    0  501  502  0.00000000000E+00  0.00000000000E+00  0.27536837530E+01  0.27536837530E+01  0.00000000000E+00 0. -1.
         13   -1    0    0    0    0 -0.00000000000E+00 -0.00000000000E+00 -0.10000000000E+04  0.10000000000E+04  0.00000000000E+00 0.  1.
    9000005    2    1    2  501    0  0.27854130733E+02  0.26103629706E+02 -0.84236997955E+03  0.84324214263E+03  0.35883948875E+01 0.  0.
         13    1    3    3    0    0  0.94301900519E+01  0.11212832538E+02 -0.32601549042E+03  0.32634453587E+03  0.00000000000E+00 0.  1.
          3    1    3    3  501    0  0.18423940681E+02  0.14890797168E+02 -0.51635448913E+03  0.51689760676E+03  0.00000000000E+00 0.  1.
         -1    1    1    2    0  502 -0.27854130733E+02 -0.26103629706E+02 -0.15487633670E+03  0.15951154112E+03  0.00000000000E+00 0. -1.
<mgrwt>
<rscale>  1 0.30000000E+03</rscale>
<asrwt>0</asrwt>
<pdfrwt beam="1">  1       21 0.10013417E-01 0.30000000E+03</pdfrwt>
<pdfrwt beam="2">0</pdfrwt>
<totfact> 0.85826107E+03</totfact>
</mgrwt>
</event>
<event>
 6    1  0.1270461E-001  0.3000000E+03  0.7818608E-02  0.1093470E+00
         21   -1    0    0  501  502  0.00000000000E+00  0.00000000000E+00  0.11046587174E+01  0.11046587174E+01  0.00000000000E+00 0. -1.
         13   -1    0    0    0    0 -0.00000000000E+00 -0.00000000000E+00 -0.10000000000E+04  0.10000000000E+04  0.00000000000E+00 0.  1.
    9000005    2    1    2  501    0 -0.17074610460E+02 -0.28379813720E+02 -0.52326084916E+03  0.52431841076E+03  0.33050634060E+01 0.  0.
         13    1    3    3    0    0 -0.12594385773E+02 -0.20873640498E+02 -0.36096286355E+03  0.36178517975E+03  0.00000000000E+00 0.  1.
          3    1    3    3  501    0 -0.44802246864E+01 -0.75061732219E+01 -0.16229798561E+03  0.16253323101E+03  0.00000000000E+00 0.  1.
         -3    1    1    2    0  502  0.17074610460E+02  0.28379813720E+02 -0.47563449212E+03  0.47678624796E+03  0.00000000000E+00 0. -1.
<mgrwt>
<rscale>  1 0.30000000E+03</rscale>
<asrwt>0</asrwt>
<pdfrwt beam="1">  1       21 0.40169493E-02 0.30000000E+03</pdfrwt>
<pdfrwt beam="2">0</pdfrwt>
<totfact> 0.41748949E+04</totfact>
</mgrwt>
</event>
<event>
 6    1  0.1270461E-001  0.3000000E+03  0.7818608E-02  0.1093470E+00
         21   -1    0    0  501  502  0.00000000000E+00  0.00000000000E+00  0.16679814509E+02  0.16679814509E+02  0.00000000000E+00 0. -1.
         13   -1    0    0    0    0 -0.00000000000E+00 -0.00000000000E+00 -0.10000000000E+04  0.10000000000E+04  0.00000000000E+00 0.  1.
    9000005    2    1    2  501    0  0.35183810126E+02  0.21234195012E+02 -0.97356945061E+03  0.97444394867E+03  0.38395827016E+01 0.  0.
         13    1    3    3    0    0  0.18218143356E+02  0.12970080463E+02 -0.50681779350E+03  0.50731094956E+03  0.00000000000E+00 0.  1.
          1    1    3    3  501    0  0.16965666770E+02  0.82641145492E+01 -0.46675165711E+03  0.46713299911E+03  0.00000000000E+00 0.  1.
         -1    1    1    2    0  502 -0.35183810126E+02 -0.21234195012E+02 -0.97507348786E+01  0.42235865842E+02  0.00000000000E+00 0. -1.
<mgrwt>
<rscale>  1 0.30000000E+03</rscale>
<asrwt>0</asrwt>
<pdfrwt beam="1">  1       21 0.60653999E-01 0.30000000E+03</pdfrwt>
<pdfrwt beam="2">0</pdfrwt>
<totfact> 0.24505884E+02</totfact>
</mgrwt>
</event>
<event>
 6    1  0.1270461E-001  0.3000000E+03  0.7818608E-02  0.1093470E+00
         21   -1    0    0  501  502  0.00000000000E+00  0.00000000000E+00  0.29108871680E+01  0.29108871680E+01  0.00000000000E+00 0. -1.
         13   -1    0    0    0    0 -0.00000000000E+00 -0.00000000000E+00 -0.10000000000E+04  0.10000000000E+04  0.00000000000E+00 0.  1.
    9000005    2    1    2  501    0  0.42197179184E+02 -0.13398360313E+02 -0.78478750440E+03  0.78604205369E+03  0.32504032089E+01 0.  0.
         13    1    3    3    0    0  0.12885067793E+02 -0.29901044792E+01 -0.21592379205E+03  0.21632856878E+03  0.00000000000E+00 0.  1.
          3    1    3    3  501    0  0.29312111391E+02 -0.10408255834E+02 -0.56886371235E+03  0.56971348491E+03  0.00000000000E+00 0.  1.
         -3    1    1    2    0  502 -0.42197179184E+02  0.13398360313E+02 -0.21230160844E+03  0.21686883348E+03  0.00000000000E+00 0. -1.
<mgrwt>
<rscale>  1 0.30000000E+03</rscale>
<asrwt>0</asrwt>
<pdfrwt beam="1">  1       21 0.10585067E-01 0.30000000E+03</pdfrwt>
<pdfrwt beam="2">0</pdfrwt>
<totfact> 0.77706237E+03</totfact>
</mgrwt>
</event>
<event>
 6    1  0.1270461E-001  0.3000000E+03  0.7818608E-02  0.1093470E+00
         21   -1    0    0  501  502  0.00000000000E+00  0.00000000000E+00  0.12006041743E+02  0.12006041743E+02  0.00000000000E+00 0. -1.
         13   -1    0    0    0    0 -0.00000000000E+00 -0.00000000000E+00 -0.10000000000E+04  0.10000000000E+04  0.00000000000E+00 0.  1.
    9000005    2    1    2  501    0 -0.73765082458E+02 -0.54749609710E+02 -0.21855153611E+03  0.23709930661E+03  0.35355488410E+01 0.  0.
         13    1    3    3    0    0 -0.39643962168E+02 -0.31570438409E+02 -0.12138618216E+03  0.13154064595E+03  0.00000000000E+00 0.  1.
          3    1    3    3  501    0 -0.34121120290E+02 -0.23179171301E+02 -0.97165353948E+02  0.10555866066E+03  0.00000000000E+00 0.  1.
         -3    1    1    2    0  502  0.73765082458E+02  0.54749609710E+02 -0.76944242215E+03  0.77490673513E+03  0.00000000000E+00 0. -1.
<mgrwt>
<rscale>  1 0.30000000E+03</rscale>
<asrwt>0</asrwt>
<pdfrwt beam="1">  1       21 0.43658426E-01 0.30000000E+03</pdfrwt>
<pdfrwt beam="2">0</pdfrwt>
<totfact> 0.50237146E+02</totfact>
</mgrwt>
</event>
<event>
 6    1  0.1270461E-001  0.3000000E+03  0.7818608E-02  0.1093470E+00
         21   -1    0    0  501  502  0.00000000000E+00  0.00000000000E+00  0.29220702658E+01  0.29220702658E+01  0.00000000000E+00 0. -1.
         13   -1    0    0    0    0 -0.00000000000E+00 -0.00000000000E+00 -0.10000000000E+04  0.10000000000E+04  0.00000000000E+00 0.  1.
    9000005    2    1    2  501    0  0.25799581803E+02  0.47299864170E+02 -0.46270968419E+03  0.46584449913E+03  0.28195663483E+01 0.  0.
         13    1    3    3    0    0  0.19095150381E+02  0.36084480743E+02 -0.34081499895E+03  0.34325147928E+03  0.00000000000E+00 0.  1.
          1    1    3    3  501    0  0.67044314222E+01  0.11215383427E+02 -0.12189468524E+03  0.12259301985E+03  0.00000000000E+00 0.  1.
         -3    1    1    2    0  502 -0.25799581803E+02 -0.47299864170E+02 -0.53436824555E+03  0.53707757114E+03  0.00000000000E+00 0. -1.
<mgrwt>
<rscale>  1 0.30000000E+03</rscale>
<asrwt>0</asrwt>
<pdfrwt beam="1">  1       21 0.10625732E-01 0.30000000E+03</pdfrwt>
<pdfrwt beam="2">0</pdfrwt>
<totfact> 0.77173566E+03</totfact>
</mgrwt>
</event>
<event>
 6    1  0.1270461E-001  0.3000000E+03  0.7818608E-02  0.1093470E+00
         21   -1    0    0  501  502  0.00000000000E+00  0.00000000000E+00  0.31230327431E+01  0.31230327431E+01  0.00000000000E+00 0. -1.
         13   -1    0    0    0    0 -0.00000000000E+00 -0.00000000000E+00 -0.10000000000E+04  0.10000000000E+04  0.00000000000E+00 0.  1.
    9000005    2    1    2  501    0 -0.48523950334E+02 -0.18123342278E+02 -0.68595351535E+03  0.68791449504E+03  0.33313634146E+01 0.  0.
         13    1    3    3    0    0 -0.22105326323E+02 -0.93319838752E+01 -0.33507946471E+03  0.33593746300E+03  0.00000000000E+00 0.  1.
          1    1    3    3  501    0 -0.26418624010E+02 -0.87913584031E+01 -0.35087405064E+03  0.35197703204E+03  0.00000000000E+00 0.  1.
         -1    1    1    2    0  502  0.48523950334E+02  0.18123342278E+02 -0.31092345191E+03  0.31520853770E+03  0.00000000000E+00 0. -1.
<mgrwt>
<rscale>  1 0.30000000E+03</rscale>
<asrwt>0</asrwt>
<pdfrwt beam="1">  1       21 0.11356507E-01 0.30000000E+03</pdfrwt>
<pdfrwt beam="2">0</pdfrwt>
<totfact> 0.68470269E+03</totfact>
</mgrwt>
</event>
<event>
 6    1  0.1270461E-001  0.3000000E+03  0.7818608E-02  0.1093470E+00
         21   -1    0    0  501  502  0.00000000000E+00  0.00000000000E+00  0.51635593806E+01  0.51635593806E+01  0.00000000000E+00 0. -1.
         13   -1    0    0    0    0 -0.00000000000E+00 -0.00000000000E+00 -0.10000000000E+04  0.10000000000E+04  0.00000000000E+00 0.  1.
    9000005    2    1    2  501    0 -0.50336027555E+02 -0.45188106851E+01 -0.85456087930E+03  0.85606168675E+03  0.36303942310E+01 0.  0.
         13    1    3    3    0    0 -0.52008923227E+01  0.31130719050E-01 -0.10598284977E+03  0.10611038920E+03  0.00000000000E+00 0.  1.
          3    1    3    3  501    0 -0.45135135232E+02 -0.45499414042E+01 -0.74857802953E+03  0.74995129755E+03  0.00000000000E+00 0.  1.
         -1    1    1    2    0  502  0.50336027555E+02  0.45188106851E+01 -0.14027556132E+03  0.14910187263E+03  0.00000000000E+00 0. -1.
<mgrwt>
<rscale>  1 0.30000000E+03</rscale>
<asrwt>0</asrwt>
<pdfrwt beam="1">  1       21 0.18776619E-01 0.30000000E+03</pdfrwt>
<pdfrwt beam="2">0</pdfrwt>
<totfact> 0.27050054E+03</totfact>
</mgrwt>
</event>
<event>
 6    1  0.1270461E-001  0.3000000E+03  0.7818608E-02  0.1093470E+00
         21   -1    0    0  501  502  0.00000000000E+00  0.00000000000E+00  0.22894779459E+01  0.22894779459E+01  0.00000000000E+00 0. -1.
         13   -1    0    0    0    0 -0.00000000000E+00 -0.00000000000E+00 -0.10000000000E+04  0.10000000000E+04  0.00000000000E+00 0.  1.
    9000005    2    1    2  501    0  0.46821094396E+02  0.82036507302E+01 -0.55092054070E+03  0.55297800224E+03  0.34225759934E+01 0.  0.
         13    1    3    3    0    0  0.92808602226E+01  0.28944092231E+00 -0.10374482647E+03  0.10415952746E+03  0.00000000000E+00 0.  1.
          1    1    3    3  501    0  0.37540234174E+02  0.79142098078E+01 -0.44717571423E+03  0.44881847477E+03  0.00000000000E+00 0.  1.
         -3    1    1    2    0  502 -0.46821094396E+02 -0.82036507302E+01 -0.44678998135E+03  0.44931147571E+03  0.00000000000E+00 0. -1.
<mgrwt>
<rscale>  1 0.30000000E+03</rscale>
<asrwt>0</asrwt>
<pdfrwt beam="1">  1       21 0.83253919E-02 0.30000000E+03</pdfrwt>
<pdfrwt beam="2">0</pdfrwt>
<totfact> 0.11908946E+04</totfact>
</mgrwt>
</event>
<event>
 6    1  0.1270461E-001  0.3000000E+03  0.7818608E-02  0.1093470E+00
         21   -1    0    0  501  502  0.00000000000E+00  0.00000000000E+00  0.18500040745E+01  0.18500040745E+01  0.00000000000E+00 0. -1.
         13   -1    0    0    0    0 -0.00000000000E+00 -0.00000000000E+00 -0.10000000000E+04  0.10000000000E+04  0.00000000000E+00 0.  1.
    9000005    2    1    2  501    0  0.39710059161E+02 -0.12424627971E+02 -0.62217906417E+03  0.62358369352E+03  0.43098431676E+01 0.  0.
         13    1    3    3    0    0  0.36783254644E+02 -0.10414390679E+02 -0.56004529796E+03  0.56134855760E+03  0.00000000000E+00 0.  1.
          3    1    3    3  501    0  0.29268045169E+01 -0.20102372923E+01 -0.62133766213E+02  0.62235135916E+02  0.00000000000E+00 0.  1.
         -3    1    1    2    0  502 -0.39710059161E+02  0.12424627971E+02 -0.37597093175E+03  0.37826631055E+03  0.00000000000E+00 0. -1.
<mgrwt>
<rscale>  1 0.30000000E+03</rscale>
<asrwt>0</asrwt>
<pdfrwt beam="1">  1       21 0.67273017E-02 0.30000000E+03</pdfrwt>
<pdfrwt beam="2">0</pdfrwt>
<totfact> 0.17288771E+04</totfact>
</mgrwt>
</event>
<event>
 6    1  0.1270461E-001  0.3000000E+03  0.7818608E-02  0.1093470E+00
         21   -1    0    0  501  502  0.00000000000E+00  0.00000000000E+00  0.12468857412E+01  0.12468857412E+01  0.00000000000E+00 0. -1.
         13   -1    0    0    0    0 -0.00000000000E+00 -0.00000000000E+00 -0.10000000000E+04  0.10000000000E+04  0.00000000000E+00 0.  1.
    9000005    2    1    2  501    0  0.19342787141E+02 -0.26004140752E+02 -0.69626365487E+03  0.69702618988E+03  0.34746987244E+01 0.  0.
         13    1    3    3    0    0  0.16116473420E+02 -0.23546941715E+02 -0.60537857326E+03  0.60605067126E+03  0.00000000000E+00 0.  1.
          3    1    3    3  501    0  0.32263137213E+01 -0.24571990377E+01 -0.90885081611E+02  0.90975518612E+02  0.00000000000E+00 0.  1.
         -3    1    1    2    0  502 -0.19342787141E+02  0.26004140752E+02 -0.30248945939E+03  0.30422069587E+03  0.00000000000E+00 0. -1.
<mgrwt>
<rscale>  1 0.30000000E+03</rscale>
<asrwt>0</asrwt>
<pdfrwt beam="1">  1       21 0.45341395E-02 0.30000000E+03</pdfrwt>
<pdfrwt beam="2">0</pdfrwt>
<totfact> 0.34018948E+04</totfact>
</mgrwt>
</event>
<event>
 6    1  0.1270461E-001  0.3000000E+03  0.7818608E-02  0.1093470E+00
         21   -1    0    0  501  502  0.00000000000E+00  0.00000000000E+00  0.19103124360E+01  0.19103124360E+01  0.00000000000E+00 0. -1.
         13   -1    0    0    0    0 -0.00000000000E+00 -0.00000000000E+00 -0.10000000000E+04  0.10000000000E+04  0.00000000000E+00 0.  1.
    9000005    2    1    2  501    0 -0.13450408400E+02  0.40549137727E+02 -0.60186946825E+03  0.60339355212E+03  0.34315996748E+01 0.  0.
         13    1    3    3    0    0 -0.69208956216E+01  0.18763026719E+02 -0.30394870626E+03  0.30460591919E+03  0.00000000000E+00 0.  1.
          1    1    3    3  501    0 -0.65295127784E+01  0.21786111008E+02 -0.29792076199E+03  0.29878763293E+03  0.00000000000E+00 0.  1.
         -3    1    1    2    0  502  0.13450408400E+02 -0.40549137727E+02 -0.39622021932E+03  0.39851676031E+03  0.00000000000E+00 0. -1.
<mgrwt>
<rscale>  1 0.30000000E+03</rscale>
<asrwt>0</asrwt>
<pdfrwt beam="1">  1       21 0.69466053E-02 0.30000000E+03</pdfrwt>
<pdfrwt beam="2">0</pdfrwt>
<totfact> 0.16351675E+04</totfact>
</mgrwt>
</event>
<event>
 6    1  0.1270461E-001  0.3000000E+03  0.7818608E-02  0.1093470E+00
         21   -1    0    0  501  502  0.00000000000E+00  0.00000000000E+00  0.11581427024E+01  0.11581427024E+01  0.00000000000E+00 0. -1.
         13   -1    0    0    0    0 -0.00000000000E+00 -0.00000000000E+00 -0.10000000000E+04  0.10000000000E+04  0.00000000000E+00 0.  1.
    9000005    2    1    2  501    0  0.25128533918E+01 -0.30123456552E+02 -0.72779386900E+03  0.72842979979E+03  0.35100432200E+01 0.  0.
         13    1    3    3    0    0  0.12321432131E+01 -0.33154291269E+01 -0.71609619282E+02  0.71696916397E+02  0.00000000000E+00 0.  1.
          3    1    3    3  501    0  0.12807101787E+01 -0.26808027425E+02 -0.65618424971E+03  0.65673288339E+03  0.00000000000E+00 0.  1.
         -3    1    1    2    0  502 -0.25128533918E+01  0.30123456552E+02 -0.27104798830E+03  0.27272834292E+03  0.00000000000E+00 0. -1.
<mgrwt>
<rscale>  1 0.30000000E+03</rscale>
<asrwt>0</asrwt>
<pdfrwt beam="1">  1       21 0.42114369E-02 0.30000000E+03</pdfrwt>
<pdfrwt beam="2">0</pdfrwt>
<totfact> 0.38549018E+04</totfact>
</mgrwt>
</event>
<event>
 6    1  0.1270461E-001  0.3000000E+03  0.7818608E-02  0.1093470E+00
         21   -1    0    0  501  502  0.00000000000E+00  0.00000000000E+00  0.18124987397E+01  0.18124987397E+01  0.00000000000E+00 0. -1.
         13   -1    0    0    0    0 -0.00000000000E+00 -0.00000000000E+00 -0.10000000000E+04  0.10000000000E+04  0.00000000000E+00 0.  1.
    9000005    2    1    2  501    0  0.22697004752E+02 -0.29458722866E+02 -0.74211702683E+03  0.74305574375E+03  0.33446123734E+01 0.  0.
         13    1    3    3    0    0  0.12469253839E+02 -0.18848931773E+02 -0.44598005050E+03  0.44655231492E+03  0.00000000000E+00 0.  1.
          3    1    3    3  501    0  0.10227750913E+02 -0.10609791092E+02 -0.29613697634E+03  0.29650342883E+03  0.00000000000E+00 0.  1.
         -1    1    1    2    0  502 -0.22697004752E+02  0.29458722866E+02 -0.25607047443E+03  0.25875675499E+03  0.00000000000E+00 0. -1.
<mgrwt>
<rscale>  1 0.30000000E+03</rscale>
<asrwt>0</asrwt>
<pdfrwt beam="1">  1       21 0.65909184E-02 0.30000000E+03</pdfrwt>
<pdfrwt beam="2">0</pdfrwt>
<totfact> 0.17913812E+04</totfact>
</mgrwt>
</event>
<event>
 6    1  0.1270461E-001  0.3000000E+03  0.7818608E-02  0.1093470E+00
         21   -1    0    0  501  502  0.00000000000E+00  0.00000000000E+00  0.16605144329E+01  0.16605144329E+01  0.00000000000E+00 0. -1.
         13   -1    0    0    0    0 -0.00000000000E+00 -0.00000000000E+00 -0.10000000000E+04  0.10000000000E+04  0.00000000000E+00 0.  1.
    9000005    2    1    2  501    0  0.29598805356E+02 -0.21531882891E+02 -0.71815816463E+03  0.71909851440E+03  0.34369653825E+01 0.  0.
         13    1    3    3    0    0  0.11519754654E+02 -0.64043085688E+01 -0.24971379943E+03  0.25006139555E+03  0.00000000000E+00 0.  1.
          3    1    3    3  501    0  0.18079050702E+02 -0.15127574322E+02 -0.46844436520E+03  0.46903711886E+03  0.00000000000E+00 0.  1.
         -1    1    1    2    0  502 -0.29598805356E+02  0.21531882891E+02 -0.28018132094E+03  0.28256200003E+03  0.00000000000E+00 0. -1.
<mgrwt>
<rscale>  1 0.30000000E+03</rscale>
<asrwt>0</asrwt>
<pdfrwt beam="1">  1       21 0.60382470E-02 0.30000000E+03</pdfrwt>
<pdfrwt beam="2">0</pdfrwt>
<totfact> 0.20841976E+04</totfact>
</mgrwt>
</event>
<event>
 6    1  0.1270461E-001  0.3000000E+03  0.7818608E-02  0.1093470E+00
         21   -1    0    0  501  502  0.00000000000E+00  0.00000000000E+00  0.63524213928E+01  0.63524213928E+01  0.00000000000E+00 0. -1.
         13   -1    0    0    0    0 -0.00000000000E+00 -0.00000000000E+00 -0.10000000000E+04  0.10000000000E+04  0.00000000000E+00 0.  1.
    9000005    2    1    2  501    0  0.26945551871E+02  0.35686758060E+02 -0.91327435736E+03  0.91437708687E+03  0.39746345667E+01 0.  0.
         13    1    3    3    0    0  0.57729177336E+01  0.76039177247E+01 -0.23026672167E+03  0.23046455096E+03  0.00000000000E+00 0.  1.
          3    1    3    3  501    0  0.21172634137E+02  0.28082840336E+02 -0.68300763569E+03  0.68391253591E+03  0.00000000000E+00 0.  1.
         -3    1    1    2    0  502 -0.26945551871E+02 -0.35686758060E+02 -0.80373221249E+02  0.91975334522E+02  0.00000000000E+00 0. -1.
<mgrwt>
<rscale>  1 0.30000000E+03</rscale>
<asrwt>0</asrwt>
<pdfrwt beam="1">  1       21 0.23099763E-01 0.30000000E+03</pdfrwt>
<pdfrwt beam="2">0</pdfrwt>
<totfact> 0.18189767E+03</totfact>
</mgrwt>
</event>
<event>
 6    1  0.1270461E-001  0.3000000E+03  0.7818608E-02  0.1093470E+00
         21   -1    0    0  501  502  0.00000000000E+00  0.00000000000E+00  0.19949298825E+01  0.19949298825E+01  0.00000000000E+00 0. -1.
         13   -1    0    0    0    0 -0.00000000000E+00 -0.00000000000E+00 -0.10000000000E+04  0.10000000000E+04  0.00000000000E+00 0.  1.
    9000005    2    1    2  501    0  0.18067890098E+02 -0.26655550536E+02 -0.84563736058E+03  0.84626154895E+03  0.43699651682E+01 0.  0.
         13    1    3    3    0    0  0.12982126810E+02 -0.21120710591E+02 -0.60767886767E+03  0.60818436863E+03  0.00000000000E+00 0.  1.
          1    1    3    3  501    0  0.50857632883E+01 -0.55348399454E+01 -0.23795849290E+03  0.23807718031E+03  0.00000000000E+00 0.  1.
         -1    1    1    2    0  502 -0.18067890098E+02  0.26655550536E+02 -0.15236770954E+03  0.15573338094E+03  0.00000000000E+00 0. -1.
<mgrwt>
<rscale>  1 0.30000000E+03</rscale>
<asrwt>0</asrwt>
<pdfrwt beam="1">  1       21 0.72543058E-02 0.30000000E+03</pdfrwt>
<pdfrwt beam="2">0</pdfrwt>
<totfact> 0.15162278E+04</totfact>
</mgrwt>
</event>
<event>
 6    1  0.1270461E-001  0.3000000E+03  0.7818608E-02  0.1093470E+00
         21   -1    0    0  501  502  0.00000000000E+00  0.00000000000E+00  0.19044836536E+01  0.19044836536E+01  0.00000000000E+00 0. -1.
         13   -1    0    0    0    0 -0.00000000000E+00 -0.00000000000E+00 -0.10000000000E+04  0.10000000000E+04  0.00000000000E+00 0.  1.
    9000005    2    1    2  501    0  0.12406004394E+02 -0.31550632760E+02 -0.81384633860E+03  0.81456225437E+03  0.40561089429E+01 0.  0.
         13    1    3    3    0    0  0.85537319586E+00 -0.59282444365E+01 -0.12716577283E+03  0.12730675365E+03  0.00000000000E+00 0.  1.
          3    1    3    3  501    0  0.11550631199E+02 -0.25622388323E+02 -0.68668056577E+03  0.68725550072E+03  0.00000000000E+00 0.  1.
         -3    1    1    2    0  502 -0.12406004394E+02  0.31550632760E+02 -0.18424917775E+03  0.18734222928E+03  0.00000000000E+00 0. -1.
<mgrwt>
<rscale>  1 0.30000000E+03</rscale>
<asrwt>0</asrwt>
<pdfrwt beam="1">  1       21 0.69254097E-02 0.30000000E+03</pdfrwt>
<pdfrwt beam="2">0</pdfrwt>
<totfact> 0.16438805E+04</totfact>
</mgrwt>
</event>
<event>
 6    1  0.1270461E-001  0.3000000E+03  0.7818608E-02  0.1093470E+00
         21   -1    0    0  501  502  0.00000000000E+00  0.00000000000E+00  0.12102607647E+01  0.12102607647E+01  0.00000000000E+00 0. -1.
         13   -1    0    0    0    0 -0.00000000000E+00 -0.00000000000E+00 -0.10000000000E+04  0.10000000000E+04  0.00000000000E+00 0.  1.
    9000005    2    1    2  501    0  0.33325562408E+02 -0.17258752826E+01 -0.63868484381E+03  0.63956249365E+03  0.28778127044E+01 0.  0.
         13    1    3    3    0    0  0.10870553379E+02  0.63407337259E+00 -0.19608801055E+03  0.19639011905E+03  0.00000000000E+00 0.  1.
          3    1    3    3  501    0  0.22455009029E+02 -0.23599486552E+01 -0.44259683327E+03  0.44317237460E+03  0.00000000000E+00 0.  1.
         -1    1    1    2    0  502 -0.33325562408E+02  0.17258752826E+01 -0.36010489542E+03  0.36164776712E+03  0.00000000000E+00 0. -1.
<mgrwt>
<rscale>  1 0.30000000E+03</rscale>
<asrwt>0</asrwt>
<pdfrwt beam="1">  1       21 0.44009575E-02 0.30000000E+03</pdfrwt>
<pdfrwt beam="2">0</pdfrwt>
<totfact> 0.35783212E+04</totfact>
</mgrwt>
</event>
<event>
 6    1  0.1270461E-001  0.3000000E+03  0.7818608E-02  0.1093470E+00
         21   -1    0    0  501  502  0.00000000000E+00  0.00000000000E+00  0.13905507807E+01  0.13905507807E+01  0.00000000000E+00 0. -1.
         13   -1    0    0    0    0 -0.00000000000E+00 -0.00000000000E+00 -0.10000000000E+04  0.10000000000E+04  0.00000000000E+00 0.  1.
    9000005    2    1    2  501    0 -0.34317670015E+02 -0.23715105184E+01 -0.33744706484E+03  0.33933388776E+03  0.96767387561E+01 0.  0.
         13    1    3    3    0    0 -0.28534805703E+02  0.15530808984E+01 -0.25704699099E+03  0.25863063000E+03  0.00000000000E+00 0.  1.
          1    1    3    3  501    0 -0.57828643117E+01 -0.39245914168E+01 -0.80400073851E+02  0.80703257757E+02  0.00000000000E+00 0.  1.
         -3    1    1    2    0  502  0.34317670015E+02  0.23715105184E+01 -0.66116238438E+03  0.66205666302E+03  0.00000000000E+00 0. -1.
<mgrwt>
<rscale>  1 0.30000000E+03</rscale>
<asrwt>0</asrwt>
<pdfrwt beam="1">  1       21 0.50565590E-02 0.30000000E+03</pdfrwt>
<pdfrwt beam="2">0</pdfrwt>
<totfact> 0.28257428E+04</totfact>
</mgrwt>
</event>
<event>
 6    1  0.1270461E-001  0.3000000E+03  0.7818608E-02  0.1093470E+00
         21   -1    0    0  501  502  0.00000000000E+00  0.00000000000E+00  0.15604978905E+01  0.15604978905E+01  0.00000000000E+00 0. -1.
         13   -1    0    0    0    0 -0.00000000000E+00 -0.00000000000E+00 -0.10000000000E+04  0.10000000000E+04  0.00000000000E+00 0.  1.
    9000005    2    1    2  501    0 -0.27520245392E+02  0.12139810127E+02 -0.82359461537E+03  0.82414721396E+03  0.24085085824E+01 0.  0.
         13    1    3    3    0    0 -0.40103528294E+00 -0.67540870053E-01 -0.16057893928E+02  0.16063042939E+02  0.00000000000E+00 0.  1.
          1    1    3    3  501    0 -0.27119210109E+02  0.12207350997E+02 -0.80753672145E+03  0.80808417102E+03  0.00000000000E+00 0.  1.
         -1    1    1    2    0  502  0.27520245392E+02 -0.12139810127E+02 -0.17484488674E+03  0.17741328393E+03  0.00000000000E+00 0. -1.
<mgrwt>
<rscale>  1 0.30000000E+03</rscale>
<asrwt>0</asrwt>
<pdfrwt beam="1">  1       21 0.56745497E-02 0.30000000E+03</pdfrwt>
<pdfrwt beam="2">0</pdfrwt>
<totfact> 0.23196031E+04</totfact>
</mgrwt>
</event>
<event>
 6    1  0.1270461E-001  0.3000000E+03  0.7818608E-02  0.1093470E+00
         21   -1    0    0  501  502  0.00000000000E+00  0.00000000000E+00  0.33719103192E+01  0.33719103192E+01  0.00000000000E+00 0. -1.
         13   -1    0    0    0    0 -0.00000000000E+00 -0.00000000000E+00 -0.10000000000E+04  0.10000000000E+04  0.00000000000E+00 0.  1.
    9000005    2    1    2  501    0  0.11552007625E+02 -0.47854747710E+02 -0.76398539023E+03  0.76557756352E+03  0.34356269767E+01 0.  0.
         13    1    3    3    0    0  0.29356002275E+01 -0.10156068999E+02 -0.14430464030E+03  0.14469137051E+03  0.00000000000E+00 0.  1.
          1    1    3    3  501    0  0.86164073979E+01 -0.37698678711E+02 -0.61968074993E+03  0.62088619302E+03  0.00000000000E+00 0.  1.
         -3    1    1    2    0  502 -0.11552007625E+02  0.47854747710E+02 -0.23264269945E+03  0.23779434679E+03  0.00000000000E+00 0. -1.
<mgrwt>
<rscale>  1 0.30000000E+03</rscale>
<asrwt>0</asrwt>
<pdfrwt beam="1">  1       21 0.12261518E-01 0.30000000E+03</pdfrwt>
<pdfrwt beam="2">0</pdfrwt>
<totfact> 0.59590243E+03</totfact>
</mgrwt>
</event>
<event>
 6    1  0.1270461E-001  0.3000000E+03  0.7818608E-02  0.1093470E+00
         21   -1    0    0  501  502  0.00000000000E+00  0.00000000000E+00  0.18354217941E+01  0.18354217941E+01  0.00000000000E+00 0. -1.
         13   -1    0    0    0    0 -0.00000000000E+00 -0.00000000000E+00 -0.10000000000E+04  0.10000000000E+04  0.00000000000E+00 0.  1.
    9000005    2    1    2  501    0  0.26833987196E+02  0.26121797400E+02 -0.25799292099E+03  0.26071701472E+03  0.32562726832E+01 0.  0.
         13    1    3    3    0    0  0.14861388829E+02  0.16628916295E+02 -0.15584542694E+03  0.15743309320E+03  0.00000000000E+00 0.  1.
          1    1    3    3  501    0  0.11972598368E+02  0.94928811049E+01 -0.10214749405E+03  0.10328392152E+03  0.00000000000E+00 0.  1.
         -3    1    1    2    0  502 -0.26833987196E+02 -0.26121797400E+02 -0.74017165721E+03  0.74111840708E+03  0.00000000000E+00 0. -1.
<mgrwt>
<rscale>  1 0.30000000E+03</rscale>
<asrwt>0</asrwt>
<pdfrwt beam="1">  1       21 0.66742751E-02 0.30000000E+03</pdfrwt>
<pdfrwt beam="2">0</pdfrwt>
<totfact> 0.17527743E+04</totfact>
</mgrwt>
</event>
<event>
 6    1  0.1608157E-001  0.3000000E+03  0.7818608E-02  0.1093470E+00
         21   -1    0    0  501  502  0.00000000000E+00  0.00000000000E+00  0.99812527565E+00  0.99812527565E+00  0.00000000000E+00 0. -1.
         13   -1    0    0    0    0 -0.00000000000E+00 -0.00000000000E+00 -0.10000000000E+04  0.10000000000E+04  0.00000000000E+00 0.  1.
    9000005    2    1    2  501    0 -0.11892175150E+02 -0.28206411444E+02 -0.52683415544E+03  0.52783918728E+03  0.11088498904E+02 0.  0.
         13    1    3    3    0    0 -0.10311963527E+02 -0.29002779847E+02 -0.49573826889E+03  0.49669299277E+03  0.00000000000E+00 0.  1.
          1    1    3    3  501    0 -0.15802116227E+01  0.79636840289E+00 -0.31095886556E+02  0.31146194505E+02  0.00000000000E+00 0.  1.
         -3    1    1    2    0  502  0.11892175150E+02  0.28206411444E+02 -0.47216771928E+03  0.47315893800E+03  0.00000000000E+00 0. -1.
<mgrwt>
<rscale>  1 0.30000000E+03</rscale>
<asrwt>0</asrwt>
<pdfrwt beam="1">  1       21 0.36295541E-02 0.30000000E+03</pdfrwt>
<pdfrwt beam="2">0</pdfrwt>
<totfact> 0.49506777E+04</totfact>
</mgrwt>
</event>
<event>
 6    1  0.1270461E-001  0.3000000E+03  0.7818608E-02  0.1093470E+00
         21   -1    0    0  501  502  0.00000000000E+00  0.00000000000E+00  0.30895501590E+01  0.30895501590E+01  0.00000000000E+00 0. -1.
         13   -1    0    0    0    0 -0.00000000000E+00 -0.00000000000E+00 -0.10000000000E+04  0.10000000000E+04  0.00000000000E+00 0.  1.
    9000005    2    1    2  501    0  0.30625449609E+02 -0.17882179010E+02 -0.88393684383E+03  0.88468040294E+03  0.75750232313E+01 0.  0.
         13    1    3    3    0    0  0.19324068384E+02 -0.14092942778E+02 -0.52259356802E+03  0.52314058148E+03  0.00000000000E+00 0.  1.
          3    1    3    3  501    0  0.11301381225E+02 -0.37892362323E+01 -0.36134327581E+03  0.36153982146E+03  0.00000000000E+00 0.  1.
         -1    1    1    2    0  502 -0.30625449609E+02  0.17882179010E+02 -0.11297360601E+03  0.11840914722E+03  0.00000000000E+00 0. -1.
<mgrwt>
<rscale>  1 0.30000000E+03</rscale>
<asrwt>0</asrwt>
<pdfrwt beam="1">  1       21 0.11234752E-01 0.30000000E+03</pdfrwt>
<pdfrwt beam="2">0</pdfrwt>
<totfact> 0.69814300E+03</totfact>
</mgrwt>
</event>
<event>
 6    1  0.1270461E-001  0.3000000E+03  0.7818608E-02  0.1093470E+00
         21   -1    0    0  501  502  0.00000000000E+00  0.00000000000E+00  0.91189133259E+00  0.91189133259E+00  0.00000000000E+00 0. -1.
         13   -1    0    0    0    0 -0.00000000000E+00 -0.00000000000E+00 -0.10000000000E+04  0.10000000000E+04  0.00000000000E+00 0.  1.
    9000005    2    1    2  501    0 -0.28224288170E+02 -0.10601563147E+02 -0.49260290543E+03  0.49353011724E+03  0.23131364209E+01 0.  0.
         13    1    3    3    0    0 -0.78765617674E+01 -0.19877155349E+01 -0.14029904556E+03  0.14053402941E+03  0.00000000000E+00 0.  1.
          1    1    3    3  501    0 -0.20347726402E+02 -0.86138476121E+01 -0.35230385988E+03  0.35299608783E+03  0.00000000000E+00 0.  1.
         -1    1    1    2    0  502  0.28224288170E+02  0.10601563147E+02 -0.50648520323E+03  0.50738177409E+03  0.00000000000E+00 0. -1.
<mgrwt>
<rscale>  1 0.30000000E+03</rscale>
<asrwt>0</asrwt>
<pdfrwt beam="1">  1       21 0.33159755E-02 0.30000000E+03</pdfrwt>
<pdfrwt beam="2">0</pdfrwt>
<totfact> 0.57587681E+04</totfact>
</mgrwt>
</event>
<event>
 6    1  0.1270461E-001  0.3000000E+03  0.7818608E-02  0.1093470E+00
         21   -1    0    0  501  502  0.00000000000E+00  0.00000000000E+00  0.22382748689E+01  0.22382748689E+01  0.00000000000E+00 0. -1.
         13   -1    0    0    0    0 -0.00000000000E+00 -0.00000000000E+00 -0.10000000000E+04  0.10000000000E+04  0.00000000000E+00 0.  1.
    9000005    2    1    2  501    0 -0.12894895731E+02 -0.44955076298E+02 -0.57113937691E+03  0.57306014726E+03  0.32414955366E+01 0.  0.
         13    1    3    3    0    0 -0.93537297364E+01 -0.29340011777E+02 -0.36025028555E+03  0.36156409777E+03  0.00000000000E+00 0.  1.
          1    1    3    3  501    0 -0.35411659949E+01 -0.15615064522E+02 -0.21088909136E+03  0.21149604949E+03  0.00000000000E+00 0.  1.
         -1    1    1    2    0  502  0.12894895731E+02  0.44955076298E+02 -0.42662234822E+03  0.42917812761E+03  0.00000000000E+00 0. -1.
<mgrwt>
<rscale>  1 0.30000000E+03</rscale>
<asrwt>0</asrwt>
<pdfrwt beam="1">  1       21 0.81391985E-02 0.30000000E+03</pdfrwt>
<pdfrwt beam="2">0</pdfrwt>
<totfact> 0.12392446E+04</totfact>
</mgrwt>
</event>
<event>
 6    1  0.1270461E-001  0.3000000E+03  0.7818608E-02  0.1093470E+00
         21   -1    0    0  501  502  0.00000000000E+00  0.00000000000E+00  0.17009155763E+01  0.17009155763E+01  0.00000000000E+00 0. -1.
         13   -1    0    0    0    0 -0.00000000000E+00 -0.00000000000E+00 -0.10000000000E+04  0.10000000000E+04  0.00000000000E+00 0.  1.
    9000005    2    1    2  501    0 -0.32922680236E+01 -0.33206904387E+02 -0.79142008037E+03  0.79214791548E+03  0.62481094567E+01 0.  0.
         13    1    3    3    0    0 -0.23258076516E+01 -0.82644029229E+01 -0.15380552772E+03  0.15404496127E+03  0.00000000000E+00 0.  1.
          3    1    3    3  501    0 -0.96646037206E+00 -0.24942501464E+02 -0.63761455265E+03  0.63810295421E+03  0.00000000000E+00 0.  1.
         -1    1    1    2    0  502  0.32922680236E+01  0.33206904387E+02 -0.20687900406E+03  0.20955300009E+03  0.00000000000E+00 0. -1.
<mgrwt>
<rscale>  1 0.30000000E+03</rscale>
<asrwt>0</asrwt>
<pdfrwt beam="1">  1       21 0.61851606E-02 0.30000000E+03</pdfrwt>
<pdfrwt beam="2">0</pdfrwt>
<totfact> 0.19994917E+04</totfact>
</mgrwt>
</event>
<event>
 6    1  0.1270461E-001  0.3000000E+03  0.7818608E-02  0.1093470E+00
         21   -1    0    0  501  502  0.00000000000E+00  0.00000000000E+00  0.19923552947E+01  0.19923552947E+01  0.00000000000E+00 0. -1.
         13   -1    0    0    0    0 -0.00000000000E+00 -0.00000000000E+00 -0.10000000000E+04  0.10000000000E+04  0.00000000000E+00 0.  1.
    9000005    2    1    2  501    0 -0.22922464094E+02 -0.27747817339E+02 -0.79473911402E+03  0.79556203705E+03  0.36489314626E+01 0.  0.
         13    1    3    3    0    0 -0.16073644127E+02 -0.18363085993E+02 -0.57147746299E+03  0.57199830041E+03  0.00000000000E+00 0.  1.
          1    1    3    3  501    0 -0.68488199661E+01 -0.93847313457E+01 -0.22326165103E+03  0.22356373663E+03  0.00000000000E+00 0.  1.
         -1    1    1    2    0  502  0.22922464094E+02  0.27747817339E+02 -0.20326853068E+03  0.20643031825E+03  0.00000000000E+00 0. -1.
<mgrwt>
<rscale>  1 0.30000000E+03</rscale>
<asrwt>0</asrwt>
<pdfrwt beam="1">  1       21 0.72449436E-02 0.30000000E+03</pdfrwt>
<pdfrwt beam="2">0</pdfrwt>
<totfact> 0.15196497E+04</totfact>
</mgrwt>
</event>
<event>
 6    1  0.1270461E-001  0.3000000E+03  0.7818608E-02  0.1093470E+00
         21   -1    0    0  501  502  0.00000000000E+00  0.00000000000E+00  0.13241908690E+01  0.13241908690E+01  0.00000000000E+00 0. -1.
         13   -1    0    0    0    0 -0.00000000000E+00 -0.00000000000E+00 -0.10000000000E+04  0.10000000000E+04  0.00000000000E+00 0.  1.
    9000005    2    1    2  501    0  0.33148027202E+02  0.52591577055E+01 -0.69154638005E+03  0.69236636744E+03  0.28880030679E+01 0.  0.
         13    1    3    3    0    0  0.48669822946E+01 -0.14434536823E+00 -0.10976550612E+03  0.10987344850E+03  0.00000000000E+00 0.  1.
          3    1    3    3  501    0  0.28281044908E+02  0.54035030737E+01 -0.58178087393E+03  0.58249291895E+03  0.00000000000E+00 0.  1.
         -3    1    1    2    0  502 -0.33148027202E+02 -0.52591577055E+01 -0.30712942908E+03  0.30895782342E+03  0.00000000000E+00 0. -1.
<mgrwt>
<rscale>  1 0.30000000E+03</rscale>
<asrwt>0</asrwt>
<pdfrwt beam="1">  1       21 0.48152497E-02 0.30000000E+03</pdfrwt>
<pdfrwt beam="2">0</pdfrwt>
<totfact> 0.30712314E+04</totfact>
</mgrwt>
</event>
<event>
 6    1  0.1270461E-001  0.3000000E+03  0.7818608E-02  0.1093470E+00
         21   -1    0    0  501  502  0.00000000000E+00  0.00000000000E+00  0.22020160237E+01  0.22020160237E+01  0.00000000000E+00 0. -1.
         13   -1    0    0    0    0 -0.00000000000E+00 -0.00000000000E+00 -0.10000000000E+04  0.10000000000E+04  0.00000000000E+00 0.  1.
    9000005    2    1    2  501    0  0.39407221080E+02 -0.23038967500E+02 -0.61411945585E+03  0.61581757529E+03  0.22038340857E+01 0.  0.
         13    1    3    3    0    0  0.14864730890E+02 -0.98083596865E+01 -0.24577402469E+03  0.24641841521E+03  0.00000000000E+00 0.  1.
          1    1    3    3  501    0  0.24542490190E+02 -0.13230607814E+02 -0.36834543116E+03  0.36939916008E+03  0.00000000000E+00 0.  1.
         -3    1    1    2    0  502 -0.39407221080E+02  0.23038967500E+02 -0.38367852812E+03  0.38638444073E+03  0.00000000000E+00 0. -1.
<mgrwt>
<rscale>  1 0.30000000E+03</rscale>
<asrwt>0</asrwt>
<pdfrwt beam="1">  1       21 0.80073479E-02 0.30000000E+03</pdfrwt>
<pdfrwt beam="2">0</pdfrwt>
<totfact> 0.12753286E+04</totfact>
</mgrwt>
</event>
<event>
 6    1  0.1270461E-001  0.3000000E+03  0.7818608E-02  0.1093470E+00
         21   -1    0    0  501  502  0.00000000000E+00  0.00000000000E+00  0.17884020428E+01  0.17884020428E+01  0.00000000000E+00 0. -1.
         13   -1    0    0    0    0 -0.00000000000E+00 -0.00000000000E+00 -0.10000000000E+04  0.10000000000E+04  0.00000000000E+00 0.  1.
    9000005    2    1    2  501    0 -0.35303963517E+02  0.10692782826E+02 -0.73743657730E+03  0.73841733901E+03  0.93142667492E+01 0.  0.
         13    1    3    3    0    0 -0.28759940680E+02  0.10743534626E+02 -0.53971847529E+03  0.54059096394E+03  0.00000000000E+00 0.  1.
          3    1    3    3  501    0 -0.65440228371E+01 -0.50751800397E-01 -0.19771810202E+03  0.19782637508E+03  0.00000000000E+00 0.  1.
         -1    1    1    2    0  502  0.35303963517E+02 -0.10692782826E+02 -0.26077502065E+03  0.26337106303E+03  0.00000000000E+00 0. -1.
<mgrwt>
<rscale>  1 0.30000000E+03</rscale>
<asrwt>0</asrwt>
<pdfrwt beam="1">  1       21 0.65032939E-02 0.30000000E+03</pdfrwt>
<pdfrwt beam="2">0</pdfrwt>
<totfact> 0.18333956E+04</totfact>
</mgrwt>
</event>
<event>
 6    1  0.1270461E-001  0.3000000E+03  0.7818608E-02  0.1093470E+00
         21   -1    0    0  501  502  0.00000000000E+00  0.00000000000E+00  0.21387423869E+01  0.21387423869E+01  0.00000000000E+00 0. -1.
         13   -1    0    0    0    0 -0.00000000000E+00 -0.00000000000E+00 -0.10000000000E+04  0.10000000000E+04  0.00000000000E+00 0.  1.
    9000005    2    1    2  501    0 -0.36046611220E+01  0.30052142766E+02 -0.87758058387E+03  0.87810824072E+03  0.32056786405E+01 0.  0.
         13    1    3    3    0    0 -0.10378408954E+01  0.29045322074E+01 -0.71334282351E+02  0.71400933185E+02  0.00000000000E+00 0.  1.
          3    1    3    3  501    0 -0.25668202266E+01  0.27147610558E+02 -0.80624630152E+03  0.80670730754E+03  0.00000000000E+00 0.  1.
         -1    1    1    2    0  502  0.36046611220E+01 -0.30052142766E+02 -0.12028067375E+03  0.12403050167E+03  0.00000000000E+00 0. -1.
<mgrwt>
<rscale>  1 0.30000000E+03</rscale>
<asrwt>0</asrwt>
<pdfrwt beam="1">  1       21 0.77772614E-02 0.30000000E+03</pdfrwt>
<pdfrwt beam="2">0</pdfrwt>
<totfact> 0.13422884E+04</totfact>
</mgrwt>
</event>
<event>
 6    1  0.1270461E-001  0.3000000E+03  0.7818608E-02  0.1093470E+00
         21   -1    0    0  501  502  0.00000000000E+00  0.00000000000E+00  0.14424373621E+01  0.14424373621E+01  0.00000000000E+00 0. -1.
         13   -1    0    0    0    0 -0.00000000000E+00 -0.00000000000E+00 -0.10000000000E+04  0.10000000000E+04  0.00000000000E+00 0.  1.
    9000005    2    1    2  501    0  0.22431015830E+02  0.22731040180E+02 -0.23118523174E+03  0.23340588557E+03  0.34417126402E+01 0.  0.
         13    1    3    3    0    0  0.21746274570E+02  0.22352606855E+02 -0.22814773875E+03  0.23026925584E+03  0.00000000000E+00 0.  1.
          1    1    3    3  501    0  0.68474125957E+00  0.37843332459E+00 -0.30374929932E+01  0.31366297291E+01  0.00000000000E+00 0.  1.
         -3    1    1    2    0  502 -0.22431015830E+02 -0.22731040180E+02 -0.76737233090E+03  0.76803655179E+03  0.00000000000E+00 0. -1.
<mgrwt>
<rscale>  1 0.30000000E+03</rscale>
<asrwt>0</asrwt>
<pdfrwt beam="1">  1       21 0.52452378E-02 0.30000000E+03</pdfrwt>
<pdfrwt beam="2">0</pdfrwt>
<totfact> 0.26544074E+04</totfact>
</mgrwt>
</event>
<event>
 6    1  0.1270461E-001  0.3000000E+03  0.7818608E-02  0.1093470E+00
         21   -1    0    0  501  502  0.00000000000E+00  0.00000000000E+00  0.19373904742E+01  0.19373904742E+01  0.00000000000E+00 0. -1.
         13   -1    0    0    0    0 -0.00000000000E+00 -0.00000000000E+00 -0.10000000000E+04  0.10000000000E+04  0.00000000000E+00 0.  1.
    9000005    2    1    2  501    0  0.30462608832E+02 -0.31668880596E+02 -0.51067836405E+03  0.51257628528E+03  0.33418844487E+01 0.  0.
         13    1    3    3    0    0  0.28267039226E+02 -0.29033325404E+02 -0.45957883731E+03  0.46136175307E+03  0.00000000000E+00 0.  1.
          3    1    3    3  501    0  0.21955696062E+01 -0.26355551913E+01 -0.51099526735E+02  0.51214532211E+02  0.00000000000E+00 0.  1.
         -3    1    1    2    0  502 -0.30462608832E+02  0.31668880596E+02 -0.48738424548E+03  0.48936110519E+03  0.00000000000E+00 0. -1.
<mgrwt>
<rscale>  1 0.30000000E+03</rscale>
<asrwt>0</asrwt>
<pdfrwt beam="1">  1       21 0.70450711E-02 0.30000000E+03</pdfrwt>
<pdfrwt beam="2">0</pdfrwt>
<totfact> 0.15956018E+04</totfact>
</mgrwt>
</event>
<event>
 6    1  0.1270461E-001  0.3000000E+03  0.7818608E-02  0.1093470E+00
         21   -1    0    0  501  502  0.00000000000E+00  0.00000000000E+00  0.20488276638E+01  0.20488276638E+01  0.00000000000E+00 0. -1.
         13   -1    0    0    0    0 -0.00000000000E+00 -0.00000000000E+00 -0.10000000000E+04  0.10000000000E+04  0.00000000000E+00 0.  1.
    9000005    2    1    2  501    0 -0.30907272667E+02 -0.65766556899E+01 -0.85743745873E+03  0.85802585861E+03  0.32964383173E+01 0.  0.
         13    1    3    3    0    0 -0.47029526818E+01 -0.12308253567E+01 -0.10327901069E+03  0.10339335929E+03  0.00000000000E+00 0.  1.
          1    1    3    3  501    0 -0.26204319985E+02 -0.53458303332E+01 -0.75415844803E+03  0.75463249932E+03  0.00000000000E+00 0.  1.
         -1    1    1    2    0  502  0.30907272667E+02  0.65766556899E+01 -0.14051371361E+03  0.14402296906E+03  0.00000000000E+00 0. -1.
<mgrwt>
<rscale>  1 0.30000000E+03</rscale>
<asrwt>0</asrwt>
<pdfrwt beam="1">  1       21 0.74502981E-02 0.30000000E+03</pdfrwt>
<pdfrwt beam="2">0</pdfrwt>
<totfact> 0.14471937E+04</totfact>
</mgrwt>
</event>
<event>
 6    1  0.1270461E-001  0.3000000E+03  0.7818608E-02  0.1093470E+00
         21   -1    0    0  501  502  0.00000000000E+00  0.00000000000E+00  0.10435912743E+01  0.10435912743E+01  0.00000000000E+00 0. -1.
         13   -1    0    0    0    0 -0.00000000000E+00 -0.00000000000E+00 -0.10000000000E+04  0.10000000000E+04  0.00000000000E+00 0.  1.
    9000005    2    1    2  501    0 -0.30125097535E+02 -0.11403272835E+02 -0.52076386127E+03  0.52176739890E+03  0.29433347049E+01 0.  0.
         13    1    3    3    0    0 -0.13062768895E+02 -0.37428226072E+01 -0.23413150745E+03  0.23452549421E+03  0.00000000000E+00 0.  1.
          3    1    3    3  501    0 -0.17062328640E+02 -0.76604502281E+01 -0.28663235382E+03  0.28724190469E+03  0.00000000000E+00 0.  1.
         -3    1    1    2    0  502  0.30125097535E+02  0.11403272835E+02 -0.47819254746E+03  0.47927619237E+03  0.00000000000E+00 0. -1.
<mgrwt>
<rscale>  1 0.30000000E+03</rscale>
<asrwt>0</asrwt>
<pdfrwt beam="1">  1       21 0.37948854E-02 0.30000000E+03</pdfrwt>
<pdfrwt beam="2">0</pdfrwt>
<totfact> 0.45939919E+04</totfact>
</mgrwt>
</event>
<event>
 6    1  0.1270461E-001  0.3000000E+03  0.7818608E-02  0.1093470E+00
         21   -1    0    0  501  502  0.00000000000E+00  0.00000000000E+00  0.11106883907E+01  0.11106883907E+01  0.00000000000E+00 0. -1.
         13   -1    0    0    0    0 -0.00000000000E+00 -0.00000000000E+00 -0.10000000000E+04  0.10000000000E+04  0.00000000000E+00 0.  1.
    9000005    2    1    2  501    0 -0.32628475154E+02  0.19900461386E+01 -0.59354860344E+03  0.59445399366E+03  0.26510850073E+01 0.  0.
         13    1    3    3    0    0 -0.16313449639E+02  0.12326769809E+01 -0.32065929184E+03  0.32107636097E+03  0.00000000000E+00 0.  1.
          1    1    3    3  501    0 -0.16315025515E+02  0.75736915771E+00 -0.27288931160E+03  0.27337763269E+03  0.00000000000E+00 0.  1.
         -3    1    1    2    0  502  0.32628475154E+02 -0.19900461386E+01 -0.40534070816E+03  0.40665669473E+03  0.00000000000E+00 0. -1.
<mgrwt>
<rscale>  1 0.30000000E+03</rscale>
<asrwt>0</asrwt>
<pdfrwt beam="1">  1       21 0.40388754E-02 0.30000000E+03</pdfrwt>
<pdfrwt beam="2">0</pdfrwt>
<totfact> 0.41367845E+04</totfact>
</mgrwt>
</event>
<event>
 6    1  0.1270461E-001  0.3000000E+03  0.7818608E-02  0.1093470E+00
         21   -1    0    0  501  502  0.00000000000E+00  0.00000000000E+00  0.11051615546E+01  0.11051615546E+01  0.00000000000E+00 0. -1.
         13   -1    0    0    0    0 -0.00000000000E+00 -0.00000000000E+00 -0.10000000000E+04  0.10000000000E+04  0.00000000000E+00 0.  1.
    9000005    2    1    2  501    0 -0.20460752412E+02  0.26082900785E+02 -0.49498434154E+03  0.49610541008E+03  0.34812977092E+01 0.  0.
         13    1    3    3    0    0 -0.17511999439E+02  0.21466434926E+02 -0.39415160318E+03  0.39512398591E+03  0.00000000000E+00 0.  1.
          1    1    3    3  501    0 -0.29487529733E+01  0.46164658596E+01 -0.10083273836E+03  0.10098142417E+03  0.00000000000E+00 0.  1.
         -3    1    1    2    0  502  0.20460752412E+02 -0.26082900785E+02 -0.50391049690E+03  0.50499975148E+03  0.00000000000E+00 0. -1.
<mgrwt>
<rscale>  1 0.30000000E+03</rscale>
<asrwt>0</asrwt>
<pdfrwt beam="1">  1       21 0.40187778E-02 0.30000000E+03</pdfrwt>
<pdfrwt beam="2">0</pdfrwt>
<totfact> 0.41716958E+04</totfact>
</mgrwt>
</event>
<event>
 6    1  0.1270461E-001  0.3000000E+03  0.7818608E-02  0.1093470E+00
         21   -1    0    0  501  502  0.00000000000E+00  0.00000000000E+00  0.10494000111E+01  0.10494000111E+01  0.00000000000E+00 0. -1.
         13   -1    0    0    0    0 -0.00000000000E+00 -0.00000000000E+00 -0.10000000000E+04  0.10000000000E+04  0.00000000000E+00 0.  1.
    9000005    2    1    2  501    0  0.26640409447E+02  0.13846456555E+02 -0.31662267746E+03  0.31806123786E+03  0.34051979485E+01 0.  0.
         13    1    3    3    0    0  0.26008201441E+02  0.13012542072E+02 -0.30929426605E+03  0.31065848741E+03  0.00000000000E+00 0.  1.
          1    1    3    3  501    0  0.63220800621E+00  0.83391448339E+00 -0.73284114145E+01  0.74027504476E+01  0.00000000000E+00 0.  1.
         -3    1    1    2    0  502 -0.26640409447E+02 -0.13846456555E+02 -0.68232792253E+03  0.68298816215E+03  0.00000000000E+00 0. -1.
<mgrwt>
<rscale>  1 0.30000000E+03</rscale>
<asrwt>0</asrwt>
<pdfrwt beam="1">  1       21 0.38160081E-02 0.30000000E+03</pdfrwt>
<pdfrwt beam="2">0</pdfrwt>
<totfact> 0.45513455E+04</totfact>
</mgrwt>
</event>
<event>
 6    1  0.1270461E-001  0.3000000E+03  0.7818608E-02  0.1093470E+00
         21   -1    0    0  501  502  0.00000000000E+00  0.00000000000E+00  0.42179619936E+01  0.42179619936E+01  0.00000000000E+00 0. -1.
         13   -1    0    0    0    0 -0.00000000000E+00 -0.00000000000E+00 -0.10000000000E+04  0.10000000000E+04  0.00000000000E+00 0.  1.
    9000005    2    1    2  501    0  0.12246335198E+02 -0.57099612235E+02 -0.71392387406E+03  0.71637362380E+03  0.96712196458E+01 0.  0.
         13    1    3    3    0    0  0.30918573512E+01 -0.36739444901E+02 -0.44629167836E+03  0.44781202370E+03  0.00000000000E+00 0.  1.
          3    1    3    3  501    0  0.91544778466E+01 -0.20360167334E+02 -0.26763219569E+03  0.26856160010E+03  0.00000000000E+00 0.  1.
         -1    1    1    2    0  502 -0.12246335198E+02  0.57099612235E+02 -0.28185816395E+03  0.28784433819E+03  0.00000000000E+00 0. -1.
<mgrwt>
<rscale>  1 0.30000000E+03</rscale>
<asrwt>0</asrwt>
<pdfrwt beam="1">  1       21 0.15338076E-01 0.30000000E+03</pdfrwt>
<pdfrwt beam="2">0</pdfrwt>
<totfact> 0.39513881E+03</totfact>
</mgrwt>
</event>
<event>
 6    1  0.1270461E-001  0.3000000E+03  0.7818608E-02  0.1093470E+00
         21   -1    0    0  501  502  0.00000000000E+00  0.00000000000E+00  0.16667316444E+01  0.16667316444E+01  0.00000000000E+00 0. -1.
         13   -1    0    0    0    0 -0.00000000000E+00 -0.00000000000E+00 -0.10000000000E+04  0.10000000000E+04  0.00000000000E+00 0.  1.
    9000005    2    1    2  501    0  0.37934872355E+01 -0.31195593023E+02 -0.81849339567E+03  0.81910185174E+03  0.29747583892E+01 0.  0.
         13    1    3    3    0    0  0.32312014545E+01 -0.25698039811E+02 -0.64287739829E+03  0.64339892690E+03  0.00000000000E+00 0.  1.
          1    1    3    3  501    0  0.56228578101E+00 -0.54975532123E+01 -0.17561599739E+03  0.17570292483E+03  0.00000000000E+00 0.  1.
         -1    1    1    2    0  502 -0.37934872355E+01  0.31195593023E+02 -0.17983987268E+03  0.18256487991E+03  0.00000000000E+00 0. -1.
<mgrwt>
<rscale>  1 0.30000000E+03</rscale>
<asrwt>0</asrwt>
<pdfrwt beam="1">  1       21 0.60608551E-02 0.30000000E+03</pdfrwt>
<pdfrwt beam="2">0</pdfrwt>
<totfact> 0.20708032E+04</totfact>
</mgrwt>
</event>
<event>
 6    1  0.1270461E-001  0.3000000E+03  0.7818608E-02  0.1093470E+00
         21   -1    0    0  501  502  0.00000000000E+00  0.00000000000E+00  0.10996686931E+01  0.10996686931E+01  0.00000000000E+00 0. -1.
         13   -1    0    0    0    0 -0.00000000000E+00 -0.00000000000E+00 -0.10000000000E+04  0.10000000000E+04  0.00000000000E+00 0.  1.
    9000005    2    1    2  501    0 -0.31611701000E+02  0.92433528033E+01 -0.54656022693E+03  0.54756211872E+03  0.33842252170E+01 0.  0.
         13    1    3    3    0    0 -0.14682426508E+02  0.47564103683E+01 -0.22925018391E+03  0.22976911000E+03  0.00000000000E+00 0.  1.
          3    1    3    3  501    0 -0.16929274492E+02  0.44869424350E+01 -0.31731004303E+03  0.31779300872E+03  0.00000000000E+00 0.  1.
         -1    1    1    2    0  502  0.31611701000E+02 -0.92433528033E+01 -0.45234010437E+03  0.45353754997E+03  0.00000000000E+00 0. -1.
<mgrwt>
<rscale>  1 0.30000000E+03</rscale>
<asrwt>0</asrwt>
<pdfrwt beam="1">  1       21 0.39988037E-02 0.30000000E+03</pdfrwt>
<pdfrwt beam="2">0</pdfrwt>
<totfact> 0.42068509E+04</totfact>
</mgrwt>
</event>
<event>
 6    1  0.1270461E-001  0.3000000E+03  0.7818608E-02  0.1093470E+00
         21   -1    0    0  501  502  0.00000000000E+00  0.00000000000E+00  0.12895228636E+01  0.12895228636E+01  0.00000000000E+00 0. -1.
         13   -1    0    0    0    0 -0.00000000000E+00 -0.00000000000E+00 -0.10000000000E+04  0.10000000000E+04  0.00000000000E+00 0.  1.
    9000005    2    1    2  501    0 -0.29966362703E+02 -0.17674879515E+02 -0.61980131134E+03  0.62078651344E+03  0.34417240807E+01 0.  0.
         13    1    3    3    0    0 -0.28882926363E+01 -0.60697806377E+00 -0.51274532258E+02  0.51359403375E+02  0.00000000000E+00 0.  1.
          1    1    3    3  501    0 -0.27078070067E+02 -0.17067901452E+02 -0.56852677909E+03  0.56942711006E+03  0.00000000000E+00 0.  1.
         -1    1    1    2    0  502  0.29966362703E+02  0.17674879515E+02 -0.37890916579E+03  0.38050300942E+03  0.00000000000E+00 0. -1.
<mgrwt>
<rscale>  1 0.30000000E+03</rscale>
<asrwt>0</asrwt>
<pdfrwt beam="1">  1       21 0.46891839E-02 0.30000000E+03</pdfrwt>
<pdfrwt beam="2">0</pdfrwt>
<totfact> 0.32129942E+04</totfact>
</mgrwt>
</event>
<event>
 6    1  0.1270461E-001  0.3000000E+03  0.7818608E-02  0.1093470E+00
         21   -1    0    0  501  502  0.00000000000E+00  0.00000000000E+00  0.97315484285E+00  0.97315484285E+00  0.00000000000E+00 0. -1.
         13   -1    0    0    0    0 -0.00000000000E+00 -0.00000000000E+00 -0.10000000000E+04  0.10000000000E+04  0.00000000000E+00 0.  1.
    9000005    2    1    2  501    0  0.20727595279E+02 -0.22705026657E+02 -0.48591647414E+03  0.48694260683E+03  0.72891060828E+01 0.  0.
         13    1    3    3    0    0  0.56094161392E+01 -0.95903152390E+01 -0.13531272244E+03  0.13576808369E+03  0.00000000000E+00 0.  1.
          3    1    3    3  501    0  0.15118179140E+02 -0.13114711418E+02 -0.35060375170E+03  0.35117452313E+03  0.00000000000E+00 0.  1.
         -3    1    1    2    0  502 -0.20727595279E+02  0.22705026657E+02 -0.51311037102E+03  0.51403054801E+03  0.00000000000E+00 0. -1.
<mgrwt>
<rscale>  1 0.30000000E+03</rscale>
<asrwt>0</asrwt>
<pdfrwt beam="1">  1       21 0.35387523E-02 0.30000000E+03</pdfrwt>
<pdfrwt beam="2">0</pdfrwt>
<totfact> 0.51655161E+04</totfact>
</mgrwt>
</event>
<event>
 6    1  0.1270461E-001  0.3000000E+03  0.7818608E-02  0.1093470E+00
         21   -1    0    0  501  502  0.00000000000E+00  0.00000000000E+00  0.17775626907E+01  0.17775626907E+01  0.00000000000E+00 0. -1.
         13   -1    0    0    0    0 -0.00000000000E+00 -0.00000000000E+00 -0.10000000000E+04  0.10000000000E+04  0.00000000000E+00 0.  1.
    9000005    2    1    2  501    0 -0.20166675857E+02  0.30850876394E+02 -0.74143781250E+03  0.74236126612E+03  0.34275701233E+01 0.  0.
         13    1    3    3    0    0 -0.11332224724E+02  0.14636843227E+02 -0.35374534503E+03  0.35422934043E+03  0.00000000000E+00 0.  1.
          3    1    3    3  501    0 -0.88344511336E+01  0.16214033167E+02 -0.38769246747E+03  0.38813192568E+03  0.00000000000E+00 0.  1.
         -1    1    1    2    0  502  0.20166675857E+02 -0.30850876394E+02 -0.25678462481E+03  0.25941629658E+03  0.00000000000E+00 0. -1.
<mgrwt>
<rscale>  1 0.30000000E+03</rscale>
<asrwt>0</asrwt>
<pdfrwt beam="1">  1       21 0.64638780E-02 0.30000000E+03</pdfrwt>
<pdfrwt beam="2">0</pdfrwt>
<totfact> 0.18527925E+04</totfact>
</mgrwt>
</event>
<event>
 6    1  0.1270461E-001  0.3000000E+03  0.7818608E-02  0.1093470E+00
         21   -1    0    0  501  502  0.00000000000E+00  0.00000000000E+00  0.13894261595E+01  0.13894261595E+01  0.00000000000E+00 0. -1.
         13   -1    0    0    0    0 -0.00000000000E+00 -0.00000000000E+00 -0.10000000000E+04  0.10000000000E+04  0.00000000000E+00 0.  1.
    9000005    2    1    2  501    0  0.75418967027E+01 -0.29178573384E+02 -0.79311901556E+03  0.79369963374E+03  0.36147483833E+01 0.  0.
         13    1    3    3    0    0  0.25279972998E+01 -0.15408131541E+02 -0.43864069210E+03  0.43891850959E+03  0.00000000000E+00 0.  1.
          1    1    3    3  501    0  0.50138994029E+01 -0.13770441843E+02 -0.35447832345E+03  0.35478112415E+03  0.00000000000E+00 0.  1.
         -3    1    1    2    0  502 -0.75418967027E+01  0.29178573384E+02 -0.20549155828E+03  0.20768979242E+03  0.00000000000E+00 0. -1.
<mgrwt>
<rscale>  1 0.30000000E+03</rscale>
<asrwt>0</asrwt>
<pdfrwt beam="1">  1       21 0.50524694E-02 0.30000000E+03</pdfrwt>
<pdfrwt beam="2">0</pdfrwt>
<totfact> 0.28296451E+04</totfact>
</mgrwt>
</event>
<event>
 6    1  0.1270461E-001  0.3000000E+03  0.7818608E-02  0.1093470E+00
         21   -1    0    0  501  502  0.00000000000E+00  0.00000000000E+00  0.58901286077E+01  0.58901286077E+01  0.00000000000E+00 0. -1.
         13   -1    0    0    0    0 -0.00000000000E+00 -0.00000000000E+00 -0.10000000000E+04  0.10000000000E+04  0.00000000000E+00 0.  1.
    9000005    2    1    2  501    0  0.46964712716E+02  0.19548768712E+02 -0.87357501567E+03  0.87506012424E+03  0.30123803351E+01 0.  0.
         13    1    3    3    0    0  0.37846673741E+02  0.16242512921E+02 -0.72505279604E+03  0.72622155503E+03  0.00000000000E+00 0.  1.
          1    1    3    3  501    0  0.91180389747E+01  0.33062557913E+01 -0.14852221963E+03  0.14883856921E+03  0.00000000000E+00 0.  1.
         -1    1    1    2    0  502 -0.46964712716E+02 -0.19548768712E+02 -0.12053485573E+03  0.13083000437E+03  0.00000000000E+00 0. -1.
<mgrwt>
<rscale>  1 0.30000000E+03</rscale>
<asrwt>0</asrwt>
<pdfrwt beam="1">  1       21 0.21418695E-01 0.30000000E+03</pdfrwt>
<pdfrwt beam="2">0</pdfrwt>
<totfact> 0.21041956E+03</totfact>
</mgrwt>
</event>
<event>
 6    1  0.1270461E-001  0.3000000E+03  0.7818608E-02  0.1093470E+00
         21   -1    0    0  501  502  0.00000000000E+00  0.00000000000E+00  0.35386423380E+01  0.35386423380E+01  0.00000000000E+00 0. -1.
         13   -1    0    0    0    0 -0.00000000000E+00 -0.00000000000E+00 -0.10000000000E+04  0.10000000000E+04  0.00000000000E+00 0.  1.
    9000005    2    1    2  501    0 -0.21142771966E+02 -0.26563687539E+02 -0.91016397453E+03  0.91080307937E+03  0.33380488543E+01 0.  0.
         13    1    3    3    0    0 -0.89454496818E+01 -0.11595331030E+02 -0.43690292791E+03  0.43714830571E+03  0.00000000000E+00 0.  1.
          1    1    3    3  501    0 -0.12197322284E+02 -0.14968356509E+02 -0.47326104662E+03  0.47365477366E+03  0.00000000000E+00 0.  1.
         -1    1    1    2    0  502  0.21142771966E+02  0.26563687539E+02 -0.86297383136E+02  0.92735562964E+02  0.00000000000E+00 0. -1.
<mgrwt>
<rscale>  1 0.30000000E+03</rscale>
<asrwt>0</asrwt>
<pdfrwt beam="1">  1       21 0.12867817E-01 0.30000000E+03</pdfrwt>
<pdfrwt beam="2">0</pdfrwt>
<totfact> 0.54573953E+03</totfact>
</mgrwt>
</event>
<event>
 6    1  0.1270461E-001  0.3000000E+03  0.7818608E-02  0.1093470E+00
         21   -1    0    0  501  502  0.00000000000E+00  0.00000000000E+00  0.24456118636E+01  0.24456118636E+01  0.00000000000E+00 0. -1.
         13   -1    0    0    0    0 -0.00000000000E+00 -0.00000000000E+00 -0.10000000000E+04  0.10000000000E+04  0.00000000000E+00 0.  1.
    9000005    2    1    2  501    0  0.15974871129E+02  0.29501936300E+02 -0.86674616871E+03  0.86740357759E+03  0.38058740893E+01 0.  0.
         13    1    3    3    0    0  0.87982898274E+01  0.17019360196E+02 -0.44663032229E+03  0.44704106447E+03  0.00000000000E+00 0.  1.
          1    1    3    3  501    0  0.71765813019E+01  0.12482576104E+02 -0.42011584642E+03  0.42036251312E+03  0.00000000000E+00 0.  1.
         -3    1    1    2    0  502 -0.15974871129E+02 -0.29501936300E+02 -0.13080821942E+03  0.13504203428E+03  0.00000000000E+00 0. -1.
<mgrwt>
<rscale>  1 0.30000000E+03</rscale>
<asrwt>0</asrwt>
<pdfrwt beam="1">  1       21 0.88931528E-02 0.30000000E+03</pdfrwt>
<pdfrwt beam="2">0</pdfrwt>
<totfact> 0.10599897E+04</totfact>
</mgrwt>
</event>
<event>
 6    1  0.1270461E-001  0.3000000E+03  0.7818608E-02  0.1093470E+00
         21   -1    0    0  501  502  0.00000000000E+00  0.00000000000E+00  0.11467934630E+01  0.11467934630E+01  0.00000000000E+00 0. -1.
         13   -1    0    0    0    0 -0.00000000000E+00 -0.00000000000E+00 -0.10000000000E+04  0.10000000000E+04  0.00000000000E+00 0.  1.
    9000005    2    1    2  501    0 -0.30245741742E+02  0.12925041582E+02 -0.61168472723E+03  0.61258368024E+03  0.43241379441E+01 0.  0.
         13    1    3    3    0    0 -0.26687080995E+02  0.12679780128E+02 -0.55648758759E+03  0.55727139911E+03  0.00000000000E+00 0.  1.
          1    1    3    3  501    0 -0.35586607473E+01  0.24526145449E+00 -0.55197139639E+02  0.55312281130E+02  0.00000000000E+00 0.  1.
         -3    1    1    2    0  502  0.30245741742E+02 -0.12925041582E+02 -0.38716847930E+03  0.38856311323E+03  0.00000000000E+00 0. -1.
<mgrwt>
<rscale>  1 0.30000000E+03</rscale>
<asrwt>0</asrwt>
<pdfrwt beam="1">  1       21 0.41701668E-02 0.30000000E+03</pdfrwt>
<pdfrwt beam="2">0</pdfrwt>
<totfact> 0.39195339E+04</totfact>
</mgrwt>
</event>
<event>
 6    1  0.1270461E-001  0.3000000E+03  0.7818608E-02  0.1093470E+00
         21   -1    0    0  501  502  0.00000000000E+00  0.00000000000E+00  0.18487107377E+01  0.18487107377E+01  0.00000000000E+00 0. -1.
         13   -1    0    0    0    0 -0.00000000000E+00 -0.00000000000E+00 -0.10000000000E+04  0.10000000000E+04  0.00000000000E+00 0.  1.
    9000005    2    1    2  501    0  0.35224332477E+02  0.18696062062E+02 -0.68524653293E+03  0.68641300751E+03  0.31160314276E+01 0.  0.
         13    1    3    3    0    0  0.22125360380E+02  0.13296521588E+02 -0.43233487512E+03  0.43310480637E+03  0.00000000000E+00 0.  1.
          1    1    3    3  501    0  0.13098972097E+02  0.53995404738E+01 -0.25291165781E+03  0.25330820113E+03  0.00000000000E+00 0.  1.
         -3    1    1    2    0  502 -0.35224332477E+02 -0.18696062062E+02 -0.31290475634E+03  0.31543570323E+03  0.00000000000E+00 0. -1.
<mgrwt>
<rscale>  1 0.30000000E+03</rscale>
<asrwt>0</asrwt>
<pdfrwt beam="1">  1       21 0.67225987E-02 0.30000000E+03</pdfrwt>
<pdfrwt beam="2">0</pdfrwt>
<totfact> 0.17309763E+04</totfact>
</mgrwt>
</event>
<event>
 6    1  0.1270461E-001  0.3000000E+03  0.7818608E-02  0.1093470E+00
         21   -1    0    0  501  502  0.00000000000E+00  0.00000000000E+00  0.10319299975E+01  0.10319299975E+01  0.00000000000E+00 0. -1.
         13   -1    0    0    0    0 -0.00000000000E+00 -0.00000000000E+00 -0.10000000000E+04  0.10000000000E+04  0.00000000000E+00 0.  1.
    9000005    2    1    2  501    0  0.28613364875E+02  0.10052312210E+02 -0.66162000385E+03  0.66232336594E+03  0.33820028068E+01 0.  0.
         13    1    3    3    0    0  0.25822132428E+02  0.82954935256E+01 -0.57188265965E+03  0.57252543537E+03  0.00000000000E+00 0.  1.
          1    1    3    3  501    0  0.27912324472E+01  0.17568186845E+01 -0.89737344201E+02  0.89797930570E+02  0.00000000000E+00 0.  1.
         -1    1    1    2    0  502 -0.28613364875E+02 -0.10052312210E+02 -0.33734806615E+03  0.33870856406E+03  0.00000000000E+00 0. -1.
<mgrwt>
<rscale>  1 0.30000000E+03</rscale>
<asrwt>0</asrwt>
<pdfrwt beam="1">  1       21 0.37524806E-02 0.30000000E+03</pdfrwt>
<pdfrwt beam="2">0</pdfrwt>
<totfact> 0.46815257E+04</totfact>
</mgrwt>
</event>
<event>
 6    1  0.1270461E-001  0.3000000E+03  0.7818608E-02  0.1093470E+00
         21   -1    0    0  501  502  0.00000000000E+00  0.00000000000E+00  0.23569354207E+01  0.23569354207E+01  0.00000000000E+00 0. -1.
         13   -1    0    0    0    0 -0.00000000000E+00 -0.00000000000E+00 -0.10000000000E+04  0.10000000000E+04  0.00000000000E+00 0.  1.
    9000005    2    1    2  501    0  0.42300857975E+02 -0.99983593717E+01 -0.72161757250E+03  0.72293001823E+03  0.25613541620E+01 0.  0.
         13    1    3    3    0    0  0.28690900512E+02 -0.62848152530E+01 -0.50533235922E+03  0.50618520321E+03  0.00000000000E+00 0.  1.
          3    1    3    3  501    0  0.13609957463E+02 -0.37135441187E+01 -0.21628521328E+03  0.21674481502E+03  0.00000000000E+00 0.  1.
         -3    1    1    2    0  502 -0.42300857975E+02  0.99983593717E+01 -0.27602549208E+03  0.27942691719E+03  0.00000000000E+00 0. -1.
<mgrwt>
<rscale>  1 0.30000000E+03</rscale>
<asrwt>0</asrwt>
<pdfrwt beam="1">  1       21 0.85706923E-02 0.30000000E+03</pdfrwt>
<pdfrwt beam="2">0</pdfrwt>
<totfact> 0.11314747E+04</totfact>
</mgrwt>
</event>
<event>
 6    1  0.1270461E-001  0.3000000E+03  0.7818608E-02  0.1093470E+00
         21   -1    0    0  501  502  0.00000000000E+00  0.00000000000E+00  0.19148200653E+01  0.19148200653E+01  0.00000000000E+00 0. -1.
         13   -1    0    0    0    0 -0.00000000000E+00 -0.00000000000E+00 -0.10000000000E+04  0.10000000000E+04  0.00000000000E+00 0.  1.
    9000005    2    1    2  501    0  0.40467412431E+02 -0.80564268906E+01 -0.66457128756E+03  0.66585822678E+03  0.31087681086E+01 0.  0.
         13    1    3    3    0    0  0.37302839919E+02 -0.66660625835E+01 -0.60182719513E+03  0.60301899726E+03  0.00000000000E+00 0.  1.
          1    1    3    3  501    0  0.31645725120E+01 -0.13903643071E+01 -0.62744092423E+02  0.62839229515E+02  0.00000000000E+00 0.  1.
         -1    1    1    2    0  502 -0.40467412431E+02  0.80564268906E+01 -0.33351389238E+03  0.33605659329E+03  0.00000000000E+00 0. -1.
<mgrwt>
<rscale>  1 0.30000000E+03</rscale>
<asrwt>0</asrwt>
<pdfrwt beam="1">  1       21 0.69629967E-02 0.30000000E+03</pdfrwt>
<pdfrwt beam="2">0</pdfrwt>
<totfact> 0.16284777E+04</totfact>
</mgrwt>
</event>
<event>
 6    1  0.1270461E-001  0.3000000E+03  0.7818608E-02  0.1093470E+00
         21   -1    0    0  501  502  0.00000000000E+00  0.00000000000E+00  0.28814756690E+01  0.28814756690E+01  0.00000000000E+00 0. -1.
         13   -1    0    0    0    0 -0.00000000000E+00 -0.00000000000E+00 -0.10000000000E+04  0.10000000000E+04  0.00000000000E+00 0.  1.
    9000005    2    1    2  501    0  0.47523511895E+02 -0.22397946925E+02 -0.59009350089E+03  0.59247981642E+03  0.78638959959E+01 0.  0.
         13    1    3    3    0    0  0.19911461737E+02 -0.11583982008E+02 -0.22116311409E+03  0.22235956912E+03  0.00000000000E+00 0.  1.
          1    1    3    3  501    0  0.27612050158E+02 -0.10813964917E+02 -0.36893038680E+03  0.37012024729E+03  0.00000000000E+00 0.  1.
         -3    1    1    2    0  502 -0.47523511895E+02  0.22397946925E+02 -0.40702502344E+03  0.41040165925E+03  0.00000000000E+00 0. -1.
<mgrwt>
<rscale>  1 0.30000000E+03</rscale>
<asrwt>0</asrwt>
<pdfrwt beam="1">  1       21 0.10478115E-01 0.30000000E+03</pdfrwt>
<pdfrwt beam="2">0</pdfrwt>
<totfact> 0.79134077E+03</totfact>
</mgrwt>
</event>
<event>
 6    1  0.1270461E-001  0.3000000E+03  0.7818608E-02  0.1093470E+00
         21   -1    0    0  501  502  0.00000000000E+00  0.00000000000E+00  0.13395830007E+01  0.13395830007E+01  0.00000000000E+00 0. -1.
         13   -1    0    0    0    0 -0.00000000000E+00 -0.00000000000E+00 -0.10000000000E+04  0.10000000000E+04  0.00000000000E+00 0.  1.
    9000005    2    1    2  501    0  0.26864088765E+02  0.15762389800E+02 -0.76140679169E+03  0.76205018725E+03  0.31706869148E+01 0.  0.
         13    1    3    3    0    0  0.14253756881E+02  0.95542672794E+01 -0.38919465039E+03  0.38957275251E+03  0.00000000000E+00 0.  1.
          1    1    3    3  501    0  0.12610331884E+02  0.62081225210E+01 -0.37221214130E+03  0.37247743473E+03  0.00000000000E+00 0.  1.
         -3    1    1    2    0  502 -0.26864088765E+02 -0.15762389800E+02 -0.23725362531E+03  0.23928939576E+03  0.00000000000E+00 0. -1.
<mgrwt>
<rscale>  1 0.30000000E+03</rscale>
<asrwt>0</asrwt>
<pdfrwt beam="1">  1       21 0.48712212E-02 0.30000000E+03</pdfrwt>
<pdfrwt beam="2">0</pdfrwt>
<totfact> 0.30114035E+04</totfact>
</mgrwt>
</event>
<event>
 6    1  0.1270461E-001  0.3000000E+03  0.7818608E-02  0.1093470E+00
         21   -1    0    0  501  502  0.00000000000E+00  0.00000000000E+00  0.40757236483E+01  0.40757236483E+01  0.00000000000E+00 0. -1.
         13   -1    0    0    0    0 -0.00000000000E+00 -0.00000000000E+00 -0.10000000000E+04  0.10000000000E+04  0.00000000000E+00 0.  1.
    9000005    2    1    2  501    0 -0.10873621083E+02 -0.40109171510E+02 -0.87873203244E+03  0.87973344079E+03  0.58275830005E+01 0.  0.
         13    1    3    3    0    0 -0.80412036759E+01 -0.35020837947E+02 -0.72258753194E+03  0.72348038078E+03  0.00000000000E+00 0.  1.
          3    1    3    3  501    0 -0.28324174067E+01 -0.50883335637E+01 -0.15614450050E+03  0.15625306001E+03  0.00000000000E+00 0.  1.
         -1    1    1    2    0  502  0.10873621083E+02  0.40109171510E+02 -0.11719224391E+03  0.12434228286E+03  0.00000000000E+00 0. -1.
<mgrwt>
<rscale>  1 0.30000000E+03</rscale>
<asrwt>0</asrwt>
<pdfrwt beam="1">  1       21 0.14820845E-01 0.30000000E+03</pdfrwt>
<pdfrwt beam="2">0</pdfrwt>
<totfact> 0.42105788E+03</totfact>
</mgrwt>
</event>
<event>
 6    1  0.1270461E-001  0.3000000E+03  0.7818608E-02  0.1093470E+00
         21   -1    0    0  501  502  0.00000000000E+00  0.00000000000E+00  0.20175303252E+01  0.20175303252E+01  0.00000000000E+00 0. -1.
         13   -1    0    0    0    0 -0.00000000000E+00 -0.00000000000E+00 -0.10000000000E+04  0.10000000000E+04  0.00000000000E+00 0.  1.
    9000005    2    1    2  501    0  0.31307081070E+02 -0.32076898086E+02 -0.51789420598E+03  0.51984141970E+03  0.34106211567E+01 0.  0.
         13    1    3    3    0    0  0.31359417690E+02 -0.31894925947E+02 -0.51668504603E+03  0.51861752397E+03  0.00000000000E+00 0.  1.
          1    1    3    3  501    0 -0.52336619583E-01 -0.18197213854E+00 -0.12091599497E+01  0.12238957329E+01  0.00000000000E+00 0.  1.
         -1    1    1    2    0  502 -0.31307081070E+02  0.32076898086E+02 -0.48008826370E+03  0.48217611062E+03  0.00000000000E+00 0. -1.
<mgrwt>
<rscale>  1 0.30000000E+03</rscale>
<asrwt>0</asrwt>
<pdfrwt beam="1">  1       21 0.73364894E-02 0.30000000E+03</pdfrwt>
<pdfrwt beam="2">0</pdfrwt>
<totfact> 0.14866851E+04</totfact>
</mgrwt>
</event>
<event>
 6    1  0.1270461E-001  0.3000000E+03  0.7818608E-02  0.1093470E+00
         21   -1    0    0  501  502  0.00000000000E+00  0.00000000000E+00  0.94345548085E+00  0.94345548085E+00  0.00000000000E+00 0. -1.
         13   -1    0    0    0    0 -0.00000000000E+00 -0.00000000000E+00 -0.10000000000E+04  0.10000000000E+04  0.00000000000E+00 0.  1.
    9000005    2    1    2  501    0 -0.75033231510E+01 -0.29667894509E+02 -0.48096924858E+03  0.48195315689E+03  0.33081005128E+01 0.  0.
         13    1    3    3    0    0 -0.38698760370E+01 -0.21348506096E+02 -0.33483562718E+03  0.33553782482E+03  0.00000000000E+00 0.  1.
          3    1    3    3  501    0 -0.36334471140E+01 -0.83193884135E+01 -0.14613362140E+03  0.14641533207E+03  0.00000000000E+00 0.  1.
         -1    1    1    2    0  502  0.75033231510E+01  0.29667894509E+02 -0.51808729594E+03  0.51899029859E+03  0.00000000000E+00 0. -1.
<mgrwt>
<rscale>  1 0.30000000E+03</rscale>
<asrwt>0</asrwt>
<pdfrwt beam="1">  1       21 0.34307544E-02 0.30000000E+03</pdfrwt>
<pdfrwt beam="2">0</pdfrwt>
<totfact> 0.54405884E+04</totfact>
</mgrwt>
</event>
<event>
 6    1  0.1270461E-001  0.3000000E+03  0.7818608E-02  0.1093470E+00
         21   -1    0    0  501  502  0.00000000000E+00  0.00000000000E+00  0.16095138784E+01  0.16095138784E+01  0.00000000000E+00 0. -1.
         13   -1    0    0    0    0 -0.00000000000E+00 -0.00000000000E+00 -0.10000000000E+04  0.10000000000E+04  0.00000000000E+00 0.  1.
    9000005    2    1    2  501    0 -0.43846346898E+01 -0.32720047386E+02 -0.78192797842E+03  0.78264411990E+03  0.55342972681E+01 0.  0.
         13    1    3    3    0    0 -0.47399456823E+01 -0.21176090926E+02 -0.55176786383E+03  0.55219441275E+03  0.00000000000E+00 0.  1.
          1    1    3    3  501    0  0.35531099250E+00 -0.11543956460E+02 -0.23016011459E+03  0.23044970715E+03  0.00000000000E+00 0.  1.
         -1    1    1    2    0  502  0.43846346898E+01  0.32720047386E+02 -0.21646250770E+03  0.21896539398E+03  0.00000000000E+00 0. -1.
<mgrwt>
<rscale>  1 0.30000000E+03</rscale>
<asrwt>0</asrwt>
<pdfrwt beam="1">  1       21 0.58527901E-02 0.30000000E+03</pdfrwt>
<pdfrwt beam="2">0</pdfrwt>
<totfact> 0.21993587E+04</totfact>
</mgrwt>
</event>
<event>
 6    1  0.1270461E-001  0.3000000E+03  0.7818608E-02  0.1093470E+00
         21   -1    0    0  501  502  0.00000000000E+00  0.00000000000E+00  0.33380280992E+01  0.33380280992E+01  0.00000000000E+00 0. -1.
         13   -1    0    0    0    0 -0.00000000000E+00 -0.00000000000E+00 -0.10000000000E+04  0.10000000000E+04  0.00000000000E+00 0.  1.
    9000005    2    1    2  501    0  0.44634830113E+02 -0.12629502474E+02 -0.20087899173E+03  0.20620421002E+03  0.40043127447E+01 0.  0.
         13    1    3    3    0    0  0.45283256637E+01 -0.19277115523E+01 -0.26460341128E+02  0.26914149768E+02  0.00000000000E+00 0.  1.
          3    1    3    3  501    0  0.40106504450E+02 -0.10701790921E+02 -0.17441865060E+03  0.17929006025E+03  0.00000000000E+00 0.  1.
         -1    1    1    2    0  502 -0.44634830113E+02  0.12629502474E+02 -0.79578298017E+03  0.79713381808E+03  0.00000000000E+00 0. -1.
<mgrwt>
<rscale>  1 0.30000000E+03</rscale>
<asrwt>0</asrwt>
<pdfrwt beam="1">  1       21 0.12138310E-01 0.30000000E+03</pdfrwt>
<pdfrwt beam="2">0</pdfrwt>
<totfact> 0.60694730E+03</totfact>
</mgrwt>
</event>
<event>
 6    1  0.1270461E-001  0.3000000E+03  0.7818608E-02  0.1093470E+00
         21   -1    0    0  501  502  0.00000000000E+00  0.00000000000E+00  0.37324722516E+01  0.37324722516E+01  0.00000000000E+00 0. -1.
         13   -1    0    0    0    0 -0.00000000000E+00 -0.00000000000E+00 -0.10000000000E+04  0.10000000000E+04  0.00000000000E+00 0.  1.
    9000005    2    1    2  501    0  0.22816676878E+01  0.37586453127E+02 -0.89315407524E+03  0.89395847007E+03  0.44268083237E+01 0.  0.
         13    1    3    3    0    0 -0.51652909913E+00  0.40522459681E+01 -0.12715850381E+03  0.12722410381E+03  0.00000000000E+00 0.  1.
          1    1    3    3  501    0  0.27981967870E+01  0.33534207158E+02 -0.76599557143E+03  0.76673436626E+03  0.00000000000E+00 0.  1.
         -1    1    1    2    0  502 -0.22816676878E+01 -0.37586453127E+02 -0.10311345251E+03  0.10977400218E+03  0.00000000000E+00 0. -1.
<mgrwt>
<rscale>  1 0.30000000E+03</rscale>
<asrwt>0</asrwt>
<pdfrwt beam="1">  1       21 0.13572655E-01 0.30000000E+03</pdfrwt>
<pdfrwt beam="2">0</pdfrwt>
<totfact> 0.49503871E+03</totfact>
</mgrwt>
</event>
<event>
 6    1  0.1270461E-001  0.3000000E+03  0.7818608E-02  0.1093470E+00
         21   -1    0    0  501  502  0.00000000000E+00  0.00000000000E+00  0.14997792715E+01  0.14997792715E+01  0.00000000000E+00 0. -1.
         13   -1    0    0    0    0 -0.00000000000E+00 -0.00000000000E+00 -0.10000000000E+04  0.10000000000E+04  0.00000000000E+00 0.  1.
    9000005    2    1    2  501    0  0.40937151351E+01 -0.33348276095E+02 -0.74738952412E+03  0.74815130785E+03  0.32268632115E+01 0.  0.
         13    1    3    3    0    0  0.11933713889E+01 -0.22092115706E+02 -0.49608846027E+03  0.49658156040E+03  0.00000000000E+00 0.  1.
          3    1    3    3  501    0  0.29003437462E+01 -0.11256160389E+02 -0.25130106384E+03  0.25156974745E+03  0.00000000000E+00 0.  1.
         -3    1    1    2    0  502 -0.40937151351E+01  0.33348276095E+02 -0.25111069661E+03  0.25334847143E+03  0.00000000000E+00 0. -1.
<mgrwt>
<rscale>  1 0.30000000E+03</rscale>
<asrwt>0</asrwt>
<pdfrwt beam="1">  1       21 0.54537543E-02 0.30000000E+03</pdfrwt>
<pdfrwt beam="2">0</pdfrwt>
<totfact> 0.24830964E+04</totfact>
</mgrwt>
</event>
<event>
 6    1  0.1270461E-001  0.3000000E+03  0.7818608E-02  0.1093470E+00
         21   -1    0    0  501  502  0.00000000000E+00  0.00000000000E+00  0.13078314417E+01  0.13078314417E+01  0.00000000000E+00 0. -1.
         13   -1    0    0    0    0 -0.00000000000E+00 -0.00000000000E+00 -0.10000000000E+04  0.10000000000E+04  0.00000000000E+00 0.  1.
    9000005    2    1    2  501    0  0.29968419233E+02  0.80494465481E+01 -0.75540916663E+03  0.75605384316E+03  0.33919001202E+01 0.  0.
         13    1    3    3    0    0  0.29620358701E+01 -0.15637500245E+00 -0.80967273143E+02  0.81021586197E+02  0.00000000000E+00 0.  1.
          3    1    3    3  501    0  0.27006383363E+02  0.82058215506E+01 -0.67444189349E+03  0.67503225696E+03  0.00000000000E+00 0.  1.
         -1    1    1    2    0  502 -0.29968419233E+02 -0.80494465481E+01 -0.24328300193E+03  0.24525398828E+03  0.00000000000E+00 0. -1.
<mgrwt>
<rscale>  1 0.30000000E+03</rscale>
<asrwt>0</asrwt>
<pdfrwt beam="1">  1       21 0.47557607E-02 0.30000000E+03</pdfrwt>
<pdfrwt beam="2">0</pdfrwt>
<totfact> 0.31368813E+04</totfact>
</mgrwt>
</event>
<event>
 6    1  0.1270461E-001  0.3000000E+03  0.7818608E-02  0.1093470E+00
         21   -1    0    0  501  502  0.00000000000E+00  0.00000000000E+00  0.16787157383E+01  0.16787157383E+01  0.00000000000E+00 0. -1.
         13   -1    0    0    0    0 -0.00000000000E+00 -0.00000000000E+00 -0.10000000000E+04  0.10000000000E+04  0.00000000000E+00 0.  1.
    9000005    2    1    2  501    0 -0.18819952804E+02  0.30740183326E+02 -0.26334109866E+03  0.26581526189E+03  0.31732808608E+01 0.  0.
         13    1    3    3    0    0 -0.16767064029E+02  0.25691829931E+02 -0.22855890833E+03  0.23060871436E+03  0.00000000000E+00 0.  1.
          1    1    3    3  501    0 -0.20528887752E+01  0.50483533952E+01 -0.34782190337E+02  0.35206547530E+02  0.00000000000E+00 0.  1.
         -1    1    1    2    0  502  0.18819952804E+02 -0.30740183326E+02 -0.73498018560E+03  0.73586345385E+03  0.00000000000E+00 0. -1.
<mgrwt>
<rscale>  1 0.30000000E+03</rscale>
<asrwt>0</asrwt>
<pdfrwt beam="1">  1       21 0.61044337E-02 0.30000000E+03</pdfrwt>
<pdfrwt beam="2">0</pdfrwt>
<totfact> 0.20453593E+04</totfact>
</mgrwt>
</event>
<event>
 6    1  0.1270461E-001  0.3000000E+03  0.7818608E-02  0.1093470E+00
         21   -1    0    0  501  502  0.00000000000E+00  0.00000000000E+00  0.17868687391E+01  0.17868687391E+01  0.00000000000E+00 0. -1.
         13   -1    0    0    0    0 -0.00000000000E+00 -0.00000000000E+00 -0.10000000000E+04  0.10000000000E+04  0.00000000000E+00 0.  1.
    9000005    2    1    2  501    0 -0.69868930833E+01  0.41523503456E+02 -0.48622489481E+03  0.48807004765E+03  0.49704182734E+01 0.  0.
         13    1    3    3    0    0 -0.23678652451E+01  0.47134638699E+01 -0.55099312971E+02  0.55351222365E+02  0.00000000000E+00 0.  1.
          1    1    3    3  501    0 -0.46190278382E+01  0.36810039586E+02 -0.43112558184E+03  0.43271882528E+03  0.00000000000E+00 0.  1.
         -3    1    1    2    0  502  0.69868930833E+01 -0.41523503456E+02 -0.51198823645E+03  0.51371682109E+03  0.00000000000E+00 0. -1.
<mgrwt>
<rscale>  1 0.30000000E+03</rscale>
<asrwt>0</asrwt>
<pdfrwt beam="1">  1       21 0.64977182E-02 0.30000000E+03</pdfrwt>
<pdfrwt beam="2">0</pdfrwt>
<totfact> 0.18361203E+04</totfact>
</mgrwt>
</event>
<event>
 6    1  0.1270461E-001  0.3000000E+03  0.7818608E-02  0.1093470E+00
         21   -1    0    0  501  502  0.00000000000E+00  0.00000000000E+00  0.93462711494E+00  0.93462711494E+00  0.00000000000E+00 0. -1.
         13   -1    0    0    0    0 -0.00000000000E+00 -0.00000000000E+00 -0.10000000000E+04  0.10000000000E+04  0.00000000000E+00 0.  1.
    9000005    2    1    2  501    0 -0.29482499682E+01  0.29976022291E+02 -0.53170124104E+03  0.53260089373E+03  0.70885957098E+01 0.  0.
         13    1    3    3    0    0 -0.52343326771E+01  0.21989875615E+02 -0.39935556468E+03  0.39999477485E+03  0.00000000000E+00 0.  1.
          1    1    3    3  501    0  0.22860827089E+01  0.79861466754E+01 -0.13234567636E+03  0.13260611888E+03  0.00000000000E+00 0.  1.
         -3    1    1    2    0  502  0.29482499682E+01 -0.29976022291E+02 -0.46736413185E+03  0.46833373339E+03  0.00000000000E+00 0. -1.
<mgrwt>
<rscale>  1 0.30000000E+03</rscale>
<asrwt>0</asrwt>
<pdfrwt beam="1">  1       21 0.33986512E-02 0.30000000E+03</pdfrwt>
<pdfrwt beam="2">0</pdfrwt>
<totfact> 0.55267654E+04</totfact>
</mgrwt>
</event>
<event>
 6    1  0.1270461E-001  0.3000000E+03  0.7818608E-02  0.1093470E+00
         21   -1    0    0  501  502  0.00000000000E+00  0.00000000000E+00  0.21000437987E+01  0.21000437987E+01  0.00000000000E+00 0. -1.
         13   -1    0    0    0    0 -0.00000000000E+00 -0.00000000000E+00 -0.10000000000E+04  0.10000000000E+04  0.00000000000E+00 0.  1.
    9000005    2    1    2  501    0 -0.22284617507E+02 -0.25155661688E+02 -0.83927006020E+03  0.83994932564E+03  0.33502553602E+01 0.  0.
         13    1    3    3    0    0 -0.11777798889E+02 -0.13314966685E+02 -0.40210866401E+03  0.40250140690E+03  0.00000000000E+00 0.  1.
          1    1    3    3  501    0 -0.10506818618E+02 -0.11840695003E+02 -0.43716139619E+03  0.43744791874E+03  0.00000000000E+00 0.  1.
         -1    1    1    2    0  502  0.22284617507E+02  0.25155661688E+02 -0.15862989600E+03  0.16215071815E+03  0.00000000000E+00 0. -1.
<mgrwt>
<rscale>  1 0.30000000E+03</rscale>
<asrwt>0</asrwt>
<pdfrwt beam="1">  1       21 0.76365390E-02 0.30000000E+03</pdfrwt>
<pdfrwt beam="2">0</pdfrwt>
<totfact> 0.13859500E+04</totfact>
</mgrwt>
</event>
<event>
 6    1  0.1270461E-001  0.3000000E+03  0.7818608E-02  0.1093470E+00
         21   -1    0    0  501  502  0.00000000000E+00  0.00000000000E+00  0.14327091244E+01  0.14327091244E+01  0.00000000000E+00 0. -1.
         13   -1    0    0    0    0 -0.00000000000E+00 -0.00000000000E+00 -0.10000000000E+04  0.10000000000E+04  0.00000000000E+00 0.  1.
    9000005    2    1    2  501    0  0.22820194719E+02 -0.26161112529E+02 -0.69733287357E+03  0.69820451244E+03  0.33525412424E+01 0.  0.
         13    1    3    3    0    0  0.11675184852E+02 -0.15633922146E+02 -0.40570969003E+03  0.40617863317E+03  0.00000000000E+00 0.  1.
          1    1    3    3  501    0  0.11145009867E+02 -0.10527190383E+02 -0.29162318354E+03  0.29202587927E+03  0.00000000000E+00 0.  1.
         -1    1    1    2    0  502 -0.22820194719E+02  0.26161112529E+02 -0.30123441730E+03  0.30322819668E+03  0.00000000000E+00 0. -1.
<mgrwt>
<rscale>  1 0.30000000E+03</rscale>
<asrwt>0</asrwt>
<pdfrwt beam="1">  1       21 0.52098623E-02 0.30000000E+03</pdfrwt>
<pdfrwt beam="2">0</pdfrwt>
<totfact> 0.26852816E+04</totfact>
</mgrwt>
</event>
<event>
 6    1  0.1270461E-001  0.3000000E+03  0.7818608E-02  0.1093470E+00
         21   -1    0    0  501  502  0.00000000000E+00  0.00000000000E+00  0.12391303493E+01  0.12391303493E+01  0.00000000000E+00 0. -1.
         13   -1    0    0    0    0 -0.00000000000E+00 -0.00000000000E+00 -0.10000000000E+04  0.10000000000E+04  0.00000000000E+00 0.  1.
    9000005    2    1    2  501    0  0.50712441345E+01  0.29935022280E+02 -0.74550310187E+03  0.74616792457E+03  0.83590480707E+01 0.  0.
         13    1    3    3    0    0  0.63393222484E+01  0.13247335773E+02 -0.37324677324E+03  0.37353558418E+03  0.00000000000E+00 0.  1.
          1    1    3    3  501    0 -0.12680781139E+01  0.16687686508E+02 -0.37225632863E+03  0.37263234039E+03  0.00000000000E+00 0.  1.
         -1    1    1    2    0  502 -0.50712441345E+01 -0.29935022280E+02 -0.25325776778E+03  0.25507120578E+03  0.00000000000E+00 0. -1.
<mgrwt>
<rscale>  1 0.30000000E+03</rscale>
<asrwt>0</asrwt>
<pdfrwt beam="1">  1       21 0.45059380E-02 0.30000000E+03</pdfrwt>
<pdfrwt beam="2">0</pdfrwt>
<totfact> 0.34381164E+04</totfact>
</mgrwt>
</event>
<event>
 6    1  0.1270461E-001  0.3000000E+03  0.7818608E-02  0.1093470E+00
         21   -1    0    0  501  502  0.00000000000E+00  0.00000000000E+00  0.19386777307E+01  0.19386777307E+01  0.00000000000E+00 0. -1.
         13   -1    0    0    0    0 -0.00000000000E+00 -0.00000000000E+00 -0.10000000000E+04  0.10000000000E+04  0.00000000000E+00 0.  1.
    9000005    2    1    2  501    0 -0.30183064924E+02  0.75524904894E+01 -0.85320886431E+03  0.85378236805E+03  0.33027773884E+01 0.  0.
         13    1    3    3    0    0 -0.27957492519E+02  0.77683536039E+01 -0.78078642627E+03  0.78132542014E+03  0.00000000000E+00 0.  1.
          1    1    3    3  501    0 -0.22255724054E+01 -0.21586311447E+00 -0.72422438036E+02  0.72456947910E+02  0.00000000000E+00 0.  1.
         -1    1    1    2    0  502  0.30183064924E+02 -0.75524904894E+01 -0.14485245796E+03  0.14815630968E+03  0.00000000000E+00 0. -1.
<mgrwt>
<rscale>  1 0.30000000E+03</rscale>
<asrwt>0</asrwt>
<pdfrwt beam="1">  1       21 0.70497521E-02 0.30000000E+03</pdfrwt>
<pdfrwt beam="2">0</pdfrwt>
<totfact> 0.15937574E+04</totfact>
</mgrwt>
</event>
<event>
 6    1  0.1270461E-001  0.3000000E+03  0.7818608E-02  0.1093470E+00
         21   -1    0    0  501  502  0.00000000000E+00  0.00000000000E+00  0.36819979829E+01  0.36819979829E+01  0.00000000000E+00 0. -1.
         13   -1    0    0    0    0 -0.00000000000E+00 -0.00000000000E+00 -0.10000000000E+04  0.10000000000E+04  0.00000000000E+00 0.  1.
    9000005    2    1    2  501    0  0.10400076574E+02  0.34220476915E+02 -0.90345624172E+03  0.90417064608E+03  0.34891099092E+01 0.  0.
         13    1    3    3    0    0  0.31394251155E+01  0.57518729306E+01 -0.16929027280E+03  0.16941704902E+03  0.00000000000E+00 0.  1.
          1    1    3    3  501    0  0.72606514587E+01  0.28468603984E+02 -0.73416596892E+03  0.73475359706E+03  0.00000000000E+00 0.  1.
         -3    1    1    2    0  502 -0.10400076574E+02 -0.34220476915E+02 -0.92861760295E+02  0.99511351906E+02  0.00000000000E+00 0. -1.
<mgrwt>
<rscale>  1 0.30000000E+03</rscale>
<asrwt>0</asrwt>
<pdfrwt beam="1">  1       21 0.13389112E-01 0.30000000E+03</pdfrwt>
<pdfrwt beam="2">0</pdfrwt>
<totfact> 0.50753662E+03</totfact>
</mgrwt>
</event>
<event>
 6    1  0.1270461E-001  0.3000000E+03  0.7818608E-02  0.1093470E+00
         21   -1    0    0  501  502  0.00000000000E+00  0.00000000000E+00  0.55334468426E+01  0.55334468426E+01  0.00000000000E+00 0. -1.
         13   -1    0    0    0    0 -0.00000000000E+00 -0.00000000000E+00 -0.10000000000E+04  0.10000000000E+04  0.00000000000E+00 0.  1.
    9000005    2    1    2  501    0 -0.25882166830E+02  0.31928426819E+02 -0.91617298461E+03  0.91710724102E+03  0.48417784049E+01 0.  0.
         13    1    3    3    0    0 -0.19061894913E+02  0.22066662801E+02 -0.60263103549E+03  0.60333610731E+03  0.00000000000E+00 0.  1.
          1    1    3    3  501    0 -0.68202719172E+01  0.98617640174E+01 -0.31354194911E+03  0.31377113371E+03  0.00000000000E+00 0.  1.
         -1    1    1    2    0  502  0.25882166830E+02 -0.31928426819E+02 -0.78293568552E+02  0.88426205819E+02  0.00000000000E+00 0. -1.
<mgrwt>
<rscale>  1 0.30000000E+03</rscale>
<asrwt>0</asrwt>
<pdfrwt beam="1">  1       21 0.20121667E-01 0.30000000E+03</pdfrwt>
<pdfrwt beam="2">0</pdfrwt>
<totfact> 0.23715941E+03</totfact>
</mgrwt>
</event>
<event>
 6    1  0.1270461E-001  0.3000000E+03  0.7818608E-02  0.1093470E+00
         21   -1    0    0  501  502  0.00000000000E+00  0.00000000000E+00  0.16586585293E+01  0.16586585293E+01  0.00000000000E+00 0. -1.
         13   -1    0    0    0    0 -0.00000000000E+00 -0.00000000000E+00 -0.10000000000E+04  0.10000000000E+04  0.00000000000E+00 0.  1.
    9000005    2    1    2  501    0 -0.35493261399E+02 -0.49504299319E+01 -0.73605426693E+03  0.73693467429E+03  0.35428718947E+01 0.  0.
         13    1    3    3    0    0 -0.14639346227E+02 -0.26371144983E+01 -0.27225924528E+03  0.27266529202E+03  0.00000000000E+00 0.  1.
          3    1    3    3  501    0 -0.20853915173E+02 -0.23133154336E+01 -0.46379502165E+03  0.46426938227E+03  0.00000000000E+00 0.  1.
         -1    1    1    2    0  502  0.35493261399E+02  0.49504299319E+01 -0.26228707454E+03  0.26472398424E+03  0.00000000000E+00 0. -1.
<mgrwt>
<rscale>  1 0.30000000E+03</rscale>
<asrwt>0</asrwt>
<pdfrwt beam="1">  1       21 0.60314983E-02 0.30000000E+03</pdfrwt>
<pdfrwt beam="2">0</pdfrwt>
<totfact> 0.20882221E+04</totfact>
</mgrwt>
</event>
<event>
 6    1  0.1270461E-001  0.3000000E+03  0.7818608E-02  0.1093470E+00
         21   -1    0    0  501  502  0.00000000000E+00  0.00000000000E+00  0.43881577679E+01  0.43881577679E+01  0.00000000000E+00 0. -1.
         13   -1    0    0    0    0 -0.00000000000E+00 -0.00000000000E+00 -0.10000000000E+04  0.10000000000E+04  0.00000000000E+00 0.  1.
    9000005    2    1    2  501    0 -0.30737601362E+02  0.56964755050E+02 -0.39382192599E+03  0.39912715064E+03  0.41218362830E+01 0.  0.
         13    1    3    3    0    0 -0.28115168555E+02  0.50022328200E+02 -0.35376409669E+03  0.35838768412E+03  0.00000000000E+00 0.  1.
          3    1    3    3  501    0 -0.26224328072E+01  0.69424268505E+01 -0.40057829294E+02  0.40739466518E+02  0.00000000000E+00 0.  1.
         -3    1    1    2    0  502  0.30737601362E+02 -0.56964755050E+02 -0.60178991625E+03  0.60526100713E+03  0.00000000000E+00 0. -1.
<mgrwt>
<rscale>  1 0.30000000E+03</rscale>
<asrwt>0</asrwt>
<pdfrwt beam="1">  1       21 0.15956971E-01 0.30000000E+03</pdfrwt>
<pdfrwt beam="2">0</pdfrwt>
<totfact> 0.36710429E+03</totfact>
</mgrwt>
</event>
<event>
 6    1  0.1270461E-001  0.3000000E+03  0.7818608E-02  0.1093470E+00
         21   -1    0    0  501  502  0.00000000000E+00  0.00000000000E+00  0.10622647130E+01  0.10622647130E+01  0.00000000000E+00 0. -1.
         13   -1    0    0    0    0 -0.00000000000E+00 -0.00000000000E+00 -0.10000000000E+04  0.10000000000E+04  0.00000000000E+00 0.  1.
    9000005    2    1    2  501    0 -0.31683430445E+02  0.66167808316E+01 -0.54719600007E+03  0.54816247790E+03  0.33193580032E+01 0.  0.
         13    1    3    3    0    0 -0.15866907028E+02  0.16193257698E+01 -0.26910878391E+03  0.26958100552E+03  0.00000000000E+00 0.  1.
          1    1    3    3  501    0 -0.15816523417E+02  0.49974550617E+01 -0.27808721615E+03  0.27858147239E+03  0.00000000000E+00 0.  1.
         -3    1    1    2    0  502  0.31683430445E+02 -0.66167808316E+01 -0.45174173522E+03  0.45289978681E+03  0.00000000000E+00 0. -1.
<mgrwt>
<rscale>  1 0.30000000E+03</rscale>
<asrwt>0</asrwt>
<pdfrwt beam="1">  1       21 0.38627889E-02 0.30000000E+03</pdfrwt>
<pdfrwt beam="2">0</pdfrwt>
<totfact> 0.44590799E+04</totfact>
</mgrwt>
</event>
<event>
 6    1  0.1270461E-001  0.3000000E+03  0.7818608E-02  0.1093470E+00
         21   -1    0    0  501  502  0.00000000000E+00  0.00000000000E+00  0.12309094535E+01  0.12309094535E+01  0.00000000000E+00 0. -1.
         13   -1    0    0    0    0 -0.00000000000E+00 -0.00000000000E+00 -0.10000000000E+04  0.10000000000E+04  0.00000000000E+00 0.  1.
    9000005    2    1    2  501    0 -0.18362832172E+02  0.29174878302E+02 -0.41571230423E+03  0.41715592865E+03  0.37392233784E+01 0.  0.
         13    1    3    3    0    0 -0.14532817025E+02  0.25418131141E+02 -0.34474106911E+03  0.34598220893E+03  0.00000000000E+00 0.  1.
          3    1    3    3  501    0 -0.38300151474E+01  0.37567471603E+01 -0.70971235115E+02  0.71173719721E+02  0.00000000000E+00 0.  1.
         -3    1    1    2    0  502  0.18362832172E+02 -0.29174878302E+02 -0.58305678632E+03  0.58407498080E+03  0.00000000000E+00 0. -1.
<mgrwt>
<rscale>  1 0.30000000E+03</rscale>
<asrwt>0</asrwt>
<pdfrwt beam="1">  1       21 0.44760438E-02 0.30000000E+03</pdfrwt>
<pdfrwt beam="2">0</pdfrwt>
<totfact> 0.34771653E+04</totfact>
</mgrwt>
</event>
<event>
 6    1  0.1270461E-001  0.3000000E+03  0.7818608E-02  0.1093470E+00
         21   -1    0    0  501  502  0.00000000000E+00  0.00000000000E+00  0.13324714508E+01  0.13324714508E+01  0.00000000000E+00 0. -1.
         13   -1    0    0    0    0 -0.00000000000E+00 -0.00000000000E+00 -0.10000000000E+04  0.10000000000E+04  0.00000000000E+00 0.  1.
    9000005    2    1    2  501    0 -0.33584184737E+02  0.62961269907E+01 -0.32800124978E+03  0.32979632487E+03  0.36410663729E+01 0.  0.
         13    1    3    3    0    0 -0.28005514901E+02  0.66056806507E+01 -0.27577486253E+03  0.27727192192E+03  0.00000000000E+00 0.  1.
          3    1    3    3  501    0 -0.55786698368E+01 -0.30955365994E+00 -0.52226387247E+02  0.52524402952E+02  0.00000000000E+00 0.  1.
         -1    1    1    2    0  502  0.33584184737E+02 -0.62961269907E+01 -0.67066627877E+03  0.67153614658E+03  0.00000000000E+00 0. -1.
<mgrwt>
<rscale>  1 0.30000000E+03</rscale>
<asrwt>0</asrwt>
<pdfrwt beam="1">  1       21 0.48453609E-02 0.30000000E+03</pdfrwt>
<pdfrwt beam="2">0</pdfrwt>
<totfact> 0.30388171E+04</totfact>
</mgrwt>
</event>
<event>
 6    1  0.1270461E-001  0.3000000E+03  0.7818608E-02  0.1093470E+00
         21   -1    0    0  501  502  0.00000000000E+00  0.00000000000E+00  0.13475418180E+01  0.13475418180E+01  0.00000000000E+00 0. -1.
         13   -1    0    0    0    0 -0.00000000000E+00 -0.00000000000E+00 -0.10000000000E+04  0.10000000000E+04  0.00000000000E+00 0.  1.
    9000005    2    1    2  501    0 -0.15798078258E+02  0.32924357696E+02 -0.47961807541E+03  0.48103005883E+03  0.47777221573E+01 0.  0.
         13    1    3    3    0    0 -0.46310366321E+01  0.56356798720E+01 -0.85505664609E+02  0.85816234292E+02  0.00000000000E+00 0.  1.
          3    1    3    3  501    0 -0.11167041626E+02  0.27288677824E+02 -0.39411241080E+03  0.39521382454E+03  0.00000000000E+00 0.  1.
         -1    1    1    2    0  502  0.15798078258E+02 -0.32924357696E+02 -0.51903438277E+03  0.52031748299E+03  0.00000000000E+00 0. -1.
<mgrwt>
<rscale>  1 0.30000000E+03</rscale>
<asrwt>0</asrwt>
<pdfrwt beam="1">  1       21 0.49001624E-02 0.30000000E+03</pdfrwt>
<pdfrwt beam="2">0</pdfrwt>
<totfact> 0.29811791E+04</totfact>
</mgrwt>
</event>
<event>
 6    1  0.1270461E-001  0.3000000E+03  0.7818608E-02  0.1093470E+00
         21   -1    0    0  501  502  0.00000000000E+00  0.00000000000E+00  0.12875545429E+01  0.12875545429E+01  0.00000000000E+00 0. -1.
         13   -1    0    0    0    0 -0.00000000000E+00 -0.00000000000E+00 -0.10000000000E+04  0.10000000000E+04  0.00000000000E+00 0.  1.
    9000005    2    1    2  501    0 -0.35333867185E+02 -0.42839258574E+01 -0.54601868105E+03  0.54719672825E+03  0.45853200658E+01 0.  0.
         13    1    3    3    0    0 -0.13535805249E+02 -0.34230830099E+01 -0.23431438464E+03  0.23472998609E+03  0.00000000000E+00 0.  1.
          1    1    3    3  501    0 -0.21798061936E+02 -0.86084284743E+00 -0.31170429641E+03  0.31246674216E+03  0.00000000000E+00 0.  1.
         -1    1    1    2    0  502  0.35333867185E+02  0.42839258574E+01 -0.45269376441E+03  0.45409082630E+03  0.00000000000E+00 0. -1.
<mgrwt>
<rscale>  1 0.30000000E+03</rscale>
<asrwt>0</asrwt>
<pdfrwt beam="1">  1       21 0.46820264E-02 0.30000000E+03</pdfrwt>
<pdfrwt beam="2">0</pdfrwt>
<totfact> 0.32213489E+04</totfact>
</mgrwt>
</event>
<event>
 6    1  0.1270461E-001  0.3000000E+03  0.7818608E-02  0.1093470E+00
         21   -1    0    0  501  502  0.00000000000E+00  0.00000000000E+00  0.22527457819E+01  0.22527457819E+01  0.00000000000E+00 0. -1.
         13   -1    0    0    0    0 -0.00000000000E+00 -0.00000000000E+00 -0.10000000000E+04  0.10000000000E+04  0.00000000000E+00 0.  1.
    9000005    2    1    2  501    0 -0.10725998766E+02  0.37927652774E+02 -0.77764099473E+03  0.77864523393E+03  0.30544606386E+01 0.  0.
         13    1    3    3    0    0 -0.71392214000E-02  0.65818152011E+00 -0.21917672653E+02  0.21927554091E+02  0.00000000000E+00 0.  1.
          3    1    3    3  501    0 -0.10718859544E+02  0.37269471253E+02 -0.75572332208E+03  0.75671767983E+03  0.00000000000E+00 0.  1.
         -3    1    1    2    0  502  0.10725998766E+02 -0.37927652774E+02 -0.22010625948E+03  0.22360751186E+03  0.00000000000E+00 0. -1.
<mgrwt>
<rscale>  1 0.30000000E+03</rscale>
<asrwt>0</asrwt>
<pdfrwt beam="1">  1       21 0.81918201E-02 0.30000000E+03</pdfrwt>
<pdfrwt beam="2">0</pdfrwt>
<totfact> 0.12252794E+04</totfact>
</mgrwt>
</event>
<event>
 6    1  0.1270461E-001  0.3000000E+03  0.7818608E-02  0.1093470E+00
         21   -1    0    0  501  502  0.00000000000E+00  0.00000000000E+00  0.40729508701E+01  0.40729508701E+01  0.00000000000E+00 0. -1.
         13   -1    0    0    0    0 -0.00000000000E+00 -0.00000000000E+00 -0.10000000000E+04  0.10000000000E+04  0.00000000000E+00 0.  1.
    9000005    2    1    2  501    0  0.28520849699E+02 -0.46853816285E+02 -0.75318293660E+03  0.75520868438E+03  0.68485041149E+01 0.  0.
         13    1    3    3    0    0  0.33525805002E+01 -0.24994198542E+01 -0.70186883062E+02  0.70311346521E+02  0.00000000000E+00 0.  1.
          1    1    3    3  501    0  0.25168269199E+02 -0.44354396430E+02 -0.68299605354E+03  0.68489733786E+03  0.00000000000E+00 0.  1.
         -1    1    1    2    0  502 -0.28520849699E+02  0.46853816285E+02 -0.24274411253E+03  0.24886426649E+03  0.00000000000E+00 0. -1.
<mgrwt>
<rscale>  1 0.30000000E+03</rscale>
<asrwt>0</asrwt>
<pdfrwt beam="1">  1       21 0.14810762E-01 0.30000000E+03</pdfrwt>
<pdfrwt beam="2">0</pdfrwt>
<totfact> 0.42158782E+03</totfact>
</mgrwt>
</event>
<event>
 6    1  0.1270461E-001  0.3000000E+03  0.7818608E-02  0.1093470E+00
         21   -1    0    0  501  502  0.00000000000E+00  0.00000000000E+00  0.35654584668E+01  0.35654584668E+01  0.00000000000E+00 0. -1.
         13   -1    0    0    0    0 -0.00000000000E+00 -0.00000000000E+00 -0.10000000000E+04  0.10000000000E+04  0.00000000000E+00 0.  1.
    9000005    2    1    2  501    0 -0.25501864235E+01  0.30853875930E+02 -0.92720203506E+03  0.92772612129E+03  0.36982693591E+01 0.  0.
         13    1    3    3    0    0 -0.12529375888E+01  0.77177755970E+01 -0.19242449054E+03  0.19258327672E+03  0.00000000000E+00 0.  1.
          1    1    3    3  501    0 -0.12972488348E+01  0.23136100333E+02 -0.73477754451E+03  0.73514284456E+03  0.00000000000E+00 0.  1.
         -3    1    1    2    0  502  0.25501864235E+01 -0.30853875930E+02 -0.69232506477E+02  0.75839337179E+02  0.00000000000E+00 0. -1.
<mgrwt>
<rscale>  1 0.30000000E+03</rscale>
<asrwt>0</asrwt>
<pdfrwt beam="1">  1       21 0.12965331E-01 0.30000000E+03</pdfrwt>
<pdfrwt beam="2">0</pdfrwt>
<totfact> 0.53827070E+03</totfact>
</mgrwt>
</event>
<event>
 6    1  0.1270461E-001  0.3000000E+03  0.7818608E-02  0.1093470E+00
         21   -1    0    0  501  502  0.00000000000E+00  0.00000000000E+00  0.55299732548E+01  0.55299732548E+01  0.00000000000E+00 0. -1.
         13   -1    0    0    0    0 -0.00000000000E+00 -0.00000000000E+00 -0.10000000000E+04  0.10000000000E+04  0.00000000000E+00 0.  1.
    9000005    2    1    2  501    0 -0.32261413588E+02  0.19442435340E+01 -0.95000672752E+03  0.95056121969E+03  0.30448599844E+01 0.  0.
         13    1    3    3    0    0 -0.20584087277E+02  0.24610904924E+01 -0.63077989016E+03  0.63112045716E+03  0.00000000000E+00 0.  1.
          1    1    3    3  501    0 -0.11677326311E+02 -0.51684695843E+00 -0.31922683736E+03  0.31944076254E+03  0.00000000000E+00 0.  1.
         -1    1    1    2    0  502  0.32261413588E+02 -0.19442435340E+01 -0.44463299229E+02  0.54968753560E+02  0.00000000000E+00 0. -1.
<mgrwt>
<rscale>  1 0.30000000E+03</rscale>
<asrwt>0</asrwt>
<pdfrwt beam="1">  1       21 0.20109036E-01 0.30000000E+03</pdfrwt>
<pdfrwt beam="2">0</pdfrwt>
<totfact> 0.23744405E+03</totfact>
</mgrwt>
</event>
<event>
 6    1  0.1270461E-001  0.3000000E+03  0.7818608E-02  0.1093470E+00
         21   -1    0    0  501  502  0.00000000000E+00  0.00000000000E+00  0.10364873877E+01  0.10364873877E+01  0.00000000000E+00 0. -1.
         13   -1    0    0    0    0 -0.00000000000E+00 -0.00000000000E+00 -0.10000000000E+04  0.10000000000E+04  0.00000000000E+00 0.  1.
    9000005    2    1    2  501    0 -0.14094120679E+02  0.28806008769E+02 -0.52428103352E+03  0.52527195914E+03  0.34056679107E+01 0.  0.
         13    1    3    3    0    0 -0.12211093033E+02  0.23819333469E+02 -0.45460319310E+03  0.45539052979E+03  0.00000000000E+00 0.  1.
          1    1    3    3  501    0 -0.18830276456E+01  0.49866753000E+01 -0.69677840415E+02  0.69881429354E+02  0.00000000000E+00 0.  1.
         -1    1    1    2    0  502  0.14094120679E+02 -0.28806008769E+02 -0.47468247909E+03  0.47576452825E+03  0.00000000000E+00 0. -1.
<mgrwt>
<rscale>  1 0.30000000E+03</rscale>
<asrwt>0</asrwt>
<pdfrwt beam="1">  1       21 0.37690530E-02 0.30000000E+03</pdfrwt>
<pdfrwt beam="2">0</pdfrwt>
<totfact> 0.46470066E+04</totfact>
</mgrwt>
</event>
<event>
 6    1  0.1270461E-001  0.3000000E+03  0.7818608E-02  0.1093470E+00
         21   -1    0    0  501  502  0.00000000000E+00  0.00000000000E+00  0.28479742627E+01  0.28479742627E+01  0.00000000000E+00 0. -1.
         13   -1    0    0    0    0 -0.00000000000E+00 -0.00000000000E+00 -0.10000000000E+04  0.10000000000E+04  0.00000000000E+00 0.  1.
    9000005    2    1    2  501    0  0.26835068183E+02  0.40920073693E+02 -0.69789362178E+03  0.69961511711E+03  0.33513367083E+01 0.  0.
         13    1    3    3    0    0  0.21663123488E+02  0.30491233318E+02 -0.52802402152E+03  0.52934712007E+03  0.00000000000E+00 0.  1.
          3    1    3    3  501    0  0.51719446951E+01  0.10428840376E+02 -0.16986960026E+03  0.17026799704E+03  0.00000000000E+00 0.  1.
         -3    1    1    2    0  502 -0.26835068183E+02 -0.40920073693E+02 -0.29925840396E+03  0.30323285715E+03  0.00000000000E+00 0. -1.
<mgrwt>
<rscale>  1 0.30000000E+03</rscale>
<asrwt>0</asrwt>
<pdfrwt beam="1">  1       21 0.10356292E-01 0.30000000E+03</pdfrwt>
<pdfrwt beam="2">0</pdfrwt>
<totfact> 0.80809548E+03</totfact>
</mgrwt>
</event>
<event>
 6    1  0.1270461E-001  0.3000000E+03  0.7818608E-02  0.1093470E+00
         21   -1    0    0  501  502  0.00000000000E+00  0.00000000000E+00  0.15271702910E+01  0.15271702910E+01  0.00000000000E+00 0. -1.
         13   -1    0    0    0    0 -0.00000000000E+00 -0.00000000000E+00 -0.10000000000E+04  0.10000000000E+04  0.00000000000E+00 0.  1.
    9000005    2    1    2  501    0  0.14876185436E+02 -0.32226207089E+02 -0.70717118385E+03  0.70807107784E+03  0.37065737882E+01 0.  0.
         13    1    3    3    0    0  0.21590167832E+01 -0.27723991605E+01 -0.56098829148E+02  0.56208773180E+02  0.00000000000E+00 0.  1.
          1    1    3    3  501    0  0.12717168653E+02 -0.29453807929E+02 -0.65107235471E+03  0.65186230467E+03  0.00000000000E+00 0.  1.
         -3    1    1    2    0  502 -0.14876185436E+02  0.32226207089E+02 -0.29130164585E+03  0.29345609245E+03  0.00000000000E+00 0. -1.
<mgrwt>
<rscale>  1 0.30000000E+03</rscale>
<asrwt>0</asrwt>
<pdfrwt beam="1">  1       21 0.55533582E-02 0.30000000E+03</pdfrwt>
<pdfrwt beam="2">0</pdfrwt>
<totfact> 0.24072178E+04</totfact>
</mgrwt>
</event>
<event>
 6    1  0.1270461E-001  0.3000000E+03  0.7818608E-02  0.1093470E+00
         21   -1    0    0  501  502  0.00000000000E+00  0.00000000000E+00  0.27661253962E+01  0.27661253962E+01  0.00000000000E+00 0. -1.
         13   -1    0    0    0    0 -0.00000000000E+00 -0.00000000000E+00 -0.10000000000E+04  0.10000000000E+04  0.00000000000E+00 0.  1.
    9000005    2    1    2  501    0 -0.52059984153E+02 -0.71170001009E+01 -0.48857033753E+03  0.49139591939E+03  0.28427522577E+01 0.  0.
         13    1    3    3    0    0 -0.28321178301E+02 -0.52591165401E+01 -0.27059928125E+03  0.27212812875E+03  0.00000000000E+00 0.  1.
          1    1    3    3  501    0 -0.23738805853E+02 -0.18578835608E+01 -0.21797105628E+03  0.21926779064E+03  0.00000000000E+00 0.  1.
         -1    1    1    2    0  502  0.52059984153E+02  0.71170001009E+01 -0.50866353707E+03  0.51137020600E+03  0.00000000000E+00 0. -1.
<mgrwt>
<rscale>  1 0.30000000E+03</rscale>
<asrwt>0</asrwt>
<pdfrwt beam="1">  1       21 0.10058659E-01 0.30000000E+03</pdfrwt>
<pdfrwt beam="2">0</pdfrwt>
<totfact> 0.85137401E+03</totfact>
</mgrwt>
</event>
<event>
 6    1  0.1270461E-001  0.3000000E+03  0.7818608E-02  0.1093470E+00
         21   -1    0    0  501  502  0.00000000000E+00  0.00000000000E+00  0.14667432707E+01  0.14667432707E+01  0.00000000000E+00 0. -1.
         13   -1    0    0    0    0 -0.00000000000E+00 -0.00000000000E+00 -0.10000000000E+04  0.10000000000E+04  0.00000000000E+00 0.  1.
    9000005    2    1    2  501    0  0.29615728837E+02 -0.18099321433E+02 -0.70867690538E+03  0.70953972971E+03  0.43583233503E+01 0.  0.
         13    1    3    3    0    0  0.16875696319E+02 -0.88060844951E+01 -0.42269291584E+03  0.42312130335E+03  0.00000000000E+00 0.  1.
          1    1    3    3  501    0  0.12740032518E+02 -0.92932369375E+01 -0.28598398954E+03  0.28641842636E+03  0.00000000000E+00 0.  1.
         -1    1    1    2    0  502 -0.29615728837E+02  0.18099321433E+02 -0.28985635135E+03  0.29192701357E+03  0.00000000000E+00 0. -1.
<mgrwt>
<rscale>  1 0.30000000E+03</rscale>
<asrwt>0</asrwt>
<pdfrwt beam="1">  1       21 0.53336231E-02 0.30000000E+03</pdfrwt>
<pdfrwt beam="2">0</pdfrwt>
<totfact> 0.25796280E+04</totfact>
</mgrwt>
</event>
<event>
 6    1  0.1270461E-001  0.3000000E+03  0.7818608E-02  0.1093470E+00
         21   -1    0    0  501  502  0.00000000000E+00  0.00000000000E+00  0.14928804395E+01  0.14928804395E+01  0.00000000000E+00 0. -1.
         13   -1    0    0    0    0 -0.00000000000E+00 -0.00000000000E+00 -0.10000000000E+04  0.10000000000E+04  0.00000000000E+00 0.  1.
    9000005    2    1    2  501    0 -0.29223736671E+02  0.88397253184E+01 -0.80555735514E+03  0.80614247957E+03  0.32980939453E+01 0.  0.
         13    1    3    3    0    0 -0.14696395190E+02  0.48583720282E+01 -0.45022306406E+03  0.45048906227E+03  0.00000000000E+00 0.  1.
          1    1    3    3  501    0 -0.14527341480E+02  0.39813532902E+01 -0.35533429107E+03  0.35565341730E+03  0.00000000000E+00 0.  1.
         -3    1    1    2    0  502  0.29223736671E+02 -0.88397253184E+01 -0.19294976442E+03  0.19535040087E+03  0.00000000000E+00 0. -1.
<mgrwt>
<rscale>  1 0.30000000E+03</rscale>
<asrwt>0</asrwt>
<pdfrwt beam="1">  1       21 0.54286676E-02 0.30000000E+03</pdfrwt>
<pdfrwt beam="2">0</pdfrwt>
<totfact> 0.25027890E+04</totfact>
</mgrwt>
</event>
<event>
 6    1  0.1270461E-001  0.3000000E+03  0.7818608E-02  0.1093470E+00
         21   -1    0    0  501  502  0.00000000000E+00  0.00000000000E+00  0.17948840419E+01  0.17948840419E+01  0.00000000000E+00 0. -1.
         13   -1    0    0    0    0 -0.00000000000E+00 -0.00000000000E+00 -0.10000000000E+04  0.10000000000E+04  0.00000000000E+00 0.  1.
    9000005    2    1    2  501    0 -0.42811053505E+01 -0.31085761270E+02 -0.83519252765E+03  0.83578959387E+03  0.36103419905E+01 0.  0.
         13    1    3    3    0    0 -0.36442297664E-01 -0.13204523220E+02 -0.34308979561E+03  0.34334380527E+03  0.00000000000E+00 0.  1.
          1    1    3    3  501    0 -0.42446630529E+01 -0.17881238050E+02 -0.49210273204E+03  0.49244578861E+03  0.00000000000E+00 0.  1.
         -3    1    1    2    0  502  0.42811053505E+01  0.31085761270E+02 -0.16301258831E+03  0.16600529017E+03  0.00000000000E+00 0. -1.
<mgrwt>
<rscale>  1 0.30000000E+03</rscale>
<asrwt>0</asrwt>
<pdfrwt beam="1">  1       21 0.65268648E-02 0.30000000E+03</pdfrwt>
<pdfrwt beam="2">0</pdfrwt>
<totfact> 0.18219455E+04</totfact>
</mgrwt>
</event>
<event>
 6    1  0.1270461E-001  0.3000000E+03  0.7818608E-02  0.1093470E+00
         21   -1    0    0  501  502  0.00000000000E+00  0.00000000000E+00  0.20300974995E+01  0.20300974995E+01  0.00000000000E+00 0. -1.
         13   -1    0    0    0    0 -0.00000000000E+00 -0.00000000000E+00 -0.10000000000E+04  0.10000000000E+04  0.00000000000E+00 0.  1.
    9000005    2    1    2  501    0  0.29893950133E+02  0.59090894154E+01 -0.86775952342E+03  0.86830160984E+03  0.35397128150E+01 0.  0.
         13    1    3    3    0    0  0.20621072002E+02  0.25450647204E+01 -0.56853367998E+03  0.56891321943E+03  0.00000000000E+00 0.  1.
          1    1    3    3  501    0  0.92728781313E+01  0.33640246950E+01 -0.29922584344E+03  0.29938839041E+03  0.00000000000E+00 0.  1.
         -3    1    1    2    0  502 -0.29893950133E+02 -0.59090894154E+01 -0.13021037908E+03  0.13372848766E+03  0.00000000000E+00 0. -1.
<mgrwt>
<rscale>  1 0.30000000E+03</rscale>
<asrwt>0</asrwt>
<pdfrwt beam="1">  1       21 0.73821883E-02 0.30000000E+03</pdfrwt>
<pdfrwt beam="2">0</pdfrwt>
<totfact> 0.14706339E+04</totfact>
</mgrwt>
</event>
<event>
 6    1  0.1270461E-001  0.3000000E+03  0.7818608E-02  0.1093470E+00
         21   -1    0    0  501  502  0.00000000000E+00  0.00000000000E+00  0.95552378970E+01  0.95552378970E+01  0.00000000000E+00 0. -1.
         13   -1    0    0    0    0 -0.00000000000E+00 -0.00000000000E+00 -0.10000000000E+04  0.10000000000E+04  0.00000000000E+00 0.  1.
    9000005    2    1    2  501    0  0.12697992541E+02  0.59649329317E+02 -0.88963171672E+03  0.89173099752E+03  0.45054443562E+01 0.  0.
         13    1    3    3    0    0  0.13013213563E+02  0.56729316798E+02 -0.84289139078E+03  0.84489848843E+03  0.00000000000E+00 0.  1.
          1    1    3    3  501    0 -0.31522102234E+00  0.29200125196E+01 -0.46740325945E+02  0.46832509081E+02  0.00000000000E+00 0.  1.
         -3    1    1    2    0  502 -0.12697992541E+02 -0.59649329317E+02 -0.10081304538E+03  0.11782424038E+03  0.00000000000E+00 0. -1.
<mgrwt>
<rscale>  1 0.30000000E+03</rscale>
<asrwt>0</asrwt>
<pdfrwt beam="1">  1       21 0.34746393E-01 0.30000000E+03</pdfrwt>
<pdfrwt beam="2">0</pdfrwt>
<totfact> 0.80771531E+02</totfact>
</mgrwt>
</event>
<event>
 6    1  0.1270461E-001  0.3000000E+03  0.7818608E-02  0.1093470E+00
         21   -1    0    0  501  502  0.00000000000E+00  0.00000000000E+00  0.18143651142E+01  0.18143651142E+01  0.00000000000E+00 0. -1.
         13   -1    0    0    0    0 -0.00000000000E+00 -0.00000000000E+00 -0.10000000000E+04  0.10000000000E+04  0.00000000000E+00 0.  1.
    9000005    2    1    2  501    0  0.17456188551E+02 -0.32321466407E+02 -0.75088930713E+03  0.75180462644E+03  0.51038287678E+01 0.  0.
         13    1    3    3    0    0  0.87249429036E+01 -0.15326494858E+02 -0.41176483822E+03  0.41214233957E+03  0.00000000000E+00 0.  1.
          3    1    3    3  501    0  0.87312456471E+01 -0.16994971549E+02 -0.33912446891E+03  0.33966228687E+03  0.00000000000E+00 0.  1.
         -1    1    1    2    0  502 -0.17456188551E+02  0.32321466407E+02 -0.24729632776E+03  0.25000973868E+03  0.00000000000E+00 0. -1.
<mgrwt>
<rscale>  1 0.30000000E+03</rscale>
<asrwt>0</asrwt>
<pdfrwt beam="1">  1       21 0.65977052E-02 0.30000000E+03</pdfrwt>
<pdfrwt beam="2">0</pdfrwt>
<totfact> 0.17881891E+04</totfact>
</mgrwt>
</event>
<event>
 6    1  0.1270461E-001  0.3000000E+03  0.7818608E-02  0.1093470E+00
         21   -1    0    0  501  502  0.00000000000E+00  0.00000000000E+00  0.24190998994E+01  0.24190998994E+01  0.00000000000E+00 0. -1.
         13   -1    0    0    0    0 -0.00000000000E+00 -0.00000000000E+00 -0.10000000000E+04  0.10000000000E+04  0.00000000000E+00 0.  1.
    9000005    2    1    2  501    0 -0.40098200081E+01  0.48790871321E+02 -0.54127465139E+03  0.54349424723E+03  0.33347802500E+01 0.  0.
         13    1    3    3    0    0 -0.42742764765E+01  0.46090138822E+02 -0.51718003652E+03  0.51924730188E+03  0.00000000000E+00 0.  1.
          3    1    3    3  501    0  0.26445646835E+00  0.27007324987E+01 -0.24094614870E+02  0.24246945354E+02  0.00000000000E+00 0.  1.
         -1    1    1    2    0  502  0.40098200081E+01 -0.48790871321E+02 -0.45630624871E+03  0.45892485267E+03  0.00000000000E+00 0. -1.
<mgrwt>
<rscale>  1 0.30000000E+03</rscale>
<asrwt>0</asrwt>
<pdfrwt beam="1">  1       21 0.87967455E-02 0.30000000E+03</pdfrwt>
<pdfrwt beam="2">0</pdfrwt>
<totfact> 0.10806258E+04</totfact>
</mgrwt>
</event>
<event>
 6    1  0.1270461E-001  0.3000000E+03  0.7818608E-02  0.1093470E+00
         21   -1    0    0  501  502  0.00000000000E+00  0.00000000000E+00  0.20643769094E+02  0.20643769094E+02  0.00000000000E+00 0. -1.
         13   -1    0    0    0    0 -0.00000000000E+00 -0.00000000000E+00 -0.10000000000E+04  0.10000000000E+04  0.00000000000E+00 0.  1.
    9000005    2    1    2  501    0 -0.34678161542E+02  0.52550863719E+02 -0.94837551453E+03  0.95047274265E+03  0.42602563407E+01 0.  0.
         13    1    3    3    0    0 -0.16004890969E+02  0.22942745205E+02 -0.45143290875E+03  0.45229879194E+03  0.00000000000E+00 0.  1.
          1    1    3    3  501    0 -0.18673270572E+02  0.29608118513E+02 -0.49694260579E+03  0.49817395071E+03  0.00000000000E+00 0.  1.
         -1    1    1    2    0  502  0.34678161542E+02 -0.52550863719E+02 -0.30980716373E+02  0.70171026446E+02  0.00000000000E+00 0. -1.
<mgrwt>
<rscale>  1 0.30000000E+03</rscale>
<asrwt>0</asrwt>
<pdfrwt beam="1">  1       21 0.75068410E-01 0.30000000E+03</pdfrwt>
<pdfrwt beam="2">0</pdfrwt>
<totfact> 0.14974037E+02</totfact>
</mgrwt>
</event>
<event>
 6    1  0.1270461E-001  0.3000000E+03  0.7818608E-02  0.1093470E+00
         21   -1    0    0  501  502  0.00000000000E+00  0.00000000000E+00  0.10993490205E+01  0.10993490205E+01  0.00000000000E+00 0. -1.
         13   -1    0    0    0    0 -0.00000000000E+00 -0.00000000000E+00 -0.10000000000E+04  0.10000000000E+04  0.00000000000E+00 0.  1.
    9000005    2    1    2  501    0  0.30515067327E+02  0.72087870995E+01 -0.65763299297E+03  0.65839430040E+03  0.43319064627E+01 0.  0.
         13    1    3    3    0    0  0.25456956576E+02  0.45271562741E+01 -0.52041335990E+03  0.52105529164E+03  0.00000000000E+00 0.  1.
          3    1    3    3  501    0  0.50581107504E+01  0.26816308254E+01 -0.13721963307E+03  0.13733900876E+03  0.00000000000E+00 0.  1.
         -1    1    1    2    0  502 -0.30515067327E+02 -0.72087870995E+01 -0.34126765801E+03  0.34270504862E+03  0.00000000000E+00 0. -1.
<mgrwt>
<rscale>  1 0.30000000E+03</rscale>
<asrwt>0</asrwt>
<pdfrwt beam="1">  1       21 0.39976412E-02 0.30000000E+03</pdfrwt>
<pdfrwt beam="2">0</pdfrwt>
<totfact> 0.42089111E+04</totfact>
</mgrwt>
</event>
<event>
 6    1  0.1270461E-001  0.3000000E+03  0.7818608E-02  0.1093470E+00
         21   -1    0    0  501  502  0.00000000000E+00  0.00000000000E+00  0.15082398104E+01  0.15082398104E+01  0.00000000000E+00 0. -1.
         13   -1    0    0    0    0 -0.00000000000E+00 -0.00000000000E+00 -0.10000000000E+04  0.10000000000E+04  0.00000000000E+00 0.  1.
    9000005    2    1    2  501    0  0.22023034188E+02  0.28340347820E+02 -0.31179890604E+03  0.31387805920E+03  0.35621466138E+01 0.  0.
         13    1    3    3    0    0  0.18771418380E+02  0.23186936540E+02 -0.24765960367E+03  0.24944995382E+03  0.00000000000E+00 0.  1.
          1    1    3    3  501    0  0.32516158075E+01  0.51534112800E+01 -0.64139302372E+02  0.64428105373E+02  0.00000000000E+00 0.  1.
         -3    1    1    2    0  502 -0.22023034188E+02 -0.28340347820E+02 -0.68669285415E+03  0.68763018061E+03  0.00000000000E+00 0. -1.
<mgrwt>
<rscale>  1 0.30000000E+03</rscale>
<asrwt>0</asrwt>
<pdfrwt beam="1">  1       21 0.54845200E-02 0.30000000E+03</pdfrwt>
<pdfrwt beam="2">0</pdfrwt>
<totfact> 0.24592703E+04</totfact>
</mgrwt>
</event>
<event>
 6    1  0.1270461E-001  0.3000000E+03  0.7818608E-02  0.1093470E+00
         21   -1    0    0  501  502  0.00000000000E+00  0.00000000000E+00  0.24762663223E+01  0.24762663223E+01  0.00000000000E+00 0. -1.
         13   -1    0    0    0    0 -0.00000000000E+00 -0.00000000000E+00 -0.10000000000E+04  0.10000000000E+04  0.00000000000E+00 0.  1.
    9000005    2    1    2  501    0  0.23724182576E+02 -0.40087236145E+02 -0.67414641027E+03  0.67576122743E+03  0.31671255545E+01 0.  0.
         13    1    3    3    0    0  0.10840168189E+02 -0.21409582766E+02 -0.34878044478E+03  0.34960503163E+03  0.00000000000E+00 0.  1.
          3    1    3    3  501    0  0.12884014387E+02 -0.18677653379E+02 -0.32536596549E+03  0.32615619580E+03  0.00000000000E+00 0.  1.
         -3    1    1    2    0  502 -0.23724182576E+02  0.40087236145E+02 -0.32337732341E+03  0.32671503889E+03  0.00000000000E+00 0. -1.
<mgrwt>
<rscale>  1 0.30000000E+03</rscale>
<asrwt>0</asrwt>
<pdfrwt beam="1">  1       21 0.90046238E-02 0.30000000E+03</pdfrwt>
<pdfrwt beam="2">0</pdfrwt>
<totfact> 0.10368650E+04</totfact>
</mgrwt>
</event>
<event>
 6    1  0.1270461E-001  0.3000000E+03  0.7818608E-02  0.1093470E+00
         21   -1    0    0  501  502  0.00000000000E+00  0.00000000000E+00  0.19777074639E+01  0.19777074639E+01  0.00000000000E+00 0. -1.
         13   -1    0    0    0    0 -0.00000000000E+00 -0.00000000000E+00 -0.10000000000E+04  0.10000000000E+04  0.00000000000E+00 0.  1.
    9000005    2    1    2  501    0  0.40690145184E+02  0.15060815240E+02 -0.39447031425E+03  0.39686820782E+03  0.38767873183E+01 0.  0.
         13    1    3    3    0    0  0.98537944125E+01  0.32610502645E+01 -0.80402213249E+02  0.81069399952E+02  0.00000000000E+00 0.  1.
          3    1    3    3  501    0  0.30836350772E+02  0.11799764976E+02 -0.31406810100E+03  0.31579880787E+03  0.00000000000E+00 0.  1.
         -1    1    1    2    0  502 -0.40690145184E+02 -0.15060815240E+02 -0.60355197828E+03  0.60510949964E+03  0.00000000000E+00 0. -1.
<mgrwt>
<rscale>  1 0.30000000E+03</rscale>
<asrwt>0</asrwt>
<pdfrwt beam="1">  1       21 0.71916787E-02 0.30000000E+03</pdfrwt>
<pdfrwt beam="2">0</pdfrwt>
<totfact> 0.15393435E+04</totfact>
</mgrwt>
</event>
<event>
 6    1  0.1270461E-001  0.3000000E+03  0.7818608E-02  0.1093470E+00
         21   -1    0    0  501  502  0.00000000000E+00  0.00000000000E+00  0.14800943171E+01  0.14800943171E+01  0.00000000000E+00 0. -1.
         13   -1    0    0    0    0 -0.00000000000E+00 -0.00000000000E+00 -0.10000000000E+04  0.10000000000E+04  0.00000000000E+00 0.  1.
    9000005    2    1    2  501    0 -0.36444554913E+02  0.20092051783E+01 -0.34428643911E+03  0.34622924825E+03  0.30492130526E+01 0.  0.
         13    1    3    3    0    0 -0.65197968156E+01  0.12744557346E+01 -0.69813510479E+02  0.70128868758E+02  0.00000000000E+00 0.  1.
          1    1    3    3  501    0 -0.29924758097E+02  0.73474944360E+00 -0.27447292863E+03  0.27610037949E+03  0.00000000000E+00 0.  1.
         -1    1    1    2    0  502  0.36444554913E+02 -0.20092051783E+01 -0.65423346657E+03  0.65525084606E+03  0.00000000000E+00 0. -1.
<mgrwt>
<rscale>  1 0.30000000E+03</rscale>
<asrwt>0</asrwt>
<pdfrwt beam="1">  1       21 0.53821725E-02 0.30000000E+03</pdfrwt>
<pdfrwt beam="2">0</pdfrwt>
<totfact> 0.25399299E+04</totfact>
</mgrwt>
</event>
<event>
 6    1  0.1270461E-001  0.3000000E+03  0.7818608E-02  0.1093470E+00
         21   -1    0    0  501  502  0.00000000000E+00  0.00000000000E+00  0.79428031089E+01  0.79428031089E+01  0.00000000000E+00 0. -1.
         13   -1    0    0    0    0 -0.00000000000E+00 -0.00000000000E+00 -0.10000000000E+04  0.10000000000E+04  0.00000000000E+00 0.  1.
    9000005    2    1    2  501    0  0.26349542729E+01  0.39264808851E+02 -0.94819128520E+03  0.94901160249E+03  0.27640781430E+01 0.  0.
         13    1    3    3    0    0  0.81854577167E+00  0.36872904799E+01 -0.10582700079E+03  0.10589438240E+03  0.00000000000E+00 0.  1.
          1    1    3    3  501    0  0.18164085012E+01  0.35577518371E+02 -0.84236428442E+03  0.84311722009E+03  0.00000000000E+00 0.  1.
         -1    1    1    2    0  502 -0.26349542729E+01 -0.39264808851E+02 -0.43865911688E+02  0.58931200618E+02  0.00000000000E+00 0. -1.
<mgrwt>
<rscale>  1 0.30000000E+03</rscale>
<asrwt>0</asrwt>
<pdfrwt beam="1">  1       21 0.28882981E-01 0.30000000E+03</pdfrwt>
<pdfrwt beam="2">0</pdfrwt>
<totfact> 0.11727913E+03</totfact>
</mgrwt>
</event>
<event>
 6    1  0.1270461E-001  0.3000000E+03  0.7818608E-02  0.1093470E+00
         21   -1    0    0  501  502  0.00000000000E+00  0.00000000000E+00  0.12578302145E+01  0.12578302145E+01  0.00000000000E+00 0. -1.
         13   -1    0    0    0    0 -0.00000000000E+00 -0.00000000000E+00 -0.10000000000E+04  0.10000000000E+04  0.00000000000E+00 0.  1.
    9000005    2    1    2  501    0 -0.10336388657E+02 -0.33653475008E+02 -0.45411396381E+03  0.45549297237E+03  0.38676146869E+01 0.  0.
         13    1    3    3    0    0 -0.36163802155E+01 -0.18160768079E+02 -0.24347493227E+03  0.24417807917E+03  0.00000000000E+00 0.  1.
          1    1    3    3  501    0 -0.67200084419E+01 -0.15492706929E+02 -0.21063903154E+03  0.21131489320E+03  0.00000000000E+00 0.  1.
         -3    1    1    2    0  502  0.10336388657E+02  0.33653475008E+02 -0.54462820598E+03  0.54576485784E+03  0.00000000000E+00 0. -1.
<mgrwt>
<rscale>  1 0.30000000E+03</rscale>
<asrwt>0</asrwt>
<pdfrwt beam="1">  1       21 0.45739377E-02 0.30000000E+03</pdfrwt>
<pdfrwt beam="2">0</pdfrwt>
<totfact> 0.33517753E+04</totfact>
</mgrwt>
</event>
<event>
 6    1  0.1270461E-001  0.3000000E+03  0.7818608E-02  0.1093470E+00
         21   -1    0    0  501  502  0.00000000000E+00  0.00000000000E+00  0.14831867999E+01  0.14831867999E+01  0.00000000000E+00 0. -1.
         13   -1    0    0    0    0 -0.00000000000E+00 -0.00000000000E+00 -0.10000000000E+04  0.10000000000E+04  0.00000000000E+00 0.  1.
    9000005    2    1    2  501    0  0.23290712274E+02  0.30506900081E+02 -0.53846212507E+03  0.53983023891E+03  0.14486093531E+01 0.  0.
         13    1    3    3    0    0  0.21506893269E+02  0.27483960134E+02 -0.48903774910E+03  0.49028138305E+03  0.00000000000E+00 0.  1.
          3    1    3    3  501    0  0.17838190044E+01  0.30229399470E+01 -0.49424375973E+02  0.49548855855E+02  0.00000000000E+00 0.  1.
         -1    1    1    2    0  502 -0.23290712274E+02 -0.30506900081E+02 -0.46005468813E+03  0.46165294789E+03  0.00000000000E+00 0. -1.
<mgrwt>
<rscale>  1 0.30000000E+03</rscale>
<asrwt>0</asrwt>
<pdfrwt beam="1">  1       21 0.53934179E-02 0.30000000E+03</pdfrwt>
<pdfrwt beam="2">0</pdfrwt>
<totfact> 0.25308692E+04</totfact>
</mgrwt>
</event>
<event>
 6    1  0.1270461E-001  0.3000000E+03  0.7818608E-02  0.1093470E+00
         21   -1    0    0  501  502  0.00000000000E+00  0.00000000000E+00  0.94419860343E+00  0.94419860343E+00  0.00000000000E+00 0. -1.
         13   -1    0    0    0    0 -0.00000000000E+00 -0.00000000000E+00 -0.10000000000E+04  0.10000000000E+04  0.00000000000E+00 0.  1.
    9000005    2    1    2  501    0  0.12324375832E+02 -0.28044777461E+02 -0.52308761848E+03  0.52399125446E+03  0.27889704634E+01 0.  0.
         13    1    3    3    0    0  0.12074820306E+02 -0.27586825037E+02 -0.50570246091E+03  0.50659827593E+03  0.00000000000E+00 0.  1.
          1    1    3    3  501    0  0.24955552618E+00 -0.45795242436E+00 -0.17385157575E+02  0.17392978535E+02  0.00000000000E+00 0.  1.
         -1    1    1    2    0  502 -0.12324375832E+02  0.28044777461E+02 -0.47596818291E+03  0.47695294414E+03  0.00000000000E+00 0. -1.
<mgrwt>
<rscale>  1 0.30000000E+03</rscale>
<asrwt>0</asrwt>
<pdfrwt beam="1">  1       21 0.34334567E-02 0.30000000E+03</pdfrwt>
<pdfrwt beam="2">0</pdfrwt>
<totfact> 0.54334302E+04</totfact>
</mgrwt>
</event>
<event>
 6    1  0.1270461E-001  0.3000000E+03  0.7818608E-02  0.1093470E+00
         21   -1    0    0  501  502  0.00000000000E+00  0.00000000000E+00  0.45005331469E+01  0.45005331469E+01  0.00000000000E+00 0. -1.
         13   -1    0    0    0    0 -0.00000000000E+00 -0.00000000000E+00 -0.10000000000E+04  0.10000000000E+04  0.00000000000E+00 0.  1.
    9000005    2    1    2  501    0 -0.20580357782E+02 -0.47257261371E+02 -0.81904374399E+03  0.82067066068E+03  0.32983116163E+01 0.  0.
         13    1    3    3    0    0 -0.91221639723E+01 -0.24763642745E+02 -0.40861550815E+03  0.40946683062E+03  0.00000000000E+00 0.  1.
          3    1    3    3  501    0 -0.11458193810E+02 -0.22493618626E+02 -0.41042823584E+03  0.41120383006E+03  0.00000000000E+00 0.  1.
         -1    1    1    2    0  502  0.20580357782E+02  0.47257261371E+02 -0.17645572287E+03  0.18382987247E+03  0.00000000000E+00 0. -1.
<mgrwt>
<rscale>  1 0.30000000E+03</rscale>
<asrwt>0</asrwt>
<pdfrwt beam="1">  1       21 0.16365610E-01 0.30000000E+03</pdfrwt>
<pdfrwt beam="2">0</pdfrwt>
<totfact> 0.35019139E+03</totfact>
</mgrwt>
</event>
<event>
 6    1  0.1270461E-001  0.3000000E+03  0.7818608E-02  0.1093470E+00
         21   -1    0    0  501  502  0.00000000000E+00  0.00000000000E+00  0.26734372127E+01  0.26734372127E+01  0.00000000000E+00 0. -1.
         13   -1    0    0    0    0 -0.00000000000E+00 -0.00000000000E+00 -0.10000000000E+04  0.10000000000E+04  0.00000000000E+00 0.  1.
    9000005    2    1    2  501    0 -0.46095531783E+01 -0.31786986024E+02 -0.89136311433E+03  0.89194894638E+03  0.36139868771E+01 0.  0.
         13    1    3    3    0    0 -0.37881725885E+01 -0.26709046370E+02 -0.78153881753E+03  0.78200424981E+03  0.00000000000E+00 0.  1.
          3    1    3    3  501    0 -0.82138058983E+00 -0.50779396544E+01 -0.10982429679E+03  0.10994469657E+03  0.00000000000E+00 0.  1.
         -1    1    1    2    0  502  0.46095531783E+01  0.31786986024E+02 -0.10596344846E+03  0.11072449084E+03  0.00000000000E+00 0. -1.
<mgrwt>
<rscale>  1 0.30000000E+03</rscale>
<asrwt>0</asrwt>
<pdfrwt beam="1">  1       21 0.97216104E-02 0.30000000E+03</pdfrwt>
<pdfrwt beam="2">0</pdfrwt>
<totfact> 0.90479874E+03</totfact>
</mgrwt>
</event>
<event>
 6    1  0.1270461E-001  0.3000000E+03  0.7818608E-02  0.1093470E+00
         21   -1    0    0  501  502  0.00000000000E+00  0.00000000000E+00  0.21499334011E+01  0.21499334011E+01  0.00000000000E+00 0. -1.
         13   -1    0    0    0    0 -0.00000000000E+00 -0.00000000000E+00 -0.10000000000E+04  0.10000000000E+04  0.00000000000E+00 0.  1.
    9000005    2    1    2  501    0 -0.31273541022E+02 -0.33138547889E+02 -0.41374021576E+03  0.41626554585E+03  0.44543017312E+01 0.  0.
         13    1    3    3    0    0 -0.39410185919E+01 -0.38802746113E+01 -0.64845823968E+02  0.65081249563E+02  0.00000000000E+00 0.  1.
          1    1    3    3  501    0 -0.27332522430E+02 -0.29258273278E+02 -0.34889439179E+03  0.35118429629E+03  0.00000000000E+00 0.  1.
         -1    1    1    2    0  502  0.31273541022E+02  0.33138547889E+02 -0.58410985084E+03  0.58588438755E+03  0.00000000000E+00 0. -1.
<mgrwt>
<rscale>  1 0.30000000E+03</rscale>
<asrwt>0</asrwt>
<pdfrwt beam="1">  1       21 0.78179561E-02 0.30000000E+03</pdfrwt>
<pdfrwt beam="2">0</pdfrwt>
<totfact> 0.13300570E+04</totfact>
</mgrwt>
</event>
<event>
 6    1  0.1270461E-001  0.3000000E+03  0.7818608E-02  0.1093470E+00
         21   -1    0    0  501  502  0.00000000000E+00  0.00000000000E+00  0.20327376141E+01  0.20327376141E+01  0.00000000000E+00 0. -1.
         13   -1    0    0    0    0 -0.00000000000E+00 -0.00000000000E+00 -0.10000000000E+04  0.10000000000E+04  0.00000000000E+00 0.  1.
    9000005    2    1    2  501    0 -0.29075103196E+02 -0.28032965815E+02 -0.72073762825E+03  0.72187656895E+03  0.34413984295E+01 0.  0.
         13    1    3    3    0    0 -0.95098153113E+01 -0.11462406624E+02 -0.26200427863E+03  0.26242725730E+03  0.00000000000E+00 0.  1.
          1    1    3    3  501    0 -0.19565287885E+02 -0.16570559192E+02 -0.45873334962E+03  0.45944931165E+03  0.00000000000E+00 0.  1.
         -1    1    1    2    0  502  0.29075103196E+02  0.28032965815E+02 -0.27722963414E+03  0.28015616867E+03  0.00000000000E+00 0. -1.
<mgrwt>
<rscale>  1 0.30000000E+03</rscale>
<asrwt>0</asrwt>
<pdfrwt beam="1">  1       21 0.73917887E-02 0.30000000E+03</pdfrwt>
<pdfrwt beam="2">0</pdfrwt>
<totfact> 0.14672952E+04</totfact>
</mgrwt>
</event>
<event>
 6    1  0.1270461E-001  0.3000000E+03  0.7818608E-02  0.1093470E+00
         21   -1    0    0  501  502  0.00000000000E+00  0.00000000000E+00  0.28033754114E+01  0.28033754114E+01  0.00000000000E+00 0. -1.
         13   -1    0    0    0    0 -0.00000000000E+00 -0.00000000000E+00 -0.10000000000E+04  0.10000000000E+04  0.00000000000E+00 0.  1.
    9000005    2    1    2  501    0 -0.32178365390E+01 -0.44823029735E+02 -0.76336756144E+03  0.76469522931E+03  0.30498204975E+01 0.  0.
         13    1    3    3    0    0 -0.36517484173E+01 -0.33348983356E+02 -0.56119698319E+03  0.56219884729E+03  0.00000000000E+00 0.  1.
          1    1    3    3  501    0  0.43391187835E+00 -0.11474046378E+02 -0.20217057825E+03  0.20249638202E+03  0.00000000000E+00 0.  1.
         -3    1    1    2    0  502  0.32178365390E+01  0.44823029735E+02 -0.23382906315E+03  0.23810814610E+03  0.00000000000E+00 0. -1.
<mgrwt>
<rscale>  1 0.30000000E+03</rscale>
<asrwt>0</asrwt>
<pdfrwt beam="1">  1       21 0.10194114E-01 0.30000000E+03</pdfrwt>
<pdfrwt beam="2">0</pdfrwt>
<totfact> 0.83125063E+03</totfact>
</mgrwt>
</event>
<event>
 6    1  0.1270461E-001  0.3000000E+03  0.7818608E-02  0.1093470E+00
         21   -1    0    0  501  502  0.00000000000E+00  0.00000000000E+00  0.13717237290E+01  0.13717237290E+01  0.00000000000E+00 0. -1.
         13   -1    0    0    0    0 -0.00000000000E+00 -0.00000000000E+00 -0.10000000000E+04  0.10000000000E+04  0.00000000000E+00 0.  1.
    9000005    2    1    2  501    0 -0.29999767008E+02  0.89482231451E+01 -0.75687711152E+03  0.75760199145E+03  0.10851671985E+02 0.  0.
         13    1    3    3    0    0 -0.13141370768E+02  0.65260464474E+01 -0.46243232393E+03  0.46266503987E+03  0.00000000000E+00 0.  1.
          3    1    3    3  501    0 -0.16858396239E+02  0.24221766977E+01 -0.29444478759E+03  0.29493695157E+03  0.00000000000E+00 0.  1.
         -3    1    1    2    0  502  0.29999767008E+02 -0.89482231451E+01 -0.24175116475E+03  0.24376973228E+03  0.00000000000E+00 0. -1.
<mgrwt>
<rscale>  1 0.30000000E+03</rscale>
<asrwt>0</asrwt>
<pdfrwt beam="1">  1       21 0.49880968E-02 0.30000000E+03</pdfrwt>
<pdfrwt beam="2">0</pdfrwt>
<totfact> 0.28921925E+04</totfact>
</mgrwt>
</event>
<event>
 6    1  0.1270461E-001  0.3000000E+03  0.7818608E-02  0.1093470E+00
         21   -1    0    0  501  502  0.00000000000E+00  0.00000000000E+00  0.12020867017E+01  0.12020867017E+01  0.00000000000E+00 0. -1.
         13   -1    0    0    0    0 -0.00000000000E+00 -0.00000000000E+00 -0.10000000000E+04  0.10000000000E+04  0.00000000000E+00 0.  1.
    9000005    2    1    2  501    0 -0.21863150226E+02 -0.26480158967E+02 -0.43873270996E+03  0.44008513976E+03  0.30566796472E+01 0.  0.
         13    1    3    3    0    0 -0.91455215307E+01 -0.11044384827E+02 -0.16424654578E+03  0.16487130375E+03  0.00000000000E+00 0.  1.
          3    1    3    3  501    0 -0.12717628695E+02 -0.15435774140E+02 -0.27448616418E+03  0.27521383601E+03  0.00000000000E+00 0.  1.
         -3    1    1    2    0  502  0.21863150226E+02  0.26480158967E+02 -0.56006520334E+03  0.56111694694E+03  0.00000000000E+00 0. -1.
<mgrwt>
<rscale>  1 0.30000000E+03</rscale>
<asrwt>0</asrwt>
<pdfrwt beam="1">  1       21 0.43712336E-02 0.30000000E+03</pdfrwt>
<pdfrwt beam="2">0</pdfrwt>
<totfact> 0.36196267E+04</totfact>
</mgrwt>
</event>
<event>
 6    1  0.1270461E-001  0.3000000E+03  0.7818608E-02  0.1093470E+00
         21   -1    0    0  501  502  0.00000000000E+00  0.00000000000E+00  0.17551690004E+01  0.17551690004E+01  0.00000000000E+00 0. -1.
         13   -1    0    0    0    0 -0.00000000000E+00 -0.00000000000E+00 -0.10000000000E+04  0.10000000000E+04  0.00000000000E+00 0.  1.
    9000005    2    1    2  501    0 -0.17620245703E+02 -0.29671766727E+02 -0.78258468554E+03  0.78335144848E+03  0.31328881234E+01 0.  0.
         13    1    3    3    0    0 -0.16657395675E+02 -0.27506369316E+02 -0.70951079514E+03  0.71023914114E+03  0.00000000000E+00 0.  1.
          3    1    3    3  501    0 -0.96285002787E+00 -0.21653974110E+01 -0.73073890402E+02  0.73112307341E+02  0.00000000000E+00 0.  1.
         -3    1    1    2    0  502  0.17620245703E+02  0.29671766727E+02 -0.21566014546E+03  0.21840372052E+03  0.00000000000E+00 0. -1.
<mgrwt>
<rscale>  1 0.30000000E+03</rscale>
<asrwt>0</asrwt>
<pdfrwt beam="1">  1       21 0.63824462E-02 0.30000000E+03</pdfrwt>
<pdfrwt beam="2">0</pdfrwt>
<totfact> 0.18938838E+04</totfact>
</mgrwt>
</event>
<event>
 6    1  0.1270461E-001  0.3000000E+03  0.7818608E-02  0.1093470E+00
         21   -1    0    0  501  502  0.00000000000E+00  0.00000000000E+00  0.42519782876E+01  0.42519782876E+01  0.00000000000E+00 0. -1.
         13   -1    0    0    0    0 -0.00000000000E+00 -0.00000000000E+00 -0.10000000000E+04  0.10000000000E+04  0.00000000000E+00 0.  1.
    9000005    2    1    2  501    0 -0.23684112942E+02  0.42892456108E+02 -0.82902921688E+03  0.83048241858E+03  0.33022916669E+01 0.  0.
         13    1    3    3    0    0 -0.20142369894E+02  0.38628374410E+02 -0.73657478129E+03  0.73786196189E+03  0.00000000000E+00 0.  1.
          1    1    3    3  501    0 -0.35417430487E+01  0.42640816977E+01 -0.92454435594E+02  0.92620456690E+02  0.00000000000E+00 0.  1.
         -1    1    1    2    0  502  0.23684112942E+02 -0.42892456108E+02 -0.16671880483E+03  0.17376955971E+03  0.00000000000E+00 0. -1.
<mgrwt>
<rscale>  1 0.30000000E+03</rscale>
<asrwt>0</asrwt>
<pdfrwt beam="1">  1       21 0.15461772E-01 0.30000000E+03</pdfrwt>
<pdfrwt beam="2">0</pdfrwt>
<totfact> 0.38928867E+03</totfact>
</mgrwt>
</event>
<event>
 6    1  0.1270461E-001  0.3000000E+03  0.7818608E-02  0.1093470E+00
         21   -1    0    0  501  502  0.00000000000E+00  0.00000000000E+00  0.64320599910E+01  0.64320599910E+01  0.00000000000E+00 0. -1.
         13   -1    0    0    0    0 -0.00000000000E+00 -0.00000000000E+00 -0.10000000000E+04  0.10000000000E+04  0.00000000000E+00 0.  1.
    9000005    2    1    2  501    0 -0.39391644901E+02 -0.75343947847E+01 -0.93247498827E+03  0.93335116272E+03  0.51303432315E+01 0.  0.
         13    1    3    3    0    0 -0.61054369339E+01  0.50365510031E+00 -0.12375523669E+03  0.12390677398E+03  0.00000000000E+00 0.  1.
          1    1    3    3  501    0 -0.33286207967E+02 -0.80380498850E+01 -0.80871975158E+03  0.80944438875E+03  0.00000000000E+00 0.  1.
         -3    1    1    2    0  502  0.39391644901E+02  0.75343947847E+01 -0.61092951741E+02  0.73080897266E+02  0.00000000000E+00 0. -1.
<mgrwt>
<rscale>  1 0.30000000E+03</rscale>
<asrwt>0</asrwt>
<pdfrwt beam="1">  1       21 0.23389358E-01 0.30000000E+03</pdfrwt>
<pdfrwt beam="2">0</pdfrwt>
<totfact> 0.17755966E+03</totfact>
</mgrwt>
</event>
<event>
 6    1  0.1270461E-001  0.3000000E+03  0.7818608E-02  0.1093470E+00
         21   -1    0    0  501  502  0.00000000000E+00  0.00000000000E+00  0.10585887412E+01  0.10585887412E+01  0.00000000000E+00 0. -1.
         13   -1    0    0    0    0 -0.00000000000E+00 -0.00000000000E+00 -0.10000000000E+04  0.10000000000E+04  0.00000000000E+00 0.  1.
    9000005    2    1    2  501    0 -0.11657247947E+02 -0.27865470876E+02 -0.68302267560E+03  0.68369913412E+03  0.34863615232E+01 0.  0.
         13    1    3    3    0    0 -0.52156214690E+01 -0.16307880456E+02 -0.40513458620E+03  0.40549621775E+03  0.00000000000E+00 0.  1.
          3    1    3    3  501    0 -0.64416264776E+01 -0.11557590419E+02 -0.27788808939E+03  0.27820291637E+03  0.00000000000E+00 0.  1.
         -1    1    1    2    0  502  0.11657247947E+02  0.27865470876E+02 -0.31591873566E+03  0.31735945462E+03  0.00000000000E+00 0. -1.
<mgrwt>
<rscale>  1 0.30000000E+03</rscale>
<asrwt>0</asrwt>
<pdfrwt beam="1">  1       21 0.38494217E-02 0.30000000E+03</pdfrwt>
<pdfrwt beam="2">0</pdfrwt>
<totfact> 0.44851422E+04</totfact>
</mgrwt>
</event>
<event>
 6    1  0.1270461E-001  0.3000000E+03  0.7818608E-02  0.1093470E+00
         21   -1    0    0  501  502  0.00000000000E+00  0.00000000000E+00  0.18926304774E+02  0.18926304774E+02  0.00000000000E+00 0. -1.
         13   -1    0    0    0    0 -0.00000000000E+00 -0.00000000000E+00 -0.10000000000E+04  0.10000000000E+04  0.00000000000E+00 0.  1.
    9000005    2    1    2  501    0 -0.40064785894E+02 -0.69020504917E+02 -0.90549362239E+03  0.90901104388E+03  0.36552071116E+01 0.  0.
         13    1    3    3    0    0 -0.23950733520E+02 -0.37955024362E+02 -0.50042676939E+03  0.50243524262E+03  0.00000000000E+00 0.  1.
          1    1    3    3  501    0 -0.16114052374E+02 -0.31065480555E+02 -0.40506685300E+03  0.40657580125E+03  0.00000000000E+00 0.  1.
         -3    1    1    2    0  502  0.40064785894E+02  0.69020504917E+02 -0.75580072839E+02  0.10991526090E+03  0.00000000000E+00 0. -1.
<mgrwt>
<rscale>  1 0.30000000E+03</rscale>
<asrwt>0</asrwt>
<pdfrwt beam="1">  1       21 0.68823072E-01 0.30000000E+03</pdfrwt>
<pdfrwt beam="2">0</pdfrwt>
<totfact> 0.18353191E+02</totfact>
</mgrwt>
</event>
<event>
 6    1  0.1270461E-001  0.3000000E+03  0.7818608E-02  0.1093470E+00
         21   -1    0    0  501  502  0.00000000000E+00  0.00000000000E+00  0.12750378443E+01  0.12750378443E+01  0.00000000000E+00 0. -1.
         13   -1    0    0    0    0 -0.00000000000E+00 -0.00000000000E+00 -0.10000000000E+04  0.10000000000E+04  0.00000000000E+00 0.  1.
    9000005    2    1    2  501    0 -0.34814542484E+02  0.17489580671E+01 -0.60524656723E+03  0.60625559718E+03  0.27075368961E+01 0.  0.
         13    1    3    3    0    0 -0.26414577526E+02  0.17534985695E+01 -0.47732916259E+03  0.47806268848E+03  0.00000000000E+00 0.  1.
          1    1    3    3  501    0 -0.83999649585E+01 -0.45405024708E-02 -0.12791740464E+03  0.12819290870E+03  0.00000000000E+00 0.  1.
         -3    1    1    2    0  502  0.34814542484E+02 -0.17489580671E+01 -0.39347839493E+03  0.39501944066E+03  0.00000000000E+00 0. -1.
<mgrwt>
<rscale>  1 0.30000000E+03</rscale>
<asrwt>0</asrwt>
<pdfrwt beam="1">  1       21 0.46365110E-02 0.30000000E+03</pdfrwt>
<pdfrwt beam="2">0</pdfrwt>
<totfact> 0.32752830E+04</totfact>
</mgrwt>
</event>
<event>
 6    1  0.1270461E-001  0.3000000E+03  0.7818608E-02  0.1093470E+00
         21   -1    0    0  501  502  0.00000000000E+00  0.00000000000E+00  0.26469624834E+01  0.26469624834E+01  0.00000000000E+00 0. -1.
         13   -1    0    0    0    0 -0.00000000000E+00 -0.00000000000E+00 -0.10000000000E+04  0.10000000000E+04  0.00000000000E+00 0.  1.
    9000005    2    1    2  501    0 -0.34018211895E+02 -0.18995779517E+02 -0.17258307324E+03  0.17695720698E+03  0.32950798388E+01 0.  0.
         13    1    3    3    0    0 -0.29260884080E+02 -0.17555490630E+02 -0.14943582719E+03  0.15328229199E+03  0.00000000000E+00 0.  1.
          3    1    3    3  501    0 -0.47573278151E+01 -0.14402888874E+01 -0.23147246048E+02  0.23674914987E+02  0.00000000000E+00 0.  1.
         -1    1    1    2    0  502  0.34018211895E+02  0.18995779517E+02 -0.82476996427E+03  0.82568975551E+03  0.00000000000E+00 0. -1.
<mgrwt>
<rscale>  1 0.30000000E+03</rscale>
<asrwt>0</asrwt>
<pdfrwt beam="1">  1       21 0.96253384E-02 0.30000000E+03</pdfrwt>
<pdfrwt beam="2">0</pdfrwt>
<totfact> 0.92100246E+03</totfact>
</mgrwt>
</event>
<event>
 6    1  0.1270461E-001  0.3000000E+03  0.7818608E-02  0.1093470E+00
         21   -1    0    0  501  502  0.00000000000E+00  0.00000000000E+00  0.45370749674E+01  0.45370749674E+01  0.00000000000E+00 0. -1.
         13   -1    0    0    0    0 -0.00000000000E+00 -0.00000000000E+00 -0.10000000000E+04  0.10000000000E+04  0.00000000000E+00 0.  1.
    9000005    2    1    2  501    0 -0.31249364905E+02 -0.19243004888E+02 -0.91887791689E+03  0.91961311183E+03  0.21984635763E+01 0.  0.
         13    1    3    3    0    0 -0.20712222746E+02 -0.12180478732E+02 -0.57787329397E+03  0.57837263431E+03  0.00000000000E+00 0.  1.
          1    1    3    3  501    0 -0.10537142159E+02 -0.70625261559E+01 -0.34100462293E+03  0.34124047752E+03  0.00000000000E+00 0.  1.
         -3    1    1    2    0  502  0.31249364905E+02  0.19243004888E+02 -0.76585008138E+02  0.84923963141E+02  0.00000000000E+00 0. -1.
<mgrwt>
<rscale>  1 0.30000000E+03</rscale>
<asrwt>0</asrwt>
<pdfrwt beam="1">  1       21 0.16498489E-01 0.30000000E+03</pdfrwt>
<pdfrwt beam="2">0</pdfrwt>
<totfact> 0.34494217E+03</totfact>
</mgrwt>
</event>
<event>
 6    1  0.1270461E-001  0.3000000E+03  0.7818608E-02  0.1093470E+00
         21   -1    0    0  501  502  0.00000000000E+00  0.00000000000E+00  0.43090712743E+01  0.43090712743E+01  0.00000000000E+00 0. -1.
         13   -1    0    0    0    0 -0.00000000000E+00 -0.00000000000E+00 -0.10000000000E+04  0.10000000000E+04  0.00000000000E+00 0.  1.
    9000005    2    1    2  501    0  0.18174868837E+02 -0.56891442052E+02 -0.29535978611E+03  0.30143591675E+03  0.76971825397E+01 0.  0.
         13    1    3    3    0    0  0.81379435230E+01 -0.24463558865E+02 -0.10879634845E+03  0.11180937919E+03  0.00000000000E+00 0.  1.
          3    1    3    3  501    0  0.10036925314E+02 -0.32427883186E+02 -0.18656343766E+03  0.18962653756E+03  0.00000000000E+00 0.  1.
         -3    1    1    2    0  502 -0.18174868837E+02  0.56891442052E+02 -0.70033114261E+03  0.70287315452E+03  0.00000000000E+00 0. -1.
<mgrwt>
<rscale>  1 0.30000000E+03</rscale>
<asrwt>0</asrwt>
<pdfrwt beam="1">  1       21 0.15669383E-01 0.30000000E+03</pdfrwt>
<pdfrwt beam="2">0</pdfrwt>
<totfact> 0.37975151E+03</totfact>
</mgrwt>
</event>
<event>
 6    1  0.1270461E-001  0.3000000E+03  0.7818608E-02  0.1093470E+00
         21   -1    0    0  501  502  0.00000000000E+00  0.00000000000E+00  0.35380962351E+01  0.35380962351E+01  0.00000000000E+00 0. -1.
         13   -1    0    0    0    0 -0.00000000000E+00 -0.00000000000E+00 -0.10000000000E+04  0.10000000000E+04  0.00000000000E+00 0.  1.
    9000005    2    1    2  501    0  0.14707483906E+02  0.45397319130E+02 -0.79746625948E+03  0.79890062872E+03  0.35430060295E+01 0.  0.
         13    1    3    3    0    0  0.13004741098E+02  0.38973022717E+02 -0.70461474027E+03  0.70581155559E+03  0.00000000000E+00 0.  1.
          3    1    3    3  501    0  0.17027428083E+01  0.64242964125E+01 -0.92851519205E+02  0.93089073130E+02  0.00000000000E+00 0.  1.
         -3    1    1    2    0  502 -0.14707483906E+02 -0.45397319130E+02 -0.19899564429E+03  0.20463746752E+03  0.00000000000E+00 0. -1.
<mgrwt>
<rscale>  1 0.30000000E+03</rscale>
<asrwt>0</asrwt>
<pdfrwt beam="1">  1       21 0.12865832E-01 0.30000000E+03</pdfrwt>
<pdfrwt beam="2">0</pdfrwt>
<totfact> 0.54589325E+03</totfact>
</mgrwt>
</event>
<event>
 6    1  0.1270461E-001  0.3000000E+03  0.7818608E-02  0.1093470E+00
         21   -1    0    0  501  502  0.00000000000E+00  0.00000000000E+00  0.52635501238E+01  0.52635501238E+01  0.00000000000E+00 0. -1.
         13   -1    0    0    0    0 -0.00000000000E+00 -0.00000000000E+00 -0.10000000000E+04  0.10000000000E+04  0.00000000000E+00 0.  1.
    9000005    2    1    2  501    0 -0.51541328984E+02  0.36824361630E+01 -0.84985019783E+03  0.85143866605E+03  0.56898467883E+01 0.  0.
         13    1    3    3    0    0 -0.22430932692E+02  0.20824256960E+00 -0.32872693937E+03  0.32949141229E+03  0.00000000000E+00 0.  1.
          1    1    3    3  501    0 -0.29110396292E+02  0.34741935934E+01 -0.52112325846E+03  0.52194725376E+03  0.00000000000E+00 0.  1.
         -3    1    1    2    0  502  0.51541328984E+02 -0.36824361630E+01 -0.14488625204E+03  0.15382488407E+03  0.00000000000E+00 0. -1.
<mgrwt>
<rscale>  1 0.30000000E+03</rscale>
<asrwt>0</asrwt>
<pdfrwt beam="1">  1       21 0.19140223E-01 0.30000000E+03</pdfrwt>
<pdfrwt beam="2">0</pdfrwt>
<totfact> 0.26084628E+03</totfact>
</mgrwt>
</event>
<event>
 6    1  0.1270461E-001  0.3000000E+03  0.7818608E-02  0.1093470E+00
         21   -1    0    0  501  502  0.00000000000E+00  0.00000000000E+00  0.26235481291E+01  0.26235481291E+01  0.00000000000E+00 0. -1.
         13   -1    0    0    0    0 -0.00000000000E+00 -0.00000000000E+00 -0.10000000000E+04  0.10000000000E+04  0.00000000000E+00 0.  1.
    9000005    2    1    2  501    0 -0.29902781650E+02  0.47223268893E+01 -0.90288430677E+03  0.90340035423E+03  0.39562471195E+01 0.  0.
         13    1    3    3    0    0 -0.17834306608E+02  0.35747665919E+01 -0.59340333907E+03  0.59368203970E+03  0.00000000000E+00 0.  1.
          1    1    3    3  501    0 -0.12068475042E+02  0.11475602974E+01 -0.30948096770E+03  0.30971831452E+03  0.00000000000E+00 0.  1.
         -1    1    1    2    0  502  0.29902781650E+02 -0.47223268893E+01 -0.94492145105E+02  0.99223193902E+02  0.00000000000E+00 0. -1.
<mgrwt>
<rscale>  1 0.30000000E+03</rscale>
<asrwt>0</asrwt>
<pdfrwt beam="1">  1       21 0.95401951E-02 0.30000000E+03</pdfrwt>
<pdfrwt beam="2">0</pdfrwt>
<totfact> 0.93570659E+03</totfact>
</mgrwt>
</event>
<event>
 6    1  0.1270461E-001  0.3000000E+03  0.7818608E-02  0.1093470E+00
         21   -1    0    0  501  502  0.00000000000E+00  0.00000000000E+00  0.30483805971E+01  0.30483805971E+01  0.00000000000E+00 0. -1.
         13   -1    0    0    0    0 -0.00000000000E+00 -0.00000000000E+00 -0.10000000000E+04  0.10000000000E+04  0.00000000000E+00 0.  1.
    9000005    2    1    2  501    0  0.32280055669E+02 -0.16046274602E+02 -0.87820990886E+03  0.87895535603E+03  0.32231906741E+01 0.  0.
         13    1    3    3    0    0  0.25073211401E+02 -0.11377968549E+02 -0.69204200246E+03  0.69258953014E+03  0.00000000000E+00 0.  1.
          1    1    3    3  501    0  0.72068442684E+01 -0.46683060525E+01 -0.18616790640E+03  0.18636582589E+03  0.00000000000E+00 0.  1.
         -3    1    1    2    0  502 -0.32280055669E+02  0.16046274602E+02 -0.11874171054E+03  0.12409302456E+03  0.00000000000E+00 0. -1.
<mgrwt>
<rscale>  1 0.30000000E+03</rscale>
<asrwt>0</asrwt>
<pdfrwt beam="1">  1       21 0.11085044E-01 0.30000000E+03</pdfrwt>
<pdfrwt beam="2">0</pdfrwt>
<totfact> 0.71521984E+03</totfact>
</mgrwt>
</event>
<event>
 6    1  0.1270461E-001  0.3000000E+03  0.7818608E-02  0.1093470E+00
         21   -1    0    0  501  502  0.00000000000E+00  0.00000000000E+00  0.27649429170E+01  0.27649429170E+01  0.00000000000E+00 0. -1.
         13   -1    0    0    0    0 -0.00000000000E+00 -0.00000000000E+00 -0.10000000000E+04  0.10000000000E+04  0.00000000000E+00 0.  1.
    9000005    2    1    2  501    0  0.36930158862E+02  0.36586857696E+02 -0.57105696365E+03  0.57342800984E+03  0.33454350698E+01 0.  0.
         13    1    3    3    0    0  0.20016180122E+02  0.18156383877E+02 -0.30945944279E+03  0.31063716531E+03  0.00000000000E+00 0.  1.
          3    1    3    3  501    0  0.16913978740E+02  0.18430473819E+02 -0.26159752086E+03  0.26279084452E+03  0.00000000000E+00 0.  1.
         -1    1    1    2    0  502 -0.36930158862E+02 -0.36586857696E+02 -0.42617809343E+03  0.42933693308E+03  0.00000000000E+00 0. -1.
<mgrwt>
<rscale>  1 0.30000000E+03</rscale>
<asrwt>0</asrwt>
<pdfrwt beam="1">  1       21 0.10054359E-01 0.30000000E+03</pdfrwt>
<pdfrwt beam="2">0</pdfrwt>
<totfact> 0.85202494E+03</totfact>
</mgrwt>
</event>
<event>
 6    1  0.1270461E-001  0.3000000E+03  0.7818608E-02  0.1093470E+00
         21   -1    0    0  501  502  0.00000000000E+00  0.00000000000E+00  0.18012576872E+01  0.18012576872E+01  0.00000000000E+00 0. -1.
         13   -1    0    0    0    0 -0.00000000000E+00 -0.00000000000E+00 -0.10000000000E+04  0.10000000000E+04  0.00000000000E+00 0.  1.
    9000005    2    1    2  501    0 -0.55648159754E+01  0.34534033712E+02 -0.78222338215E+03  0.78301158047E+03  0.31857337953E+01 0.  0.
         13    1    3    3    0    0 -0.28412520815E+01  0.24976751730E+02 -0.57870525070E+03  0.57925096291E+03  0.00000000000E+00 0.  1.
          3    1    3    3  501    0 -0.27235638940E+01  0.95572819818E+01 -0.20351813145E+03  0.20376061756E+03  0.00000000000E+00 0.  1.
         -3    1    1    2    0  502  0.55648159754E+01 -0.34534033712E+02 -0.21597536016E+03  0.21878967722E+03  0.00000000000E+00 0. -1.
<mgrwt>
<rscale>  1 0.30000000E+03</rscale>
<asrwt>0</asrwt>
<pdfrwt beam="1">  1       21 0.65500418E-02 0.30000000E+03</pdfrwt>
<pdfrwt beam="2">0</pdfrwt>
<totfact> 0.18107940E+04</totfact>
</mgrwt>
</event>
<event>
 6    1  0.1270461E-001  0.3000000E+03  0.7818608E-02  0.1093470E+00
         21   -1    0    0  501  502  0.00000000000E+00  0.00000000000E+00  0.12873014347E+01  0.12873014347E+01  0.00000000000E+00 0. -1.
         13   -1    0    0    0    0 -0.00000000000E+00 -0.00000000000E+00 -0.10000000000E+04  0.10000000000E+04  0.00000000000E+00 0.  1.
    9000005    2    1    2  501    0  0.92466234311E+00  0.32868731475E+02 -0.69846574289E+03  0.69924518036E+03  0.28670124951E+01 0.  0.
         13    1    3    3    0    0  0.16718528565E+01  0.25298221567E+02 -0.55226186503E+03  0.55284352458E+03  0.00000000000E+00 0.  1.
          1    1    3    3  501    0 -0.74719051342E+00  0.75705099088E+01 -0.14620387786E+03  0.14640165578E+03  0.00000000000E+00 0.  1.
         -1    1    1    2    0  502 -0.92466234311E+00 -0.32868731475E+02 -0.30024695568E+03  0.30204212108E+03  0.00000000000E+00 0. -1.
<mgrwt>
<rscale>  1 0.30000000E+03</rscale>
<asrwt>0</asrwt>
<pdfrwt beam="1">  1       21 0.46811060E-02 0.30000000E+03</pdfrwt>
<pdfrwt beam="2">0</pdfrwt>
<totfact> 0.32224257E+04</totfact>
</mgrwt>
</event>
<event>
 6    1  0.1270461E-001  0.3000000E+03  0.7818608E-02  0.1093470E+00
         21   -1    0    0  501  502  0.00000000000E+00  0.00000000000E+00  0.59940343771E+01  0.59940343771E+01  0.00000000000E+00 0. -1.
         13   -1    0    0    0    0 -0.00000000000E+00 -0.00000000000E+00 -0.10000000000E+04  0.10000000000E+04  0.00000000000E+00 0.  1.
    9000005    2    1    2  501    0  0.83388652534E+01  0.61014995471E+02 -0.80170866596E+03  0.80407668048E+03  0.31869538749E+01 0.  0.
         13    1    3    3    0    0  0.50350084058E+01  0.26019425003E+02 -0.33701642971E+03  0.33805685274E+03  0.00000000000E+00 0.  1.
          1    1    3    3  501    0  0.33038568476E+01  0.34995570468E+02 -0.46469223625E+03  0.46601982774E+03  0.00000000000E+00 0.  1.
         -1    1    1    2    0  502 -0.83388652534E+01 -0.61014995471E+02 -0.19229729966E+03  0.20191735389E+03  0.00000000000E+00 0. -1.
<mgrwt>
<rscale>  1 0.30000000E+03</rscale>
<asrwt>0</asrwt>
<pdfrwt beam="1">  1       21 0.21796535E-01 0.30000000E+03</pdfrwt>
<pdfrwt beam="2">0</pdfrwt>
<totfact> 0.20346518E+03</totfact>
</mgrwt>
</event>
<event>
 6    1  0.1270461E-001  0.3000000E+03  0.7818608E-02  0.1093470E+00
         21   -1    0    0  501  502  0.00000000000E+00  0.00000000000E+00  0.11450941426E+01  0.11450941426E+01  0.00000000000E+00 0. -1.
         13   -1    0    0    0    0 -0.00000000000E+00 -0.00000000000E+00 -0.10000000000E+04  0.10000000000E+04  0.00000000000E+00 0.  1.
    9000005    2    1    2  501    0 -0.35200415297E+00 -0.30972107405E+02 -0.69960222624E+03  0.70029369960E+03  0.29317889144E+01 0.  0.
         13    1    3    3    0    0 -0.10556215942E+01 -0.21051476133E+02 -0.44988177921E+03  0.45037528157E+03  0.00000000000E+00 0.  1.
          1    1    3    3  501    0  0.70361744127E+00 -0.99206312724E+01 -0.24972044703E+03  0.24991841803E+03  0.00000000000E+00 0.  1.
         -1    1    1    2    0  502  0.35200415297E+00  0.30972107405E+02 -0.29925267961E+03  0.30085139455E+03  0.00000000000E+00 0. -1.
<mgrwt>
<rscale>  1 0.30000000E+03</rscale>
<asrwt>0</asrwt>
<pdfrwt beam="1">  1       21 0.41639875E-02 0.30000000E+03</pdfrwt>
<pdfrwt beam="2">0</pdfrwt>
<totfact> 0.39293563E+04</totfact>
</mgrwt>
</event>
<event>
 6    1  0.1270461E-001  0.3000000E+03  0.7818608E-02  0.1093470E+00
         21   -1    0    0  501  502  0.00000000000E+00  0.00000000000E+00  0.14069842499E+01  0.14069842499E+01  0.00000000000E+00 0. -1.
         13   -1    0    0    0    0 -0.00000000000E+00 -0.00000000000E+00 -0.10000000000E+04  0.10000000000E+04  0.00000000000E+00 0.  1.
    9000005    2    1    2  501    0  0.24573018264E+00  0.34853959802E+02 -0.68095610043E+03  0.68186345221E+03  0.46580944374E+01 0.  0.
         13    1    3    3    0    0 -0.17882786156E+01  0.25860596125E+02 -0.51266532559E+03  0.51332027472E+03  0.00000000000E+00 0.  1.
          3    1    3    3  501    0  0.20340087983E+01  0.89933636774E+01 -0.16829077484E+03  0.16854317749E+03  0.00000000000E+00 0.  1.
         -3    1    1    2    0  502 -0.24573018264E+00 -0.34853959802E+02 -0.31763691532E+03  0.31954353204E+03  0.00000000000E+00 0. -1.
<mgrwt>
<rscale>  1 0.30000000E+03</rscale>
<asrwt>0</asrwt>
<pdfrwt beam="1">  1       21 0.51163172E-02 0.30000000E+03</pdfrwt>
<pdfrwt beam="2">0</pdfrwt>
<totfact> 0.27696623E+04</totfact>
</mgrwt>
</event>
<event>
 6    1  0.1270461E-001  0.3000000E+03  0.7818608E-02  0.1093470E+00
         21   -1    0    0  501  502  0.00000000000E+00  0.00000000000E+00  0.19292690792E+01  0.19292690792E+01  0.00000000000E+00 0. -1.
         13   -1    0    0    0    0 -0.00000000000E+00 -0.00000000000E+00 -0.10000000000E+04  0.10000000000E+04  0.00000000000E+00 0.  1.
    9000005    2    1    2  501    0  0.10537054162E+02  0.41760142583E+02 -0.57819407144E+03  0.57984948018E+03  0.78801268752E+01 0.  0.
         13    1    3    3    0    0  0.35074732207E+01  0.64388153573E+01 -0.70711019312E+02  0.71090146741E+02  0.00000000000E+00 0.  1.
          1    1    3    3  501    0  0.70295809414E+01  0.35321327226E+02 -0.50748305212E+03  0.50875933344E+03  0.00000000000E+00 0.  1.
         -1    1    1    2    0  502 -0.10537054162E+02 -0.41760142583E+02 -0.41987665948E+03  0.42207978890E+03  0.00000000000E+00 0. -1.
<mgrwt>
<rscale>  1 0.30000000E+03</rscale>
<asrwt>0</asrwt>
<pdfrwt beam="1">  1       21 0.70155387E-02 0.30000000E+03</pdfrwt>
<pdfrwt beam="2">0</pdfrwt>
<totfact> 0.16073136E+04</totfact>
</mgrwt>
</event>
<event>
 6    1  0.1270461E-001  0.3000000E+03  0.7818608E-02  0.1093470E+00
         21   -1    0    0  501  502  0.00000000000E+00  0.00000000000E+00  0.46854429536E+01  0.46854429536E+01  0.00000000000E+00 0. -1.
         13   -1    0    0    0    0 -0.00000000000E+00 -0.00000000000E+00 -0.10000000000E+04  0.10000000000E+04  0.00000000000E+00 0.  1.
    9000005    2    1    2  501    0 -0.44263857898E+02  0.42148500672E+02 -0.72345901243E+03  0.72604369740E+03  0.32745453605E+01 0.  0.
         13    1    3    3    0    0 -0.28399858269E+02  0.26358328101E+02 -0.44054466265E+03  0.44224530884E+03  0.00000000000E+00 0.  1.
          3    1    3    3  501    0 -0.15863999630E+02  0.15790172571E+02 -0.28291434978E+03  0.28379838856E+03  0.00000000000E+00 0.  1.
         -1    1    1    2    0  502  0.44263857898E+02 -0.42148500672E+02 -0.27185554462E+03  0.27864174555E+03  0.00000000000E+00 0. -1.
<mgrwt>
<rscale>  1 0.30000000E+03</rscale>
<asrwt>0</asrwt>
<pdfrwt beam="1">  1       21 0.17038010E-01 0.30000000E+03</pdfrwt>
<pdfrwt beam="2">0</pdfrwt>
<totfact> 0.32479049E+03</totfact>
</mgrwt>
</event>
<event>
 6    1  0.1270461E-001  0.3000000E+03  0.7818608E-02  0.1093470E+00
         21   -1    0    0  501  502  0.00000000000E+00  0.00000000000E+00  0.14868229921E+01  0.14868229921E+01  0.00000000000E+00 0. -1.
         13   -1    0    0    0    0 -0.00000000000E+00 -0.00000000000E+00 -0.10000000000E+04  0.10000000000E+04  0.00000000000E+00 0.  1.
    9000005    2    1    2  501    0  0.78389638345E+00 -0.33813444992E+02 -0.26167456942E+03  0.26387235921E+03  0.33283803164E+01 0.  0.
         13    1    3    3    0    0  0.15052742794E+01 -0.84326135593E+01 -0.70847137265E+02  0.71363097471E+02  0.00000000000E+00 0.  1.
          1    1    3    3  501    0 -0.72137789599E+00 -0.25380831433E+02 -0.19082743216E+03  0.19250926174E+03  0.00000000000E+00 0.  1.
         -1    1    1    2    0  502 -0.78389638345E+00  0.33813444992E+02 -0.73683860758E+03  0.73761446378E+03  0.00000000000E+00 0. -1.
<mgrwt>
<rscale>  1 0.30000000E+03</rscale>
<asrwt>0</asrwt>
<pdfrwt beam="1">  1       21 0.54066405E-02 0.30000000E+03</pdfrwt>
<pdfrwt beam="2">0</pdfrwt>
<totfact> 0.25202793E+04</totfact>
</mgrwt>
</event>
<event>
 6    1  0.1270461E-001  0.3000000E+03  0.7818608E-02  0.1093470E+00
         21   -1    0    0  501  502  0.00000000000E+00  0.00000000000E+00  0.15421062363E+01  0.15421062363E+01  0.00000000000E+00 0. -1.
         13   -1    0    0    0    0 -0.00000000000E+00 -0.00000000000E+00 -0.10000000000E+04  0.10000000000E+04  0.00000000000E+00 0.  1.
    9000005    2    1    2  501    0 -0.19578682919E+02 -0.25466128673E+02 -0.78672180373E+03  0.78738323914E+03  0.30529126009E+01 0.  0.
         13    1    3    3    0    0 -0.21940080209E+01 -0.37473879825E+01 -0.86305691778E+02  0.86414865742E+02  0.00000000000E+00 0.  1.
          1    1    3    3  501    0 -0.17384674898E+02 -0.21718740690E+02 -0.70041611195E+03  0.70096837340E+03  0.00000000000E+00 0.  1.
         -3    1    1    2    0  502  0.19578682919E+02  0.25466128673E+02 -0.21173609003E+03  0.21415886710E+03  0.00000000000E+00 0. -1.
<mgrwt>
<rscale>  1 0.30000000E+03</rscale>
<asrwt>0</asrwt>
<pdfrwt beam="1">  1       21 0.56076709E-02 0.30000000E+03</pdfrwt>
<pdfrwt beam="2">0</pdfrwt>
<totfact> 0.23673351E+04</totfact>
</mgrwt>
</event>
<event>
 6    1  0.1270461E-001  0.3000000E+03  0.7818608E-02  0.1093470E+00
         21   -1    0    0  501  502  0.00000000000E+00  0.00000000000E+00  0.56914373310E+01  0.56914373310E+01  0.00000000000E+00 0. -1.
         13   -1    0    0    0    0 -0.00000000000E+00 -0.00000000000E+00 -0.10000000000E+04  0.10000000000E+04  0.00000000000E+00 0.  1.
    9000005    2    1    2  501    0 -0.34894627690E+02 -0.26994470063E+02 -0.90498244324E+03  0.90606467351E+03  0.36923664192E+01 0.  0.
         13    1    3    3    0    0  0.93007937146E-01 -0.52520131548E-01 -0.30388845152E+01  0.30407610786E+01  0.00000000000E+00 0.  1.
          1    1    3    3  501    0 -0.34987635627E+02 -0.26941949932E+02 -0.90194355872E+03  0.90302391244E+03  0.00000000000E+00 0.  1.
         -1    1    1    2    0  502  0.34894627690E+02  0.26994470063E+02 -0.89326119433E+02  0.99626763817E+02  0.00000000000E+00 0. -1.
<mgrwt>
<rscale>  1 0.30000000E+03</rscale>
<asrwt>0</asrwt>
<pdfrwt beam="1">  1       21 0.20696179E-01 0.30000000E+03</pdfrwt>
<pdfrwt beam="2">0</pdfrwt>
<totfact> 0.22472946E+03</totfact>
</mgrwt>
</event>
<event>
 6    1  0.1270461E-001  0.3000000E+03  0.7818608E-02  0.1093470E+00
         21   -1    0    0  501  502  0.00000000000E+00  0.00000000000E+00  0.37540248325E+01  0.37540248325E+01  0.00000000000E+00 0. -1.
         13   -1    0    0    0    0 -0.00000000000E+00 -0.00000000000E+00 -0.10000000000E+04  0.10000000000E+04  0.00000000000E+00 0.  1.
    9000005    2    1    2  501    0  0.28597676854E+02  0.22557229353E+02 -0.90153021448E+03  0.90227628816E+03  0.43722806485E+01 0.  0.
         13    1    3    3    0    0  0.12423890518E+02  0.89507748486E+01 -0.43016123356E+03  0.43043368395E+03  0.00000000000E+00 0.  1.
          1    1    3    3  501    0  0.16173786337E+02  0.13606454505E+02 -0.47136898092E+03  0.47184260420E+03  0.00000000000E+00 0.  1.
         -3    1    1    2    0  502 -0.28597676854E+02 -0.22557229353E+02 -0.94715760690E+02  0.10147773667E+03  0.00000000000E+00 0. -1.
<mgrwt>
<rscale>  1 0.30000000E+03</rscale>
<asrwt>0</asrwt>
<pdfrwt beam="1">  1       21 0.13651028E-01 0.30000000E+03</pdfrwt>
<pdfrwt beam="2">0</pdfrwt>
<totfact> 0.48984235E+03</totfact>
</mgrwt>
</event>
<event>
 6    1  0.1270461E-001  0.3000000E+03  0.7818608E-02  0.1093470E+00
         21   -1    0    0  501  502  0.00000000000E+00  0.00000000000E+00  0.18450251354E+01  0.18450251354E+01  0.00000000000E+00 0. -1.
         13   -1    0    0    0    0 -0.00000000000E+00 -0.00000000000E+00 -0.10000000000E+04  0.10000000000E+04  0.00000000000E+00 0.  1.
    9000005    2    1    2  501    0 -0.35549295157E+02 -0.23008459668E+02 -0.57593663863E+03  0.57750852535E+03  0.44658175300E+01 0.  0.
         13    1    3    3    0    0 -0.44668977522E+01 -0.24495324543E+01 -0.90694033863E+02  0.90837003270E+02  0.00000000000E+00 0.  1.
          1    1    3    3  501    0 -0.31082397405E+02 -0.20558927213E+02 -0.48524260477E+03  0.48667152208E+03  0.00000000000E+00 0.  1.
         -3    1    1    2    0  502  0.35549295157E+02  0.23008459668E+02 -0.42221833623E+03  0.42433649979E+03  0.00000000000E+00 0. -1.
<mgrwt>
<rscale>  1 0.30000000E+03</rscale>
<asrwt>0</asrwt>
<pdfrwt beam="1">  1       21 0.67091965E-02 0.30000000E+03</pdfrwt>
<pdfrwt beam="2">0</pdfrwt>
<totfact> 0.17369799E+04</totfact>
</mgrwt>
</event>
<event>
 6    1  0.1270461E-001  0.3000000E+03  0.7818608E-02  0.1093470E+00
         21   -1    0    0  501  502  0.00000000000E+00  0.00000000000E+00  0.24229999679E+01  0.24229999679E+01  0.00000000000E+00 0. -1.
         13   -1    0    0    0    0 -0.00000000000E+00 -0.00000000000E+00 -0.10000000000E+04  0.10000000000E+04  0.00000000000E+00 0.  1.
    9000005    2    1    2  501    0 -0.27330672458E+01 -0.30293456365E+02 -0.89275371840E+03  0.89327592705E+03  0.27417091691E+01 0.  0.
         13    1    3    3    0    0  0.44798865845E+00 -0.30845640977E+01 -0.80128581251E+02  0.80189181083E+02  0.00000000000E+00 0.  1.
          3    1    3    3  501    0 -0.31810559042E+01 -0.27208892267E+02 -0.81262513715E+03  0.81308674596E+03  0.00000000000E+00 0.  1.
         -1    1    1    2    0  502  0.27330672458E+01  0.30293456365E+02 -0.10482328163E+03  0.10914707292E+03  0.00000000000E+00 0. -1.
<mgrwt>
<rscale>  1 0.30000000E+03</rscale>
<asrwt>0</asrwt>
<pdfrwt beam="1">  1       21 0.88109276E-02 0.30000000E+03</pdfrwt>
<pdfrwt beam="2">0</pdfrwt>
<totfact> 0.10775520E+04</totfact>
</mgrwt>
</event>
<event>
 6    1  0.1270461E-001  0.3000000E+03  0.7818608E-02  0.1093470E+00
         21   -1    0    0  501  502  0.00000000000E+00  0.00000000000E+00  0.10275249062E+01  0.10275249062E+01  0.00000000000E+00 0. -1.
         13   -1    0    0    0    0 -0.00000000000E+00 -0.00000000000E+00 -0.10000000000E+04  0.10000000000E+04  0.00000000000E+00 0.  1.
    9000005    2    1    2  501    0 -0.16999956112E+02  0.26140962085E+02 -0.61006795882E+03  0.61087489941E+03  0.35888631872E+01 0.  0.
         13    1    3    3    0    0 -0.10978021357E+02  0.13989712355E+02 -0.32999083487E+03  0.33046963568E+03  0.00000000000E+00 0.  1.
          1    1    3    3  501    0 -0.60219347547E+01  0.12151249730E+02 -0.28007712395E+03  0.28040526373E+03  0.00000000000E+00 0.  1.
         -1    1    1    2    0  502  0.16999956112E+02 -0.26140962085E+02 -0.38890451627E+03  0.39015262550E+03  0.00000000000E+00 0. -1.
<mgrwt>
<rscale>  1 0.30000000E+03</rscale>
<asrwt>0</asrwt>
<pdfrwt beam="1">  1       21 0.37364621E-02 0.30000000E+03</pdfrwt>
<pdfrwt beam="2">0</pdfrwt>
<totfact> 0.47152762E+04</totfact>
</mgrwt>
</event>
<event>
 6    1  0.1270461E-001  0.3000000E+03  0.7818608E-02  0.1093470E+00
         21   -1    0    0  501  502  0.00000000000E+00  0.00000000000E+00  0.18606719901E+01  0.18606719901E+01  0.00000000000E+00 0. -1.
         13   -1    0    0    0    0 -0.00000000000E+00 -0.00000000000E+00 -0.10000000000E+04  0.10000000000E+04  0.00000000000E+00 0.  1.
    9000005    2    1    2  501    0 -0.33570594033E+02  0.15183750726E+02 -0.75898427972E+03  0.75988408594E+03  0.30259123614E+01 0.  0.
         13    1    3    3    0    0 -0.38859284091E+01  0.19348983532E+01 -0.11116888134E+03  0.11125360421E+03  0.00000000000E+00 0.  1.
          3    1    3    3  501    0 -0.29684665624E+02  0.13248852373E+02 -0.64781539838E+03  0.64863048174E+03  0.00000000000E+00 0.  1.
         -1    1    1    2    0  502  0.33570594033E+02 -0.15183750726E+02 -0.23915504829E+03  0.24197658605E+03  0.00000000000E+00 0. -1.
<mgrwt>
<rscale>  1 0.30000000E+03</rscale>
<asrwt>0</asrwt>
<pdfrwt beam="1">  1       21 0.67660942E-02 0.30000000E+03</pdfrwt>
<pdfrwt beam="2">0</pdfrwt>
<totfact> 0.17117104E+04</totfact>
</mgrwt>
</event>
<event>
 6    1  0.1270461E-001  0.3000000E+03  0.7818608E-02  0.1093470E+00
         21   -1    0    0  501  502  0.00000000000E+00  0.00000000000E+00  0.20160502382E+01  0.20160502382E+01  0.00000000000E+00 0. -1.
         13   -1    0    0    0    0 -0.00000000000E+00 -0.00000000000E+00 -0.10000000000E+04  0.10000000000E+04  0.00000000000E+00 0.  1.
    9000005    2    1    2  501    0 -0.28808045394E+02  0.26193999874E+02 -0.74749344943E+03  0.74851749035E+03  0.39934083750E+01 0.  0.
         13    1    3    3    0    0 -0.63991095930E+01  0.50258160783E+01 -0.18708289326E+03  0.18725975644E+03  0.00000000000E+00 0.  1.
          1    1    3    3  501    0 -0.22408935801E+02  0.21168183796E+02 -0.56041055617E+03  0.56125773391E+03  0.00000000000E+00 0.  1.
         -3    1    1    2    0  502  0.28808045394E+02 -0.26193999874E+02 -0.25049050033E+03  0.25349855989E+03  0.00000000000E+00 0. -1.
<mgrwt>
<rscale>  1 0.30000000E+03</rscale>
<asrwt>0</asrwt>
<pdfrwt beam="1">  1       21 0.73311072E-02 0.30000000E+03</pdfrwt>
<pdfrwt beam="2">0</pdfrwt>
<totfact> 0.14885930E+04</totfact>
</mgrwt>
</event>
<event>
 6    1  0.1270461E-001  0.3000000E+03  0.7818608E-02  0.1093470E+00
         21   -1    0    0  501  502  0.00000000000E+00  0.00000000000E+00  0.21145577692E+01  0.21145577692E+01  0.00000000000E+00 0. -1.
         13   -1    0    0    0    0 -0.00000000000E+00 -0.00000000000E+00 -0.10000000000E+04  0.10000000000E+04  0.00000000000E+00 0.  1.
    9000005    2    1    2  501    0 -0.16021373668E+02 -0.33164550421E+02 -0.79862858588E+03  0.79948221430E+03  0.27606106722E+01 0.  0.
         13    1    3    3    0    0 -0.61553855880E+01 -0.11408873443E+02 -0.30710173545E+03  0.30737522197E+03  0.00000000000E+00 0.  1.
          1    1    3    3  501    0 -0.98659880801E+01 -0.21755676978E+02 -0.49152685043E+03  0.49210699233E+03  0.00000000000E+00 0.  1.
         -1    1    1    2    0  502  0.16021373668E+02  0.33164550421E+02 -0.19925685635E+03  0.20263234347E+03  0.00000000000E+00 0. -1.
<mgrwt>
<rscale>  1 0.30000000E+03</rscale>
<asrwt>0</asrwt>
<pdfrwt beam="1">  1       21 0.76893172E-02 0.30000000E+03</pdfrwt>
<pdfrwt beam="2">0</pdfrwt>
<totfact> 0.13693212E+04</totfact>
</mgrwt>
</event>
<event>
 6    1  0.1270461E-001  0.3000000E+03  0.7818608E-02  0.1093470E+00
         21   -1    0    0  501  502  0.00000000000E+00  0.00000000000E+00  0.35971513629E+01  0.35971513629E+01  0.00000000000E+00 0. -1.
         13   -1    0    0    0    0 -0.00000000000E+00 -0.00000000000E+00 -0.10000000000E+04  0.10000000000E+04  0.00000000000E+00 0.  1.
    9000005    2    1    2  501    0 -0.12716808906E+02  0.42252036513E+02 -0.83791426531E+03  0.83908094285E+03  0.30920586896E+01 0.  0.
         13    1    3    3    0    0 -0.86952466348E+01  0.24105825478E+02 -0.49801587481E+03  0.49867475342E+03  0.00000000000E+00 0.  1.
          3    1    3    3  501    0 -0.40215622712E+01  0.18146211035E+02 -0.33989839050E+03  0.34040618943E+03  0.00000000000E+00 0.  1.
         -3    1    1    2    0  502  0.12716808906E+02 -0.42252036513E+02 -0.15848858333E+03  0.16451620852E+03  0.00000000000E+00 0. -1.
<mgrwt>
<rscale>  1 0.30000000E+03</rscale>
<asrwt>0</asrwt>
<pdfrwt beam="1">  1       21 0.13080578E-01 0.30000000E+03</pdfrwt>
<pdfrwt beam="2">0</pdfrwt>
<totfact> 0.52964073E+03</totfact>
</mgrwt>
</event>
<event>
 6    1  0.1270461E-001  0.3000000E+03  0.7818608E-02  0.1093470E+00
         21   -1    0    0  501  502  0.00000000000E+00  0.00000000000E+00  0.22992843012E+01  0.22992843012E+01  0.00000000000E+00 0. -1.
         13   -1    0    0    0    0 -0.00000000000E+00 -0.00000000000E+00 -0.10000000000E+04  0.10000000000E+04  0.00000000000E+00 0.  1.
    9000005    2    1    2  501    0 -0.35363868700E+02 -0.21390970519E+02 -0.75203677530E+03  0.75318294915E+03  0.41311803119E+01 0.  0.
         13    1    3    3    0    0 -0.10422912650E+02 -0.72297865871E+01 -0.20036400578E+03  0.20076514073E+03  0.00000000000E+00 0.  1.
          1    1    3    3  501    0 -0.24940956049E+02 -0.14161183932E+02 -0.55167276952E+03  0.55241780842E+03  0.00000000000E+00 0.  1.
         -1    1    1    2    0  502  0.35363868700E+02  0.21390970519E+02 -0.24566394040E+03  0.24911633516E+03  0.00000000000E+00 0. -1.
<mgrwt>
<rscale>  1 0.30000000E+03</rscale>
<asrwt>0</asrwt>
<pdfrwt beam="1">  1       21 0.83610515E-02 0.30000000E+03</pdfrwt>
<pdfrwt beam="2">0</pdfrwt>
<totfact> 0.11819645E+04</totfact>
</mgrwt>
</event>
<event>
 6    1  0.1270461E-001  0.3000000E+03  0.7818608E-02  0.1093470E+00
         21   -1    0    0  501  502  0.00000000000E+00  0.00000000000E+00  0.32185603561E+01  0.32185603561E+01  0.00000000000E+00 0. -1.
         13   -1    0    0    0    0 -0.00000000000E+00 -0.00000000000E+00 -0.10000000000E+04  0.10000000000E+04  0.00000000000E+00 0.  1.
    9000005    2    1    2  501    0 -0.10839939037E+02 -0.29015306588E+02 -0.91857332984E+03  0.91910018701E+03  0.29663412806E+01 0.  0.
         13    1    3    3    0    0 -0.83391515803E+01 -0.20320284898E+02 -0.68337630783E+03  0.68372921068E+03  0.00000000000E+00 0.  1.
          1    1    3    3  501    0 -0.25007874563E+01 -0.86950216895E+01 -0.23519702201E+03  0.23537097634E+03  0.00000000000E+00 0.  1.
         -3    1    1    2    0  502  0.10839939037E+02  0.29015306588E+02 -0.78208109806E+02  0.84118373345E+02  0.00000000000E+00 0. -1.
<mgrwt>
<rscale>  1 0.30000000E+03</rscale>
<asrwt>0</asrwt>
<pdfrwt beam="1">  1       21 0.11703881E-01 0.30000000E+03</pdfrwt>
<pdfrwt beam="2">0</pdfrwt>
<totfact> 0.64842008E+03</totfact>
</mgrwt>
</event>
<event>
 6    1  0.1270461E-001  0.3000000E+03  0.7818608E-02  0.1093470E+00
         21   -1    0    0  501  502  0.00000000000E+00  0.00000000000E+00  0.20039763047E+01  0.20039763047E+01  0.00000000000E+00 0. -1.
         13   -1    0    0    0    0 -0.00000000000E+00 -0.00000000000E+00 -0.10000000000E+04  0.10000000000E+04  0.00000000000E+00 0.  1.
    9000005    2    1    2  501    0 -0.10911918778E+02 -0.29627897756E+02 -0.85368978436E+03  0.85428406225E+03  0.42577927636E+01 0.  0.
         13    1    3    3    0    0 -0.11151475036E+02 -0.26940851193E+02 -0.78505156108E+03  0.78559284519E+03  0.00000000000E+00 0.  1.
          3    1    3    3  501    0  0.23955625804E+00 -0.26870465626E+01 -0.68638223281E+02  0.68691217063E+02  0.00000000000E+00 0.  1.
         -1    1    1    2    0  502  0.10911918778E+02  0.29627897756E+02 -0.14430623934E+03  0.14771991406E+03  0.00000000000E+00 0. -1.
<mgrwt>
<rscale>  1 0.30000000E+03</rscale>
<asrwt>0</asrwt>
<pdfrwt beam="1">  1       21 0.72872019E-02 0.30000000E+03</pdfrwt>
<pdfrwt beam="2">0</pdfrwt>
<totfact> 0.15042965E+04</totfact>
</mgrwt>
</event>
<event>
 6    1  0.1270461E-001  0.3000000E+03  0.7818608E-02  0.1093470E+00
         21   -1    0    0  501  502  0.00000000000E+00  0.00000000000E+00  0.60515297087E+01  0.60515297087E+01  0.00000000000E+00 0. -1.
         13   -1    0    0    0    0 -0.00000000000E+00 -0.00000000000E+00 -0.10000000000E+04  0.10000000000E+04  0.00000000000E+00 0.  1.
    9000005    2    1    2  501    0 -0.15907939880E+02  0.39373365826E+02 -0.91839365911E+03  0.91938057736E+03  0.32262135669E+01 0.  0.
         13    1    3    3    0    0 -0.10986776759E+02  0.30651147988E+02 -0.69278995910E+03  0.69355470553E+03  0.00000000000E+00 0.  1.
          3    1    3    3  501    0 -0.49211631219E+01  0.87222178381E+01 -0.22560370001E+03  0.22582587183E+03  0.00000000000E+00 0.  1.
         -1    1    1    2    0  502  0.15907939880E+02 -0.39373365826E+02 -0.75554811185E+02  0.86670952348E+02  0.00000000000E+00 0. -1.
<mgrwt>
<rscale>  1 0.30000000E+03</rscale>
<asrwt>0</asrwt>
<pdfrwt beam="1">  1       21 0.22005609E-01 0.30000000E+03</pdfrwt>
<pdfrwt beam="2">0</pdfrwt>
<totfact> 0.19976125E+03</totfact>
</mgrwt>
</event>
<event>
 6    1  0.1270461E-001  0.3000000E+03  0.7818608E-02  0.1093470E+00
         21   -1    0    0  501  502  0.00000000000E+00  0.00000000000E+00  0.11462822948E+01  0.11462822948E+01  0.00000000000E+00 0. -1.
         13   -1    0    0    0    0 -0.00000000000E+00 -0.00000000000E+00 -0.10000000000E+04  0.10000000000E+04  0.00000000000E+00 0.  1.
    9000005    2    1    2  501    0 -0.27421344924E+02 -0.18926844687E+02 -0.58385814050E+03  0.58481530253E+03  0.29076183816E+01 0.  0.
         13    1    3    3    0    0 -0.84677967798E+01 -0.67225118413E+01 -0.16963985443E+03  0.16998404619E+03  0.00000000000E+00 0.  1.
          3    1    3    3  501    0 -0.18953548144E+02 -0.12204332846E+02 -0.41421828606E+03  0.41483125634E+03  0.00000000000E+00 0.  1.
         -1    1    1    2    0  502  0.27421344924E+02  0.18926844687E+02 -0.41499557721E+03  0.41633097976E+03  0.00000000000E+00 0. -1.
<mgrwt>
<rscale>  1 0.30000000E+03</rscale>
<asrwt>0</asrwt>
<pdfrwt beam="1">  1       21 0.41683080E-02 0.30000000E+03</pdfrwt>
<pdfrwt beam="2">0</pdfrwt>
<totfact> 0.39224845E+04</totfact>
</mgrwt>
</event>
<event>
 6    1  0.1270461E-001  0.3000000E+03  0.7818608E-02  0.1093470E+00
         21   -1    0    0  501  502  0.00000000000E+00  0.00000000000E+00  0.12512108742E+01  0.12512108742E+01  0.00000000000E+00 0. -1.
         13   -1    0    0    0    0 -0.00000000000E+00 -0.00000000000E+00 -0.10000000000E+04  0.10000000000E+04  0.00000000000E+00 0.  1.
    9000005    2    1    2  501    0  0.19938341478E+02 -0.25795634567E+02 -0.69154257764E+03  0.69231981299E+03  0.35545105176E+01 0.  0.
         13    1    3    3    0    0  0.18015123845E+02 -0.24271471754E+02 -0.62210565204E+03  0.62283953899E+03  0.00000000000E+00 0.  1.
          3    1    3    3  501    0  0.19232176335E+01 -0.15241628125E+01 -0.69436925599E+02  0.69480273999E+02  0.00000000000E+00 0.  1.
         -3    1    1    2    0  502 -0.19938341478E+02  0.25795634567E+02 -0.30720621148E+03  0.30893139788E+03  0.00000000000E+00 0. -1.
<mgrwt>
<rscale>  1 0.30000000E+03</rscale>
<asrwt>0</asrwt>
<pdfrwt beam="1">  1       21 0.45498673E-02 0.30000000E+03</pdfrwt>
<pdfrwt beam="2">0</pdfrwt>
<totfact> 0.33819491E+04</totfact>
</mgrwt>
</event>
<event>
 6    1  0.1270461E-001  0.3000000E+03  0.7818608E-02  0.1093470E+00
         21   -1    0    0  501  502  0.00000000000E+00  0.00000000000E+00  0.51314412799E+01  0.51314412799E+01  0.00000000000E+00 0. -1.
         13   -1    0    0    0    0 -0.00000000000E+00 -0.00000000000E+00 -0.10000000000E+04  0.10000000000E+04  0.00000000000E+00 0.  1.
    9000005    2    1    2  501    0  0.71862247654E+00  0.45650980969E+02 -0.88461265399E+03  0.88579622850E+03  0.32988394534E+01 0.  0.
         13    1    3    3    0    0  0.12094797357E+01  0.44298515205E+02 -0.86119142286E+03  0.86233084608E+03  0.00000000000E+00 0.  1.
          1    1    3    3  501    0 -0.49085725916E+00  0.13524657633E+01 -0.23421231129E+02  0.23465382419E+02  0.00000000000E+00 0.  1.
         -3    1    1    2    0  502 -0.71862247654E+00 -0.45650980969E+02 -0.11025590473E+03  0.11933521278E+03  0.00000000000E+00 0. -1.
<mgrwt>
<rscale>  1 0.30000000E+03</rscale>
<asrwt>0</asrwt>
<pdfrwt beam="1">  1       21 0.18659826E-01 0.30000000E+03</pdfrwt>
<pdfrwt beam="2">0</pdfrwt>
<totfact> 0.27371256E+03</totfact>
</mgrwt>
</event>
<event>
 6    1  0.1270461E-001  0.3000000E+03  0.7818608E-02  0.1093470E+00
         21   -1    0    0  501  502  0.00000000000E+00  0.00000000000E+00  0.65399436510E+01  0.65399436510E+01  0.00000000000E+00 0. -1.
         13   -1    0    0    0    0 -0.00000000000E+00 -0.00000000000E+00 -0.10000000000E+04  0.10000000000E+04  0.00000000000E+00 0.  1.
    9000005    2    1    2  501    0  0.47132871964E+02 -0.88146642227E+01 -0.90194515641E+03  0.90322400667E+03  0.30553419965E+01 0.  0.
         13    1    3    3    0    0  0.13400813715E+01 -0.26932301870E+00 -0.17722882266E+02  0.17775514304E+02  0.00000000000E+00 0.  1.
          1    1    3    3  501    0  0.45792790593E+02 -0.85453412040E+01 -0.88422227415E+03  0.88544849236E+03  0.00000000000E+00 0.  1.
         -1    1    1    2    0  502 -0.47132871964E+02  0.88146642227E+01 -0.91514899936E+02  0.10331593699E+03  0.00000000000E+00 0. -1.
<mgrwt>
<rscale>  1 0.30000000E+03</rscale>
<asrwt>0</asrwt>
<pdfrwt beam="1">  1       21 0.23781663E-01 0.30000000E+03</pdfrwt>
<pdfrwt beam="2">0</pdfrwt>
<totfact> 0.17191859E+03</totfact>
</mgrwt>
</event>
<event>
 6    1  0.1270461E-001  0.3000000E+03  0.7818608E-02  0.1093470E+00
         21   -1    0    0  501  502  0.00000000000E+00  0.00000000000E+00  0.26090173373E+01  0.26090173373E+01  0.00000000000E+00 0. -1.
         13   -1    0    0    0    0 -0.00000000000E+00 -0.00000000000E+00 -0.10000000000E+04  0.10000000000E+04  0.00000000000E+00 0.  1.
    9000005    2    1    2  501    0  0.67061407742E+01  0.39543602892E+02 -0.80879759419E+03  0.80979787910E+03  0.32230062859E+01 0.  0.
         13    1    3    3    0    0  0.48778044370E+01  0.26923318861E+02 -0.58035518805E+03  0.58099982993E+03  0.00000000000E+00 0.  1.
          3    1    3    3  501    0  0.18283363373E+01  0.12620284031E+02 -0.22844240614E+03  0.22879804917E+03  0.00000000000E+00 0.  1.
         -3    1    1    2    0  502 -0.67061407742E+01 -0.39543602892E+02 -0.18859338847E+03  0.19281113824E+03  0.00000000000E+00 0. -1.
<mgrwt>
<rscale>  1 0.30000000E+03</rscale>
<asrwt>0</asrwt>
<pdfrwt beam="1">  1       21 0.94873558E-02 0.30000000E+03</pdfrwt>
<pdfrwt beam="2">0</pdfrwt>
<totfact> 0.94501162E+03</totfact>
</mgrwt>
</event>
<event>
 6    1  0.1270461E-001  0.3000000E+03  0.7818608E-02  0.1093470E+00
         21   -1    0    0  501  502  0.00000000000E+00  0.00000000000E+00  0.22746087807E+01  0.22746087807E+01  0.00000000000E+00 0. -1.
         13   -1    0    0    0    0 -0.00000000000E+00 -0.00000000000E+00 -0.10000000000E+04  0.10000000000E+04  0.00000000000E+00 0.  1.
    9000005    2    1    2  501    0  0.55377019450E+00  0.47270193992E+02 -0.56052178254E+03  0.56252266354E+03  0.35071914684E+01 0.  0.
         13    1    3    3    0    0 -0.65931297571E+00  0.39590524744E+02 -0.46055384925E+03  0.46225284467E+03  0.00000000000E+00 0.  1.
          3    1    3    3  501    0  0.12130831702E+01  0.76796692473E+01 -0.99967933282E+02  0.10026981887E+03  0.00000000000E+00 0.  1.
         -3    1    1    2    0  502 -0.55377019450E+00 -0.47270193992E+02 -0.43720360868E+03  0.43975194525E+03  0.00000000000E+00 0. -1.
<mgrwt>
<rscale>  1 0.30000000E+03</rscale>
<asrwt>0</asrwt>
<pdfrwt beam="1">  1       21 0.82713221E-02 0.30000000E+03</pdfrwt>
<pdfrwt beam="2">0</pdfrwt>
<totfact> 0.12046334E+04</totfact>
</mgrwt>
</event>
<event>
 6    1  0.1270461E-001  0.3000000E+03  0.7818608E-02  0.1093470E+00
         21   -1    0    0  501  502  0.00000000000E+00  0.00000000000E+00  0.33359780637E+01  0.33359780637E+01  0.00000000000E+00 0. -1.
         13   -1    0    0    0    0 -0.00000000000E+00 -0.00000000000E+00 -0.10000000000E+04  0.10000000000E+04  0.00000000000E+00 0.  1.
    9000005    2    1    2  501    0 -0.25617657433E+02  0.31153839220E+02 -0.85724429072E+03  0.85819918906E+03  0.33538122773E+01 0.  0.
         13    1    3    3    0    0 -0.15176210541E+02  0.16682104897E+02 -0.50438803546E+03  0.50489196894E+03  0.00000000000E+00 0.  1.
          1    1    3    3  501    0 -0.10441446892E+02  0.14471734323E+02 -0.35285625526E+03  0.35330722011E+03  0.00000000000E+00 0.  1.
         -3    1    1    2    0  502  0.25617657433E+02 -0.31153839220E+02 -0.13941973122E+03  0.14513678901E+03  0.00000000000E+00 0. -1.
<mgrwt>
<rscale>  1 0.30000000E+03</rscale>
<asrwt>0</asrwt>
<pdfrwt beam="1">  1       21 0.12130855E-01 0.30000000E+03</pdfrwt>
<pdfrwt beam="2">0</pdfrwt>
<totfact> 0.60762531E+03</totfact>
</mgrwt>
</event>
<event>
 6    1  0.1270461E-001  0.3000000E+03  0.7818608E-02  0.1093470E+00
         21   -1    0    0  501  502  0.00000000000E+00  0.00000000000E+00  0.19210030807E+01  0.19210030807E+01  0.00000000000E+00 0. -1.
         13   -1    0    0    0    0 -0.00000000000E+00 -0.00000000000E+00 -0.10000000000E+04  0.10000000000E+04  0.00000000000E+00 0.  1.
    9000005    2    1    2  501    0 -0.33437512042E+02 -0.79811873044E+01 -0.80942932699E+03  0.81016473975E+03  0.30501769911E+01 0.  0.
         13    1    3    3    0    0 -0.28831807158E+02 -0.78932899636E+01 -0.69369048060E+03  0.69433425669E+03  0.00000000000E+00 0.  1.
          3    1    3    3  501    0 -0.46057048835E+01 -0.87897340825E-01 -0.11573884639E+03  0.11583048306E+03  0.00000000000E+00 0.  1.
         -3    1    1    2    0  502  0.33437512042E+02  0.79811873044E+01 -0.18864966993E+03  0.19175626333E+03  0.00000000000E+00 0. -1.
<mgrwt>
<rscale>  1 0.30000000E+03</rscale>
<asrwt>0</asrwt>
<pdfrwt beam="1">  1       21 0.69854805E-02 0.30000000E+03</pdfrwt>
<pdfrwt beam="2">0</pdfrwt>
<totfact> 0.16193693E+04</totfact>
</mgrwt>
</event>
<event>
 6    1  0.1270461E-001  0.3000000E+03  0.7818608E-02  0.1093470E+00
         21   -1    0    0  501  502  0.00000000000E+00  0.00000000000E+00  0.10474589842E+01  0.10474589842E+01  0.00000000000E+00 0. -1.
         13   -1    0    0    0    0 -0.00000000000E+00 -0.00000000000E+00 -0.10000000000E+04  0.10000000000E+04  0.00000000000E+00 0.  1.
    9000005    2    1    2  501    0  0.70491711280E+01  0.30996264018E+02 -0.58858168115E+03  0.58944728670E+03  0.30412525433E+01 0.  0.
         13    1    3    3    0    0  0.31679741298E+01  0.83958306072E+01 -0.17686346154E+03  0.17709096550E+03  0.00000000000E+00 0.  1.
          1    1    3    3  501    0  0.38811969982E+01  0.22600433411E+02 -0.41171821961E+03  0.41235632121E+03  0.00000000000E+00 0.  1.
         -1    1    1    2    0  502 -0.70491711280E+01 -0.30996264018E+02 -0.41037085986E+03  0.41160017228E+03  0.00000000000E+00 0. -1.
<mgrwt>
<rscale>  1 0.30000000E+03</rscale>
<asrwt>0</asrwt>
<pdfrwt beam="1">  1       21 0.38089498E-02 0.30000000E+03</pdfrwt>
<pdfrwt beam="2">0</pdfrwt>
<totfact> 0.45655266E+04</totfact>
</mgrwt>
</event>
<event>
 6    1  0.1270461E-001  0.3000000E+03  0.7818608E-02  0.1093470E+00
         21   -1    0    0  501  502  0.00000000000E+00  0.00000000000E+00  0.10916219624E+01  0.10916219624E+01  0.00000000000E+00 0. -1.
         13   -1    0    0    0    0 -0.00000000000E+00 -0.00000000000E+00 -0.10000000000E+04  0.10000000000E+04  0.00000000000E+00 0.  1.
    9000005    2    1    2  501    0 -0.19378677622E+02 -0.26187259542E+02 -0.56875251012E+03  0.56970388870E+03  0.46687599034E+01 0.  0.
         13    1    3    3    0    0 -0.79055943754E+01 -0.14043880567E+02 -0.25843886103E+03  0.25894086949E+03  0.00000000000E+00 0.  1.
          3    1    3    3  501    0 -0.11473083246E+02 -0.12143378975E+02 -0.31031364909E+03  0.31076301921E+03  0.00000000000E+00 0.  1.
         -3    1    1    2    0  502  0.19378677622E+02  0.26187259542E+02 -0.43015586792E+03  0.43138773326E+03  0.00000000000E+00 0. -1.
<mgrwt>
<rscale>  1 0.30000000E+03</rscale>
<asrwt>0</asrwt>
<pdfrwt beam="1">  1       21 0.39695428E-02 0.30000000E+03</pdfrwt>
<pdfrwt beam="2">0</pdfrwt>
<totfact> 0.42591942E+04</totfact>
</mgrwt>
</event>
<event>
 6    1  0.1270461E-001  0.3000000E+03  0.7818608E-02  0.1093470E+00
         21   -1    0    0  501  502  0.00000000000E+00  0.00000000000E+00  0.93405392472E+00  0.93405392472E+00  0.00000000000E+00 0. -1.
         13   -1    0    0    0    0 -0.00000000000E+00 -0.00000000000E+00 -0.10000000000E+04  0.10000000000E+04  0.00000000000E+00 0.  1.
    9000005    2    1    2  501    0 -0.28777225673E+02 -0.99376221538E+01 -0.48686114501E+03  0.48782525134E+03  0.35799828036E+01 0.  0.
         13    1    3    3    0    0 -0.21053175940E+02 -0.57473163951E+01 -0.33504564040E+03  0.33575563884E+03  0.00000000000E+00 0.  1.
          1    1    3    3  501    0 -0.77240497330E+01 -0.41903057587E+01 -0.15181550461E+03  0.15206961250E+03  0.00000000000E+00 0.  1.
         -1    1    1    2    0  502  0.28777225673E+02  0.99376221538E+01 -0.51220480107E+03  0.51310880258E+03  0.00000000000E+00 0. -1.
<mgrwt>
<rscale>  1 0.30000000E+03</rscale>
<asrwt>0</asrwt>
<pdfrwt beam="1">  1       21 0.33965669E-02 0.30000000E+03</pdfrwt>
<pdfrwt beam="2">0</pdfrwt>
<totfact> 0.55324339E+04</totfact>
</mgrwt>
</event>
<event>
 6    1  0.1270461E-001  0.3000000E+03  0.7818608E-02  0.1093470E+00
         21   -1    0    0  501  502  0.00000000000E+00  0.00000000000E+00  0.21835476266E+01  0.21835476266E+01  0.00000000000E+00 0. -1.
         13   -1    0    0    0    0 -0.00000000000E+00 -0.00000000000E+00 -0.10000000000E+04  0.10000000000E+04  0.00000000000E+00 0.  1.
    9000005    2    1    2  501    0  0.34873947790E+02  0.24596043639E+02 -0.70176955353E+03  0.70307667055E+03  0.38911205352E+01 0.  0.
         13    1    3    3    0    0  0.34697414387E+02  0.23915117425E+02 -0.68840761001E+03  0.68969622366E+03  0.00000000000E+00 0.  1.
          3    1    3    3  501    0  0.17653340262E+00  0.68092621328E+00 -0.13361943520E+02  0.13380446898E+02  0.00000000000E+00 0.  1.
         -1    1    1    2    0  502 -0.34873947790E+02 -0.24596043639E+02 -0.29604689884E+03  0.29910687707E+03  0.00000000000E+00 0. -1.
<mgrwt>
<rscale>  1 0.30000000E+03</rscale>
<asrwt>0</asrwt>
<pdfrwt beam="1">  1       21 0.79401899E-02 0.30000000E+03</pdfrwt>
<pdfrwt beam="2">0</pdfrwt>
<totfact> 0.12943321E+04</totfact>
</mgrwt>
</event>
<event>
 6    1  0.1270461E-001  0.3000000E+03  0.7818608E-02  0.1093470E+00
         21   -1    0    0  501  502  0.00000000000E+00  0.00000000000E+00  0.15801395773E+01  0.15801395773E+01  0.00000000000E+00 0. -1.
         13   -1    0    0    0    0 -0.00000000000E+00 -0.00000000000E+00 -0.10000000000E+04  0.10000000000E+04  0.00000000000E+00 0.  1.
    9000005    2    1    2  501    0 -0.34330781261E+02  0.16418219407E+02 -0.64167394226E+03  0.64281028215E+03  0.33838137924E+01 0.  0.
         13    1    3    3    0    0 -0.23392455909E+02  0.10441238601E+02 -0.45513768528E+03  0.45585802507E+03  0.00000000000E+00 0.  1.
          3    1    3    3  501    0 -0.10938325351E+02  0.59769808055E+01 -0.18653625697E+03  0.18695225708E+03  0.00000000000E+00 0.  1.
         -3    1    1    2    0  502  0.34330781261E+02 -0.16418219407E+02 -0.35674591817E+03  0.35876985743E+03  0.00000000000E+00 0. -1.
<mgrwt>
<rscale>  1 0.30000000E+03</rscale>
<asrwt>0</asrwt>
<pdfrwt beam="1">  1       21 0.57459742E-02 0.30000000E+03</pdfrwt>
<pdfrwt beam="2">0</pdfrwt>
<totfact> 0.22702376E+04</totfact>
</mgrwt>
</event>
<event>
 6    1  0.1270461E-001  0.3000000E+03  0.7818608E-02  0.1093470E+00
         21   -1    0    0  501  502  0.00000000000E+00  0.00000000000E+00  0.12283319071E+01  0.12283319071E+01  0.00000000000E+00 0. -1.
         13   -1    0    0    0    0 -0.00000000000E+00 -0.00000000000E+00 -0.10000000000E+04  0.10000000000E+04  0.00000000000E+00 0.  1.
    9000005    2    1    2  501    0  0.15063703633E+02  0.31468947054E+02 -0.53266118596E+03  0.53381396398E+03  0.34927510264E+01 0.  0.
         13    1    3    3    0    0  0.12078961371E+02  0.26396089142E+02 -0.45981452326E+03  0.46072991072E+03  0.00000000000E+00 0.  1.
          1    1    3    3  501    0  0.29847422623E+01  0.50728579126E+01 -0.72846662698E+02  0.73084053254E+02  0.00000000000E+00 0.  1.
         -1    1    1    2    0  502 -0.15063703633E+02 -0.31468947054E+02 -0.46611048213E+03  0.46741436793E+03  0.00000000000E+00 0. -1.
<mgrwt>
<rscale>  1 0.30000000E+03</rscale>
<asrwt>0</asrwt>
<pdfrwt beam="1">  1       21 0.44666709E-02 0.30000000E+03</pdfrwt>
<pdfrwt beam="2">0</pdfrwt>
<totfact> 0.34895496E+04</totfact>
</mgrwt>
</event>
<event>
 6    1  0.1270461E-001  0.3000000E+03  0.7818608E-02  0.1093470E+00
         21   -1    0    0  501  502  0.00000000000E+00  0.00000000000E+00  0.21517952670E+01  0.21517952670E+01  0.00000000000E+00 0. -1.
         13   -1    0    0    0    0 -0.00000000000E+00 -0.00000000000E+00 -0.10000000000E+04  0.10000000000E+04  0.00000000000E+00 0.  1.
    9000005    2    1    2  501    0  0.32523163576E+02 -0.22472458201E+01 -0.85509607794E+03  0.85572442082E+03  0.34893553475E+01 0.  0.
         13    1    3    3    0    0  0.25792358176E+02 -0.31900748271E+01 -0.67448053185E+03  0.67498104430E+03  0.00000000000E+00 0.  1.
          3    1    3    3  501    0  0.67308054006E+01  0.94282900697E+00 -0.18061554609E+03  0.18074337652E+03  0.00000000000E+00 0.  1.
         -3    1    1    2    0  502 -0.32523163576E+02  0.22472458201E+01 -0.14275212679E+03  0.14642737445E+03  0.00000000000E+00 0. -1.
<mgrwt>
<rscale>  1 0.30000000E+03</rscale>
<asrwt>0</asrwt>
<pdfrwt beam="1">  1       21 0.78247266E-02 0.30000000E+03</pdfrwt>
<pdfrwt beam="2">0</pdfrwt>
<totfact> 0.13280387E+04</totfact>
</mgrwt>
</event>
<event>
 6    1  0.1270461E-001  0.3000000E+03  0.7818608E-02  0.1093470E+00
         21   -1    0    0  501  502  0.00000000000E+00  0.00000000000E+00  0.34672013740E+01  0.34672013740E+01  0.00000000000E+00 0. -1.
         13   -1    0    0    0    0 -0.00000000000E+00 -0.00000000000E+00 -0.10000000000E+04  0.10000000000E+04  0.00000000000E+00 0.  1.
    9000005    2    1    2  501    0  0.52029465647E+02 -0.27387737111E+02 -0.51880695094E+03  0.52213660918E+03  0.29720123294E+01 0.  0.
         13    1    3    3    0    0  0.16207819923E+01 -0.30484261444E+00 -0.14466655936E+02  0.14560357045E+02  0.00000000000E+00 0.  1.
          1    1    3    3  501    0  0.50408683655E+02 -0.27082894496E+02 -0.50434029501E+03  0.50757625213E+03  0.00000000000E+00 0.  1.
         -3    1    1    2    0  502 -0.52029465647E+02  0.27387737111E+02 -0.47772584768E+03  0.48133059220E+03  0.00000000000E+00 0. -1.
<mgrwt>
<rscale>  1 0.30000000E+03</rscale>
<asrwt>0</asrwt>
<pdfrwt beam="1">  1       21 0.12608032E-01 0.30000000E+03</pdfrwt>
<pdfrwt beam="2">0</pdfrwt>
<totfact> 0.56641919E+03</totfact>
</mgrwt>
</event>
<event>
 6    1  0.1270461E-001  0.3000000E+03  0.7818608E-02  0.1093470E+00
         21   -1    0    0  501  502  0.00000000000E+00  0.00000000000E+00  0.23607546526E+01  0.23607546526E+01  0.00000000000E+00 0. -1.
         13   -1    0    0    0    0 -0.00000000000E+00 -0.00000000000E+00 -0.10000000000E+04  0.10000000000E+04  0.00000000000E+00 0.  1.
    9000005    2    1    2  501    0 -0.36935556513E+02  0.12959824091E+02 -0.79533085699E+03  0.79630038395E+03  0.33071163904E+01 0.  0.
         13    1    3    3    0    0 -0.24592472478E+02  0.89761873428E+01 -0.56179288142E+03  0.56240252779E+03  0.00000000000E+00 0.  1.
          1    1    3    3  501    0 -0.12343084035E+02  0.39836367478E+01 -0.23353797557E+03  0.23389785616E+03  0.00000000000E+00 0.  1.
         -3    1    1    2    0  502  0.36935556513E+02 -0.12959824091E+02 -0.20230838836E+03  0.20606037070E+03  0.00000000000E+00 0. -1.
<mgrwt>
<rscale>  1 0.30000000E+03</rscale>
<asrwt>0</asrwt>
<pdfrwt beam="1">  1       21 0.85845805E-02 0.30000000E+03</pdfrwt>
<pdfrwt beam="2">0</pdfrwt>
<totfact> 0.11282467E+04</totfact>
</mgrwt>
</event>
<event>
 6    1  0.1270461E-001  0.3000000E+03  0.7818608E-02  0.1093470E+00
         21   -1    0    0  501  502  0.00000000000E+00  0.00000000000E+00  0.13976371899E+01  0.13976371899E+01  0.00000000000E+00 0. -1.
         13   -1    0    0    0    0 -0.00000000000E+00 -0.00000000000E+00 -0.10000000000E+04  0.10000000000E+04  0.00000000000E+00 0.  1.
    9000005    2    1    2  501    0 -0.31412674745E+02  0.17827123731E+02 -0.62571265927E+03  0.62676275697E+03  0.32648234423E+01 0.  0.
         13    1    3    3    0    0 -0.19309888383E+02  0.91133553411E+01 -0.36723764102E+03  0.36785786660E+03  0.00000000000E+00 0.  1.
          3    1    3    3  501    0 -0.12102786362E+02  0.87137683895E+01 -0.25847501825E+03  0.25890489037E+03  0.00000000000E+00 0.  1.
         -3    1    1    2    0  502  0.31412674745E+02 -0.17827123731E+02 -0.37288970354E+03  0.37463488022E+03  0.00000000000E+00 0. -1.
<mgrwt>
<rscale>  1 0.30000000E+03</rscale>
<asrwt>0</asrwt>
<pdfrwt beam="1">  1       21 0.50823278E-02 0.30000000E+03</pdfrwt>
<pdfrwt beam="2">0</pdfrwt>
<totfact> 0.28013453E+04</totfact>
</mgrwt>
</event>
<event>
 6    1  0.1270461E-001  0.3000000E+03  0.7818608E-02  0.1093470E+00
         21   -1    0    0  501  502  0.00000000000E+00  0.00000000000E+00  0.31863834138E+01  0.31863834138E+01  0.00000000000E+00 0. -1.
         13   -1    0    0    0    0 -0.00000000000E+00 -0.00000000000E+00 -0.10000000000E+04  0.10000000000E+04  0.00000000000E+00 0.  1.
    9000005    2    1    2  501    0 -0.30687293143E+02  0.31086803546E+02 -0.18184667768E+03  0.18704962353E+03  0.33538285857E+01 0.  0.
         13    1    3    3    0    0 -0.13271552687E+02  0.15163749434E+02 -0.78846626818E+02  0.81380980384E+02  0.00000000000E+00 0.  1.
          1    1    3    3  501    0 -0.17415740456E+02  0.15923054112E+02 -0.10300005086E+03  0.10566864315E+03  0.00000000000E+00 0.  1.
         -3    1    1    2    0  502  0.30687293143E+02 -0.31086803546E+02 -0.81496693891E+03  0.81613675988E+03  0.00000000000E+00 0. -1.
<mgrwt>
<rscale>  1 0.30000000E+03</rscale>
<asrwt>0</asrwt>
<pdfrwt beam="1">  1       21 0.11586873E-01 0.30000000E+03</pdfrwt>
<pdfrwt beam="2">0</pdfrwt>
<totfact> 0.66031301E+03</totfact>
</mgrwt>
</event>
<event>
 6    1  0.1270461E-001  0.3000000E+03  0.7818608E-02  0.1093470E+00
         21   -1    0    0  501  502  0.00000000000E+00  0.00000000000E+00  0.20319643934E+01  0.20319643934E+01  0.00000000000E+00 0. -1.
         13   -1    0    0    0    0 -0.00000000000E+00 -0.00000000000E+00 -0.10000000000E+04  0.10000000000E+04  0.00000000000E+00 0.  1.
    9000005    2    1    2  501    0 -0.72990566960E+01  0.37915391239E+02 -0.24390468407E+03  0.24698071364E+03  0.43732003495E+01 0.  0.
         13    1    3    3    0    0 -0.49565763290E+01  0.14479900478E+02 -0.95037169828E+02  0.96261616523E+02  0.00000000000E+00 0.  1.
          3    1    3    3  501    0 -0.23424803670E+01  0.23435490762E+02 -0.14886751424E+03  0.15071909712E+03  0.00000000000E+00 0.  1.
         -3    1    1    2    0  502  0.72990566960E+01 -0.37915391239E+02 -0.75406335154E+03  0.75505125075E+03  0.00000000000E+00 0. -1.
<mgrwt>
<rscale>  1 0.30000000E+03</rscale>
<asrwt>0</asrwt>
<pdfrwt beam="1">  1       21 0.73889770E-02 0.30000000E+03</pdfrwt>
<pdfrwt beam="2">0</pdfrwt>
<totfact> 0.14682718E+04</totfact>
</mgrwt>
</event>
<event>
 6    1  0.1270461E-001  0.3000000E+03  0.7818608E-02  0.1093470E+00
         21   -1    0    0  501  502  0.00000000000E+00  0.00000000000E+00  0.96708654268E+00  0.96708654268E+00  0.00000000000E+00 0. -1.
         13   -1    0    0    0    0 -0.00000000000E+00 -0.00000000000E+00 -0.10000000000E+04  0.10000000000E+04  0.00000000000E+00 0.  1.
    9000005    2    1    2  501    0  0.12131479769E+02 -0.28456205457E+02 -0.48218164886E+03  0.48319092048E+03  0.41706957574E+01 0.  0.
         13    1    3    3    0    0  0.57786716890E+01 -0.10805090390E+02 -0.16436826420E+03  0.16482435894E+03  0.00000000000E+00 0.  1.
          1    1    3    3  501    0  0.63528080804E+01 -0.17651115067E+02 -0.31781338466E+03  0.31836656154E+03  0.00000000000E+00 0.  1.
         -3    1    1    2    0  502 -0.12131479769E+02  0.28456205457E+02 -0.51685126460E+03  0.51777616607E+03  0.00000000000E+00 0. -1.
<mgrwt>
<rscale>  1 0.30000000E+03</rscale>
<asrwt>0</asrwt>
<pdfrwt beam="1">  1       21 0.35166858E-02 0.30000000E+03</pdfrwt>
<pdfrwt beam="2">0</pdfrwt>
<totfact> 0.52199368E+04</totfact>
</mgrwt>
</event>
<event>
 6    1  0.1270461E-001  0.3000000E+03  0.7818608E-02  0.1093470E+00
         21   -1    0    0  501  502  0.00000000000E+00  0.00000000000E+00  0.76098681211E+01  0.76098681211E+01  0.00000000000E+00 0. -1.
         13   -1    0    0    0    0 -0.00000000000E+00 -0.00000000000E+00 -0.10000000000E+04  0.10000000000E+04  0.00000000000E+00 0.  1.
    9000005    2    1    2  501    0 -0.29077371925E+02  0.21003335705E+02 -0.95539920355E+03  0.95608354041E+03  0.46329717596E+01 0.  0.
         13    1    3    3    0    0 -0.59522984586E+01  0.67526155004E+01 -0.23281381845E+03  0.23298777165E+03  0.00000000000E+00 0.  1.
          1    1    3    3  501    0 -0.23125073466E+02  0.14250720205E+02 -0.72258538510E+03  0.72309576877E+03  0.00000000000E+00 0.  1.
         -1    1    1    2    0  502  0.29077371925E+02 -0.21003335705E+02 -0.36990928325E+02  0.51526327708E+02  0.00000000000E+00 0. -1.
<mgrwt>
<rscale>  1 0.30000000E+03</rscale>
<asrwt>0</asrwt>
<pdfrwt beam="1">  1       21 0.27672306E-01 0.30000000E+03</pdfrwt>
<pdfrwt beam="2">0</pdfrwt>
<totfact> 0.12768388E+03</totfact>
</mgrwt>
</event>
<event>
 6    1  0.1270461E-001  0.3000000E+03  0.7818608E-02  0.1093470E+00
         21   -1    0    0  501  502  0.00000000000E+00  0.00000000000E+00  0.11708765879E+02  0.11708765879E+02  0.00000000000E+00 0. -1.
         13   -1    0    0    0    0 -0.00000000000E+00 -0.00000000000E+00 -0.10000000000E+04  0.10000000000E+04  0.00000000000E+00 0.  1.
    9000005    2    1    2  501    0  0.35677594067E+02  0.23986174866E+02 -0.95835162638E+03  0.95931976498E+03  0.28886677969E+01 0.  0.
         13    1    3    3    0    0  0.13849246620E+02  0.82185486554E+01 -0.38266012626E+03  0.38299884909E+03  0.00000000000E+00 0.  1.
          3    1    3    3  501    0  0.21828347446E+02  0.15767626211E+02 -0.57569150012E+03  0.57632091589E+03  0.00000000000E+00 0.  1.
         -3    1    1    2    0  502 -0.35677594067E+02 -0.23986174866E+02 -0.29939607744E+02  0.52389000897E+02  0.00000000000E+00 0. -1.
<mgrwt>
<rscale>  1 0.30000000E+03</rscale>
<asrwt>0</asrwt>
<pdfrwt beam="1">  1       21 0.42577420E-01 0.30000000E+03</pdfrwt>
<pdfrwt beam="2">0</pdfrwt>
<totfact> 0.52974797E+02</totfact>
</mgrwt>
</event>
<event>
 6    1  0.1270461E-001  0.3000000E+03  0.7818608E-02  0.1093470E+00
         21   -1    0    0  501  502  0.00000000000E+00  0.00000000000E+00  0.29305957740E+01  0.29305957740E+01  0.00000000000E+00 0. -1.
         13   -1    0    0    0    0 -0.00000000000E+00 -0.00000000000E+00 -0.10000000000E+04  0.10000000000E+04  0.00000000000E+00 0.  1.
    9000005    2    1    2  501    0 -0.44169094177E+02 -0.17359802359E+02 -0.73933801278E+03  0.74086621103E+03  0.31263197681E+01 0.  0.
         13    1    3    3    0    0 -0.10600392167E+02 -0.40106774015E+01 -0.19804252187E+03  0.19836656552E+03  0.00000000000E+00 0.  1.
          3    1    3    3  501    0 -0.33568702010E+02 -0.13349124957E+02 -0.54129549092E+03  0.54249964551E+03  0.00000000000E+00 0.  1.
         -3    1    1    2    0  502  0.44169094177E+02  0.17359802359E+02 -0.25773139144E+03  0.26206438475E+03  0.00000000000E+00 0. -1.
<mgrwt>
<rscale>  1 0.30000000E+03</rscale>
<asrwt>0</asrwt>
<pdfrwt beam="1">  1       21 0.10656734E-01 0.30000000E+03</pdfrwt>
<pdfrwt beam="2">0</pdfrwt>
<totfact> 0.76771188E+03</totfact>
</mgrwt>
</event>
<event>
 6    1  0.1270461E-001  0.3000000E+03  0.7818608E-02  0.1093470E+00
         21   -1    0    0  501  502  0.00000000000E+00  0.00000000000E+00  0.20693221043E+01  0.20693221043E+01  0.00000000000E+00 0. -1.
         13   -1    0    0    0    0 -0.00000000000E+00 -0.00000000000E+00 -0.10000000000E+04  0.10000000000E+04  0.00000000000E+00 0.  1.
    9000005    2    1    2  501    0 -0.32098625139E+02 -0.30096711319E+02 -0.62410428614E+03  0.62566222209E+03  0.33049060909E+01 0.  0.
         13    1    3    3    0    0 -0.27631251684E+02 -0.24244447223E+02 -0.52274520820E+03  0.52403609798E+03  0.00000000000E+00 0.  1.
          3    1    3    3  501    0 -0.44673734548E+01 -0.58522640963E+01 -0.10135907794E+03  0.10162612411E+03  0.00000000000E+00 0.  1.
         -3    1    1    2    0  502  0.32098625139E+02  0.30096711319E+02 -0.37382639175E+03  0.37640710001E+03  0.00000000000E+00 0. -1.
<mgrwt>
<rscale>  1 0.30000000E+03</rscale>
<asrwt>0</asrwt>
<pdfrwt beam="1">  1       21 0.75248235E-02 0.30000000E+03</pdfrwt>
<pdfrwt beam="2">0</pdfrwt>
<totfact> 0.14221938E+04</totfact>
</mgrwt>
</event>
<event>
 6    1  0.1270461E-001  0.3000000E+03  0.7818608E-02  0.1093470E+00
         21   -1    0    0  501  502  0.00000000000E+00  0.00000000000E+00  0.18408927439E+01  0.18408927439E+01  0.00000000000E+00 0. -1.
         13   -1    0    0    0    0 -0.00000000000E+00 -0.00000000000E+00 -0.10000000000E+04  0.10000000000E+04  0.00000000000E+00 0.  1.
    9000005    2    1    2  501    0  0.32874731786E+02 -0.95925002993E+01 -0.80029393853E+03  0.80103404762E+03  0.35204194561E+01 0.  0.
         13    1    3    3    0    0  0.23952306168E+02 -0.85106011038E+01 -0.57934429089E+03  0.57990167329E+03  0.00000000000E+00 0.  1.
          1    1    3    3  501    0  0.89224256186E+01 -0.10818991955E+01 -0.22094964764E+03  0.22113237433E+03  0.00000000000E+00 0.  1.
         -3    1    1    2    0  502 -0.32874731786E+02  0.95925002993E+01 -0.19786516873E+03  0.20080684512E+03  0.00000000000E+00 0. -1.
<mgrwt>
<rscale>  1 0.30000000E+03</rscale>
<asrwt>0</asrwt>
<pdfrwt beam="1">  1       21 0.66941695E-02 0.30000000E+03</pdfrwt>
<pdfrwt beam="2">0</pdfrwt>
<totfact> 0.17437494E+04</totfact>
</mgrwt>
</event>
<event>
 6    1  0.1270461E-001  0.3000000E+03  0.7818608E-02  0.1093470E+00
         21   -1    0    0  501  502  0.00000000000E+00  0.00000000000E+00  0.17482854733E+01  0.17482854733E+01  0.00000000000E+00 0. -1.
         13   -1    0    0    0    0 -0.00000000000E+00 -0.00000000000E+00 -0.10000000000E+04  0.10000000000E+04  0.00000000000E+00 0.  1.
    9000005    2    1    2  501    0 -0.33522608047E+02  0.17096118525E+02 -0.71584759183E+03  0.71684807306E+03  0.41644444402E+01 0.  0.
         13    1    3    3    0    0 -0.14666994621E+02  0.91119253222E+01 -0.35570109605E+03  0.35611994840E+03  0.00000000000E+00 0.  1.
          1    1    3    3  501    0 -0.18855613426E+02  0.79841932025E+01 -0.36014649578E+03  0.36072812466E+03  0.00000000000E+00 0.  1.
         -1    1    1    2    0  502  0.33522608047E+02 -0.17096118525E+02 -0.28240412269E+03  0.28490021241E+03  0.00000000000E+00 0. -1.
<mgrwt>
<rscale>  1 0.30000000E+03</rscale>
<asrwt>0</asrwt>
<pdfrwt beam="1">  1       21 0.63574151E-02 0.30000000E+03</pdfrwt>
<pdfrwt beam="2">0</pdfrwt>
<totfact> 0.19067983E+04</totfact>
</mgrwt>
</event>
<event>
 6    1  0.1270461E-001  0.3000000E+03  0.7818608E-02  0.1093470E+00
         21   -1    0    0  501  502  0.00000000000E+00  0.00000000000E+00  0.14290682364E+01  0.14290682364E+01  0.00000000000E+00 0. -1.
         13   -1    0    0    0    0 -0.00000000000E+00 -0.00000000000E+00 -0.10000000000E+04  0.10000000000E+04  0.00000000000E+00 0.  1.
    9000005    2    1    2  501    0  0.30104106385E+02 -0.22745420994E+02 -0.50397854268E+03  0.50539959055E+03  0.32807386104E+01 0.  0.
         13    1    3    3    0    0  0.22791974359E+02 -0.18052963248E+02 -0.37107130944E+03  0.37220867839E+03  0.00000000000E+00 0.  1.
          1    1    3    3  501    0  0.73121320257E+01 -0.46924577460E+01 -0.13290723324E+03  0.13319091216E+03  0.00000000000E+00 0.  1.
         -3    1    1    2    0  502 -0.30104106385E+02  0.22745420994E+02 -0.49459238908E+03  0.49602947769E+03  0.00000000000E+00 0. -1.
<mgrwt>
<rscale>  1 0.30000000E+03</rscale>
<asrwt>0</asrwt>
<pdfrwt beam="1">  1       21 0.51966227E-02 0.30000000E+03</pdfrwt>
<pdfrwt beam="2">0</pdfrwt>
<totfact> 0.26969799E+04</totfact>
</mgrwt>
</event>
<event>
 6    1  0.1270461E-001  0.3000000E+03  0.7818608E-02  0.1093470E+00
         21   -1    0    0  501  502  0.00000000000E+00  0.00000000000E+00  0.53650131827E+01  0.53650131827E+01  0.00000000000E+00 0. -1.
         13   -1    0    0    0    0 -0.00000000000E+00 -0.00000000000E+00 -0.10000000000E+04  0.10000000000E+04  0.00000000000E+00 0.  1.
    9000005    2    1    2  501    0  0.43606212670E+02 -0.31395917786E+02 -0.83852687560E+03  0.84026822997E+03  0.60142969973E+01 0.  0.
         13    1    3    3    0    0  0.10032106776E+02 -0.77063343612E+01 -0.23933983016E+03  0.23967391401E+03  0.00000000000E+00 0.  1.
          1    1    3    3  501    0  0.33574105894E+02 -0.23689583425E+02 -0.59918704543E+03  0.60059431596E+03  0.00000000000E+00 0.  1.
         -1    1    1    2    0  502 -0.43606212670E+02  0.31395917786E+02 -0.15610811122E+03  0.16509678321E+03  0.00000000000E+00 0. -1.
<mgrwt>
<rscale>  1 0.30000000E+03</rscale>
<asrwt>0</asrwt>
<pdfrwt beam="1">  1       21 0.19509180E-01 0.30000000E+03</pdfrwt>
<pdfrwt beam="2">0</pdfrwt>
<totfact> 0.25155491E+03</totfact>
</mgrwt>
</event>
<event>
 6    1  0.1270461E-001  0.3000000E+03  0.7818608E-02  0.1093470E+00
         21   -1    0    0  501  502  0.00000000000E+00  0.00000000000E+00  0.10104684779E+02  0.10104684779E+02  0.00000000000E+00 0. -1.
         13   -1    0    0    0    0 -0.00000000000E+00 -0.00000000000E+00 -0.10000000000E+04  0.10000000000E+04  0.00000000000E+00 0.  1.
    9000005    2    1    2  501    0  0.18040692902E+02 -0.33450693723E+02 -0.96249684554E+03  0.96325287956E+03  0.33936419864E+01 0.  0.
         13    1    3    3    0    0  0.40332359102E+01 -0.84819299391E+01 -0.20449862133E+03  0.20471418186E+03  0.00000000000E+00 0.  1.
          3    1    3    3  501    0  0.14007456991E+02 -0.24968763784E+02 -0.75799822421E+03  0.75853869771E+03  0.00000000000E+00 0.  1.
         -3    1    1    2    0  502 -0.18040692902E+02  0.33450693723E+02 -0.27398469682E+02  0.46851805214E+02  0.00000000000E+00 0. -1.
<mgrwt>
<rscale>  1 0.30000000E+03</rscale>
<asrwt>0</asrwt>
<pdfrwt beam="1">  1       21 0.36744386E-01 0.30000000E+03</pdfrwt>
<pdfrwt beam="2">0</pdfrwt>
<totfact> 0.72021147E+02</totfact>
</mgrwt>
</event>
<event>
 6    1  0.1270461E-001  0.3000000E+03  0.7818608E-02  0.1093470E+00
         21   -1    0    0  501  502  0.00000000000E+00  0.00000000000E+00  0.24463977473E+01  0.24463977473E+01  0.00000000000E+00 0. -1.
         13   -1    0    0    0    0 -0.00000000000E+00 -0.00000000000E+00 -0.10000000000E+04  0.10000000000E+04  0.00000000000E+00 0.  1.
    9000005    2    1    2  501    0 -0.10100120790E+02  0.34501183605E+02 -0.84283061803E+03  0.84360198974E+03  0.29192953248E+01 0.  0.
         13    1    3    3    0    0 -0.68995954282E+01  0.19015889582E+02 -0.48888437915E+03  0.48930271269E+03  0.00000000000E+00 0.  1.
          1    1    3    3  501    0 -0.32005253620E+01  0.15485294023E+02 -0.35394623888E+03  0.35429927704E+03  0.00000000000E+00 0.  1.
         -3    1    1    2    0  502  0.10100120790E+02 -0.34501183605E+02 -0.15472298422E+03  0.15884440801E+03  0.00000000000E+00 0. -1.
<mgrwt>
<rscale>  1 0.30000000E+03</rscale>
<asrwt>0</asrwt>
<pdfrwt beam="1">  1       21 0.88960106E-02 0.30000000E+03</pdfrwt>
<pdfrwt beam="2">0</pdfrwt>
<totfact> 0.10593871E+04</totfact>
</mgrwt>
</event>
<event>
 6    1  0.1270461E-001  0.3000000E+03  0.7818608E-02  0.1093470E+00
         21   -1    0    0  501  502  0.00000000000E+00  0.00000000000E+00  0.14044116458E+01  0.14044116458E+01  0.00000000000E+00 0. -1.
         13   -1    0    0    0    0 -0.00000000000E+00 -0.00000000000E+00 -0.10000000000E+04  0.10000000000E+04  0.00000000000E+00 0.  1.
    9000005    2    1    2  501    0  0.33025824948E+02 -0.13266932497E+02 -0.65444478483E+03  0.65541815155E+03  0.28740865452E+01 0.  0.
         13    1    3    3    0    0  0.32209041695E+02 -0.12578139987E+02 -0.64037209033E+03  0.64130495558E+03  0.00000000000E+00 0.  1.
          1    1    3    3  501    0  0.81678325346E+00 -0.68879251026E+00 -0.14072694498E+02  0.14113195968E+02  0.00000000000E+00 0.  1.
         -1    1    1    2    0  502 -0.33025824948E+02  0.13266932497E+02 -0.34415080352E+03  0.34598626010E+03  0.00000000000E+00 0. -1.
<mgrwt>
<rscale>  1 0.30000000E+03</rscale>
<asrwt>0</asrwt>
<pdfrwt beam="1">  1       21 0.51069622E-02 0.30000000E+03</pdfrwt>
<pdfrwt beam="2">0</pdfrwt>
<totfact> 0.27783267E+04</totfact>
</mgrwt>
</event>
<event>
 6    1  0.1270461E-001  0.3000000E+03  0.7818608E-02  0.1093470E+00
         21   -1    0    0  501  502  0.00000000000E+00  0.00000000000E+00  0.10412196249E+01  0.10412196249E+01  0.00000000000E+00 0. -1.
         13   -1    0    0    0    0 -0.00000000000E+00 -0.00000000000E+00 -0.10000000000E+04  0.10000000000E+04  0.00000000000E+00 0.  1.
    9000005    2    1    2  501    0  0.31774390687E+02  0.12175875170E+01 -0.42234991225E+03  0.42355625772E+03  0.30595188234E+01 0.  0.
         13    1    3    3    0    0  0.17386404697E+01 -0.25383579728E+00 -0.33012011013E+02  0.33058738246E+02  0.00000000000E+00 0.  1.
          1    1    3    3  501    0  0.30035750217E+02  0.14714233143E+01 -0.38933790123E+03  0.39049751947E+03  0.00000000000E+00 0.  1.
         -1    1    1    2    0  502 -0.31774390687E+02 -0.12175875170E+01 -0.57660886813E+03  0.57748496191E+03  0.00000000000E+00 0. -1.
<mgrwt>
<rscale>  1 0.30000000E+03</rscale>
<asrwt>0</asrwt>
<pdfrwt beam="1">  1       21 0.37862612E-02 0.30000000E+03</pdfrwt>
<pdfrwt beam="2">0</pdfrwt>
<totfact> 0.46115848E+04</totfact>
</mgrwt>
</event>
<event>
 6    1  0.1270461E-001  0.3000000E+03  0.7818608E-02  0.1093470E+00
         21   -1    0    0  501  502  0.00000000000E+00  0.00000000000E+00  0.25883720715E+01  0.25883720715E+01  0.00000000000E+00 0. -1.
         13   -1    0    0    0    0 -0.00000000000E+00 -0.00000000000E+00 -0.10000000000E+04  0.10000000000E+04  0.00000000000E+00 0.  1.
    9000005    2    1    2  501    0 -0.32656997111E+02  0.24358836498E+02 -0.79854467338E+03  0.79959108641E+03  0.35323790981E+01 0.  0.
         13    1    3    3    0    0 -0.32428947451E+02  0.23745150962E+02 -0.78001443232E+03  0.78104928363E+03  0.00000000000E+00 0.  1.
          1    1    3    3  501    0 -0.22804965963E+00  0.61368553551E+00 -0.18530241058E+02  0.18541802778E+02  0.00000000000E+00 0.  1.
         -3    1    1    2    0  502  0.32656997111E+02 -0.24358836498E+02 -0.19886695455E+03  0.20299728566E+03  0.00000000000E+00 0. -1.
<mgrwt>
<rscale>  1 0.30000000E+03</rscale>
<asrwt>0</asrwt>
<pdfrwt beam="1">  1       21 0.94122819E-02 0.30000000E+03</pdfrwt>
<pdfrwt beam="2">0</pdfrwt>
<totfact> 0.95847265E+03</totfact>
</mgrwt>
</event>
<event>
 6    1  0.1270461E-001  0.3000000E+03  0.7818608E-02  0.1093470E+00
         21   -1    0    0  501  502  0.00000000000E+00  0.00000000000E+00  0.13334024738E+01  0.13334024738E+01  0.00000000000E+00 0. -1.
         13   -1    0    0    0    0 -0.00000000000E+00 -0.00000000000E+00 -0.10000000000E+04  0.10000000000E+04  0.00000000000E+00 0.  1.
    9000005    2    1    2  501    0  0.10779867939E+02 -0.31562431044E+02 -0.69684729561E+03  0.69767688004E+03  0.66695532090E+01 0.  0.
         13    1    3    3    0    0  0.79932495399E-01 -0.77545738757E+01 -0.18945476410E+03  0.18961341578E+03  0.00000000000E+00 0.  1.
          3    1    3    3  501    0  0.10699935444E+02 -0.23807857169E+02 -0.50739253151E+03  0.50806346426E+03  0.00000000000E+00 0.  1.
         -1    1    1    2    0  502 -0.10779867939E+02  0.31562431044E+02 -0.30181930192E+03  0.30365652244E+03  0.00000000000E+00 0. -1.
<mgrwt>
<rscale>  1 0.30000000E+03</rscale>
<asrwt>0</asrwt>
<pdfrwt beam="1">  1       21 0.48487465E-02 0.30000000E+03</pdfrwt>
<pdfrwt beam="2">0</pdfrwt>
<totfact> 0.30352060E+04</totfact>
</mgrwt>
</event>
<event>
 6    1  0.1270461E-001  0.3000000E+03  0.7818608E-02  0.1093470E+00
         21   -1    0    0  501  502  0.00000000000E+00  0.00000000000E+00  0.95289494932E+00  0.95289494932E+00  0.00000000000E+00 0. -1.
         13   -1    0    0    0    0 -0.00000000000E+00 -0.00000000000E+00 -0.10000000000E+04  0.10000000000E+04  0.00000000000E+00 0.  1.
    9000005    2    1    2  501    0  0.70578326849E+01 -0.29863784677E+02 -0.54215217830E+03  0.54302862967E+03  0.30740157241E+01 0.  0.
         13    1    3    3    0    0  0.23709954486E+01 -0.71100098800E+01 -0.11323658695E+03  0.11348435347E+03  0.00000000000E+00 0.  1.
          3    1    3    3  501    0  0.46868372363E+01 -0.22753774797E+02 -0.42891559135E+03  0.42954427620E+03  0.00000000000E+00 0.  1.
         -1    1    1    2    0  502 -0.70578326849E+01  0.29863784677E+02 -0.45689492675E+03  0.45792426528E+03  0.00000000000E+00 0. -1.
<mgrwt>
<rscale>  1 0.30000000E+03</rscale>
<asrwt>0</asrwt>
<pdfrwt beam="1">  1       21 0.34650798E-02 0.30000000E+03</pdfrwt>
<pdfrwt beam="2">0</pdfrwt>
<totfact> 0.53507397E+04</totfact>
</mgrwt>
</event>
<event>
 6    1  0.1270461E-001  0.3000000E+03  0.7818608E-02  0.1093470E+00
         21   -1    0    0  501  502  0.00000000000E+00  0.00000000000E+00  0.36012056383E+01  0.36012056383E+01  0.00000000000E+00 0. -1.
         13   -1    0    0    0    0 -0.00000000000E+00 -0.00000000000E+00 -0.10000000000E+04  0.10000000000E+04  0.00000000000E+00 0.  1.
    9000005    2    1    2  501    0 -0.14900424347E+02  0.33828234668E+02 -0.89339553535E+03  0.89416609485E+03  0.33242274056E+01 0.  0.
         13    1    3    3    0    0 -0.10388776691E+02  0.20671491621E+02 -0.58405464293E+03  0.58451267153E+03  0.00000000000E+00 0.  1.
          1    1    3    3  501    0 -0.45116476562E+01  0.13156743046E+02 -0.30934089242E+03  0.30965342332E+03  0.00000000000E+00 0.  1.
         -3    1    1    2    0  502  0.14900424347E+02 -0.33828234668E+02 -0.10300325901E+03  0.10943511079E+03  0.00000000000E+00 0. -1.
<mgrwt>
<rscale>  1 0.30000000E+03</rscale>
<asrwt>0</asrwt>
<pdfrwt beam="1">  1       21 0.13095321E-01 0.30000000E+03</pdfrwt>
<pdfrwt beam="2">0</pdfrwt>
<totfact> 0.52855182E+03</totfact>
</mgrwt>
</event>
<event>
 6    1  0.1270461E-001  0.3000000E+03  0.7818608E-02  0.1093470E+00
         21   -1    0    0  501  502  0.00000000000E+00  0.00000000000E+00  0.30054746052E+01  0.30054746052E+01  0.00000000000E+00 0. -1.
         13   -1    0    0    0    0 -0.00000000000E+00 -0.00000000000E+00 -0.10000000000E+04  0.10000000000E+04  0.00000000000E+00 0.  1.
    9000005    2    1    2  501    0 -0.34651543917E+02  0.37360626589E+02 -0.68267120384E+03  0.68457856558E+03  0.33606533625E+01 0.  0.
         13    1    3    3    0    0 -0.28260262564E+02  0.32225533999E+02 -0.57705279146E+03  0.57864242120E+03  0.00000000000E+00 0.  1.
          3    1    3    3  501    0 -0.63912813527E+01  0.51350925907E+01 -0.10561841238E+03  0.10593614439E+03  0.00000000000E+00 0.  1.
         -1    1    1    2    0  502  0.34651543917E+02 -0.37360626589E+02 -0.31432332156E+03  0.31842690902E+03  0.00000000000E+00 0. -1.
<mgrwt>
<rscale>  1 0.30000000E+03</rscale>
<asrwt>0</asrwt>
<pdfrwt beam="1">  1       21 0.10929022E-01 0.30000000E+03</pdfrwt>
<pdfrwt beam="2">0</pdfrwt>
<totfact> 0.73369549E+03</totfact>
</mgrwt>
</event>
<event>
 6    1  0.1270461E-001  0.3000000E+03  0.7818608E-02  0.1093470E+00
         21   -1    0    0  501  502  0.00000000000E+00  0.00000000000E+00  0.33651980002E+01  0.33651980002E+01  0.00000000000E+00 0. -1.
         13   -1    0    0    0    0 -0.00000000000E+00 -0.00000000000E+00 -0.10000000000E+04  0.10000000000E+04  0.00000000000E+00 0.  1.
    9000005    2    1    2  501    0  0.31425963579E+02 -0.14816187909E+02 -0.97471216112E+02  0.10353062165E+03  0.32925730978E+01 0.  0.
         13    1    3    3    0    0  0.28271636761E+02 -0.14304307358E+02 -0.89489417507E+02  0.94932894720E+02  0.00000000000E+00 0.  1.
          3    1    3    3  501    0  0.31543268182E+01 -0.51188055030E+00 -0.79817986054E+01  0.85977269293E+01  0.00000000000E+00 0.  1.
         -3    1    1    2    0  502 -0.31425963579E+02  0.14816187909E+02 -0.89916358589E+03  0.89983457635E+03  0.00000000000E+00 0. -1.
<mgrwt>
<rscale>  1 0.30000000E+03</rscale>
<asrwt>0</asrwt>
<pdfrwt beam="1">  1       21 0.12237109E-01 0.30000000E+03</pdfrwt>
<pdfrwt beam="2">0</pdfrwt>
<totfact> 0.59806649E+03</totfact>
</mgrwt>
</event>
<event>
 6    1  0.1270461E-001  0.3000000E+03  0.7818608E-02  0.1093470E+00
         21   -1    0    0  501  502  0.00000000000E+00  0.00000000000E+00  0.30043146390E+01  0.30043146390E+01  0.00000000000E+00 0. -1.
         13   -1    0    0    0    0 -0.00000000000E+00 -0.00000000000E+00 -0.10000000000E+04  0.10000000000E+04  0.00000000000E+00 0.  1.
    9000005    2    1    2  501    0  0.22885934202E+02 -0.40166345708E+02 -0.76740565298E+03  0.76880635504E+03  0.38306672541E+01 0.  0.
         13    1    3    3    0    0  0.18298211999E+02 -0.28949034462E+02 -0.57677749811E+03  0.57779334842E+03  0.00000000000E+00 0.  1.
          1    1    3    3  501    0  0.45877222028E+01 -0.11217311246E+02 -0.19062815487E+03  0.19101300662E+03  0.00000000000E+00 0.  1.
         -3    1    1    2    0  502 -0.22885934202E+02  0.40166345708E+02 -0.22959003238E+03  0.23419795960E+03  0.00000000000E+00 0. -1.
<mgrwt>
<rscale>  1 0.30000000E+03</rscale>
<asrwt>0</asrwt>
<pdfrwt beam="1">  1       21 0.10924804E-01 0.30000000E+03</pdfrwt>
<pdfrwt beam="2">0</pdfrwt>
<totfact> 0.73420494E+03</totfact>
</mgrwt>
</event>
<event>
 6    1  0.1270461E-001  0.3000000E+03  0.7818608E-02  0.1093470E+00
         21   -1    0    0  501  502  0.00000000000E+00  0.00000000000E+00  0.39049198835E+01  0.39049198835E+01  0.00000000000E+00 0. -1.
         13   -1    0    0    0    0 -0.00000000000E+00 -0.00000000000E+00 -0.10000000000E+04  0.10000000000E+04  0.00000000000E+00 0.  1.
    9000005    2    1    2  501    0  0.28784859965E+02  0.22528395358E+02 -0.91693479548E+02  0.98764957297E+02  0.32750324585E+01 0.  0.
         13    1    3    3    0    0  0.15434283641E+02  0.13905202343E+02 -0.53965455890E+02  0.57825964697E+02  0.00000000000E+00 0.  1.
          1    1    3    3  501    0  0.13350576324E+02  0.86231930154E+01 -0.37728023658E+02  0.40938992600E+02  0.00000000000E+00 0.  1.
         -1    1    1    2    0  502 -0.28784859965E+02 -0.22528395358E+02 -0.90440160057E+03  0.90513996259E+03  0.00000000000E+00 0. -1.
<mgrwt>
<rscale>  1 0.30000000E+03</rscale>
<asrwt>0</asrwt>
<pdfrwt beam="1">  1       21 0.14199739E-01 0.30000000E+03</pdfrwt>
<pdfrwt beam="2">0</pdfrwt>
<totfact> 0.45564416E+03</totfact>
</mgrwt>
</event>
<event>
 6    1  0.1270461E-001  0.3000000E+03  0.7818608E-02  0.1093470E+00
         21   -1    0    0  501  502  0.00000000000E+00  0.00000000000E+00  0.23262878707E+01  0.23262878707E+01  0.00000000000E+00 0. -1.
         13   -1    0    0    0    0 -0.00000000000E+00 -0.00000000000E+00 -0.10000000000E+04  0.10000000000E+04  0.00000000000E+00 0.  1.
    9000005    2    1    2  501    0  0.34312000567E+02  0.33006802949E+02 -0.57589717028E+03  0.57787109156E+03  0.32688371764E+01 0.  0.
         13    1    3    3    0    0  0.28363418837E+02  0.27591252445E+02 -0.49234714188E+03  0.49393468076E+03  0.00000000000E+00 0.  1.
          3    1    3    3  501    0  0.59485817292E+01  0.54155505031E+01 -0.83550028407E+02  0.83936410804E+02  0.00000000000E+00 0.  1.
         -3    1    1    2    0  502 -0.34312000567E+02 -0.33006802949E+02 -0.42177654184E+03  0.42445519631E+03  0.00000000000E+00 0. -1.
<mgrwt>
<rscale>  1 0.30000000E+03</rscale>
<asrwt>0</asrwt>
<pdfrwt beam="1">  1       21 0.84592465E-02 0.30000000E+03</pdfrwt>
<pdfrwt beam="2">0</pdfrwt>
<totfact> 0.11578960E+04</totfact>
</mgrwt>
</event>
<event>
 6    1  0.1270461E-001  0.3000000E+03  0.7818608E-02  0.1093470E+00
         21   -1    0    0  501  502  0.00000000000E+00  0.00000000000E+00  0.16684646379E+01  0.16684646379E+01  0.00000000000E+00 0. -1.
         13   -1    0    0    0    0 -0.00000000000E+00 -0.00000000000E+00 -0.10000000000E+04  0.10000000000E+04  0.00000000000E+00 0.  1.
    9000005    2    1    2  501    0 -0.37924841332E+02 -0.71555769348E+01 -0.34074784445E+03  0.34295319502E+03  0.42783883928E+01 0.  0.
         13    1    3    3    0    0 -0.19793924030E+02 -0.30870243589E+01 -0.19473101621E+03  0.19575877457E+03  0.00000000000E+00 0.  1.
          3    1    3    3  501    0 -0.18130917302E+02 -0.40685525758E+01 -0.14601682824E+03  0.14719442045E+03  0.00000000000E+00 0.  1.
         -3    1    1    2    0  502  0.37924841332E+02  0.71555769348E+01 -0.65758369091E+03  0.65871526962E+03  0.00000000000E+00 0. -1.
<mgrwt>
<rscale>  1 0.30000000E+03</rscale>
<asrwt>0</asrwt>
<pdfrwt beam="1">  1       21 0.60671569E-02 0.30000000E+03</pdfrwt>
<pdfrwt beam="2">0</pdfrwt>
<totfact> 0.20670934E+04</totfact>
</mgrwt>
</event>
<event>
 6    1  0.1270461E-001  0.3000000E+03  0.7818608E-02  0.1093470E+00
         21   -1    0    0  501  502  0.00000000000E+00  0.00000000000E+00  0.41881965390E+01  0.41881965390E+01  0.00000000000E+00 0. -1.
         13   -1    0    0    0    0 -0.00000000000E+00 -0.00000000000E+00 -0.10000000000E+04  0.10000000000E+04  0.00000000000E+00 0.  1.
    9000005    2    1    2  501    0 -0.42264215696E+01 -0.38506459703E+02 -0.90004013606E+03  0.90087884384E+03  0.31360298018E+01 0.  0.
         13    1    3    3    0    0 -0.36783822712E+01 -0.30729759890E+02 -0.68896429331E+03  0.68965907961E+03  0.00000000000E+00 0.  1.
          1    1    3    3  501    0 -0.54803929847E+00 -0.77766998123E+01 -0.21107584276E+03  0.21121976423E+03  0.00000000000E+00 0.  1.
         -3    1    1    2    0  502  0.42264215696E+01  0.38506459703E+02 -0.95771667399E+02  0.10330935270E+03  0.00000000000E+00 0. -1.
<mgrwt>
<rscale>  1 0.30000000E+03</rscale>
<asrwt>0</asrwt>
<pdfrwt beam="1">  1       21 0.15229838E-01 0.30000000E+03</pdfrwt>
<pdfrwt beam="2">0</pdfrwt>
<totfact> 0.40036445E+03</totfact>
</mgrwt>
</event>
<event>
 6    1  0.1270461E-001  0.3000000E+03  0.7818608E-02  0.1093470E+00
         21   -1    0    0  501  502  0.00000000000E+00  0.00000000000E+00  0.77358324080E+01  0.77358324080E+01  0.00000000000E+00 0. -1.
         13   -1    0    0    0    0 -0.00000000000E+00 -0.00000000000E+00 -0.10000000000E+04  0.10000000000E+04  0.00000000000E+00 0.  1.
    9000005    2    1    2  501    0 -0.43057703835E+01  0.86049409866E+02 -0.59612281246E+03  0.60233354598E+03  0.45002753443E+01 0.  0.
         13    1    3    3    0    0 -0.23399725673E+01  0.70901040424E+02 -0.48169435660E+03  0.48689001446E+03  0.00000000000E+00 0.  1.
          1    1    3    3  501    0 -0.19657978162E+01  0.15148369442E+02 -0.11442845586E+03  0.11544353152E+03  0.00000000000E+00 0.  1.
         -1    1    1    2    0  502  0.43057703835E+01 -0.86049409866E+02 -0.39614135513E+03  0.40540228643E+03  0.00000000000E+00 0. -1.
<mgrwt>
<rscale>  1 0.30000000E+03</rscale>
<asrwt>0</asrwt>
<pdfrwt beam="1">  1       21 0.28130359E-01 0.30000000E+03</pdfrwt>
<pdfrwt beam="2">0</pdfrwt>
<totfact> 0.12359609E+03</totfact>
</mgrwt>
</event>
<event>
 6    1  0.1270461E-001  0.3000000E+03  0.7818608E-02  0.1093470E+00
         21   -1    0    0  501  502  0.00000000000E+00  0.00000000000E+00  0.83570068679E+01  0.83570068679E+01  0.00000000000E+00 0. -1.
         13   -1    0    0    0    0 -0.00000000000E+00 -0.00000000000E+00 -0.10000000000E+04  0.10000000000E+04  0.00000000000E+00 0.  1.
    9000005    2    1    2  501    0  0.25859924002E+02 -0.19128384935E+02 -0.96775089006E+03  0.96828877295E+03  0.25945798418E+01 0.  0.
         13    1    3    3    0    0  0.21848427013E+02 -0.15035004754E+02 -0.78341594736E+03  0.78386475345E+03  0.00000000000E+00 0.  1.
          3    1    3    3  501    0  0.40114969890E+01 -0.40933801810E+01 -0.18433494270E+03  0.18442401950E+03  0.00000000000E+00 0.  1.
         -1    1    1    2    0  502 -0.25859924002E+02  0.19128384935E+02 -0.23892103076E+02  0.40068233914E+02  0.00000000000E+00 0. -1.
<mgrwt>
<rscale>  1 0.30000000E+03</rscale>
<asrwt>0</asrwt>
<pdfrwt beam="1">  1       21 0.30389180E-01 0.30000000E+03</pdfrwt>
<pdfrwt beam="2">0</pdfrwt>
<totfact> 0.10595772E+03</totfact>
</mgrwt>
</event>
<event>
 6    1  0.1270461E-001  0.3000000E+03  0.7818608E-02  0.1093470E+00
         21   -1    0    0  501  502  0.00000000000E+00  0.00000000000E+00  0.14692809475E+01  0.14692809475E+01  0.00000000000E+00 0. -1.
         13   -1    0    0    0    0 -0.00000000000E+00 -0.00000000000E+00 -0.10000000000E+04  0.10000000000E+04  0.00000000000E+00 0.  1.
    9000005    2    1    2  501    0 -0.27890502489E+02 -0.21740370869E+02 -0.69064589663E+03  0.69156028183E+03  0.36530837774E+01 0.  0.
         13    1    3    3    0    0 -0.58086729941E+01 -0.49724675586E+01 -0.17976049729E+03  0.17992304606E+03  0.00000000000E+00 0.  1.
          3    1    3    3  501    0 -0.22081829495E+02 -0.16767903310E+02 -0.51088539934E+03  0.51163723577E+03  0.00000000000E+00 0.  1.
         -1    1    1    2    0  502  0.27890502489E+02  0.21740370869E+02 -0.30788482242E+03  0.30990899912E+03  0.00000000000E+00 0. -1.
<mgrwt>
<rscale>  1 0.30000000E+03</rscale>
<asrwt>0</asrwt>
<pdfrwt beam="1">  1       21 0.53428511E-02 0.30000000E+03</pdfrwt>
<pdfrwt beam="2">0</pdfrwt>
<totfact> 0.25720090E+04</totfact>
</mgrwt>
</event>
<event>
 6    1  0.1270461E-001  0.3000000E+03  0.7818608E-02  0.1093470E+00
         21   -1    0    0  501  502  0.00000000000E+00  0.00000000000E+00  0.37373999462E+01  0.37373999462E+01  0.00000000000E+00 0. -1.
         13   -1    0    0    0    0 -0.00000000000E+00 -0.00000000000E+00 -0.10000000000E+04  0.10000000000E+04  0.00000000000E+00 0.  1.
    9000005    2    1    2  501    0  0.44517058596E+02 -0.37131718661E+01 -0.83989207021E+03  0.84111114513E+03  0.73288956639E+01 0.  0.
         13    1    3    3    0    0  0.39171662277E+02 -0.83769505979E+00 -0.73517915836E+03  0.73622246348E+03  0.00000000000E+00 0.  1.
          3    1    3    3  501    0  0.53453963186E+01 -0.28754768063E+01 -0.10471291186E+03  0.10488868165E+03  0.00000000000E+00 0.  1.
         -1    1    1    2    0  502 -0.44517058596E+02  0.37131718661E+01 -0.15637052984E+03  0.16262625481E+03  0.00000000000E+00 0. -1.
<mgrwt>
<rscale>  1 0.30000000E+03</rscale>
<asrwt>0</asrwt>
<pdfrwt beam="1">  1       21 0.13590574E-01 0.30000000E+03</pdfrwt>
<pdfrwt beam="2">0</pdfrwt>
<totfact> 0.49384337E+03</totfact>
</mgrwt>
</event>
<event>
 6    1  0.1270461E-001  0.3000000E+03  0.7818608E-02  0.1093470E+00
         21   -1    0    0  501  502  0.00000000000E+00  0.00000000000E+00  0.24117256033E+01  0.24117256033E+01  0.00000000000E+00 0. -1.
         13   -1    0    0    0    0 -0.00000000000E+00 -0.00000000000E+00 -0.10000000000E+04  0.10000000000E+04  0.00000000000E+00 0.  1.
    9000005    2    1    2  501    0  0.44284905977E+02  0.12467301901E+02 -0.67306989129E+03  0.67464844595E+03  0.32955347630E+01 0.  0.
         13    1    3    3    0    0  0.95281786550E+01  0.13138585854E+01 -0.13703760502E+03  0.13737473422E+03  0.00000000000E+00 0.  1.
          1    1    3    3  501    0  0.34756727322E+02  0.11153443315E+02 -0.53603228627E+03  0.53727371173E+03  0.00000000000E+00 0.  1.
         -3    1    1    2    0  502 -0.44284905977E+02 -0.12467301901E+02 -0.32451838311E+03  0.32776327965E+03  0.00000000000E+00 0. -1.
<mgrwt>
<rscale>  1 0.30000000E+03</rscale>
<asrwt>0</asrwt>
<pdfrwt beam="1">  1       21 0.87699298E-02 0.30000000E+03</pdfrwt>
<pdfrwt beam="2">0</pdfrwt>
<totfact> 0.10864741E+04</totfact>
</mgrwt>
</event>
<event>
 6    1  0.1270461E-001  0.3000000E+03  0.7818608E-02  0.1093470E+00
         21   -1    0    0  501  502  0.00000000000E+00  0.00000000000E+00  0.33721478235E+01  0.33721478235E+01  0.00000000000E+00 0. -1.
         13   -1    0    0    0    0 -0.00000000000E+00 -0.00000000000E+00 -0.10000000000E+04  0.10000000000E+04  0.00000000000E+00 0.  1.
    9000005    2    1    2  501    0 -0.38796324710E+02  0.28972309166E+02 -0.77478138498E+03  0.77630298542E+03  0.39472956534E+01 0.  0.
         13    1    3    3    0    0 -0.10925539830E+02  0.75296926371E+01 -0.18634684066E+03  0.18681865195E+03  0.00000000000E+00 0.  1.
          1    1    3    3  501    0 -0.27870784879E+02  0.21442616528E+02 -0.58843454432E+03  0.58948433347E+03  0.00000000000E+00 0.  1.
         -1    1    1    2    0  502  0.38796324710E+02 -0.28972309166E+02 -0.22184646719E+03  0.22706916241E+03  0.00000000000E+00 0. -1.
<mgrwt>
<rscale>  1 0.30000000E+03</rscale>
<asrwt>0</asrwt>
<pdfrwt beam="1">  1       21 0.12262382E-01 0.30000000E+03</pdfrwt>
<pdfrwt beam="2">0</pdfrwt>
<totfact> 0.59582608E+03</totfact>
</mgrwt>
</event>
<event>
 6    1  0.1270461E-001  0.3000000E+03  0.7818608E-02  0.1093470E+00
         21   -1    0    0  501  502  0.00000000000E+00  0.00000000000E+00  0.13610354240E+01  0.13610354240E+01  0.00000000000E+00 0. -1.
         13   -1    0    0    0    0 -0.00000000000E+00 -0.00000000000E+00 -0.10000000000E+04  0.10000000000E+04  0.00000000000E+00 0.  1.
    9000005    2    1    2  501    0  0.32227341135E+02  0.11261198758E+02 -0.68755256015E+03  0.68840709770E+03  0.32238315756E+01 0.  0.
         13    1    3    3    0    0  0.23184135983E+02  0.65752633185E+01 -0.47716115764E+03  0.47776930480E+03  0.00000000000E+00 0.  1.
          3    1    3    3  501    0  0.90432051526E+01  0.46859354396E+01 -0.21039140251E+03  0.21063779291E+03  0.00000000000E+00 0.  1.
         -1    1    1    2    0  502 -0.32227341135E+02 -0.11261198758E+02 -0.31108640443E+03  0.31295393772E+03  0.00000000000E+00 0. -1.
<mgrwt>
<rscale>  1 0.30000000E+03</rscale>
<asrwt>0</asrwt>
<pdfrwt beam="1">  1       21 0.49492302E-02 0.30000000E+03</pdfrwt>
<pdfrwt beam="2">0</pdfrwt>
<totfact> 0.29310063E+04</totfact>
</mgrwt>
</event>
<event>
 6    1  0.1270461E-001  0.3000000E+03  0.7818608E-02  0.1093470E+00
         21   -1    0    0  501  502  0.00000000000E+00  0.00000000000E+00  0.76077775840E+01  0.76077775840E+01  0.00000000000E+00 0. -1.
         13   -1    0    0    0    0 -0.00000000000E+00 -0.00000000000E+00 -0.10000000000E+04  0.10000000000E+04  0.00000000000E+00 0.  1.
    9000005    2    1    2  501    0 -0.65261454975E+02  0.55430216150E+02 -0.59107660322E+03  0.59725939806E+03  0.39587028706E+01 0.  0.
         13    1    3    3    0    0 -0.39234308353E+02  0.35464010294E+02 -0.37187500678E+03  0.37561688946E+03  0.00000000000E+00 0.  1.
          3    1    3    3  501    0 -0.26027146621E+02  0.19966205856E+02 -0.21920159644E+03  0.22164250861E+03  0.00000000000E+00 0.  1.
         -1    1    1    2    0  502  0.65261454975E+02 -0.55430216150E+02 -0.40131561919E+03  0.41034837952E+03  0.00000000000E+00 0. -1.
<mgrwt>
<rscale>  1 0.30000000E+03</rscale>
<asrwt>0</asrwt>
<pdfrwt beam="1">  1       21 0.27664704E-01 0.30000000E+03</pdfrwt>
<pdfrwt beam="2">0</pdfrwt>
<totfact> 0.12775336E+03</totfact>
</mgrwt>
</event>
<event>
 6    1  0.1270461E-001  0.3000000E+03  0.7818608E-02  0.1093470E+00
         21   -1    0    0  501  502  0.00000000000E+00  0.00000000000E+00  0.56524719285E+01  0.56524719285E+01  0.00000000000E+00 0. -1.
         13   -1    0    0    0    0 -0.00000000000E+00 -0.00000000000E+00 -0.10000000000E+04  0.10000000000E+04  0.00000000000E+00 0.  1.
    9000005    2    1    2  501    0 -0.29715920304E+02 -0.48261820204E+02 -0.82742759323E+03  0.82937285354E+03  0.32663366279E+01 0.  0.
         13    1    3    3    0    0 -0.74768359951E+01 -0.11177325047E+02 -0.21581461820E+03  0.21623317298E+03  0.00000000000E+00 0.  1.
          3    1    3    3  501    0 -0.22239084309E+02 -0.37084495158E+02 -0.61161297503E+03  0.61313968056E+03  0.00000000000E+00 0.  1.
         -3    1    1    2    0  502  0.29715920304E+02  0.48261820204E+02 -0.16691993485E+03  0.17627961839E+03  0.00000000000E+00 0. -1.
<mgrwt>
<rscale>  1 0.30000000E+03</rscale>
<asrwt>0</asrwt>
<pdfrwt beam="1">  1       21 0.20554487E-01 0.30000000E+03</pdfrwt>
<pdfrwt beam="2">0</pdfrwt>
<totfact> 0.22770384E+03</totfact>
</mgrwt>
</event>
<event>
 6    1  0.1270461E-001  0.3000000E+03  0.7818608E-02  0.1093470E+00
         21   -1    0    0  501  502  0.00000000000E+00  0.00000000000E+00  0.38366320336E+01  0.38366320336E+01  0.00000000000E+00 0. -1.
         13   -1    0    0    0    0 -0.00000000000E+00 -0.00000000000E+00 -0.10000000000E+04  0.10000000000E+04  0.00000000000E+00 0.  1.
    9000005    2    1    2  501    0 -0.42400262598E+02 -0.23116219414E+02 -0.81216174098E+03  0.81360324747E+03  0.33777086260E+01 0.  0.
         13    1    3    3    0    0 -0.17056425019E+02 -0.10040508109E+02 -0.30735132544E+03  0.30798793919E+03  0.00000000000E+00 0.  1.
          3    1    3    3  501    0 -0.25343837579E+02 -0.13075711305E+02 -0.50481041554E+03  0.50561530828E+03  0.00000000000E+00 0.  1.
         -3    1    1    2    0  502  0.42400262598E+02  0.23116219414E+02 -0.18400162698E+03  0.19023338456E+03  0.00000000000E+00 0. -1.
<mgrwt>
<rscale>  1 0.30000000E+03</rscale>
<asrwt>0</asrwt>
<pdfrwt beam="1">  1       21 0.13951419E-01 0.30000000E+03</pdfrwt>
<pdfrwt beam="2">0</pdfrwt>
<totfact> 0.47066368E+03</totfact>
</mgrwt>
</event>
<event>
 6    1  0.1270461E-001  0.3000000E+03  0.7818608E-02  0.1093470E+00
         21   -1    0    0  501  502  0.00000000000E+00  0.00000000000E+00  0.34518426488E+01  0.34518426488E+01  0.00000000000E+00 0. -1.
         13   -1    0    0    0    0 -0.00000000000E+00 -0.00000000000E+00 -0.10000000000E+04  0.10000000000E+04  0.00000000000E+00 0.  1.
    9000005    2    1    2  501    0 -0.15201644080E+02  0.55143837674E+02 -0.61164374046E+03  0.61432031866E+03  0.30750388249E+01 0.  0.
         13    1    3    3    0    0 -0.91302592121E+01  0.37263840988E+02 -0.39973159186E+03  0.40156855082E+03  0.00000000000E+00 0.  1.
          3    1    3    3  501    0 -0.60713848676E+01  0.17879996686E+02 -0.21191214859E+03  0.21275176784E+03  0.00000000000E+00 0.  1.
         -1    1    1    2    0  502  0.15201644080E+02 -0.55143837674E+02 -0.38490441689E+03  0.38913152399E+03  0.00000000000E+00 0. -1.
<mgrwt>
<rscale>  1 0.30000000E+03</rscale>
<asrwt>0</asrwt>
<pdfrwt beam="1">  1       21 0.12552182E-01 0.30000000E+03</pdfrwt>
<pdfrwt beam="2">0</pdfrwt>
<totfact> 0.57101973E+03</totfact>
</mgrwt>
</event>
<event>
 6    1  0.1270461E-001  0.3000000E+03  0.7818608E-02  0.1093470E+00
         21   -1    0    0  501  502  0.00000000000E+00  0.00000000000E+00  0.38299218648E+01  0.38299218648E+01  0.00000000000E+00 0. -1.
         13   -1    0    0    0    0 -0.00000000000E+00 -0.00000000000E+00 -0.10000000000E+04  0.10000000000E+04  0.00000000000E+00 0.  1.
    9000005    2    1    2  501    0  0.24865684306E+02 -0.43454962356E+02 -0.79246488186E+03  0.79406232904E+03  0.52685303256E+01 0.  0.
         13    1    3    3    0    0  0.18512636910E+02 -0.36158689186E+02 -0.62621389271E+03  0.62753008529E+03  0.00000000000E+00 0.  1.
          1    1    3    3  501    0  0.63530473964E+01 -0.72962731697E+01 -0.16625098916E+03  0.16653224375E+03  0.00000000000E+00 0.  1.
         -1    1    1    2    0  502 -0.24865684306E+02  0.43454962356E+02 -0.20370519627E+03  0.20976759282E+03  0.00000000000E+00 0. -1.
<mgrwt>
<rscale>  1 0.30000000E+03</rscale>
<asrwt>0</asrwt>
<pdfrwt beam="1">  1       21 0.13927018E-01 0.30000000E+03</pdfrwt>
<pdfrwt beam="2">0</pdfrwt>
<totfact> 0.47217928E+03</totfact>
</mgrwt>
</event>
<event>
 6    1  0.1270461E-001  0.3000000E+03  0.7818608E-02  0.1093470E+00
         21   -1    0    0  501  502  0.00000000000E+00  0.00000000000E+00  0.19250944412E+01  0.19250944412E+01  0.00000000000E+00 0. -1.
         13   -1    0    0    0    0 -0.00000000000E+00 -0.00000000000E+00 -0.10000000000E+04  0.10000000000E+04  0.00000000000E+00 0.  1.
    9000005    2    1    2  501    0  0.34490457265E+02  0.17192269312E+02 -0.26146504771E+03  0.26430781668E+03  0.30797759076E+01 0.  0.
         13    1    3    3    0    0  0.24227560046E+02  0.13088340462E+02 -0.19360331511E+03  0.19555184209E+03  0.00000000000E+00 0.  1.
          1    1    3    3  501    0  0.10262897219E+02  0.41039288501E+01 -0.67861732598E+02  0.68755974596E+02  0.00000000000E+00 0.  1.
         -3    1    1    2    0  502 -0.34490457265E+02 -0.17192269312E+02 -0.73660985785E+03  0.73761727776E+03  0.00000000000E+00 0. -1.
<mgrwt>
<rscale>  1 0.30000000E+03</rscale>
<asrwt>0</asrwt>
<pdfrwt beam="1">  1       21 0.70003582E-02 0.30000000E+03</pdfrwt>
<pdfrwt beam="2">0</pdfrwt>
<totfact> 0.16133850E+04</totfact>
</mgrwt>
</event>
<event>
 6    1  0.1270461E-001  0.3000000E+03  0.7818608E-02  0.1093470E+00
         21   -1    0    0  501  502  0.00000000000E+00  0.00000000000E+00  0.18436948864E+01  0.18436948864E+01  0.00000000000E+00 0. -1.
         13   -1    0    0    0    0 -0.00000000000E+00 -0.00000000000E+00 -0.10000000000E+04  0.10000000000E+04  0.00000000000E+00 0.  1.
    9000005    2    1    2  501    0  0.21819560987E+02  0.24888709702E+02 -0.81775159070E+03  0.81842776838E+03  0.32873783287E+01 0.  0.
         13    1    3    3    0    0  0.21211460188E+01  0.34490303576E+01 -0.81055772718E+02  0.81156844208E+02  0.00000000000E+00 0.  1.
          3    1    3    3  501    0  0.19698414968E+02  0.21439679344E+02 -0.73669581798E+03  0.73727092418E+03  0.00000000000E+00 0.  1.
         -1    1    1    2    0  502 -0.21819560987E+02 -0.24888709702E+02 -0.18040471441E+03  0.18341592650E+03  0.00000000000E+00 0. -1.
<mgrwt>
<rscale>  1 0.30000000E+03</rscale>
<asrwt>0</asrwt>
<pdfrwt beam="1">  1       21 0.67043592E-02 0.30000000E+03</pdfrwt>
<pdfrwt beam="2">0</pdfrwt>
<totfact> 0.17391547E+04</totfact>
</mgrwt>
</event>
<event>
 6    1  0.1270461E-001  0.3000000E+03  0.7818608E-02  0.1093470E+00
         21   -1    0    0  501  502  0.00000000000E+00  0.00000000000E+00  0.11209230209E+01  0.11209230209E+01  0.00000000000E+00 0. -1.
         13   -1    0    0    0    0 -0.00000000000E+00 -0.00000000000E+00 -0.10000000000E+04  0.10000000000E+04  0.00000000000E+00 0.  1.
    9000005    2    1    2  501    0 -0.24482363566E+02 -0.18873761690E+02 -0.68986526038E+03  0.69056473832E+03  0.31583741819E+01 0.  0.
         13    1    3    3    0    0 -0.82472200801E+01 -0.47771685167E+01 -0.22877426910E+03  0.22897271492E+03  0.00000000000E+00 0.  1.
          3    1    3    3  501    0 -0.16235143486E+02 -0.14096593173E+02 -0.46109099128E+03  0.46159202340E+03  0.00000000000E+00 0.  1.
         -3    1    1    2    0  502  0.24482363566E+02  0.18873761690E+02 -0.30901381660E+03  0.31055618470E+03  0.00000000000E+00 0. -1.
<mgrwt>
<rscale>  1 0.30000000E+03</rscale>
<asrwt>0</asrwt>
<pdfrwt beam="1">  1       21 0.40760923E-02 0.30000000E+03</pdfrwt>
<pdfrwt beam="2">0</pdfrwt>
<totfact> 0.40733289E+04</totfact>
</mgrwt>
</event>
<event>
 6    1  0.1270461E-001  0.3000000E+03  0.7818608E-02  0.1093470E+00
         21   -1    0    0  501  502  0.00000000000E+00  0.00000000000E+00  0.17112464498E+01  0.17112464498E+01  0.00000000000E+00 0. -1.
         13   -1    0    0    0    0 -0.00000000000E+00 -0.00000000000E+00 -0.10000000000E+04  0.10000000000E+04  0.00000000000E+00 0.  1.
    9000005    2    1    2  501    0  0.34068230566E+02  0.23203960304E+02 -0.53420952243E+03  0.53580503178E+03  0.28548418082E+01 0.  0.
         13    1    3    3    0    0  0.22006175860E+02  0.15417747845E+02 -0.36484455730E+03  0.36583265261E+03  0.00000000000E+00 0.  1.
          3    1    3    3  501    0  0.12062054706E+02  0.77862124588E+01 -0.16936496513E+03  0.16997237917E+03  0.00000000000E+00 0.  1.
         -3    1    1    2    0  502 -0.34068230566E+02 -0.23203960304E+02 -0.46407923112E+03  0.46590621467E+03  0.00000000000E+00 0. -1.
<mgrwt>
<rscale>  1 0.30000000E+03</rscale>
<asrwt>0</asrwt>
<pdfrwt beam="1">  1       21 0.62227275E-02 0.30000000E+03</pdfrwt>
<pdfrwt beam="2">0</pdfrwt>
<totfact> 0.19786892E+04</totfact>
</mgrwt>
</event>
<event>
 6    1  0.1270461E-001  0.3000000E+03  0.7818608E-02  0.1093470E+00
         21   -1    0    0  501  502  0.00000000000E+00  0.00000000000E+00  0.11263072118E+01  0.11263072118E+01  0.00000000000E+00 0. -1.
         13   -1    0    0    0    0 -0.00000000000E+00 -0.00000000000E+00 -0.10000000000E+04  0.10000000000E+04  0.00000000000E+00 0.  1.
    9000005    2    1    2  501    0 -0.28829337585E+02  0.10070887822E+02 -0.69812123509E+03  0.69882745790E+03  0.73487098400E+01 0.  0.
         13    1    3    3    0    0 -0.16788804691E+02  0.86122347000E+01 -0.47808289429E+03  0.47845510590E+03  0.00000000000E+00 0.  1.
          3    1    3    3  501    0 -0.12040532894E+02  0.14586531225E+01 -0.22003834080E+03  0.22037235199E+03  0.00000000000E+00 0.  1.
         -1    1    1    2    0  502  0.28829337585E+02 -0.10070887822E+02 -0.30075245770E+03  0.30229884932E+03  0.00000000000E+00 0. -1.
<mgrwt>
<rscale>  1 0.30000000E+03</rscale>
<asrwt>0</asrwt>
<pdfrwt beam="1">  1       21 0.40956712E-02 0.30000000E+03</pdfrwt>
<pdfrwt beam="2">0</pdfrwt>
<totfact> 0.40405543E+04</totfact>
</mgrwt>
</event>
<event>
 6    1  0.1270461E-001  0.3000000E+03  0.7818608E-02  0.1093470E+00
         21   -1    0    0  501  502  0.00000000000E+00  0.00000000000E+00  0.40663564917E+01  0.40663564917E+01  0.00000000000E+00 0. -1.
         13   -1    0    0    0    0 -0.00000000000E+00 -0.00000000000E+00 -0.10000000000E+04  0.10000000000E+04  0.00000000000E+00 0.  1.
    9000005    2    1    2  501    0 -0.96779716149E+01  0.62636685951E+02 -0.55101995939E+03  0.55466096725E+03  0.29623277997E+01 0.  0.
         13    1    3    3    0    0 -0.56132814497E+01  0.43206035815E+02 -0.38619385350E+03  0.38864374811E+03  0.00000000000E+00 0.  1.
          1    1    3    3  501    0 -0.40646901652E+01  0.19430650136E+02 -0.16482610588E+03  0.16601721914E+03  0.00000000000E+00 0.  1.
         -1    1    1    2    0  502  0.96779716149E+01 -0.62636685951E+02 -0.44491368412E+03  0.44940538924E+03  0.00000000000E+00 0. -1.
<mgrwt>
<rscale>  1 0.30000000E+03</rscale>
<asrwt>0</asrwt>
<pdfrwt beam="1">  1       21 0.14786782E-01 0.30000000E+03</pdfrwt>
<pdfrwt beam="2">0</pdfrwt>
<totfact> 0.42285212E+03</totfact>
</mgrwt>
</event>
<event>
 6    1  0.1270461E-001  0.3000000E+03  0.7818608E-02  0.1093470E+00
         21   -1    0    0  501  502  0.00000000000E+00  0.00000000000E+00  0.10208842977E+02  0.10208842977E+02  0.00000000000E+00 0. -1.
         13   -1    0    0    0    0 -0.00000000000E+00 -0.00000000000E+00 -0.10000000000E+04  0.10000000000E+04  0.00000000000E+00 0.  1.
    9000005    2    1    2  501    0 -0.27930788537E+02  0.15783754005E+02 -0.97385150015E+03  0.97438526833E+03  0.32635827161E+01 0.  0.
         13    1    3    3    0    0 -0.18315178343E+02  0.86252201969E+01 -0.59699170237E+03  0.59733485825E+03  0.00000000000E+00 0.  1.
          3    1    3    3  501    0 -0.96156101940E+01  0.71585338079E+01 -0.37685979778E+03  0.37705041009E+03  0.00000000000E+00 0.  1.
         -1    1    1    2    0  502  0.27930788537E+02 -0.15783754005E+02 -0.15939656877E+02  0.35823574642E+02  0.00000000000E+00 0. -1.
<mgrwt>
<rscale>  1 0.30000000E+03</rscale>
<asrwt>0</asrwt>
<pdfrwt beam="1">  1       21 0.37123144E-01 0.30000000E+03</pdfrwt>
<pdfrwt beam="2">0</pdfrwt>
<totfact> 0.70515534E+02</totfact>
</mgrwt>
</event>
<event>
 6    1  0.1270461E-001  0.3000000E+03  0.7818608E-02  0.1093470E+00
         21   -1    0    0  501  502  0.00000000000E+00  0.00000000000E+00  0.52178164961E+01  0.52178164961E+01  0.00000000000E+00 0. -1.
         13   -1    0    0    0    0 -0.00000000000E+00 -0.00000000000E+00 -0.10000000000E+04  0.10000000000E+04  0.00000000000E+00 0.  1.
    9000005    2    1    2  501    0  0.32679435193E+02 -0.15480532931E+02 -0.93238177477E+03  0.93309706085E+03  0.51728778395E+01 0.  0.
         13    1    3    3    0    0  0.20979535674E+02 -0.71435545310E+01 -0.56542012107E+03  0.56585429626E+03  0.00000000000E+00 0.  1.
          1    1    3    3  501    0  0.11699899519E+02 -0.83369784001E+01 -0.36696165370E+03  0.36724276459E+03  0.00000000000E+00 0.  1.
         -3    1    1    2    0  502 -0.32679435193E+02  0.15480532931E+02 -0.62400408734E+02  0.72120755643E+02  0.00000000000E+00 0. -1.
<mgrwt>
<rscale>  1 0.30000000E+03</rscale>
<asrwt>0</asrwt>
<pdfrwt beam="1">  1       21 0.18973918E-01 0.30000000E+03</pdfrwt>
<pdfrwt beam="2">0</pdfrwt>
<totfact> 0.26519841E+03</totfact>
</mgrwt>
</event>
<event>
 6    1  0.1270461E-001  0.3000000E+03  0.7818608E-02  0.1093470E+00
         21   -1    0    0  501  502  0.00000000000E+00  0.00000000000E+00  0.82125678241E+01  0.82125678241E+01  0.00000000000E+00 0. -1.
         13   -1    0    0    0    0 -0.00000000000E+00 -0.00000000000E+00 -0.10000000000E+04  0.10000000000E+04  0.00000000000E+00 0.  1.
    9000005    2    1    2  501    0  0.83026162420E+01 -0.77658638829E+02 -0.24076142914E+03  0.25313650883E+03  0.34969590537E+01 0.  0.
         13    1    3    3    0    0  0.52712890467E+01 -0.44866157083E+02 -0.14459293082E+03  0.15148555767E+03  0.00000000000E+00 0.  1.
          1    1    3    3  501    0  0.30313271954E+01 -0.32792481746E+02 -0.96168498322E+02  0.10165095117E+03  0.00000000000E+00 0.  1.
         -1    1    1    2    0  502 -0.83026162420E+01  0.77658638829E+02 -0.75102600304E+03  0.75507605899E+03  0.00000000000E+00 0. -1.
<mgrwt>
<rscale>  1 0.30000000E+03</rscale>
<asrwt>0</asrwt>
<pdfrwt beam="1">  1       21 0.29863946E-01 0.30000000E+03</pdfrwt>
<pdfrwt beam="2">0</pdfrwt>
<totfact> 0.10972079E+03</totfact>
</mgrwt>
</event>
<event>
 6    1  0.1270461E-001  0.3000000E+03  0.7818608E-02  0.1093470E+00
         21   -1    0    0  501  502  0.00000000000E+00  0.00000000000E+00  0.21321953814E+01  0.21321953814E+01  0.00000000000E+00 0. -1.
         13   -1    0    0    0    0 -0.00000000000E+00 -0.00000000000E+00 -0.10000000000E+04  0.10000000000E+04  0.00000000000E+00 0.  1.
    9000005    2    1    2  501    0 -0.20745043281E+02  0.22526321147E+02 -0.87373391476E+03  0.87427675131E+03  0.33304847813E+01 0.  0.
         13    1    3    3    0    0 -0.49379124532E+01  0.54296607418E+01 -0.17163750282E+03  0.17179434382E+03  0.00000000000E+00 0.  1.
          3    1    3    3  501    0 -0.15807130827E+02  0.17096660405E+02 -0.70209641194E+03  0.70248240749E+03  0.00000000000E+00 0.  1.
         -1    1    1    2    0  502  0.20745043281E+02 -0.22526321147E+02 -0.12413388986E+03  0.12785544407E+03  0.00000000000E+00 0. -1.
<mgrwt>
<rscale>  1 0.30000000E+03</rscale>
<asrwt>0</asrwt>
<pdfrwt beam="1">  1       21 0.77534541E-02 0.30000000E+03</pdfrwt>
<pdfrwt beam="2">0</pdfrwt>
<totfact> 0.13495246E+04</totfact>
</mgrwt>
</event>
<event>
 6    1  0.1270461E-001  0.3000000E+03  0.7818608E-02  0.1093470E+00
         21   -1    0    0  501  502  0.00000000000E+00  0.00000000000E+00  0.32020963751E+01  0.32020963751E+01  0.00000000000E+00 0. -1.
         13   -1    0    0    0    0 -0.00000000000E+00 -0.00000000000E+00 -0.10000000000E+04  0.10000000000E+04  0.00000000000E+00 0.  1.
    9000005    2    1    2  501    0 -0.24687168019E+02 -0.46577088177E+02 -0.67981371117E+03  0.68186448626E+03  0.36897588921E+01 0.  0.
         13    1    3    3    0    0 -0.21231670628E+02 -0.40524525040E+02 -0.60468147510E+03  0.60640968602E+03  0.00000000000E+00 0.  1.
          3    1    3    3  501    0 -0.34554973916E+01 -0.60525631377E+01 -0.75132236071E+02  0.75454800244E+02  0.00000000000E+00 0.  1.
         -1    1    1    2    0  502  0.24687168019E+02  0.46577088177E+02 -0.31698419246E+03  0.32133761012E+03  0.00000000000E+00 0. -1.
<mgrwt>
<rscale>  1 0.30000000E+03</rscale>
<asrwt>0</asrwt>
<pdfrwt beam="1">  1       21 0.11644011E-01 0.30000000E+03</pdfrwt>
<pdfrwt beam="2">0</pdfrwt>
<totfact> 0.65446497E+03</totfact>
</mgrwt>
</event>
<event>
 6    1  0.1270461E-001  0.3000000E+03  0.7818608E-02  0.1093470E+00
         21   -1    0    0  501  502  0.00000000000E+00  0.00000000000E+00  0.37684121531E+01  0.37684121531E+01  0.00000000000E+00 0. -1.
         13   -1    0    0    0    0 -0.00000000000E+00 -0.00000000000E+00 -0.10000000000E+04  0.10000000000E+04  0.00000000000E+00 0.  1.
    9000005    2    1    2  501    0 -0.57677230581E+00 -0.37624950323E+02 -0.89456215007E+03  0.89535879943E+03  0.31575027380E+01 0.  0.
         13    1    3    3    0    0  0.42292303001E+00 -0.10203615297E+01 -0.33957961742E+02  0.33975920403E+02  0.00000000000E+00 0.  1.
          3    1    3    3  501    0 -0.99969533582E+00 -0.36604588794E+02 -0.86060418833E+03  0.86138287903E+03  0.00000000000E+00 0.  1.
         -1    1    1    2    0  502  0.57677230581E+00  0.37624950323E+02 -0.10166943777E+03  0.10840961272E+03  0.00000000000E+00 0. -1.
<mgrwt>
<rscale>  1 0.30000000E+03</rscale>
<asrwt>0</asrwt>
<pdfrwt beam="1">  1       21 0.13703346E-01 0.30000000E+03</pdfrwt>
<pdfrwt beam="2">0</pdfrwt>
<totfact> 0.48641892E+03</totfact>
</mgrwt>
</event>
<event>
 6    1  0.1270461E-001  0.3000000E+03  0.7818608E-02  0.1093470E+00
         21   -1    0    0  501  502  0.00000000000E+00  0.00000000000E+00  0.20195971909E+01  0.20195971909E+01  0.00000000000E+00 0. -1.
         13   -1    0    0    0    0 -0.00000000000E+00 -0.00000000000E+00 -0.10000000000E+04  0.10000000000E+04  0.00000000000E+00 0.  1.
    9000005    2    1    2  501    0  0.39831615725E+02 -0.14281373017E+02 -0.66662095633E+03  0.66796930457E+03  0.29961989461E+01 0.  0.
         13    1    3    3    0    0  0.29611438095E+02 -0.10517723260E+02 -0.51483122428E+03  0.51578934582E+03  0.00000000000E+00 0.  1.
          3    1    3    3  501    0  0.10220177630E+02 -0.37636497573E+01 -0.15178973205E+03  0.15217995875E+03  0.00000000000E+00 0.  1.
         -1    1    1    2    0  502 -0.39831615725E+02  0.14281373017E+02 -0.33135944648E+03  0.33405029262E+03  0.00000000000E+00 0. -1.
<mgrwt>
<rscale>  1 0.30000000E+03</rscale>
<asrwt>0</asrwt>
<pdfrwt beam="1">  1       21 0.73440053E-02 0.30000000E+03</pdfrwt>
<pdfrwt beam="2">0</pdfrwt>
<totfact> 0.14840271E+04</totfact>
</mgrwt>
</event>
<event>
 6    1  0.1270461E-001  0.3000000E+03  0.7818608E-02  0.1093470E+00
         21   -1    0    0  501  502  0.00000000000E+00  0.00000000000E+00  0.11285488963E+01  0.11285488963E+01  0.00000000000E+00 0. -1.
         13   -1    0    0    0    0 -0.00000000000E+00 -0.00000000000E+00 -0.10000000000E+04  0.10000000000E+04  0.00000000000E+00 0.  1.
    9000005    2    1    2  501    0 -0.12135959329E+02  0.27493259381E+02 -0.72094139889E+03  0.72157841968E+03  0.39691683247E+01 0.  0.
         13    1    3    3    0    0 -0.11748468891E+02  0.27438698977E+02 -0.71585103909E+03  0.71647304128E+03  0.00000000000E+00 0.  1.
          1    1    3    3  501    0 -0.38749043826E+00  0.54560403479E-01 -0.50903597981E+01  0.51053783946E+01  0.00000000000E+00 0.  1.
         -3    1    1    2    0  502  0.12135959329E+02 -0.27493259381E+02 -0.27793005222E+03  0.27955012922E+03  0.00000000000E+00 0. -1.
<mgrwt>
<rscale>  1 0.30000000E+03</rscale>
<asrwt>0</asrwt>
<pdfrwt beam="1">  1       21 0.41038228E-02 0.30000000E+03</pdfrwt>
<pdfrwt beam="2">0</pdfrwt>
<totfact> 0.40270299E+04</totfact>
</mgrwt>
</event>
<event>
 6    1  0.1270461E-001  0.3000000E+03  0.7818608E-02  0.1093470E+00
         21   -1    0    0  501  502  0.00000000000E+00  0.00000000000E+00  0.12846069524E+01  0.12846069524E+01  0.00000000000E+00 0. -1.
         13   -1    0    0    0    0 -0.00000000000E+00 -0.00000000000E+00 -0.10000000000E+04  0.10000000000E+04  0.00000000000E+00 0.  1.
    9000005    2    1    2  501    0  0.18809302004E+02 -0.29871587991E+02 -0.52211332032E+03  0.52337704545E+03  0.86666510022E+01 0.  0.
         13    1    3    3    0    0  0.77910728175E+01 -0.16159260533E+02 -0.20828755958E+03  0.20905867595E+03  0.00000000000E+00 0.  1.
          1    1    3    3  501    0  0.11018229186E+02 -0.13712327458E+02 -0.31382576074E+03  0.31431836950E+03  0.00000000000E+00 0.  1.
         -1    1    1    2    0  502 -0.18809302004E+02  0.29871587991E+02 -0.47660207273E+03  0.47790756150E+03  0.00000000000E+00 0. -1.
<mgrwt>
<rscale>  1 0.30000000E+03</rscale>
<asrwt>0</asrwt>
<pdfrwt beam="1">  1       21 0.46713079E-02 0.30000000E+03</pdfrwt>
<pdfrwt beam="2">0</pdfrwt>
<totfact> 0.32339240E+04</totfact>
</mgrwt>
</event>
<event>
 6    1  0.1270461E-001  0.3000000E+03  0.7818608E-02  0.1093470E+00
         21   -1    0    0  501  502  0.00000000000E+00  0.00000000000E+00  0.29125793528E+01  0.29125793528E+01  0.00000000000E+00 0. -1.
         13   -1    0    0    0    0 -0.00000000000E+00 -0.00000000000E+00 -0.10000000000E+04  0.10000000000E+04  0.00000000000E+00 0.  1.
    9000005    2    1    2  501    0 -0.10752210242E+02 -0.34992836232E+02 -0.86679259377E+03  0.86757281977E+03  0.36177864050E+01 0.  0.
         13    1    3    3    0    0 -0.46345818063E+01 -0.13840931396E+02 -0.30546425806E+03  0.30581279189E+03  0.00000000000E+00 0.  1.
          1    1    3    3  501    0 -0.61176284357E+01 -0.21151904837E+02 -0.56132833570E+03  0.56176002788E+03  0.00000000000E+00 0.  1.
         -1    1    1    2    0  502  0.10752210242E+02  0.34992836232E+02 -0.13029482688E+03  0.13533975958E+03  0.00000000000E+00 0. -1.
<mgrwt>
<rscale>  1 0.30000000E+03</rscale>
<asrwt>0</asrwt>
<pdfrwt beam="1">  1       21 0.10591220E-01 0.30000000E+03</pdfrwt>
<pdfrwt beam="2">0</pdfrwt>
<totfact> 0.77625278E+03</totfact>
</mgrwt>
</event>
<event>
 6    1  0.1270461E-001  0.3000000E+03  0.7818608E-02  0.1093470E+00
         21   -1    0    0  501  502  0.00000000000E+00  0.00000000000E+00  0.15898080440E+01  0.15898080440E+01  0.00000000000E+00 0. -1.
         13   -1    0    0    0    0 -0.00000000000E+00 -0.00000000000E+00 -0.10000000000E+04  0.10000000000E+04  0.00000000000E+00 0.  1.
    9000005    2    1    2  501    0  0.38582076975E+02 -0.15196395837E+01 -0.59940456559E+03  0.60072028334E+03  0.93882688768E+01 0.  0.
         13    1    3    3    0    0  0.64239442721E+01  0.15832109178E+01 -0.15602294028E+03  0.15616315670E+03  0.00000000000E+00 0.  1.
          1    1    3    3  501    0  0.32158132703E+02 -0.31028505015E+01 -0.44338162531E+03  0.44455712664E+03  0.00000000000E+00 0.  1.
         -1    1    1    2    0  502 -0.38582076975E+02  0.15196395837E+01 -0.39900562636E+03  0.40086952471E+03  0.00000000000E+00 0. -1.
<mgrwt>
<rscale>  1 0.30000000E+03</rscale>
<asrwt>0</asrwt>
<pdfrwt beam="1">  1       21 0.57811324E-02 0.30000000E+03</pdfrwt>
<pdfrwt beam="2">0</pdfrwt>
<totfact> 0.22465262E+04</totfact>
</mgrwt>
</event>
<event>
 6    1  0.1270461E-001  0.3000000E+03  0.7818608E-02  0.1093470E+00
         21   -1    0    0  501  502  0.00000000000E+00  0.00000000000E+00  0.16425659783E+01  0.16425659783E+01  0.00000000000E+00 0. -1.
         13   -1    0    0    0    0 -0.00000000000E+00 -0.00000000000E+00 -0.10000000000E+04  0.10000000000E+04  0.00000000000E+00 0.  1.
    9000005    2    1    2  501    0  0.16988187170E+02  0.35843807037E+02 -0.59876370910E+03  0.60008494620E+03  0.32536614512E+01 0.  0.
         13    1    3    3    0    0  0.25293717967E+01  0.56828589295E+01 -0.11299405115E+03  0.11316513687E+03  0.00000000000E+00 0.  1.
          1    1    3    3  501    0  0.14458815373E+02  0.30160948108E+02 -0.48576965795E+03  0.48691980933E+03  0.00000000000E+00 0.  1.
         -3    1    1    2    0  502 -0.16988187170E+02 -0.35843807037E+02 -0.39959372492E+03  0.40155761978E+03  0.00000000000E+00 0. -1.
<mgrwt>
<rscale>  1 0.30000000E+03</rscale>
<asrwt>0</asrwt>
<pdfrwt beam="1">  1       21 0.59729798E-02 0.30000000E+03</pdfrwt>
<pdfrwt beam="2">0</pdfrwt>
<totfact> 0.21236317E+04</totfact>
</mgrwt>
</event>
<event>
 6    1  0.1270461E-001  0.3000000E+03  0.7818608E-02  0.1093470E+00
         21   -1    0    0  501  502  0.00000000000E+00  0.00000000000E+00  0.21547378594E+01  0.21547378594E+01  0.00000000000E+00 0. -1.
         13   -1    0    0    0    0 -0.00000000000E+00 -0.00000000000E+00 -0.10000000000E+04  0.10000000000E+04  0.00000000000E+00 0.  1.
    9000005    2    1    2  501    0  0.28774328289E+02 -0.28279998036E+02 -0.74605205716E+03  0.74714976079E+03  0.33723573168E+01 0.  0.
         13    1    3    3    0    0  0.26446950880E+02 -0.25327741892E+02 -0.65908062889E+03  0.66009712247E+03  0.00000000000E+00 0.  1.
          1    1    3    3  501    0  0.23273774092E+01 -0.29522561433E+01 -0.86971428271E+02  0.87052638314E+02  0.00000000000E+00 0.  1.
         -1    1    1    2    0  502 -0.28774328289E+02  0.28279998036E+02 -0.25179320498E+03  0.25500497707E+03  0.00000000000E+00 0. -1.
<mgrwt>
<rscale>  1 0.30000000E+03</rscale>
<asrwt>0</asrwt>
<pdfrwt beam="1">  1       21 0.78354269E-02 0.30000000E+03</pdfrwt>
<pdfrwt beam="2">0</pdfrwt>
<totfact> 0.13248585E+04</totfact>
</mgrwt>
</event>
<event>
 6    1  0.1270461E-001  0.3000000E+03  0.7818608E-02  0.1093470E+00
         21   -1    0    0  501  502  0.00000000000E+00  0.00000000000E+00  0.75293071920E+01  0.75293071920E+01  0.00000000000E+00 0. -1.
         13   -1    0    0    0    0 -0.00000000000E+00 -0.00000000000E+00 -0.10000000000E+04  0.10000000000E+04  0.00000000000E+00 0.  1.
    9000005    2    1    2  501    0 -0.19862048365E+02  0.25279902529E+02 -0.28701178363E+02  0.43223727300E+02  0.33103663208E+01 0.  0.
         13    1    3    3    0    0 -0.11732026161E+01  0.26767390222E+01 -0.18427415742E+01  0.34550011115E+01  0.00000000000E+00 0.  1.
          1    1    3    3  501    0 -0.18688845749E+02  0.22603163507E+02 -0.26858436789E+02  0.39768726189E+02  0.00000000000E+00 0.  1.
         -3    1    1    2    0  502  0.19862048365E+02 -0.25279902529E+02 -0.96376951444E+03  0.96430557989E+03  0.00000000000E+00 0. -1.
<mgrwt>
<rscale>  1 0.30000000E+03</rscale>
<asrwt>0</asrwt>
<pdfrwt beam="1">  1       21 0.27379357E-01 0.30000000E+03</pdfrwt>
<pdfrwt beam="2">0</pdfrwt>
<totfact> 0.13040171E+03</totfact>
</mgrwt>
</event>
<event>
 6    1  0.1270461E-001  0.3000000E+03  0.7818608E-02  0.1093470E+00
         21   -1    0    0  501  502  0.00000000000E+00  0.00000000000E+00  0.10183094758E+01  0.10183094758E+01  0.00000000000E+00 0. -1.
         13   -1    0    0    0    0 -0.00000000000E+00 -0.00000000000E+00 -0.10000000000E+04  0.10000000000E+04  0.00000000000E+00 0.  1.
    9000005    2    1    2  501    0  0.26968409293E+02 -0.14207176111E+02 -0.35629473021E+03  0.35760890022E+03  0.30086197558E+01 0.  0.
         13    1    3    3    0    0  0.26105832394E+02 -0.13866715295E+02 -0.35002250774E+03  0.35126849589E+03  0.00000000000E+00 0.  1.
          1    1    3    3  501    0  0.86257689873E+00 -0.34046081582E+00 -0.62722224630E+01  0.63404043325E+01  0.00000000000E+00 0.  1.
         -1    1    1    2    0  502 -0.26968409293E+02  0.14207176111E+02 -0.64268696032E+03  0.64340940925E+03  0.00000000000E+00 0. -1.
<mgrwt>
<rscale>  1 0.30000000E+03</rscale>
<asrwt>0</asrwt>
<pdfrwt beam="1">  1       21 0.37029514E-02 0.30000000E+03</pdfrwt>
<pdfrwt beam="2">0</pdfrwt>
<totfact> 0.47871328E+04</totfact>
</mgrwt>
</event>
<event>
 6    1  0.1270461E-001  0.3000000E+03  0.7818608E-02  0.1093470E+00
         21   -1    0    0  501  502  0.00000000000E+00  0.00000000000E+00  0.38148652604E+01  0.38148652604E+01  0.00000000000E+00 0. -1.
         13   -1    0    0    0    0 -0.00000000000E+00 -0.00000000000E+00 -0.10000000000E+04  0.10000000000E+04  0.00000000000E+00 0.  1.
    9000005    2    1    2  501    0 -0.38264010761E+02 -0.23670514403E+02 -0.15507721851E+03  0.16150437945E+03  0.32082872929E+01 0.  0.
         13    1    3    3    0    0 -0.23537653857E+02 -0.14548359109E+02 -0.10087162256E+03  0.10459808860E+03  0.00000000000E+00 0.  1.
          3    1    3    3  501    0 -0.14726356903E+02 -0.91221552946E+01 -0.54205595957E+02  0.56906290847E+02  0.00000000000E+00 0.  1.
         -1    1    1    2    0  502  0.38264010761E+02  0.23670514403E+02 -0.84110791623E+03  0.84231048581E+03  0.00000000000E+00 0. -1.
<mgrwt>
<rscale>  1 0.30000000E+03</rscale>
<asrwt>0</asrwt>
<pdfrwt beam="1">  1       21 0.13872267E-01 0.30000000E+03</pdfrwt>
<pdfrwt beam="2">0</pdfrwt>
<totfact> 0.47560672E+03</totfact>
</mgrwt>
</event>
<event>
 6    1  0.1270461E-001  0.3000000E+03  0.7818608E-02  0.1093470E+00
         21   -1    0    0  501  502  0.00000000000E+00  0.00000000000E+00  0.11270867372E+01  0.11270867372E+01  0.00000000000E+00 0. -1.
         13   -1    0    0    0    0 -0.00000000000E+00 -0.00000000000E+00 -0.10000000000E+04  0.10000000000E+04  0.00000000000E+00 0.  1.
    9000005    2    1    2  501    0 -0.30303224394E+02 -0.12682097946E+02 -0.59675476598E+03  0.59766937471E+03  0.36482508049E+01 0.  0.
         13    1    3    3    0    0 -0.10041565203E+02 -0.43108528861E+01 -0.16866943227E+03  0.16902305720E+03  0.00000000000E+00 0.  1.
          3    1    3    3  501    0 -0.20261659191E+02 -0.83712450599E+01 -0.42808533371E+03  0.42864631751E+03  0.00000000000E+00 0.  1.
         -3    1    1    2    0  502  0.30303224394E+02  0.12682097946E+02 -0.40211814729E+03  0.40345771203E+03  0.00000000000E+00 0. -1.
<mgrwt>
<rscale>  1 0.30000000E+03</rscale>
<asrwt>0</asrwt>
<pdfrwt beam="1">  1       21 0.40985059E-02 0.30000000E+03</pdfrwt>
<pdfrwt beam="2">0</pdfrwt>
<totfact> 0.40358433E+04</totfact>
</mgrwt>
</event>
<event>
 6    1  0.1270461E-001  0.3000000E+03  0.7818608E-02  0.1093470E+00
         21   -1    0    0  501  502  0.00000000000E+00  0.00000000000E+00  0.23461342162E+01  0.23461342162E+01  0.00000000000E+00 0. -1.
         13   -1    0    0    0    0 -0.00000000000E+00 -0.00000000000E+00 -0.10000000000E+04  0.10000000000E+04  0.00000000000E+00 0.  1.
    9000005    2    1    2  501    0 -0.44896310258E+02  0.19633461164E+00 -0.68600403514E+03  0.68747896513E+03  0.31739658088E+01 0.  0.
         13    1    3    3    0    0 -0.43450075876E+02 -0.20628748534E+00 -0.66855063561E+03  0.66996112128E+03  0.00000000000E+00 0.  1.
          3    1    3    3  501    0 -0.14462343820E+01  0.40262209699E+00 -0.17453399527E+02  0.17517843859E+02  0.00000000000E+00 0.  1.
         -3    1    1    2    0  502  0.44896310258E+02 -0.19633461164E+00 -0.31164983065E+03  0.31486716908E+03  0.00000000000E+00 0. -1.
<mgrwt>
<rscale>  1 0.30000000E+03</rscale>
<asrwt>0</asrwt>
<pdfrwt beam="1">  1       21 0.85314151E-02 0.30000000E+03</pdfrwt>
<pdfrwt beam="2">0</pdfrwt>
<totfact> 0.11406806E+04</totfact>
</mgrwt>
</event>
<event>
 6    1  0.1270461E-001  0.3000000E+03  0.7818608E-02  0.1093470E+00
         21   -1    0    0  501  502  0.00000000000E+00  0.00000000000E+00  0.14018650689E+01  0.14018650689E+01  0.00000000000E+00 0. -1.
         13   -1    0    0    0    0 -0.00000000000E+00 -0.00000000000E+00 -0.10000000000E+04  0.10000000000E+04  0.00000000000E+00 0.  1.
    9000005    2    1    2  501    0 -0.14579544010E+02  0.28764384873E+02 -0.74888993442E+03  0.74961993891E+03  0.73461545433E+01 0.  0.
         13    1    3    3    0    0 -0.13710503220E+01  0.71279741220E+01 -0.12001902898E+03  0.12023832630E+03  0.00000000000E+00 0.  1.
          1    1    3    3  501    0 -0.13208493688E+02  0.21636410751E+02 -0.62887090545E+03  0.62938161261E+03  0.00000000000E+00 0.  1.
         -1    1    1    2    0  502  0.14579544010E+02 -0.28764384873E+02 -0.24970820051E+03  0.25178192616E+03  0.00000000000E+00 0. -1.
<mgrwt>
<rscale>  1 0.30000000E+03</rscale>
<asrwt>0</asrwt>
<pdfrwt beam="1">  1       21 0.50977019E-02 0.30000000E+03</pdfrwt>
<pdfrwt beam="2">0</pdfrwt>
<totfact> 0.27869450E+04</totfact>
</mgrwt>
</event>
<event>
 6    1  0.1270461E-001  0.3000000E+03  0.7818608E-02  0.1093470E+00
         21   -1    0    0  501  502  0.00000000000E+00  0.00000000000E+00  0.15807362517E+01  0.15807362517E+01  0.00000000000E+00 0. -1.
         13   -1    0    0    0    0 -0.00000000000E+00 -0.00000000000E+00 -0.10000000000E+04  0.10000000000E+04  0.00000000000E+00 0.  1.
    9000005    2    1    2  501    0 -0.29244358828E+02 -0.13039305394E+02 -0.79553415315E+03  0.79618447506E+03  0.31422114095E+01 0.  0.
         13    1    3    3    0    0 -0.42946334053E+01 -0.27160172865E+01 -0.10564124428E+03  0.10576338270E+03  0.00000000000E+00 0.  1.
          3    1    3    3  501    0 -0.24949725423E+02 -0.10323288107E+02 -0.68989290887E+03  0.69042109236E+03  0.00000000000E+00 0.  1.
         -3    1    1    2    0  502  0.29244358828E+02  0.13039305394E+02 -0.20288511060E+03  0.20539626119E+03  0.00000000000E+00 0. -1.
<mgrwt>
<rscale>  1 0.30000000E+03</rscale>
<asrwt>0</asrwt>
<pdfrwt beam="1">  1       21 0.57481439E-02 0.30000000E+03</pdfrwt>
<pdfrwt beam="2">0</pdfrwt>
<totfact> 0.22687632E+04</totfact>
</mgrwt>
</event>
<event>
 6    1  0.1270461E-001  0.3000000E+03  0.7818608E-02  0.1093470E+00
         21   -1    0    0  501  502  0.00000000000E+00  0.00000000000E+00  0.10421602363E+01  0.10421602363E+01  0.00000000000E+00 0. -1.
         13   -1    0    0    0    0 -0.00000000000E+00 -0.00000000000E+00 -0.10000000000E+04  0.10000000000E+04  0.00000000000E+00 0.  1.
    9000005    2    1    2  501    0 -0.26951094065E+02 -0.13605366704E+02 -0.32735264552E+03  0.32875873458E+03  0.33291981705E+01 0.  0.
         13    1    3    3    0    0 -0.78835417992E+01 -0.47478237058E+01 -0.85438004508E+02  0.85932209767E+02  0.00000000000E+00 0.  1.
          3    1    3    3  501    0 -0.19067552266E+02 -0.88575429979E+01 -0.24191464101E+03  0.24282652482E+03  0.00000000000E+00 0.  1.
         -1    1    1    2    0  502  0.26951094065E+02  0.13605366704E+02 -0.67160519424E+03  0.67228342565E+03  0.00000000000E+00 0. -1.
<mgrwt>
<rscale>  1 0.30000000E+03</rscale>
<asrwt>0</asrwt>
<pdfrwt beam="1">  1       21 0.37896816E-02 0.30000000E+03</pdfrwt>
<pdfrwt beam="2">0</pdfrwt>
<totfact> 0.46045947E+04</totfact>
</mgrwt>
</event>
<event>
 6    1  0.1270461E-001  0.3000000E+03  0.7818608E-02  0.1093470E+00
         21   -1    0    0  501  502  0.00000000000E+00  0.00000000000E+00  0.16288422788E+01  0.16288422788E+01  0.00000000000E+00 0. -1.
         13   -1    0    0    0    0 -0.00000000000E+00 -0.00000000000E+00 -0.10000000000E+04  0.10000000000E+04  0.00000000000E+00 0.  1.
    9000005    2    1    2  501    0 -0.25747164823E+02  0.23718377702E+02 -0.74725464621E+03  0.74808401332E+03  0.38349404407E+01 0.  0.
         13    1    3    3    0    0 -0.15544344517E+02  0.16507909488E+02 -0.46278430501E+03  0.46333945513E+03  0.00000000000E+00 0.  1.
          1    1    3    3  501    0 -0.10202820306E+02  0.72104682132E+01 -0.28447034120E+03  0.28474455818E+03  0.00000000000E+00 0.  1.
         -1    1    1    2    0  502  0.25747164823E+02 -0.23718377702E+02 -0.25111651152E+03  0.25354482896E+03  0.00000000000E+00 0. -1.
<mgrwt>
<rscale>  1 0.30000000E+03</rscale>
<asrwt>0</asrwt>
<pdfrwt beam="1">  1       21 0.59230753E-02 0.30000000E+03</pdfrwt>
<pdfrwt beam="2">0</pdfrwt>
<totfact> 0.21545736E+04</totfact>
</mgrwt>
</event>
<event>
 6    1  0.1270461E-001  0.3000000E+03  0.7818608E-02  0.1093470E+00
         21   -1    0    0  501  502  0.00000000000E+00  0.00000000000E+00  0.25109170861E+01  0.25109170861E+01  0.00000000000E+00 0. -1.
         13   -1    0    0    0    0 -0.00000000000E+00 -0.00000000000E+00 -0.10000000000E+04  0.10000000000E+04  0.00000000000E+00 0.  1.
    9000005    2    1    2  501    0  0.45322095638E+02  0.20362060302E+02 -0.53027236397E+03  0.53265969775E+03  0.82986602531E+01 0.  0.
         13    1    3    3    0    0  0.14587662994E+02  0.35871336062E+01 -0.13235544477E+03  0.13320522212E+03  0.00000000000E+00 0.  1.
          1    1    3    3  501    0  0.30734432643E+02  0.16774926696E+02 -0.39791691920E+03  0.39945447563E+03  0.00000000000E+00 0.  1.
         -1    1    1    2    0  502 -0.45322095638E+02 -0.20362060302E+02 -0.46721671894E+03  0.46985121934E+03  0.00000000000E+00 0. -1.
<mgrwt>
<rscale>  1 0.30000000E+03</rscale>
<asrwt>0</asrwt>
<pdfrwt beam="1">  1       21 0.91306268E-02 0.30000000E+03</pdfrwt>
<pdfrwt beam="2">0</pdfrwt>
<totfact> 0.10116326E+04</totfact>
</mgrwt>
</event>
<event>
 6    1  0.1270461E-001  0.3000000E+03  0.7818608E-02  0.1093470E+00
         21   -1    0    0  501  502  0.00000000000E+00  0.00000000000E+00  0.12970077052E+01  0.12970077052E+01  0.00000000000E+00 0. -1.
         13   -1    0    0    0    0 -0.00000000000E+00 -0.00000000000E+00 -0.10000000000E+04  0.10000000000E+04  0.00000000000E+00 0.  1.
    9000005    2    1    2  501    0  0.34370313138E+02 -0.23099369140E-01 -0.64498864752E+03  0.64591670907E+03  0.40890912225E+01 0.  0.
         13    1    3    3    0    0  0.21126596532E+02 -0.75932765497E+00 -0.36098530628E+03  0.36160379009E+03  0.00000000000E+00 0.  1.
          1    1    3    3  501    0  0.13243716606E+02  0.73622828583E+00 -0.28400334124E+03  0.28431291897E+03  0.00000000000E+00 0.  1.
         -3    1    1    2    0  502 -0.34370313138E+02  0.23099369140E-01 -0.35371434478E+03  0.35538029864E+03  0.00000000000E+00 0. -1.
<mgrwt>
<rscale>  1 0.30000000E+03</rscale>
<asrwt>0</asrwt>
<pdfrwt beam="1">  1       21 0.47164016E-02 0.30000000E+03</pdfrwt>
<pdfrwt beam="2">0</pdfrwt>
<totfact> 0.31815321E+04</totfact>
</mgrwt>
</event>
<event>
 6    1  0.1270461E-001  0.3000000E+03  0.7818608E-02  0.1093470E+00
         21   -1    0    0  501  502  0.00000000000E+00  0.00000000000E+00  0.18310341946E+01  0.18310341946E+01  0.00000000000E+00 0. -1.
         13   -1    0    0    0    0 -0.00000000000E+00 -0.00000000000E+00 -0.10000000000E+04  0.10000000000E+04  0.00000000000E+00 0.  1.
    9000005    2    1    2  501    0 -0.26005744071E+02 -0.17036623238E+02 -0.84292079979E+03  0.84350056237E+03  0.33434636483E+01 0.  0.
         13    1    3    3    0    0 -0.24692744413E+02 -0.15525790322E+02 -0.80305857701E+03  0.80358811583E+03  0.00000000000E+00 0.  1.
          3    1    3    3  501    0 -0.13129996574E+01 -0.15108329163E+01 -0.39862222775E+02  0.39912446539E+02  0.00000000000E+00 0.  1.
         -1    1    1    2    0  502  0.26005744071E+02  0.17036623238E+02 -0.15524816602E+03  0.15833047182E+03  0.00000000000E+00 0. -1.
<mgrwt>
<rscale>  1 0.30000000E+03</rscale>
<asrwt>0</asrwt>
<pdfrwt beam="1">  1       21 0.66583202E-02 0.30000000E+03</pdfrwt>
<pdfrwt beam="2">0</pdfrwt>
<totfact> 0.17600642E+04</totfact>
</mgrwt>
</event>
<event>
 6    1  0.1270461E-001  0.3000000E+03  0.7818608E-02  0.1093470E+00
         21   -1    0    0  501  502  0.00000000000E+00  0.00000000000E+00  0.54294477842E+01  0.54294477842E+01  0.00000000000E+00 0. -1.
         13   -1    0    0    0    0 -0.00000000000E+00 -0.00000000000E+00 -0.10000000000E+04  0.10000000000E+04  0.00000000000E+00 0.  1.
    9000005    2    1    2  501    0  0.10623667371E+02 -0.31673775161E+02 -0.94534533147E+03  0.94593816524E+03  0.22641518202E+01 0.  0.
         13    1    3    3    0    0  0.67258256528E+01 -0.16513146098E+02 -0.50067285852E+03  0.50099025138E+03  0.00000000000E+00 0.  1.
          3    1    3    3  501    0  0.38978417182E+01 -0.15160629063E+02 -0.44467247295E+03  0.44494791386E+03  0.00000000000E+00 0.  1.
         -3    1    1    2    0  502 -0.10623667371E+02  0.31673775161E+02 -0.49225220746E+02  0.59491282545E+02  0.00000000000E+00 0. -1.
<mgrwt>
<rscale>  1 0.30000000E+03</rscale>
<asrwt>0</asrwt>
<pdfrwt beam="1">  1       21 0.19743488E-01 0.30000000E+03</pdfrwt>
<pdfrwt beam="2">0</pdfrwt>
<totfact> 0.24590211E+03</totfact>
</mgrwt>
</event>
<event>
 6    1  0.1270461E-001  0.3000000E+03  0.7818608E-02  0.1093470E+00
         21   -1    0    0  501  502  0.00000000000E+00  0.00000000000E+00  0.11898848169E+01  0.11898848169E+01  0.00000000000E+00 0. -1.
         13   -1    0    0    0    0 -0.00000000000E+00 -0.00000000000E+00 -0.10000000000E+04  0.10000000000E+04  0.00000000000E+00 0.  1.
    9000005    2    1    2  501    0  0.29643088327E+02 -0.16504597938E+02 -0.58491468333E+03  0.58590619510E+03  0.31254182275E+01 0.  0.
         13    1    3    3    0    0  0.13606557077E+02 -0.83317646049E+01 -0.29927254791E+03  0.29969753858E+03  0.00000000000E+00 0.  1.
          3    1    3    3  501    0  0.16036531250E+02 -0.81728333330E+01 -0.28564213542E+03  0.28620865652E+03  0.00000000000E+00 0.  1.
         -1    1    1    2    0  502 -0.29643088327E+02  0.16504597938E+02 -0.41389543185E+03  0.41528368972E+03  0.00000000000E+00 0. -1.
<mgrwt>
<rscale>  1 0.30000000E+03</rscale>
<asrwt>0</asrwt>
<pdfrwt beam="1">  1       21 0.43268630E-02 0.30000000E+03</pdfrwt>
<pdfrwt beam="2">0</pdfrwt>
<totfact> 0.36826734E+04</totfact>
</mgrwt>
</event>
<event>
 6    1  0.1270461E-001  0.3000000E+03  0.7818608E-02  0.1093470E+00
         21   -1    0    0  501  502  0.00000000000E+00  0.00000000000E+00  0.14338303290E+02  0.14338303290E+02  0.00000000000E+00 0. -1.
         13   -1    0    0    0    0 -0.00000000000E+00 -0.00000000000E+00 -0.10000000000E+04  0.10000000000E+04  0.00000000000E+00 0.  1.
    9000005    2    1    2  501    0 -0.30485110599E+02  0.29077345056E+02 -0.96756383197E+03  0.96848673111E+03  0.34562143984E+01 0.  0.
         13    1    3    3    0    0 -0.30042067985E+02  0.28389932796E+02 -0.93587044916E+03  0.93678279859E+03  0.00000000000E+00 0.  1.
          3    1    3    3  501    0 -0.44304261487E+00  0.68741226083E+00 -0.31693382817E+02  0.31703932513E+02  0.00000000000E+00 0.  1.
         -1    1    1    2    0  502  0.30485110599E+02 -0.29077345056E+02 -0.18097864735E+02  0.45851572184E+02  0.00000000000E+00 0. -1.
<mgrwt>
<rscale>  1 0.30000000E+03</rscale>
<asrwt>0</asrwt>
<pdfrwt beam="1">  1       21 0.52139395E-01 0.30000000E+03</pdfrwt>
<pdfrwt beam="2">0</pdfrwt>
<totfact> 0.34295680E+02</totfact>
</mgrwt>
</event>
<event>
 6    1  0.1270461E-001  0.3000000E+03  0.7818608E-02  0.1093470E+00
         21   -1    0    0  501  502  0.00000000000E+00  0.00000000000E+00  0.17191745894E+01  0.17191745894E+01  0.00000000000E+00 0. -1.
         13   -1    0    0    0    0 -0.00000000000E+00 -0.00000000000E+00 -0.10000000000E+04  0.10000000000E+04  0.00000000000E+00 0.  1.
    9000005    2    1    2  501    0 -0.31366369517E+02 -0.28131001356E+01 -0.82412060696E+03  0.82473458668E+03  0.45388291691E+01 0.  0.
         13    1    3    3    0    0 -0.87849573341E+01 -0.25534641120E+01 -0.26604859882E+03  0.26620584627E+03  0.00000000000E+00 0.  1.
          1    1    3    3  501    0 -0.22581412183E+02 -0.25963602368E+00 -0.55807200814E+03  0.55852874040E+03  0.00000000000E+00 0.  1.
         -1    1    1    2    0  502  0.31366369517E+02  0.28131001356E+01 -0.17416021845E+03  0.17698458791E+03  0.00000000000E+00 0. -1.
<mgrwt>
<rscale>  1 0.30000000E+03</rscale>
<asrwt>0</asrwt>
<pdfrwt beam="1">  1       21 0.62515571E-02 0.30000000E+03</pdfrwt>
<pdfrwt beam="2">0</pdfrwt>
<totfact> 0.19629517E+04</totfact>
</mgrwt>
</event>
<event>
 6    1  0.1270461E-001  0.3000000E+03  0.7818608E-02  0.1093470E+00
         21   -1    0    0  501  502  0.00000000000E+00  0.00000000000E+00  0.52826535797E+01  0.52826535797E+01  0.00000000000E+00 0. -1.
         13   -1    0    0    0    0 -0.00000000000E+00 -0.00000000000E+00 -0.10000000000E+04  0.10000000000E+04  0.00000000000E+00 0.  1.
    9000005    2    1    2  501    0 -0.10267110219E+02 -0.48695799917E+02 -0.86358936202E+03  0.86502844589E+03  0.33062853699E+01 0.  0.
         13    1    3    3    0    0 -0.17250740725E+01 -0.60700003406E+01 -0.12821608908E+03  0.12837128294E+03  0.00000000000E+00 0.  1.
          3    1    3    3  501    0 -0.85420361463E+01 -0.42625799577E+02 -0.73537327294E+03  0.73665716295E+03  0.00000000000E+00 0.  1.
         -1    1    1    2    0  502  0.10267110219E+02  0.48695799917E+02 -0.13112798440E+03  0.14025420769E+03  0.00000000000E+00 0. -1.
<mgrwt>
<rscale>  1 0.30000000E+03</rscale>
<asrwt>0</asrwt>
<pdfrwt beam="1">  1       21 0.19209690E-01 0.30000000E+03</pdfrwt>
<pdfrwt beam="2">0</pdfrwt>
<totfact> 0.25905914E+03</totfact>
</mgrwt>
</event>
<event>
 6    1  0.1270461E-001  0.3000000E+03  0.7818608E-02  0.1093470E+00
         21   -1    0    0  501  502  0.00000000000E+00  0.00000000000E+00  0.10065269534E+01  0.10065269534E+01  0.00000000000E+00 0. -1.
         13   -1    0    0    0    0 -0.00000000000E+00 -0.00000000000E+00 -0.10000000000E+04  0.10000000000E+04  0.00000000000E+00 0.  1.
    9000005    2    1    2  501    0  0.26395708237E+02  0.17019905517E+02 -0.56088166514E+03  0.56177040956E+03  0.33675165742E+01 0.  0.
         13    1    3    3    0    0  0.23197823972E+02  0.15945099336E+02 -0.48885839040E+03  0.48966816426E+03  0.00000000000E+00 0.  1.
          1    1    3    3  501    0  0.31978842647E+01  0.10748061815E+01 -0.72023274748E+02  0.72102245301E+02  0.00000000000E+00 0.  1.
         -3    1    1    2    0  502 -0.26395708237E+02 -0.17019905517E+02 -0.43811180790E+03  0.43923611739E+03  0.00000000000E+00 0. -1.
<mgrwt>
<rscale>  1 0.30000000E+03</rscale>
<asrwt>0</asrwt>
<pdfrwt beam="1">  1       21 0.36601057E-02 0.30000000E+03</pdfrwt>
<pdfrwt beam="2">0</pdfrwt>
<totfact> 0.48815481E+04</totfact>
</mgrwt>
</event>
<event>
 6    1  0.1270461E-001  0.3000000E+03  0.7818608E-02  0.1093470E+00
         21   -1    0    0  501  502  0.00000000000E+00  0.00000000000E+00  0.61012958135E+01  0.61012958135E+01  0.00000000000E+00 0. -1.
         13   -1    0    0    0    0 -0.00000000000E+00 -0.00000000000E+00 -0.10000000000E+04  0.10000000000E+04  0.00000000000E+00 0.  1.
    9000005    2    1    2  501    0  0.11310517701E+02  0.32224234646E+02 -0.94932121451E+03  0.94994542617E+03  0.43835238767E+01 0.  0.
         13    1    3    3    0    0  0.24320042624E+01  0.13163063662E+02 -0.35424301323E+03  0.35449582975E+03  0.00000000000E+00 0.  1.
          3    1    3    3  501    0  0.88785134389E+01  0.19061170983E+02 -0.59507820128E+03  0.59544959642E+03  0.00000000000E+00 0.  1.
         -1    1    1    2    0  502 -0.11310517701E+02 -0.32224234646E+02 -0.44577489680E+02  0.56155869643E+02  0.00000000000E+00 0. -1.
<mgrwt>
<rscale>  1 0.30000000E+03</rscale>
<asrwt>0</asrwt>
<pdfrwt beam="1">  1       21 0.22186577E-01 0.30000000E+03</pdfrwt>
<pdfrwt beam="2">0</pdfrwt>
<totfact> 0.19663451E+03</totfact>
</mgrwt>
</event>
<event>
 6    1  0.1270461E-001  0.3000000E+03  0.7818608E-02  0.1093470E+00
         21   -1    0    0  501  502  0.00000000000E+00  0.00000000000E+00  0.17516289311E+01  0.17516289311E+01  0.00000000000E+00 0. -1.
         13   -1    0    0    0    0 -0.00000000000E+00 -0.00000000000E+00 -0.10000000000E+04  0.10000000000E+04  0.00000000000E+00 0.  1.
    9000005    2    1    2  501    0  0.18740111853E+02 -0.37043179509E+02 -0.53615281309E+03  0.53779506454E+03  0.63485050172E+01 0.  0.
         13    1    3    3    0    0  0.59077068835E+01 -0.15091629402E+02 -0.17533658998E+03  0.17608400854E+03  0.00000000000E+00 0.  1.
          3    1    3    3  501    0  0.12832404969E+02 -0.21951550107E+02 -0.36081622311E+03  0.36171105600E+03  0.00000000000E+00 0.  1.
         -1    1    1    2    0  502 -0.18740111853E+02  0.37043179509E+02 -0.46209555798E+03  0.46395656439E+03  0.00000000000E+00 0. -1.
<mgrwt>
<rscale>  1 0.30000000E+03</rscale>
<asrwt>0</asrwt>
<pdfrwt beam="1">  1       21 0.63695732E-02 0.30000000E+03</pdfrwt>
<pdfrwt beam="2">0</pdfrwt>
<totfact> 0.19005085E+04</totfact>
</mgrwt>
</event>
<event>
 6    1  0.1270461E-001  0.3000000E+03  0.7818608E-02  0.1093470E+00
         21   -1    0    0  501  502  0.00000000000E+00  0.00000000000E+00  0.19251688299E+01  0.19251688299E+01  0.00000000000E+00 0. -1.
         13   -1    0    0    0    0 -0.00000000000E+00 -0.00000000000E+00 -0.10000000000E+04  0.10000000000E+04  0.00000000000E+00 0.  1.
    9000005    2    1    2  501    0 -0.11901227149E+02  0.39143938716E+02 -0.67889617065E+03  0.68013501286E+03  0.31205853725E+01 0.  0.
         13    1    3    3    0    0 -0.65086310859E+01  0.18430756483E+02 -0.30262948874E+03  0.30326005757E+03  0.00000000000E+00 0.  1.
          1    1    3    3  501    0 -0.53925960629E+01  0.20713182233E+02 -0.37626668191E+03  0.37687495529E+03  0.00000000000E+00 0.  1.
         -1    1    1    2    0  502  0.11901227149E+02 -0.39143938716E+02 -0.31917866052E+03  0.32179015597E+03  0.00000000000E+00 0. -1.
<mgrwt>
<rscale>  1 0.30000000E+03</rscale>
<asrwt>0</asrwt>
<pdfrwt beam="1">  1       21 0.70006287E-02 0.30000000E+03</pdfrwt>
<pdfrwt beam="2">0</pdfrwt>
<totfact> 0.16132765E+04</totfact>
</mgrwt>
</event>
<event>
 6    1  0.1270461E-001  0.3000000E+03  0.7818608E-02  0.1093470E+00
         21   -1    0    0  501  502  0.00000000000E+00  0.00000000000E+00  0.13187493862E+01  0.13187493862E+01  0.00000000000E+00 0. -1.
         13   -1    0    0    0    0 -0.00000000000E+00 -0.00000000000E+00 -0.10000000000E+04  0.10000000000E+04  0.00000000000E+00 0.  1.
    9000005    2    1    2  501    0 -0.32403587058E+02 -0.15800254448E+02 -0.53202502361E+03  0.53327209071E+03  0.53718237156E+01 0.  0.
         13    1    3    3    0    0 -0.83346522659E+01 -0.47538376629E+01 -0.17762943447E+03  0.17788839588E+03  0.00000000000E+00 0.  1.
          3    1    3    3  501    0 -0.24068934792E+02 -0.11046416785E+02 -0.35439558914E+03  0.35538369482E+03  0.00000000000E+00 0.  1.
         -1    1    1    2    0  502  0.32403587058E+02  0.15800254448E+02 -0.46665622701E+03  0.46804665868E+03  0.00000000000E+00 0. -1.
<mgrwt>
<rscale>  1 0.30000000E+03</rscale>
<asrwt>0</asrwt>
<pdfrwt beam="1">  1       21 0.47954624E-02 0.30000000E+03</pdfrwt>
<pdfrwt beam="2">0</pdfrwt>
<totfact> 0.30928275E+04</totfact>
</mgrwt>
</event>
<event>
 6    1  0.1270461E-001  0.3000000E+03  0.7818608E-02  0.1093470E+00
         21   -1    0    0  501  502  0.00000000000E+00  0.00000000000E+00  0.37014243585E+01  0.37014243585E+01  0.00000000000E+00 0. -1.
         13   -1    0    0    0    0 -0.00000000000E+00 -0.00000000000E+00 -0.10000000000E+04  0.10000000000E+04  0.00000000000E+00 0.  1.
    9000005    2    1    2  501    0  0.12548063229E+02 -0.43011114022E+02 -0.83748896100E+03  0.83869262604E+03  0.31861191622E+01 0.  0.
         13    1    3    3    0    0  0.11136053745E+02 -0.40708416051E+02 -0.78229879864E+03  0.78343640276E+03  0.00000000000E+00 0.  1.
          1    1    3    3  501    0  0.14120094841E+01 -0.23026979708E+01 -0.55190162368E+02  0.55256223278E+02  0.00000000000E+00 0.  1.
         -1    1    1    2    0  502 -0.12548063229E+02  0.43011114022E+02 -0.15880961464E+03  0.16500879832E+03  0.00000000000E+00 0. -1.
<mgrwt>
<rscale>  1 0.30000000E+03</rscale>
<asrwt>0</asrwt>
<pdfrwt beam="1">  1       21 0.13459753E-01 0.30000000E+03</pdfrwt>
<pdfrwt beam="2">0</pdfrwt>
<totfact> 0.50267098E+03</totfact>
</mgrwt>
</event>
<event>
 6    1  0.1270461E-001  0.3000000E+03  0.7818608E-02  0.1093470E+00
         21   -1    0    0  501  502  0.00000000000E+00  0.00000000000E+00  0.17791314885E+01  0.17791314885E+01  0.00000000000E+00 0. -1.
         13   -1    0    0    0    0 -0.00000000000E+00 -0.00000000000E+00 -0.10000000000E+04  0.10000000000E+04  0.00000000000E+00 0.  1.
    9000005    2    1    2  501    0  0.87584079254E+01 -0.33803771242E+02 -0.77880778783E+03  0.77960464008E+03  0.47349536526E+01 0.  0.
         13    1    3    3    0    0  0.78355035907E+01 -0.30199580727E+02 -0.72308867908E+03  0.72376145767E+03  0.00000000000E+00 0.  1.
          1    1    3    3  501    0  0.92290433470E+00 -0.36041905153E+01 -0.55719108753E+02  0.55843182412E+02  0.00000000000E+00 0.  1.
         -3    1    1    2    0  502 -0.87584079254E+01  0.33803771242E+02 -0.21941308068E+03  0.22217449141E+03  0.00000000000E+00 0. -1.
<mgrwt>
<rscale>  1 0.30000000E+03</rscale>
<asrwt>0</asrwt>
<pdfrwt beam="1">  1       21 0.64695827E-02 0.30000000E+03</pdfrwt>
<pdfrwt beam="2">0</pdfrwt>
<totfact> 0.18499656E+04</totfact>
</mgrwt>
</event>
<event>
 6    1  0.1270461E-001  0.3000000E+03  0.7818608E-02  0.1093470E+00
         21   -1    0    0  501  502  0.00000000000E+00  0.00000000000E+00  0.25816496058E+02  0.25816496058E+02  0.00000000000E+00 0. -1.
         13   -1    0    0    0    0 -0.00000000000E+00 -0.00000000000E+00 -0.10000000000E+04  0.10000000000E+04  0.00000000000E+00 0.  1.
    9000005    2    1    2  501    0  0.46159432339E+01  0.80072061867E+02 -0.93151711297E+03  0.93496902531E+03  0.31787572604E+01 0.  0.
         13    1    3    3    0    0  0.18837039306E+01  0.41249717864E+02 -0.49711598364E+03  0.49882801521E+03  0.00000000000E+00 0.  1.
          1    1    3    3  501    0  0.27322393034E+01  0.38822344003E+02 -0.43440112933E+03  0.43614101010E+03  0.00000000000E+00 0.  1.
         -3    1    1    2    0  502 -0.46159432339E+01 -0.80072061867E+02 -0.42666390968E+02  0.90847470751E+02  0.00000000000E+00 0. -1.
<mgrwt>
<rscale>  1 0.30000000E+03</rscale>
<asrwt>0</asrwt>
<pdfrwt beam="1">  1       21 0.93878365E-01 0.30000000E+03</pdfrwt>
<pdfrwt beam="2">0</pdfrwt>
<totfact> 0.86519401E+01</totfact>
</mgrwt>
</event>
<event>
 6    1  0.1270461E-001  0.3000000E+03  0.7818608E-02  0.1093470E+00
         21   -1    0    0  501  502  0.00000000000E+00  0.00000000000E+00  0.16141351801E+01  0.16141351801E+01  0.00000000000E+00 0. -1.
         13   -1    0    0    0    0 -0.00000000000E+00 -0.00000000000E+00 -0.10000000000E+04  0.10000000000E+04  0.00000000000E+00 0.  1.
    9000005    2    1    2  501    0  0.12491212393E+02 -0.36906750863E+02 -0.61822466090E+03  0.61946144369E+03  0.35510883880E+01 0.  0.
         13    1    3    3    0    0  0.81170042146E-01  0.64476594283E-01 -0.31358015709E+01  0.31375145097E+01  0.00000000000E+00 0.  1.
          3    1    3    3  501    0  0.12410042351E+02 -0.36971227457E+02 -0.61508885933E+03  0.61632392918E+03  0.00000000000E+00 0.  1.
         -3    1    1    2    0  502 -0.12491212393E+02  0.36906750863E+02 -0.38016120392E+03  0.38215269149E+03  0.00000000000E+00 0. -1.
<mgrwt>
<rscale>  1 0.30000000E+03</rscale>
<asrwt>0</asrwt>
<pdfrwt beam="1">  1       21 0.58695949E-02 0.30000000E+03</pdfrwt>
<pdfrwt beam="2">0</pdfrwt>
<totfact> 0.21885196E+04</totfact>
</mgrwt>
</event>
<event>
 6    1  0.1270461E-001  0.3000000E+03  0.7818608E-02  0.1093470E+00
         21   -1    0    0  501  502  0.00000000000E+00  0.00000000000E+00  0.40170946672E+01  0.40170946672E+01  0.00000000000E+00 0. -1.
         13   -1    0    0    0    0 -0.00000000000E+00 -0.00000000000E+00 -0.10000000000E+04  0.10000000000E+04  0.00000000000E+00 0.  1.
    9000005    2    1    2  501    0 -0.48574234669E+02 -0.22238466718E+02 -0.76783275829E+03  0.76969574422E+03  0.32230893661E+01 0.  0.
         13    1    3    3    0    0 -0.10827590853E+02 -0.60020063869E+01 -0.16417026761E+03  0.16463637985E+03  0.00000000000E+00 0.  1.
          3    1    3    3  501    0 -0.37746643816E+02 -0.16236460331E+02 -0.60366249068E+03  0.60505936437E+03  0.00000000000E+00 0.  1.
         -3    1    1    2    0  502  0.48574234669E+02  0.22238466718E+02 -0.22815014705E+03  0.23432135044E+03  0.00000000000E+00 0. -1.
<mgrwt>
<rscale>  1 0.30000000E+03</rscale>
<asrwt>0</asrwt>
<pdfrwt beam="1">  1       21 0.14607648E-01 0.30000000E+03</pdfrwt>
<pdfrwt beam="2">0</pdfrwt>
<totfact> 0.43247688E+03</totfact>
</mgrwt>
</event>
<event>
 6    1  0.1270461E-001  0.3000000E+03  0.7818608E-02  0.1093470E+00
         21   -1    0    0  501  502  0.00000000000E+00  0.00000000000E+00  0.14948180693E+01  0.14948180693E+01  0.00000000000E+00 0. -1.
         13   -1    0    0    0    0 -0.00000000000E+00 -0.00000000000E+00 -0.10000000000E+04  0.10000000000E+04  0.00000000000E+00 0.  1.
    9000005    2    1    2  501    0  0.23028723434E+01 -0.32286874631E+02 -0.77229875526E+03  0.77298422102E+03  0.33901449783E+01 0.  0.
         13    1    3    3    0    0  0.18396531993E+01 -0.22339855275E+02 -0.56990397506E+03  0.57034462762E+03  0.00000000000E+00 0.  1.
          1    1    3    3  501    0  0.46321914410E+00 -0.99470193552E+01 -0.20239478019E+03  0.20263959340E+03  0.00000000000E+00 0.  1.
         -1    1    1    2    0  502 -0.23028723434E+01  0.32286874631E+02 -0.22620642667E+03  0.22851059705E+03  0.00000000000E+00 0. -1.
<mgrwt>
<rscale>  1 0.30000000E+03</rscale>
<asrwt>0</asrwt>
<pdfrwt beam="1">  1       21 0.54357135E-02 0.30000000E+03</pdfrwt>
<pdfrwt beam="2">0</pdfrwt>
<totfact> 0.24972338E+04</totfact>
</mgrwt>
</event>
<event>
 6    1  0.1270461E-001  0.3000000E+03  0.7818608E-02  0.1093470E+00
         21   -1    0    0  501  502  0.00000000000E+00  0.00000000000E+00  0.49145343937E+01  0.49145343937E+01  0.00000000000E+00 0. -1.
         13   -1    0    0    0    0 -0.00000000000E+00 -0.00000000000E+00 -0.10000000000E+04  0.10000000000E+04  0.00000000000E+00 0.  1.
    9000005    2    1    2  501    0 -0.36716005275E+02  0.47033224377E+02 -0.76103213650E+03  0.76337540691E+03  0.34510656834E+01 0.  0.
         13    1    3    3    0    0 -0.46910774415E+01  0.43072266677E+01 -0.83377144322E+02  0.83620013181E+02  0.00000000000E+00 0.  1.
          1    1    3    3  501    0 -0.32024927834E+02  0.42725997710E+02 -0.67765499217E+03  0.67975539373E+03  0.00000000000E+00 0.  1.
         -1    1    1    2    0  502  0.36716005275E+02 -0.47033224377E+02 -0.23405332911E+03  0.24153912748E+03  0.00000000000E+00 0. -1.
<mgrwt>
<rscale>  1 0.30000000E+03</rscale>
<asrwt>0</asrwt>
<pdfrwt beam="1">  1       21 0.17871072E-01 0.30000000E+03</pdfrwt>
<pdfrwt beam="2">0</pdfrwt>
<totfact> 0.29694693E+03</totfact>
</mgrwt>
</event>
<event>
 6    1  0.1270461E-001  0.3000000E+03  0.7818608E-02  0.1093470E+00
         21   -1    0    0  501  502  0.00000000000E+00  0.00000000000E+00  0.99299963470E+00  0.99299963470E+00  0.00000000000E+00 0. -1.
         13   -1    0    0    0    0 -0.00000000000E+00 -0.00000000000E+00 -0.10000000000E+04  0.10000000000E+04  0.00000000000E+00 0.  1.
    9000005    2    1    2  501    0  0.28571292182E+02  0.12847290451E+02 -0.46043188833E+03  0.46150757544E+03  0.32166431914E+01 0.  0.
         13    1    3    3    0    0  0.12934422718E+02  0.75266163462E+01 -0.22447921060E+03  0.22497747718E+03  0.00000000000E+00 0.  1.
          1    1    3    3  501    0  0.15636869464E+02  0.53206741050E+01 -0.23595267772E+03  0.23653009826E+03  0.00000000000E+00 0.  1.
         -3    1    1    2    0  502 -0.28571292182E+02 -0.12847290451E+02 -0.53857511204E+03  0.53948542419E+03  0.00000000000E+00 0. -1.
<mgrwt>
<rscale>  1 0.30000000E+03</rscale>
<asrwt>0</asrwt>
<pdfrwt beam="1">  1       21 0.36109154E-02 0.30000000E+03</pdfrwt>
<pdfrwt beam="2">0</pdfrwt>
<totfact> 0.49936134E+04</totfact>
</mgrwt>
</event>
<event>
 6    1  0.1270461E-001  0.3000000E+03  0.7818608E-02  0.1093470E+00
         21   -1    0    0  501  502  0.00000000000E+00  0.00000000000E+00  0.12454059161E+01  0.12454059161E+01  0.00000000000E+00 0. -1.
         13   -1    0    0    0    0 -0.00000000000E+00 -0.00000000000E+00 -0.10000000000E+04  0.10000000000E+04  0.00000000000E+00 0.  1.
    9000005    2    1    2  501    0  0.29877829436E+02 -0.14561686600E+02 -0.66232736349E+03  0.66318031028E+03  0.50852821921E+01 0.  0.
         13    1    3    3    0    0  0.71114234207E+01 -0.26496904527E+01 -0.19432847812E+03  0.19447660685E+03  0.00000000000E+00 0.  1.
          3    1    3    3  501    0  0.22766406015E+02 -0.11911996147E+02 -0.46799888537E+03  0.46870370343E+03  0.00000000000E+00 0.  1.
         -3    1    1    2    0  502 -0.29877829436E+02  0.14561686600E+02 -0.33642723059E+03  0.33806509564E+03  0.00000000000E+00 0. -1.
<mgrwt>
<rscale>  1 0.30000000E+03</rscale>
<asrwt>0</asrwt>
<pdfrwt beam="1">  1       21 0.45287583E-02 0.30000000E+03</pdfrwt>
<pdfrwt beam="2">0</pdfrwt>
<totfact> 0.34087608E+04</totfact>
</mgrwt>
</event>
<event>
 6    1  0.1270461E-001  0.3000000E+03  0.7818608E-02  0.1093470E+00
         21   -1    0    0  501  502  0.00000000000E+00  0.00000000000E+00  0.23583019181E+01  0.23583019181E+01  0.00000000000E+00 0. -1.
         13   -1    0    0    0    0 -0.00000000000E+00 -0.00000000000E+00 -0.10000000000E+04  0.10000000000E+04  0.00000000000E+00 0.  1.
    9000005    2    1    2  501    0  0.28035374297E+01  0.47301815681E+02 -0.60699174948E+03  0.60884501888E+03  0.28198374091E+01 0.  0.
         13    1    3    3    0    0 -0.18864713173E+00  0.18916068074E+02 -0.23627893692E+03  0.23703499584E+03  0.00000000000E+00 0.  1.
          3    1    3    3  501    0  0.29921845615E+01  0.28385747607E+02 -0.37071281256E+03  0.37181002304E+03  0.00000000000E+00 0.  1.
         -1    1    1    2    0  502 -0.28035374297E+01 -0.47301815681E+02 -0.39064994860E+03  0.39351328304E+03  0.00000000000E+00 0. -1.
<mgrwt>
<rscale>  1 0.30000000E+03</rscale>
<asrwt>0</asrwt>
<pdfrwt beam="1">  1       21 0.85756614E-02 0.30000000E+03</pdfrwt>
<pdfrwt beam="2">0</pdfrwt>
<totfact> 0.11303181E+04</totfact>
</mgrwt>
</event>
<event>
 6    1  0.1270461E-001  0.3000000E+03  0.7818608E-02  0.1093470E+00
         21   -1    0    0  501  502  0.00000000000E+00  0.00000000000E+00  0.55682845567E+01  0.55682845567E+01  0.00000000000E+00 0. -1.
         13   -1    0    0    0    0 -0.00000000000E+00 -0.00000000000E+00 -0.10000000000E+04  0.10000000000E+04  0.00000000000E+00 0.  1.
    9000005    2    1    2  501    0 -0.33495778403E+02  0.38618607908E+02 -0.13145463340E+03  0.14107837242E+03  0.30696051623E+01 0.  0.
         13    1    3    3    0    0 -0.18761162644E+02  0.20668105663E+02 -0.75572432740E+02  0.80562673775E+02  0.00000000000E+00 0.  1.
          1    1    3    3  501    0 -0.14734615759E+02  0.17950502245E+02 -0.55882200659E+02  0.60515698648E+02  0.00000000000E+00 0.  1.
         -1    1    1    2    0  502  0.33495778403E+02 -0.38618607908E+02 -0.86297708204E+03  0.86448991213E+03  0.00000000000E+00 0. -1.
<mgrwt>
<rscale>  1 0.30000000E+03</rscale>
<asrwt>0</asrwt>
<pdfrwt beam="1">  1       21 0.20248350E-01 0.30000000E+03</pdfrwt>
<pdfrwt beam="2">0</pdfrwt>
<totfact> 0.23433249E+03</totfact>
</mgrwt>
</event>
<event>
 6    1  0.1270461E-001  0.3000000E+03  0.7818608E-02  0.1093470E+00
         21   -1    0    0  501  502  0.00000000000E+00  0.00000000000E+00  0.63213979931E+01  0.63213979931E+01  0.00000000000E+00 0. -1.
         13   -1    0    0    0    0 -0.00000000000E+00 -0.00000000000E+00 -0.10000000000E+04  0.10000000000E+04  0.00000000000E+00 0.  1.
    9000005    2    1    2  501    0 -0.38679454342E+02  0.69083119379E+02 -0.54050911417E+03  0.54628752720E+03  0.33737666197E+01 0.  0.
         13    1    3    3    0    0 -0.59391164848E+01  0.83010547041E+01 -0.70093934809E+02  0.70833186508E+02  0.00000000000E+00 0.  1.
          1    1    3    3  501    0 -0.32740337857E+02  0.60782064674E+02 -0.47041517936E+03  0.47545434070E+03  0.00000000000E+00 0.  1.
         -1    1    1    2    0  502  0.38679454342E+02 -0.69083119379E+02 -0.45316948783E+03  0.46003387079E+03  0.00000000000E+00 0. -1.
<mgrwt>
<rscale>  1 0.30000000E+03</rscale>
<asrwt>0</asrwt>
<pdfrwt beam="1">  1       21 0.22986950E-01 0.30000000E+03</pdfrwt>
<pdfrwt beam="2">0</pdfrwt>
<totfact> 0.18362930E+03</totfact>
</mgrwt>
</event>
<event>
 6    1  0.1270461E-001  0.3000000E+03  0.7818608E-02  0.1093470E+00
         21   -1    0    0  501  502  0.00000000000E+00  0.00000000000E+00  0.16678933470E+01  0.16678933470E+01  0.00000000000E+00 0. -1.
         13   -1    0    0    0    0 -0.00000000000E+00 -0.00000000000E+00 -0.10000000000E+04  0.10000000000E+04  0.00000000000E+00 0.  1.
    9000005    2    1    2  501    0 -0.34834256751E+02  0.17911014142E+02 -0.63859870752E+03  0.63980832345E+03  0.34859208773E+01 0.  0.
         13    1    3    3    0    0 -0.33775556683E+02  0.17344471944E+02 -0.62672138894E+03  0.62787046298E+03  0.00000000000E+00 0.  1.
          3    1    3    3  501    0 -0.10587000683E+01  0.56654219784E+00 -0.11877318584E+02  0.11937860472E+02  0.00000000000E+00 0.  1.
         -3    1    1    2    0  502  0.34834256751E+02 -0.17911014142E+02 -0.35973339913E+03  0.36185956989E+03  0.00000000000E+00 0. -1.
<mgrwt>
<rscale>  1 0.30000000E+03</rscale>
<asrwt>0</asrwt>
<pdfrwt beam="1">  1       21 0.60650795E-02 0.30000000E+03</pdfrwt>
<pdfrwt beam="2">0</pdfrwt>
<totfact> 0.20683152E+04</totfact>
</mgrwt>
</event>
<event>
 6    1  0.1270461E-001  0.3000000E+03  0.7818608E-02  0.1093470E+00
         21   -1    0    0  501  502  0.00000000000E+00  0.00000000000E+00  0.23377499894E+01  0.23377499894E+01  0.00000000000E+00 0. -1.
         13   -1    0    0    0    0 -0.00000000000E+00 -0.00000000000E+00 -0.10000000000E+04  0.10000000000E+04  0.00000000000E+00 0.  1.
    9000005    2    1    2  501    0  0.14076627287E+01  0.31994300663E+02 -0.87399865761E+03  0.87459464499E+03  0.40648189638E+01 0.  0.
         13    1    3    3    0    0  0.16518638498E+01  0.27905364144E+02 -0.79287837624E+03  0.79337100874E+03  0.00000000000E+00 0.  1.
          3    1    3    3  501    0 -0.24420112111E+00  0.40889365188E+01 -0.81120281371E+02  0.81223636250E+02  0.00000000000E+00 0.  1.
         -3    1    1    2    0  502 -0.14076627287E+01 -0.31994300663E+02 -0.12366359240E+03  0.12774310500E+03  0.00000000000E+00 0. -1.
<mgrwt>
<rscale>  1 0.30000000E+03</rscale>
<asrwt>0</asrwt>
<pdfrwt beam="1">  1       21 0.85009270E-02 0.30000000E+03</pdfrwt>
<pdfrwt beam="2">0</pdfrwt>
<totfact> 0.11479054E+04</totfact>
</mgrwt>
</event>
<event>
 6    1  0.1270461E-001  0.3000000E+03  0.7818608E-02  0.1093470E+00
         21   -1    0    0  501  502  0.00000000000E+00  0.00000000000E+00  0.30367958757E+01  0.30367958757E+01  0.00000000000E+00 0. -1.
         13   -1    0    0    0    0 -0.00000000000E+00 -0.00000000000E+00 -0.10000000000E+04  0.10000000000E+04  0.00000000000E+00 0.  1.
    9000005    2    1    2  501    0 -0.40451118819E+00  0.54827444512E+02 -0.45594798344E+03  0.45925036600E+03  0.40153169766E+01 0.  0.
         13    1    3    3    0    0 -0.12351826496E+01  0.55611172070E+01 -0.45255527738E+02  0.45612657143E+02  0.00000000000E+00 0.  1.
          3    1    3    3  501    0  0.83067146145E+00  0.49266327305E+02 -0.41069245570E+03  0.41363770886E+03  0.00000000000E+00 0.  1.
         -3    1    1    2    0  502  0.40451118819E+00 -0.54827444512E+02 -0.54101522069E+03  0.54378642987E+03  0.00000000000E+00 0. -1.
<mgrwt>
<rscale>  1 0.30000000E+03</rscale>
<asrwt>0</asrwt>
<pdfrwt beam="1">  1       21 0.11042917E-01 0.30000000E+03</pdfrwt>
<pdfrwt beam="2">0</pdfrwt>
<totfact> 0.72013856E+03</totfact>
</mgrwt>
</event>
<event>
 6    1  0.1270461E-001  0.3000000E+03  0.7818608E-02  0.1093470E+00
         21   -1    0    0  501  502  0.00000000000E+00  0.00000000000E+00  0.97083157959E+00  0.97083157959E+00  0.00000000000E+00 0. -1.
         13   -1    0    0    0    0 -0.00000000000E+00 -0.00000000000E+00 -0.10000000000E+04  0.10000000000E+04  0.00000000000E+00 0.  1.
    9000005    2    1    2  501    0 -0.79432788409E-01  0.30426189558E+02 -0.60057821746E+03  0.60135987121E+03  0.37067643772E+01 0.  0.
         13    1    3    3    0    0 -0.79403139807E+00  0.24577099868E+02 -0.45749083753E+03  0.45815120948E+03  0.00000000000E+00 0.  1.
          3    1    3    3  501    0  0.71459860966E+00  0.58490896901E+01 -0.14308737993E+03  0.14320866174E+03  0.00000000000E+00 0.  1.
         -3    1    1    2    0  502  0.79432788409E-01 -0.30426189558E+02 -0.39845095096E+03  0.39961096036E+03  0.00000000000E+00 0. -1.
<mgrwt>
<rscale>  1 0.30000000E+03</rscale>
<asrwt>0</asrwt>
<pdfrwt beam="1">  1       21 0.35303041E-02 0.30000000E+03</pdfrwt>
<pdfrwt beam="2">0</pdfrwt>
<totfact> 0.51862467E+04</totfact>
</mgrwt>
</event>
<event>
 6    1  0.1270461E-001  0.3000000E+03  0.7818608E-02  0.1093470E+00
         21   -1    0    0  501  502  0.00000000000E+00  0.00000000000E+00  0.12799424924E+01  0.12799424924E+01  0.00000000000E+00 0. -1.
         13   -1    0    0    0    0 -0.00000000000E+00 -0.00000000000E+00 -0.10000000000E+04  0.10000000000E+04  0.00000000000E+00 0.  1.
    9000005    2    1    2  501    0 -0.35523672026E+02  0.34206445151E+01 -0.51711686641E+03  0.51835627797E+03  0.31217461599E+01 0.  0.
         13    1    3    3    0    0 -0.29915102532E+02  0.28752271984E+01 -0.45064804014E+03  0.45164901901E+03  0.00000000000E+00 0.  1.
          3    1    3    3  501    0 -0.56085694936E+01  0.54541731664E+00 -0.66468826274E+02  0.66707258960E+02  0.00000000000E+00 0.  1.
         -1    1    1    2    0  502  0.35523672026E+02 -0.34206445151E+01 -0.48160319110E+03  0.48292366452E+03  0.00000000000E+00 0. -1.
<mgrwt>
<rscale>  1 0.30000000E+03</rscale>
<asrwt>0</asrwt>
<pdfrwt beam="1">  1       21 0.46543462E-02 0.30000000E+03</pdfrwt>
<pdfrwt beam="2">0</pdfrwt>
<totfact> 0.32539815E+04</totfact>
</mgrwt>
</event>
<event>
 6    1  0.1270461E-001  0.3000000E+03  0.7818608E-02  0.1093470E+00
         21   -1    0    0  501  502  0.00000000000E+00  0.00000000000E+00  0.18113251606E+01  0.18113251606E+01  0.00000000000E+00 0. -1.
         13   -1    0    0    0    0 -0.00000000000E+00 -0.00000000000E+00 -0.10000000000E+04  0.10000000000E+04  0.00000000000E+00 0.  1.
    9000005    2    1    2  501    0  0.24347589570E+02 -0.31903665967E+02 -0.66469145288E+03  0.66590799669E+03  0.28431514068E+01 0.  0.
         13    1    3    3    0    0  0.16724706243E+02 -0.22269802609E+02 -0.43921080193E+03  0.44009293160E+03  0.00000000000E+00 0.  1.
          1    1    3    3  501    0  0.76228833268E+01 -0.96338633574E+01 -0.22548065095E+03  0.22581506510E+03  0.00000000000E+00 0.  1.
         -1    1    1    2    0  502 -0.24347589570E+02  0.31903665967E+02 -0.33349722196E+03  0.33590332847E+03  0.00000000000E+00 0. -1.
<mgrwt>
<rscale>  1 0.30000000E+03</rscale>
<asrwt>0</asrwt>
<pdfrwt beam="1">  1       21 0.65866508E-02 0.30000000E+03</pdfrwt>
<pdfrwt beam="2">0</pdfrwt>
<totfact> 0.17933929E+04</totfact>
</mgrwt>
</event>
<event>
 6    1  0.1270461E-001  0.3000000E+03  0.7818608E-02  0.1093470E+00
         21   -1    0    0  501  502  0.00000000000E+00  0.00000000000E+00  0.98706577293E+00  0.98706577293E+00  0.00000000000E+00 0. -1.
         13   -1    0    0    0    0 -0.00000000000E+00 -0.00000000000E+00 -0.10000000000E+04  0.10000000000E+04  0.00000000000E+00 0.  1.
    9000005    2    1    2  501    0  0.61736264605E+00  0.31226128415E+02 -0.53990086425E+03  0.54081389725E+03  0.33579763692E+01 0.  0.
         13    1    3    3    0    0 -0.32094787320E+00  0.74015796119E+00 -0.22832059150E+02  0.22846307500E+02  0.00000000000E+00 0.  1.
          1    1    3    3  501    0  0.93831051925E+00  0.30485970454E+02 -0.51706880510E+03  0.51796758975E+03  0.00000000000E+00 0.  1.
         -1    1    1    2    0  502 -0.61736264605E+00 -0.31226128415E+02 -0.45911206998E+03  0.46017316852E+03  0.00000000000E+00 0. -1.
<mgrwt>
<rscale>  1 0.30000000E+03</rscale>
<asrwt>0</asrwt>
<pdfrwt beam="1">  1       21 0.35893377E-02 0.30000000E+03</pdfrwt>
<pdfrwt beam="2">0</pdfrwt>
<totfact> 0.50440574E+04</totfact>
</mgrwt>
</event>
<event>
 6    1  0.1270461E-001  0.3000000E+03  0.7818608E-02  0.1093470E+00
         21   -1    0    0  501  502  0.00000000000E+00  0.00000000000E+00  0.12510365701E+01  0.12510365701E+01  0.00000000000E+00 0. -1.
         13   -1    0    0    0    0 -0.00000000000E+00 -0.00000000000E+00 -0.10000000000E+04  0.10000000000E+04  0.00000000000E+00 0.  1.
    9000005    2    1    2  501    0  0.35101210682E+02  0.24402597817E+01 -0.46090767297E+03  0.46226003147E+03  0.32254967809E+01 0.  0.
         13    1    3    3    0    0  0.84982041025E+01 -0.78060418546E+00 -0.10913073767E+03  0.10946390602E+03  0.00000000000E+00 0.  1.
          1    1    3    3  501    0  0.26603006580E+02  0.32208639671E+01 -0.35177693530E+03  0.35279612545E+03  0.00000000000E+00 0.  1.
         -3    1    1    2    0  502 -0.35101210682E+02 -0.24402597817E+01 -0.53784129046E+03  0.53899100510E+03  0.00000000000E+00 0. -1.
<mgrwt>
<rscale>  1 0.30000000E+03</rscale>
<asrwt>0</asrwt>
<pdfrwt beam="1">  1       21 0.45492335E-02 0.30000000E+03</pdfrwt>
<pdfrwt beam="2">0</pdfrwt>
<totfact> 0.33827494E+04</totfact>
</mgrwt>
</event>
<event>
 6    1  0.1270461E-001  0.3000000E+03  0.7818608E-02  0.1093470E+00
         21   -1    0    0  501  502  0.00000000000E+00  0.00000000000E+00  0.36091816101E+01  0.36091816101E+01  0.00000000000E+00 0. -1.
         13   -1    0    0    0    0 -0.00000000000E+00 -0.00000000000E+00 -0.10000000000E+04  0.10000000000E+04  0.00000000000E+00 0.  1.
    9000005    2    1    2  501    0  0.55989645803E+02  0.45179260099E+01 -0.32195258279E+03  0.32683581797E+03  0.35964219707E+01 0.  0.
         13    1    3    3    0    0  0.75832102380E+01 -0.54022837150E+00 -0.46067695094E+02  0.46690785552E+02  0.00000000000E+00 0.  1.
          1    1    3    3  501    0  0.48406435565E+02  0.50581543814E+01 -0.27588488770E+03  0.28014503242E+03  0.00000000000E+00 0.  1.
         -1    1    1    2    0  502 -0.55989645803E+02 -0.45179260099E+01 -0.67443823560E+03  0.67677336364E+03  0.00000000000E+00 0. -1.
<mgrwt>
<rscale>  1 0.30000000E+03</rscale>
<asrwt>0</asrwt>
<pdfrwt beam="1">  1       21 0.13124324E-01 0.30000000E+03</pdfrwt>
<pdfrwt beam="2">0</pdfrwt>
<totfact> 0.52641943E+03</totfact>
</mgrwt>
</event>
<event>
 6    1  0.1270461E-001  0.3000000E+03  0.7818608E-02  0.1093470E+00
         21   -1    0    0  501  502  0.00000000000E+00  0.00000000000E+00  0.98553518403E+01  0.98553518403E+01  0.00000000000E+00 0. -1.
         13   -1    0    0    0    0 -0.00000000000E+00 -0.00000000000E+00 -0.10000000000E+04  0.10000000000E+04  0.00000000000E+00 0.  1.
    9000005    2    1    2  501    0 -0.39845749925E+02  0.59970438510E+02 -0.84262800628E+03  0.84570512517E+03  0.33263344975E+01 0.  0.
         13    1    3    3    0    0 -0.65315123859E+01  0.79625054204E+01 -0.11429399219E+03  0.11475704248E+03  0.00000000000E+00 0.  1.
          3    1    3    3  501    0 -0.33314237539E+02  0.52007933090E+02 -0.72833401408E+03  0.73094808270E+03  0.00000000000E+00 0.  1.
         -3    1    1    2    0  502  0.39845749925E+02 -0.59970438510E+02 -0.14751664188E+03  0.16415022667E+03  0.00000000000E+00 0. -1.
<mgrwt>
<rscale>  1 0.30000000E+03</rscale>
<asrwt>0</asrwt>
<pdfrwt beam="1">  1       21 0.35837719E-01 0.30000000E+03</pdfrwt>
<pdfrwt beam="2">0</pdfrwt>
<totfact> 0.75815555E+02</totfact>
</mgrwt>
</event>
<event>
 6    1  0.1270461E-001  0.3000000E+03  0.7818608E-02  0.1093470E+00
         21   -1    0    0  501  502  0.00000000000E+00  0.00000000000E+00  0.21931206631E+01  0.21931206631E+01  0.00000000000E+00 0. -1.
         13   -1    0    0    0    0 -0.00000000000E+00 -0.00000000000E+00 -0.10000000000E+04  0.10000000000E+04  0.00000000000E+00 0.  1.
    9000005    2    1    2  501    0 -0.53126239558E+01  0.45179121300E+02 -0.61072570021E+03  0.61244805500E+03  0.61124627574E+01 0.  0.
         13    1    3    3    0    0 -0.30152569240E+01  0.32287030653E+02 -0.39742223182E+03  0.39874299300E+03  0.00000000000E+00 0.  1.
          1    1    3    3  501    0 -0.22973670318E+01  0.12892090647E+02 -0.21330346839E+03  0.21370506200E+03  0.00000000000E+00 0.  1.
         -1    1    1    2    0  502  0.53126239558E+01 -0.45179121300E+02 -0.38708117913E+03  0.38974506566E+03  0.00000000000E+00 0. -1.
<mgrwt>
<rscale>  1 0.30000000E+03</rscale>
<asrwt>0</asrwt>
<pdfrwt beam="1">  1       21 0.79750010E-02 0.30000000E+03</pdfrwt>
<pdfrwt beam="2">0</pdfrwt>
<totfact> 0.12844278E+04</totfact>
</mgrwt>
</event>
<event>
 6    1  0.1270461E-001  0.3000000E+03  0.7818608E-02  0.1093470E+00
         21   -1    0    0  501  502  0.00000000000E+00  0.00000000000E+00  0.11016483115E+01  0.11016483115E+01  0.00000000000E+00 0. -1.
         13   -1    0    0    0    0 -0.00000000000E+00 -0.00000000000E+00 -0.10000000000E+04  0.10000000000E+04  0.00000000000E+00 0.  1.
    9000005    2    1    2  501    0  0.12349347174E+00 -0.32589712871E+02 -0.42943696791E+03  0.43070847492E+03  0.56192815632E+01 0.  0.
         13    1    3    3    0    0 -0.32359231619E-01 -0.30473068091E+02 -0.37741212046E+03  0.37864035389E+03  0.00000000000E+00 0.  1.
          3    1    3    3  501    0  0.15585270336E+00 -0.21166447796E+01 -0.52024847456E+02  0.52068121034E+02  0.00000000000E+00 0.  1.
         -1    1    1    2    0  502 -0.12349347174E+00  0.32589712871E+02 -0.56946138378E+03  0.57039317339E+03  0.00000000000E+00 0. -1.
<mgrwt>
<rscale>  1 0.30000000E+03</rscale>
<asrwt>0</asrwt>
<pdfrwt beam="1">  1       21 0.40060023E-02 0.30000000E+03</pdfrwt>
<pdfrwt beam="2">0</pdfrwt>
<totfact> 0.41941279E+04</totfact>
</mgrwt>
</event>
<event>
 6    1  0.1270461E-001  0.3000000E+03  0.7818608E-02  0.1093470E+00
         21   -1    0    0  501  502  0.00000000000E+00  0.00000000000E+00  0.45858073581E+01  0.45858073581E+01  0.00000000000E+00 0. -1.
         13   -1    0    0    0    0 -0.00000000000E+00 -0.00000000000E+00 -0.10000000000E+04  0.10000000000E+04  0.00000000000E+00 0.  1.
    9000005    2    1    2  501    0  0.33032486293E+02 -0.44026863588E+00 -0.93613580794E+03  0.93672369805E+03  0.31139346885E+01 0.  0.
         13    1    3    3    0    0  0.19241989152E+02  0.24112718161E+00 -0.58546929218E+03  0.58578545934E+03  0.00000000000E+00 0.  1.
          1    1    3    3  501    0  0.13790497140E+02 -0.68139581749E+00 -0.35066651577E+03  0.35093823871E+03  0.00000000000E+00 0.  1.
         -1    1    1    2    0  502 -0.33032486293E+02  0.44026863588E+00 -0.59278384698E+02  0.67862109307E+02  0.00000000000E+00 0. -1.
<mgrwt>
<rscale>  1 0.30000000E+03</rscale>
<asrwt>0</asrwt>
<pdfrwt beam="1">  1       21 0.16675698E-01 0.30000000E+03</pdfrwt>
<pdfrwt beam="2">0</pdfrwt>
<totfact> 0.33812258E+03</totfact>
</mgrwt>
</event>
<event>
 6    1  0.1270461E-001  0.3000000E+03  0.7818608E-02  0.1093470E+00
         21   -1    0    0  501  502  0.00000000000E+00  0.00000000000E+00  0.18709604553E+01  0.18709604553E+01  0.00000000000E+00 0. -1.
         13   -1    0    0    0    0 -0.00000000000E+00 -0.00000000000E+00 -0.10000000000E+04  0.10000000000E+04  0.00000000000E+00 0.  1.
    9000005    2    1    2  501    0 -0.76700201157E+01 -0.40985904429E+02 -0.63042500189E+03  0.63181024533E+03  0.31352076937E+01 0.  0.
         13    1    3    3    0    0 -0.27869477150E+01 -0.21700833467E+02 -0.31596212229E+03  0.31671873322E+03  0.00000000000E+00 0.  1.
          3    1    3    3  501    0 -0.48830724007E+01 -0.19285070962E+02 -0.31446287960E+03  0.31509151211E+03  0.00000000000E+00 0.  1.
         -1    1    1    2    0  502  0.76700201157E+01  0.40985904429E+02 -0.36770403765E+03  0.37006071512E+03  0.00000000000E+00 0. -1.
<mgrwt>
<rscale>  1 0.30000000E+03</rscale>
<asrwt>0</asrwt>
<pdfrwt beam="1">  1       21 0.68035069E-02 0.30000000E+03</pdfrwt>
<pdfrwt beam="2">0</pdfrwt>
<totfact> 0.16954010E+04</totfact>
</mgrwt>
</event>
<event>
 6    1  0.1270461E-001  0.3000000E+03  0.7818608E-02  0.1093470E+00
         21   -1    0    0  501  502  0.00000000000E+00  0.00000000000E+00  0.22545245655E+01  0.22545245655E+01  0.00000000000E+00 0. -1.
         13   -1    0    0    0    0 -0.00000000000E+00 -0.00000000000E+00 -0.10000000000E+04  0.10000000000E+04  0.00000000000E+00 0.  1.
    9000005    2    1    2  501    0  0.10928443690E+02 -0.35639814587E+02 -0.80885122637E+03  0.80971708770E+03  0.34392509566E+01 0.  0.
         13    1    3    3    0    0  0.10330124371E+02 -0.31973171018E+02 -0.70670650211E+03  0.70750482349E+03  0.00000000000E+00 0.  1.
          1    1    3    3  501    0  0.59831931835E+00 -0.36666435689E+01 -0.10214472426E+03  0.10221226421E+03  0.00000000000E+00 0.  1.
         -3    1    1    2    0  502 -0.10928443690E+02  0.35639814587E+02 -0.18889424906E+03  0.19253743686E+03  0.00000000000E+00 0. -1.
<mgrwt>
<rscale>  1 0.30000000E+03</rscale>
<asrwt>0</asrwt>
<pdfrwt beam="1">  1       21 0.81982884E-02 0.30000000E+03</pdfrwt>
<pdfrwt beam="2">0</pdfrwt>
<totfact> 0.12235795E+04</totfact>
</mgrwt>
</event>
<event>
 6    1  0.1270461E-001  0.3000000E+03  0.7818608E-02  0.1093470E+00
         21   -1    0    0  501  502  0.00000000000E+00  0.00000000000E+00  0.18100542295E+01  0.18100542295E+01  0.00000000000E+00 0. -1.
         13   -1    0    0    0    0 -0.00000000000E+00 -0.00000000000E+00 -0.10000000000E+04  0.10000000000E+04  0.00000000000E+00 0.  1.
    9000005    2    1    2  501    0 -0.30808774625E+02  0.28282687818E+02 -0.58679886913E+03  0.58829861671E+03  0.36412333892E+01 0.  0.
         13    1    3    3    0    0 -0.26139642105E+02  0.22511251196E+02 -0.49433933955E+03  0.49554154210E+03  0.00000000000E+00 0.  1.
          1    1    3    3  501    0 -0.46691325197E+01  0.57714366227E+01 -0.92459529580E+02  0.92757074606E+02  0.00000000000E+00 0.  1.
         -1    1    1    2    0  502  0.30808774625E+02 -0.28282687818E+02 -0.41139107664E+03  0.41351143752E+03  0.00000000000E+00 0. -1.
<mgrwt>
<rscale>  1 0.30000000E+03</rscale>
<asrwt>0</asrwt>
<pdfrwt beam="1">  1       21 0.65820293E-02 0.30000000E+03</pdfrwt>
<pdfrwt beam="2">0</pdfrwt>
<totfact> 0.17955754E+04</totfact>
</mgrwt>
</event>
<event>
 6    1  0.1270461E-001  0.3000000E+03  0.7818608E-02  0.1093470E+00
         21   -1    0    0  501  502  0.00000000000E+00  0.00000000000E+00  0.25560947159E+01  0.25560947159E+01  0.00000000000E+00 0. -1.
         13   -1    0    0    0    0 -0.00000000000E+00 -0.00000000000E+00 -0.10000000000E+04  0.10000000000E+04  0.00000000000E+00 0.  1.
    9000005    2    1    2  501    0 -0.35867638566E+02  0.35002848879E+02 -0.43707083580E+03  0.43994640414E+03  0.31993879904E+01 0.  0.
         13    1    3    3    0    0 -0.11717466720E+02  0.11952370723E+02 -0.15904885707E+03  0.15992716195E+03  0.00000000000E+00 0.  1.
          1    1    3    3  501    0 -0.24150171846E+02  0.23050478156E+02 -0.27802197873E+03  0.28001924219E+03  0.00000000000E+00 0.  1.
         -3    1    1    2    0  502  0.35867638566E+02 -0.35002848879E+02 -0.56037306948E+03  0.56260969057E+03  0.00000000000E+00 0. -1.
<mgrwt>
<rscale>  1 0.30000000E+03</rscale>
<asrwt>0</asrwt>
<pdfrwt beam="1">  1       21 0.92949095E-02 0.30000000E+03</pdfrwt>
<pdfrwt beam="2">0</pdfrwt>
<totfact> 0.98010235E+03</totfact>
</mgrwt>
</event>
<event>
 6    1  0.1270461E-001  0.3000000E+03  0.7818608E-02  0.1093470E+00
         21   -1    0    0  501  502  0.00000000000E+00  0.00000000000E+00  0.27877843001E+01  0.27877843001E+01  0.00000000000E+00 0. -1.
         13   -1    0    0    0    0 -0.00000000000E+00 -0.00000000000E+00 -0.10000000000E+04  0.10000000000E+04  0.00000000000E+00 0.  1.
    9000005    2    1    2  501    0 -0.11424954665E+02  0.32995270571E+02 -0.12357815695E+03  0.12845621900E+03  0.31971637382E+01 0.  0.
         13    1    3    3    0    0 -0.18400367513E+00  0.33541802000E+01 -0.12355492748E+02  0.12804006530E+02  0.00000000000E+00 0.  1.
          1    1    3    3  501    0 -0.11240950990E+02  0.29641090371E+02 -0.11122266420E+03  0.11565221247E+03  0.00000000000E+00 0.  1.
         -3    1    1    2    0  502  0.11424954665E+02 -0.32995270571E+02 -0.87363405875E+03  0.87433156530E+03  0.00000000000E+00 0. -1.
<mgrwt>
<rscale>  1 0.30000000E+03</rscale>
<asrwt>0</asrwt>
<pdfrwt beam="1">  1       21 0.10137419E-01 0.30000000E+03</pdfrwt>
<pdfrwt beam="2">0</pdfrwt>
<totfact> 0.83958418E+03</totfact>
</mgrwt>
</event>
<event>
 6    1  0.1270461E-001  0.3000000E+03  0.7818608E-02  0.1093470E+00
         21   -1    0    0  501  502  0.00000000000E+00  0.00000000000E+00  0.36073099895E+01  0.36073099895E+01  0.00000000000E+00 0. -1.
         13   -1    0    0    0    0 -0.00000000000E+00 -0.00000000000E+00 -0.10000000000E+04  0.10000000000E+04  0.00000000000E+00 0.  1.
    9000005    2    1    2  501    0 -0.38695810610E+02 -0.43436080836E+02 -0.62188258572E+03  0.62460615287E+03  0.32919466129E+01 0.  0.
         13    1    3    3    0    0 -0.24601986382E+02 -0.26993656674E+02 -0.40663437567E+03  0.40827127098E+03  0.00000000000E+00 0.  1.
          1    1    3    3  501    0 -0.14093824228E+02 -0.16442424162E+02 -0.21524821005E+03  0.21633488189E+03  0.00000000000E+00 0.  1.
         -1    1    1    2    0  502  0.38695810610E+02  0.43436080836E+02 -0.37451010429E+03  0.37900115711E+03  0.00000000000E+00 0. -1.
<mgrwt>
<rscale>  1 0.30000000E+03</rscale>
<asrwt>0</asrwt>
<pdfrwt beam="1">  1       21 0.13117519E-01 0.30000000E+03</pdfrwt>
<pdfrwt beam="2">0</pdfrwt>
<totfact> 0.52691865E+03</totfact>
</mgrwt>
</event>
<event>
 6    1  0.1270461E-001  0.3000000E+03  0.7818608E-02  0.1093470E+00
         21   -1    0    0  501  502  0.00000000000E+00  0.00000000000E+00  0.17363583516E+01  0.17363583516E+01  0.00000000000E+00 0. -1.
         13   -1    0    0    0    0 -0.00000000000E+00 -0.00000000000E+00 -0.10000000000E+04  0.10000000000E+04  0.00000000000E+00 0.  1.
    9000005    2    1    2  501    0 -0.13483852918E+02 -0.36306353575E+02 -0.68185328633E+03  0.68296453000E+03  0.40840612555E+01 0.  0.
         13    1    3    3    0    0 -0.13083432529E+02 -0.35171657492E+02 -0.67006617485E+03  0.67111616013E+03  0.00000000000E+00 0.  1.
          1    1    3    3  501    0 -0.40042038986E+00 -0.11346960832E+01 -0.11787111479E+02  0.11848369875E+02  0.00000000000E+00 0.  1.
         -3    1    1    2    0  502  0.13483852918E+02  0.36306353575E+02 -0.31641035531E+03  0.31877182835E+03  0.00000000000E+00 0. -1.
<mgrwt>
<rscale>  1 0.30000000E+03</rscale>
<asrwt>0</asrwt>
<pdfrwt beam="1">  1       21 0.63140437E-02 0.30000000E+03</pdfrwt>
<pdfrwt beam="2">0</pdfrwt>
<totfact> 0.19295004E+04</totfact>
</mgrwt>
</event>
<event>
 6    1  0.1270461E-001  0.3000000E+03  0.7818608E-02  0.1093470E+00
         21   -1    0    0  501  502  0.00000000000E+00  0.00000000000E+00  0.15345576290E+01  0.15345576290E+01  0.00000000000E+00 0. -1.
         13   -1    0    0    0    0 -0.00000000000E+00 -0.00000000000E+00 -0.10000000000E+04  0.10000000000E+04  0.00000000000E+00 0.  1.
    9000005    2    1    2  501    0  0.31007533813E+02  0.21258223917E+02 -0.63823903112E+03  0.63935166654E+03  0.28484067287E+01 0.  0.
         13    1    3    3    0    0  0.10590270744E+02  0.64569287324E+01 -0.23062607342E+03  0.23095937198E+03  0.00000000000E+00 0.  1.
          3    1    3    3  501    0  0.20417263069E+02  0.14801295185E+02 -0.40761295770E+03  0.40839229456E+03  0.00000000000E+00 0.  1.
         -3    1    1    2    0  502 -0.31007533813E+02 -0.21258223917E+02 -0.36022641125E+03  0.36218289109E+03  0.00000000000E+00 0. -1.
<mgrwt>
<rscale>  1 0.30000000E+03</rscale>
<asrwt>0</asrwt>
<pdfrwt beam="1">  1       21 0.55802213E-02 0.30000000E+03</pdfrwt>
<pdfrwt beam="2">0</pdfrwt>
<totfact> 0.23873637E+04</totfact>
</mgrwt>
</event>
<event>
 6    1  0.1270461E-001  0.3000000E+03  0.7818608E-02  0.1093470E+00
         21   -1    0    0  501  502  0.00000000000E+00  0.00000000000E+00  0.12151071895E+01  0.12151071895E+01  0.00000000000E+00 0. -1.
         13   -1    0    0    0    0 -0.00000000000E+00 -0.00000000000E+00 -0.10000000000E+04  0.10000000000E+04  0.00000000000E+00 0.  1.
    9000005    2    1    2  501    0  0.30477262462E+01  0.34631468688E+02 -0.49089650174E+03  0.49213825146E+03  0.34721560016E+01 0.  0.
         13    1    3    3    0    0  0.33234205708E+01  0.25287393629E+02 -0.34344019697E+03  0.34438592639E+03  0.00000000000E+00 0.  1.
          1    1    3    3  501    0 -0.27569432463E+00  0.93440750595E+01 -0.14745630477E+03  0.14775232506E+03  0.00000000000E+00 0.  1.
         -3    1    1    2    0  502 -0.30477262462E+01 -0.34631468688E+02 -0.50788839107E+03  0.50907685573E+03  0.00000000000E+00 0. -1.
<mgrwt>
<rscale>  1 0.30000000E+03</rscale>
<asrwt>0</asrwt>
<pdfrwt beam="1">  1       21 0.44185809E-02 0.30000000E+03</pdfrwt>
<pdfrwt beam="2">0</pdfrwt>
<totfact> 0.35541744E+04</totfact>
</mgrwt>
</event>
<event>
 6    1  0.1270461E-001  0.3000000E+03  0.7818608E-02  0.1093470E+00
         21   -1    0    0  501  502  0.00000000000E+00  0.00000000000E+00  0.84663644631E+01  0.84663644631E+01  0.00000000000E+00 0. -1.
         13   -1    0    0    0    0 -0.00000000000E+00 -0.00000000000E+00 -0.10000000000E+04  0.10000000000E+04  0.00000000000E+00 0.  1.
    9000005    2    1    2  501    0  0.30537446834E+02  0.19749628052E+02 -0.95892501548E+03  0.95962063211E+03  0.34624824260E+01 0.  0.
         13    1    3    3    0    0  0.98837806068E+01  0.45677612613E+01 -0.29643338372E+03  0.29663328294E+03  0.00000000000E+00 0.  1.
          3    1    3    3  501    0  0.20653666227E+02  0.15181866791E+02 -0.66249163176E+03  0.66298734917E+03  0.00000000000E+00 0.  1.
         -3    1    1    2    0  502 -0.30537446834E+02 -0.19749628052E+02 -0.32608620054E+02  0.48845732354E+02  0.00000000000E+00 0. -1.
<mgrwt>
<rscale>  1 0.30000000E+03</rscale>
<asrwt>0</asrwt>
<pdfrwt beam="1">  1       21 0.30786845E-01 0.30000000E+03</pdfrwt>
<pdfrwt beam="2">0</pdfrwt>
<totfact> 0.10322974E+03</totfact>
</mgrwt>
</event>
<event>
 6    1  0.1270461E-001  0.3000000E+03  0.7818608E-02  0.1093470E+00
         21   -1    0    0  501  502  0.00000000000E+00  0.00000000000E+00  0.11489293756E+01  0.11489293756E+01  0.00000000000E+00 0. -1.
         13   -1    0    0    0    0 -0.00000000000E+00 -0.00000000000E+00 -0.10000000000E+04  0.10000000000E+04  0.00000000000E+00 0.  1.
    9000005    2    1    2  501    0 -0.28086492911E+02  0.10899067545E+02 -0.72692495331E+03  0.72755899163E+03  0.38154686711E+01 0.  0.
         13    1    3    3    0    0 -0.18769803164E+02  0.67892941080E+01 -0.43777797959E+03  0.43823276856E+03  0.00000000000E+00 0.  1.
          1    1    3    3  501    0 -0.93166897468E+01  0.41097734368E+01 -0.28914697371E+03  0.28932622307E+03  0.00000000000E+00 0.  1.
         -3    1    1    2    0  502  0.28086492911E+02 -0.10899067545E+02 -0.27192611732E+03  0.27358993775E+03  0.00000000000E+00 0. -1.
<mgrwt>
<rscale>  1 0.30000000E+03</rscale>
<asrwt>0</asrwt>
<pdfrwt beam="1">  1       21 0.41779338E-02 0.30000000E+03</pdfrwt>
<pdfrwt beam="2">0</pdfrwt>
<totfact> 0.39072420E+04</totfact>
</mgrwt>
</event>
<event>
 6    1  0.1270461E-001  0.3000000E+03  0.7818608E-02  0.1093470E+00
         21   -1    0    0  501  502  0.00000000000E+00  0.00000000000E+00  0.42962171198E+01  0.42962171198E+01  0.00000000000E+00 0. -1.
         13   -1    0    0    0    0 -0.00000000000E+00 -0.00000000000E+00 -0.10000000000E+04  0.10000000000E+04  0.00000000000E+00 0.  1.
    9000005    2    1    2  501    0  0.27804447798E+02  0.30967777313E+02 -0.88568878539E+03  0.88667228153E+03  0.33195983352E+01 0.  0.
         13    1    3    3    0    0  0.26077087458E+02  0.28579930747E+02 -0.80394761632E+03  0.80487800114E+03  0.00000000000E+00 0.  1.
          3    1    3    3  501    0  0.17273603397E+01  0.23878465663E+01 -0.81741169067E+02  0.81794280395E+02  0.00000000000E+00 0.  1.
         -1    1    1    2    0  502 -0.27804447798E+02 -0.30967777313E+02 -0.11001499749E+03  0.11762393559E+03  0.00000000000E+00 0. -1.
<mgrwt>
<rscale>  1 0.30000000E+03</rscale>
<asrwt>0</asrwt>
<pdfrwt beam="1">  1       21 0.15622641E-01 0.30000000E+03</pdfrwt>
<pdfrwt beam="2">0</pdfrwt>
<totfact> 0.38186865E+03</totfact>
</mgrwt>
</event>
<event>
 6    1  0.1270461E-001  0.3000000E+03  0.7818608E-02  0.1093470E+00
         21   -1    0    0  501  502  0.00000000000E+00  0.00000000000E+00  0.24495418333E+01  0.24495418333E+01  0.00000000000E+00 0. -1.
         13   -1    0    0    0    0 -0.00000000000E+00 -0.00000000000E+00 -0.10000000000E+04  0.10000000000E+04  0.00000000000E+00 0.  1.
    9000005    2    1    2  501    0 -0.60958367353E+01 -0.33696269765E+02 -0.86041611208E+03  0.86110447931E+03  0.35271162019E+01 0.  0.
         13    1    3    3    0    0 -0.25983262030E+01 -0.23404093584E+02 -0.59626673944E+03  0.59673153717E+03  0.00000000000E+00 0.  1.
          3    1    3    3  501    0 -0.34975105323E+01 -0.10292176181E+02 -0.26414937264E+03  0.26437294214E+03  0.00000000000E+00 0.  1.
         -1    1    1    2    0  502  0.60958367353E+01  0.33696269765E+02 -0.13713434609E+03  0.14134506252E+03  0.00000000000E+00 0. -1.
<mgrwt>
<rscale>  1 0.30000000E+03</rscale>
<asrwt>0</asrwt>
<pdfrwt beam="1">  1       21 0.89074436E-02 0.30000000E+03</pdfrwt>
<pdfrwt beam="2">0</pdfrwt>
<totfact> 0.10569816E+04</totfact>
</mgrwt>
</event>
<event>
 6    1  0.1270461E-001  0.3000000E+03  0.7818608E-02  0.1093470E+00
         21   -1    0    0  501  502  0.00000000000E+00  0.00000000000E+00  0.98493268207E+00  0.98493268207E+00  0.00000000000E+00 0. -1.
         13   -1    0    0    0    0 -0.00000000000E+00 -0.00000000000E+00 -0.10000000000E+04  0.10000000000E+04  0.00000000000E+00 0.  1.
    9000005    2    1    2  501    0 -0.14237832937E+02  0.27612021038E+02 -0.44032384245E+03  0.44143062402E+03  0.32817684767E+01 0.  0.
         13    1    3    3    0    0 -0.10582550247E+02  0.20885244541E+02 -0.35049040426E+03  0.35127155776E+03  0.00000000000E+00 0.  1.
          1    1    3    3  501    0 -0.36552826902E+01  0.67267764978E+01 -0.89833438186E+02  0.90159066266E+02  0.00000000000E+00 0.  1.
         -3    1    1    2    0  502  0.14237832937E+02 -0.27612021038E+02 -0.55869122487E+03  0.55955430866E+03  0.00000000000E+00 0. -1.
<mgrwt>
<rscale>  1 0.30000000E+03</rscale>
<asrwt>0</asrwt>
<pdfrwt beam="1">  1       21 0.35815809E-02 0.30000000E+03</pdfrwt>
<pdfrwt beam="2">0</pdfrwt>
<totfact> 0.50623877E+04</totfact>
</mgrwt>
</event>
<event>
 6    1  0.1270461E-001  0.3000000E+03  0.7818608E-02  0.1093470E+00
         21   -1    0    0  501  502  0.00000000000E+00  0.00000000000E+00  0.39799630604E+01  0.39799630604E+01  0.00000000000E+00 0. -1.
         13   -1    0    0    0    0 -0.00000000000E+00 -0.00000000000E+00 -0.10000000000E+04  0.10000000000E+04  0.00000000000E+00 0.  1.
    9000005    2    1    2  501    0 -0.39408519073E+02 -0.55559668100E+01 -0.88741014935E+03  0.88830797931E+03  0.32237853904E+01 0.  0.
         13    1    3    3    0    0 -0.37274866956E+02 -0.45176560873E+01 -0.83873296814E+03  0.83957299669E+03  0.00000000000E+00 0.  1.
          3    1    3    3  501    0 -0.21336521165E+01 -0.10383107228E+01 -0.48677181207E+02  0.48734982618E+02  0.00000000000E+00 0.  1.
         -1    1    1    2    0  502  0.39408519073E+02  0.55559668100E+01 -0.10860988759E+03  0.11567198375E+03  0.00000000000E+00 0. -1.
<mgrwt>
<rscale>  1 0.30000000E+03</rscale>
<asrwt>0</asrwt>
<pdfrwt beam="1">  1       21 0.14472623E-01 0.30000000E+03</pdfrwt>
<pdfrwt beam="2">0</pdfrwt>
<totfact> 0.43994789E+03</totfact>
</mgrwt>
</event>
<event>
 6    1  0.1270461E-001  0.3000000E+03  0.7818608E-02  0.1093470E+00
         21   -1    0    0  501  502  0.00000000000E+00  0.00000000000E+00  0.32589246632E+01  0.32589246632E+01  0.00000000000E+00 0. -1.
         13   -1    0    0    0    0 -0.00000000000E+00 -0.00000000000E+00 -0.10000000000E+04  0.10000000000E+04  0.00000000000E+00 0.  1.
    9000005    2    1    2  501    0  0.51817457748E+02 -0.20979814460E+02 -0.59881374644E+03  0.60142393288E+03  0.27645194017E+01 0.  0.
         13    1    3    3    0    0  0.36339298326E+02 -0.13809779437E+02 -0.40572729788E+03  0.40758544486E+03  0.00000000000E+00 0.  1.
          1    1    3    3  501    0  0.15478159422E+02 -0.71700350233E+01 -0.19308644856E+03  0.19383848802E+03  0.00000000000E+00 0.  1.
         -1    1    1    2    0  502 -0.51817457748E+02  0.20979814460E+02 -0.39792732890E+03  0.40183499179E+03  0.00000000000E+00 0. -1.
<mgrwt>
<rscale>  1 0.30000000E+03</rscale>
<asrwt>0</asrwt>
<pdfrwt beam="1">  1       21 0.11850660E-01 0.30000000E+03</pdfrwt>
<pdfrwt beam="2">0</pdfrwt>
<totfact> 0.63394799E+03</totfact>
</mgrwt>
</event>
<event>
 6    1  0.1270461E-001  0.3000000E+03  0.7818608E-02  0.1093470E+00
         21   -1    0    0  501  502  0.00000000000E+00  0.00000000000E+00  0.19054340141E+01  0.19054340141E+01  0.00000000000E+00 0. -1.
         13   -1    0    0    0    0 -0.00000000000E+00 -0.00000000000E+00 -0.10000000000E+04  0.10000000000E+04  0.00000000000E+00 0.  1.
    9000005    2    1    2  501    0 -0.33450031135E+02  0.32510463625E+01 -0.81829186041E+03  0.81898882236E+03  0.34129836621E+01 0.  0.
         13    1    3    3    0    0 -0.26072198098E+02  0.29994847231E+01 -0.66898152153E+03  0.66949610348E+03  0.00000000000E+00 0.  1.
          1    1    3    3  501    0 -0.73778330372E+01  0.25156163942E+00 -0.14931033888E+03  0.14949271888E+03  0.00000000000E+00 0.  1.
         -3    1    1    2    0  502  0.33450031135E+02 -0.32510463625E+01 -0.17980270558E+03  0.18291661165E+03  0.00000000000E+00 0. -1.
<mgrwt>
<rscale>  1 0.30000000E+03</rscale>
<asrwt>0</asrwt>
<pdfrwt beam="1">  1       21 0.69288656E-02 0.30000000E+03</pdfrwt>
<pdfrwt beam="2">0</pdfrwt>
<totfact> 0.16424550E+04</totfact>
</mgrwt>
</event>
<event>
 6    1  0.1270461E-001  0.3000000E+03  0.7818608E-02  0.1093470E+00
         21   -1    0    0  501  502  0.00000000000E+00  0.00000000000E+00  0.13487716655E+02  0.13487716655E+02  0.00000000000E+00 0. -1.
         13   -1    0    0    0    0 -0.00000000000E+00 -0.00000000000E+00 -0.10000000000E+04  0.10000000000E+04  0.00000000000E+00 0.  1.
    9000005    2    1    2  501    0  0.13844455640E+02 -0.29306449729E+02 -0.97985767566E+03  0.98039964099E+03  0.34430439753E+01 0.  0.
         13    1    3    3    0    0  0.27717425180E+01 -0.40147958254E+01 -0.17774460953E+03  0.17781155013E+03  0.00000000000E+00 0.  1.
          3    1    3    3  501    0  0.11072713122E+02 -0.25291653904E+02 -0.80211306613E+03  0.80258809086E+03  0.00000000000E+00 0.  1.
         -1    1    1    2    0  502 -0.13844455640E+02  0.29306449729E+02 -0.66546076821E+01  0.33088075663E+02  0.00000000000E+00 0. -1.
<mgrwt>
<rscale>  1 0.30000000E+03</rscale>
<asrwt>0</asrwt>
<pdfrwt beam="1">  1       21 0.49046346E-01 0.30000000E+03</pdfrwt>
<pdfrwt beam="2">0</pdfrwt>
<totfact> 0.39171094E+02</totfact>
</mgrwt>
</event>
<event>
 6    1  0.1270461E-001  0.3000000E+03  0.7818608E-02  0.1093470E+00
         21   -1    0    0  501  502  0.00000000000E+00  0.00000000000E+00  0.15278975031E+01  0.15278975031E+01  0.00000000000E+00 0. -1.
         13   -1    0    0    0    0 -0.00000000000E+00 -0.00000000000E+00 -0.10000000000E+04  0.10000000000E+04  0.00000000000E+00 0.  1.
    9000005    2    1    2  501    0 -0.31912931030E+02 -0.19133412915E+02 -0.65000701652E+03  0.65108184059E+03  0.37308138872E+01 0.  0.
         13    1    3    3    0    0 -0.20027146461E+02 -0.13305977026E+02 -0.39434413090E+03  0.39507648525E+03  0.00000000000E+00 0.  1.
          1    1    3    3  501    0 -0.11885784569E+02 -0.58274358895E+01 -0.25566288561E+03  0.25600535534E+03  0.00000000000E+00 0.  1.
         -3    1    1    2    0  502  0.31912931030E+02  0.19133412915E+02 -0.34846508598E+03  0.35044605691E+03  0.00000000000E+00 0. -1.
<mgrwt>
<rscale>  1 0.30000000E+03</rscale>
<asrwt>0</asrwt>
<pdfrwt beam="1">  1       21 0.55560026E-02 0.30000000E+03</pdfrwt>
<pdfrwt beam="2">0</pdfrwt>
<totfact> 0.24052521E+04</totfact>
</mgrwt>
</event>
<event>
 6    1  0.1270461E-001  0.3000000E+03  0.7818608E-02  0.1093470E+00
         21   -1    0    0  501  502  0.00000000000E+00  0.00000000000E+00  0.16031472877E+01  0.16031472877E+01  0.00000000000E+00 0. -1.
         13   -1    0    0    0    0 -0.00000000000E+00 -0.00000000000E+00 -0.10000000000E+04  0.10000000000E+04  0.00000000000E+00 0.  1.
    9000005    2    1    2  501    0 -0.30181462753E+02  0.25871739108E+02 -0.55365026174E+03  0.55508349737E+03  0.29680217070E+01 0.  0.
         13    1    3    3    0    0 -0.17157574333E+02  0.15417724996E+02 -0.30196332060E+03  0.30284308740E+03  0.00000000000E+00 0.  1.
          3    1    3    3  501    0 -0.13023888420E+02  0.10454014112E+02 -0.25168694114E+03  0.25224040997E+03  0.00000000000E+00 0.  1.
         -1    1    1    2    0  502  0.30181462753E+02 -0.25871739108E+02 -0.44474659097E+03  0.44651964992E+03  0.00000000000E+00 0. -1.
<mgrwt>
<rscale>  1 0.30000000E+03</rscale>
<asrwt>0</asrwt>
<pdfrwt beam="1">  1       21 0.58296388E-02 0.30000000E+03</pdfrwt>
<pdfrwt beam="2">0</pdfrwt>
<totfact> 0.22144290E+04</totfact>
</mgrwt>
</event>
<event>
 6    1  0.1270461E-001  0.3000000E+03  0.7818608E-02  0.1093470E+00
         21   -1    0    0  501  502  0.00000000000E+00  0.00000000000E+00  0.19055111052E+01  0.19055111052E+01  0.00000000000E+00 0. -1.
         13   -1    0    0    0    0 -0.00000000000E+00 -0.00000000000E+00 -0.10000000000E+04  0.10000000000E+04  0.00000000000E+00 0.  1.
    9000005    2    1    2  501    0 -0.39871761040E+02  0.34060382618E+01 -0.69711482767E+03  0.69827725996E+03  0.45486689126E+01 0.  0.
         13    1    3    3    0    0 -0.38197796320E+02  0.41201809929E+01 -0.67113474078E+03  0.67223350691E+03  0.00000000000E+00 0.  1.
          1    1    3    3  501    0 -0.16739647209E+01 -0.71414273117E+00 -0.25980086893E+02  0.26043753046E+02  0.00000000000E+00 0.  1.
         -1    1    1    2    0  502  0.39871761040E+02 -0.34060382618E+01 -0.30097966122E+03  0.30362825115E+03  0.00000000000E+00 0. -1.
<mgrwt>
<rscale>  1 0.30000000E+03</rscale>
<asrwt>0</asrwt>
<pdfrwt beam="1">  1       21 0.69291459E-02 0.30000000E+03</pdfrwt>
<pdfrwt beam="2">0</pdfrwt>
<totfact> 0.16423395E+04</totfact>
</mgrwt>
</event>
<event>
 6    1  0.1270461E-001  0.3000000E+03  0.7818608E-02  0.1093470E+00
         21   -1    0    0  501  502  0.00000000000E+00  0.00000000000E+00  0.37794758303E+01  0.37794758303E+01  0.00000000000E+00 0. -1.
         13   -1    0    0    0    0 -0.00000000000E+00 -0.00000000000E+00 -0.10000000000E+04  0.10000000000E+04  0.00000000000E+00 0.  1.
    9000005    2    1    2  501    0 -0.25941441513E+02 -0.43223074447E+02 -0.78508348760E+03  0.78670796512E+03  0.34853008788E+01 0.  0.
         13    1    3    3    0    0 -0.63539363635E+01 -0.13614085701E+02 -0.22834179464E+03  0.22883551083E+03  0.00000000000E+00 0.  1.
          3    1    3    3  501    0 -0.19587505149E+02 -0.29608988746E+02 -0.55674169296E+03  0.55787245429E+03  0.00000000000E+00 0.  1.
         -1    1    1    2    0  502  0.25941441513E+02  0.43223074447E+02 -0.21113703657E+03  0.21707151071E+03  0.00000000000E+00 0. -1.
<mgrwt>
<rscale>  1 0.30000000E+03</rscale>
<asrwt>0</asrwt>
<pdfrwt beam="1">  1       21 0.13743577E-01 0.30000000E+03</pdfrwt>
<pdfrwt beam="2">0</pdfrwt>
<totfact> 0.48381067E+03</totfact>
</mgrwt>
</event>
<event>
 6    1  0.1270461E-001  0.3000000E+03  0.7818608E-02  0.1093470E+00
         21   -1    0    0  501  502  0.00000000000E+00  0.00000000000E+00  0.18506358726E+01  0.18506358726E+01  0.00000000000E+00 0. -1.
         13   -1    0    0    0    0 -0.00000000000E+00 -0.00000000000E+00 -0.10000000000E+04  0.10000000000E+04  0.00000000000E+00 0.  1.
    9000005    2    1    2  501    0 -0.30029014523E+01 -0.40043352609E+02 -0.67723078494E+03  0.67842951416E+03  0.35471257367E+01 0.  0.
         13    1    3    3    0    0 -0.29212855124E+01 -0.16253615150E+02 -0.27077363915E+03  0.27127675458E+03  0.00000000000E+00 0.  1.
          1    1    3    3  501    0 -0.81615939953E-01 -0.23789737459E+02 -0.40645714579E+03  0.40715275958E+03  0.00000000000E+00 0.  1.
         -3    1    1    2    0  502  0.30029014523E+01  0.40043352609E+02 -0.32091857919E+03  0.32342112172E+03  0.00000000000E+00 0. -1.
<mgrwt>
<rscale>  1 0.30000000E+03</rscale>
<asrwt>0</asrwt>
<pdfrwt beam="1">  1       21 0.67295992E-02 0.30000000E+03</pdfrwt>
<pdfrwt beam="2">0</pdfrwt>
<totfact> 0.17278531E+04</totfact>
</mgrwt>
</event>
<event>
 6    1  0.1270461E-001  0.3000000E+03  0.7818608E-02  0.1093470E+00
         21   -1    0    0  501  502  0.00000000000E+00  0.00000000000E+00  0.13934920041E+01  0.13934920041E+01  0.00000000000E+00 0. -1.
         13   -1    0    0    0    0 -0.00000000000E+00 -0.00000000000E+00 -0.10000000000E+04  0.10000000000E+04  0.00000000000E+00 0.  1.
    9000005    2    1    2  501    0  0.37200536222E+02  0.12573028501E+01 -0.52476797521E+03  0.52609525315E+03  0.30539932235E+01 0.  0.
         13    1    3    3    0    0  0.35332926043E+02  0.16909169080E+01 -0.50349032040E+03  0.50473139153E+03  0.00000000000E+00 0.  1.
          1    1    3    3  501    0  0.18676101789E+01 -0.43361405790E+00 -0.21277654812E+02  0.21363861618E+02  0.00000000000E+00 0.  1.
         -3    1    1    2    0  502 -0.37200536222E+02 -0.12573028501E+01 -0.47383853279E+03  0.47529823886E+03  0.00000000000E+00 0. -1.
<mgrwt>
<rscale>  1 0.30000000E+03</rscale>
<asrwt>0</asrwt>
<pdfrwt beam="1">  1       21 0.50672543E-02 0.30000000E+03</pdfrwt>
<pdfrwt beam="2">0</pdfrwt>
<totfact> 0.28155766E+04</totfact>
</mgrwt>
</event>
<event>
 6    1  0.1270461E-001  0.3000000E+03  0.7818608E-02  0.1093470E+00
         21   -1    0    0  501  502  0.00000000000E+00  0.00000000000E+00  0.13997288758E+01  0.13997288758E+01  0.00000000000E+00 0. -1.
         13   -1    0    0    0    0 -0.00000000000E+00 -0.00000000000E+00 -0.10000000000E+04  0.10000000000E+04  0.00000000000E+00 0.  1.
    9000005    2    1    2  501    0 -0.18219638459E+02  0.25782248060E+02 -0.23413293010E+03  0.23628078712E+03  0.37016029453E+01 0.  0.
         13    1    3    3    0    0 -0.11938765754E+02  0.17735572484E+02 -0.17031616802E+03  0.17165279417E+03  0.00000000000E+00 0.  1.
          1    1    3    3  501    0 -0.62808727053E+01  0.80466755762E+01 -0.63816762084E+02  0.64627992949E+02  0.00000000000E+00 0.  1.
         -1    1    1    2    0  502  0.18219638459E+02 -0.25782248060E+02 -0.76446734102E+03  0.76511894175E+03  0.00000000000E+00 0. -1.
<mgrwt>
<rscale>  1 0.30000000E+03</rscale>
<asrwt>0</asrwt>
<pdfrwt beam="1">  1       21 0.50899339E-02 0.30000000E+03</pdfrwt>
<pdfrwt beam="2">0</pdfrwt>
<totfact> 0.27942065E+04</totfact>
</mgrwt>
</event>
<event>
 6    1  0.1270461E-001  0.3000000E+03  0.7818608E-02  0.1093470E+00
         21   -1    0    0  501  502  0.00000000000E+00  0.00000000000E+00  0.12989376512E+01  0.12989376512E+01  0.00000000000E+00 0. -1.
         13   -1    0    0    0    0 -0.00000000000E+00 -0.00000000000E+00 -0.10000000000E+04  0.10000000000E+04  0.00000000000E+00 0.  1.
    9000005    2    1    2  501    0 -0.74246272018E+00  0.35934677516E+02 -0.48171564485E+03  0.48306561742E+03  0.32520661116E+01 0.  0.
         13    1    3    3    0    0 -0.10893484385E+00  0.21227539445E+01 -0.40572652318E+02  0.40628291463E+02  0.00000000000E+00 0.  1.
          3    1    3    3  501    0 -0.63352787633E+00  0.33811923571E+02 -0.44114299254E+03  0.44243732595E+03  0.00000000000E+00 0.  1.
         -3    1    1    2    0  502  0.74246272018E+00 -0.35934677516E+02 -0.51698541750E+03  0.51823332024E+03  0.00000000000E+00 0. -1.
<mgrwt>
<rscale>  1 0.30000000E+03</rscale>
<asrwt>0</asrwt>
<pdfrwt beam="1">  1       21 0.47234196E-02 0.30000000E+03</pdfrwt>
<pdfrwt beam="2">0</pdfrwt>
<totfact> 0.31734979E+04</totfact>
</mgrwt>
</event>
<event>
 6    1  0.1270461E-001  0.3000000E+03  0.7818608E-02  0.1093470E+00
         21   -1    0    0  501  502  0.00000000000E+00  0.00000000000E+00  0.49198174387E+01  0.49198174387E+01  0.00000000000E+00 0. -1.
         13   -1    0    0    0    0 -0.00000000000E+00 -0.00000000000E+00 -0.10000000000E+04  0.10000000000E+04  0.00000000000E+00 0.  1.
    9000005    2    1    2  501    0 -0.10109856041E+02 -0.32439411965E+02 -0.93701793869E+03  0.93764613164E+03  0.48089615541E+01 0.  0.
         13    1    3    3    0    0 -0.93534611976E+01 -0.25002815778E+02 -0.69389391310E+03  0.69440722250E+03  0.00000000000E+00 0.  1.
          3    1    3    3  501    0 -0.75639484355E+00 -0.74365961868E+01 -0.24312402559E+03  0.24323890913E+03  0.00000000000E+00 0.  1.
         -1    1    1    2    0  502  0.10109856041E+02  0.32439411965E+02 -0.58062243871E+02  0.67273685800E+02  0.00000000000E+00 0. -1.
<mgrwt>
<rscale>  1 0.30000000E+03</rscale>
<asrwt>0</asrwt>
<pdfrwt beam="1">  1       21 0.17890283E-01 0.30000000E+03</pdfrwt>
<pdfrwt beam="2">0</pdfrwt>
<totfact> 0.29634707E+03</totfact>
</mgrwt>
</event>
<event>
 6    1  0.1270461E-001  0.3000000E+03  0.7818608E-02  0.1093470E+00
         21   -1    0    0  501  502  0.00000000000E+00  0.00000000000E+00  0.14377140445E+01  0.14377140445E+01  0.00000000000E+00 0. -1.
         13   -1    0    0    0    0 -0.00000000000E+00 -0.00000000000E+00 -0.10000000000E+04  0.10000000000E+04  0.00000000000E+00 0.  1.
    9000005    2    1    2  501    0 -0.57498259729E+01 -0.32815927536E+02 -0.26353303343E+03  0.26565381393E+03  0.35133386088E+01 0.  0.
         13    1    3    3    0    0 -0.16031637161E+00 -0.55204866088E+00 -0.20688679895E+01  0.21472479645E+01  0.00000000000E+00 0.  1.
          1    1    3    3  501    0 -0.55895096013E+01 -0.32263878875E+02 -0.26146416544E+03  0.26350656596E+03  0.00000000000E+00 0.  1.
         -1    1    1    2    0  502  0.57498259729E+01  0.32815927536E+02 -0.73502925253E+03  0.73578390012E+03  0.00000000000E+00 0. -1.
<mgrwt>
<rscale>  1 0.30000000E+03</rscale>
<asrwt>0</asrwt>
<pdfrwt beam="1">  1       21 0.52280621E-02 0.30000000E+03</pdfrwt>
<pdfrwt beam="2">0</pdfrwt>
<totfact> 0.26693285E+04</totfact>
</mgrwt>
</event>
<event>
 6    1  0.1270461E-001  0.3000000E+03  0.7818608E-02  0.1093470E+00
         21   -1    0    0  501  502  0.00000000000E+00  0.00000000000E+00  0.21897164880E+01  0.21897164880E+01  0.00000000000E+00 0. -1.
         13   -1    0    0    0    0 -0.00000000000E+00 -0.00000000000E+00 -0.10000000000E+04  0.10000000000E+04  0.00000000000E+00 0.  1.
    9000005    2    1    2  501    0 -0.14854561956E+02  0.34655333952E+02 -0.79523995246E+03  0.79614023407E+03  0.33226697644E+01 0.  0.
         13    1    3    3    0    0 -0.13669770670E+02  0.32685735622E+02 -0.72899268228E+03  0.72985310218E+03  0.00000000000E+00 0.  1.
          3    1    3    3  501    0 -0.11847912855E+01  0.19695983304E+01 -0.66247270176E+02  0.66287131887E+02  0.00000000000E+00 0.  1.
         -3    1    1    2    0  502  0.14854561956E+02 -0.34655333952E+02 -0.20257033106E+03  0.20604948242E+03  0.00000000000E+00 0. -1.
<mgrwt>
<rscale>  1 0.30000000E+03</rscale>
<asrwt>0</asrwt>
<pdfrwt beam="1">  1       21 0.79626222E-02 0.30000000E+03</pdfrwt>
<pdfrwt beam="2">0</pdfrwt>
<totfact> 0.12879363E+04</totfact>
</mgrwt>
</event>
<event>
 6    1  0.1270461E-001  0.3000000E+03  0.7818608E-02  0.1093470E+00
         21   -1    0    0  501  502  0.00000000000E+00  0.00000000000E+00  0.16085269013E+01  0.16085269013E+01  0.00000000000E+00 0. -1.
         13   -1    0    0    0    0 -0.00000000000E+00 -0.00000000000E+00 -0.10000000000E+04  0.10000000000E+04  0.00000000000E+00 0.  1.
    9000005    2    1    2  501    0 -0.19583707311E+02 -0.23271053241E+02 -0.82510892832E+03  0.82567699523E+03  0.35627726450E+01 0.  0.
         13    1    3    3    0    0 -0.14126546802E+02 -0.17974790965E+02 -0.65319558154E+03  0.65359553256E+03  0.00000000000E+00 0.  1.
          1    1    3    3  501    0 -0.54571605090E+01 -0.52962622764E+01 -0.17191334677E+03  0.17208146267E+03  0.00000000000E+00 0.  1.
         -1    1    1    2    0  502  0.19583707311E+02  0.23271053241E+02 -0.17328254478E+03  0.17593153167E+03  0.00000000000E+00 0. -1.
<mgrwt>
<rscale>  1 0.30000000E+03</rscale>
<asrwt>0</asrwt>
<pdfrwt beam="1">  1       21 0.58492011E-02 0.30000000E+03</pdfrwt>
<pdfrwt beam="2">0</pdfrwt>
<totfact> 0.22016845E+04</totfact>
</mgrwt>
</event>
<event>
 6    1  0.1270461E-001  0.3000000E+03  0.7818608E-02  0.1093470E+00
         21   -1    0    0  501  502  0.00000000000E+00  0.00000000000E+00  0.99773480541E+00  0.99773480541E+00  0.00000000000E+00 0. -1.
         13   -1    0    0    0    0 -0.00000000000E+00 -0.00000000000E+00 -0.10000000000E+04  0.10000000000E+04  0.00000000000E+00 0.  1.
    9000005    2    1    2  501    0 -0.25981295239E+02  0.15441622690E+02 -0.64157078617E+03  0.64229070447E+03  0.32869392386E+01 0.  0.
         13    1    3    3    0    0 -0.24788179772E+02  0.15447945235E+02 -0.61535384609E+03  0.61604662873E+03  0.00000000000E+00 0.  1.
          3    1    3    3  501    0 -0.11931154667E+01 -0.63225448139E-02 -0.26216940079E+02  0.26244075743E+02  0.00000000000E+00 0.  1.
         -1    1    1    2    0  502  0.25981295239E+02 -0.15441622690E+02 -0.35743147902E+03  0.35870703033E+03  0.00000000000E+00 0. -1.
<mgrwt>
<rscale>  1 0.30000000E+03</rscale>
<asrwt>0</asrwt>
<pdfrwt beam="1">  1       21 0.36281342E-02 0.30000000E+03</pdfrwt>
<pdfrwt beam="2">0</pdfrwt>
<totfact> 0.49539280E+04</totfact>
</mgrwt>
</event>
<event>
 6    1  0.1270461E-001  0.3000000E+03  0.7818608E-02  0.1093470E+00
         21   -1    0    0  501  502  0.00000000000E+00  0.00000000000E+00  0.11959011707E+01  0.11959011707E+01  0.00000000000E+00 0. -1.
         13   -1    0    0    0    0 -0.00000000000E+00 -0.00000000000E+00 -0.10000000000E+04  0.10000000000E+04  0.00000000000E+00 0.  1.
    9000005    2    1    2  501    0  0.10478459839E+02 -0.32560883818E+02 -0.43347647797E+03  0.43483441926E+03  0.30176070088E+01 0.  0.
         13    1    3    3    0    0  0.47634537508E+01 -0.13741249473E+02 -0.16607180564E+03  0.16670739952E+03  0.00000000000E+00 0.  1.
          1    1    3    3  501    0  0.57150060882E+01 -0.18819634346E+02 -0.26740467233E+03  0.26812701974E+03  0.00000000000E+00 0.  1.
         -1    1    1    2    0  502 -0.10478459839E+02  0.32560883818E+02 -0.56532762086E+03  0.56636148191E+03  0.00000000000E+00 0. -1.
<mgrwt>
<rscale>  1 0.30000000E+03</rscale>
<asrwt>0</asrwt>
<pdfrwt beam="1">  1       21 0.43487407E-02 0.30000000E+03</pdfrwt>
<pdfrwt beam="2">0</pdfrwt>
<totfact> 0.36513763E+04</totfact>
</mgrwt>
</event>
<event>
 6    1  0.1270461E-001  0.3000000E+03  0.7818608E-02  0.1093470E+00
         21   -1    0    0  501  502  0.00000000000E+00  0.00000000000E+00  0.21501868296E+01  0.21501868296E+01  0.00000000000E+00 0. -1.
         13   -1    0    0    0    0 -0.00000000000E+00 -0.00000000000E+00 -0.10000000000E+04  0.10000000000E+04  0.00000000000E+00 0.  1.
    9000005    2    1    2  501    0 -0.20532542070E+02 -0.23043028482E+02 -0.12677055975E+03  0.13052433121E+03  0.36413971148E+01 0.  0.
         13    1    3    3    0    0 -0.14899245025E+02 -0.18838951419E+02 -0.10040492324E+03  0.10323779445E+03  0.00000000000E+00 0.  1.
          3    1    3    3  501    0 -0.56332970460E+01 -0.42040770633E+01 -0.26365636515E+02  0.27286536761E+02  0.00000000000E+00 0.  1.
         -1    1    1    2    0  502  0.20532542070E+02  0.23043028482E+02 -0.87107925342E+03  0.87162585562E+03  0.00000000000E+00 0. -1.
<mgrwt>
<rscale>  1 0.30000000E+03</rscale>
<asrwt>0</asrwt>
<pdfrwt beam="1">  1       21 0.78188777E-02 0.30000000E+03</pdfrwt>
<pdfrwt beam="2">0</pdfrwt>
<totfact> 0.13297820E+04</totfact>
</mgrwt>
</event>
<event>
 6    1  0.1270461E-001  0.3000000E+03  0.7818608E-02  0.1093470E+00
         21   -1    0    0  501  502  0.00000000000E+00  0.00000000000E+00  0.17192696332E+01  0.17192696332E+01  0.00000000000E+00 0. -1.
         13   -1    0    0    0    0 -0.00000000000E+00 -0.00000000000E+00 -0.10000000000E+04  0.10000000000E+04  0.00000000000E+00 0.  1.
    9000005    2    1    2  501    0  0.77283109648E+01  0.31008293315E+02 -0.81792402024E+03  0.81855326860E+03  0.29171243953E+01 0.  0.
         13    1    3    3    0    0  0.74251872871E+01  0.26727054105E+02 -0.72409830335E+03  0.72462943754E+03  0.00000000000E+00 0.  1.
          1    1    3    3  501    0  0.30312367771E+00  0.42812392094E+01 -0.93825716883E+02  0.93923831064E+02  0.00000000000E+00 0.  1.
         -3    1    1    2    0  502 -0.77283109648E+01 -0.31008293315E+02 -0.18035671013E+03  0.18316600103E+03  0.00000000000E+00 0. -1.
<mgrwt>
<rscale>  1 0.30000000E+03</rscale>
<asrwt>0</asrwt>
<pdfrwt beam="1">  1       21 0.62519028E-02 0.30000000E+03</pdfrwt>
<pdfrwt beam="2">0</pdfrwt>
<totfact> 0.19627642E+04</totfact>
</mgrwt>
</event>
<event>
 6    1  0.1270461E-001  0.3000000E+03  0.7818608E-02  0.1093470E+00
         21   -1    0    0  501  502  0.00000000000E+00  0.00000000000E+00  0.11373730643E+01  0.11373730643E+01  0.00000000000E+00 0. -1.
         13   -1    0    0    0    0 -0.00000000000E+00 -0.00000000000E+00 -0.10000000000E+04  0.10000000000E+04  0.00000000000E+00 0.  1.
    9000005    2    1    2  501    0 -0.31675566078E+02 -0.98983646028E+01 -0.58381799961E+03  0.58476811174E+03  0.29947829758E+01 0.  0.
         13    1    3    3    0    0 -0.24809450235E+02 -0.89653199660E+01 -0.46864338190E+03  0.46938524176E+03  0.00000000000E+00 0.  1.
          3    1    3    3  501    0 -0.68661158434E+01 -0.93304463686E+00 -0.11517461771E+03  0.11538286997E+03  0.00000000000E+00 0.  1.
         -1    1    1    2    0  502  0.31675566078E+02  0.98983646028E+01 -0.41504462732E+03  0.41636926133E+03  0.00000000000E+00 0. -1.
<mgrwt>
<rscale>  1 0.30000000E+03</rscale>
<asrwt>0</asrwt>
<pdfrwt beam="1">  1       21 0.41359108E-02 0.30000000E+03</pdfrwt>
<pdfrwt beam="2">0</pdfrwt>
<totfact> 0.39744723E+04</totfact>
</mgrwt>
</event>
<event>
 6    1  0.1270461E-001  0.3000000E+03  0.7818608E-02  0.1093470E+00
         21   -1    0    0  501  502  0.00000000000E+00  0.00000000000E+00  0.19447136406E+01  0.19447136406E+01  0.00000000000E+00 0. -1.
         13   -1    0    0    0    0 -0.00000000000E+00 -0.00000000000E+00 -0.10000000000E+04  0.10000000000E+04  0.00000000000E+00 0.  1.
    9000005    2    1    2  501    0 -0.14365076695E+02  0.41385592772E+02 -0.44918559065E+03  0.45132954350E+03  0.33969506060E+01 0.  0.
         13    1    3    3    0    0 -0.40764108052E+01  0.86149613710E+01 -0.88125673013E+02  0.88639544948E+02  0.00000000000E+00 0.  1.
          3    1    3    3  501    0 -0.10288665890E+02  0.32770631401E+02 -0.36105991763E+03  0.36268999855E+03  0.00000000000E+00 0.  1.
         -3    1    1    2    0  502  0.14365076695E+02 -0.41385592772E+02 -0.54886969571E+03  0.55061517014E+03  0.00000000000E+00 0. -1.
<mgrwt>
<rscale>  1 0.30000000E+03</rscale>
<asrwt>0</asrwt>
<pdfrwt beam="1">  1       21 0.70717009E-02 0.30000000E+03</pdfrwt>
<pdfrwt beam="2">0</pdfrwt>
<totfact> 0.15851524E+04</totfact>
</mgrwt>
</event>
<event>
 6    1  0.1270461E-001  0.3000000E+03  0.7818608E-02  0.1093470E+00
         21   -1    0    0  501  502  0.00000000000E+00  0.00000000000E+00  0.28800917458E+01  0.28800917458E+01  0.00000000000E+00 0. -1.
         13   -1    0    0    0    0 -0.00000000000E+00 -0.00000000000E+00 -0.10000000000E+04  0.10000000000E+04  0.00000000000E+00 0.  1.
    9000005    2    1    2  501    0  0.34214835462E+02 -0.23419892821E+02 -0.81659642748E+03  0.81765624486E+03  0.35865073710E+01 0.  0.
         13    1    3    3    0    0  0.23127398994E+01 -0.72424105218E+00 -0.39652542808E+02  0.39726533225E+02  0.00000000000E+00 0.  1.
          3    1    3    3  501    0  0.31902095562E+02 -0.22695651769E+02 -0.77694388467E+03  0.77792971163E+03  0.00000000000E+00 0.  1.
         -3    1    1    2    0  502 -0.34214835462E+02  0.23419892821E+02 -0.18052348077E+03  0.18522384689E+03  0.00000000000E+00 0. -1.
<mgrwt>
<rscale>  1 0.30000000E+03</rscale>
<asrwt>0</asrwt>
<pdfrwt beam="1">  1       21 0.10473083E-01 0.30000000E+03</pdfrwt>
<pdfrwt beam="2">0</pdfrwt>
<totfact> 0.79202241E+03</totfact>
</mgrwt>
</event>
<event>
 6    1  0.1270461E-001  0.3000000E+03  0.7818608E-02  0.1093470E+00
         21   -1    0    0  501  502  0.00000000000E+00  0.00000000000E+00  0.15940143049E+01  0.15940143049E+01  0.00000000000E+00 0. -1.
         13   -1    0    0    0    0 -0.00000000000E+00 -0.00000000000E+00 -0.10000000000E+04  0.10000000000E+04  0.00000000000E+00 0.  1.
    9000005    2    1    2  501    0 -0.29875651432E+02 -0.25600880584E+02 -0.42244001114E+03  0.42428580937E+03  0.38633391113E+01 0.  0.
         13    1    3    3    0    0 -0.25708889999E+02 -0.23607033490E+02 -0.37616918706E+03  0.37778498692E+03  0.00000000000E+00 0.  1.
          3    1    3    3  501    0 -0.41667614329E+01 -0.19938470938E+01 -0.46270824085E+02  0.46500822450E+02  0.00000000000E+00 0.  1.
         -1    1    1    2    0  502  0.29875651432E+02  0.25600880584E+02 -0.57596597456E+03  0.57730820493E+03  0.00000000000E+00 0. -1.
<mgrwt>
<rscale>  1 0.30000000E+03</rscale>
<asrwt>0</asrwt>
<pdfrwt beam="1">  1       21 0.57964279E-02 0.30000000E+03</pdfrwt>
<pdfrwt beam="2">0</pdfrwt>
<totfact> 0.22363286E+04</totfact>
</mgrwt>
</event>
<event>
 6    1  0.1270461E-001  0.3000000E+03  0.7818608E-02  0.1093470E+00
         21   -1    0    0  501  502  0.00000000000E+00  0.00000000000E+00  0.13773894346E+01  0.13773894346E+01  0.00000000000E+00 0. -1.
         13   -1    0    0    0    0 -0.00000000000E+00 -0.00000000000E+00 -0.10000000000E+04  0.10000000000E+04  0.00000000000E+00 0.  1.
    9000005    2    1    2  501    0  0.21462571916E+02 -0.21752276669E+02 -0.77725396128E+03  0.77790953398E+03  0.92584665773E+01 0.  0.
         13    1    3    3    0    0  0.22848311622E+01 -0.10280142663E+01 -0.24860829154E+02  0.24986758353E+02  0.00000000000E+00 0.  1.
          3    1    3    3  501    0  0.19177740753E+02 -0.20724262403E+02 -0.75239313212E+03  0.75292277563E+03  0.00000000000E+00 0.  1.
         -3    1    1    2    0  502 -0.21462571916E+02  0.21752276669E+02 -0.22136864929E+03  0.22346785545E+03  0.00000000000E+00 0. -1.
<mgrwt>
<rscale>  1 0.30000000E+03</rscale>
<asrwt>0</asrwt>
<pdfrwt beam="1">  1       21 0.50086994E-02 0.30000000E+03</pdfrwt>
<pdfrwt beam="2">0</pdfrwt>
<totfact> 0.28719417E+04</totfact>
</mgrwt>
</event>
<event>
 6    1  0.1270461E-001  0.3000000E+03  0.7818608E-02  0.1093470E+00
         21   -1    0    0  501  502  0.00000000000E+00  0.00000000000E+00  0.22789451037E+01  0.22789451037E+01  0.00000000000E+00 0. -1.
         13   -1    0    0    0    0 -0.00000000000E+00 -0.00000000000E+00 -0.10000000000E+04  0.10000000000E+04  0.00000000000E+00 0.  1.
    9000005    2    1    2  501    0 -0.24363920602E+02 -0.21088461778E+02 -0.86840429214E+03  0.86900798436E+03  0.32462948403E+01 0.  0.
         13    1    3    3    0    0 -0.23220260200E+02 -0.20670387749E+02 -0.82182118238E+03  0.82240896227E+03  0.00000000000E+00 0.  1.
          3    1    3    3  501    0 -0.11436604022E+01 -0.41807402843E+00 -0.46583109762E+02  0.46599022094E+02  0.00000000000E+00 0.  1.
         -3    1    1    2    0  502  0.24363920602E+02  0.21088461778E+02 -0.12931676275E+03  0.13327096074E+03  0.00000000000E+00 0. -1.
<mgrwt>
<rscale>  1 0.30000000E+03</rscale>
<asrwt>0</asrwt>
<pdfrwt beam="1">  1       21 0.82870906E-02 0.30000000E+03</pdfrwt>
<pdfrwt beam="2">0</pdfrwt>
<totfact> 0.12006018E+04</totfact>
</mgrwt>
</event>
<event>
 6    1  0.1270461E-001  0.3000000E+03  0.7818608E-02  0.1093470E+00
         21   -1    0    0  501  502  0.00000000000E+00  0.00000000000E+00  0.69265729445E+01  0.69265729445E+01  0.00000000000E+00 0. -1.
         13   -1    0    0    0    0 -0.00000000000E+00 -0.00000000000E+00 -0.10000000000E+04  0.10000000000E+04  0.00000000000E+00 0.  1.
    9000005    2    1    2  501    0 -0.41328301360E+02 -0.64667703709E+02 -0.69094613744E+03  0.69520419722E+03  0.35171855496E+01 0.  0.
         13    1    3    3    0    0 -0.37728179253E+02 -0.60418337433E+02 -0.63588986766E+03  0.63986695086E+03  0.00000000000E+00 0.  1.
          1    1    3    3  501    0 -0.36001221073E+01 -0.42493662760E+01 -0.55056269782E+02  0.55337246365E+02  0.00000000000E+00 0.  1.
         -3    1    1    2    0  502  0.41328301360E+02  0.64667703709E+02 -0.30212728962E+03  0.31172237572E+03  0.00000000000E+00 0. -1.
<mgrwt>
<rscale>  1 0.30000000E+03</rscale>
<asrwt>0</asrwt>
<pdfrwt beam="1">  1       21 0.25187591E-01 0.30000000E+03</pdfrwt>
<pdfrwt beam="2">0</pdfrwt>
<totfact> 0.15369309E+03</totfact>
</mgrwt>
</event>
<event>
 6    1  0.1270461E-001  0.3000000E+03  0.7818608E-02  0.1093470E+00
         21   -1    0    0  501  502  0.00000000000E+00  0.00000000000E+00  0.27896077604E+01  0.27896077604E+01  0.00000000000E+00 0. -1.
         13   -1    0    0    0    0 -0.00000000000E+00 -0.00000000000E+00 -0.10000000000E+04  0.10000000000E+04  0.00000000000E+00 0.  1.
    9000005    2    1    2  501    0  0.29150887627E+02 -0.35668050860E+02 -0.74344891514E+03  0.74488095850E+03  0.30608523573E+01 0.  0.
         13    1    3    3    0    0  0.20893595739E+01 -0.38245358037E+01 -0.76774869019E+02  0.76898459090E+02  0.00000000000E+00 0.  1.
          1    1    3    3  501    0  0.27061528053E+02 -0.31843515056E+02 -0.66667404612E+03  0.66798249941E+03  0.00000000000E+00 0.  1.
         -3    1    1    2    0  502 -0.29150887627E+02  0.35668050860E+02 -0.25376147710E+03  0.25790864926E+03  0.00000000000E+00 0. -1.
<mgrwt>
<rscale>  1 0.30000000E+03</rscale>
<asrwt>0</asrwt>
<pdfrwt beam="1">  1       21 0.10144050E-01 0.30000000E+03</pdfrwt>
<pdfrwt beam="2">0</pdfrwt>
<totfact> 0.83860297E+03</totfact>
</mgrwt>
</event>
<event>
 6    1  0.1270461E-001  0.3000000E+03  0.7818608E-02  0.1093470E+00
         21   -1    0    0  501  502  0.00000000000E+00  0.00000000000E+00  0.15341423118E+01  0.15341423118E+01  0.00000000000E+00 0. -1.
         13   -1    0    0    0    0 -0.00000000000E+00 -0.00000000000E+00 -0.10000000000E+04  0.10000000000E+04  0.00000000000E+00 0.  1.
    9000005    2    1    2  501    0 -0.22810687624E+02  0.22123113625E+02 -0.79132744319E+03  0.79197249890E+03  0.33995662332E+01 0.  0.
         13    1    3    3    0    0 -0.18572760441E+02  0.17800625321E+02 -0.67083621605E+03  0.67132930701E+03  0.00000000000E+00 0.  1.
          1    1    3    3  501    0 -0.42379271824E+01  0.43224883040E+01 -0.12049122714E+03  0.12064319189E+03  0.00000000000E+00 0.  1.
         -3    1    1    2    0  502  0.22810687624E+02 -0.22123113625E+02 -0.20713841450E+03  0.20956164341E+03  0.00000000000E+00 0. -1.
<mgrwt>
<rscale>  1 0.30000000E+03</rscale>
<asrwt>0</asrwt>
<pdfrwt beam="1">  1       21 0.55787111E-02 0.30000000E+03</pdfrwt>
<pdfrwt beam="2">0</pdfrwt>
<totfact> 0.23884732E+04</totfact>
</mgrwt>
</event>
<event>
 6    1  0.1270461E-001  0.3000000E+03  0.7818608E-02  0.1093470E+00
         21   -1    0    0  501  502  0.00000000000E+00  0.00000000000E+00  0.62026234034E+01  0.62026234034E+01  0.00000000000E+00 0. -1.
         13   -1    0    0    0    0 -0.00000000000E+00 -0.00000000000E+00 -0.10000000000E+04  0.10000000000E+04  0.00000000000E+00 0.  1.
    9000005    2    1    2  501    0 -0.41380658493E+02 -0.10170425768E+01 -0.92486063013E+03  0.92579324406E+03  0.35429239120E+01 0.  0.
         13    1    3    3    0    0 -0.11143632753E+02  0.11878907854E+01 -0.23693062411E+03  0.23719551487E+03  0.00000000000E+00 0.  1.
          1    1    3    3  501    0 -0.30237025740E+02 -0.22049333622E+01 -0.68793000603E+03  0.68859772919E+03  0.00000000000E+00 0.  1.
         -3    1    1    2    0  502  0.41380658493E+02  0.10170425768E+01 -0.68936746465E+02  0.80409379342E+02  0.00000000000E+00 0. -1.
<mgrwt>
<rscale>  1 0.30000000E+03</rscale>
<asrwt>0</asrwt>
<pdfrwt beam="1">  1       21 0.22555042E-01 0.30000000E+03</pdfrwt>
<pdfrwt beam="2">0</pdfrwt>
<totfact> 0.19048574E+03</totfact>
</mgrwt>
</event>
<event>
 6    1  0.1270461E-001  0.3000000E+03  0.7818608E-02  0.1093470E+00
         21   -1    0    0  501  502  0.00000000000E+00  0.00000000000E+00  0.61614786564E+01  0.61614786564E+01  0.00000000000E+00 0. -1.
         13   -1    0    0    0    0 -0.00000000000E+00 -0.00000000000E+00 -0.10000000000E+04  0.10000000000E+04  0.00000000000E+00 0.  1.
    9000005    2    1    2  501    0 -0.45748856227E+02  0.27355462912E+02 -0.86575681090E+03  0.86743079082E+03  0.77486803329E+01 0.  0.
         13    1    3    3    0    0 -0.37471917127E+01  0.21326453225E+01 -0.11233236308E+03  0.11241507647E+03  0.00000000000E+00 0.  1.
          3    1    3    3  501    0 -0.42001664514E+02  0.25222817590E+02 -0.75342444782E+03  0.75501571435E+03  0.00000000000E+00 0.  1.
         -3    1    1    2    0  502  0.45748856227E+02 -0.27355462912E+02 -0.12808171044E+03  0.13873068784E+03  0.00000000000E+00 0. -1.
<mgrwt>
<rscale>  1 0.30000000E+03</rscale>
<asrwt>0</asrwt>
<pdfrwt beam="1">  1       21 0.22405424E-01 0.30000000E+03</pdfrwt>
<pdfrwt beam="2">0</pdfrwt>
<totfact> 0.19294812E+03</totfact>
</mgrwt>
</event>
<event>
 6    1  0.1270461E-001  0.3000000E+03  0.7818608E-02  0.1093470E+00
         21   -1    0    0  501  502  0.00000000000E+00  0.00000000000E+00  0.13992762444E+01  0.13992762444E+01  0.00000000000E+00 0. -1.
         13   -1    0    0    0    0 -0.00000000000E+00 -0.00000000000E+00 -0.10000000000E+04  0.10000000000E+04  0.00000000000E+00 0.  1.
    9000005    2    1    2  501    0  0.17288473947E+02  0.33021578952E+02 -0.47236583574E+03  0.47384598664E+03  0.33496675121E+01 0.  0.
         13    1    3    3    0    0  0.15345181226E+02  0.28740492911E+02 -0.42520441532E+03  0.42645080060E+03  0.00000000000E+00 0.  1.
          1    1    3    3  501    0  0.19432927214E+01  0.42810860409E+01 -0.47161420419E+02  0.47395186045E+02  0.00000000000E+00 0.  1.
         -3    1    1    2    0  502 -0.17288473947E+02 -0.33021578952E+02 -0.52623488801E+03  0.52755328960E+03  0.00000000000E+00 0. -1.
<mgrwt>
<rscale>  1 0.30000000E+03</rscale>
<asrwt>0</asrwt>
<pdfrwt beam="1">  1       21 0.50882880E-02 0.30000000E+03</pdfrwt>
<pdfrwt beam="2">0</pdfrwt>
<totfact> 0.27957490E+04</totfact>
</mgrwt>
</event>
<event>
 6    1  0.1270461E-001  0.3000000E+03  0.7818608E-02  0.1093470E+00
         21   -1    0    0  501  502  0.00000000000E+00  0.00000000000E+00  0.40129308453E+01  0.40129308453E+01  0.00000000000E+00 0. -1.
         13   -1    0    0    0    0 -0.00000000000E+00 -0.00000000000E+00 -0.10000000000E+04  0.10000000000E+04  0.00000000000E+00 0.  1.
    9000005    2    1    2  501    0 -0.56557994070E+02 -0.16041248502E+02 -0.68380490713E+03  0.68634355770E+03  0.47116703540E+01 0.  0.
         13    1    3    3    0    0 -0.48269225685E+02 -0.15382547268E+02 -0.58903850007E+03  0.59121307113E+03  0.00000000000E+00 0.  1.
          3    1    3    3  501    0 -0.82887683856E+01 -0.65870123440E+00 -0.94766407060E+02  0.95130486573E+02  0.00000000000E+00 0.  1.
         -1    1    1    2    0  502  0.56557994070E+02  0.16041248502E+02 -0.31218216202E+03  0.31766937314E+03  0.00000000000E+00 0. -1.
<mgrwt>
<rscale>  1 0.30000000E+03</rscale>
<asrwt>0</asrwt>
<pdfrwt beam="1">  1       21 0.14592507E-01 0.30000000E+03</pdfrwt>
<pdfrwt beam="2">0</pdfrwt>
<totfact> 0.43330525E+03</totfact>
</mgrwt>
</event>
<event>
 6    1  0.1270461E-001  0.3000000E+03  0.7818608E-02  0.1093470E+00
         21   -1    0    0  501  502  0.00000000000E+00  0.00000000000E+00  0.57664387332E+01  0.57664387332E+01  0.00000000000E+00 0. -1.
         13   -1    0    0    0    0 -0.00000000000E+00 -0.00000000000E+00 -0.10000000000E+04  0.10000000000E+04  0.00000000000E+00 0.  1.
    9000005    2    1    2  501    0 -0.21814016298E+02 -0.72514318857E+02 -0.46121209953E+03  0.46739291002E+03  0.23138362804E+01 0.  0.
         13    1    3    3    0    0 -0.17673488180E+02 -0.55989248348E+02 -0.35406481430E+03  0.35889976433E+03  0.00000000000E+00 0.  1.
          1    1    3    3  501    0 -0.41405281181E+01 -0.16525070510E+02 -0.10714728523E+03  0.10849314568E+03  0.00000000000E+00 0.  1.
         -1    1    1    2    0  502  0.21814016298E+02  0.72514318857E+02 -0.53302146174E+03  0.53837352871E+03  0.00000000000E+00 0. -1.
<mgrwt>
<rscale>  1 0.30000000E+03</rscale>
<asrwt>0</asrwt>
<pdfrwt beam="1">  1       21 0.20968912E-01 0.30000000E+03</pdfrwt>
<pdfrwt beam="2">0</pdfrwt>
<totfact> 0.21916373E+03</totfact>
</mgrwt>
</event>
<event>
 6    1  0.1270461E-001  0.3000000E+03  0.7818608E-02  0.1093470E+00
         21   -1    0    0  501  502  0.00000000000E+00  0.00000000000E+00  0.22220352395E+01  0.22220352395E+01  0.00000000000E+00 0. -1.
         13   -1    0    0    0    0 -0.00000000000E+00 -0.00000000000E+00 -0.10000000000E+04  0.10000000000E+04  0.00000000000E+00 0.  1.
    9000005    2    1    2  501    0  0.35597333108E+02 -0.30762825960E+02 -0.47831739202E+03  0.48063521771E+03  0.30271127890E+01 0.  0.
         13    1    3    3    0    0  0.32204768598E+02 -0.26908019146E+02 -0.43228593541E+03  0.43431822270E+03  0.00000000000E+00 0.  1.
          1    1    3    3  501    0  0.33925645101E+01 -0.38548068142E+01 -0.46031456606E+02  0.46316995010E+02  0.00000000000E+00 0.  1.
         -1    1    1    2    0  502 -0.35597333108E+02  0.30762825960E+02 -0.51946057274E+03  0.52158681753E+03  0.00000000000E+00 0. -1.
<mgrwt>
<rscale>  1 0.30000000E+03</rscale>
<asrwt>0</asrwt>
<pdfrwt beam="1">  1       21 0.80801452E-02 0.30000000E+03</pdfrwt>
<pdfrwt beam="2">0</pdfrwt>
<totfact> 0.12552096E+04</totfact>
</mgrwt>
</event>
<event>
 6    1  0.1270461E-001  0.3000000E+03  0.7818608E-02  0.1093470E+00
         21   -1    0    0  501  502  0.00000000000E+00  0.00000000000E+00  0.11815561539E+01  0.11815561539E+01  0.00000000000E+00 0. -1.
         13   -1    0    0    0    0 -0.00000000000E+00 -0.00000000000E+00 -0.10000000000E+04  0.10000000000E+04  0.00000000000E+00 0.  1.
    9000005    2    1    2  501    0  0.95829927147E+01  0.30430089995E+02 -0.68321990803E+03  0.68397458912E+03  0.37378744014E+01 0.  0.
         13    1    3    3    0    0  0.29654860383E+01  0.88291492878E+01 -0.16530789748E+03  0.16557007264E+03  0.00000000000E+00 0.  1.
          3    1    3    3  501    0  0.66175066763E+01  0.21600940707E+02 -0.51791201055E+03  0.51840451648E+03  0.00000000000E+00 0.  1.
         -1    1    1    2    0  502 -0.95829927147E+01 -0.30430089995E+02 -0.31559853582E+03  0.31720696704E+03  0.00000000000E+00 0. -1.
<mgrwt>
<rscale>  1 0.30000000E+03</rscale>
<asrwt>0</asrwt>
<pdfrwt beam="1">  1       21 0.42965769E-02 0.30000000E+03</pdfrwt>
<pdfrwt beam="2">0</pdfrwt>
<totfact> 0.37266902E+04</totfact>
</mgrwt>
</event>
<event>
 6    1  0.1270461E-001  0.3000000E+03  0.7818608E-02  0.1093470E+00
         21   -1    0    0  501  502  0.00000000000E+00  0.00000000000E+00  0.14928372285E+01  0.14928372285E+01  0.00000000000E+00 0. -1.
         13   -1    0    0    0    0 -0.00000000000E+00 -0.00000000000E+00 -0.10000000000E+04  0.10000000000E+04  0.00000000000E+00 0.  1.
    9000005    2    1    2  501    0  0.26703952229E+02 -0.19948648449E+02 -0.75146630197E+03  0.75221340257E+03  0.35143086640E+01 0.  0.
         13    1    3    3    0    0  0.13924003723E+02 -0.11855311998E+02 -0.38175749532E+03  0.38219525316E+03  0.00000000000E+00 0.  1.
          1    1    3    3  501    0  0.12779948506E+02 -0.80933364515E+01 -0.36970880665E+03  0.37001814941E+03  0.00000000000E+00 0.  1.
         -3    1    1    2    0  502 -0.26703952229E+02  0.19948648449E+02 -0.24704086080E+03  0.24927943466E+03  0.00000000000E+00 0. -1.
<mgrwt>
<rscale>  1 0.30000000E+03</rscale>
<asrwt>0</asrwt>
<pdfrwt beam="1">  1       21 0.54285105E-02 0.30000000E+03</pdfrwt>
<pdfrwt beam="2">0</pdfrwt>
<totfact> 0.25029131E+04</totfact>
</mgrwt>
</event>
<event>
 6    1  0.1270461E-001  0.3000000E+03  0.7818608E-02  0.1093470E+00
         21   -1    0    0  501  502  0.00000000000E+00  0.00000000000E+00  0.12863491726E+02  0.12863491726E+02  0.00000000000E+00 0. -1.
         13   -1    0    0    0    0 -0.00000000000E+00 -0.00000000000E+00 -0.10000000000E+04  0.10000000000E+04  0.00000000000E+00 0.  1.
    9000005    2    1    2  501    0 -0.35952869975E+02 -0.27791947777E+02 -0.95756206114E+03  0.95864496036E+03  0.31714129187E+01 0.  0.
         13    1    3    3    0    0 -0.27897457305E+02 -0.22774936242E+02 -0.77539658672E+03  0.77623246037E+03  0.00000000000E+00 0.  1.
          3    1    3    3  501    0 -0.80554126702E+01 -0.50170115353E+01 -0.18216547442E+03  0.18241249998E+03  0.00000000000E+00 0.  1.
         -3    1    1    2    0  502  0.35952869975E+02  0.27791947777E+02 -0.29574447132E+02  0.54218531369E+02  0.00000000000E+00 0. -1.
<mgrwt>
<rscale>  1 0.30000000E+03</rscale>
<asrwt>0</asrwt>
<pdfrwt beam="1">  1       21 0.46776432E-01 0.30000000E+03</pdfrwt>
<pdfrwt beam="2">0</pdfrwt>
<totfact> 0.43372370E+02</totfact>
</mgrwt>
</event>
<event>
 6    1  0.1270461E-001  0.3000000E+03  0.7818608E-02  0.1093470E+00
         21   -1    0    0  501  502  0.00000000000E+00  0.00000000000E+00  0.63848247389E+01  0.63848247389E+01  0.00000000000E+00 0. -1.
         13   -1    0    0    0    0 -0.00000000000E+00 -0.00000000000E+00 -0.10000000000E+04  0.10000000000E+04  0.00000000000E+00 0.  1.
    9000005    2    1    2  501    0  0.52593976334E+02  0.45645038091E+02 -0.74324137428E+03  0.74650670702E+03  0.38635918794E+01 0.  0.
         13    1    3    3    0    0  0.24669987113E+02  0.19156321817E+02 -0.34251028776E+03  0.34393149049E+03  0.00000000000E+00 0.  1.
          3    1    3    3  501    0  0.27923989221E+02  0.26488716274E+02 -0.40073108652E+03  0.40257521654E+03  0.00000000000E+00 0.  1.
         -3    1    1    2    0  502 -0.52593976334E+02 -0.45645038091E+02 -0.25037380098E+03  0.25987811772E+03  0.00000000000E+00 0. -1.
<mgrwt>
<rscale>  1 0.30000000E+03</rscale>
<asrwt>0</asrwt>
<pdfrwt beam="1">  1       21 0.23217593E-01 0.30000000E+03</pdfrwt>
<pdfrwt beam="2">0</pdfrwt>
<totfact> 0.18011425E+03</totfact>
</mgrwt>
</event>
<event>
 6    1  0.1270461E-001  0.3000000E+03  0.7818608E-02  0.1093470E+00
         21   -1    0    0  501  502  0.00000000000E+00  0.00000000000E+00  0.13595736452E+01  0.13595736452E+01  0.00000000000E+00 0. -1.
         13   -1    0    0    0    0 -0.00000000000E+00 -0.00000000000E+00 -0.10000000000E+04  0.10000000000E+04  0.00000000000E+00 0.  1.
    9000005    2    1    2  501    0 -0.24941756449E+02  0.25941631222E+02 -0.60009784232E+03  0.60119554386E+03  0.48582048285E+01 0.  0.
         13    1    3    3    0    0 -0.12387593516E+02  0.16357045388E+02 -0.34029922946E+03  0.34091724946E+03  0.00000000000E+00 0.  1.
          1    1    3    3  501    0 -0.12554162933E+02  0.95845858341E+01 -0.25979861286E+03  0.26027829440E+03  0.00000000000E+00 0.  1.
         -1    1    1    2    0  502  0.24941756449E+02 -0.25941631222E+02 -0.39854258403E+03  0.40016402978E+03  0.00000000000E+00 0. -1.
<mgrwt>
<rscale>  1 0.30000000E+03</rscale>
<asrwt>0</asrwt>
<pdfrwt beam="1">  1       21 0.49439146E-02 0.30000000E+03</pdfrwt>
<pdfrwt beam="2">0</pdfrwt>
<totfact> 0.29363777E+04</totfact>
</mgrwt>
</event>
<event>
 6    1  0.1270461E-001  0.3000000E+03  0.7818608E-02  0.1093470E+00
         21   -1    0    0  501  502  0.00000000000E+00  0.00000000000E+00  0.18637538144E+01  0.18637538144E+01  0.00000000000E+00 0. -1.
         13   -1    0    0    0    0 -0.00000000000E+00 -0.00000000000E+00 -0.10000000000E+04  0.10000000000E+04  0.00000000000E+00 0.  1.
    9000005    2    1    2  501    0 -0.28314713703E+02  0.20706434667E+02 -0.79064004153E+03  0.79142337177E+03  0.29662542047E+01 0.  0.
         13    1    3    3    0    0 -0.21043569717E+02  0.16357323730E+02 -0.57654380386E+03  0.57715955475E+03  0.00000000000E+00 0.  1.
          3    1    3    3  501    0 -0.72711439856E+01  0.43491109377E+01 -0.21409623767E+03  0.21426381702E+03  0.00000000000E+00 0.  1.
         -3    1    1    2    0  502  0.28314713703E+02 -0.20706434667E+02 -0.20749620466E+03  0.21044038205E+03  0.00000000000E+00 0. -1.
<mgrwt>
<rscale>  1 0.30000000E+03</rscale>
<asrwt>0</asrwt>
<pdfrwt beam="1">  1       21 0.67773009E-02 0.30000000E+03</pdfrwt>
<pdfrwt beam="2">0</pdfrwt>
<totfact> 0.17067999E+04</totfact>
</mgrwt>
</event>
<event>
 6    1  0.1270461E-001  0.3000000E+03  0.7818608E-02  0.1093470E+00
         21   -1    0    0  501  502  0.00000000000E+00  0.00000000000E+00  0.50982649767E+01  0.50982649767E+01  0.00000000000E+00 0. -1.
         13   -1    0    0    0    0 -0.00000000000E+00 -0.00000000000E+00 -0.10000000000E+04  0.10000000000E+04  0.00000000000E+00 0.  1.
    9000005    2    1    2  501    0  0.61782563008E+02  0.26622444335E+02 -0.33040452296E+03  0.33720427303E+03  0.37058501217E+01 0.  0.
         13    1    3    3    0    0  0.59364144266E+02  0.26308636957E+02 -0.31765150430E+03  0.32422017856E+03  0.00000000000E+00 0.  1.
          3    1    3    3  501    0  0.24184187425E+01  0.31380737854E+00 -0.12753018659E+02  0.12984094469E+02  0.00000000000E+00 0.  1.
         -1    1    1    2    0  502 -0.61782563008E+02 -0.26622444335E+02 -0.66449721207E+03  0.66789399195E+03  0.00000000000E+00 0. -1.
<mgrwt>
<rscale>  1 0.30000000E+03</rscale>
<asrwt>0</asrwt>
<pdfrwt beam="1">  1       21 0.18539184E-01 0.30000000E+03</pdfrwt>
<pdfrwt beam="2">0</pdfrwt>
<totfact> 0.27708941E+03</totfact>
</mgrwt>
</event>
<event>
 6    1  0.1270461E-001  0.3000000E+03  0.7818608E-02  0.1093470E+00
         21   -1    0    0  501  502  0.00000000000E+00  0.00000000000E+00  0.31362875337E+01  0.31362875337E+01  0.00000000000E+00 0. -1.
         13   -1    0    0    0    0 -0.00000000000E+00 -0.00000000000E+00 -0.10000000000E+04  0.10000000000E+04  0.00000000000E+00 0.  1.
    9000005    2    1    2  501    0  0.32971038340E+02 -0.19871728533E+02 -0.86246034502E+03  0.86332841886E+03  0.40171012995E+01 0.  0.
         13    1    3    3    0    0  0.15071643929E+02 -0.98389481570E+01 -0.44559777299E+03  0.44596113580E+03  0.00000000000E+00 0.  1.
          3    1    3    3  501    0  0.17899394411E+02 -0.10032780376E+02 -0.41686257204E+03  0.41736728306E+03  0.00000000000E+00 0.  1.
         -3    1    1    2    0  502 -0.32971038340E+02  0.19871728533E+02 -0.13440336744E+03  0.13980786868E+03  0.00000000000E+00 0. -1.
<mgrwt>
<rscale>  1 0.30000000E+03</rscale>
<asrwt>0</asrwt>
<pdfrwt beam="1">  1       21 0.11404706E-01 0.30000000E+03</pdfrwt>
<pdfrwt beam="2">0</pdfrwt>
<totfact> 0.67948919E+03</totfact>
</mgrwt>
</event>
<event>
 6    1  0.1270461E-001  0.3000000E+03  0.7818608E-02  0.1093470E+00
         21   -1    0    0  501  502  0.00000000000E+00  0.00000000000E+00  0.13588893788E+01  0.13588893788E+01  0.00000000000E+00 0. -1.
         13   -1    0    0    0    0 -0.00000000000E+00 -0.00000000000E+00 -0.10000000000E+04  0.10000000000E+04  0.00000000000E+00 0.  1.
    9000005    2    1    2  501    0 -0.93659651143E+01  0.35496328807E+02 -0.53506201786E+03  0.53632847542E+03  0.30265374246E+01 0.  0.
         13    1    3    3    0    0 -0.41658658798E-01  0.94749207978E-01 -0.35717375665E+00  0.37186818727E+00  0.00000000000E+00 0.  1.
          3    1    3    3  501    0 -0.93243064555E+01  0.35401579599E+02 -0.53470484410E+03  0.53595660723E+03  0.00000000000E+00 0.  1.
         -1    1    1    2    0  502  0.93659651143E+01 -0.35496328807E+02 -0.46357909277E+03  0.46503041396E+03  0.00000000000E+00 0. -1.
<mgrwt>
<rscale>  1 0.30000000E+03</rscale>
<asrwt>0</asrwt>
<pdfrwt beam="1">  1       21 0.49414263E-02 0.30000000E+03</pdfrwt>
<pdfrwt beam="2">0</pdfrwt>
<totfact> 0.29388974E+04</totfact>
</mgrwt>
</event>
<event>
 6    1  0.1270461E-001  0.3000000E+03  0.7818608E-02  0.1093470E+00
         21   -1    0    0  501  502  0.00000000000E+00  0.00000000000E+00  0.12738995472E+01  0.12738995472E+01  0.00000000000E+00 0. -1.
         13   -1    0    0    0    0 -0.00000000000E+00 -0.00000000000E+00 -0.10000000000E+04  0.10000000000E+04  0.00000000000E+00 0.  1.
    9000005    2    1    2  501    0  0.30883292145E+02 -0.65372971611E+01 -0.73190430448E+03  0.73259121534E+03  0.30763428938E+01 0.  0.
         13    1    3    3    0    0  0.22740940965E+01 -0.53082877798E+00 -0.38271827152E+02  0.38343005056E+02  0.00000000000E+00 0.  1.
          1    1    3    3  501    0  0.28609198049E+02 -0.60064683831E+01 -0.69363247733E+03  0.69424821028E+03  0.00000000000E+00 0.  1.
         -1    1    1    2    0  502 -0.30883292145E+02  0.65372971611E+01 -0.26682179597E+03  0.26868268421E+03  0.00000000000E+00 0. -1.
<mgrwt>
<rscale>  1 0.30000000E+03</rscale>
<asrwt>0</asrwt>
<pdfrwt beam="1">  1       21 0.46323718E-02 0.30000000E+03</pdfrwt>
<pdfrwt beam="2">0</pdfrwt>
<totfact> 0.32802581E+04</totfact>
</mgrwt>
</event>
<event>
 6    1  0.1270461E-001  0.3000000E+03  0.7818608E-02  0.1093470E+00
         21   -1    0    0  501  502  0.00000000000E+00  0.00000000000E+00  0.19160885226E+01  0.19160885226E+01  0.00000000000E+00 0. -1.
         13   -1    0    0    0    0 -0.00000000000E+00 -0.00000000000E+00 -0.10000000000E+04  0.10000000000E+04  0.00000000000E+00 0.  1.
    9000005    2    1    2  501    0 -0.28908511644E+02  0.28464476716E+02 -0.31426604599E+03  0.31689579565E+03  0.37241323280E+01 0.  0.
         13    1    3    3    0    0 -0.22675432635E+02  0.20449097781E+02 -0.22866407781E+03  0.23069373924E+03  0.00000000000E+00 0.  1.
          3    1    3    3  501    0 -0.62330790091E+01  0.80153789347E+01 -0.85601968177E+02  0.86202056410E+02  0.00000000000E+00 0.  1.
         -1    1    1    2    0  502  0.28908511644E+02 -0.28464476716E+02 -0.68381786549E+03  0.68502029287E+03  0.00000000000E+00 0. -1.
<mgrwt>
<rscale>  1 0.30000000E+03</rscale>
<asrwt>0</asrwt>
<pdfrwt beam="1">  1       21 0.69676093E-02 0.30000000E+03</pdfrwt>
<pdfrwt beam="2">0</pdfrwt>
<totfact> 0.16266027E+04</totfact>
</mgrwt>
</event>
<event>
 6    1  0.1270461E-001  0.3000000E+03  0.7818608E-02  0.1093470E+00
         21   -1    0    0  501  502  0.00000000000E+00  0.00000000000E+00  0.14117446187E+01  0.14117446187E+01  0.00000000000E+00 0. -1.
         13   -1    0    0    0    0 -0.00000000000E+00 -0.00000000000E+00 -0.10000000000E+04  0.10000000000E+04  0.00000000000E+00 0.  1.
    9000005    2    1    2  501    0  0.21348494454E+02 -0.28406238955E+02 -0.65961310794E+03  0.66057920039E+03  0.35714402910E+01 0.  0.
         13    1    3    3    0    0  0.77760259138E+01 -0.86032095107E+01 -0.19138881439E+03  0.19173982389E+03  0.00000000000E+00 0.  1.
          1    1    3    3  501    0  0.13572468540E+02 -0.19803029445E+02 -0.46822429355E+03  0.46883937649E+03  0.00000000000E+00 0.  1.
         -1    1    1    2    0  502 -0.21348494454E+02  0.28406238955E+02 -0.33897514744E+03  0.34083254423E+03  0.00000000000E+00 0. -1.
<mgrwt>
<rscale>  1 0.30000000E+03</rscale>
<asrwt>0</asrwt>
<pdfrwt beam="1">  1       21 0.51336276E-02 0.30000000E+03</pdfrwt>
<pdfrwt beam="2">0</pdfrwt>
<totfact> 0.27537400E+04</totfact>
</mgrwt>
</event>
<event>
 6    1  0.1270461E-001  0.3000000E+03  0.7818608E-02  0.1093470E+00
         21   -1    0    0  501  502  0.00000000000E+00  0.00000000000E+00  0.18419831133E+01  0.18419831133E+01  0.00000000000E+00 0. -1.
         13   -1    0    0    0    0 -0.00000000000E+00 -0.00000000000E+00 -0.10000000000E+04  0.10000000000E+04  0.00000000000E+00 0.  1.
    9000005    2    1    2  501    0 -0.14034600338E+02  0.29546876677E+02 -0.82292162391E+03  0.82357874700E+03  0.34591147094E+01 0.  0.
         13    1    3    3    0    0 -0.10957396311E+02  0.19293949074E+02 -0.55503835708E+03  0.55548168182E+03  0.00000000000E+00 0.  1.
          1    1    3    3  501    0 -0.30772040272E+01  0.10252927603E+02 -0.26788326683E+03  0.26809706517E+03  0.00000000000E+00 0.  1.
         -3    1    1    2    0  502  0.14034600338E+02 -0.29546876677E+02 -0.17523639298E+03  0.17826323612E+03  0.00000000000E+00 0. -1.
<mgrwt>
<rscale>  1 0.30000000E+03</rscale>
<asrwt>0</asrwt>
<pdfrwt beam="1">  1       21 0.66981345E-02 0.30000000E+03</pdfrwt>
<pdfrwt beam="2">0</pdfrwt>
<totfact> 0.17419593E+04</totfact>
</mgrwt>
</event>
<event>
 6    1  0.1270461E-001  0.3000000E+03  0.7818608E-02  0.1093470E+00
         21   -1    0    0  501  502  0.00000000000E+00  0.00000000000E+00  0.15187406910E+01  0.15187406910E+01  0.00000000000E+00 0. -1.
         13   -1    0    0    0    0 -0.00000000000E+00 -0.00000000000E+00 -0.10000000000E+04  0.10000000000E+04  0.00000000000E+00 0.  1.
    9000005    2    1    2  501    0 -0.43765736737E+01  0.32796839606E+02 -0.76262769126E+03  0.76335557677E+03  0.39942497665E+01 0.  0.
         13    1    3    3    0    0 -0.18117501386E+01  0.10193564036E+02 -0.19925761934E+03  0.19952641442E+03  0.00000000000E+00 0.  1.
          1    1    3    3  501    0 -0.25648235351E+01  0.22603275569E+02 -0.56337007192E+03  0.56382916236E+03  0.00000000000E+00 0.  1.
         -1    1    1    2    0  502  0.43765736737E+01 -0.32796839606E+02 -0.23585356805E+03  0.23816316392E+03  0.00000000000E+00 0. -1.
<mgrwt>
<rscale>  1 0.30000000E+03</rscale>
<asrwt>0</asrwt>
<pdfrwt beam="1">  1       21 0.55227051E-02 0.30000000E+03</pdfrwt>
<pdfrwt beam="2">0</pdfrwt>
<totfact> 0.24301848E+04</totfact>
</mgrwt>
</event>
<event>
 6    1  0.1270461E-001  0.3000000E+03  0.7818608E-02  0.1093470E+00
         21   -1    0    0  501  502  0.00000000000E+00  0.00000000000E+00  0.34508124614E+01  0.34508124614E+01  0.00000000000E+00 0. -1.
         13   -1    0    0    0    0 -0.00000000000E+00 -0.00000000000E+00 -0.10000000000E+04  0.10000000000E+04  0.00000000000E+00 0.  1.
    9000005    2    1    2  501    0 -0.18448956592E+02 -0.32157506931E+02 -0.88706883777E+03  0.88786354570E+03  0.60069621022E+01 0.  0.
         13    1    3    3    0    0 -0.68257385989E+01 -0.16895754802E+02 -0.39246645856E+03  0.39288926981E+03  0.00000000000E+00 0.  1.
          1    1    3    3  501    0 -0.11623217993E+02 -0.15261752128E+02 -0.49460237921E+03  0.49497427589E+03  0.00000000000E+00 0.  1.
         -1    1    1    2    0  502  0.18448956592E+02  0.32157506931E+02 -0.10948034977E+03  0.11558726676E+03  0.00000000000E+00 0. -1.
<mgrwt>
<rscale>  1 0.30000000E+03</rscale>
<asrwt>0</asrwt>
<pdfrwt beam="1">  1       21 0.12548435E-01 0.30000000E+03</pdfrwt>
<pdfrwt beam="2">0</pdfrwt>
<totfact> 0.57133034E+03</totfact>
</mgrwt>
</event>
<event>
 6    1  0.1270461E-001  0.3000000E+03  0.7818608E-02  0.1093470E+00
         21   -1    0    0  501  502  0.00000000000E+00  0.00000000000E+00  0.12258300228E+01  0.12258300228E+01  0.00000000000E+00 0. -1.
         13   -1    0    0    0    0 -0.00000000000E+00 -0.00000000000E+00 -0.10000000000E+04  0.10000000000E+04  0.00000000000E+00 0.  1.
    9000005    2    1    2  501    0  0.27549492164E+02 -0.19611971344E+02 -0.62726897015E+03  0.62818465610E+03  0.24489417319E+01 0.  0.
         13    1    3    3    0    0  0.15408483476E+02 -0.99081134197E+01 -0.35524829851E+03  0.35572031945E+03  0.00000000000E+00 0.  1.
          3    1    3    3  501    0  0.12141008688E+02 -0.97038579248E+01 -0.27202067163E+03  0.27246433665E+03  0.00000000000E+00 0.  1.
         -3    1    1    2    0  502 -0.27549492164E+02  0.19611971344E+02 -0.37150519983E+03  0.37304117392E+03  0.00000000000E+00 0. -1.
<mgrwt>
<rscale>  1 0.30000000E+03</rscale>
<asrwt>0</asrwt>
<pdfrwt beam="1">  1       21 0.44575731E-02 0.30000000E+03</pdfrwt>
<pdfrwt beam="2">0</pdfrwt>
<totfact> 0.35016356E+04</totfact>
</mgrwt>
</event>
<event>
 6    1  0.1270461E-001  0.3000000E+03  0.7818608E-02  0.1093470E+00
         21   -1    0    0  501  502  0.00000000000E+00  0.00000000000E+00  0.19951214513E+01  0.19951214513E+01  0.00000000000E+00 0. -1.
         13   -1    0    0    0    0 -0.00000000000E+00 -0.00000000000E+00 -0.10000000000E+04  0.10000000000E+04  0.00000000000E+00 0.  1.
    9000005    2    1    2  501    0  0.15518666468E+02 -0.36017080891E+02 -0.73719436475E+03  0.73825247561E+03  0.48090755360E+01 0.  0.
         13    1    3    3    0    0  0.54650365979E+01 -0.15127747881E+02 -0.26245859269E+03  0.26295099972E+03  0.00000000000E+00 0.  1.
          1    1    3    3  501    0  0.10053629870E+02 -0.20889333010E+02 -0.47473577206E+03  0.47530147589E+03  0.00000000000E+00 0.  1.
         -1    1    1    2    0  502 -0.15518666468E+02  0.36017080891E+02 -0.26081051380E+03  0.26374264584E+03  0.00000000000E+00 0. -1.
<mgrwt>
<rscale>  1 0.30000000E+03</rscale>
<asrwt>0</asrwt>
<pdfrwt beam="1">  1       21 0.72550024E-02 0.30000000E+03</pdfrwt>
<pdfrwt beam="2">0</pdfrwt>
<totfact> 0.15159737E+04</totfact>
</mgrwt>
</event>
<event>
 6    1  0.1270461E-001  0.3000000E+03  0.7818608E-02  0.1093470E+00
         21   -1    0    0  501  502  0.00000000000E+00  0.00000000000E+00  0.12602563387E+01  0.12602563387E+01  0.00000000000E+00 0. -1.
         13   -1    0    0    0    0 -0.00000000000E+00 -0.00000000000E+00 -0.10000000000E+04  0.10000000000E+04  0.00000000000E+00 0.  1.
    9000005    2    1    2  501    0  0.33317260723E+02  0.64740977800E+01 -0.64265031904E+03  0.64355698248E+03  0.37687304074E+01 0.  0.
         13    1    3    3    0    0  0.25435073931E+02  0.56336819794E+01 -0.46378541387E+03  0.46451651367E+03  0.00000000000E+00 0.  1.
          3    1    3    3  501    0  0.78821867920E+01  0.84041580066E+00 -0.17886490518E+03  0.17904046881E+03  0.00000000000E+00 0.  1.
         -3    1    1    2    0  502 -0.33317260723E+02 -0.64740977800E+01 -0.35608942462E+03  0.35770327386E+03  0.00000000000E+00 0. -1.
<mgrwt>
<rscale>  1 0.30000000E+03</rscale>
<asrwt>0</asrwt>
<pdfrwt beam="1">  1       21 0.45827600E-02 0.30000000E+03</pdfrwt>
<pdfrwt beam="2">0</pdfrwt>
<totfact> 0.33408217E+04</totfact>
</mgrwt>
</event>
<event>
 6    1  0.1270461E-001  0.3000000E+03  0.7818608E-02  0.1093470E+00
         21   -1    0    0  501  502  0.00000000000E+00  0.00000000000E+00  0.15509055019E+01  0.15509055019E+01  0.00000000000E+00 0. -1.
         13   -1    0    0    0    0 -0.00000000000E+00 -0.00000000000E+00 -0.10000000000E+04  0.10000000000E+04  0.00000000000E+00 0.  1.
    9000005    2    1    2  501    0  0.35166113592E+02 -0.26132183648E+01 -0.72075023606E+03  0.72162209235E+03  0.37492572712E+01 0.  0.
         13    1    3    3    0    0  0.29343640936E+02 -0.88012126422E+00 -0.60797673861E+03  0.60868508982E+03  0.00000000000E+00 0.  1.
          1    1    3    3  501    0  0.58224726561E+01 -0.17330971006E+01 -0.11277349745E+03  0.11293700253E+03  0.00000000000E+00 0.  1.
         -1    1    1    2    0  502 -0.35166113592E+02  0.26132183648E+01 -0.27769885844E+03  0.27992881315E+03  0.00000000000E+00 0. -1.
<mgrwt>
<rscale>  1 0.30000000E+03</rscale>
<asrwt>0</asrwt>
<pdfrwt beam="1">  1       21 0.56396683E-02 0.30000000E+03</pdfrwt>
<pdfrwt beam="2">0</pdfrwt>
<totfact> 0.23443121E+04</totfact>
</mgrwt>
</event>
<event>
 6    1  0.1270461E-001  0.3000000E+03  0.7818608E-02  0.1093470E+00
         21   -1    0    0  501  502  0.00000000000E+00  0.00000000000E+00  0.25303413192E+01  0.25303413192E+01  0.00000000000E+00 0. -1.
         13   -1    0    0    0    0 -0.00000000000E+00 -0.00000000000E+00 -0.10000000000E+04  0.10000000000E+04  0.00000000000E+00 0.  1.
    9000005    2    1    2  501    0 -0.16753919308E+02 -0.39577016386E+02 -0.75859704951E+03  0.75982237390E+03  0.36772694438E+01 0.  0.
         13    1    3    3    0    0 -0.84498003398E+01 -0.21312934613E+02 -0.37344155409E+03  0.37414467072E+03  0.00000000000E+00 0.  1.
          1    1    3    3  501    0 -0.83041189685E+01 -0.18264081774E+02 -0.38515549542E+03  0.38567770317E+03  0.00000000000E+00 0.  1.
         -1    1    1    2    0  502  0.16753919308E+02  0.39577016386E+02 -0.23887260917E+03  0.24270796742E+03  0.00000000000E+00 0. -1.
<mgrwt>
<rscale>  1 0.30000000E+03</rscale>
<asrwt>0</asrwt>
<pdfrwt beam="1">  1       21 0.92012606E-02 0.30000000E+03</pdfrwt>
<pdfrwt beam="2">0</pdfrwt>
<totfact> 0.99789140E+03</totfact>
</mgrwt>
</event>
<event>
 6    1  0.1270461E-001  0.3000000E+03  0.7818608E-02  0.1093470E+00
         21   -1    0    0  501  502  0.00000000000E+00  0.00000000000E+00  0.51783031239E+01  0.51783031239E+01  0.00000000000E+00 0. -1.
         13   -1    0    0    0    0 -0.00000000000E+00 -0.00000000000E+00 -0.10000000000E+04  0.10000000000E+04  0.00000000000E+00 0.  1.
    9000005    2    1    2  501    0  0.48573667140E+02  0.30254118776E+02 -0.80188403060E+03  0.80393304005E+03  0.39524052621E+01 0.  0.
         13    1    3    3    0    0  0.42452084618E+02  0.25734535734E+02 -0.67733497269E+03  0.67915175848E+03  0.00000000000E+00 0.  1.
          3    1    3    3  501    0  0.61215825216E+01  0.45195830428E+01 -0.12454905791E+03  0.12478128157E+03  0.00000000000E+00 0.  1.
         -1    1    1    2    0  502 -0.48573667140E+02 -0.30254118776E+02 -0.19293766627E+03  0.20124526307E+03  0.00000000000E+00 0. -1.
<mgrwt>
<rscale>  1 0.30000000E+03</rscale>
<asrwt>0</asrwt>
<pdfrwt beam="1">  1       21 0.18830233E-01 0.30000000E+03</pdfrwt>
<pdfrwt beam="2">0</pdfrwt>
<totfact> 0.26904452E+03</totfact>
</mgrwt>
</event>
<event>
 6    1  0.1270461E-001  0.3000000E+03  0.7818608E-02  0.1093470E+00
         21   -1    0    0  501  502  0.00000000000E+00  0.00000000000E+00  0.14949710937E+01  0.14949710937E+01  0.00000000000E+00 0. -1.
         13   -1    0    0    0    0 -0.00000000000E+00 -0.00000000000E+00 -0.10000000000E+04  0.10000000000E+04  0.00000000000E+00 0.  1.
    9000005    2    1    2  501    0 -0.13566709162E+02  0.31852353012E+02 -0.72104714751E+03  0.72188541485E+03  0.33068506421E+01 0.  0.
         13    1    3    3    0    0 -0.67174879778E+01  0.14130820230E+02 -0.35734548635E+03  0.35768785462E+03  0.00000000000E+00 0.  1.
          1    1    3    3  501    0 -0.68492211839E+01  0.17721532783E+02 -0.36370166115E+03  0.36419756023E+03  0.00000000000E+00 0.  1.
         -3    1    1    2    0  502  0.13566709162E+02 -0.31852353012E+02 -0.27745788140E+03  0.27960955624E+03  0.00000000000E+00 0. -1.
<mgrwt>
<rscale>  1 0.30000000E+03</rscale>
<asrwt>0</asrwt>
<pdfrwt beam="1">  1       21 0.54362700E-02 0.30000000E+03</pdfrwt>
<pdfrwt beam="2">0</pdfrwt>
<totfact> 0.24967959E+04</totfact>
</mgrwt>
</event>
<event>
 6    1  0.1270461E-001  0.3000000E+03  0.7818608E-02  0.1093470E+00
         21   -1    0    0  501  502  0.00000000000E+00  0.00000000000E+00  0.69300231800E+01  0.69300231800E+01  0.00000000000E+00 0. -1.
         13   -1    0    0    0    0 -0.00000000000E+00 -0.00000000000E+00 -0.10000000000E+04  0.10000000000E+04  0.00000000000E+00 0.  1.
    9000005    2    1    2  501    0 -0.50782461812E+02  0.14931887905E+02 -0.88504517858E+03  0.88663381900E+03  0.35694777769E+01 0.  0.
         13    1    3    3    0    0 -0.49058533394E+02  0.14538016890E+02 -0.86438430851E+03  0.86589741104E+03  0.00000000000E+00 0.  1.
          3    1    3    3  501    0 -0.17239284180E+01  0.39387101580E+00 -0.20660870065E+02  0.20736407968E+02  0.00000000000E+00 0.  1.
         -1    1    1    2    0  502  0.50782461812E+02 -0.14931887905E+02 -0.10802479824E+03  0.12029620418E+03  0.00000000000E+00 0. -1.
<mgrwt>
<rscale>  1 0.30000000E+03</rscale>
<asrwt>0</asrwt>
<pdfrwt beam="1">  1       21 0.25200137E-01 0.30000000E+03</pdfrwt>
<pdfrwt beam="2">0</pdfrwt>
<totfact> 0.15354318E+03</totfact>
</mgrwt>
</event>
<event>
 6    1  0.1270461E-001  0.3000000E+03  0.7818608E-02  0.1093470E+00
         21   -1    0    0  501  502  0.00000000000E+00  0.00000000000E+00  0.95448661096E+01  0.95448661096E+01  0.00000000000E+00 0. -1.
         13   -1    0    0    0    0 -0.00000000000E+00 -0.00000000000E+00 -0.10000000000E+04  0.10000000000E+04  0.00000000000E+00 0.  1.
    9000005    2    1    2  501    0  0.47567937640E+02 -0.17126363696E+02 -0.92713226157E+03  0.92851519757E+03  0.31969748217E+01 0.  0.
         13    1    3    3    0    0  0.30171382275E+02 -0.12481976178E+02 -0.60018686896E+03  0.60107436288E+03  0.00000000000E+00 0.  1.
          3    1    3    3  501    0  0.17396555365E+02 -0.46443875177E+01 -0.32694539262E+03  0.32744083470E+03  0.00000000000E+00 0.  1.
         -3    1    1    2    0  502 -0.47567937640E+02  0.17126363696E+02 -0.63322872316E+02  0.81029668536E+02  0.00000000000E+00 0. -1.
<mgrwt>
<rscale>  1 0.30000000E+03</rscale>
<asrwt>0</asrwt>
<pdfrwt beam="1">  1       21 0.34708677E-01 0.30000000E+03</pdfrwt>
<pdfrwt beam="2">0</pdfrwt>
<totfact> 0.80950995E+02</totfact>
</mgrwt>
</event>
<event>
 6    1  0.1270461E-001  0.3000000E+03  0.7818608E-02  0.1093470E+00
         21   -1    0    0  501  502  0.00000000000E+00  0.00000000000E+00  0.12462914582E+02  0.12462914582E+02  0.00000000000E+00 0. -1.
         13   -1    0    0    0    0 -0.00000000000E+00 -0.00000000000E+00 -0.10000000000E+04  0.10000000000E+04  0.00000000000E+00 0.  1.
    9000005    2    1    2  501    0 -0.43142396404E+02 -0.46071812097E+02 -0.91130000473E+03  0.91348831830E+03  0.30546380105E+01 0.  0.
         13    1    3    3    0    0 -0.39127652554E+02 -0.42991129211E+02 -0.83748485175E+03  0.83949990309E+03  0.00000000000E+00 0.  1.
          3    1    3    3  501    0 -0.40147438501E+01 -0.30806828858E+01 -0.73815152977E+02  0.73988415203E+02  0.00000000000E+00 0.  1.
         -1    1    1    2    0  502  0.43142396404E+02  0.46071812097E+02 -0.76237080692E+02  0.98974596285E+02  0.00000000000E+00 0. -1.
<mgrwt>
<rscale>  1 0.30000000E+03</rscale>
<asrwt>0</asrwt>
<pdfrwt beam="1">  1       21 0.45319785E-01 0.30000000E+03</pdfrwt>
<pdfrwt beam="2">0</pdfrwt>
<totfact> 0.46404218E+02</totfact>
</mgrwt>
</event>
<event>
 6    1  0.1270461E-001  0.3000000E+03  0.7818608E-02  0.1093470E+00
         21   -1    0    0  501  502  0.00000000000E+00  0.00000000000E+00  0.14268497889E+01  0.14268497889E+01  0.00000000000E+00 0. -1.
         13   -1    0    0    0    0 -0.00000000000E+00 -0.00000000000E+00 -0.10000000000E+04  0.10000000000E+04  0.00000000000E+00 0.  1.
    9000005    2    1    2  501    0  0.30193441732E+02 -0.15509241696E+02 -0.71752810645E+03  0.71833941254E+03  0.35703740406E+01 0.  0.
         13    1    3    3    0    0  0.19062926068E+01 -0.83815128553E+00 -0.29231638222E+02  0.29305718251E+02  0.00000000000E+00 0.  1.
          1    1    3    3  501    0  0.28287149126E+02 -0.14671090411E+02 -0.68829646822E+03  0.68903369429E+03  0.00000000000E+00 0.  1.
         -3    1    1    2    0  502 -0.30193441732E+02  0.15509241696E+02 -0.28104504377E+03  0.28308743725E+03  0.00000000000E+00 0. -1.
<mgrwt>
<rscale>  1 0.30000000E+03</rscale>
<asrwt>0</asrwt>
<pdfrwt beam="1">  1       21 0.51885556E-02 0.30000000E+03</pdfrwt>
<pdfrwt beam="2">0</pdfrwt>
<totfact> 0.27041467E+04</totfact>
</mgrwt>
</event>
<event>
 6    1  0.1270461E-001  0.3000000E+03  0.7818608E-02  0.1093470E+00
         21   -1    0    0  501  502  0.00000000000E+00  0.00000000000E+00  0.13389735370E+01  0.13389735370E+01  0.00000000000E+00 0. -1.
         13   -1    0    0    0    0 -0.00000000000E+00 -0.00000000000E+00 -0.10000000000E+04  0.10000000000E+04  0.00000000000E+00 0.  1.
    9000005    2    1    2  501    0  0.17045768077E+02 -0.29494771320E+02 -0.68008454571E+03  0.68094628662E+03  0.35151380837E+01 0.  0.
         13    1    3    3    0    0  0.17627648952E+01 -0.35791440877E+01 -0.10421849408E+03  0.10429483267E+03  0.00000000000E+00 0.  1.
          1    1    3    3  501    0  0.15283003182E+02 -0.25915627232E+02 -0.57586605163E+03  0.57665145395E+03  0.00000000000E+00 0.  1.
         -3    1    1    2    0  502 -0.17045768077E+02  0.29494771320E+02 -0.31857648075E+03  0.32039268692E+03  0.00000000000E+00 0. -1.
<mgrwt>
<rscale>  1 0.30000000E+03</rscale>
<asrwt>0</asrwt>
<pdfrwt beam="1">  1       21 0.48690049E-02 0.30000000E+03</pdfrwt>
<pdfrwt beam="2">0</pdfrwt>
<totfact> 0.30137376E+04</totfact>
</mgrwt>
</event>
<event>
 6    1  0.1270461E-001  0.3000000E+03  0.7818608E-02  0.1093470E+00
         21   -1    0    0  501  502  0.00000000000E+00  0.00000000000E+00  0.35298670362E+01  0.35298670362E+01  0.00000000000E+00 0. -1.
         13   -1    0    0    0    0 -0.00000000000E+00 -0.00000000000E+00 -0.10000000000E+04  0.10000000000E+04  0.00000000000E+00 0.  1.
    9000005    2    1    2  501    0  0.33492438498E+01 -0.44703844809E+02 -0.82731661306E+03  0.82853682583E+03  0.32927700458E+01 0.  0.
         13    1    3    3    0    0  0.32336013904E+00 -0.31881011893E+00 -0.69541133813E+01  0.69689234887E+01  0.00000000000E+00 0.  1.
          1    1    3    3  501    0  0.30258837107E+01 -0.44385034690E+02 -0.82036249968E+03  0.82156790234E+03  0.00000000000E+00 0.  1.
         -3    1    1    2    0  502 -0.33492438498E+01  0.44703844809E+02 -0.16915351990E+03  0.17499304120E+03  0.00000000000E+00 0. -1.
<mgrwt>
<rscale>  1 0.30000000E+03</rscale>
<asrwt>0</asrwt>
<pdfrwt beam="1">  1       21 0.12835907E-01 0.30000000E+03</pdfrwt>
<pdfrwt beam="2">0</pdfrwt>
<totfact> 0.54821764E+03</totfact>
</mgrwt>
</event>
<event>
 6    1  0.1270461E-001  0.3000000E+03  0.7818608E-02  0.1093470E+00
         21   -1    0    0  501  502  0.00000000000E+00  0.00000000000E+00  0.15745548223E+02  0.15745548223E+02  0.00000000000E+00 0. -1.
         13   -1    0    0    0    0 -0.00000000000E+00 -0.00000000000E+00 -0.10000000000E+04  0.10000000000E+04  0.00000000000E+00 0.  1.
    9000005    2    1    2  501    0 -0.62505279019E+02  0.23109257080E+02 -0.92244044637E+03  0.92485044972E+03  0.33210801021E+01 0.  0.
         13    1    3    3    0    0 -0.18631004435E+02  0.76496396733E+01 -0.26038039608E+03  0.26115815510E+03  0.00000000000E+00 0.  1.
          1    1    3    3  501    0 -0.43874274584E+02  0.15459617407E+02 -0.66206005029E+03  0.66369229462E+03  0.00000000000E+00 0.  1.
         -3    1    1    2    0  502  0.62505279019E+02 -0.23109257080E+02 -0.61814005403E+02  0.90895098503E+02  0.00000000000E+00 0. -1.
<mgrwt>
<rscale>  1 0.30000000E+03</rscale>
<asrwt>0</asrwt>
<pdfrwt beam="1">  1       21 0.57256660E-01 0.30000000E+03</pdfrwt>
<pdfrwt beam="2">0</pdfrwt>
<totfact> 0.27884048E+02</totfact>
</mgrwt>
</event>
<event>
 6    1  0.1270461E-001  0.3000000E+03  0.7818608E-02  0.1093470E+00
         21   -1    0    0  501  502  0.00000000000E+00  0.00000000000E+00  0.34873890080E+01  0.34873890080E+01  0.00000000000E+00 0. -1.
         13   -1    0    0    0    0 -0.00000000000E+00 -0.00000000000E+00 -0.10000000000E+04  0.10000000000E+04  0.00000000000E+00 0.  1.
    9000005    2    1    2  501    0 -0.33455109247E+02 -0.26144584823E+02 -0.84669576331E+03  0.84777010834E+03  0.42020628261E+01 0.  0.
         13    1    3    3    0    0 -0.19413799728E+02 -0.13548937416E+02 -0.50373252383E+03  0.50428853337E+03  0.00000000000E+00 0.  1.
          3    1    3    3  501    0 -0.14041309519E+02 -0.12595647407E+02 -0.34296323948E+03  0.34348157497E+03  0.00000000000E+00 0.  1.
         -3    1    1    2    0  502  0.33455109247E+02  0.26144584823E+02 -0.14981684768E+03  0.15571728067E+03  0.00000000000E+00 0. -1.
<mgrwt>
<rscale>  1 0.30000000E+03</rscale>
<asrwt>0</asrwt>
<pdfrwt beam="1">  1       21 0.12681441E-01 0.30000000E+03</pdfrwt>
<pdfrwt beam="2">0</pdfrwt>
<totfact> 0.56045704E+03</totfact>
</mgrwt>
</event>
<event>
 6    1  0.1270461E-001  0.3000000E+03  0.7818608E-02  0.1093470E+00
         21   -1    0    0  501  502  0.00000000000E+00  0.00000000000E+00  0.26410192053E+01  0.26410192053E+01  0.00000000000E+00 0. -1.
         13   -1    0    0    0    0 -0.00000000000E+00 -0.00000000000E+00 -0.10000000000E+04  0.10000000000E+04  0.00000000000E+00 0.  1.
    9000005    2    1    2  501    0 -0.21938098821E+02  0.28222497252E+02 -0.85862890214E+03  0.85937963482E+03  0.34605824759E+01 0.  0.
         13    1    3    3    0    0 -0.13040594858E+00  0.10820342338E+01 -0.29147639749E+02  0.29168008275E+02  0.00000000000E+00 0.  1.
          3    1    3    3  501    0 -0.21807692872E+02  0.27140463019E+02 -0.82948126239E+03  0.83021162655E+03  0.00000000000E+00 0.  1.
         -1    1    1    2    0  502  0.21938098821E+02 -0.28222497252E+02 -0.13873007866E+03  0.14326138438E+03  0.00000000000E+00 0. -1.
<mgrwt>
<rscale>  1 0.30000000E+03</rscale>
<asrwt>0</asrwt>
<pdfrwt beam="1">  1       21 0.96037265E-02 0.30000000E+03</pdfrwt>
<pdfrwt beam="2">0</pdfrwt>
<totfact> 0.92470111E+03</totfact>
</mgrwt>
</event>
<event>
 6    1  0.1270461E-001  0.3000000E+03  0.7818608E-02  0.1093470E+00
         21   -1    0    0  501  502  0.00000000000E+00  0.00000000000E+00  0.31123228340E+01  0.31123228340E+01  0.00000000000E+00 0. -1.
         13   -1    0    0    0    0 -0.00000000000E+00 -0.00000000000E+00 -0.10000000000E+04  0.10000000000E+04  0.00000000000E+00 0.  1.
    9000005    2    1    2  501    0 -0.32488404820E+00  0.47875423157E+02 -0.75549400783E+03  0.75701668027E+03  0.33010077430E+01 0.  0.
         13    1    3    3    0    0 -0.15723908789E+01  0.24442080754E+02 -0.37220582481E+03  0.37301080916E+03  0.00000000000E+00 0.  1.
          3    1    3    3  501    0  0.12475068307E+01  0.23433342403E+02 -0.38328818302E+03  0.38400587111E+03  0.00000000000E+00 0.  1.
         -3    1    1    2    0  502  0.32488404820E+00 -0.47875423157E+02 -0.24139366934E+03  0.24609564257E+03  0.00000000000E+00 0. -1.
<mgrwt>
<rscale>  1 0.30000000E+03</rscale>
<asrwt>0</asrwt>
<pdfrwt beam="1">  1       21 0.11317561E-01 0.30000000E+03</pdfrwt>
<pdfrwt beam="2">0</pdfrwt>
<totfact> 0.68895918E+03</totfact>
</mgrwt>
</event>
<event>
 6    1  0.1270461E-001  0.3000000E+03  0.7818608E-02  0.1093470E+00
         21   -1    0    0  501  502  0.00000000000E+00  0.00000000000E+00  0.26995082410E+01  0.26995082410E+01  0.00000000000E+00 0. -1.
         13   -1    0    0    0    0 -0.00000000000E+00 -0.00000000000E+00 -0.10000000000E+04  0.10000000000E+04  0.00000000000E+00 0.  1.
    9000005    2    1    2  501    0  0.15896809619E+02  0.41218351584E+02 -0.76198419862E+03  0.76327223561E+03  0.35952247716E+01 0.  0.
         13    1    3    3    0    0  0.15715548748E+02  0.38444771281E+02 -0.71820031885E+03  0.71940022026E+03  0.00000000000E+00 0.  1.
          3    1    3    3  501    0  0.18126087152E+00  0.27735803035E+01 -0.43783879772E+02  0.43872015353E+02  0.00000000000E+00 0.  1.
         -1    1    1    2    0  502 -0.15896809619E+02 -0.41218351584E+02 -0.23531629314E+03  0.23942727263E+03  0.00000000000E+00 0. -1.
<mgrwt>
<rscale>  1 0.30000000E+03</rscale>
<asrwt>0</asrwt>
<pdfrwt beam="1">  1       21 0.98164143E-02 0.30000000E+03</pdfrwt>
<pdfrwt beam="2">0</pdfrwt>
<totfact> 0.88926470E+03</totfact>
</mgrwt>
</event>
<event>
 6    1  0.1270461E-001  0.3000000E+03  0.7818608E-02  0.1093470E+00
         21   -1    0    0  501  502  0.00000000000E+00  0.00000000000E+00  0.43624988788E+01  0.43624988788E+01  0.00000000000E+00 0. -1.
         13   -1    0    0    0    0 -0.00000000000E+00 -0.00000000000E+00 -0.10000000000E+04  0.10000000000E+04  0.00000000000E+00 0.  1.
    9000005    2    1    2  501    0  0.58395282285E+02 -0.50632849367E+01 -0.72631018030E+03  0.72873076705E+03  0.92955364302E+01 0.  0.
         13    1    3    3    0    0  0.28998404207E+02 -0.63176349142E+01 -0.33165895519E+03  0.33298420761E+03  0.00000000000E+00 0.  1.
          1    1    3    3  501    0  0.29396878078E+02  0.12543499775E+01 -0.39465122511E+03  0.39574655945E+03  0.00000000000E+00 0.  1.
         -3    1    1    2    0  502 -0.58395282285E+02  0.50632849367E+01 -0.26932732082E+03  0.27563173182E+03  0.00000000000E+00 0. -1.
<mgrwt>
<rscale>  1 0.30000000E+03</rscale>
<asrwt>0</asrwt>
<pdfrwt beam="1">  1       21 0.15863666E-01 0.30000000E+03</pdfrwt>
<pdfrwt beam="2">0</pdfrwt>
<totfact> 0.37113744E+03</totfact>
</mgrwt>
</event>
<event>
 6    1  0.1270461E-001  0.3000000E+03  0.7818608E-02  0.1093470E+00
         21   -1    0    0  501  502  0.00000000000E+00  0.00000000000E+00  0.43717380183E+01  0.43717380183E+01  0.00000000000E+00 0. -1.
         13   -1    0    0    0    0 -0.00000000000E+00 -0.00000000000E+00 -0.10000000000E+04  0.10000000000E+04  0.00000000000E+00 0.  1.
    9000005    2    1    2  501    0 -0.47510206462E+02 -0.41443012274E+02 -0.34805509958E+03  0.35373686065E+03  0.35596706255E+01 0.  0.
         13    1    3    3    0    0 -0.27086348500E+02 -0.25213546957E+02 -0.19690952369E+03  0.20035656652E+03  0.00000000000E+00 0.  1.
          1    1    3    3  501    0 -0.20423857962E+02 -0.16229465317E+02 -0.15114557588E+03  0.15338029413E+03  0.00000000000E+00 0.  1.
         -3    1    1    2    0  502  0.47510206462E+02  0.41443012274E+02 -0.64757316240E+03  0.65063487737E+03  0.00000000000E+00 0. -1.
<mgrwt>
<rscale>  1 0.30000000E+03</rscale>
<asrwt>0</asrwt>
<pdfrwt beam="1">  1       21 0.15897263E-01 0.30000000E+03</pdfrwt>
<pdfrwt beam="2">0</pdfrwt>
<totfact> 0.36967758E+03</totfact>
</mgrwt>
</event>
<event>
 6    1  0.1270461E-001  0.3000000E+03  0.7818608E-02  0.1093470E+00
         21   -1    0    0  501  502  0.00000000000E+00  0.00000000000E+00  0.50647898828E+01  0.50647898828E+01  0.00000000000E+00 0. -1.
         13   -1    0    0    0    0 -0.00000000000E+00 -0.00000000000E+00 -0.10000000000E+04  0.10000000000E+04  0.00000000000E+00 0.  1.
    9000005    2    1    2  501    0 -0.98903349582E+01  0.55014161339E+02 -0.80754668478E+03  0.80951726087E+03  0.78848513470E+01 0.  0.
         13    1    3    3    0    0 -0.77801544542E+01  0.23796371770E+02 -0.33243741774E+03  0.33337881581E+03  0.00000000000E+00 0.  1.
          3    1    3    3  501    0 -0.21101805040E+01  0.31217789568E+02 -0.47510926703E+03  0.47613844506E+03  0.00000000000E+00 0.  1.
         -1    1    1    2    0  502  0.98903349582E+01 -0.55014161339E+02 -0.18738852534E+03  0.19554752901E+03  0.00000000000E+00 0. -1.
<mgrwt>
<rscale>  1 0.30000000E+03</rscale>
<asrwt>0</asrwt>
<pdfrwt beam="1">  1       21 0.18417457E-01 0.30000000E+03</pdfrwt>
<pdfrwt beam="2">0</pdfrwt>
<totfact> 0.28055898E+03</totfact>
</mgrwt>
</event>
<event>
 6    1  0.1270461E-001  0.3000000E+03  0.7818608E-02  0.1093470E+00
         21   -1    0    0  501  502  0.00000000000E+00  0.00000000000E+00  0.13511182030E+01  0.13511182030E+01  0.00000000000E+00 0. -1.
         13   -1    0    0    0    0 -0.00000000000E+00 -0.00000000000E+00 -0.10000000000E+04  0.10000000000E+04  0.00000000000E+00 0.  1.
    9000005    2    1    2  501    0  0.11514512480E+02 -0.30677587076E+02 -0.72527021665E+03  0.72601569930E+03  0.28653306788E+01 0.  0.
         13    1    3    3    0    0  0.89232993215E+01 -0.19930596310E+02 -0.47975287558E+03  0.48024959715E+03  0.00000000000E+00 0.  1.
          3    1    3    3  501    0  0.25912131586E+01 -0.10746990766E+02 -0.24551734107E+03  0.24576610215E+03  0.00000000000E+00 0.  1.
         -1    1    1    2    0  502 -0.11514512480E+02  0.30677587076E+02 -0.27337866514E+03  0.27533541890E+03  0.00000000000E+00 0. -1.
<mgrwt>
<rscale>  1 0.30000000E+03</rscale>
<asrwt>0</asrwt>
<pdfrwt beam="1">  1       21 0.49131675E-02 0.30000000E+03</pdfrwt>
<pdfrwt beam="2">0</pdfrwt>
<totfact> 0.29677514E+04</totfact>
</mgrwt>
</event>
<event>
 6    1  0.1270461E-001  0.3000000E+03  0.7818608E-02  0.1093470E+00
         21   -1    0    0  501  502  0.00000000000E+00  0.00000000000E+00  0.10115991903E+01  0.10115991903E+01  0.00000000000E+00 0. -1.
         13   -1    0    0    0    0 -0.00000000000E+00 -0.00000000000E+00 -0.10000000000E+04  0.10000000000E+04  0.00000000000E+00 0.  1.
    9000005    2    1    2  501    0 -0.13203408623E+02  0.28710169590E+02 -0.54621995372E+03  0.54714171638E+03  0.30358080390E+01 0.  0.
         13    1    3    3    0    0 -0.42722645258E+01  0.65762842003E+01 -0.12413214000E+03  0.12437961223E+03  0.00000000000E+00 0.  1.
          1    1    3    3  501    0 -0.89311440968E+01  0.22133885389E+02 -0.42208781371E+03  0.42276210415E+03  0.00000000000E+00 0.  1.
         -1    1    1    2    0  502  0.13203408623E+02 -0.28710169590E+02 -0.45276844709E+03  0.45386988281E+03  0.00000000000E+00 0. -1.
<mgrwt>
<rscale>  1 0.30000000E+03</rscale>
<asrwt>0</asrwt>
<pdfrwt beam="1">  1       21 0.36785503E-02 0.30000000E+03</pdfrwt>
<pdfrwt beam="2">0</pdfrwt>
<totfact> 0.48405469E+04</totfact>
</mgrwt>
</event>
<event>
 6    1  0.1270461E-001  0.3000000E+03  0.7818608E-02  0.1093470E+00
         21   -1    0    0  501  502  0.00000000000E+00  0.00000000000E+00  0.40483357622E+01  0.40483357622E+01  0.00000000000E+00 0. -1.
         13   -1    0    0    0    0 -0.00000000000E+00 -0.00000000000E+00 -0.10000000000E+04  0.10000000000E+04  0.00000000000E+00 0.  1.
    9000005    2    1    2  501    0 -0.55247296135E+02 -0.19360677754E+02 -0.69413595399E+03  0.69660757313E+03  0.32076084551E+01 0.  0.
         13    1    3    3    0    0 -0.10443061373E+02 -0.48020735201E+01 -0.12827555606E+03  0.12878950161E+03  0.00000000000E+00 0.  1.
          3    1    3    3  501    0 -0.44804234762E+02 -0.14558604233E+02 -0.56586039792E+03  0.56781807152E+03  0.00000000000E+00 0.  1.
         -1    1    1    2    0  502  0.55247296135E+02  0.19360677754E+02 -0.30181571025E+03  0.30744076263E+03  0.00000000000E+00 0. -1.
<mgrwt>
<rscale>  1 0.30000000E+03</rscale>
<asrwt>0</asrwt>
<pdfrwt beam="1">  1       21 0.14721252E-01 0.30000000E+03</pdfrwt>
<pdfrwt beam="2">0</pdfrwt>
<totfact> 0.42633586E+03</totfact>
</mgrwt>
</event>
<event>
 6    1  0.1270461E-001  0.3000000E+03  0.7818608E-02  0.1093470E+00
         21   -1    0    0  501  502  0.00000000000E+00  0.00000000000E+00  0.13198821057E+01  0.13198821057E+01  0.00000000000E+00 0. -1.
         13   -1    0    0    0    0 -0.00000000000E+00 -0.00000000000E+00 -0.10000000000E+04  0.10000000000E+04  0.00000000000E+00 0.  1.
    9000005    2    1    2  501    0 -0.15819324169E+02 -0.29088757686E+02 -0.29679471726E+03  0.29865387150E+03  0.32594364559E+01 0.  0.
         13    1    3    3    0    0 -0.12417562497E+02 -0.22705562233E+02 -0.21905960349E+03  0.22058297372E+03  0.00000000000E+00 0.  1.
          1    1    3    3  501    0 -0.34017616716E+01 -0.63831954523E+01 -0.77735113765E+02  0.78070897770E+02  0.00000000000E+00 0.  1.
         -1    1    1    2    0  502  0.15819324169E+02  0.29088757686E+02 -0.70188540064E+03  0.70266601061E+03  0.00000000000E+00 0. -1.
<mgrwt>
<rscale>  1 0.30000000E+03</rscale>
<asrwt>0</asrwt>
<pdfrwt beam="1">  1       21 0.47995814E-02 0.30000000E+03</pdfrwt>
<pdfrwt beam="2">0</pdfrwt>
<totfact> 0.30883124E+04</totfact>
</mgrwt>
</event>
<event>
 6    1  0.1270461E-001  0.3000000E+03  0.7818608E-02  0.1093470E+00
         21   -1    0    0  501  502  0.00000000000E+00  0.00000000000E+00  0.12051072221E+01  0.12051072221E+01  0.00000000000E+00 0. -1.
         13   -1    0    0    0    0 -0.00000000000E+00 -0.00000000000E+00 -0.10000000000E+04  0.10000000000E+04  0.00000000000E+00 0.  1.
    9000005    2    1    2  501    0  0.54320018130E+01  0.31513385326E+02 -0.68983871880E+03  0.69059841454E+03  0.51100013897E+01 0.  0.
         13    1    3    3    0    0  0.61620788605E+00  0.86398767116E+01 -0.14497758454E+03  0.14523610846E+03  0.00000000000E+00 0.  1.
          1    1    3    3  501    0  0.48157939270E+01  0.22873508615E+02 -0.54486113426E+03  0.54536230608E+03  0.00000000000E+00 0.  1.
         -1    1    1    2    0  502 -0.54320018130E+01 -0.31513385326E+02 -0.30895617398E+03  0.31060669268E+03  0.00000000000E+00 0. -1.
<mgrwt>
<rscale>  1 0.30000000E+03</rscale>
<asrwt>0</asrwt>
<pdfrwt beam="1">  1       21 0.43822173E-02 0.30000000E+03</pdfrwt>
<pdfrwt beam="2">0</pdfrwt>
<totfact> 0.36042777E+04</totfact>
</mgrwt>
</event>
<event>
 6    1  0.1270461E-001  0.3000000E+03  0.7818608E-02  0.1093470E+00
         21   -1    0    0  501  502  0.00000000000E+00  0.00000000000E+00  0.13106634760E+01  0.13106634760E+01  0.00000000000E+00 0. -1.
         13   -1    0    0    0    0 -0.00000000000E+00 -0.00000000000E+00 -0.10000000000E+04  0.10000000000E+04  0.00000000000E+00 0.  1.
    9000005    2    1    2  501    0  0.28242929727E+02 -0.16626066785E+02 -0.29028355700E+03  0.29214718611E+03  0.33683389399E+01 0.  0.
         13    1    3    3    0    0  0.84277133166E+00  0.15211995680E-01 -0.10263389570E+02  0.10297944474E+02  0.00000000000E+00 0.  1.
          3    1    3    3  501    0  0.27400158396E+02 -0.16641278780E+02 -0.28002016743E+03  0.28184924163E+03  0.00000000000E+00 0.  1.
         -3    1    1    2    0  502 -0.28242929727E+02  0.16626066785E+02 -0.70840577952E+03  0.70916347737E+03  0.00000000000E+00 0. -1.
<mgrwt>
<rscale>  1 0.30000000E+03</rscale>
<asrwt>0</asrwt>
<pdfrwt beam="1">  1       21 0.47660591E-02 0.30000000E+03</pdfrwt>
<pdfrwt beam="2">0</pdfrwt>
<totfact> 0.31253602E+04</totfact>
</mgrwt>
</event>
<event>
 6    1  0.1270461E-001  0.3000000E+03  0.7818608E-02  0.1093470E+00
         21   -1    0    0  501  502  0.00000000000E+00  0.00000000000E+00  0.14490317980E+01  0.14490317980E+01  0.00000000000E+00 0. -1.
         13   -1    0    0    0    0 -0.00000000000E+00 -0.00000000000E+00 -0.10000000000E+04  0.10000000000E+04  0.00000000000E+00 0.  1.
    9000005    2    1    2  501    0  0.31924592499E+02 -0.12459230476E+02 -0.71611023776E+03  0.71693685588E+03  0.31891489394E+01 0.  0.
         13    1    3    3    0    0  0.31241623723E+02 -0.12536179464E+02 -0.70686309278E+03  0.70766420482E+03  0.00000000000E+00 0.  1.
          1    1    3    3  501    0  0.68296877586E+00  0.76948987629E-01 -0.92471449746E+01  0.92726510598E+01  0.00000000000E+00 0.  1.
         -1    1    1    2    0  502 -0.31924592499E+02  0.12459230476E+02 -0.28244073044E+03  0.28451217592E+03  0.00000000000E+00 0. -1.
<mgrwt>
<rscale>  1 0.30000000E+03</rscale>
<asrwt>0</asrwt>
<pdfrwt beam="1">  1       21 0.52692176E-02 0.30000000E+03</pdfrwt>
<pdfrwt beam="2">0</pdfrwt>
<totfact> 0.26337905E+04</totfact>
</mgrwt>
</event>
<event>
 6    1  0.1270461E-001  0.3000000E+03  0.7818608E-02  0.1093470E+00
         21   -1    0    0  501  502  0.00000000000E+00  0.00000000000E+00  0.13813171665E+01  0.13813171665E+01  0.00000000000E+00 0. -1.
         13   -1    0    0    0    0 -0.00000000000E+00 -0.00000000000E+00 -0.10000000000E+04  0.10000000000E+04  0.00000000000E+00 0.  1.
    9000005    2    1    2  501    0  0.25462929815E+02  0.26741127334E+02 -0.54701453798E+03  0.54827012514E+03  0.34317167288E+01 0.  0.
         13    1    3    3    0    0  0.14587881291E+02  0.15557987411E+02 -0.34052243362E+03  0.34118966141E+03  0.00000000000E+00 0.  1.
          1    1    3    3  501    0  0.10875048524E+02  0.11183139922E+02 -0.20649210435E+03  0.20708046373E+03  0.00000000000E+00 0.  1.
         -3    1    1    2    0  502 -0.25462929815E+02 -0.26741127334E+02 -0.45160414486E+03  0.45311119202E+03  0.00000000000E+00 0. -1.
<mgrwt>
<rscale>  1 0.30000000E+03</rscale>
<asrwt>0</asrwt>
<pdfrwt beam="1">  1       21 0.50229821E-02 0.30000000E+03</pdfrwt>
<pdfrwt beam="2">0</pdfrwt>
<totfact> 0.28580322E+04</totfact>
</mgrwt>
</event>
<event>
 6    1  0.1270461E-001  0.3000000E+03  0.7818608E-02  0.1093470E+00
         21   -1    0    0  501  502  0.00000000000E+00  0.00000000000E+00  0.10681400634E+01  0.10681400634E+01  0.00000000000E+00 0. -1.
         13   -1    0    0    0    0 -0.00000000000E+00 -0.00000000000E+00 -0.10000000000E+04  0.10000000000E+04  0.00000000000E+00 0.  1.
    9000005    2    1    2  501    0  0.29418275131E+02 -0.90527092400E+01 -0.66597546167E+03  0.66669207991E+03  0.27617772133E+01 0.  0.
         13    1    3    3    0    0  0.28981187310E+02 -0.91498372358E+01 -0.66027674689E+03  0.66097580229E+03  0.00000000000E+00 0.  1.
          3    1    3    3  501    0  0.43708782106E+00  0.97127995840E-01 -0.56987147827E+01  0.57162776162E+01  0.00000000000E+00 0.  1.
         -1    1    1    2    0  502 -0.29418275131E+02  0.90527092400E+01 -0.33295639827E+03  0.33437606015E+03  0.00000000000E+00 0. -1.
<mgrwt>
<rscale>  1 0.30000000E+03</rscale>
<asrwt>0</asrwt>
<pdfrwt beam="1">  1       21 0.38841539E-02 0.30000000E+03</pdfrwt>
<pdfrwt beam="2">0</pdfrwt>
<totfact> 0.44179148E+04</totfact>
</mgrwt>
</event>
<event>
 6    1  0.1270461E-001  0.3000000E+03  0.7818608E-02  0.1093470E+00
         21   -1    0    0  501  502  0.00000000000E+00  0.00000000000E+00  0.91244551614E+01  0.91244551614E+01  0.00000000000E+00 0. -1.
         13   -1    0    0    0    0 -0.00000000000E+00 -0.00000000000E+00 -0.10000000000E+04  0.10000000000E+04  0.00000000000E+00 0.  1.
    9000005    2    1    2  501    0 -0.38459153157E+02 -0.13696764117E+02 -0.95158116246E+03  0.95246091931E+03  0.28959025410E+01 0.  0.
         13    1    3    3    0    0 -0.28483324226E+02 -0.11424996868E+02 -0.70571581112E+03  0.70638278318E+03  0.00000000000E+00 0.  1.
          3    1    3    3  501    0 -0.99758289304E+01 -0.22717672488E+01 -0.24586535134E+03  0.24607813613E+03  0.00000000000E+00 0.  1.
         -1    1    1    2    0  502  0.38459153157E+02  0.13696764117E+02 -0.39294382376E+02  0.56663535851E+02  0.00000000000E+00 0. -1.
<mgrwt>
<rscale>  1 0.30000000E+03</rscale>
<asrwt>0</asrwt>
<pdfrwt beam="1">  1       21 0.33179907E-01 0.30000000E+03</pdfrwt>
<pdfrwt beam="2">0</pdfrwt>
<totfact> 0.88735582E+02</totfact>
</mgrwt>
</event>
<event>
 6    1  0.1270461E-001  0.3000000E+03  0.7818608E-02  0.1093470E+00
         21   -1    0    0  501  502  0.00000000000E+00  0.00000000000E+00  0.96683455843E+00  0.96683455843E+00  0.00000000000E+00 0. -1.
         13   -1    0    0    0    0 -0.00000000000E+00 -0.00000000000E+00 -0.10000000000E+04  0.10000000000E+04  0.00000000000E+00 0.  1.
    9000005    2    1    2  501    0  0.21052518760E+02 -0.22541003955E+02 -0.53286833276E+03  0.53378276309E+03  0.49063945468E+01 0.  0.
         13    1    3    3    0    0  0.15443622216E+02 -0.13108833087E+02 -0.34645210380E+03  0.34704381164E+03  0.00000000000E+00 0.  1.
          3    1    3    3  501    0  0.56088965433E+01 -0.94321708679E+01 -0.18641622896E+03  0.18673895145E+03  0.00000000000E+00 0.  1.
         -1    1    1    2    0  502 -0.21052518760E+02  0.22541003955E+02 -0.46616483268E+03  0.46718407147E+03  0.00000000000E+00 0. -1.
<mgrwt>
<rscale>  1 0.30000000E+03</rscale>
<asrwt>0</asrwt>
<pdfrwt beam="1">  1       21 0.35157694E-02 0.30000000E+03</pdfrwt>
<pdfrwt beam="2">0</pdfrwt>
<totfact> 0.52222158E+04</totfact>
</mgrwt>
</event>
<event>
 6    1  0.1270461E-001  0.3000000E+03  0.7818608E-02  0.1093470E+00
         21   -1    0    0  501  502  0.00000000000E+00  0.00000000000E+00  0.15870120543E+01  0.15870120543E+01  0.00000000000E+00 0. -1.
         13   -1    0    0    0    0 -0.00000000000E+00 -0.00000000000E+00 -0.10000000000E+04  0.10000000000E+04  0.00000000000E+00 0.  1.
    9000005    2    1    2  501    0 -0.72408264137E+01  0.38193174976E+02 -0.59991750219E+03  0.60119994889E+03  0.54056386551E+01 0.  0.
         13    1    3    3    0    0 -0.32899146916E+01  0.28458342687E+02 -0.45668277357E+03  0.45758043717E+03  0.00000000000E+00 0.  1.
          3    1    3    3  501    0 -0.39509117222E+01  0.97348322889E+01 -0.14323472863E+03  0.14361951172E+03  0.00000000000E+00 0.  1.
         -3    1    1    2    0  502  0.72408264137E+01 -0.38193174976E+02 -0.39849548575E+03  0.40038706316E+03  0.00000000000E+00 0. -1.
<mgrwt>
<rscale>  1 0.30000000E+03</rscale>
<asrwt>0</asrwt>
<pdfrwt beam="1">  1       21 0.57709651E-02 0.30000000E+03</pdfrwt>
<pdfrwt beam="2">0</pdfrwt>
<totfact> 0.22533441E+04</totfact>
</mgrwt>
</event>
<event>
 6    1  0.1270461E-001  0.3000000E+03  0.7818608E-02  0.1093470E+00
         21   -1    0    0  501  502  0.00000000000E+00  0.00000000000E+00  0.28516536195E+01  0.28516536195E+01  0.00000000000E+00 0. -1.
         13   -1    0    0    0    0 -0.00000000000E+00 -0.00000000000E+00 -0.10000000000E+04  0.10000000000E+04  0.00000000000E+00 0.  1.
    9000005    2    1    2  501    0  0.39055362630E+02 -0.12968059553E+02 -0.81773791363E+03  0.81878211432E+03  0.39196200944E+01 0.  0.
         13    1    3    3    0    0  0.27178191730E+02 -0.10716547573E+02 -0.59342654672E+03  0.59414523885E+03  0.00000000000E+00 0.  1.
          1    1    3    3  501    0  0.11877170900E+02 -0.22515119798E+01 -0.22431136691E+03  0.22463687547E+03  0.00000000000E+00 0.  1.
         -1    1    1    2    0  502 -0.39055362630E+02  0.12968059553E+02 -0.17941043275E+03  0.18406953930E+03  0.00000000000E+00 0. -1.
<mgrwt>
<rscale>  1 0.30000000E+03</rscale>
<asrwt>0</asrwt>
<pdfrwt beam="1">  1       21 0.10369671E-01 0.30000000E+03</pdfrwt>
<pdfrwt beam="2">0</pdfrwt>
<totfact> 0.80622914E+03</totfact>
</mgrwt>
</event>
<event>
 6    1  0.1270461E-001  0.3000000E+03  0.7818608E-02  0.1093470E+00
         21   -1    0    0  501  502  0.00000000000E+00  0.00000000000E+00  0.12359984928E+01  0.12359984928E+01  0.00000000000E+00 0. -1.
         13   -1    0    0    0    0 -0.00000000000E+00 -0.00000000000E+00 -0.10000000000E+04  0.10000000000E+04  0.00000000000E+00 0.  1.
    9000005    2    1    2  501    0 -0.24981666141E+02 -0.24623995218E+02 -0.50745850976E+03  0.50867989915E+03  0.32673969275E+01 0.  0.
         13    1    3    3    0    0 -0.16460627634E+02 -0.14974136056E+02 -0.33982855972E+03  0.34055634925E+03  0.00000000000E+00 0.  1.
          1    1    3    3  501    0 -0.85210385073E+01 -0.96498591625E+01 -0.16762995004E+03  0.16812354990E+03  0.00000000000E+00 0.  1.
         -1    1    1    2    0  502  0.24981666141E+02  0.24623995218E+02 -0.49130549174E+03  0.49255609934E+03  0.00000000000E+00 0. -1.
<mgrwt>
<rscale>  1 0.30000000E+03</rscale>
<asrwt>0</asrwt>
<pdfrwt beam="1">  1       21 0.44945495E-02 0.30000000E+03</pdfrwt>
<pdfrwt beam="2">0</pdfrwt>
<totfact> 0.34529125E+04</totfact>
</mgrwt>
</event>
<event>
 6    1  0.1270461E-001  0.3000000E+03  0.7818608E-02  0.1093470E+00
         21   -1    0    0  501  502  0.00000000000E+00  0.00000000000E+00  0.11749376098E+01  0.11749376098E+01  0.00000000000E+00 0. -1.
         13   -1    0    0    0    0 -0.00000000000E+00 -0.00000000000E+00 -0.10000000000E+04  0.10000000000E+04  0.00000000000E+00 0.  1.
    9000005    2    1    2  501    0 -0.17055817754E+02  0.29262311860E+02 -0.43467789843E+03  0.43601194659E+03  0.37892440729E+01 0.  0.
         13    1    3    3    0    0 -0.11736038432E+02  0.19860246616E+02 -0.31762214350E+03  0.31845877290E+03  0.00000000000E+00 0.  1.
          1    1    3    3  501    0 -0.53197793216E+01  0.94020652444E+01 -0.11705575493E+03  0.11755317369E+03  0.00000000000E+00 0.  1.
         -3    1    1    2    0  502  0.17055817754E+02 -0.29262311860E+02 -0.56414716396E+03  0.56516299102E+03  0.00000000000E+00 0. -1.
<mgrwt>
<rscale>  1 0.30000000E+03</rscale>
<asrwt>0</asrwt>
<pdfrwt beam="1">  1       21 0.42725094E-02 0.30000000E+03</pdfrwt>
<pdfrwt beam="2">0</pdfrwt>
<totfact> 0.37622539E+04</totfact>
</mgrwt>
</event>
<event>
 6    1  0.1270461E-001  0.3000000E+03  0.7818608E-02  0.1093470E+00
         21   -1    0    0  501  502  0.00000000000E+00  0.00000000000E+00  0.30831669605E+01  0.30831669605E+01  0.00000000000E+00 0. -1.
         13   -1    0    0    0    0 -0.00000000000E+00 -0.00000000000E+00 -0.10000000000E+04  0.10000000000E+04  0.00000000000E+00 0.  1.
    9000005    2    1    2  501    0  0.15375230374E+02 -0.41612777873E+02 -0.79987161776E+03  0.80110584681E+03  0.28199115133E+01 0.  0.
         13    1    3    3    0    0  0.47977267093E+01 -0.14487774299E+02 -0.29775809189E+03  0.29814894780E+03  0.00000000000E+00 0.  1.
          1    1    3    3  501    0  0.10577503665E+02 -0.27125003574E+02 -0.50211352587E+03  0.50295689901E+03  0.00000000000E+00 0.  1.
         -3    1    1    2    0  502 -0.15375230374E+02  0.41612777873E+02 -0.19704521528E+03  0.20197732015E+03  0.00000000000E+00 0. -1.
<mgrwt>
<rscale>  1 0.30000000E+03</rscale>
<asrwt>0</asrwt>
<pdfrwt beam="1">  1       21 0.11211540E-01 0.30000000E+03</pdfrwt>
<pdfrwt beam="2">0</pdfrwt>
<totfact> 0.70075026E+03</totfact>
</mgrwt>
</event>
<event>
 6    1  0.1270461E-001  0.3000000E+03  0.7818608E-02  0.1093470E+00
         21   -1    0    0  501  502  0.00000000000E+00  0.00000000000E+00  0.12893459158E+02  0.12893459158E+02  0.00000000000E+00 0. -1.
         13   -1    0    0    0    0 -0.00000000000E+00 -0.00000000000E+00 -0.10000000000E+04  0.10000000000E+04  0.00000000000E+00 0.  1.
    9000005    2    1    2  501    0  0.23831302227E+02  0.31577609928E+02 -0.96825552642E+03  0.96907066647E+03  0.37570932605E+01 0.  0.
         13    1    3    3    0    0  0.15892598218E+02  0.20554700866E+02 -0.67740099551E+03  0.67789909214E+03  0.00000000000E+00 0.  1.
          3    1    3    3  501    0  0.79387040096E+01  0.11022909061E+02 -0.29085453091E+03  0.29117157433E+03  0.00000000000E+00 0.  1.
         -3    1    1    2    0  502 -0.23831302227E+02 -0.31577609928E+02 -0.18851014423E+02  0.43822792693E+02  0.00000000000E+00 0. -1.
<mgrwt>
<rscale>  1 0.30000000E+03</rscale>
<asrwt>0</asrwt>
<pdfrwt beam="1">  1       21 0.46885405E-01 0.30000000E+03</pdfrwt>
<pdfrwt beam="2">0</pdfrwt>
<totfact> 0.43156768E+02</totfact>
</mgrwt>
</event>
<event>
 6    1  0.1270461E-001  0.3000000E+03  0.7818608E-02  0.1093470E+00
         21   -1    0    0  501  502  0.00000000000E+00  0.00000000000E+00  0.39848031996E+01  0.39848031996E+01  0.00000000000E+00 0. -1.
         13   -1    0    0    0    0 -0.00000000000E+00 -0.00000000000E+00 -0.10000000000E+04  0.10000000000E+04  0.00000000000E+00 0.  1.
    9000005    2    1    2  501    0 -0.30026854903E+02  0.13305200616E+02 -0.92657509171E+03  0.92716964471E+03  0.48486200006E+01 0.  0.
         13    1    3    3    0    0 -0.14326318864E+02  0.84298513217E+01 -0.42388577061E+03  0.42421156553E+03  0.00000000000E+00 0.  1.
          3    1    3    3  501    0 -0.15700536039E+02  0.48753492944E+01 -0.50268932110E+03  0.50295807918E+03  0.00000000000E+00 0.  1.
         -3    1    1    2    0  502  0.30026854903E+02 -0.13305200616E+02 -0.69440105092E+02  0.76815158491E+02  0.00000000000E+00 0. -1.
<mgrwt>
<rscale>  1 0.30000000E+03</rscale>
<asrwt>0</asrwt>
<pdfrwt beam="1">  1       21 0.14490224E-01 0.30000000E+03</pdfrwt>
<pdfrwt beam="2">0</pdfrwt>
<totfact> 0.43896323E+03</totfact>
</mgrwt>
</event>
<event>
 6    1  0.1270461E-001  0.3000000E+03  0.7818608E-02  0.1093470E+00
         21   -1    0    0  501  502  0.00000000000E+00  0.00000000000E+00  0.14916309172E+01  0.14916309172E+01  0.00000000000E+00 0. -1.
         13   -1    0    0    0    0 -0.00000000000E+00 -0.00000000000E+00 -0.10000000000E+04  0.10000000000E+04  0.00000000000E+00 0.  1.
    9000005    2    1    2  501    0  0.36885491975E+02 -0.10110240843E+02 -0.56303938326E+03  0.56434635289E+03  0.32714568778E+01 0.  0.
         13    1    3    3    0    0  0.23008861258E+02 -0.79383793938E+01 -0.35593723176E+03  0.35676846626E+03  0.00000000000E+00 0.  1.
          1    1    3    3  501    0  0.13876630717E+02 -0.21718614488E+01 -0.20710215149E+03  0.20757788663E+03  0.00000000000E+00 0.  1.
         -3    1    1    2    0  502 -0.36885491975E+02  0.10110240843E+02 -0.43546898583E+03  0.43714527803E+03  0.00000000000E+00 0. -1.
<mgrwt>
<rscale>  1 0.30000000E+03</rscale>
<asrwt>0</asrwt>
<pdfrwt beam="1">  1       21 0.54241239E-02 0.30000000E+03</pdfrwt>
<pdfrwt beam="2">0</pdfrwt>
<totfact> 0.25063815E+04</totfact>
</mgrwt>
</event>
<event>
 6    1  0.1270461E-001  0.3000000E+03  0.7818608E-02  0.1093470E+00
         21   -1    0    0  501  502  0.00000000000E+00  0.00000000000E+00  0.14340171005E+01  0.14340171005E+01  0.00000000000E+00 0. -1.
         13   -1    0    0    0    0 -0.00000000000E+00 -0.00000000000E+00 -0.10000000000E+04  0.10000000000E+04  0.00000000000E+00 0.  1.
    9000005    2    1    2  501    0 -0.36752266031E+02 -0.88611407153E+01 -0.49401628897E+03  0.49546994475E+03  0.30205135000E+01 0.  0.
         13    1    3    3    0    0 -0.12074962303E+02 -0.17353422507E+01 -0.14846056278E+03  0.14896091712E+03  0.00000000000E+00 0.  1.
          1    1    3    3  501    0 -0.24677303728E+02 -0.71257984646E+01 -0.34555572619E+03  0.34650902763E+03  0.00000000000E+00 0.  1.
         -1    1    1    2    0  502  0.36752266031E+02  0.88611407153E+01 -0.50454969392E+03  0.50596407235E+03  0.00000000000E+00 0. -1.
<mgrwt>
<rscale>  1 0.30000000E+03</rscale>
<asrwt>0</asrwt>
<pdfrwt beam="1">  1       21 0.52146186E-02 0.30000000E+03</pdfrwt>
<pdfrwt beam="2">0</pdfrwt>
<totfact> 0.26810982E+04</totfact>
</mgrwt>
</event>
<event>
 6    1  0.1270461E-001  0.3000000E+03  0.7818608E-02  0.1093470E+00
         21   -1    0    0  501  502  0.00000000000E+00  0.00000000000E+00  0.11949807594E+01  0.11949807594E+01  0.00000000000E+00 0. -1.
         13   -1    0    0    0    0 -0.00000000000E+00 -0.00000000000E+00 -0.10000000000E+04  0.10000000000E+04  0.00000000000E+00 0.  1.
    9000005    2    1    2  501    0  0.13315147564E+02 -0.26908452611E+02 -0.74561081317E+03  0.74622701421E+03  0.42324992647E+01 0.  0.
         13    1    3    3    0    0  0.46498317308E+01 -0.76897082963E+01 -0.26927211862E+03  0.26942202288E+03  0.00000000000E+00 0.  1.
          3    1    3    3  501    0  0.86653158335E+01 -0.19218744315E+02 -0.47633869455E+03  0.47680499133E+03  0.00000000000E+00 0.  1.
         -3    1    1    2    0  502 -0.13315147564E+02  0.26908452611E+02 -0.25319420607E+03  0.25496796655E+03  0.00000000000E+00 0. -1.
<mgrwt>
<rscale>  1 0.30000000E+03</rscale>
<asrwt>0</asrwt>
<pdfrwt beam="1">  1       21 0.43453937E-02 0.30000000E+03</pdfrwt>
<pdfrwt beam="2">0</pdfrwt>
<totfact> 0.36561375E+04</totfact>
</mgrwt>
</event>
<event>
 6    1  0.1270461E-001  0.3000000E+03  0.7818608E-02  0.1093470E+00
         21   -1    0    0  501  502  0.00000000000E+00  0.00000000000E+00  0.15883941775E+01  0.15883941775E+01  0.00000000000E+00 0. -1.
         13   -1    0    0    0    0 -0.00000000000E+00 -0.00000000000E+00 -0.10000000000E+04  0.10000000000E+04  0.00000000000E+00 0.  1.
    9000005    2    1    2  501    0 -0.18886397002E+02  0.25140962589E+02 -0.80633694058E+03  0.80695684221E+03  0.33644406500E+01 0.  0.
         13    1    3    3    0    0 -0.77468538810E+01  0.76731132284E+01 -0.27287233312E+03  0.27309009611E+03  0.00000000000E+00 0.  1.
          1    1    3    3  501    0 -0.11139543121E+02  0.17467849361E+02 -0.53346460746E+03  0.53386674610E+03  0.00000000000E+00 0.  1.
         -1    1    1    2    0  502  0.18886397002E+02 -0.25140962589E+02 -0.19207466525E+03  0.19463155197E+03  0.00000000000E+00 0. -1.
<mgrwt>
<rscale>  1 0.30000000E+03</rscale>
<asrwt>0</asrwt>
<pdfrwt beam="1">  1       21 0.57759910E-02 0.30000000E+03</pdfrwt>
<pdfrwt beam="2">0</pdfrwt>
<totfact> 0.22499699E+04</totfact>
</mgrwt>
</event>
<event>
 6    1  0.1270461E-001  0.3000000E+03  0.7818608E-02  0.1093470E+00
         21   -1    0    0  501  502  0.00000000000E+00  0.00000000000E+00  0.26975721202E+01  0.26975721202E+01  0.00000000000E+00 0. -1.
         13   -1    0    0    0    0 -0.00000000000E+00 -0.00000000000E+00 -0.10000000000E+04  0.10000000000E+04  0.00000000000E+00 0.  1.
    9000005    2    1    2  501    0  0.42600715038E+02  0.16004613939E+01 -0.78469612387E+03  0.78585933079E+03  0.30819757837E+01 0.  0.
         13    1    3    3    0    0  0.52292109424E+01  0.10968784703E+01 -0.89740708881E+02  0.89899625249E+02  0.00000000000E+00 0.  1.
          1    1    3    3  501    0  0.37371504096E+02  0.50358292351E+00 -0.69495541499E+03  0.69595970554E+03  0.00000000000E+00 0.  1.
         -3    1    1    2    0  502 -0.42600715038E+02 -0.16004613939E+01 -0.21260630401E+03  0.21683824133E+03  0.00000000000E+00 0. -1.
<mgrwt>
<rscale>  1 0.30000000E+03</rscale>
<asrwt>0</asrwt>
<pdfrwt beam="1">  1       21 0.98093738E-02 0.30000000E+03</pdfrwt>
<pdfrwt beam="2">0</pdfrwt>
<totfact> 0.89040423E+03</totfact>
</mgrwt>
</event>
<event>
 6    1  0.1270461E-001  0.3000000E+03  0.7818608E-02  0.1093470E+00
         21   -1    0    0  501  502  0.00000000000E+00  0.00000000000E+00  0.23297211346E+01  0.23297211346E+01  0.00000000000E+00 0. -1.
         13   -1    0    0    0    0 -0.00000000000E+00 -0.00000000000E+00 -0.10000000000E+04  0.10000000000E+04  0.00000000000E+00 0.  1.
    9000005    2    1    2  501    0  0.10968441022E+02 -0.40414891573E+02 -0.74756841162E+03  0.74874617640E+03  0.29387864941E+01 0.  0.
         13    1    3    3    0    0  0.25547415915E+01 -0.68483936460E+01 -0.11524061486E+03  0.11547218935E+03  0.00000000000E+00 0.  1.
          3    1    3    3  501    0  0.84136994303E+01 -0.33566497927E+02 -0.63232779676E+03  0.63327398705E+03  0.00000000000E+00 0.  1.
         -3    1    1    2    0  502 -0.10968441022E+02  0.40414891573E+02 -0.25010186725E+03  0.25358354473E+03  0.00000000000E+00 0. -1.
<mgrwt>
<rscale>  1 0.30000000E+03</rscale>
<asrwt>0</asrwt>
<pdfrwt beam="1">  1       21 0.84717311E-02 0.30000000E+03</pdfrwt>
<pdfrwt beam="2">0</pdfrwt>
<totfact> 0.11548896E+04</totfact>
</mgrwt>
</event>
<event>
 6    1  0.1270461E-001  0.3000000E+03  0.7818608E-02  0.1093470E+00
         21   -1    0    0  501  502  0.00000000000E+00  0.00000000000E+00  0.18297864370E+01  0.18297864370E+01  0.00000000000E+00 0. -1.
         13   -1    0    0    0    0 -0.00000000000E+00 -0.00000000000E+00 -0.10000000000E+04  0.10000000000E+04  0.00000000000E+00 0.  1.
    9000005    2    1    2  501    0  0.13648435218E+02 -0.39119560048E+02 -0.62204871137E+03  0.62343316360E+03  0.27731565768E+01 0.  0.
         13    1    3    3    0    0  0.72904380635E+01 -0.21942857121E+02 -0.32693214149E+03  0.32774878277E+03  0.00000000000E+00 0.  1.
          3    1    3    3  501    0  0.63579971543E+01 -0.17176702927E+02 -0.29511656988E+03  0.29568438083E+03  0.00000000000E+00 0.  1.
         -1    1    1    2    0  502 -0.13648435218E+02  0.39119560048E+02 -0.37612150220E+03  0.37839662284E+03  0.00000000000E+00 0. -1.
<mgrwt>
<rscale>  1 0.30000000E+03</rscale>
<asrwt>0</asrwt>
<pdfrwt beam="1">  1       21 0.66537829E-02 0.30000000E+03</pdfrwt>
<pdfrwt beam="2">0</pdfrwt>
<totfact> 0.17621458E+04</totfact>
</mgrwt>
</event>
<event>
 6    1  0.1270461E-001  0.3000000E+03  0.7818608E-02  0.1093470E+00
         21   -1    0    0  501  502  0.00000000000E+00  0.00000000000E+00  0.82191751178E+01  0.82191751178E+01  0.00000000000E+00 0. -1.
         13   -1    0    0    0    0 -0.00000000000E+00 -0.00000000000E+00 -0.10000000000E+04  0.10000000000E+04  0.00000000000E+00 0.  1.
    9000005    2    1    2  501    0 -0.44510503567E+02 -0.76201992454E+02 -0.61085881478E+03  0.61720829757E+03  0.31084419446E+01 0.  0.
         13    1    3    3    0    0 -0.16462963436E+02 -0.31074542982E+02 -0.24023330414E+03  0.24279352710E+03  0.00000000000E+00 0.  1.
          3    1    3    3  501    0 -0.28047540131E+02 -0.45127449472E+02 -0.37062551064E+03  0.37441477047E+03  0.00000000000E+00 0.  1.
         -3    1    1    2    0  502  0.44510503567E+02  0.76201992454E+02 -0.38092201010E+03  0.39101087755E+03  0.00000000000E+00 0. -1.
<mgrwt>
<rscale>  1 0.30000000E+03</rscale>
<asrwt>0</asrwt>
<pdfrwt beam="1">  1       21 0.29887973E-01 0.30000000E+03</pdfrwt>
<pdfrwt beam="2">0</pdfrwt>
<totfact> 0.10954452E+03</totfact>
</mgrwt>
</event>
<event>
 6    1  0.1270461E-001  0.3000000E+03  0.7818608E-02  0.1093470E+00
         21   -1    0    0  501  502  0.00000000000E+00  0.00000000000E+00  0.32226760768E+01  0.32226760768E+01  0.00000000000E+00 0. -1.
         13   -1    0    0    0    0 -0.00000000000E+00 -0.00000000000E+00 -0.10000000000E+04  0.10000000000E+04  0.00000000000E+00 0.  1.
    9000005    2    1    2  501    0  0.42361923466E+02 -0.19564017147E+00 -0.83200623902E+03  0.83309307473E+03  0.38882588795E+01 0.  0.
         13    1    3    3    0    0  0.34942994728E+02 -0.87941082484E+00 -0.65871073719E+03  0.65963749252E+03  0.00000000000E+00 0.  1.
          3    1    3    3  501    0  0.74189287382E+01  0.68377065337E+00 -0.17329550183E+03  0.17345558221E+03  0.00000000000E+00 0.  1.
         -3    1    1    2    0  502 -0.42361923466E+02  0.19564017147E+00 -0.16477108490E+03  0.17012960135E+03  0.00000000000E+00 0. -1.
<mgrwt>
<rscale>  1 0.30000000E+03</rscale>
<asrwt>0</asrwt>
<pdfrwt beam="1">  1       21 0.11718847E-01 0.30000000E+03</pdfrwt>
<pdfrwt beam="2">0</pdfrwt>
<totfact> 0.64692199E+03</totfact>
</mgrwt>
</event>
<event>
 6    1  0.1270461E-001  0.3000000E+03  0.7818608E-02  0.1093470E+00
         21   -1    0    0  501  502  0.00000000000E+00  0.00000000000E+00  0.30165981325E+01  0.30165981325E+01  0.00000000000E+00 0. -1.
         13   -1    0    0    0    0 -0.00000000000E+00 -0.00000000000E+00 -0.10000000000E+04  0.10000000000E+04  0.00000000000E+00 0.  1.
    9000005    2    1    2  501    0 -0.44401977229E+02  0.16243928676E+01 -0.79247405070E+03  0.79373628623E+03  0.52912016806E+01 0.  0.
         13    1    3    3    0    0 -0.23202148356E+02  0.28404885223E+00 -0.45929582743E+03  0.45988159071E+03  0.00000000000E+00 0.  1.
          1    1    3    3  501    0 -0.21199828873E+02  0.13403440154E+01 -0.33317822326E+03  0.33385469552E+03  0.00000000000E+00 0.  1.
         -3    1    1    2    0  502  0.44401977229E+02 -0.16243928676E+01 -0.20450935117E+03  0.20928031190E+03  0.00000000000E+00 0. -1.
<mgrwt>
<rscale>  1 0.30000000E+03</rscale>
<asrwt>0</asrwt>
<pdfrwt beam="1">  1       21 0.10969471E-01 0.30000000E+03</pdfrwt>
<pdfrwt beam="2">0</pdfrwt>
<totfact> 0.72883708E+03</totfact>
</mgrwt>
</event>
<event>
 6    1  0.1270461E-001  0.3000000E+03  0.7818608E-02  0.1093470E+00
         21   -1    0    0  501  502  0.00000000000E+00  0.00000000000E+00  0.38849011704E+01  0.38849011704E+01  0.00000000000E+00 0. -1.
         13   -1    0    0    0    0 -0.00000000000E+00 -0.00000000000E+00 -0.10000000000E+04  0.10000000000E+04  0.00000000000E+00 0.  1.
    9000005    2    1    2  501    0 -0.36186598142E+02  0.14411222666E+02 -0.88980964409E+03  0.89066828167E+03  0.34105766149E+01 0.  0.
         13    1    3    3    0    0 -0.17308664900E+02  0.61576137789E+01 -0.38406723330E+03  0.38450636637E+03  0.00000000000E+00 0.  1.
          3    1    3    3  501    0 -0.18877933242E+02  0.82536088870E+01 -0.50574241079E+03  0.50616191529E+03  0.00000000000E+00 0.  1.
         -1    1    1    2    0  502  0.36186598142E+02 -0.14411222666E+02 -0.10630545474E+03  0.11321661950E+03  0.00000000000E+00 0. -1.
<mgrwt>
<rscale>  1 0.30000000E+03</rscale>
<asrwt>0</asrwt>
<pdfrwt beam="1">  1       21 0.14126943E-01 0.30000000E+03</pdfrwt>
<pdfrwt beam="2">0</pdfrwt>
<totfact> 0.45997222E+03</totfact>
</mgrwt>
</event>
<event>
 6    1  0.1270461E-001  0.3000000E+03  0.7818608E-02  0.1093470E+00
         21   -1    0    0  501  502  0.00000000000E+00  0.00000000000E+00  0.37244690856E+01  0.37244690856E+01  0.00000000000E+00 0. -1.
         13   -1    0    0    0    0 -0.00000000000E+00 -0.00000000000E+00 -0.10000000000E+04  0.10000000000E+04  0.00000000000E+00 0.  1.
    9000005    2    1    2  501    0  0.16229674258E+02  0.28926730219E+02 -0.91932883744E+03  0.91993334972E+03  0.34203117609E+01 0.  0.
         13    1    3    3    0    0  0.22121390894E+01  0.24328119162E+01 -0.11212114634E+03  0.11216935227E+03  0.00000000000E+00 0.  1.
          3    1    3    3  501    0  0.14017535169E+02  0.26493918303E+02 -0.80720769110E+03  0.80776399745E+03  0.00000000000E+00 0.  1.
         -3    1    1    2    0  502 -0.16229674258E+02 -0.28926730219E+02 -0.76946693472E+02  0.83791119362E+02  0.00000000000E+00 0. -1.
<mgrwt>
<rscale>  1 0.30000000E+03</rscale>
<asrwt>0</asrwt>
<pdfrwt beam="1">  1       21 0.13543553E-01 0.30000000E+03</pdfrwt>
<pdfrwt beam="2">0</pdfrwt>
<totfact> 0.49698934E+03</totfact>
</mgrwt>
</event>
<event>
 6    1  0.1270461E-001  0.3000000E+03  0.7818608E-02  0.1093470E+00
         21   -1    0    0  501  502  0.00000000000E+00  0.00000000000E+00  0.13232546721E+02  0.13232546721E+02  0.00000000000E+00 0. -1.
         13   -1    0    0    0    0 -0.00000000000E+00 -0.00000000000E+00 -0.10000000000E+04  0.10000000000E+04  0.00000000000E+00 0.  1.
    9000005    2    1    2  501    0 -0.50782750215E+02 -0.88994102057E+01 -0.94612792886E+03  0.94758455996E+03  0.10017648219E+02 0.  0.
         13    1    3    3    0    0 -0.49420992436E+02 -0.68752214705E+01 -0.88202988529E+03  0.88344010646E+03  0.00000000000E+00 0.  1.
          3    1    3    3  501    0 -0.13617577786E+01 -0.20241887352E+01 -0.64098043576E+02  0.64144453498E+02  0.00000000000E+00 0.  1.
         -1    1    1    2    0  502  0.50782750215E+02  0.88994102057E+01 -0.40639524417E+02  0.65647986764E+02  0.00000000000E+00 0. -1.
<mgrwt>
<rscale>  1 0.30000000E+03</rscale>
<asrwt>0</asrwt>
<pdfrwt beam="1">  1       21 0.48118453E-01 0.30000000E+03</pdfrwt>
<pdfrwt beam="2">0</pdfrwt>
<totfact> 0.40817473E+02</totfact>
</mgrwt>
</event>
<event>
 6    1  0.1270461E-001  0.3000000E+03  0.7818608E-02  0.1093470E+00
         21   -1    0    0  501  502  0.00000000000E+00  0.00000000000E+00  0.14827899637E+01  0.14827899637E+01  0.00000000000E+00 0. -1.
         13   -1    0    0    0    0 -0.00000000000E+00 -0.00000000000E+00 -0.10000000000E+04  0.10000000000E+04  0.00000000000E+00 0.  1.
    9000005    2    1    2  501    0  0.42672198605E+01 -0.30399616125E+02 -0.80092330621E+03  0.80151855153E+03  0.33911914141E+01 0.  0.
         13    1    3    3    0    0  0.26234107231E+01 -0.10390268482E+02 -0.30879318128E+03  0.30897907497E+03  0.00000000000E+00 0.  1.
          1    1    3    3  501    0  0.16438091374E+01 -0.20009347643E+02 -0.49213012493E+03  0.49253947656E+03  0.00000000000E+00 0.  1.
         -1    1    1    2    0  502 -0.42672198605E+01  0.30399616125E+02 -0.19759390382E+03  0.19996423844E+03  0.00000000000E+00 0. -1.
<mgrwt>
<rscale>  1 0.30000000E+03</rscale>
<asrwt>0</asrwt>
<pdfrwt beam="1">  1       21 0.53919749E-02 0.30000000E+03</pdfrwt>
<pdfrwt beam="2">0</pdfrwt>
<totfact> 0.25320291E+04</totfact>
</mgrwt>
</event>
<event>
 6    1  0.1270461E-001  0.3000000E+03  0.7818608E-02  0.1093470E+00
         21   -1    0    0  501  502  0.00000000000E+00  0.00000000000E+00  0.11598829732E+01  0.11598829732E+01  0.00000000000E+00 0. -1.
         13   -1    0    0    0    0 -0.00000000000E+00 -0.00000000000E+00 -0.10000000000E+04  0.10000000000E+04  0.00000000000E+00 0.  1.
    9000005    2    1    2  501    0 -0.24823946726E+02  0.21204994067E+02 -0.36058743737E+03  0.36207275026E+03  0.27379537332E+01 0.  0.
         13    1    3    3    0    0 -0.12594264128E+02  0.12550465956E+02 -0.19506053735E+03  0.19586919849E+03  0.00000000000E+00 0.  1.
          3    1    3    3  501    0 -0.12229682598E+02  0.86545281108E+01 -0.16552690001E+03  0.16620355177E+03  0.00000000000E+00 0.  1.
         -1    1    1    2    0  502  0.24823946726E+02 -0.21204994067E+02 -0.63825267966E+03  0.63908713271E+03  0.00000000000E+00 0. -1.
<mgrwt>
<rscale>  1 0.30000000E+03</rscale>
<asrwt>0</asrwt>
<pdfrwt beam="1">  1       21 0.42177652E-02 0.30000000E+03</pdfrwt>
<pdfrwt beam="2">0</pdfrwt>
<totfact> 0.38451379E+04</totfact>
</mgrwt>
</event>
<event>
 6    1  0.1270461E-001  0.3000000E+03  0.7818608E-02  0.1093470E+00
         21   -1    0    0  501  502  0.00000000000E+00  0.00000000000E+00  0.10777457481E+01  0.10777457481E+01  0.00000000000E+00 0. -1.
         13   -1    0    0    0    0 -0.00000000000E+00 -0.00000000000E+00 -0.10000000000E+04  0.10000000000E+04  0.00000000000E+00 0.  1.
    9000005    2    1    2  501    0  0.25118457849E+02 -0.20449632175E+02 -0.42607019580E+03  0.42731071528E+03  0.30840334375E+01 0.  0.
         13    1    3    3    0    0  0.10166868182E+02 -0.86711417955E+01 -0.19559584069E+03  0.19605174522E+03  0.00000000000E+00 0.  1.
          1    1    3    3  501    0  0.14951589668E+02 -0.11778490379E+02 -0.23047435511E+03  0.23125897006E+03  0.00000000000E+00 0.  1.
         -1    1    1    2    0  502 -0.25118457849E+02  0.20449632175E+02 -0.57285205845E+03  0.57376703046E+03  0.00000000000E+00 0. -1.
<mgrwt>
<rscale>  1 0.30000000E+03</rscale>
<asrwt>0</asrwt>
<pdfrwt beam="1">  1       21 0.39190837E-02 0.30000000E+03</pdfrwt>
<pdfrwt beam="2">0</pdfrwt>
<totfact> 0.43518851E+04</totfact>
</mgrwt>
</event>
<event>
 6    1  0.1270461E-001  0.3000000E+03  0.7818608E-02  0.1093470E+00
         21   -1    0    0  501  502  0.00000000000E+00  0.00000000000E+00  0.29927090095E+01  0.29927090095E+01  0.00000000000E+00 0. -1.
         13   -1    0    0    0    0 -0.00000000000E+00 -0.00000000000E+00 -0.10000000000E+04  0.10000000000E+04  0.00000000000E+00 0.  1.
    9000005    2    1    2  501    0 -0.49227527140E+02 -0.14650988416E+02 -0.67083855905E+03  0.67280481919E+03  0.19878438225E+01 0.  0.
         13    1    3    3    0    0 -0.48099079737E+01 -0.15723188366E+01 -0.58913305297E+02  0.59130237123E+02  0.00000000000E+00 0.  1.
          3    1    3    3  501    0 -0.44417619166E+02 -0.13078669579E+02 -0.61192525375E+03  0.61367458206E+03  0.00000000000E+00 0.  1.
         -1    1    1    2    0  502  0.49227527140E+02  0.14650988416E+02 -0.32616873194E+03  0.33018788982E+03  0.00000000000E+00 0. -1.
<mgrwt>
<rscale>  1 0.30000000E+03</rscale>
<asrwt>0</asrwt>
<pdfrwt beam="1">  1       21 0.10882601E-01 0.30000000E+03</pdfrwt>
<pdfrwt beam="2">0</pdfrwt>
<totfact> 0.73933159E+03</totfact>
</mgrwt>
</event>
<event>
 6    1  0.1270461E-001  0.3000000E+03  0.7818608E-02  0.1093470E+00
         21   -1    0    0  501  502  0.00000000000E+00  0.00000000000E+00  0.39800452369E+01  0.39800452369E+01  0.00000000000E+00 0. -1.
         13   -1    0    0    0    0 -0.00000000000E+00 -0.00000000000E+00 -0.10000000000E+04  0.10000000000E+04  0.00000000000E+00 0.  1.
    9000005    2    1    2  501    0  0.51114269057E+02  0.69487436272E+00 -0.79197057115E+03  0.79362486392E+03  0.31444748521E+01 0.  0.
         13    1    3    3    0    0  0.26162452239E+02  0.17591583887E+01 -0.39465476856E+03  0.39552491059E+03  0.00000000000E+00 0.  1.
          1    1    3    3  501    0  0.24951816818E+02 -0.10642840260E+01 -0.39731580258E+03  0.39809995333E+03  0.00000000000E+00 0.  1.
         -3    1    1    2    0  502 -0.51114269057E+02 -0.69487436272E+00 -0.20404938362E+03  0.21035518132E+03  0.00000000000E+00 0. -1.
<mgrwt>
<rscale>  1 0.30000000E+03</rscale>
<asrwt>0</asrwt>
<pdfrwt beam="1">  1       21 0.14472922E-01 0.30000000E+03</pdfrwt>
<pdfrwt beam="2">0</pdfrwt>
<totfact> 0.43993114E+03</totfact>
</mgrwt>
</event>
<event>
 6    1  0.1270461E-001  0.3000000E+03  0.7818608E-02  0.1093470E+00
         21   -1    0    0  501  502  0.00000000000E+00  0.00000000000E+00  0.14725269066E+02  0.14725269066E+02  0.00000000000E+00 0. -1.
         13   -1    0    0    0    0 -0.00000000000E+00 -0.00000000000E+00 -0.10000000000E+04  0.10000000000E+04  0.00000000000E+00 0.  1.
    9000005    2    1    2  501    0 -0.69607553204E+02 -0.95972020255E+02 -0.60045880760E+03  0.61206022839E+03  0.33321783316E+01 0.  0.
         13    1    3    3    0    0 -0.51449718098E+01 -0.69834472098E+01 -0.39662593787E+02  0.40600007583E+02  0.00000000000E+00 0.  1.
          1    1    3    3  501    0 -0.64462581394E+02 -0.88988573045E+02 -0.56079621381E+03  0.57146022080E+03  0.00000000000E+00 0.  1.
         -3    1    1    2    0  502  0.69607553204E+02  0.95972020255E+02 -0.38481592333E+03  0.40266504068E+03  0.00000000000E+00 0. -1.
<mgrwt>
<rscale>  1 0.30000000E+03</rscale>
<asrwt>0</asrwt>
<pdfrwt beam="1">  1       21 0.53546546E-01 0.30000000E+03</pdfrwt>
<pdfrwt beam="2">0</pdfrwt>
<totfact> 0.32347618E+02</totfact>
</mgrwt>
</event>
<event>
 6    1  0.1270461E-001  0.3000000E+03  0.7818608E-02  0.1093470E+00
         21   -1    0    0  501  502  0.00000000000E+00  0.00000000000E+00  0.29909102507E+01  0.29909102507E+01  0.00000000000E+00 0. -1.
         13   -1    0    0    0    0 -0.00000000000E+00 -0.00000000000E+00 -0.10000000000E+04  0.10000000000E+04  0.00000000000E+00 0.  1.
    9000005    2    1    2  501    0 -0.40637200424E+02  0.37166649381E+01 -0.83210829759E+03  0.83311605363E+03  0.35978109854E+01 0.  0.
         13    1    3    3    0    0 -0.38810896545E+01  0.57871842451E+00 -0.61246584150E+02  0.61372158525E+02  0.00000000000E+00 0.  1.
          1    1    3    3  501    0 -0.36756110770E+02  0.31379465136E+01 -0.77086171344E+03  0.77174389511E+03  0.00000000000E+00 0.  1.
         -1    1    1    2    0  502  0.40637200424E+02 -0.37166649381E+01 -0.16490079216E+03  0.16987485662E+03  0.00000000000E+00 0. -1.
<mgrwt>
<rscale>  1 0.30000000E+03</rscale>
<asrwt>0</asrwt>
<pdfrwt beam="1">  1       21 0.10876060E-01 0.30000000E+03</pdfrwt>
<pdfrwt beam="2">0</pdfrwt>
<totfact> 0.74013101E+03</totfact>
</mgrwt>
</event>
<event>
 6    1  0.1270461E-001  0.3000000E+03  0.7818608E-02  0.1093470E+00
         21   -1    0    0  501  502  0.00000000000E+00  0.00000000000E+00  0.18054790976E+01  0.18054790976E+01  0.00000000000E+00 0. -1.
         13   -1    0    0    0    0 -0.00000000000E+00 -0.00000000000E+00 -0.10000000000E+04  0.10000000000E+04  0.00000000000E+00 0.  1.
    9000005    2    1    2  501    0  0.38277094254E+02  0.15972662973E+02 -0.60422879584E+03  0.60566250689E+03  0.37911239435E+01 0.  0.
         13    1    3    3    0    0  0.12535227013E+02  0.34582291422E+01 -0.17958883693E+03  0.18005899482E+03  0.00000000000E+00 0.  1.
          3    1    3    3  501    0  0.25741867241E+02  0.12514433831E+02 -0.42463995891E+03  0.42560351207E+03  0.00000000000E+00 0.  1.
         -3    1    1    2    0  502 -0.38277094254E+02 -0.15972662973E+02 -0.39396572506E+03  0.39614297221E+03  0.00000000000E+00 0. -1.
<mgrwt>
<rscale>  1 0.30000000E+03</rscale>
<asrwt>0</asrwt>
<pdfrwt beam="1">  1       21 0.65653924E-02 0.30000000E+03</pdfrwt>
<pdfrwt beam="2">0</pdfrwt>
<totfact> 0.18034660E+04</totfact>
</mgrwt>
</event>
<event>
 6    1  0.1270461E-001  0.3000000E+03  0.7818608E-02  0.1093470E+00
         21   -1    0    0  501  502  0.00000000000E+00  0.00000000000E+00  0.11732986216E+01  0.11732986216E+01  0.00000000000E+00 0. -1.
         13   -1    0    0    0    0 -0.00000000000E+00 -0.00000000000E+00 -0.10000000000E+04  0.10000000000E+04  0.00000000000E+00 0.  1.
    9000005    2    1    2  501    0 -0.50802862619E+01  0.32838875120E+02 -0.61652816214E+03  0.61743331617E+03  0.35670965681E+01 0.  0.
         13    1    3    3    0    0  0.16467573630E+00  0.93867339157E+01 -0.17132617571E+03  0.17158320540E+03  0.00000000000E+00 0.  1.
          1    1    3    3  501    0 -0.52449619982E+01  0.23452141205E+02 -0.44520198642E+03  0.44585011076E+03  0.00000000000E+00 0.  1.
         -1    1    1    2    0  502  0.50802862619E+01 -0.32838875120E+02 -0.38229853924E+03  0.38373998246E+03  0.00000000000E+00 0. -1.
<mgrwt>
<rscale>  1 0.30000000E+03</rscale>
<asrwt>0</asrwt>
<pdfrwt beam="1">  1       21 0.42665494E-02 0.30000000E+03</pdfrwt>
<pdfrwt beam="2">0</pdfrwt>
<totfact> 0.37711422E+04</totfact>
</mgrwt>
</event>
<event>
 6    1  0.1270461E-001  0.3000000E+03  0.7818608E-02  0.1093470E+00
         21   -1    0    0  501  502  0.00000000000E+00  0.00000000000E+00  0.12785403566E+01  0.12785403566E+01  0.00000000000E+00 0. -1.
         13   -1    0    0    0    0 -0.00000000000E+00 -0.00000000000E+00 -0.10000000000E+04  0.10000000000E+04  0.00000000000E+00 0.  1.
    9000005    2    1    2  501    0  0.21601814943E+02  0.22144236354E+02 -0.74923633805E+03  0.74988277367E+03  0.34753958877E+01 0.  0.
         13    1    3    3    0    0  0.11612614458E+02  0.12421176405E+02 -0.45200896738E+03  0.45232869137E+03  0.00000000000E+00 0.  1.
          3    1    3    3  501    0  0.99892004849E+01  0.97230599482E+01 -0.29722737067E+03  0.29755408230E+03  0.00000000000E+00 0.  1.
         -3    1    1    2    0  502 -0.21601814943E+02 -0.22144236354E+02 -0.24948512159E+03  0.25139576669E+03  0.00000000000E+00 0. -1.
<mgrwt>
<rscale>  1 0.30000000E+03</rscale>
<asrwt>0</asrwt>
<pdfrwt beam="1">  1       21 0.46492475E-02 0.30000000E+03</pdfrwt>
<pdfrwt beam="2">0</pdfrwt>
<totfact> 0.32600489E+04</totfact>
</mgrwt>
</event>
<event>
 6    1  0.1270461E-001  0.3000000E+03  0.7818608E-02  0.1093470E+00
         21   -1    0    0  501  502  0.00000000000E+00  0.00000000000E+00  0.22756473844E+01  0.22756473844E+01  0.00000000000E+00 0. -1.
         13   -1    0    0    0    0 -0.00000000000E+00 -0.00000000000E+00 -0.10000000000E+04  0.10000000000E+04  0.00000000000E+00 0.  1.
    9000005    2    1    2  501    0  0.28162507002E+02  0.11010698566E+02 -0.88587254779E+03  0.88640853158E+03  0.59625191674E+01 0.  0.
         13    1    3    3    0    0  0.19044889969E+02  0.67556188534E+01 -0.50732645515E+03  0.50772874482E+03  0.00000000000E+00 0.  1.
          3    1    3    3  501    0  0.91176170330E+01  0.42550797126E+01 -0.37854609264E+03  0.37867978676E+03  0.00000000000E+00 0.  1.
         -1    1    1    2    0  502 -0.28162507002E+02 -0.11010698566E+02 -0.11185180482E+03  0.11586711581E+03  0.00000000000E+00 0. -1.
<mgrwt>
<rscale>  1 0.30000000E+03</rscale>
<asrwt>0</asrwt>
<pdfrwt beam="1">  1       21 0.82750988E-02 0.30000000E+03</pdfrwt>
<pdfrwt beam="2">0</pdfrwt>
<totfact> 0.12036659E+04</totfact>
</mgrwt>
</event>
<event>
 6    1  0.1270461E-001  0.3000000E+03  0.7818608E-02  0.1093470E+00
         21   -1    0    0  501  502  0.00000000000E+00  0.00000000000E+00  0.22207873748E+01  0.22207873748E+01  0.00000000000E+00 0. -1.
         13   -1    0    0    0    0 -0.00000000000E+00 -0.00000000000E+00 -0.10000000000E+04  0.10000000000E+04  0.00000000000E+00 0.  1.
    9000005    2    1    2  501    0 -0.94005769444E+00  0.44694508404E+02 -0.65633089705E+03  0.65785842735E+03  0.29968697488E+01 0.  0.
         13    1    3    3    0    0 -0.85239364202E+00  0.50667561352E+01 -0.67018812153E+02  0.67215472735E+02  0.00000000000E+00 0.  1.
          1    1    3    3  501    0 -0.87664052418E-01  0.39627752269E+02 -0.58931208489E+03  0.59064295462E+03  0.00000000000E+00 0.  1.
         -3    1    1    2    0  502  0.94005769444E+00 -0.44694508404E+02 -0.34144831558E+03  0.34436236002E+03  0.00000000000E+00 0. -1.
<mgrwt>
<rscale>  1 0.30000000E+03</rscale>
<asrwt>0</asrwt>
<pdfrwt beam="1">  1       21 0.80756075E-02 0.30000000E+03</pdfrwt>
<pdfrwt beam="2">0</pdfrwt>
<totfact> 0.12564494E+04</totfact>
</mgrwt>
</event>
<event>
 6    1  0.1270461E-001  0.3000000E+03  0.7818608E-02  0.1093470E+00
         21   -1    0    0  501  502  0.00000000000E+00  0.00000000000E+00  0.41681807559E+01  0.41681807559E+01  0.00000000000E+00 0. -1.
         13   -1    0    0    0    0 -0.00000000000E+00 -0.00000000000E+00 -0.10000000000E+04  0.10000000000E+04  0.00000000000E+00 0.  1.
    9000005    2    1    2  501    0  0.15417893084E+02  0.61783941679E+02 -0.57545779918E+03  0.57899846920E+03  0.57080492950E+01 0.  0.
         13    1    3    3    0    0  0.59544548387E+01  0.35100864611E+02 -0.31332486661E+03  0.31534108242E+03  0.00000000000E+00 0.  1.
          1    1    3    3  501    0  0.94634382457E+01  0.26683077068E+02 -0.26213293257E+03  0.26365738677E+03  0.00000000000E+00 0.  1.
         -3    1    1    2    0  502 -0.15417893084E+02 -0.61783941679E+02 -0.42037402007E+03  0.42516971156E+03  0.00000000000E+00 0. -1.
<mgrwt>
<rscale>  1 0.30000000E+03</rscale>
<asrwt>0</asrwt>
<pdfrwt beam="1">  1       21 0.15157053E-01 0.30000000E+03</pdfrwt>
<pdfrwt beam="2">0</pdfrwt>
<totfact> 0.40393580E+03</totfact>
</mgrwt>
</event>
<event>
 6    1  0.1270461E-001  0.3000000E+03  0.7818608E-02  0.1093470E+00
         21   -1    0    0  501  502  0.00000000000E+00  0.00000000000E+00  0.25655498865E+01  0.25655498865E+01  0.00000000000E+00 0. -1.
         13   -1    0    0    0    0 -0.00000000000E+00 -0.00000000000E+00 -0.10000000000E+04  0.10000000000E+04  0.00000000000E+00 0.  1.
    9000005    2    1    2  501    0 -0.26761072607E+02 -0.42647153854E+02 -0.45768077157E+03  0.46046872437E+03  0.49822399275E+01 0.  0.
         13    1    3    3    0    0 -0.26039433478E+02 -0.39877604852E+02 -0.43781905623E+03  0.44040186360E+03  0.00000000000E+00 0.  1.
          1    1    3    3  501    0 -0.72163912907E+00 -0.27695490020E+01 -0.19861715340E+02  0.20066860765E+02  0.00000000000E+00 0.  1.
         -1    1    1    2    0  502  0.26761072607E+02  0.42647153854E+02 -0.53975367854E+03  0.54209682552E+03  0.00000000000E+00 0. -1.
<mgrwt>
<rscale>  1 0.30000000E+03</rscale>
<asrwt>0</asrwt>
<pdfrwt beam="1">  1       21 0.93292920E-02 0.30000000E+03</pdfrwt>
<pdfrwt beam="2">0</pdfrwt>
<totfact> 0.97369087E+03</totfact>
</mgrwt>
</event>
<event>
 6    1  0.1270461E-001  0.3000000E+03  0.7818608E-02  0.1093470E+00
         21   -1    0    0  501  502  0.00000000000E+00  0.00000000000E+00  0.35677030303E+01  0.35677030303E+01  0.00000000000E+00 0. -1.
         13   -1    0    0    0    0 -0.00000000000E+00 -0.00000000000E+00 -0.10000000000E+04  0.10000000000E+04  0.00000000000E+00 0.  1.
    9000005    2    1    2  501    0  0.36249871573E+02 -0.40670808922E+02 -0.70338667072E+03  0.70550075258E+03  0.32148802377E+01 0.  0.
         13    1    3    3    0    0  0.52810971197E+01 -0.68912568622E+01 -0.99869360623E+02  0.10024604032E+03  0.00000000000E+00 0.  1.
          3    1    3    3  501    0  0.30968774453E+02 -0.33779552060E+02 -0.60351731010E+03  0.60525471227E+03  0.00000000000E+00 0.  1.
         -1    1    1    2    0  502 -0.36249871573E+02  0.40670808922E+02 -0.29304562625E+03  0.29806695045E+03  0.00000000000E+00 0. -1.
<mgrwt>
<rscale>  1 0.30000000E+03</rscale>
<asrwt>0</asrwt>
<pdfrwt beam="1">  1       21 0.12973493E-01 0.30000000E+03</pdfrwt>
<pdfrwt beam="2">0</pdfrwt>
<totfact> 0.53765256E+03</totfact>
</mgrwt>
</event>
<event>
 6    1  0.1270461E-001  0.3000000E+03  0.7818608E-02  0.1093470E+00
         21   -1    0    0  501  502  0.00000000000E+00  0.00000000000E+00  0.17688863163E+01  0.17688863163E+01  0.00000000000E+00 0. -1.
         13   -1    0    0    0    0 -0.00000000000E+00 -0.00000000000E+00 -0.10000000000E+04  0.10000000000E+04  0.00000000000E+00 0.  1.
    9000005    2    1    2  501    0  0.22454664069E+02  0.31264408076E+02 -0.69986546331E+03  0.70093049702E+03  0.31968373937E+01 0.  0.
         13    1    3    3    0    0  0.19617590504E+02  0.28593251891E+02 -0.61738189236E+03  0.61835493442E+03  0.00000000000E+00 0.  1.
          1    1    3    3  501    0  0.28370735650E+01  0.26711561850E+01 -0.82483570948E+02  0.82575562597E+02  0.00000000000E+00 0.  1.
         -1    1    1    2    0  502 -0.22454664069E+02 -0.31264408076E+02 -0.29836565037E+03  0.30083838930E+03  0.00000000000E+00 0. -1.
<mgrwt>
<rscale>  1 0.30000000E+03</rscale>
<asrwt>0</asrwt>
<pdfrwt beam="1">  1       21 0.64323274E-02 0.30000000E+03</pdfrwt>
<pdfrwt beam="2">0</pdfrwt>
<totfact> 0.18685482E+04</totfact>
</mgrwt>
</event>
<event>
 6    1  0.1270461E-001  0.3000000E+03  0.7818608E-02  0.1093470E+00
         21   -1    0    0  501  502  0.00000000000E+00  0.00000000000E+00  0.12898907645E+01  0.12898907645E+01  0.00000000000E+00 0. -1.
         13   -1    0    0    0    0 -0.00000000000E+00 -0.00000000000E+00 -0.10000000000E+04  0.10000000000E+04  0.00000000000E+00 0.  1.
    9000005    2    1    2  501    0  0.77320280795E+01 -0.34491741537E+02 -0.58247601881E+03  0.58355758112E+03  0.34166498232E+01 0.  0.
         13    1    3    3    0    0  0.47093900861E+01 -0.15462216867E+02 -0.28544658890E+03  0.28590385380E+03  0.00000000000E+00 0.  1.
          1    1    3    3  501    0  0.30226379934E+01 -0.19029524670E+02 -0.29702942991E+03  0.29765372731E+03  0.00000000000E+00 0.  1.
         -1    1    1    2    0  502 -0.77320280795E+01  0.34491741537E+02 -0.41623409043E+03  0.41773230965E+03  0.00000000000E+00 0. -1.
<mgrwt>
<rscale>  1 0.30000000E+03</rscale>
<asrwt>0</asrwt>
<pdfrwt beam="1">  1       21 0.46905218E-02 0.30000000E+03</pdfrwt>
<pdfrwt beam="2">0</pdfrwt>
<totfact> 0.32114363E+04</totfact>
</mgrwt>
</event>
<event>
 6    1  0.1270461E-001  0.3000000E+03  0.7818608E-02  0.1093470E+00
         21   -1    0    0  501  502  0.00000000000E+00  0.00000000000E+00  0.16688402654E+01  0.16688402654E+01  0.00000000000E+00 0. -1.
         13   -1    0    0    0    0 -0.00000000000E+00 -0.00000000000E+00 -0.10000000000E+04  0.10000000000E+04  0.00000000000E+00 0.  1.
    9000005    2    1    2  501    0  0.14529405935E+02 -0.27740694802E+02 -0.82030530906E+03  0.82090973733E+03  0.33685292163E+01 0.  0.
         13    1    3    3    0    0  0.43352762035E+01 -0.86157313087E+01 -0.29478301158E+03  0.29494075569E+03  0.00000000000E+00 0.  1.
          1    1    3    3  501    0  0.10194129732E+02 -0.19124963494E+02 -0.52552229747E+03  0.52596898164E+03  0.00000000000E+00 0.  1.
         -3    1    1    2    0  502 -0.14529405935E+02  0.27740694802E+02 -0.17802585068E+03  0.18075910294E+03  0.00000000000E+00 0. -1.
<mgrwt>
<rscale>  1 0.30000000E+03</rscale>
<asrwt>0</asrwt>
<pdfrwt beam="1">  1       21 0.60685229E-02 0.30000000E+03</pdfrwt>
<pdfrwt beam="2">0</pdfrwt>
<totfact> 0.20662907E+04</totfact>
</mgrwt>
</event>
<event>
 6    1  0.1270461E-001  0.3000000E+03  0.7818608E-02  0.1093470E+00
         21   -1    0    0  501  502  0.00000000000E+00  0.00000000000E+00  0.41153924321E+01  0.41153924321E+01  0.00000000000E+00 0. -1.
         13   -1    0    0    0    0 -0.00000000000E+00 -0.00000000000E+00 -0.10000000000E+04  0.10000000000E+04  0.00000000000E+00 0.  1.
    9000005    2    1    2  501    0 -0.50029790216E+02  0.33380372648E+02 -0.67182714129E+03  0.67452402326E+03  0.37041846315E+01 0.  0.
         13    1    3    3    0    0 -0.32607021701E+02  0.23333750508E+02 -0.46013090043E+03  0.46187457963E+03  0.00000000000E+00 0.  1.
          1    1    3    3  501    0 -0.17422768515E+02  0.10046622140E+02 -0.21169624087E+03  0.21264944363E+03  0.00000000000E+00 0.  1.
         -1    1    1    2    0  502  0.50029790216E+02 -0.33380372648E+02 -0.32405746627E+03  0.32959136918E+03  0.00000000000E+00 0. -1.
<mgrwt>
<rscale>  1 0.30000000E+03</rscale>
<asrwt>0</asrwt>
<pdfrwt beam="1">  1       21 0.14965095E-01 0.30000000E+03</pdfrwt>
<pdfrwt beam="2">0</pdfrwt>
<totfact> 0.41358290E+03</totfact>
</mgrwt>
</event>
<event>
 6    1  0.1270461E-001  0.3000000E+03  0.7818608E-02  0.1093470E+00
         21   -1    0    0  501  502  0.00000000000E+00  0.00000000000E+00  0.78084177146E+01  0.78084177146E+01  0.00000000000E+00 0. -1.
         13   -1    0    0    0    0 -0.00000000000E+00 -0.00000000000E+00 -0.10000000000E+04  0.10000000000E+04  0.00000000000E+00 0.  1.
    9000005    2    1    2  501    0 -0.73634252047E+02  0.30985791051E+02 -0.71124332757E+03  0.71572273825E+03  0.31376282973E+01 0.  0.
         13    1    3    3    0    0 -0.36492447652E+02  0.15716933485E+02 -0.34000875419E+03  0.34232247028E+03  0.00000000000E+00 0.  1.
          1    1    3    3  501    0 -0.37141804394E+02  0.15268857566E+02 -0.37123457338E+03  0.37340026797E+03  0.00000000000E+00 0.  1.
         -3    1    1    2    0  502  0.73634252047E+02 -0.30985791051E+02 -0.28094825471E+03  0.29208567946E+03  0.00000000000E+00 0. -1.
<mgrwt>
<rscale>  1 0.30000000E+03</rscale>
<asrwt>0</asrwt>
<pdfrwt beam="1">  1       21 0.28394306E-01 0.30000000E+03</pdfrwt>
<pdfrwt beam="2">0</pdfrwt>
<totfact> 0.12132602E+03</totfact>
</mgrwt>
</event>
<event>
 6    1  0.1270461E-001  0.3000000E+03  0.7818608E-02  0.1093470E+00
         21   -1    0    0  501  502  0.00000000000E+00  0.00000000000E+00  0.96449457196E+00  0.96449457196E+00  0.00000000000E+00 0. -1.
         13   -1    0    0    0    0 -0.00000000000E+00 -0.00000000000E+00 -0.10000000000E+04  0.10000000000E+04  0.00000000000E+00 0.  1.
    9000005    2    1    2  501    0  0.92319935026E+01 -0.29016522236E+02 -0.59272394463E+03  0.59351354942E+03  0.30774244503E+01 0.  0.
         13    1    3    3    0    0  0.47310372048E+01 -0.13235937119E+02 -0.24551411178E+03  0.24591614796E+03  0.00000000000E+00 0.  1.
          3    1    3    3  501    0  0.45009562978E+01 -0.15780585117E+02 -0.34720983285E+03  0.34759740146E+03  0.00000000000E+00 0.  1.
         -3    1    1    2    0  502 -0.92319935026E+01  0.29016522236E+02 -0.40631156080E+03  0.40745094515E+03  0.00000000000E+00 0. -1.
<mgrwt>
<rscale>  1 0.30000000E+03</rscale>
<asrwt>0</asrwt>
<pdfrwt beam="1">  1       21 0.35072604E-02 0.30000000E+03</pdfrwt>
<pdfrwt beam="2">0</pdfrwt>
<totfact> 0.52434534E+04</totfact>
</mgrwt>
</event>
<event>
 6    1  0.1270461E-001  0.3000000E+03  0.7818608E-02  0.1093470E+00
         21   -1    0    0  501  502  0.00000000000E+00  0.00000000000E+00  0.76100104301E+01  0.76100104301E+01  0.00000000000E+00 0. -1.
         13   -1    0    0    0    0 -0.00000000000E+00 -0.00000000000E+00 -0.10000000000E+04  0.10000000000E+04  0.00000000000E+00 0.  1.
    9000005    2    1    2  501    0  0.35848220050E+02  0.22229252483E+02 -0.93713842321E+03  0.93809763648E+03  0.44177786969E+01 0.  0.
         13    1    3    3    0    0  0.91200639160E+01  0.78433958518E+01 -0.25058974879E+03  0.25087829045E+03  0.00000000000E+00 0.  1.
          3    1    3    3  501    0  0.26728156134E+02  0.14385856631E+02 -0.68654867443E+03  0.68721934603E+03  0.00000000000E+00 0.  1.
         -3    1    1    2    0  502 -0.35848220050E+02 -0.22229252483E+02 -0.55251566357E+02  0.69512373946E+02  0.00000000000E+00 0. -1.
<mgrwt>
<rscale>  1 0.30000000E+03</rscale>
<asrwt>0</asrwt>
<pdfrwt beam="1">  1       21 0.27672824E-01 0.30000000E+03</pdfrwt>
<pdfrwt beam="2">0</pdfrwt>
<totfact> 0.12767915E+03</totfact>
</mgrwt>
</event>
<event>
 6    1  0.1270461E-001  0.3000000E+03  0.7818608E-02  0.1093470E+00
         21   -1    0    0  501  502  0.00000000000E+00  0.00000000000E+00  0.20011229482E+01  0.20011229482E+01  0.00000000000E+00 0. -1.
         13   -1    0    0    0    0 -0.00000000000E+00 -0.00000000000E+00 -0.10000000000E+04  0.10000000000E+04  0.00000000000E+00 0.  1.
    9000005    2    1    2  501    0 -0.65293793999E+00 -0.32030043465E+02 -0.84624914635E+03  0.84690653638E+03  0.93120172906E+01 0.  0.
         13    1    3    3    0    0 -0.29091502622E+01 -0.28150914792E+01 -0.11052576855E+03  0.11059987979E+03  0.00000000000E+00 0.  1.
          1    1    3    3  501    0  0.22562123222E+01 -0.29214951986E+02 -0.73572337779E+03  0.73630665660E+03  0.00000000000E+00 0.  1.
         -1    1    1    2    0  502  0.65293793999E+00  0.32030043465E+02 -0.15174973071E+03  0.15509458657E+03  0.00000000000E+00 0. -1.
<mgrwt>
<rscale>  1 0.30000000E+03</rscale>
<asrwt>0</asrwt>
<pdfrwt beam="1">  1       21 0.72768261E-02 0.30000000E+03</pdfrwt>
<pdfrwt beam="2">0</pdfrwt>
<totfact> 0.15080444E+04</totfact>
</mgrwt>
</event>
<event>
 6    1  0.1270461E-001  0.3000000E+03  0.7818608E-02  0.1093470E+00
         21   -1    0    0  501  502  0.00000000000E+00  0.00000000000E+00  0.19034078392E+01  0.19034078392E+01  0.00000000000E+00 0. -1.
         13   -1    0    0    0    0 -0.00000000000E+00 -0.00000000000E+00 -0.10000000000E+04  0.10000000000E+04  0.00000000000E+00 0.  1.
    9000005    2    1    2  501    0  0.68757847880E+01  0.39252053629E+02 -0.70201923696E+03  0.70315635698E+03  0.31389772080E+01 0.  0.
         13    1    3    3    0    0  0.40696202104E+01  0.23428607149E+02 -0.44557878100E+03  0.44621285450E+03  0.00000000000E+00 0.  1.
          1    1    3    3  501    0  0.28061645776E+01  0.15823446480E+02 -0.25644045596E+03  0.25694350249E+03  0.00000000000E+00 0.  1.
         -3    1    1    2    0  502 -0.68757847880E+01 -0.39252053629E+02 -0.29607735520E+03  0.29874705085E+03  0.00000000000E+00 0. -1.
<mgrwt>
<rscale>  1 0.30000000E+03</rscale>
<asrwt>0</asrwt>
<pdfrwt beam="1">  1       21 0.69214976E-02 0.30000000E+03</pdfrwt>
<pdfrwt beam="2">0</pdfrwt>
<totfact> 0.16454964E+04</totfact>
</mgrwt>
</event>
<event>
 6    1  0.1270461E-001  0.3000000E+03  0.7818608E-02  0.1093470E+00
         21   -1    0    0  501  502  0.00000000000E+00  0.00000000000E+00  0.15976895568E+01  0.15976895568E+01  0.00000000000E+00 0. -1.
         13   -1    0    0    0    0 -0.00000000000E+00 -0.00000000000E+00 -0.10000000000E+04  0.10000000000E+04  0.00000000000E+00 0.  1.
    9000005    2    1    2  501    0  0.24058771825E+02 -0.18086899894E+02 -0.82816502999E+03  0.82872000996E+03  0.36847722964E+01 0.  0.
         13    1    3    3    0    0  0.24139949432E+02 -0.18053061472E+02 -0.82753976844E+03  0.82808859341E+03  0.00000000000E+00 0.  1.
          1    1    3    3  501    0 -0.81177607520E-01 -0.33838421849E-01 -0.62526155757E+00  0.63141654883E+00  0.00000000000E+00 0.  1.
         -3    1    1    2    0  502 -0.24058771825E+02  0.18086899894E+02 -0.17023728045E+03  0.17287767960E+03  0.00000000000E+00 0. -1.
<mgrwt>
<rscale>  1 0.30000000E+03</rscale>
<asrwt>0</asrwt>
<pdfrwt beam="1">  1       21 0.58097925E-02 0.30000000E+03</pdfrwt>
<pdfrwt beam="2">0</pdfrwt>
<totfact> 0.22274762E+04</totfact>
</mgrwt>
</event>
<event>
 6    1  0.1270461E-001  0.3000000E+03  0.7818608E-02  0.1093470E+00
         21   -1    0    0  501  502  0.00000000000E+00  0.00000000000E+00  0.11296327106E+01  0.11296327106E+01  0.00000000000E+00 0. -1.
         13   -1    0    0    0    0 -0.00000000000E+00 -0.00000000000E+00 -0.10000000000E+04  0.10000000000E+04  0.00000000000E+00 0.  1.
    9000005    2    1    2  501    0  0.66218919235E+01  0.29385358783E+02 -0.72009550633E+03  0.72073210799E+03  0.31439617303E+01 0.  0.
         13    1    3    3    0    0 -0.76521103744E-01  0.48488372358E+01 -0.11230563282E+03  0.11241028530E+03  0.00000000000E+00 0.  1.
          1    1    3    3  501    0  0.66984130272E+01  0.24536521547E+02 -0.60778987351E+03  0.60832182270E+03  0.00000000000E+00 0.  1.
         -1    1    1    2    0  502 -0.66218919235E+01 -0.29385358783E+02 -0.27877486096E+03  0.28039752472E+03  0.00000000000E+00 0. -1.
<mgrwt>
<rscale>  1 0.30000000E+03</rscale>
<asrwt>0</asrwt>
<pdfrwt beam="1">  1       21 0.41077640E-02 0.30000000E+03</pdfrwt>
<pdfrwt beam="2">0</pdfrwt>
<totfact> 0.40205164E+04</totfact>
</mgrwt>
</event>
<event>
 6    1  0.1270461E-001  0.3000000E+03  0.7818608E-02  0.1093470E+00
         21   -1    0    0  501  502  0.00000000000E+00  0.00000000000E+00  0.27555488979E+01  0.27555488979E+01  0.00000000000E+00 0. -1.
         13   -1    0    0    0    0 -0.00000000000E+00 -0.00000000000E+00 -0.10000000000E+04  0.10000000000E+04  0.00000000000E+00 0.  1.
    9000005    2    1    2  501    0  0.18310826819E+02 -0.31897848356E+02 -0.85604051069E+03  0.85684012169E+03  0.41084172151E+01 0.  0.
         13    1    3    3    0    0  0.70574271663E+01 -0.14634829426E+02 -0.33904854531E+03  0.33943762548E+03  0.00000000000E+00 0.  1.
          3    1    3    3  501    0  0.11253399653E+02 -0.17263018930E+02 -0.51699196537E+03  0.51740249621E+03  0.00000000000E+00 0.  1.
         -1    1    1    2    0  502 -0.18310826819E+02  0.31897848356E+02 -0.14120394042E+03  0.14591542721E+03  0.00000000000E+00 0. -1.
<mgrwt>
<rscale>  1 0.30000000E+03</rscale>
<asrwt>0</asrwt>
<pdfrwt beam="1">  1       21 0.10020199E-01 0.30000000E+03</pdfrwt>
<pdfrwt beam="2">0</pdfrwt>
<totfact> 0.85722321E+03</totfact>
</mgrwt>
</event>
<event>
 6    1  0.1270461E-001  0.3000000E+03  0.7818608E-02  0.1093470E+00
         21   -1    0    0  501  502  0.00000000000E+00  0.00000000000E+00  0.58262646404E+01  0.58262646404E+01  0.00000000000E+00 0. -1.
         13   -1    0    0    0    0 -0.00000000000E+00 -0.00000000000E+00 -0.10000000000E+04  0.10000000000E+04  0.00000000000E+00 0.  1.
    9000005    2    1    2  501    0  0.61530390421E+02  0.23598035749E+00 -0.79450908209E+03  0.79689561013E+03  0.34477929694E+01 0.  0.
         13    1    3    3    0    0  0.14650304582E+01  0.39226276230E+00 -0.24880535157E+02  0.24926716872E+02  0.00000000000E+00 0.  1.
          3    1    3    3  501    0  0.60065359963E+02 -0.15628240481E+00 -0.76962854694E+03  0.77196889325E+03  0.00000000000E+00 0.  1.
         -3    1    1    2    0  502 -0.61530390421E+02 -0.23598035749E+00 -0.19966465326E+03  0.20893065451E+03  0.00000000000E+00 0. -1.
<mgrwt>
<rscale>  1 0.30000000E+03</rscale>
<asrwt>0</asrwt>
<pdfrwt beam="1">  1       21 0.21186462E-01 0.30000000E+03</pdfrwt>
<pdfrwt beam="2">0</pdfrwt>
<totfact> 0.21486882E+03</totfact>
</mgrwt>
</event>
<event>
 6    1  0.1270461E-001  0.3000000E+03  0.7818608E-02  0.1093470E+00
         21   -1    0    0  501  502  0.00000000000E+00  0.00000000000E+00  0.12236172779E+01  0.12236172779E+01  0.00000000000E+00 0. -1.
         13   -1    0    0    0    0 -0.00000000000E+00 -0.00000000000E+00 -0.10000000000E+04  0.10000000000E+04  0.00000000000E+00 0.  1.
    9000005    2    1    2  501    0  0.80748788544E+01  0.33945108328E+02 -0.51262888780E+03  0.51382556551E+03  0.32956208536E+01 0.  0.
         13    1    3    3    0    0  0.50447962864E+01  0.17759841715E+02 -0.29195523327E+03  0.29253840805E+03  0.00000000000E+00 0.  1.
          1    1    3    3  501    0  0.30300825681E+01  0.16185266613E+02 -0.22067365453E+03  0.22128715746E+03  0.00000000000E+00 0.  1.
         -1    1    1    2    0  502 -0.80748788544E+01 -0.33945108328E+02 -0.48614749492E+03  0.48739805177E+03  0.00000000000E+00 0. -1.
<mgrwt>
<rscale>  1 0.30000000E+03</rscale>
<asrwt>0</asrwt>
<pdfrwt beam="1">  1       21 0.44495268E-02 0.30000000E+03</pdfrwt>
<pdfrwt beam="2">0</pdfrwt>
<totfact> 0.35123787E+04</totfact>
</mgrwt>
</event>
<event>
 6    1  0.1270461E-001  0.3000000E+03  0.7818608E-02  0.1093470E+00
         21   -1    0    0  501  502  0.00000000000E+00  0.00000000000E+00  0.11429469180E+01  0.11429469180E+01  0.00000000000E+00 0. -1.
         13   -1    0    0    0    0 -0.00000000000E+00 -0.00000000000E+00 -0.10000000000E+04  0.10000000000E+04  0.00000000000E+00 0.  1.
    9000005    2    1    2  501    0  0.31890339690E+02  0.71842152971E+01 -0.60965661142E+03  0.61057209483E+03  0.69636495845E+01 0.  0.
         13    1    3    3    0    0  0.31362706425E+02  0.60402108565E+01 -0.56874996672E+03  0.56964605515E+03  0.00000000000E+00 0.  1.
          3    1    3    3  501    0  0.52763326561E+00  0.11440044406E+01 -0.40906644704E+02  0.40926039681E+02  0.00000000000E+00 0.  1.
         -3    1    1    2    0  502 -0.31890339690E+02 -0.71842152971E+01 -0.38920044166E+03  0.39057085209E+03  0.00000000000E+00 0. -1.
<mgrwt>
<rscale>  1 0.30000000E+03</rscale>
<asrwt>0</asrwt>
<pdfrwt beam="1">  1       21 0.41561794E-02 0.30000000E+03</pdfrwt>
<pdfrwt beam="2">0</pdfrwt>
<totfact> 0.39418226E+04</totfact>
</mgrwt>
</event>
<event>
 6    1  0.1270461E-001  0.3000000E+03  0.7818608E-02  0.1093470E+00
         21   -1    0    0  501  502  0.00000000000E+00  0.00000000000E+00  0.17441844941E+01  0.17441844941E+01  0.00000000000E+00 0. -1.
         13   -1    0    0    0    0 -0.00000000000E+00 -0.00000000000E+00 -0.10000000000E+04  0.10000000000E+04  0.00000000000E+00 0.  1.
    9000005    2    1    2  501    0 -0.28383894543E+02 -0.16468105932E+02 -0.80805044719E+03  0.80872883247E+03  0.44671327667E+01 0.  0.
         13    1    3    3    0    0 -0.25415009265E+01 -0.31385371933E+01 -0.10136710893E+03  0.10144752543E+03  0.00000000000E+00 0.  1.
          1    1    3    3  501    0 -0.25842393616E+02 -0.13329568739E+02 -0.70668333826E+03  0.70728130704E+03  0.00000000000E+00 0.  1.
         -3    1    1    2    0  502  0.28383894543E+02  0.16468105932E+02 -0.19020536831E+03  0.19301535202E+03  0.00000000000E+00 0. -1.
<mgrwt>
<rscale>  1 0.30000000E+03</rscale>
<asrwt>0</asrwt>
<pdfrwt beam="1">  1       21 0.63425024E-02 0.30000000E+03</pdfrwt>
<pdfrwt beam="2">0</pdfrwt>
<totfact> 0.19145573E+04</totfact>
</mgrwt>
</event>
<event>
 6    1  0.1270461E-001  0.3000000E+03  0.7818608E-02  0.1093470E+00
         21   -1    0    0  501  502  0.00000000000E+00  0.00000000000E+00  0.22319314633E+01  0.22319314633E+01  0.00000000000E+00 0. -1.
         13   -1    0    0    0    0 -0.00000000000E+00 -0.00000000000E+00 -0.10000000000E+04  0.10000000000E+04  0.00000000000E+00 0.  1.
    9000005    2    1    2  501    0 -0.21611099092E+02 -0.40089608836E+02 -0.62943045717E+03  0.63108935470E+03  0.41057106022E+01 0.  0.
         13    1    3    3    0    0 -0.21671836747E+02 -0.39917892003E+02 -0.62861246700E+03  0.63025133104E+03  0.00000000000E+00 0.  1.
          1    1    3    3  501    0  0.60737654780E-01 -0.17171683275E+00 -0.81799017070E+00  0.83802365881E+00  0.00000000000E+00 0.  1.
         -1    1    1    2    0  502  0.21611099092E+02  0.40089608836E+02 -0.36833761137E+03  0.37114257677E+03  0.00000000000E+00 0. -1.
<mgrwt>
<rscale>  1 0.30000000E+03</rscale>
<asrwt>0</asrwt>
<pdfrwt beam="1">  1       21 0.81161315E-02 0.30000000E+03</pdfrwt>
<pdfrwt beam="2">0</pdfrwt>
<totfact> 0.12454434E+04</totfact>
</mgrwt>
</event>
<event>
 6    1  0.1270461E-001  0.3000000E+03  0.7818608E-02  0.1093470E+00
         21   -1    0    0  501  502  0.00000000000E+00  0.00000000000E+00  0.11796426695E+01  0.11796426695E+01  0.00000000000E+00 0. -1.
         13   -1    0    0    0    0 -0.00000000000E+00 -0.00000000000E+00 -0.10000000000E+04  0.10000000000E+04  0.00000000000E+00 0.  1.
    9000005    2    1    2  501    0  0.30085626428E+02  0.12238647998E+02 -0.65890497048E+03  0.65971602873E+03  0.38143186122E+01 0.  0.
         13    1    3    3    0    0  0.15677929690E+02  0.72953159841E+01 -0.31573689751E+03  0.31621006873E+03  0.00000000000E+00 0.  1.
          1    1    3    3  501    0  0.14407696738E+02  0.49433320140E+01 -0.34316807297E+03  0.34350596001E+03  0.00000000000E+00 0.  1.
         -1    1    1    2    0  502 -0.30085626428E+02 -0.12238647998E+02 -0.33991538685E+03  0.34146361394E+03  0.00000000000E+00 0. -1.
<mgrwt>
<rscale>  1 0.30000000E+03</rscale>
<asrwt>0</asrwt>
<pdfrwt beam="1">  1       21 0.42896188E-02 0.30000000E+03</pdfrwt>
<pdfrwt beam="2">0</pdfrwt>
<totfact> 0.37369182E+04</totfact>
</mgrwt>
</event>
<event>
 6    1  0.1270461E-001  0.3000000E+03  0.7818608E-02  0.1093470E+00
         21   -1    0    0  501  502  0.00000000000E+00  0.00000000000E+00  0.29478265693E+01  0.29478265693E+01  0.00000000000E+00 0. -1.
         13   -1    0    0    0    0 -0.00000000000E+00 -0.00000000000E+00 -0.10000000000E+04  0.10000000000E+04  0.00000000000E+00 0.  1.
    9000005    2    1    2  501    0  0.13503557591E+02 -0.27697992002E+02 -0.91130300098E+03  0.91183007086E+03  0.33754571097E+01 0.  0.
         13    1    3    3    0    0  0.61395450558E+01 -0.12092761539E+02 -0.35281146936E+03  0.35307203487E+03  0.00000000000E+00 0.  1.
          1    1    3    3  501    0  0.73640125350E+01 -0.15605230463E+02 -0.55849153162E+03  0.55875803599E+03  0.00000000000E+00 0.  1.
         -3    1    1    2    0  502 -0.13503557591E+02  0.27697992002E+02 -0.85749172452E+02  0.91117755705E+02  0.00000000000E+00 0. -1.
<mgrwt>
<rscale>  1 0.30000000E+03</rscale>
<asrwt>0</asrwt>
<pdfrwt beam="1">  1       21 0.10719392E-01 0.30000000E+03</pdfrwt>
<pdfrwt beam="2">0</pdfrwt>
<totfact> 0.75967590E+03</totfact>
</mgrwt>
</event>
<event>
 6    1  0.1270461E-001  0.3000000E+03  0.7818608E-02  0.1093470E+00
         21   -1    0    0  501  502  0.00000000000E+00  0.00000000000E+00  0.30372806711E+01  0.30372806711E+01  0.00000000000E+00 0. -1.
         13   -1    0    0    0    0 -0.00000000000E+00 -0.00000000000E+00 -0.10000000000E+04  0.10000000000E+04  0.00000000000E+00 0.  1.
    9000005    2    1    2  501    0 -0.18390838028E+02  0.34013142522E+02 -0.85566366557E+03  0.85654311908E+03  0.32694764256E+01 0.  0.
         13    1    3    3    0    0 -0.91882312805E+01  0.20371270058E+02 -0.48903068801E+03  0.48954103612E+03  0.00000000000E+00 0.  1.
          3    1    3    3  501    0 -0.92026067476E+01  0.13641872464E+02 -0.36663297757E+03  0.36700208296E+03  0.00000000000E+00 0.  1.
         -1    1    1    2    0  502  0.18390838028E+02 -0.34013142522E+02 -0.14129905376E+03  0.14649416159E+03  0.00000000000E+00 0. -1.
<mgrwt>
<rscale>  1 0.30000000E+03</rscale>
<asrwt>0</asrwt>
<pdfrwt beam="1">  1       21 0.11044680E-01 0.30000000E+03</pdfrwt>
<pdfrwt beam="2">0</pdfrwt>
<totfact> 0.71993171E+03</totfact>
</mgrwt>
</event>
<event>
 6    1  0.1270461E-001  0.3000000E+03  0.7818608E-02  0.1093470E+00
         21   -1    0    0  501  502  0.00000000000E+00  0.00000000000E+00  0.14121474901E+01  0.14121474901E+01  0.00000000000E+00 0. -1.
         13   -1    0    0    0    0 -0.00000000000E+00 -0.00000000000E+00 -0.10000000000E+04  0.10000000000E+04  0.00000000000E+00 0.  1.
    9000005    2    1    2  501    0 -0.10653441374E+02 -0.34705006141E+02 -0.62627911695E+03  0.62733765245E+03  0.30107459555E+01 0.  0.
         13    1    3    3    0    0 -0.22437271375E+01 -0.10561860296E+02 -0.20347419910E+03  0.20376048906E+03  0.00000000000E+00 0.  1.
          1    1    3    3  501    0 -0.84097142361E+01 -0.24143145844E+02 -0.42280491785E+03  0.42357716339E+03  0.00000000000E+00 0.  1.
         -1    1    1    2    0  502  0.10653441374E+02  0.34705006141E+02 -0.37230873556E+03  0.37407449504E+03  0.00000000000E+00 0. -1.
<mgrwt>
<rscale>  1 0.30000000E+03</rscale>
<asrwt>0</asrwt>
<pdfrwt beam="1">  1       21 0.51350926E-02 0.30000000E+03</pdfrwt>
<pdfrwt beam="2">0</pdfrwt>
<totfact> 0.27523990E+04</totfact>
</mgrwt>
</event>
<event>
 6    1  0.1270461E-001  0.3000000E+03  0.7818608E-02  0.1093470E+00
         21   -1    0    0  501  502  0.00000000000E+00  0.00000000000E+00  0.86033229645E+01  0.86033229645E+01  0.00000000000E+00 0. -1.
         13   -1    0    0    0    0 -0.00000000000E+00 -0.00000000000E+00 -0.10000000000E+04  0.10000000000E+04  0.00000000000E+00 0.  1.
    9000005    2    1    2  501    0  0.27861635625E+02  0.30041998144E+02 -0.94810892976E+03  0.94899945181E+03  0.32595179037E+01 0.  0.
         13    1    3    3    0    0  0.22014422880E+02  0.23250902531E+02 -0.70900703818E+03  0.70972968056E+03  0.00000000000E+00 0.  1.
          1    1    3    3  501    0  0.58472127451E+01  0.67910956135E+01 -0.23910189158E+03  0.23926977125E+03  0.00000000000E+00 0.  1.
         -3    1    1    2    0  502 -0.27861635625E+02 -0.30041998144E+02 -0.43287747276E+02  0.59603871153E+02  0.00000000000E+00 0. -1.
<mgrwt>
<rscale>  1 0.30000000E+03</rscale>
<asrwt>0</asrwt>
<pdfrwt beam="1">  1       21 0.31284877E-01 0.30000000E+03</pdfrwt>
<pdfrwt beam="2">0</pdfrwt>
<totfact> 0.99951771E+02</totfact>
</mgrwt>
</event>
<event>
 6    1  0.1270461E-001  0.3000000E+03  0.7818608E-02  0.1093470E+00
         21   -1    0    0  501  502  0.00000000000E+00  0.00000000000E+00  0.27836567623E+01  0.27836567623E+01  0.00000000000E+00 0. -1.
         13   -1    0    0    0    0 -0.00000000000E+00 -0.00000000000E+00 -0.10000000000E+04  0.10000000000E+04  0.00000000000E+00 0.  1.
    9000005    2    1    2  501    0  0.25053987310E+02 -0.17895051001E+02 -0.90555506060E+03  0.90608967626E+03  0.45385589122E+01 0.  0.
         13    1    3    3    0    0  0.82235187017E+01 -0.33952554300E+01 -0.24902900752E+03  0.24918788214E+03  0.00000000000E+00 0.  1.
          1    1    3    3  501    0  0.16830468608E+02 -0.14499795571E+02 -0.65652605309E+03  0.65690179413E+03  0.00000000000E+00 0.  1.
         -1    1    1    2    0  502 -0.25053987310E+02  0.17895051001E+02 -0.91661282634E+02  0.96693980498E+02  0.00000000000E+00 0. -1.
<mgrwt>
<rscale>  1 0.30000000E+03</rscale>
<asrwt>0</asrwt>
<pdfrwt beam="1">  1       21 0.10122410E-01 0.30000000E+03</pdfrwt>
<pdfrwt beam="2">0</pdfrwt>
<totfact> 0.84181169E+03</totfact>
</mgrwt>
</event>
<event>
 6    1  0.1270461E-001  0.3000000E+03  0.7818608E-02  0.1093470E+00
         21   -1    0    0  501  502  0.00000000000E+00  0.00000000000E+00  0.16297337578E+01  0.16297337578E+01  0.00000000000E+00 0. -1.
         13   -1    0    0    0    0 -0.00000000000E+00 -0.00000000000E+00 -0.10000000000E+04  0.10000000000E+04  0.00000000000E+00 0.  1.
    9000005    2    1    2  501    0 -0.10451972816E+02  0.29744222787E+02 -0.81102465749E+03  0.81164989366E+03  0.45378735393E+01 0.  0.
         13    1    3    3    0    0 -0.95435192025E+01  0.24741212390E+02 -0.63876599701E+03  0.63931620133E+03  0.00000000000E+00 0.  1.
          3    1    3    3  501    0 -0.90845361373E+00  0.50030103968E+01 -0.17225866048E+03  0.17233369232E+03  0.00000000000E+00 0.  1.
         -3    1    1    2    0  502  0.10451972816E+02 -0.29744222787E+02 -0.18734560876E+03  0.18997984010E+03  0.00000000000E+00 0. -1.
<mgrwt>
<rscale>  1 0.30000000E+03</rscale>
<asrwt>0</asrwt>
<pdfrwt beam="1">  1       21 0.59263171E-02 0.30000000E+03</pdfrwt>
<pdfrwt beam="2">0</pdfrwt>
<totfact> 0.21525423E+04</totfact>
</mgrwt>
</event>
<event>
 6    1  0.1270461E-001  0.3000000E+03  0.7818608E-02  0.1093470E+00
         21   -1    0    0  501  502  0.00000000000E+00  0.00000000000E+00  0.30386370314E+01  0.30386370314E+01  0.00000000000E+00 0. -1.
         13   -1    0    0    0    0 -0.00000000000E+00 -0.00000000000E+00 -0.10000000000E+04  0.10000000000E+04  0.00000000000E+00 0.  1.
    9000005    2    1    2  501    0  0.34583115316E+02 -0.42729231402E+02 -0.46882308466E+03  0.47204728108E+03  0.34310032104E+01 0.  0.
         13    1    3    3    0    0  0.11819762664E+02 -0.13510967213E+02 -0.14083546507E+03  0.14197493175E+03  0.00000000000E+00 0.  1.
          3    1    3    3  501    0  0.22763352651E+02 -0.29218264189E+02 -0.32798761960E+03  0.33007234933E+03  0.00000000000E+00 0.  1.
         -3    1    1    2    0  502 -0.34583115316E+02  0.42729231402E+02 -0.52813827830E+03  0.53099135595E+03  0.00000000000E+00 0. -1.
<mgrwt>
<rscale>  1 0.30000000E+03</rscale>
<asrwt>0</asrwt>
<pdfrwt beam="1">  1       21 0.11049613E-01 0.30000000E+03</pdfrwt>
<pdfrwt beam="2">0</pdfrwt>
<totfact> 0.71935343E+03</totfact>
</mgrwt>
</event>
<event>
 6    1  0.1270461E-001  0.3000000E+03  0.7818608E-02  0.1093470E+00
         21   -1    0    0  501  502  0.00000000000E+00  0.00000000000E+00  0.99746751048E+00  0.99746751048E+00  0.00000000000E+00 0. -1.
         13   -1    0    0    0    0 -0.00000000000E+00 -0.00000000000E+00 -0.10000000000E+04  0.10000000000E+04  0.00000000000E+00 0.  1.
    9000005    2    1    2  501    0  0.38058438134E+00 -0.30809469806E+02 -0.39771165966E+03  0.39891767045E+03  0.33727285108E+01 0.  0.
         13    1    3    3    0    0 -0.12681625908E+00 -0.30046061674E+02 -0.38240171369E+03  0.38358030781E+03  0.00000000000E+00 0.  1.
          1    1    3    3  501    0  0.50740064043E+00 -0.76340813146E+00 -0.15309945962E+02  0.15337362640E+02  0.00000000000E+00 0.  1.
         -3    1    1    2    0  502 -0.38058438134E+00  0.30809469806E+02 -0.60129087283E+03  0.60207979706E+03  0.00000000000E+00 0. -1.
<mgrwt>
<rscale>  1 0.30000000E+03</rscale>
<asrwt>0</asrwt>
<pdfrwt beam="1">  1       21 0.36271622E-02 0.30000000E+03</pdfrwt>
<pdfrwt beam="2">0</pdfrwt>
<totfact> 0.49561549E+04</totfact>
</mgrwt>
</event>
<event>
 6    1  0.1270461E-001  0.3000000E+03  0.7818608E-02  0.1093470E+00
         21   -1    0    0  501  502  0.00000000000E+00  0.00000000000E+00  0.20217045709E+01  0.20217045709E+01  0.00000000000E+00 0. -1.
         13   -1    0    0    0    0 -0.00000000000E+00 -0.00000000000E+00 -0.10000000000E+04  0.10000000000E+04  0.00000000000E+00 0.  1.
    9000005    2    1    2  501    0  0.25426758051E+02  0.24246876770E+02 -0.81126516831E+03  0.81203164458E+03  0.31284856371E+01 0.  0.
         13    1    3    3    0    0  0.22478513541E+02  0.21160065281E+02 -0.73358681031E+03  0.73423609295E+03  0.00000000000E+00 0.  1.
          3    1    3    3  501    0  0.29482445106E+01  0.30868114887E+01 -0.77678358005E+02  0.77795551628E+02  0.00000000000E+00 0.  1.
         -1    1    1    2    0  502 -0.25426758051E+02 -0.24246876770E+02 -0.18671312712E+03  0.18999005999E+03  0.00000000000E+00 0. -1.
<mgrwt>
<rscale>  1 0.30000000E+03</rscale>
<asrwt>0</asrwt>
<pdfrwt beam="1">  1       21 0.73516685E-02 0.30000000E+03</pdfrwt>
<pdfrwt beam="2">0</pdfrwt>
<totfact> 0.14813243E+04</totfact>
</mgrwt>
</event>
<event>
 6    1  0.1270461E-001  0.3000000E+03  0.7818608E-02  0.1093470E+00
         21   -1    0    0  501  502  0.00000000000E+00  0.00000000000E+00  0.20090801039E+01  0.20090801039E+01  0.00000000000E+00 0. -1.
         13   -1    0    0    0    0 -0.00000000000E+00 -0.00000000000E+00 -0.10000000000E+04  0.10000000000E+04  0.00000000000E+00 0.  1.
    9000005    2    1    2  501    0  0.16325371267E+02 -0.38592298435E+02 -0.67541142910E+03  0.67671934598E+03  0.35484385505E+01 0.  0.
         13    1    3    3    0    0  0.41229563872E+01 -0.13559162266E+02 -0.24049304870E+03  0.24091026571E+03  0.00000000000E+00 0.  1.
          1    1    3    3  501    0  0.12202414880E+02 -0.25033136170E+02 -0.43491838040E+03  0.43580908027E+03  0.00000000000E+00 0.  1.
         -1    1    1    2    0  502 -0.16325371267E+02  0.38592298435E+02 -0.32257949080E+03  0.32528973413E+03  0.00000000000E+00 0. -1.
<mgrwt>
<rscale>  1 0.30000000E+03</rscale>
<asrwt>0</asrwt>
<pdfrwt beam="1">  1       21 0.73057612E-02 0.30000000E+03</pdfrwt>
<pdfrwt beam="2">0</pdfrwt>
<totfact> 0.14976279E+04</totfact>
</mgrwt>
</event>
<event>
 6    1  0.1270461E-001  0.3000000E+03  0.7818608E-02  0.1093470E+00
         21   -1    0    0  501  502  0.00000000000E+00  0.00000000000E+00  0.20711552646E+01  0.20711552646E+01  0.00000000000E+00 0. -1.
         13   -1    0    0    0    0 -0.00000000000E+00 -0.00000000000E+00 -0.10000000000E+04  0.10000000000E+04  0.00000000000E+00 0.  1.
    9000005    2    1    2  501    0  0.18297937283E+02 -0.36590154828E+02 -0.71675062734E+03  0.71793237953E+03  0.46675308202E+01 0.  0.
         13    1    3    3    0    0  0.16897527064E+02 -0.32182541207E+02 -0.61048937004E+03  0.61157053012E+03  0.00000000000E+00 0.  1.
          1    1    3    3  501    0  0.14004102193E+01 -0.44076136216E+01 -0.10626125730E+03  0.10636184941E+03  0.00000000000E+00 0.  1.
         -1    1    1    2    0  502 -0.18297937283E+02  0.36590154828E+02 -0.28117821740E+03  0.28413877574E+03  0.00000000000E+00 0. -1.
<mgrwt>
<rscale>  1 0.30000000E+03</rscale>
<asrwt>0</asrwt>
<pdfrwt beam="1">  1       21 0.75314896E-02 0.30000000E+03</pdfrwt>
<pdfrwt beam="2">0</pdfrwt>
<totfact> 0.14199903E+04</totfact>
</mgrwt>
</event>
<event>
 6    1  0.1270461E-001  0.3000000E+03  0.7818608E-02  0.1093470E+00
         21   -1    0    0  501  502  0.00000000000E+00  0.00000000000E+00  0.35390543768E+01  0.35390543768E+01  0.00000000000E+00 0. -1.
         13   -1    0    0    0    0 -0.00000000000E+00 -0.00000000000E+00 -0.10000000000E+04  0.10000000000E+04  0.00000000000E+00 0.  1.
    9000005    2    1    2  501    0  0.55485570476E+02 -0.18581111259E+02 -0.41115189313E+03  0.41531240320E+03  0.38218842179E+01 0.  0.
         13    1    3    3    0    0  0.10377702019E+02 -0.41676076505E+01 -0.69402844600E+02  0.70298083127E+02  0.00000000000E+00 0.  1.
          1    1    3    3  501    0  0.45107868458E+02 -0.14413503608E+02 -0.34174904853E+03  0.34501432007E+03  0.00000000000E+00 0.  1.
         -3    1    1    2    0  502 -0.55485570476E+02  0.18581111259E+02 -0.58530905249E+03  0.58822665118E+03  0.00000000000E+00 0. -1.
<mgrwt>
<rscale>  1 0.30000000E+03</rscale>
<asrwt>0</asrwt>
<pdfrwt beam="1">  1       21 0.12869316E-01 0.30000000E+03</pdfrwt>
<pdfrwt beam="2">0</pdfrwt>
<totfact> 0.54562359E+03</totfact>
</mgrwt>
</event>
<event>
 6    1  0.1270461E-001  0.3000000E+03  0.7818608E-02  0.1093470E+00
         21   -1    0    0  501  502  0.00000000000E+00  0.00000000000E+00  0.20065887307E+01  0.20065887307E+01  0.00000000000E+00 0. -1.
         13   -1    0    0    0    0 -0.00000000000E+00 -0.00000000000E+00 -0.10000000000E+04  0.10000000000E+04  0.00000000000E+00 0.  1.
    9000005    2    1    2  501    0  0.42480783217E+02  0.14361191936E+01 -0.65472767992E+03  0.65611926358E+03  0.41801682367E+01 0.  0.
         13    1    3    3    0    0  0.41554749892E+02  0.75892866578E+00 -0.63791932688E+03  0.63927180512E+03  0.00000000000E+00 0.  1.
          1    1    3    3  501    0  0.92603332514E+00  0.67719052786E+00 -0.16808353034E+02  0.16847458457E+02  0.00000000000E+00 0.  1.
         -1    1    1    2    0  502 -0.42480783217E+02 -0.14361191936E+01 -0.34326573135E+03  0.34588732515E+03  0.00000000000E+00 0. -1.
<mgrwt>
<rscale>  1 0.30000000E+03</rscale>
<asrwt>0</asrwt>
<pdfrwt beam="1">  1       21 0.72967017E-02 0.30000000E+03</pdfrwt>
<pdfrwt beam="2">0</pdfrwt>
<totfact> 0.15008775E+04</totfact>
</mgrwt>
</event>
<event>
 6    1  0.1270461E-001  0.3000000E+03  0.7818608E-02  0.1093470E+00
         21   -1    0    0  501  502  0.00000000000E+00  0.00000000000E+00  0.10979648866E+01  0.10979648866E+01  0.00000000000E+00 0. -1.
         13   -1    0    0    0    0 -0.00000000000E+00 -0.00000000000E+00 -0.10000000000E+04  0.10000000000E+04  0.00000000000E+00 0.  1.
    9000005    2    1    2  501    0 -0.30767031429E+02  0.48055018968E+01 -0.33311361277E+03  0.33458170372E+03  0.32456710864E+01 0.  0.
         13    1    3    3    0    0 -0.11950499543E+02  0.35380280083E+00 -0.13268052294E+03  0.13321809480E+03  0.00000000000E+00 0.  1.
          1    1    3    3  501    0 -0.18816531886E+02  0.44516990959E+01 -0.20043308983E+03  0.20136360892E+03  0.00000000000E+00 0.  1.
         -3    1    1    2    0  502  0.30767031429E+02 -0.48055018968E+01 -0.66578842234E+03  0.66651626116E+03  0.00000000000E+00 0. -1.
<mgrwt>
<rscale>  1 0.30000000E+03</rscale>
<asrwt>0</asrwt>
<pdfrwt beam="1">  1       21 0.39926080E-02 0.30000000E+03</pdfrwt>
<pdfrwt beam="2">0</pdfrwt>
<totfact> 0.42178498E+04</totfact>
</mgrwt>
</event>
<event>
 6    1  0.1270461E-001  0.3000000E+03  0.7818608E-02  0.1093470E+00
         21   -1    0    0  501  502  0.00000000000E+00  0.00000000000E+00  0.11978147838E+01  0.11978147838E+01  0.00000000000E+00 0. -1.
         13   -1    0    0    0    0 -0.00000000000E+00 -0.00000000000E+00 -0.10000000000E+04  0.10000000000E+04  0.00000000000E+00 0.  1.
    9000005    2    1    2  501    0 -0.34217746521E+02  0.41109988785E+01 -0.46731186879E+03  0.46859128934E+03  0.31079327786E+01 0.  0.
         13    1    3    3    0    0 -0.53571636085E+01 -0.47645399141E+00 -0.74683239189E+02  0.74876648069E+02  0.00000000000E+00 0.  1.
          1    1    3    3  501    0 -0.28860582912E+02  0.45874528699E+01 -0.39262862960E+03  0.39371464127E+03  0.00000000000E+00 0.  1.
         -1    1    1    2    0  502  0.34217746521E+02 -0.41109988785E+01 -0.53149031643E+03  0.53260652544E+03  0.00000000000E+00 0. -1.
<mgrwt>
<rscale>  1 0.30000000E+03</rscale>
<asrwt>0</asrwt>
<pdfrwt beam="1">  1       21 0.43556993E-02 0.30000000E+03</pdfrwt>
<pdfrwt beam="2">0</pdfrwt>
<totfact> 0.36415080E+04</totfact>
</mgrwt>
</event>
<event>
 6    1  0.1270461E-001  0.3000000E+03  0.7818608E-02  0.1093470E+00
         21   -1    0    0  501  502  0.00000000000E+00  0.00000000000E+00  0.96380484324E+00  0.96380484324E+00  0.00000000000E+00 0. -1.
         13   -1    0    0    0    0 -0.00000000000E+00 -0.00000000000E+00 -0.10000000000E+04  0.10000000000E+04  0.00000000000E+00 0.  1.
    9000005    2    1    2  501    0 -0.24563354895E+02  0.18310067598E+02 -0.42970946078E+03  0.43081334448E+03  0.33615646571E+01 0.  0.
         13    1    3    3    0    0 -0.62713784392E+00  0.24145703029E+00 -0.18251684978E+02  0.18264052341E+02  0.00000000000E+00 0.  1.
          3    1    3    3  501    0 -0.23936217051E+02  0.18068610568E+02 -0.41145777581E+03  0.41254929214E+03  0.00000000000E+00 0.  1.
         -1    1    1    2    0  502  0.24563354895E+02 -0.18310067598E+02 -0.56932673437E+03  0.57015046036E+03  0.00000000000E+00 0. -1.
<mgrwt>
<rscale>  1 0.30000000E+03</rscale>
<asrwt>0</asrwt>
<pdfrwt beam="1">  1       21 0.35047523E-02 0.30000000E+03</pdfrwt>
<pdfrwt beam="2">0</pdfrwt>
<totfact> 0.52497390E+04</totfact>
</mgrwt>
</event>
<event>
 6    1  0.1270461E-001  0.3000000E+03  0.7818608E-02  0.1093470E+00
         21   -1    0    0  501  502  0.00000000000E+00  0.00000000000E+00  0.93825495289E+00  0.93825495289E+00  0.00000000000E+00 0. -1.
         13   -1    0    0    0    0 -0.00000000000E+00 -0.00000000000E+00 -0.10000000000E+04  0.10000000000E+04  0.00000000000E+00 0.  1.
    9000005    2    1    2  501    0  0.79278188587E+01  0.29387500436E+02 -0.54367650926E+03  0.54453690914E+03  0.31341973160E+01 0.  0.
         13    1    3    3    0    0  0.33977320317E+01  0.18028905754E+02 -0.31556077855E+03  0.31609364275E+03  0.00000000000E+00 0.  1.
          1    1    3    3  501    0  0.45300868270E+01  0.11358594682E+02 -0.22811573071E+03  0.22844326639E+03  0.00000000000E+00 0.  1.
         -3    1    1    2    0  502 -0.79278188587E+01 -0.29387500436E+02 -0.45538523578E+03  0.45640134582E+03  0.00000000000E+00 0. -1.
<mgrwt>
<rscale>  1 0.30000000E+03</rscale>
<asrwt>0</asrwt>
<pdfrwt beam="1">  1       21 0.34118434E-02 0.30000000E+03</pdfrwt>
<pdfrwt beam="2">0</pdfrwt>
<totfact> 0.54910970E+04</totfact>
</mgrwt>
</event>
<event>
 6    1  0.1270461E-001  0.3000000E+03  0.7818608E-02  0.1093470E+00
         21   -1    0    0  501  502  0.00000000000E+00  0.00000000000E+00  0.17014861963E+01  0.17014861963E+01  0.00000000000E+00 0. -1.
         13   -1    0    0    0    0 -0.00000000000E+00 -0.00000000000E+00 -0.10000000000E+04  0.10000000000E+04  0.00000000000E+00 0.  1.
    9000005    2    1    2  501    0  0.39735628274E+02  0.10608863773E+02 -0.51260134071E+03  0.51426614475E+03  0.42502926840E+01 0.  0.
         13    1    3    3    0    0  0.19433565115E+02  0.30418154991E+01 -0.23831129955E+03  0.23912170873E+03  0.00000000000E+00 0.  1.
          3    1    3    3  501    0  0.20302063159E+02  0.75670482742E+01 -0.27429004116E+03  0.27514443601E+03  0.00000000000E+00 0.  1.
         -1    1    1    2    0  502 -0.39735628274E+02 -0.10608863773E+02 -0.48569717309E+03  0.48743534145E+03  0.00000000000E+00 0. -1.
<mgrwt>
<rscale>  1 0.30000000E+03</rscale>
<asrwt>0</asrwt>
<pdfrwt beam="1">  1       21 0.61872356E-02 0.30000000E+03</pdfrwt>
<pdfrwt beam="2">0</pdfrwt>
<totfact> 0.19983339E+04</totfact>
</mgrwt>
</event>
<event>
 6    1  0.1270461E-001  0.3000000E+03  0.7818608E-02  0.1093470E+00
         21   -1    0    0  501  502  0.00000000000E+00  0.00000000000E+00  0.16270931500E+01  0.16270931500E+01  0.00000000000E+00 0. -1.
         13   -1    0    0    0    0 -0.00000000000E+00 -0.00000000000E+00 -0.10000000000E+04  0.10000000000E+04  0.00000000000E+00 0.  1.
    9000005    2    1    2  501    0 -0.34768661412E+01 -0.33602125281E+02 -0.77198658213E+03  0.77273419365E+03  0.36958929430E+01 0.  0.
         13    1    3    3    0    0  0.12659083242E+00 -0.10558711072E+02 -0.21396921339E+03  0.21422961206E+03  0.00000000000E+00 0.  1.
          1    1    3    3  501    0 -0.36034569736E+01 -0.23043414209E+02 -0.55801736874E+03  0.55850458159E+03  0.00000000000E+00 0.  1.
         -1    1    1    2    0  502  0.34768661412E+01  0.33602125281E+02 -0.22638632472E+03  0.22889289950E+03  0.00000000000E+00 0. -1.
<mgrwt>
<rscale>  1 0.30000000E+03</rscale>
<asrwt>0</asrwt>
<pdfrwt beam="1">  1       21 0.59167148E-02 0.30000000E+03</pdfrwt>
<pdfrwt beam="2">0</pdfrwt>
<totfact> 0.21585676E+04</totfact>
</mgrwt>
</event>
<event>
 6    1  0.1270461E-001  0.3000000E+03  0.7818608E-02  0.1093470E+00
         21   -1    0    0  501  502  0.00000000000E+00  0.00000000000E+00  0.39586485680E+01  0.39586485680E+01  0.00000000000E+00 0. -1.
         13   -1    0    0    0    0 -0.00000000000E+00 -0.00000000000E+00 -0.10000000000E+04  0.10000000000E+04  0.00000000000E+00 0.  1.
    9000005    2    1    2  501    0 -0.25719159568E+02 -0.44987200732E+02 -0.78243973642E+03  0.78416107503E+03  0.33655698776E+01 0.  0.
         13    1    3    3    0    0 -0.11371817542E+01 -0.31537348874E+01 -0.60239257350E+02  0.60332473447E+02  0.00000000000E+00 0.  1.
          1    1    3    3  501    0 -0.24581977814E+02 -0.41833465845E+02 -0.72220047907E+03  0.72382860158E+03  0.00000000000E+00 0.  1.
         -3    1    1    2    0  502  0.25719159568E+02  0.44987200732E+02 -0.21360161501E+03  0.21979757354E+03  0.00000000000E+00 0. -1.
<mgrwt>
<rscale>  1 0.30000000E+03</rscale>
<asrwt>0</asrwt>
<pdfrwt beam="1">  1       21 0.14395116E-01 0.30000000E+03</pdfrwt>
<pdfrwt beam="2">0</pdfrwt>
<totfact> 0.44432331E+03</totfact>
</mgrwt>
</event>
<event>
 6    1  0.1270461E-001  0.3000000E+03  0.7818608E-02  0.1093470E+00
         21   -1    0    0  501  502  0.00000000000E+00  0.00000000000E+00  0.10414726560E+01  0.10414726560E+01  0.00000000000E+00 0. -1.
         13   -1    0    0    0    0 -0.00000000000E+00 -0.00000000000E+00 -0.10000000000E+04  0.10000000000E+04  0.00000000000E+00 0.  1.
    9000005    2    1    2  501    0  0.28276292057E+02 -0.12190139589E+02 -0.35625792114E+03  0.35760366104E+03  0.35389012606E+01 0.  0.
         13    1    3    3    0    0  0.11340192041E+02 -0.30625789546E+01 -0.13929061455E+03  0.13978503012E+03  0.00000000000E+00 0.  1.
          3    1    3    3  501    0  0.16936100016E+02 -0.91275606343E+01 -0.21696730659E+03  0.21781863092E+03  0.00000000000E+00 0.  1.
         -1    1    1    2    0  502 -0.28276292057E+02  0.12190139589E+02 -0.64270060621E+03  0.64343781161E+03  0.00000000000E+00 0. -1.
<mgrwt>
<rscale>  1 0.30000000E+03</rscale>
<asrwt>0</asrwt>
<pdfrwt beam="1">  1       21 0.37871813E-02 0.30000000E+03</pdfrwt>
<pdfrwt beam="2">0</pdfrwt>
<totfact> 0.46097028E+04</totfact>
</mgrwt>
</event>
<event>
 6    1  0.1270461E-001  0.3000000E+03  0.7818608E-02  0.1093470E+00
         21   -1    0    0  501  502  0.00000000000E+00  0.00000000000E+00  0.29903015822E+01  0.29903015822E+01  0.00000000000E+00 0. -1.
         13   -1    0    0    0    0 -0.00000000000E+00 -0.00000000000E+00 -0.10000000000E+04  0.10000000000E+04  0.00000000000E+00 0.  1.
    9000005    2    1    2  501    0 -0.11950974944E+02 -0.31951787840E+02 -0.89007421873E+03  0.89074530453E+03  0.55982262648E+01 0.  0.
         13    1    3    3    0    0 -0.84580846512E+01 -0.14829020198E+02 -0.45607983246E+03  0.45639922504E+03  0.00000000000E+00 0.  1.
          3    1    3    3  501    0 -0.34928902932E+01 -0.17122767642E+02 -0.43399438627E+03  0.43434607949E+03  0.00000000000E+00 0.  1.
         -3    1    1    2    0  502  0.11950974944E+02  0.31951787840E+02 -0.10693547968E+03  0.11224499705E+03  0.00000000000E+00 0. -1.
<mgrwt>
<rscale>  1 0.30000000E+03</rscale>
<asrwt>0</asrwt>
<pdfrwt beam="1">  1       21 0.10873847E-01 0.30000000E+03</pdfrwt>
<pdfrwt beam="2">0</pdfrwt>
<totfact> 0.74040181E+03</totfact>
</mgrwt>
</event>
<event>
 6    1  0.1270461E-001  0.3000000E+03  0.7818608E-02  0.1093470E+00
         21   -1    0    0  501  502  0.00000000000E+00  0.00000000000E+00  0.17107547794E+01  0.17107547794E+01  0.00000000000E+00 0. -1.
         13   -1    0    0    0    0 -0.00000000000E+00 -0.00000000000E+00 -0.10000000000E+04  0.10000000000E+04  0.00000000000E+00 0.  1.
    9000005    2    1    2  501    0 -0.24515196461E+02 -0.18161981113E+02 -0.83469377635E+03  0.83529462020E+03  0.85176188912E+01 0.  0.
         13    1    3    3    0    0 -0.62411247464E+01 -0.67287780999E+00 -0.14047732026E+03  0.14061750215E+03  0.00000000000E+00 0.  1.
          1    1    3    3  501    0 -0.18274071715E+02 -0.17489103303E+02 -0.69421645609E+03  0.69467711805E+03  0.00000000000E+00 0.  1.
         -3    1    1    2    0  502  0.24515196461E+02  0.18161981113E+02 -0.16359546887E+03  0.16641613458E+03  0.00000000000E+00 0. -1.
<mgrwt>
<rscale>  1 0.30000000E+03</rscale>
<asrwt>0</asrwt>
<pdfrwt beam="1">  1       21 0.62209396E-02 0.30000000E+03</pdfrwt>
<pdfrwt beam="2">0</pdfrwt>
<totfact> 0.19796716E+04</totfact>
</mgrwt>
</event>
<event>
 6    1  0.1270461E-001  0.3000000E+03  0.7818608E-02  0.1093470E+00
         21   -1    0    0  501  502  0.00000000000E+00  0.00000000000E+00  0.33695269184E+02  0.33695269184E+02  0.00000000000E+00 0. -1.
         13   -1    0    0    0    0 -0.00000000000E+00 -0.00000000000E+00 -0.10000000000E+04  0.10000000000E+04  0.00000000000E+00 0.  1.
    9000005    2    1    2  501    0 -0.14211930502E+03 -0.39822720228E+02 -0.79042041912E+03  0.80408900401E+03  0.33077951496E+01 0.  0.
         13    1    3    3    0    0 -0.75962136083E+02 -0.19781409451E+02 -0.42460703446E+03  0.43180167206E+03  0.00000000000E+00 0.  1.
          1    1    3    3  501    0 -0.66157168935E+02 -0.20041310778E+02 -0.36581338466E+03  0.37228733195E+03  0.00000000000E+00 0.  1.
         -3    1    1    2    0  502  0.14211930502E+03  0.39822720228E+02 -0.17588431170E+03  0.22960626517E+03  0.00000000000E+00 0. -1.
<mgrwt>
<rscale>  1 0.30000000E+03</rscale>
<asrwt>0</asrwt>
<pdfrwt beam="1">  1       21 0.12252851E+00 0.30000000E+03</pdfrwt>
<pdfrwt beam="2">0</pdfrwt>
<totfact> 0.42865336E+01</totfact>
</mgrwt>
</event>
<event>
 6    1  0.1270461E-001  0.3000000E+03  0.7818608E-02  0.1093470E+00
         21   -1    0    0  501  502  0.00000000000E+00  0.00000000000E+00  0.21253354849E+01  0.21253354849E+01  0.00000000000E+00 0. -1.
         13   -1    0    0    0    0 -0.00000000000E+00 -0.00000000000E+00 -0.10000000000E+04  0.10000000000E+04  0.00000000000E+00 0.  1.
    9000005    2    1    2  501    0 -0.16354754131E+02 -0.33323708396E+02 -0.21908517792E+03  0.22245167814E+03  0.10415680478E+02 0.  0.
         13    1    3    3    0    0 -0.95064647720E+01 -0.28601742505E+02 -0.16493439261E+03  0.16766569838E+03  0.00000000000E+00 0.  1.
          3    1    3    3  501    0 -0.68482893586E+01 -0.47219658908E+01 -0.54150785310E+02  0.54785979764E+02  0.00000000000E+00 0.  1.
         -1    1    1    2    0  502  0.16354754131E+02  0.33323708396E+02 -0.77878948660E+03  0.77967365734E+03  0.00000000000E+00 0. -1.
<mgrwt>
<rscale>  1 0.30000000E+03</rscale>
<asrwt>0</asrwt>
<pdfrwt beam="1">  1       21 0.77285090E-02 0.30000000E+03</pdfrwt>
<pdfrwt beam="2">0</pdfrwt>
<totfact> 0.13571714E+04</totfact>
</mgrwt>
</event>
<event>
 6    1  0.1270461E-001  0.3000000E+03  0.7818608E-02  0.1093470E+00
         21   -1    0    0  501  502  0.00000000000E+00  0.00000000000E+00  0.11164040732E+01  0.11164040732E+01  0.00000000000E+00 0. -1.
         13   -1    0    0    0    0 -0.00000000000E+00 -0.00000000000E+00 -0.10000000000E+04  0.10000000000E+04  0.00000000000E+00 0.  1.
    9000005    2    1    2  501    0 -0.17581636803E+02 -0.28140451647E+02 -0.55057307727E+03  0.55157962014E+03  0.28922252032E+01 0.  0.
         13    1    3    3    0    0 -0.70469421084E+01 -0.87483964541E+01 -0.18135498893E+03  0.18170257523E+03  0.00000000000E+00 0.  1.
          1    1    3    3  501    0 -0.10534694694E+02 -0.19392055193E+02 -0.36921808834E+03  0.36987704491E+03  0.00000000000E+00 0.  1.
         -3    1    1    2    0  502  0.17581636803E+02  0.28140451647E+02 -0.44831051866E+03  0.44953678393E+03  0.00000000000E+00 0. -1.
<mgrwt>
<rscale>  1 0.30000000E+03</rscale>
<asrwt>0</asrwt>
<pdfrwt beam="1">  1       21 0.40596597E-02 0.30000000E+03</pdfrwt>
<pdfrwt beam="2">0</pdfrwt>
<totfact> 0.41011580E+04</totfact>
</mgrwt>
</event>
<event>
 6    1  0.1270461E-001  0.3000000E+03  0.7818608E-02  0.1093470E+00
         21   -1    0    0  501  502  0.00000000000E+00  0.00000000000E+00  0.34562516667E+01  0.34562516667E+01  0.00000000000E+00 0. -1.
         13   -1    0    0    0    0 -0.00000000000E+00 -0.00000000000E+00 -0.10000000000E+04  0.10000000000E+04  0.00000000000E+00 0.  1.
    9000005    2    1    2  501    0 -0.43305713758E+02 -0.16184237379E+02 -0.80792881363E+03  0.80925813639E+03  0.35283193737E+01 0.  0.
         13    1    3    3    0    0 -0.14922356221E+02 -0.62747755714E+01 -0.25629792289E+03  0.25680863459E+03  0.00000000000E+00 0.  1.
          1    1    3    3  501    0 -0.28383357537E+02 -0.99094618080E+01 -0.55163089074E+03  0.55244950180E+03  0.00000000000E+00 0.  1.
         -1    1    1    2    0  502  0.43305713758E+02  0.16184237379E+02 -0.18861493471E+03  0.19419811528E+03  0.00000000000E+00 0. -1.
<mgrwt>
<rscale>  1 0.30000000E+03</rscale>
<asrwt>0</asrwt>
<pdfrwt beam="1">  1       21 0.12568214E-01 0.30000000E+03</pdfrwt>
<pdfrwt beam="2">0</pdfrwt>
<totfact> 0.56969329E+03</totfact>
</mgrwt>
</event>
<event>
 6    1  0.1270461E-001  0.3000000E+03  0.7818608E-02  0.1093470E+00
         21   -1    0    0  501  502  0.00000000000E+00  0.00000000000E+00  0.16239670581E+01  0.16239670581E+01  0.00000000000E+00 0. -1.
         13   -1    0    0    0    0 -0.00000000000E+00 -0.00000000000E+00 -0.10000000000E+04  0.10000000000E+04  0.00000000000E+00 0.  1.
    9000005    2    1    2  501    0 -0.10055834675E+02  0.37932456067E+02 -0.60966388776E+03  0.61093595490E+03  0.35628518392E+01 0.  0.
         13    1    3    3    0    0 -0.12872432342E+01  0.39501637154E+01 -0.83124339291E+02  0.83228099649E+02  0.00000000000E+00 0.  1.
          3    1    3    3  501    0 -0.87685914404E+01  0.33982292352E+02 -0.52653954847E+03  0.52770785525E+03  0.00000000000E+00 0.  1.
         -3    1    1    2    0  502  0.10055834675E+02 -0.37932456067E+02 -0.38871214518E+03  0.39068801216E+03  0.00000000000E+00 0. -1.
<mgrwt>
<rscale>  1 0.30000000E+03</rscale>
<asrwt>0</asrwt>
<pdfrwt beam="1">  1       21 0.59053472E-02 0.30000000E+03</pdfrwt>
<pdfrwt beam="2">0</pdfrwt>
<totfact> 0.21657348E+04</totfact>
</mgrwt>
</event>
<event>
 6    1  0.1270461E-001  0.3000000E+03  0.7818608E-02  0.1093470E+00
         21   -1    0    0  501  502  0.00000000000E+00  0.00000000000E+00  0.13991260115E+01  0.13991260115E+01  0.00000000000E+00 0. -1.
         13   -1    0    0    0    0 -0.00000000000E+00 -0.00000000000E+00 -0.10000000000E+04  0.10000000000E+04  0.00000000000E+00 0.  1.
    9000005    2    1    2  501    0  0.30317170854E+02 -0.86914059252E+01 -0.76806339509E+03  0.76871435951E+03  0.23908685221E+01 0.  0.
         13    1    3    3    0    0  0.14500398949E+02 -0.50265473846E+01 -0.39400966700E+03  0.39430843947E+03  0.00000000000E+00 0.  1.
          1    1    3    3  501    0  0.15816771905E+02 -0.36648585407E+01 -0.37405372809E+03  0.37440592004E+03  0.00000000000E+00 0.  1.
         -1    1    1    2    0  502 -0.30317170854E+02  0.86914059252E+01 -0.23053747890E+03  0.23268476650E+03  0.00000000000E+00 0. -1.
<mgrwt>
<rscale>  1 0.30000000E+03</rscale>
<asrwt>0</asrwt>
<pdfrwt beam="1">  1       21 0.50877417E-02 0.30000000E+03</pdfrwt>
<pdfrwt beam="2">0</pdfrwt>
<totfact> 0.27962612E+04</totfact>
</mgrwt>
</event>
<event>
 6    1  0.1270461E-001  0.3000000E+03  0.7818608E-02  0.1093470E+00
         21   -1    0    0  501  502  0.00000000000E+00  0.00000000000E+00  0.16960115868E+01  0.16960115868E+01  0.00000000000E+00 0. -1.
         13   -1    0    0    0    0 -0.00000000000E+00 -0.00000000000E+00 -0.10000000000E+04  0.10000000000E+04  0.00000000000E+00 0.  1.
    9000005    2    1    2  501    0  0.38165503680E+02 -0.47015878245E+00 -0.68568889848E+03  0.68675947644E+03  0.35335891320E+01 0.  0.
         13    1    3    3    0    0  0.51850496303E+00  0.35491500451E+00 -0.76634103836E+01  0.76891267882E+01  0.00000000000E+00 0.  1.
          3    1    3    3  501    0  0.37646998716E+02 -0.82507378696E+00 -0.67802548810E+03  0.67907034965E+03  0.00000000000E+00 0.  1.
         -3    1    1    2    0  502 -0.38165503680E+02  0.47015878245E+00 -0.31261508993E+03  0.31493653515E+03  0.00000000000E+00 0. -1.
<mgrwt>
<rscale>  1 0.30000000E+03</rscale>
<asrwt>0</asrwt>
<pdfrwt beam="1">  1       21 0.61673279E-02 0.30000000E+03</pdfrwt>
<pdfrwt beam="2">0</pdfrwt>
<totfact> 0.20094855E+04</totfact>
</mgrwt>
</event>
<event>
 6    1  0.1270461E-001  0.3000000E+03  0.7818608E-02  0.1093470E+00
         21   -1    0    0  501  502  0.00000000000E+00  0.00000000000E+00  0.23631320469E+01  0.23631320469E+01  0.00000000000E+00 0. -1.
         13   -1    0    0    0    0 -0.00000000000E+00 -0.00000000000E+00 -0.10000000000E+04  0.10000000000E+04  0.00000000000E+00 0.  1.
    9000005    2    1    2  501    0  0.18570175684E+02  0.38983391572E+02 -0.72641097318E+03  0.72772147053E+03  0.64094052659E+01 0.  0.
         13    1    3    3    0    0  0.68335652077E+01  0.11660687396E+02 -0.27517922871E+03  0.27551093836E+03  0.00000000000E+00 0.  1.
          1    1    3    3  501    0  0.11736610476E+02  0.27322704175E+02 -0.45123174447E+03  0.45221053217E+03  0.00000000000E+00 0.  1.
         -3    1    1    2    0  502 -0.18570175684E+02 -0.38983391572E+02 -0.27122589477E+03  0.27464166151E+03  0.00000000000E+00 0. -1.
<mgrwt>
<rscale>  1 0.30000000E+03</rscale>
<asrwt>0</asrwt>
<pdfrwt beam="1">  1       21 0.85932256E-02 0.30000000E+03</pdfrwt>
<pdfrwt beam="2">0</pdfrwt>
<totfact> 0.11262444E+04</totfact>
</mgrwt>
</event>
<event>
 6    1  0.1270461E-001  0.3000000E+03  0.7818608E-02  0.1093470E+00
         21   -1    0    0  501  502  0.00000000000E+00  0.00000000000E+00  0.14948845845E+01  0.14948845845E+01  0.00000000000E+00 0. -1.
         13   -1    0    0    0    0 -0.00000000000E+00 -0.00000000000E+00 -0.10000000000E+04  0.10000000000E+04  0.00000000000E+00 0.  1.
    9000005    2    1    2  501    0 -0.20005492974E+02  0.32089448671E+02 -0.59948617715E+03  0.60068811623E+03  0.35473820708E+01 0.  0.
         13    1    3    3    0    0 -0.18743356684E+02  0.30767873701E+02 -0.55812772812E+03  0.55928931365E+03  0.00000000000E+00 0.  1.
          3    1    3    3  501    0 -0.12621362903E+01  0.13215749698E+01 -0.41358449036E+02  0.41398802580E+02  0.00000000000E+00 0.  1.
         -1    1    1    2    0  502  0.20005492974E+02 -0.32089448671E+02 -0.39901893826E+03  0.40080676835E+03  0.00000000000E+00 0. -1.
<mgrwt>
<rscale>  1 0.30000000E+03</rscale>
<asrwt>0</asrwt>
<pdfrwt beam="1">  1       21 0.54359554E-02 0.30000000E+03</pdfrwt>
<pdfrwt beam="2">0</pdfrwt>
<totfact> 0.24970435E+04</totfact>
</mgrwt>
</event>
<event>
 6    1  0.1270461E-001  0.3000000E+03  0.7818608E-02  0.1093470E+00
         21   -1    0    0  501  502  0.00000000000E+00  0.00000000000E+00  0.40032108255E+01  0.40032108255E+01  0.00000000000E+00 0. -1.
         13   -1    0    0    0    0 -0.00000000000E+00 -0.00000000000E+00 -0.10000000000E+04  0.10000000000E+04  0.00000000000E+00 0.  1.
    9000005    2    1    2  501    0 -0.31650825073E+02  0.97944353214E+01 -0.92560149667E+03  0.92620087861E+03  0.34973151887E+01 0.  0.
         13    1    3    3    0    0 -0.25215947119E+02  0.92120445218E+01 -0.75420963914E+03  0.75468727664E+03  0.00000000000E+00 0.  1.
          1    1    3    3  501    0 -0.64348779537E+01  0.58239079956E+00 -0.17139185753E+03  0.17151360197E+03  0.00000000000E+00 0.  1.
         -1    1    1    2    0  502  0.31650825073E+02 -0.97944353214E+01 -0.70395292508E+02  0.77802332216E+02  0.00000000000E+00 0. -1.
<mgrwt>
<rscale>  1 0.30000000E+03</rscale>
<asrwt>0</asrwt>
<pdfrwt beam="1">  1       21 0.14557161E-01 0.30000000E+03</pdfrwt>
<pdfrwt beam="2">0</pdfrwt>
<totfact> 0.43524817E+03</totfact>
</mgrwt>
</event>
<event>
 6    1  0.1270461E-001  0.3000000E+03  0.7818608E-02  0.1093470E+00
         21   -1    0    0  501  502  0.00000000000E+00  0.00000000000E+00  0.51176545772E+01  0.51176545772E+01  0.00000000000E+00 0. -1.
         13   -1    0    0    0    0 -0.00000000000E+00 -0.00000000000E+00 -0.10000000000E+04  0.10000000000E+04  0.00000000000E+00 0.  1.
    9000005    2    1    2  501    0  0.31022151425E+02  0.64919286887E+01 -0.94793930160E+03  0.94847695913E+03  0.38863181841E+01 0.  0.
         13    1    3    3    0    0  0.24106737043E+02  0.34817552964E+01 -0.74148615248E+03  0.74188609079E+03  0.00000000000E+00 0.  1.
          1    1    3    3  501    0  0.69154143823E+01  0.30101733924E+01 -0.20645314912E+03  0.20659086834E+03  0.00000000000E+00 0.  1.
         -3    1    1    2    0  502 -0.31022151425E+02 -0.64919286887E+01 -0.46943043821E+02  0.56640695443E+02  0.00000000000E+00 0. -1.
<mgrwt>
<rscale>  1 0.30000000E+03</rscale>
<asrwt>0</asrwt>
<pdfrwt beam="1">  1       21 0.18609692E-01 0.30000000E+03</pdfrwt>
<pdfrwt beam="2">0</pdfrwt>
<totfact> 0.27510848E+03</totfact>
</mgrwt>
</event>
<event>
 6    1  0.1270461E-001  0.3000000E+03  0.7818608E-02  0.1093470E+00
         21   -1    0    0  501  502  0.00000000000E+00  0.00000000000E+00  0.30795330040E+01  0.30795330040E+01  0.00000000000E+00 0. -1.
         13   -1    0    0    0    0 -0.00000000000E+00 -0.00000000000E+00 -0.10000000000E+04  0.10000000000E+04  0.00000000000E+00 0.  1.
    9000005    2    1    2  501    0  0.22813685859E+02  0.36647119101E+02 -0.81325096493E+03  0.81440531222E+03  0.39249209607E+01 0.  0.
         13    1    3    3    0    0  0.19897992819E+02  0.30764990169E+02 -0.66410721301E+03  0.66511713639E+03  0.00000000000E+00 0.  1.
          3    1    3    3  501    0  0.29156930408E+01  0.58821289325E+01 -0.14914375192E+03  0.14928817583E+03  0.00000000000E+00 0.  1.
         -1    1    1    2    0  502 -0.22813685859E+02 -0.36647119101E+02 -0.18366950206E+03  0.18867422079E+03  0.00000000000E+00 0. -1.
<mgrwt>
<rscale>  1 0.30000000E+03</rscale>
<asrwt>0</asrwt>
<pdfrwt beam="1">  1       21 0.11198325E-01 0.30000000E+03</pdfrwt>
<pdfrwt beam="2">0</pdfrwt>
<totfact> 0.70224112E+03</totfact>
</mgrwt>
</event>
<event>
 6    1  0.1270461E-001  0.3000000E+03  0.7818608E-02  0.1093470E+00
         21   -1    0    0  501  502  0.00000000000E+00  0.00000000000E+00  0.17087669983E+01  0.17087669983E+01  0.00000000000E+00 0. -1.
         13   -1    0    0    0    0 -0.00000000000E+00 -0.00000000000E+00 -0.10000000000E+04  0.10000000000E+04  0.00000000000E+00 0.  1.
    9000005    2    1    2  501    0 -0.33373350043E+02  0.22458578959E+02 -0.38790927088E+03  0.39000270364E+03  0.32152997267E+01 0.  0.
         13    1    3    3    0    0 -0.28892142347E+02  0.18077151219E+02 -0.33008563603E+03  0.33184042309E+03  0.00000000000E+00 0.  1.
          3    1    3    3  501    0 -0.44812076960E+01  0.43814277405E+01 -0.57823634851E+02  0.58162280550E+02  0.00000000000E+00 0.  1.
         -1    1    1    2    0  502  0.33373350043E+02 -0.22458578959E+02 -0.61038196212E+03  0.61170606336E+03  0.00000000000E+00 0. -1.
<mgrwt>
<rscale>  1 0.30000000E+03</rscale>
<asrwt>0</asrwt>
<pdfrwt beam="1">  1       21 0.62137113E-02 0.30000000E+03</pdfrwt>
<pdfrwt beam="2">0</pdfrwt>
<totfact> 0.19836512E+04</totfact>
</mgrwt>
</event>
<event>
 6    1  0.1270461E-001  0.3000000E+03  0.7818608E-02  0.1093470E+00
         21   -1    0    0  501  502  0.00000000000E+00  0.00000000000E+00  0.17368316932E+01  0.17368316932E+01  0.00000000000E+00 0. -1.
         13   -1    0    0    0    0 -0.00000000000E+00 -0.00000000000E+00 -0.10000000000E+04  0.10000000000E+04  0.00000000000E+00 0.  1.
    9000005    2    1    2  501    0 -0.33243442332E+02 -0.15505386665E+02 -0.73592805592E+03  0.73684958272E+03  0.34147623104E+01 0.  0.
         13    1    3    3    0    0 -0.22257882492E+02 -0.11131624643E+02 -0.46908198508E+03  0.46974166850E+03  0.00000000000E+00 0.  1.
          3    1    3    3  501    0 -0.10985559840E+02 -0.43737620214E+01 -0.26684607084E+03  0.26710791422E+03  0.00000000000E+00 0.  1.
         -1    1    1    2    0  502  0.33243442332E+02  0.15505386665E+02 -0.26233511239E+03  0.26488724897E+03  0.00000000000E+00 0. -1.
<mgrwt>
<rscale>  1 0.30000000E+03</rscale>
<asrwt>0</asrwt>
<pdfrwt beam="1">  1       21 0.63157649E-02 0.30000000E+03</pdfrwt>
<pdfrwt beam="2">0</pdfrwt>
<totfact> 0.19285915E+04</totfact>
</mgrwt>
</event>
<event>
 6    1  0.1270461E-001  0.3000000E+03  0.7818608E-02  0.1093470E+00
         21   -1    0    0  501  502  0.00000000000E+00  0.00000000000E+00  0.17414352306E+01  0.17414352306E+01  0.00000000000E+00 0. -1.
         13   -1    0    0    0    0 -0.00000000000E+00 -0.00000000000E+00 -0.10000000000E+04  0.10000000000E+04  0.00000000000E+00 0.  1.
    9000005    2    1    2  501    0 -0.15933205242E+02  0.27482339314E+02 -0.82263326792E+03  0.82326625237E+03  0.57168872600E+01 0.  0.
         13    1    3    3    0    0 -0.64422608493E+01  0.16532853840E+02 -0.43149296054E+03  0.43185763045E+03  0.00000000000E+00 0.  1.
          1    1    3    3  501    0 -0.94909443929E+01  0.10949485474E+02 -0.39114030738E+03  0.39140862192E+03  0.00000000000E+00 0.  1.
         -1    1    1    2    0  502  0.15933205242E+02 -0.27482339314E+02 -0.17562529685E+03  0.17847518286E+03  0.00000000000E+00 0. -1.
<mgrwt>
<rscale>  1 0.30000000E+03</rscale>
<asrwt>0</asrwt>
<pdfrwt beam="1">  1       21 0.63325051E-02 0.30000000E+03</pdfrwt>
<pdfrwt beam="2">0</pdfrwt>
<totfact> 0.19197862E+04</totfact>
</mgrwt>
</event>
<event>
 6    1  0.1270461E-001  0.3000000E+03  0.7818608E-02  0.1093470E+00
         21   -1    0    0  501  502  0.00000000000E+00  0.00000000000E+00  0.19398878225E+01  0.19398878225E+01  0.00000000000E+00 0. -1.
         13   -1    0    0    0    0 -0.00000000000E+00 -0.00000000000E+00 -0.10000000000E+04  0.10000000000E+04  0.00000000000E+00 0.  1.
    9000005    2    1    2  501    0 -0.21301625320E+02 -0.37155528458E+02 -0.61317087912E+03  0.61467510210E+03  0.35583150287E+01 0.  0.
         13    1    3    3    0    0 -0.18670452259E+01 -0.32151817069E+01 -0.40533855927E+02  0.40704013655E+02  0.00000000000E+00 0.  1.
          3    1    3    3  501    0 -0.19434580095E+02 -0.33940346751E+02 -0.57263702319E+03  0.57397108845E+03  0.00000000000E+00 0.  1.
         -1    1    1    2    0  502  0.21301625320E+02  0.37155528458E+02 -0.38488923306E+03  0.38726478572E+03  0.00000000000E+00 0. -1.
<mgrwt>
<rscale>  1 0.30000000E+03</rscale>
<asrwt>0</asrwt>
<pdfrwt beam="1">  1       21 0.70541524E-02 0.30000000E+03</pdfrwt>
<pdfrwt beam="2">0</pdfrwt>
<totfact> 0.15920266E+04</totfact>
</mgrwt>
</event>
<event>
 6    1  0.1270461E-001  0.3000000E+03  0.7818608E-02  0.1093470E+00
         21   -1    0    0  501  502  0.00000000000E+00  0.00000000000E+00  0.10353349073E+01  0.10353349073E+01  0.00000000000E+00 0. -1.
         13   -1    0    0    0    0 -0.00000000000E+00 -0.00000000000E+00 -0.10000000000E+04  0.10000000000E+04  0.00000000000E+00 0.  1.
    9000005    2    1    2  501    0  0.95162015086E+01 -0.29835774143E+02 -0.60510418123E+03  0.60593178866E+03  0.46401352279E+01 0.  0.
         13    1    3    3    0    0  0.24070117583E+00  0.96391038493E-01 -0.97862563800E+01  0.97896906092E+01  0.00000000000E+00 0.  1.
          3    1    3    3  501    0  0.92755003328E+01 -0.29932165181E+02 -0.59531792485E+03  0.59614209805E+03  0.00000000000E+00 0.  1.
         -1    1    1    2    0  502 -0.95162015086E+01  0.29835774143E+02 -0.39386048386E+03  0.39510354625E+03  0.00000000000E+00 0. -1.
<mgrwt>
<rscale>  1 0.30000000E+03</rscale>
<asrwt>0</asrwt>
<pdfrwt beam="1">  1       21 0.37648621E-02 0.30000000E+03</pdfrwt>
<pdfrwt beam="2">0</pdfrwt>
<totfact> 0.46556979E+04</totfact>
</mgrwt>
</event>
<event>
 6    1  0.1270461E-001  0.3000000E+03  0.7818608E-02  0.1093470E+00
         21   -1    0    0  501  502  0.00000000000E+00  0.00000000000E+00  0.60346112971E+01  0.60346112971E+01  0.00000000000E+00 0. -1.
         13   -1    0    0    0    0 -0.00000000000E+00 -0.00000000000E+00 -0.10000000000E+04  0.10000000000E+04  0.00000000000E+00 0.  1.
    9000005    2    1    2  501    0  0.81317840935E+01 -0.40794223863E+02 -0.72677374776E+02  0.83808012668E+02  0.33893317869E+01 0.  0.
         13    1    3    3    0    0  0.15954199390E+01 -0.14069870195E+02 -0.22557758671E+02  0.26633795981E+02  0.00000000000E+00 0.  1.
          3    1    3    3  501    0  0.65363641545E+01 -0.26724353668E+02 -0.50119616105E+02  0.57174216687E+02  0.00000000000E+00 0.  1.
         -3    1    1    2    0  502 -0.81317840935E+01  0.40794223863E+02 -0.92128801393E+03  0.92222659863E+03  0.00000000000E+00 0. -1.
<mgrwt>
<rscale>  1 0.30000000E+03</rscale>
<asrwt>0</asrwt>
<pdfrwt beam="1">  1       21 0.21944087E-01 0.30000000E+03</pdfrwt>
<pdfrwt beam="2">0</pdfrwt>
<totfact> 0.20084082E+03</totfact>
</mgrwt>
</event>
<event>
 6    1  0.1270461E-001  0.3000000E+03  0.7818608E-02  0.1093470E+00
         21   -1    0    0  501  502  0.00000000000E+00  0.00000000000E+00  0.12066595120E+01  0.12066595120E+01  0.00000000000E+00 0. -1.
         13   -1    0    0    0    0 -0.00000000000E+00 -0.00000000000E+00 -0.10000000000E+04  0.10000000000E+04  0.00000000000E+00 0.  1.
    9000005    2    1    2  501    0 -0.27467510531E+02 -0.12974006869E+02 -0.74081540355E+03  0.74144637591E+03  0.35323119365E+01 0.  0.
         13    1    3    3    0    0 -0.23385105197E+02 -0.11917951812E+02 -0.65880758357E+03  0.65933021536E+03  0.00000000000E+00 0.  1.
          3    1    3    3  501    0 -0.40824053348E+01 -0.10560550563E+01 -0.82007819977E+02  0.82116160547E+02  0.00000000000E+00 0.  1.
         -3    1    1    2    0  502  0.27467510531E+02  0.12974006869E+02 -0.25797793694E+03  0.25976028360E+03  0.00000000000E+00 0. -1.
<mgrwt>
<rscale>  1 0.30000000E+03</rscale>
<asrwt>0</asrwt>
<pdfrwt beam="1">  1       21 0.43878620E-02 0.30000000E+03</pdfrwt>
<pdfrwt beam="2">0</pdfrwt>
<totfact> 0.35964288E+04</totfact>
</mgrwt>
</event>
<event>
 6    1  0.1270461E-001  0.3000000E+03  0.7818608E-02  0.1093470E+00
         21   -1    0    0  501  502  0.00000000000E+00  0.00000000000E+00  0.39415381477E+01  0.39415381477E+01  0.00000000000E+00 0. -1.
         13   -1    0    0    0    0 -0.00000000000E+00 -0.00000000000E+00 -0.10000000000E+04  0.10000000000E+04  0.00000000000E+00 0.  1.
    9000005    2    1    2  501    0 -0.37559194215E+02  0.24140378862E+02 -0.85076544145E+03  0.85194314099E+03  0.34392075377E+01 0.  0.
         13    1    3    3    0    0 -0.14305592796E+02  0.10999847864E+02 -0.32915154999E+03  0.32964585467E+03  0.00000000000E+00 0.  1.
          3    1    3    3  501    0 -0.23253601419E+02  0.13140530998E+02 -0.52161389146E+03  0.52229728632E+03  0.00000000000E+00 0.  1.
         -1    1    1    2    0  502  0.37559194215E+02 -0.24140378862E+02 -0.14529302040E+03  0.15199839716E+03  0.00000000000E+00 0. -1.
<mgrwt>
<rscale>  1 0.30000000E+03</rscale>
<asrwt>0</asrwt>
<pdfrwt beam="1">  1       21 0.14332896E-01 0.30000000E+03</pdfrwt>
<pdfrwt beam="2">0</pdfrwt>
<totfact> 0.44788270E+03</totfact>
</mgrwt>
</event>
<event>
 6    1  0.1270461E-001  0.3000000E+03  0.7818608E-02  0.1093470E+00
         21   -1    0    0  501  502  0.00000000000E+00  0.00000000000E+00  0.12911600625E+01  0.12911600625E+01  0.00000000000E+00 0. -1.
         13   -1    0    0    0    0 -0.00000000000E+00 -0.00000000000E+00 -0.10000000000E+04  0.10000000000E+04  0.00000000000E+00 0.  1.
    9000005    2    1    2  501    0 -0.20322871884E+02  0.27005161187E+02 -0.33388377233E+03  0.33560755025E+03  0.34287764284E+01 0.  0.
         13    1    3    3    0    0 -0.10321825828E+02  0.16533544403E+02 -0.19215814951E+03  0.19314412391E+03  0.00000000000E+00 0.  1.
          3    1    3    3  501    0 -0.10001046056E+02  0.10471616784E+02 -0.14172562282E+03  0.14246342634E+03  0.00000000000E+00 0.  1.
         -3    1    1    2    0  502  0.20322871884E+02 -0.27005161187E+02 -0.66482506761E+03  0.66568360982E+03  0.00000000000E+00 0. -1.
<mgrwt>
<rscale>  1 0.30000000E+03</rscale>
<asrwt>0</asrwt>
<pdfrwt beam="1">  1       21 0.46951374E-02 0.30000000E+03</pdfrwt>
<pdfrwt beam="2">0</pdfrwt>
<totfact> 0.32060708E+04</totfact>
</mgrwt>
</event>
<event>
 6    1  0.1270461E-001  0.3000000E+03  0.7818608E-02  0.1093470E+00
         21   -1    0    0  501  502  0.00000000000E+00  0.00000000000E+00  0.66594965029E+01  0.66594965029E+01  0.00000000000E+00 0. -1.
         13   -1    0    0    0    0 -0.00000000000E+00 -0.00000000000E+00 -0.10000000000E+04  0.10000000000E+04  0.00000000000E+00 0.  1.
    9000005    2    1    2  501    0  0.79102659415E+02  0.38892686612E+01 -0.61733266400E+03  0.62240144193E+03  0.34029022646E+01 0.  0.
         13    1    3    3    0    0  0.73189652736E+02  0.27375852652E+01 -0.56828838790E+03  0.57298857882E+03  0.00000000000E+00 0.  1.
          1    1    3    3  501    0  0.59130066796E+01  0.11516833960E+01 -0.49044276102E+02  0.49412863113E+02  0.00000000000E+00 0.  1.
         -1    1    1    2    0  502 -0.79102659415E+02 -0.38892686612E+01 -0.37600783950E+03  0.38425805457E+03  0.00000000000E+00 0. -1.
<mgrwt>
<rscale>  1 0.30000000E+03</rscale>
<asrwt>0</asrwt>
<pdfrwt beam="1">  1       21 0.24216402E-01 0.30000000E+03</pdfrwt>
<pdfrwt beam="2">0</pdfrwt>
<totfact> 0.16596512E+03</totfact>
</mgrwt>
</event>
<event>
 6    1  0.1270461E-001  0.3000000E+03  0.7818608E-02  0.1093470E+00
         21   -1    0    0  501  502  0.00000000000E+00  0.00000000000E+00  0.95765249873E+01  0.95765249873E+01  0.00000000000E+00 0. -1.
         13   -1    0    0    0    0 -0.00000000000E+00 -0.00000000000E+00 -0.10000000000E+04  0.10000000000E+04  0.00000000000E+00 0.  1.
    9000005    2    1    2  501    0 -0.63222881685E+02 -0.52893344844E+02 -0.22353232231E+03  0.23826797532E+03  0.31765150822E+01 0.  0.
         13    1    3    3    0    0 -0.55001260973E+02 -0.45320357833E+02 -0.19039447625E+03  0.20329567169E+03  0.00000000000E+00 0.  1.
          3    1    3    3  501    0 -0.82216207117E+01 -0.75729870110E+01 -0.33137846063E+02  0.34972303628E+02  0.00000000000E+00 0.  1.
         -1    1    1    2    0  502  0.63222881685E+02  0.52893344844E+02 -0.76689115270E+03  0.77130854967E+03  0.00000000000E+00 0. -1.
<mgrwt>
<rscale>  1 0.30000000E+03</rscale>
<asrwt>0</asrwt>
<pdfrwt beam="1">  1       21 0.34823801E-01 0.30000000E+03</pdfrwt>
<pdfrwt beam="2">0</pdfrwt>
<totfact> 0.80404978E+02</totfact>
</mgrwt>
</event>
<event>
 6    1  0.1270461E-001  0.3000000E+03  0.7818608E-02  0.1093470E+00
         21   -1    0    0  501  502  0.00000000000E+00  0.00000000000E+00  0.21061162127E+01  0.21061162127E+01  0.00000000000E+00 0. -1.
         13   -1    0    0    0    0 -0.00000000000E+00 -0.00000000000E+00 -0.10000000000E+04  0.10000000000E+04  0.00000000000E+00 0.  1.
    9000005    2    1    2  501    0 -0.40420399304E+02  0.20728995573E+02 -0.56486585651E+03  0.56670196793E+03  0.37662532254E+01 0.  0.
         13    1    3    3    0    0 -0.18133275143E+01  0.18569678130E+01 -0.29135409656E+02  0.29250787716E+02  0.00000000000E+00 0.  1.
          3    1    3    3  501    0 -0.38607071789E+02  0.18872027760E+02 -0.53573044686E+03  0.53745118021E+03  0.00000000000E+00 0.  1.
         -1    1    1    2    0  502  0.40420399304E+02 -0.20728995573E+02 -0.43302802728E+03  0.43540414828E+03  0.00000000000E+00 0. -1.
<mgrwt>
<rscale>  1 0.30000000E+03</rscale>
<asrwt>0</asrwt>
<pdfrwt beam="1">  1       21 0.76586206E-02 0.30000000E+03</pdfrwt>
<pdfrwt beam="2">0</pdfrwt>
<totfact> 0.13789550E+04</totfact>
</mgrwt>
</event>
<event>
 6    1  0.1270461E-001  0.3000000E+03  0.7818608E-02  0.1093470E+00
         21   -1    0    0  501  502  0.00000000000E+00  0.00000000000E+00  0.21420198697E+01  0.21420198697E+01  0.00000000000E+00 0. -1.
         13   -1    0    0    0    0 -0.00000000000E+00 -0.00000000000E+00 -0.10000000000E+04  0.10000000000E+04  0.00000000000E+00 0.  1.
    9000005    2    1    2  501    0  0.12039858004E+02  0.43309497852E+02 -0.61511527068E+03  0.61676862637E+03  0.40089222999E+01 0.  0.
         13    1    3    3    0    0  0.52251073338E+01  0.12101591077E+02 -0.18411077452E+03  0.18458203474E+03  0.00000000000E+00 0.  1.
          3    1    3    3  501    0  0.68147506703E+01  0.31207906775E+02 -0.43100449616E+03  0.43218659163E+03  0.00000000000E+00 0.  1.
         -3    1    1    2    0  502 -0.12039858004E+02 -0.43309497852E+02 -0.38274270945E+03  0.38537339350E+03  0.00000000000E+00 0. -1.
<mgrwt>
<rscale>  1 0.30000000E+03</rscale>
<asrwt>0</asrwt>
<pdfrwt beam="1">  1       21 0.77891796E-02 0.30000000E+03</pdfrwt>
<pdfrwt beam="2">0</pdfrwt>
<totfact> 0.13386883E+04</totfact>
</mgrwt>
</event>
<event>
 6    1  0.1270461E-001  0.3000000E+03  0.7818608E-02  0.1093470E+00
         21   -1    0    0  501  502  0.00000000000E+00  0.00000000000E+00  0.30145850609E+01  0.30145850609E+01  0.00000000000E+00 0. -1.
         13   -1    0    0    0    0 -0.00000000000E+00 -0.00000000000E+00 -0.10000000000E+04  0.10000000000E+04  0.00000000000E+00 0.  1.
    9000005    2    1    2  501    0  0.53693821502E+02  0.11270776483E+02 -0.49943394180E+03  0.50244738149E+03  0.30086661635E+01 0.  0.
         13    1    3    3    0    0  0.44455214461E+01  0.16228164832E+01 -0.47886941583E+02  0.48120217876E+02  0.00000000000E+00 0.  1.
          1    1    3    3  501    0  0.49248300056E+02  0.96479600001E+01 -0.45154700021E+03  0.45432716361E+03  0.00000000000E+00 0.  1.
         -1    1    1    2    0  502 -0.53693821502E+02 -0.11270776483E+02 -0.49755147314E+03  0.50056720358E+03  0.00000000000E+00 0. -1.
<mgrwt>
<rscale>  1 0.30000000E+03</rscale>
<asrwt>0</asrwt>
<pdfrwt beam="1">  1       21 0.10962151E-01 0.30000000E+03</pdfrwt>
<pdfrwt beam="2">0</pdfrwt>
<totfact> 0.72971272E+03</totfact>
</mgrwt>
</event>
<event>
 6    1  0.1270461E-001  0.3000000E+03  0.7818608E-02  0.1093470E+00
         21   -1    0    0  501  502  0.00000000000E+00  0.00000000000E+00  0.52057868379E+01  0.52057868379E+01  0.00000000000E+00 0. -1.
         13   -1    0    0    0    0 -0.00000000000E+00 -0.00000000000E+00 -0.10000000000E+04  0.10000000000E+04  0.00000000000E+00 0.  1.
    9000005    2    1    2  501    0  0.31046763012E+02  0.16764993275E+02 -0.93553606965E+03  0.93623844627E+03  0.83500992588E+01 0.  0.
         13    1    3    3    0    0  0.23289723325E+02  0.15366527043E+02 -0.65975256696E+03  0.66034232863E+03  0.00000000000E+00 0.  1.
          1    1    3    3  501    0  0.77570396870E+01  0.13984662317E+01 -0.27578350269E+03  0.27589611764E+03  0.00000000000E+00 0.  1.
         -1    1    1    2    0  502 -0.31046763012E+02 -0.16764993275E+02 -0.59258143510E+02  0.68967340570E+02  0.00000000000E+00 0. -1.
<mgrwt>
<rscale>  1 0.30000000E+03</rscale>
<asrwt>0</asrwt>
<pdfrwt beam="1">  1       21 0.18930174E-01 0.30000000E+03</pdfrwt>
<pdfrwt beam="2">0</pdfrwt>
<totfact> 0.26636078E+03</totfact>
</mgrwt>
</event>
<event>
 6    1  0.1270461E-001  0.3000000E+03  0.7818608E-02  0.1093470E+00
         21   -1    0    0  501  502  0.00000000000E+00  0.00000000000E+00  0.12763167705E+01  0.12763167705E+01  0.00000000000E+00 0. -1.
         13   -1    0    0    0    0 -0.00000000000E+00 -0.00000000000E+00 -0.10000000000E+04  0.10000000000E+04  0.00000000000E+00 0.  1.
    9000005    2    1    2  501    0 -0.28910047122E+02  0.99324391783E+01 -0.75736715050E+03  0.75799166854E+03  0.34532230530E+01 0.  0.
         13    1    3    3    0    0 -0.26094155467E+02  0.78637523833E+01 -0.66331410666E+03  0.66387374375E+03  0.00000000000E+00 0.  1.
          3    1    3    3  501    0 -0.28158916552E+01  0.20686867950E+01 -0.94053043840E+02  0.94117924788E+02  0.00000000000E+00 0.  1.
         -3    1    1    2    0  502  0.28910047122E+02 -0.99324391783E+01 -0.24135653273E+03  0.24328464823E+03  0.00000000000E+00 0. -1.
<mgrwt>
<rscale>  1 0.30000000E+03</rscale>
<asrwt>0</asrwt>
<pdfrwt beam="1">  1       21 0.46411617E-02 0.30000000E+03</pdfrwt>
<pdfrwt beam="2">0</pdfrwt>
<totfact> 0.32697074E+04</totfact>
</mgrwt>
</event>
<event>
 6    1  0.1270461E-001  0.3000000E+03  0.7818608E-02  0.1093470E+00
         21   -1    0    0  501  502  0.00000000000E+00  0.00000000000E+00  0.10190589625E+01  0.10190589625E+01  0.00000000000E+00 0. -1.
         13   -1    0    0    0    0 -0.00000000000E+00 -0.00000000000E+00 -0.10000000000E+04  0.10000000000E+04  0.00000000000E+00 0.  1.
    9000005    2    1    2  501    0  0.47303109366E+01  0.31447756315E+02 -0.51573101565E+03  0.51672387253E+03  0.37071169047E+01 0.  0.
         13    1    3    3    0    0  0.30748154629E+01  0.99014880273E+01 -0.17939591223E+03  0.17969526227E+03  0.00000000000E+00 0.  1.
          3    1    3    3  501    0  0.16554954737E+01  0.21546268288E+02 -0.33633510342E+03  0.33702861026E+03  0.00000000000E+00 0.  1.
         -3    1    1    2    0  502 -0.47303109366E+01 -0.31447756315E+02 -0.48324992538E+03  0.48429518643E+03  0.00000000000E+00 0. -1.
<mgrwt>
<rscale>  1 0.30000000E+03</rscale>
<asrwt>0</asrwt>
<pdfrwt beam="1">  1       21 0.37056768E-02 0.30000000E+03</pdfrwt>
<pdfrwt beam="2">0</pdfrwt>
<totfact> 0.47812245E+04</totfact>
</mgrwt>
</event>
<event>
 6    1  0.1270461E-001  0.3000000E+03  0.7818608E-02  0.1093470E+00
         21   -1    0    0  501  502  0.00000000000E+00  0.00000000000E+00  0.18916944021E+01  0.18916944021E+01  0.00000000000E+00 0. -1.
         13   -1    0    0    0    0 -0.00000000000E+00 -0.00000000000E+00 -0.10000000000E+04  0.10000000000E+04  0.00000000000E+00 0.  1.
    9000005    2    1    2  501    0  0.21454957657E+02  0.32895375428E+02 -0.28767061820E+03  0.29036929236E+03  0.41857421568E+01 0.  0.
         13    1    3    3    0    0  0.96220698996E+01  0.12896649629E+02 -0.10475221534E+03  0.10598082100E+03  0.00000000000E+00 0.  1.
          1    1    3    3  501    0  0.11832887758E+02  0.19998725799E+02 -0.18291840286E+03  0.18438847136E+03  0.00000000000E+00 0.  1.
         -3    1    1    2    0  502 -0.21454957657E+02 -0.32895375428E+02 -0.71043768740E+03  0.71152240204E+03  0.00000000000E+00 0. -1.
<mgrwt>
<rscale>  1 0.30000000E+03</rscale>
<asrwt>0</asrwt>
<pdfrwt beam="1">  1       21 0.68789032E-02 0.30000000E+03</pdfrwt>
<pdfrwt beam="2">0</pdfrwt>
<totfact> 0.16632491E+04</totfact>
</mgrwt>
</event>
<event>
 6    1  0.1270461E-001  0.3000000E+03  0.7818608E-02  0.1093470E+00
         21   -1    0    0  501  502  0.00000000000E+00  0.00000000000E+00  0.13409837559E+02  0.13409837559E+02  0.00000000000E+00 0. -1.
         13   -1    0    0    0    0 -0.00000000000E+00 -0.00000000000E+00 -0.10000000000E+04  0.10000000000E+04  0.00000000000E+00 0.  1.
    9000005    2    1    2  501    0  0.95851348928E+02  0.13303098425E+02 -0.77134343566E+03  0.77741067038E+03  0.56746070536E+01 0.  0.
         13    1    3    3    0    0  0.60864112422E+02  0.83373993847E+01 -0.51121155866E+03  0.51488951254E+03  0.00000000000E+00 0.  1.
          1    1    3    3  501    0  0.34987236506E+02  0.49656990400E+01 -0.26013187700E+03  0.26252115785E+03  0.00000000000E+00 0.  1.
         -1    1    1    2    0  502 -0.95851348928E+02 -0.13303098425E+02 -0.21524672678E+03  0.23599916717E+03  0.00000000000E+00 0. -1.
<mgrwt>
<rscale>  1 0.30000000E+03</rscale>
<asrwt>0</asrwt>
<pdfrwt beam="1">  1       21 0.48763148E-01 0.30000000E+03</pdfrwt>
<pdfrwt beam="2">0</pdfrwt>
<totfact> 0.39663737E+02</totfact>
</mgrwt>
</event>
<event>
 6    1  0.1270461E-001  0.3000000E+03  0.7818608E-02  0.1093470E+00
         21   -1    0    0  501  502  0.00000000000E+00  0.00000000000E+00  0.61926496254E+01  0.61926496254E+01  0.00000000000E+00 0. -1.
         13   -1    0    0    0    0 -0.00000000000E+00 -0.00000000000E+00 -0.10000000000E+04  0.10000000000E+04  0.00000000000E+00 0.  1.
    9000005    2    1    2  501    0 -0.48640336871E+01 -0.31586150447E+02 -0.95662241435E+03  0.95716140253E+03  0.31879695399E+01 0.  0.
         13    1    3    3    0    0 -0.31753744865E+01 -0.27665915970E+02 -0.82680868073E+03  0.82727751114E+03  0.00000000000E+00 0.  1.
          3    1    3    3  501    0 -0.16886592006E+01 -0.39202344772E+01 -0.12981373362E+03  0.12988389140E+03  0.00000000000E+00 0.  1.
         -1    1    1    2    0  502  0.48640336871E+01  0.31586150447E+02 -0.37184936029E+02  0.49031247091E+02  0.00000000000E+00 0. -1.
<mgrwt>
<rscale>  1 0.30000000E+03</rscale>
<asrwt>0</asrwt>
<pdfrwt beam="1">  1       21 0.22518773E-01 0.30000000E+03</pdfrwt>
<pdfrwt beam="2">0</pdfrwt>
<totfact> 0.19107840E+03</totfact>
</mgrwt>
</event>
<event>
 6    1  0.1270461E-001  0.3000000E+03  0.7818608E-02  0.1093470E+00
         21   -1    0    0  501  502  0.00000000000E+00  0.00000000000E+00  0.31201360299E+01  0.31201360299E+01  0.00000000000E+00 0. -1.
         13   -1    0    0    0    0 -0.00000000000E+00 -0.00000000000E+00 -0.10000000000E+04  0.10000000000E+04  0.00000000000E+00 0.  1.
    9000005    2    1    2  501    0 -0.52197088516E+02  0.16367159208E+02 -0.59471416559E+03  0.59725110678E+03  0.56147882696E+01 0.  0.
         13    1    3    3    0    0 -0.17552865520E+02  0.36913513833E+01 -0.21675572537E+03  0.21749660605E+03  0.00000000000E+00 0.  1.
          3    1    3    3  501    0 -0.34644222996E+02  0.12675807825E+02 -0.37795844022E+03  0.37975450073E+03  0.00000000000E+00 0.  1.
         -1    1    1    2    0  502  0.52197088516E+02 -0.16367159208E+02 -0.40216569838E+03  0.40586902925E+03  0.00000000000E+00 0. -1.
<mgrwt>
<rscale>  1 0.30000000E+03</rscale>
<asrwt>0</asrwt>
<pdfrwt beam="1">  1       21 0.11345973E-01 0.30000000E+03</pdfrwt>
<pdfrwt beam="2">0</pdfrwt>
<totfact> 0.68585004E+03</totfact>
</mgrwt>
</event>
<event>
 6    1  0.1270461E-001  0.3000000E+03  0.7818608E-02  0.1093470E+00
         21   -1    0    0  501  502  0.00000000000E+00  0.00000000000E+00  0.10347853972E+01  0.10347853972E+01  0.00000000000E+00 0. -1.
         13   -1    0    0    0    0 -0.00000000000E+00 -0.00000000000E+00 -0.10000000000E+04  0.10000000000E+04  0.00000000000E+00 0.  1.
    9000005    2    1    2  501    0 -0.13003229212E+02  0.28252072987E+02 -0.38890724907E+03  0.39018457060E+03  0.52808297929E+01 0.  0.
         13    1    3    3    0    0 -0.92030368924E+01  0.19267901307E+02 -0.29508890925E+03  0.29586046081E+03  0.00000000000E+00 0.  1.
          3    1    3    3  501    0 -0.38001923193E+01  0.89841716803E+01 -0.93818339819E+02  0.94324109796E+02  0.00000000000E+00 0.  1.
         -1    1    1    2    0  502  0.13003229212E+02 -0.28252072987E+02 -0.61005796554E+03  0.61085021479E+03  0.00000000000E+00 0. -1.
<mgrwt>
<rscale>  1 0.30000000E+03</rscale>
<asrwt>0</asrwt>
<pdfrwt beam="1">  1       21 0.37628639E-02 0.30000000E+03</pdfrwt>
<pdfrwt beam="2">0</pdfrwt>
<totfact> 0.46598510E+04</totfact>
</mgrwt>
</event>
<event>
 6    1  0.1270461E-001  0.3000000E+03  0.7818608E-02  0.1093470E+00
         21   -1    0    0  501  502  0.00000000000E+00  0.00000000000E+00  0.20687559881E+01  0.20687559881E+01  0.00000000000E+00 0. -1.
         13   -1    0    0    0    0 -0.00000000000E+00 -0.00000000000E+00 -0.10000000000E+04  0.10000000000E+04  0.00000000000E+00 0.  1.
    9000005    2    1    2  501    0  0.39456397941E+02 -0.88761609466E+01 -0.27018532004E+03  0.27319995886E+03  0.15864373184E+01 0.  0.
         13    1    3    3    0    0  0.31051838511E+02 -0.65338178355E+01 -0.21510150351E+03  0.21742944663E+03  0.00000000000E+00 0.  1.
          1    1    3    3  501    0  0.84045594304E+01 -0.23423431111E+01 -0.55083816525E+02  0.55770512222E+02  0.00000000000E+00 0.  1.
         -3    1    1    2    0  502 -0.39456397941E+02  0.88761609466E+01 -0.72774592397E+03  0.72886879713E+03  0.00000000000E+00 0. -1.
<mgrwt>
<rscale>  1 0.30000000E+03</rscale>
<asrwt>0</asrwt>
<pdfrwt beam="1">  1       21 0.75227649E-02 0.30000000E+03</pdfrwt>
<pdfrwt beam="2">0</pdfrwt>
<totfact> 0.14228754E+04</totfact>
</mgrwt>
</event>
<event>
 6    1  0.1270461E-001  0.3000000E+03  0.7818608E-02  0.1093470E+00
         21   -1    0    0  501  502  0.00000000000E+00  0.00000000000E+00  0.12266437031E+01  0.12266437031E+01  0.00000000000E+00 0. -1.
         13   -1    0    0    0    0 -0.00000000000E+00 -0.00000000000E+00 -0.10000000000E+04  0.10000000000E+04  0.00000000000E+00 0.  1.
    9000005    2    1    2  501    0  0.21274625496E+02  0.23907973082E+02 -0.70103897456E+03  0.70177721068E+03  0.33776792404E+01 0.  0.
         13    1    3    3    0    0  0.15818878807E+02  0.19472949851E+02 -0.52889426277E+03  0.52948897429E+03  0.00000000000E+00 0.  1.
          1    1    3    3  501    0  0.54557466896E+01  0.44350232311E+01 -0.17214471179E+03  0.17228823639E+03  0.00000000000E+00 0.  1.
         -1    1    1    2    0  502 -0.21274625496E+02 -0.23907973082E+02 -0.29773438174E+03  0.29944943302E+03  0.00000000000E+00 0. -1.
<mgrwt>
<rscale>  1 0.30000000E+03</rscale>
<asrwt>0</asrwt>
<pdfrwt beam="1">  1       21 0.44605320E-02 0.30000000E+03</pdfrwt>
<pdfrwt beam="2">0</pdfrwt>
<totfact> 0.34976978E+04</totfact>
</mgrwt>
</event>
<event>
 6    1  0.1270461E-001  0.3000000E+03  0.7818608E-02  0.1093470E+00
         21   -1    0    0  501  502  0.00000000000E+00  0.00000000000E+00  0.11224667986E+01  0.11224667986E+01  0.00000000000E+00 0. -1.
         13   -1    0    0    0    0 -0.00000000000E+00 -0.00000000000E+00 -0.10000000000E+04  0.10000000000E+04  0.00000000000E+00 0.  1.
    9000005    2    1    2  501    0  0.27556940281E+02 -0.18687442114E+02 -0.54351781944E+03  0.54454709037E+03  0.33627553609E+01 0.  0.
         13    1    3    3    0    0  0.11938161688E+02 -0.96584197050E+01 -0.26734405216E+03  0.26778470270E+03  0.00000000000E+00 0.  1.
          3    1    3    3  501    0  0.15618778593E+02 -0.90290224094E+01 -0.27617376729E+03  0.27676238767E+03  0.00000000000E+00 0.  1.
         -1    1    1    2    0  502 -0.27556940281E+02  0.18687442114E+02 -0.45535971376E+03  0.45657537643E+03  0.00000000000E+00 0. -1.
<mgrwt>
<rscale>  1 0.30000000E+03</rscale>
<asrwt>0</asrwt>
<pdfrwt beam="1">  1       21 0.40817061E-02 0.30000000E+03</pdfrwt>
<pdfrwt beam="2">0</pdfrwt>
<totfact> 0.40638893E+04</totfact>
</mgrwt>
</event>
<event>
 6    1  0.1270461E-001  0.3000000E+03  0.7818608E-02  0.1093470E+00
         21   -1    0    0  501  502  0.00000000000E+00  0.00000000000E+00  0.13389570132E+01  0.13389570132E+01  0.00000000000E+00 0. -1.
         13   -1    0    0    0    0 -0.00000000000E+00 -0.00000000000E+00 -0.10000000000E+04  0.10000000000E+04  0.00000000000E+00 0.  1.
    9000005    2    1    2  501    0  0.31172853101E+02  0.37492045928E+01 -0.75545155896E+03  0.75611119263E+03  0.33577334989E+01 0.  0.
         13    1    3    3    0    0  0.77585414035E+00  0.57795119359E+00 -0.31435347530E+02  0.31450231344E+02  0.00000000000E+00 0.  1.
          3    1    3    3  501    0  0.30396998960E+02  0.31712533992E+01 -0.72401621143E+03  0.72466096129E+03  0.00000000000E+00 0.  1.
         -3    1    1    2    0  502 -0.31172853101E+02 -0.37492045928E+01 -0.24320948402E+03  0.24522776438E+03  0.00000000000E+00 0. -1.
<mgrwt>
<rscale>  1 0.30000000E+03</rscale>
<asrwt>0</asrwt>
<pdfrwt beam="1">  1       21 0.48689449E-02 0.30000000E+03</pdfrwt>
<pdfrwt beam="2">0</pdfrwt>
<totfact> 0.30138010E+04</totfact>
</mgrwt>
</event>
<event>
 6    1  0.1270461E-001  0.3000000E+03  0.7818608E-02  0.1093470E+00
         21   -1    0    0  501  502  0.00000000000E+00  0.00000000000E+00  0.38403412156E+01  0.38403412156E+01  0.00000000000E+00 0. -1.
         13   -1    0    0    0    0 -0.00000000000E+00 -0.00000000000E+00 -0.10000000000E+04  0.10000000000E+04  0.00000000000E+00 0.  1.
    9000005    2    1    2  501    0  0.23061945403E+02  0.25694656590E+02 -0.91481688776E+03  0.91547340678E+03  0.30905813723E+01 0.  0.
         13    1    3    3    0    0  0.20607181449E+01  0.16128080601E+01 -0.89378577855E+02  0.89416876978E+02  0.00000000000E+00 0.  1.
          1    1    3    3  501    0  0.21001227258E+02  0.24081848530E+02 -0.82543830991E+03  0.82605652981E+03  0.00000000000E+00 0.  1.
         -1    1    1    2    0  502 -0.23061945403E+02 -0.25694656590E+02 -0.81342771024E+02  0.88366934432E+02  0.00000000000E+00 0. -1.
<mgrwt>
<rscale>  1 0.30000000E+03</rscale>
<asrwt>0</asrwt>
<pdfrwt beam="1">  1       21 0.13964907E-01 0.30000000E+03</pdfrwt>
<pdfrwt beam="2">0</pdfrwt>
<totfact> 0.46982901E+03</totfact>
</mgrwt>
</event>
<event>
 6    1  0.1270461E-001  0.3000000E+03  0.7818608E-02  0.1093470E+00
         21   -1    0    0  501  502  0.00000000000E+00  0.00000000000E+00  0.63684212771E+01  0.63684212771E+01  0.00000000000E+00 0. -1.
         13   -1    0    0    0    0 -0.00000000000E+00 -0.00000000000E+00 -0.10000000000E+04  0.10000000000E+04  0.00000000000E+00 0.  1.
    9000005    2    1    2  501    0 -0.45861468345E+02  0.45003856283E+02 -0.79508529754E+03  0.79768385756E+03  0.32070080374E+01 0.  0.
         13    1    3    3    0    0 -0.14631641435E+02  0.13849465027E+02 -0.26751821057E+03  0.26827576410E+03  0.00000000000E+00 0.  1.
          3    1    3    3  501    0 -0.31229826911E+02  0.31154391256E+02 -0.52756708696E+03  0.52940809347E+03  0.00000000000E+00 0.  1.
         -3    1    1    2    0  502  0.45861468345E+02 -0.45003856283E+02 -0.19854628119E+03  0.20868456371E+03  0.00000000000E+00 0. -1.
<mgrwt>
<rscale>  1 0.30000000E+03</rscale>
<asrwt>0</asrwt>
<pdfrwt beam="1">  1       21 0.23157944E-01 0.30000000E+03</pdfrwt>
<pdfrwt beam="2">0</pdfrwt>
<totfact> 0.18101387E+03</totfact>
</mgrwt>
</event>
<event>
 6    1  0.1270461E-001  0.3000000E+03  0.7818608E-02  0.1093470E+00
         21   -1    0    0  501  502  0.00000000000E+00  0.00000000000E+00  0.39957609229E+01  0.39957609229E+01  0.00000000000E+00 0. -1.
         13   -1    0    0    0    0 -0.00000000000E+00 -0.00000000000E+00 -0.10000000000E+04  0.10000000000E+04  0.00000000000E+00 0.  1.
    9000005    2    1    2  501    0 -0.29827589423E+02 -0.51066554283E+02 -0.32181291379E+03  0.32721557419E+03  0.30004092456E+01 0.  0.
         13    1    3    3    0    0 -0.15072608225E+01 -0.35374759306E+01 -0.24218112610E+02  0.24521471194E+02  0.00000000000E+00 0.  1.
          3    1    3    3  501    0 -0.28320328600E+02 -0.47529078353E+02 -0.29759480118E+03  0.30269410300E+03  0.00000000000E+00 0.  1.
         -1    1    1    2    0  502  0.29827589423E+02  0.51066554283E+02 -0.67419132529E+03  0.67678018673E+03  0.00000000000E+00 0. -1.
<mgrwt>
<rscale>  1 0.30000000E+03</rscale>
<asrwt>0</asrwt>
<pdfrwt beam="1">  1       21 0.14530070E-01 0.30000000E+03</pdfrwt>
<pdfrwt beam="2">0</pdfrwt>
<totfact> 0.43674608E+03</totfact>
</mgrwt>
</event>
<event>
 6    1  0.1270461E-001  0.3000000E+03  0.7818608E-02  0.1093470E+00
         21   -1    0    0  501  502  0.00000000000E+00  0.00000000000E+00  0.78302119023E+01  0.78302119023E+01  0.00000000000E+00 0. -1.
         13   -1    0    0    0    0 -0.00000000000E+00 -0.00000000000E+00 -0.10000000000E+04  0.10000000000E+04  0.00000000000E+00 0.  1.
    9000005    2    1    2  501    0 -0.24386195142E+02  0.17860559909E+02 -0.96962849926E+03  0.97012350406E+03  0.68191232558E+01 0.  0.
         13    1    3    3    0    0 -0.13049634205E+02  0.13258249217E+02 -0.53752343354E+03  0.53784525259E+03  0.00000000000E+00 0.  1.
          1    1    3    3  501    0 -0.11336560937E+02  0.46023106921E+01 -0.43210506571E+03  0.43227825147E+03  0.00000000000E+00 0.  1.
         -3    1    1    2    0  502  0.24386195142E+02 -0.17860559909E+02 -0.22541288841E+02  0.37706707843E+02  0.00000000000E+00 0. -1.
<mgrwt>
<rscale>  1 0.30000000E+03</rscale>
<asrwt>0</asrwt>
<pdfrwt beam="1">  1       21 0.28473558E-01 0.30000000E+03</pdfrwt>
<pdfrwt beam="2">0</pdfrwt>
<totfact> 0.12065617E+03</totfact>
</mgrwt>
</event>
<event>
 6    1  0.1270461E-001  0.3000000E+03  0.7818608E-02  0.1093470E+00
         21   -1    0    0  501  502  0.00000000000E+00  0.00000000000E+00  0.45902343592E+01  0.45902343592E+01  0.00000000000E+00 0. -1.
         13   -1    0    0    0    0 -0.00000000000E+00 -0.00000000000E+00 -0.10000000000E+04  0.10000000000E+04  0.00000000000E+00 0.  1.
    9000005    2    1    2  501    0  0.60148877917E+02  0.27185509039E+02 -0.60994708071E+03  0.61351681300E+03  0.32402400455E+01 0.  0.
         13    1    3    3    0    0  0.87855802725E+01  0.31351282047E+01 -0.94170331371E+02  0.94631214512E+02  0.00000000000E+00 0.  1.
          3    1    3    3  501    0  0.51363297645E+02  0.24050380834E+02 -0.51577674934E+03  0.51888559849E+03  0.00000000000E+00 0.  1.
         -1    1    1    2    0  502 -0.60148877917E+02 -0.27185509039E+02 -0.38546268493E+03  0.39107342136E+03  0.00000000000E+00 0. -1.
<mgrwt>
<rscale>  1 0.30000000E+03</rscale>
<asrwt>0</asrwt>
<pdfrwt beam="1">  1       21 0.16691797E-01 0.30000000E+03</pdfrwt>
<pdfrwt beam="2">0</pdfrwt>
<totfact> 0.33751305E+03</totfact>
</mgrwt>
</event>
<event>
 6    1  0.1270461E-001  0.3000000E+03  0.7818608E-02  0.1093470E+00
         21   -1    0    0  501  502  0.00000000000E+00  0.00000000000E+00  0.33461633099E+01  0.33461633099E+01  0.00000000000E+00 0. -1.
         13   -1    0    0    0    0 -0.00000000000E+00 -0.00000000000E+00 -0.10000000000E+04  0.10000000000E+04  0.00000000000E+00 0.  1.
    9000005    2    1    2  501    0  0.30340354159E+02 -0.22177855189E+02 -0.87964665967E+03  0.88045159945E+03  0.20925487091E+01 0.  0.
         13    1    3    3    0    0  0.17856320877E+02 -0.11777282514E+02 -0.50271633244E+03  0.50317120692E+03  0.00000000000E+00 0.  1.
          3    1    3    3  501    0  0.12484033283E+02 -0.10400572675E+02 -0.37693032723E+03  0.37728039253E+03  0.00000000000E+00 0.  1.
         -1    1    1    2    0  502 -0.30340354159E+02  0.22177855189E+02 -0.11700717702E+03  0.12289456386E+03  0.00000000000E+00 0. -1.
<mgrwt>
<rscale>  1 0.30000000E+03</rscale>
<asrwt>0</asrwt>
<pdfrwt beam="1">  1       21 0.12167892E-01 0.30000000E+03</pdfrwt>
<pdfrwt beam="2">0</pdfrwt>
<totfact> 0.60426780E+03</totfact>
</mgrwt>
</event>
<event>
 6    1  0.1270461E-001  0.3000000E+03  0.7818608E-02  0.1093470E+00
         21   -1    0    0  501  502  0.00000000000E+00  0.00000000000E+00  0.22976994644E+01  0.22976994644E+01  0.00000000000E+00 0. -1.
         13   -1    0    0    0    0 -0.00000000000E+00 -0.00000000000E+00 -0.10000000000E+04  0.10000000000E+04  0.00000000000E+00 0.  1.
    9000005    2    1    2  501    0 -0.22237072165E+02  0.32055031009E+02 -0.78940615229E+03  0.79037956017E+03  0.39703219920E+01 0.  0.
         13    1    3    3    0    0 -0.18162034307E+02  0.27036424172E+02 -0.68443844978E+03  0.68521297365E+03  0.00000000000E+00 0.  1.
          3    1    3    3  501    0 -0.40750378582E+01  0.50186068379E+01 -0.10496770252E+03  0.10516658652E+03  0.00000000000E+00 0.  1.
         -3    1    1    2    0  502  0.22237072165E+02 -0.32055031009E+02 -0.20829614824E+03  0.21191813930E+03  0.00000000000E+00 0. -1.
<mgrwt>
<rscale>  1 0.30000000E+03</rscale>
<asrwt>0</asrwt>
<pdfrwt beam="1">  1       21 0.83552884E-02 0.30000000E+03</pdfrwt>
<pdfrwt beam="2">0</pdfrwt>
<totfact> 0.11834008E+04</totfact>
</mgrwt>
</event>
<event>
 6    1  0.1270461E-001  0.3000000E+03  0.7818608E-02  0.1093470E+00
         21   -1    0    0  501  502  0.00000000000E+00  0.00000000000E+00  0.57541446666E+01  0.57541446666E+01  0.00000000000E+00 0. -1.
         13   -1    0    0    0    0 -0.00000000000E+00 -0.00000000000E+00 -0.10000000000E+04  0.10000000000E+04  0.00000000000E+00 0.  1.
    9000005    2    1    2  501    0  0.26373949280E+02 -0.37610795950E+02 -0.89721311189E+03  0.89839721442E+03  0.40036921565E+01 0.  0.
         13    1    3    3    0    0  0.14576708454E+02 -0.19847157938E+02 -0.51806188559E+03  0.51864680411E+03  0.00000000000E+00 0.  1.
          1    1    3    3  501    0  0.11797240827E+02 -0.17763638012E+02 -0.37915122630E+03  0.37975041031E+03  0.00000000000E+00 0.  1.
         -1    1    1    2    0  502 -0.26373949280E+02  0.37610795950E+02 -0.97032743444E+02  0.10735693025E+03  0.00000000000E+00 0. -1.
<mgrwt>
<rscale>  1 0.30000000E+03</rscale>
<asrwt>0</asrwt>
<pdfrwt beam="1">  1       21 0.20924207E-01 0.30000000E+03</pdfrwt>
<pdfrwt beam="2">0</pdfrwt>
<totfact> 0.22006200E+03</totfact>
</mgrwt>
</event>
<event>
 6    1  0.1270461E-001  0.3000000E+03  0.7818608E-02  0.1093470E+00
         21   -1    0    0  501  502  0.00000000000E+00  0.00000000000E+00  0.19046738480E+01  0.19046738480E+01  0.00000000000E+00 0. -1.
         13   -1    0    0    0    0 -0.00000000000E+00 -0.00000000000E+00 -0.10000000000E+04  0.10000000000E+04  0.00000000000E+00 0.  1.
    9000005    2    1    2  501    0  0.15338903150E+02  0.40421865456E+02 -0.56516686133E+03  0.56682276798E+03  0.22934696860E+01 0.  0.
         13    1    3    3    0    0  0.12985492290E+02  0.35027726468E+02 -0.47814803466E+03  0.47960515811E+03  0.00000000000E+00 0.  1.
          1    1    3    3  501    0  0.23534108596E+01  0.53941389879E+01 -0.87018826665E+02  0.87217609875E+02  0.00000000000E+00 0.  1.
         -1    1    1    2    0  502 -0.15338903150E+02 -0.40421865456E+02 -0.43292846482E+03  0.43508190586E+03  0.00000000000E+00 0. -1.
<mgrwt>
<rscale>  1 0.30000000E+03</rscale>
<asrwt>0</asrwt>
<pdfrwt beam="1">  1       21 0.69261013E-02 0.30000000E+03</pdfrwt>
<pdfrwt beam="2">0</pdfrwt>
<totfact> 0.16435951E+04</totfact>
</mgrwt>
</event>
<event>
 6    1  0.1270461E-001  0.3000000E+03  0.7818608E-02  0.1093470E+00
         21   -1    0    0  501  502  0.00000000000E+00  0.00000000000E+00  0.11039380346E+01  0.11039380346E+01  0.00000000000E+00 0. -1.
         13   -1    0    0    0    0 -0.00000000000E+00 -0.00000000000E+00 -0.10000000000E+04  0.10000000000E+04  0.00000000000E+00 0.  1.
    9000005    2    1    2  501    0  0.25549890672E+02  0.16712987883E+02 -0.67873983877E+03  0.67949528123E+03  0.96926575576E+01 0.  0.
         13    1    3    3    0    0  0.20528462481E+02  0.10324341640E+02 -0.56409973801E+03  0.56456755506E+03  0.00000000000E+00 0.  1.
          3    1    3    3  501    0  0.50214281907E+01  0.63886462426E+01 -0.11464010076E+03  0.11492772617E+03  0.00000000000E+00 0.  1.
         -3    1    1    2    0  502 -0.25549890672E+02 -0.16712987883E+02 -0.32015622320E+03  0.32160865680E+03  0.00000000000E+00 0. -1.
<mgrwt>
<rscale>  1 0.30000000E+03</rscale>
<asrwt>0</asrwt>
<pdfrwt beam="1">  1       21 0.40143286E-02 0.30000000E+03</pdfrwt>
<pdfrwt beam="2">0</pdfrwt>
<totfact> 0.41794866E+04</totfact>
</mgrwt>
</event>
<event>
 6    1  0.1270461E-001  0.3000000E+03  0.7818608E-02  0.1093470E+00
         21   -1    0    0  501  502  0.00000000000E+00  0.00000000000E+00  0.22423898704E+01  0.22423898704E+01  0.00000000000E+00 0. -1.
         13   -1    0    0    0    0 -0.00000000000E+00 -0.00000000000E+00 -0.10000000000E+04  0.10000000000E+04  0.00000000000E+00 0.  1.
    9000005    2    1    2  501    0  0.39170465662E+02 -0.14065295159E+01 -0.77972955269E+03  0.78071916866E+03  0.28180252783E+01 0.  0.
         13    1    3    3    0    0  0.15083996445E+01  0.22077417843E+00 -0.41113689822E+02  0.41141943336E+02  0.00000000000E+00 0.  1.
          1    1    3    3  501    0  0.37662066017E+02 -0.16273036943E+01 -0.73861586287E+03  0.73957722532E+03  0.00000000000E+00 0.  1.
         -3    1    1    2    0  502 -0.39170465662E+02  0.14065295159E+01 -0.21802805744E+03  0.22152322121E+03  0.00000000000E+00 0. -1.
<mgrwt>
<rscale>  1 0.30000000E+03</rscale>
<asrwt>0</asrwt>
<pdfrwt beam="1">  1       21 0.81541622E-02 0.30000000E+03</pdfrwt>
<pdfrwt beam="2">0</pdfrwt>
<totfact> 0.12352487E+04</totfact>
</mgrwt>
</event>
<event>
 6    1  0.1270461E-001  0.3000000E+03  0.7818608E-02  0.1093470E+00
         21   -1    0    0  501  502  0.00000000000E+00  0.00000000000E+00  0.95093147694E+00  0.95093147694E+00  0.00000000000E+00 0. -1.
         13   -1    0    0    0    0 -0.00000000000E+00 -0.00000000000E+00 -0.10000000000E+04  0.10000000000E+04  0.00000000000E+00 0.  1.
    9000005    2    1    2  501    0  0.13073695561E+02 -0.27374665185E+02 -0.58314392662E+03  0.58394088259E+03  0.31339111128E+01 0.  0.
         13    1    3    3    0    0  0.51316592861E-01 -0.24496930606E+00 -0.13749047258E+02  0.13751325167E+02  0.00000000000E+00 0.  1.
          3    1    3    3  501    0  0.13022378968E+02 -0.27129695879E+02 -0.56939487936E+03  0.57018955743E+03  0.00000000000E+00 0.  1.
         -1    1    1    2    0  502 -0.13073695561E+02  0.27374665185E+02 -0.41590514190E+03  0.41701004888E+03  0.00000000000E+00 0. -1.
<mgrwt>
<rscale>  1 0.30000000E+03</rscale>
<asrwt>0</asrwt>
<pdfrwt beam="1">  1       21 0.34579399E-02 0.30000000E+03</pdfrwt>
<pdfrwt beam="2">0</pdfrwt>
<totfact> 0.53692377E+04</totfact>
</mgrwt>
</event>
<event>
 6    1  0.1270461E-001  0.3000000E+03  0.7818608E-02  0.1093470E+00
         21   -1    0    0  501  502  0.00000000000E+00  0.00000000000E+00  0.55046274052E+01  0.55046274052E+01  0.00000000000E+00 0. -1.
         13   -1    0    0    0    0 -0.00000000000E+00 -0.00000000000E+00 -0.10000000000E+04  0.10000000000E+04  0.00000000000E+00 0.  1.
    9000005    2    1    2  501    0 -0.20397475351E+02 -0.58399485560E+02 -0.77463110087E+03  0.77710398184E+03  0.32709691524E+01 0.  0.
         13    1    3    3    0    0 -0.10863431257E+02 -0.35938644932E+02 -0.46815979530E+03  0.46966285170E+03  0.00000000000E+00 0.  1.
          1    1    3    3  501    0 -0.95340440934E+01 -0.22460840627E+02 -0.30647130558E+03  0.30744113014E+03  0.00000000000E+00 0.  1.
         -3    1    1    2    0  502  0.20397475351E+02  0.58399485560E+02 -0.21986427172E+03  0.22840064556E+03  0.00000000000E+00 0. -1.
<mgrwt>
<rscale>  1 0.30000000E+03</rscale>
<asrwt>0</asrwt>
<pdfrwt beam="1">  1       21 0.20016869E-01 0.30000000E+03</pdfrwt>
<pdfrwt beam="2">0</pdfrwt>
<totfact> 0.23953636E+03</totfact>
</mgrwt>
</event>
<event>
 6    1  0.1270461E-001  0.3000000E+03  0.7818608E-02  0.1093470E+00
         21   -1    0    0  501  502  0.00000000000E+00  0.00000000000E+00  0.13410362177E+01  0.13410362177E+01  0.00000000000E+00 0. -1.
         13   -1    0    0    0    0 -0.00000000000E+00 -0.00000000000E+00 -0.10000000000E+04  0.10000000000E+04  0.00000000000E+00 0.  1.
    9000005    2    1    2  501    0  0.16191293706E+02  0.31982923645E+02 -0.40315706022E+03  0.40476113164E+03  0.33004675997E+01 0.  0.
         13    1    3    3    0    0  0.63970854827E+00  0.47602256018E+00 -0.13332144073E+02  0.13355968332E+02  0.00000000000E+00 0.  1.
          3    1    3    3  501    0  0.15551585158E+02  0.31506901085E+02 -0.38982491615E+03  0.39140516331E+03  0.00000000000E+00 0.  1.
         -1    1    1    2    0  502 -0.16191293706E+02 -0.31982923645E+02 -0.59550190356E+03  0.59657990457E+03  0.00000000000E+00 0. -1.
<mgrwt>
<rscale>  1 0.30000000E+03</rscale>
<asrwt>0</asrwt>
<pdfrwt beam="1">  1       21 0.48765056E-02 0.30000000E+03</pdfrwt>
<pdfrwt beam="2">0</pdfrwt>
<totfact> 0.30058491E+04</totfact>
</mgrwt>
</event>
<event>
 6    1  0.1270461E-001  0.3000000E+03  0.7818608E-02  0.1093470E+00
         21   -1    0    0  501  502  0.00000000000E+00  0.00000000000E+00  0.28272691485E+01  0.28272691485E+01  0.00000000000E+00 0. -1.
         13   -1    0    0    0    0 -0.00000000000E+00 -0.00000000000E+00 -0.10000000000E+04  0.10000000000E+04  0.00000000000E+00 0.  1.
    9000005    2    1    2  501    0 -0.39997188434E+02  0.22835742626E+02 -0.25151703826E+03  0.25575052736E+03  0.51249865358E+01 0.  0.
         13    1    3    3    0    0 -0.14461821261E+02  0.10682494104E+02 -0.10526195050E+03  0.10678641383E+03  0.00000000000E+00 0.  1.
          3    1    3    3  501    0 -0.25535367173E+02  0.12153248522E+02 -0.14625508775E+03  0.14896411353E+03  0.00000000000E+00 0.  1.
         -3    1    1    2    0  502  0.39997188434E+02 -0.22835742626E+02 -0.74565569259E+03  0.74707674179E+03  0.00000000000E+00 0. -1.
<mgrwt>
<rscale>  1 0.30000000E+03</rscale>
<asrwt>0</asrwt>
<pdfrwt beam="1">  1       21 0.10281000E-01 0.30000000E+03</pdfrwt>
<pdfrwt beam="2">0</pdfrwt>
<totfact> 0.81872161E+03</totfact>
</mgrwt>
</event>
<event>
 6    1  0.1270461E-001  0.3000000E+03  0.7818608E-02  0.1093470E+00
         21   -1    0    0  501  502  0.00000000000E+00  0.00000000000E+00  0.11655771210E+01  0.11655771210E+01  0.00000000000E+00 0. -1.
         13   -1    0    0    0    0 -0.00000000000E+00 -0.00000000000E+00 -0.10000000000E+04  0.10000000000E+04  0.00000000000E+00 0.  1.
    9000005    2    1    2  501    0  0.22733114657E+02  0.23774608350E+02 -0.62961499074E+03  0.63048375187E+03  0.35634674422E+01 0.  0.
         13    1    3    3    0    0  0.40497704281E+01  0.24485216041E+01 -0.92255854467E+02  0.92377154005E+02  0.00000000000E+00 0.  1.
          3    1    3    3  501    0  0.18683344229E+02  0.21326086746E+02 -0.53735913627E+03  0.53810659786E+03  0.00000000000E+00 0.  1.
         -3    1    1    2    0  502 -0.22733114657E+02 -0.23774608350E+02 -0.36921943214E+03  0.37068182525E+03  0.00000000000E+00 0. -1.
<mgrwt>
<rscale>  1 0.30000000E+03</rscale>
<asrwt>0</asrwt>
<pdfrwt beam="1">  1       21 0.42384712E-02 0.30000000E+03</pdfrwt>
<pdfrwt beam="2">0</pdfrwt>
<totfact> 0.38134579E+04</totfact>
</mgrwt>
</event>
<event>
 6    1  0.1270461E-001  0.3000000E+03  0.7818608E-02  0.1093470E+00
         21   -1    0    0  501  502  0.00000000000E+00  0.00000000000E+00  0.18221538709E+01  0.18221538709E+01  0.00000000000E+00 0. -1.
         13   -1    0    0    0    0 -0.00000000000E+00 -0.00000000000E+00 -0.10000000000E+04  0.10000000000E+04  0.00000000000E+00 0.  1.
    9000005    2    1    2  501    0  0.26427257615E+02 -0.19560423363E+02 -0.81780594751E+03  0.81847812774E+03  0.43436960544E+01 0.  0.
         13    1    3    3    0    0  0.23190677399E+02 -0.15380863764E+02 -0.70296890695E+03  0.70351948276E+03  0.00000000000E+00 0.  1.
          3    1    3    3  501    0  0.32365802167E+01 -0.41795595981E+01 -0.11483704057E+03  0.11495864498E+03  0.00000000000E+00 0.  1.
         -1    1    1    2    0  502 -0.26427257615E+02  0.19560423363E+02 -0.18037189862E+03  0.18334402613E+03  0.00000000000E+00 0. -1.
<mgrwt>
<rscale>  1 0.30000000E+03</rscale>
<asrwt>0</asrwt>
<pdfrwt beam="1">  1       21 0.66260280E-02 0.30000000E+03</pdfrwt>
<pdfrwt beam="2">0</pdfrwt>
<totfact> 0.17749620E+04</totfact>
</mgrwt>
</event>
<event>
 6    1  0.1270461E-001  0.3000000E+03  0.7818608E-02  0.1093470E+00
         21   -1    0    0  501  502  0.00000000000E+00  0.00000000000E+00  0.13948702453E+01  0.13948702453E+01  0.00000000000E+00 0. -1.
         13   -1    0    0    0    0 -0.00000000000E+00 -0.00000000000E+00 -0.10000000000E+04  0.10000000000E+04  0.00000000000E+00 0.  1.
    9000005    2    1    2  501    0 -0.23077483098E+02 -0.28067601675E+02 -0.39120276983E+03  0.39290658989E+03  0.39523113284E+01 0.  0.
         13    1    3    3    0    0 -0.11781831259E+02 -0.11571681710E+02 -0.18663438061E+03  0.18736357008E+03  0.00000000000E+00 0.  1.
          3    1    3    3  501    0 -0.11295651839E+02 -0.16495919965E+02 -0.20456838922E+03  0.20554301981E+03  0.00000000000E+00 0.  1.
         -3    1    1    2    0  502  0.23077483098E+02  0.28067601675E+02 -0.60740235992E+03  0.60848828036E+03  0.00000000000E+00 0. -1.
<mgrwt>
<rscale>  1 0.30000000E+03</rscale>
<asrwt>0</asrwt>
<pdfrwt beam="1">  1       21 0.50722661E-02 0.30000000E+03</pdfrwt>
<pdfrwt beam="2">0</pdfrwt>
<totfact> 0.28108324E+04</totfact>
</mgrwt>
</event>
<event>
 6    1  0.1270461E-001  0.3000000E+03  0.7818608E-02  0.1093470E+00
         21   -1    0    0  501  502  0.00000000000E+00  0.00000000000E+00  0.19724051181E+01  0.19724051181E+01  0.00000000000E+00 0. -1.
         13   -1    0    0    0    0 -0.00000000000E+00 -0.00000000000E+00 -0.10000000000E+04  0.10000000000E+04  0.00000000000E+00 0.  1.
    9000005    2    1    2  501    0 -0.26266619368E+02 -0.34253496865E+02 -0.61458348867E+03  0.61610634037E+03  0.33046557926E+01 0.  0.
         13    1    3    3    0    0 -0.21606981355E+02 -0.26587770642E+02 -0.49975240735E+03  0.50092538351E+03  0.00000000000E+00 0.  1.
          3    1    3    3  501    0 -0.46596380126E+01 -0.76657262226E+01 -0.11483108132E+03  0.11518095685E+03  0.00000000000E+00 0.  1.
         -3    1    1    2    0  502  0.26266619368E+02  0.34253496865E+02 -0.38344410621E+03  0.38586606475E+03  0.00000000000E+00 0. -1.
<mgrwt>
<rscale>  1 0.30000000E+03</rscale>
<asrwt>0</asrwt>
<pdfrwt beam="1">  1       21 0.71723974E-02 0.30000000E+03</pdfrwt>
<pdfrwt beam="2">0</pdfrwt>
<totfact> 0.15465683E+04</totfact>
</mgrwt>
</event>
<event>
 6    1  0.1270461E-001  0.3000000E+03  0.7818608E-02  0.1093470E+00
         21   -1    0    0  501  502  0.00000000000E+00  0.00000000000E+00  0.88372692854E+01  0.88372692854E+01  0.00000000000E+00 0. -1.
         13   -1    0    0    0    0 -0.00000000000E+00 -0.00000000000E+00 -0.10000000000E+04  0.10000000000E+04  0.00000000000E+00 0.  1.
    9000005    2    1    2  501    0  0.67712421651E+02 -0.64631474004E+02 -0.45061144753E+03  0.46024097944E+03  0.29804420319E+01 0.  0.
         13    1    3    3    0    0  0.49057700110E+02 -0.48610132797E+02 -0.33115955773E+03  0.33828428226E+03  0.00000000000E+00 0.  1.
          1    1    3    3  501    0  0.18654721541E+02 -0.16021341207E+02 -0.11945188981E+03  0.12195669719E+03  0.00000000000E+00 0.  1.
         -3    1    1    2    0  502 -0.67712421651E+02  0.64631474004E+02 -0.54055128318E+03  0.54859628984E+03  0.00000000000E+00 0. -1.
<mgrwt>
<rscale>  1 0.30000000E+03</rscale>
<asrwt>0</asrwt>
<pdfrwt beam="1">  1       21 0.32135592E-01 0.30000000E+03</pdfrwt>
<pdfrwt beam="2">0</pdfrwt>
<totfact> 0.94683698E+02</totfact>
</mgrwt>
</event>
<event>
 6    1  0.1270461E-001  0.3000000E+03  0.7818608E-02  0.1093470E+00
         21   -1    0    0  501  502  0.00000000000E+00  0.00000000000E+00  0.28872090367E+01  0.28872090367E+01  0.00000000000E+00 0. -1.
         13   -1    0    0    0    0 -0.00000000000E+00 -0.00000000000E+00 -0.10000000000E+04  0.10000000000E+04  0.00000000000E+00 0.  1.
    9000005    2    1    2  501    0  0.19969770059E+02 -0.30481240468E+02 -0.86689148933E+03  0.86766337558E+03  0.33138054895E+01 0.  0.
         13    1    3    3    0    0  0.65406496280E+01 -0.12177047391E+02 -0.35374359651E+03  0.35401354869E+03  0.00000000000E+00 0.  1.
          1    1    3    3  501    0  0.13429120431E+02 -0.18304193077E+02 -0.51314789282E+03  0.51364982689E+03  0.00000000000E+00 0.  1.
         -3    1    1    2    0  502 -0.19969770059E+02  0.30481240468E+02 -0.13022130163E+03  0.13522383346E+03  0.00000000000E+00 0. -1.
<mgrwt>
<rscale>  1 0.30000000E+03</rscale>
<asrwt>0</asrwt>
<pdfrwt beam="1">  1       21 0.10498964E-01 0.30000000E+03</pdfrwt>
<pdfrwt beam="2">0</pdfrwt>
<totfact> 0.78852632E+03</totfact>
</mgrwt>
</event>
<event>
 6    1  0.1270461E-001  0.3000000E+03  0.7818608E-02  0.1093470E+00
         21   -1    0    0  501  502  0.00000000000E+00  0.00000000000E+00  0.10734702249E+01  0.10734702249E+01  0.00000000000E+00 0. -1.
         13   -1    0    0    0    0 -0.00000000000E+00 -0.00000000000E+00 -0.10000000000E+04  0.10000000000E+04  0.00000000000E+00 0.  1.
    9000005    2    1    2  501    0 -0.83085297364E+01 -0.31547148405E+02 -0.53118263274E+03  0.53219330701E+03  0.32361191774E+01 0.  0.
         13    1    3    3    0    0 -0.74119772635E+01 -0.30298298726E+02 -0.49893529278E+03  0.49990934247E+03  0.00000000000E+00 0.  1.
          1    1    3    3  501    0 -0.89655247284E+00 -0.12488496793E+01 -0.32247339958E+02  0.32283964537E+02  0.00000000000E+00 0.  1.
         -3    1    1    2    0  502  0.83085297364E+01  0.31547148405E+02 -0.46774389704E+03  0.46888016321E+03  0.00000000000E+00 0. -1.
<mgrwt>
<rscale>  1 0.30000000E+03</rscale>
<asrwt>0</asrwt>
<pdfrwt beam="1">  1       21 0.39035363E-02 0.30000000E+03</pdfrwt>
<pdfrwt beam="2">0</pdfrwt>
<totfact> 0.43810828E+04</totfact>
</mgrwt>
</event>
<event>
 6    1  0.1270461E-001  0.3000000E+03  0.7818608E-02  0.1093470E+00
         21   -1    0    0  501  502  0.00000000000E+00  0.00000000000E+00  0.13025615785E+02  0.13025615785E+02  0.00000000000E+00 0. -1.
         13   -1    0    0    0    0 -0.00000000000E+00 -0.00000000000E+00 -0.10000000000E+04  0.10000000000E+04  0.00000000000E+00 0.  1.
    9000005    2    1    2  501    0  0.25491453588E+02  0.20565207303E+02 -0.97868857508E+03  0.97924105436E+03  0.29955982015E+01 0.  0.
         13    1    3    3    0    0  0.64931640240E+00  0.82055235177E+00 -0.48703322032E+02  0.48714561426E+02  0.00000000000E+00 0.  1.
          3    1    3    3  501    0  0.24842137185E+02  0.19744654951E+02 -0.92998525304E+03  0.93052649294E+03  0.00000000000E+00 0.  1.
         -1    1    1    2    0  502 -0.25491453588E+02 -0.20565207303E+02 -0.82858091388E+01  0.33784561422E+02  0.00000000000E+00 0. -1.
<mgrwt>
<rscale>  1 0.30000000E+03</rscale>
<asrwt>0</asrwt>
<pdfrwt beam="1">  1       21 0.47365975E-01 0.30000000E+03</pdfrwt>
<pdfrwt beam="2">0</pdfrwt>
<totfact> 0.42223500E+02</totfact>
</mgrwt>
</event>
<event>
 6    1  0.1270461E-001  0.3000000E+03  0.7818608E-02  0.1093470E+00
         21   -1    0    0  501  502  0.00000000000E+00  0.00000000000E+00  0.32113329272E+01  0.32113329272E+01  0.00000000000E+00 0. -1.
         13   -1    0    0    0    0 -0.00000000000E+00 -0.00000000000E+00 -0.10000000000E+04  0.10000000000E+04  0.00000000000E+00 0.  1.
    9000005    2    1    2  501    0  0.21733912812E+02 -0.23978577691E+02 -0.90930718687E+03  0.90993569552E+03  0.98017725004E+01 0.  0.
         13    1    3    3    0    0  0.16334190990E+02 -0.22723240996E+02 -0.70968419690E+03  0.71023574312E+03  0.00000000000E+00 0.  1.
          1    1    3    3  501    0  0.53997218223E+01 -0.12553366952E+01 -0.19962298997E+03  0.19969995241E+03  0.00000000000E+00 0.  1.
         -3    1    1    2    0  502 -0.21733912812E+02  0.23978577691E+02 -0.87481480206E+02  0.93275637404E+02  0.00000000000E+00 0. -1.
<mgrwt>
<rscale>  1 0.30000000E+03</rscale>
<asrwt>0</asrwt>
<pdfrwt beam="1">  1       21 0.11677599E-01 0.30000000E+03</pdfrwt>
<pdfrwt beam="2">0</pdfrwt>
<totfact> 0.65106338E+03</totfact>
</mgrwt>
</event>
<event>
 6    1  0.1270461E-001  0.3000000E+03  0.7818608E-02  0.1093470E+00
         21   -1    0    0  501  502  0.00000000000E+00  0.00000000000E+00  0.19781604533E+01  0.19781604533E+01  0.00000000000E+00 0. -1.
         13   -1    0    0    0    0 -0.00000000000E+00 -0.00000000000E+00 -0.10000000000E+04  0.10000000000E+04  0.00000000000E+00 0.  1.
    9000005    2    1    2  501    0  0.14434521715E+02  0.34770411807E+02 -0.76526506587E+03  0.76619637013E+03  0.29865714471E+01 0.  0.
         13    1    3    3    0    0  0.24614196243E+01  0.84440668579E+01 -0.19552962432E+03  0.19572734821E+03  0.00000000000E+00 0.  1.
          1    1    3    3  501    0  0.11973102091E+02  0.26326344949E+02 -0.56973544155E+03  0.57046902192E+03  0.00000000000E+00 0.  1.
         -1    1    1    2    0  502 -0.14434521715E+02 -0.34770411807E+02 -0.23275677367E+03  0.23578179032E+03  0.00000000000E+00 0. -1.
<mgrwt>
<rscale>  1 0.30000000E+03</rscale>
<asrwt>0</asrwt>
<pdfrwt beam="1">  1       21 0.71933259E-02 0.30000000E+03</pdfrwt>
<pdfrwt beam="2">0</pdfrwt>
<totfact> 0.15387287E+04</totfact>
</mgrwt>
</event>
<event>
 6    1  0.1270461E-001  0.3000000E+03  0.7818608E-02  0.1093470E+00
         21   -1    0    0  501  502  0.00000000000E+00  0.00000000000E+00  0.52018311349E+01  0.52018311349E+01  0.00000000000E+00 0. -1.
         13   -1    0    0    0    0 -0.00000000000E+00 -0.00000000000E+00 -0.10000000000E+04  0.10000000000E+04  0.00000000000E+00 0.  1.
    9000005    2    1    2  501    0  0.36255093286E+02  0.28952768483E+02 -0.88210805358E+03  0.88333404756E+03  0.34244394265E+01 0.  0.
         13    1    3    3    0    0  0.34889388584E+02  0.27049090602E+02 -0.84446866768E+03  0.84562181466E+03  0.00000000000E+00 0.  1.
          3    1    3    3  501    0  0.13657047016E+01  0.19036778810E+01 -0.37639385902E+02  0.37712232894E+02  0.00000000000E+00 0.  1.
         -1    1    1    2    0  502 -0.36255093286E+02 -0.28952768483E+02 -0.11269011528E+03  0.12186778358E+03  0.00000000000E+00 0. -1.
<mgrwt>
<rscale>  1 0.30000000E+03</rscale>
<asrwt>0</asrwt>
<pdfrwt beam="1">  1       21 0.18915789E-01 0.30000000E+03</pdfrwt>
<pdfrwt beam="2">0</pdfrwt>
<totfact> 0.26674463E+03</totfact>
</mgrwt>
</event>
<event>
 6    1  0.1270461E-001  0.3000000E+03  0.7818608E-02  0.1093470E+00
         21   -1    0    0  501  502  0.00000000000E+00  0.00000000000E+00  0.20751470462E+01  0.20751470462E+01  0.00000000000E+00 0. -1.
         13   -1    0    0    0    0 -0.00000000000E+00 -0.00000000000E+00 -0.10000000000E+04  0.10000000000E+04  0.00000000000E+00 0.  1.
    9000005    2    1    2  501    0 -0.32684138476E+02 -0.29706149337E+02 -0.59964496385E+03  0.60135382457E+03  0.10081242339E+02 0.  0.
         13    1    3    3    0    0 -0.97981988468E+00 -0.14298590965E+01 -0.79987007944E+01  0.81843606006E+01  0.00000000000E+00 0.  1.
          1    1    3    3  501    0 -0.31704318592E+02 -0.28276290240E+02 -0.59164626305E+03  0.59316946397E+03  0.00000000000E+00 0.  1.
         -1    1    1    2    0  502  0.32684138476E+02  0.29706149337E+02 -0.39827988911E+03  0.40072132247E+03  0.00000000000E+00 0. -1.
<mgrwt>
<rscale>  1 0.30000000E+03</rscale>
<asrwt>0</asrwt>
<pdfrwt beam="1">  1       21 0.75460052E-02 0.30000000E+03</pdfrwt>
<pdfrwt beam="2">0</pdfrwt>
<totfact> 0.14152101E+04</totfact>
</mgrwt>
</event>
<event>
 6    1  0.1270461E-001  0.3000000E+03  0.7818608E-02  0.1093470E+00
         21   -1    0    0  501  502  0.00000000000E+00  0.00000000000E+00  0.11930327984E+01  0.11930327984E+01  0.00000000000E+00 0. -1.
         13   -1    0    0    0    0 -0.00000000000E+00 -0.00000000000E+00 -0.10000000000E+04  0.10000000000E+04  0.00000000000E+00 0.  1.
    9000005    2    1    2  501    0 -0.20265299933E+02  0.25799142812E+02 -0.35007389610E+03  0.35163096826E+03  0.40406627019E+01 0.  0.
         13    1    3    3    0    0 -0.54818163965E+01  0.10084847771E+02 -0.12032623909E+03  0.12087248769E+03  0.00000000000E+00 0.  1.
          1    1    3    3  501    0 -0.14783483536E+02  0.15714295040E+02 -0.22974765701E+03  0.23075848057E+03  0.00000000000E+00 0.  1.
         -3    1    1    2    0  502  0.20265299933E+02 -0.25799142812E+02 -0.64873307110E+03  0.64956206454E+03  0.00000000000E+00 0. -1.
<mgrwt>
<rscale>  1 0.30000000E+03</rscale>
<asrwt>0</asrwt>
<pdfrwt beam="1">  1       21 0.43383102E-02 0.30000000E+03</pdfrwt>
<pdfrwt beam="2">0</pdfrwt>
<totfact> 0.36662460E+04</totfact>
</mgrwt>
</event>
<event>
 6    1  0.1270461E-001  0.3000000E+03  0.7818608E-02  0.1093470E+00
         21   -1    0    0  501  502  0.00000000000E+00  0.00000000000E+00  0.16248362641E+01  0.16248362641E+01  0.00000000000E+00 0. -1.
         13   -1    0    0    0    0 -0.00000000000E+00 -0.00000000000E+00 -0.10000000000E+04  0.10000000000E+04  0.00000000000E+00 0.  1.
    9000005    2    1    2  501    0  0.21577372819E+02  0.32277483569E+02 -0.36939634237E+03  0.37144884760E+03  0.36290030269E+01 0.  0.
         13    1    3    3    0    0  0.17941788998E+02  0.28104662246E+02 -0.30594477917E+03  0.30775637724E+03  0.00000000000E+00 0.  1.
          1    1    3    3  501    0  0.36355838210E+01  0.41728213228E+01 -0.63451563201E+02  0.63692470357E+02  0.00000000000E+00 0.  1.
         -3    1    1    2    0  502 -0.21577372819E+02 -0.32277483569E+02 -0.62897882137E+03  0.63017598867E+03  0.00000000000E+00 0. -1.
<mgrwt>
<rscale>  1 0.30000000E+03</rscale>
<asrwt>0</asrwt>
<pdfrwt beam="1">  1       21 0.59085080E-02 0.30000000E+03</pdfrwt>
<pdfrwt beam="2">0</pdfrwt>
<totfact> 0.21637382E+04</totfact>
</mgrwt>
</event>
<event>
 6    1  0.1270461E-001  0.3000000E+03  0.7818608E-02  0.1093470E+00
         21   -1    0    0  501  502  0.00000000000E+00  0.00000000000E+00  0.14361990431E+01  0.14361990431E+01  0.00000000000E+00 0. -1.
         13   -1    0    0    0    0 -0.00000000000E+00 -0.00000000000E+00 -0.10000000000E+04  0.10000000000E+04  0.00000000000E+00 0.  1.
    9000005    2    1    2  501    0 -0.33341146719E+02  0.92249821463E+01 -0.69881841291E+03  0.69970116625E+03  0.61494282312E+01 0.  0.
         13    1    3    3    0    0 -0.30703248018E+02  0.68630256422E+01 -0.60743906912E+03  0.60825324763E+03  0.00000000000E+00 0.  1.
          1    1    3    3  501    0 -0.26378987009E+01  0.23619565041E+01 -0.91379343792E+02  0.91447918620E+02  0.00000000000E+00 0.  1.
         -1    1    1    2    0  502  0.33341146719E+02 -0.92249821463E+01 -0.29974538804E+03  0.30173503279E+03  0.00000000000E+00 0. -1.
<mgrwt>
<rscale>  1 0.30000000E+03</rscale>
<asrwt>0</asrwt>
<pdfrwt beam="1">  1       21 0.52225530E-02 0.30000000E+03</pdfrwt>
<pdfrwt beam="2">0</pdfrwt>
<totfact> 0.26741420E+04</totfact>
</mgrwt>
</event>
<event>
 6    1  0.1270461E-001  0.3000000E+03  0.7818608E-02  0.1093470E+00
         21   -1    0    0  501  502  0.00000000000E+00  0.00000000000E+00  0.17425850586E+01  0.17425850586E+01  0.00000000000E+00 0. -1.
         13   -1    0    0    0    0 -0.00000000000E+00 -0.00000000000E+00 -0.10000000000E+04  0.10000000000E+04  0.00000000000E+00 0.  1.
    9000005    2    1    2  501    0  0.35366267416E+02 -0.16434706519E+02 -0.67660444622E+03  0.67773409021E+03  0.30079783330E+01 0.  0.
         13    1    3    3    0    0  0.28337083549E+02 -0.12133823469E+02 -0.54710331741E+03  0.54797103929E+03  0.00000000000E+00 0.  1.
          1    1    3    3  501    0  0.70291838666E+01 -0.43008830496E+01 -0.12950112881E+03  0.12976305092E+03  0.00000000000E+00 0.  1.
         -1    1    1    2    0  502 -0.35366267416E+02  0.16434706519E+02 -0.32165296872E+03  0.32400849485E+03  0.00000000000E+00 0. -1.
<mgrwt>
<rscale>  1 0.30000000E+03</rscale>
<asrwt>0</asrwt>
<pdfrwt beam="1">  1       21 0.63366863E-02 0.30000000E+03</pdfrwt>
<pdfrwt beam="2">0</pdfrwt>
<totfact> 0.19175966E+04</totfact>
</mgrwt>
</event>
<event>
 6    1  0.1270461E-001  0.3000000E+03  0.7818608E-02  0.1093470E+00
         21   -1    0    0  501  502  0.00000000000E+00  0.00000000000E+00  0.32392311519E+01  0.32392311519E+01  0.00000000000E+00 0. -1.
         13   -1    0    0    0    0 -0.00000000000E+00 -0.00000000000E+00 -0.10000000000E+04  0.10000000000E+04  0.00000000000E+00 0.  1.
    9000005    2    1    2  501    0 -0.37643698303E+02  0.15756934277E+02 -0.84786789777E+03  0.84885524216E+03  0.31497731071E+01 0.  0.
         13    1    3    3    0    0 -0.16865585819E+02  0.69366882026E+01 -0.34675974629E+03  0.34723894838E+03  0.00000000000E+00 0.  1.
          3    1    3    3  501    0 -0.20778112484E+02  0.88202460743E+01 -0.50110815148E+03  0.50161629378E+03  0.00000000000E+00 0.  1.
         -1    1    1    2    0  502  0.37643698303E+02 -0.15756934277E+02 -0.14889287108E+03  0.15438398899E+03  0.00000000000E+00 0. -1.
<mgrwt>
<rscale>  1 0.30000000E+03</rscale>
<asrwt>0</asrwt>
<pdfrwt beam="1">  1       21 0.11779047E-01 0.30000000E+03</pdfrwt>
<pdfrwt beam="2">0</pdfrwt>
<totfact> 0.64094797E+03</totfact>
</mgrwt>
</event>
<event>
 6    1  0.1270461E-001  0.3000000E+03  0.7818608E-02  0.1093470E+00
         21   -1    0    0  501  502  0.00000000000E+00  0.00000000000E+00  0.10580212509E+01  0.10580212509E+01  0.00000000000E+00 0. -1.
         13   -1    0    0    0    0 -0.00000000000E+00 -0.00000000000E+00 -0.10000000000E+04  0.10000000000E+04  0.00000000000E+00 0.  1.
    9000005    2    1    2  501    0  0.13970995917E+02  0.28022061778E+02 -0.63148601649E+03  0.63227040097E+03  0.32933639756E+01 0.  0.
         13    1    3    3    0    0  0.13189520700E+02  0.24098973812E+02 -0.55687223600E+03  0.55754946975E+03  0.00000000000E+00 0.  1.
          1    1    3    3  501    0  0.78147521611E+00  0.39230879655E+01 -0.74613780489E+02  0.74720931214E+02  0.00000000000E+00 0.  1.
         -3    1    1    2    0  502 -0.13970995917E+02 -0.28022061778E+02 -0.36745596226E+03  0.36878762028E+03  0.00000000000E+00 0. -1.
<mgrwt>
<rscale>  1 0.30000000E+03</rscale>
<asrwt>0</asrwt>
<pdfrwt beam="1">  1       21 0.38473581E-02 0.30000000E+03</pdfrwt>
<pdfrwt beam="2">0</pdfrwt>
<totfact> 0.44891870E+04</totfact>
</mgrwt>
</event>
<event>
 6    1  0.1270461E-001  0.3000000E+03  0.7818608E-02  0.1093470E+00
         21   -1    0    0  501  502  0.00000000000E+00  0.00000000000E+00  0.13248657238E+01  0.13248657238E+01  0.00000000000E+00 0. -1.
         13   -1    0    0    0    0 -0.00000000000E+00 -0.00000000000E+00 -0.10000000000E+04  0.10000000000E+04  0.00000000000E+00 0.  1.
    9000005    2    1    2  501    0  0.35815667142E+02  0.17620504502E+01 -0.44647409576E+03  0.44796074169E+03  0.66212590815E+01 0.  0.
         13    1    3    3    0    0  0.18097262712E+02 -0.24133917031E+01 -0.22027141263E+03  0.22102676444E+03  0.00000000000E+00 0.  1.
          3    1    3    3  501    0  0.17718404430E+02  0.41754421533E+01 -0.22620268313E+03  0.22693397724E+03  0.00000000000E+00 0.  1.
         -1    1    1    2    0  502 -0.35815667142E+02 -0.17620504502E+01 -0.55220103852E+03  0.55336412404E+03  0.00000000000E+00 0. -1.
<mgrwt>
<rscale>  1 0.30000000E+03</rscale>
<asrwt>0</asrwt>
<pdfrwt beam="1">  1       21 0.48177037E-02 0.30000000E+03</pdfrwt>
<pdfrwt beam="2">0</pdfrwt>
<totfact> 0.30685695E+04</totfact>
</mgrwt>
</event>
<event>
 6    1  0.1270461E-001  0.3000000E+03  0.7818608E-02  0.1093470E+00
         21   -1    0    0  501  502  0.00000000000E+00  0.00000000000E+00  0.26376245647E+01  0.26376245647E+01  0.00000000000E+00 0. -1.
         13   -1    0    0    0    0 -0.00000000000E+00 -0.00000000000E+00 -0.10000000000E+04  0.10000000000E+04  0.00000000000E+00 0.  1.
    9000005    2    1    2  501    0  0.34466948873E+02  0.18530218266E+02 -0.82302754639E+03  0.82396481698E+03  0.35125408244E+01 0.  0.
         13    1    3    3    0    0  0.25062367316E+02  0.11655451622E+02 -0.57773881800E+03  0.57839961414E+03  0.00000000000E+00 0.  1.
          1    1    3    3  501    0  0.94045815571E+01  0.68747666433E+01 -0.24528872839E+03  0.24556520284E+03  0.00000000000E+00 0.  1.
         -3    1    1    2    0  502 -0.34466948873E+02 -0.18530218266E+02 -0.17433482905E+03  0.17867280759E+03  0.00000000000E+00 0. -1.
<mgrwt>
<rscale>  1 0.30000000E+03</rscale>
<asrwt>0</asrwt>
<pdfrwt beam="1">  1       21 0.95913823E-02 0.30000000E+03</pdfrwt>
<pdfrwt beam="2">0</pdfrwt>
<totfact> 0.92682390E+03</totfact>
</mgrwt>
</event>
<event>
 6    1  0.1270461E-001  0.3000000E+03  0.7818608E-02  0.1093470E+00
         21   -1    0    0  501  502  0.00000000000E+00  0.00000000000E+00  0.41043123670E+01  0.41043123670E+01  0.00000000000E+00 0. -1.
         13   -1    0    0    0    0 -0.00000000000E+00 -0.00000000000E+00 -0.10000000000E+04  0.10000000000E+04  0.00000000000E+00 0.  1.
    9000005    2    1    2  501    0 -0.17770066640E+02  0.37911468723E+02 -0.87781316952E+03  0.87881849588E+03  0.35963019188E+01 0.  0.
         13    1    3    3    0    0 -0.15597588840E+01  0.39724223411E+01 -0.11400023766E+03  0.11408009105E+03  0.00000000000E+00 0.  1.
          3    1    3    3  501    0 -0.16210307756E+02  0.33939046382E+02 -0.76381293186E+03  0.76473840483E+03  0.00000000000E+00 0.  1.
         -3    1    1    2    0  502  0.17770066640E+02 -0.37911468723E+02 -0.11808251812E+03  0.12528581649E+03  0.00000000000E+00 0. -1.
<mgrwt>
<rscale>  1 0.30000000E+03</rscale>
<asrwt>0</asrwt>
<pdfrwt beam="1">  1       21 0.14924804E-01 0.30000000E+03</pdfrwt>
<pdfrwt beam="2">0</pdfrwt>
<totfact> 0.41565092E+03</totfact>
</mgrwt>
</event>
<event>
 6    1  0.1270461E-001  0.3000000E+03  0.7818608E-02  0.1093470E+00
         21   -1    0    0  501  502  0.00000000000E+00  0.00000000000E+00  0.13867166737E+01  0.13867166737E+01  0.00000000000E+00 0. -1.
         13   -1    0    0    0    0 -0.00000000000E+00 -0.00000000000E+00 -0.10000000000E+04  0.10000000000E+04  0.00000000000E+00 0.  1.
    9000005    2    1    2  501    0 -0.74717014357E+01 -0.33270032762E+02 -0.69939234574E+03  0.70022913186E+03  0.29090238468E+01 0.  0.
         13    1    3    3    0    0 -0.59916244755E+01 -0.28236583241E+02 -0.56989217984E+03  0.57062273074E+03  0.00000000000E+00 0.  1.
          3    1    3    3  501    0 -0.14800769602E+01 -0.50334495212E+01 -0.12950016590E+03  0.12960640112E+03  0.00000000000E+00 0.  1.
         -1    1    1    2    0  502  0.74717014357E+01  0.33270032762E+02 -0.29922093758E+03  0.30115758481E+03  0.00000000000E+00 0. -1.
<mgrwt>
<rscale>  1 0.30000000E+03</rscale>
<asrwt>0</asrwt>
<pdfrwt beam="1">  1       21 0.50426167E-02 0.30000000E+03</pdfrwt>
<pdfrwt beam="2">0</pdfrwt>
<totfact> 0.28390812E+04</totfact>
</mgrwt>
</event>
<event>
 6    1  0.1270461E-001  0.3000000E+03  0.7818608E-02  0.1093470E+00
         21   -1    0    0  501  502  0.00000000000E+00  0.00000000000E+00  0.16954520897E+01  0.16954520897E+01  0.00000000000E+00 0. -1.
         13   -1    0    0    0    0 -0.00000000000E+00 -0.00000000000E+00 -0.10000000000E+04  0.10000000000E+04  0.00000000000E+00 0.  1.
    9000005    2    1    2  501    0  0.65057229475E+01 -0.40457255639E+02 -0.46143341235E+03  0.46326279134E+03  0.35363599552E+01 0.  0.
         13    1    3    3    0    0  0.48724593079E+01 -0.19588384013E+02 -0.22108801985E+03  0.22200756331E+03  0.00000000000E+00 0.  1.
          3    1    3    3  501    0  0.16332636396E+01 -0.20868871626E+02 -0.24034539250E+03  0.24125522802E+03  0.00000000000E+00 0.  1.
         -3    1    1    2    0  502 -0.65057229475E+01  0.40457255639E+02 -0.53687113556E+03  0.53843266075E+03  0.00000000000E+00 0. -1.
<mgrwt>
<rscale>  1 0.30000000E+03</rscale>
<asrwt>0</asrwt>
<pdfrwt beam="1">  1       21 0.61652933E-02 0.30000000E+03</pdfrwt>
<pdfrwt beam="2">0</pdfrwt>
<totfact> 0.20106307E+04</totfact>
</mgrwt>
</event>
<event>
 6    1  0.1270461E-001  0.3000000E+03  0.7818608E-02  0.1093470E+00
         21   -1    0    0  501  502  0.00000000000E+00  0.00000000000E+00  0.94084930360E+01  0.94084930360E+01  0.00000000000E+00 0. -1.
         13   -1    0    0    0    0 -0.00000000000E+00 -0.00000000000E+00 -0.10000000000E+04  0.10000000000E+04  0.00000000000E+00 0.  1.
    9000005    2    1    2  501    0 -0.39117140474E+02  0.20422357723E+02 -0.94464448493E+03  0.94570329538E+03  0.73686241588E+01 0.  0.
         13    1    3    3    0    0 -0.16135201056E+02  0.74126227261E+01 -0.30812535279E+03  0.30863655765E+03  0.00000000000E+00 0.  1.
          3    1    3    3  501    0 -0.22981939419E+02  0.13009734997E+02 -0.63651913214E+03  0.63706673773E+03  0.00000000000E+00 0.  1.
         -1    1    1    2    0  502  0.39117140474E+02 -0.20422357723E+02 -0.45947022036E+02  0.63705197652E+02  0.00000000000E+00 0. -1.
<mgrwt>
<rscale>  1 0.30000000E+03</rscale>
<asrwt>0</asrwt>
<pdfrwt beam="1">  1       21 0.34212774E-01 0.30000000E+03</pdfrwt>
<pdfrwt beam="2">0</pdfrwt>
<totfact> 0.83364789E+02</totfact>
</mgrwt>
</event>
<event>
 6    1  0.1270461E-001  0.3000000E+03  0.7818608E-02  0.1093470E+00
         21   -1    0    0  501  502  0.00000000000E+00  0.00000000000E+00  0.21572814276E+01  0.21572814276E+01  0.00000000000E+00 0. -1.
         13   -1    0    0    0    0 -0.00000000000E+00 -0.00000000000E+00 -0.10000000000E+04  0.10000000000E+04  0.00000000000E+00 0.  1.
    9000005    2    1    2  501    0 -0.23323216242E+02 -0.21220613722E+02 -0.86664538710E+03  0.86722386582E+03  0.29528968268E+01 0.  0.
         13    1    3    3    0    0 -0.21746911740E+02 -0.19899415602E+02 -0.78679099570E+03  0.78734299122E+03  0.00000000000E+00 0.  1.
          1    1    3    3  501    0 -0.15763045020E+01 -0.13211981199E+01 -0.79854391403E+02  0.79880874599E+02  0.00000000000E+00 0.  1.
         -3    1    1    2    0  502  0.23323216242E+02  0.21220613722E+02 -0.13119733147E+03  0.13493341561E+03  0.00000000000E+00 0. -1.
<mgrwt>
<rscale>  1 0.30000000E+03</rscale>
<asrwt>0</asrwt>
<pdfrwt beam="1">  1       21 0.78446763E-02 0.30000000E+03</pdfrwt>
<pdfrwt beam="2">0</pdfrwt>
<totfact> 0.13221189E+04</totfact>
</mgrwt>
</event>
<event>
 6    1  0.1270461E-001  0.3000000E+03  0.7818608E-02  0.1093470E+00
         21   -1    0    0  501  502  0.00000000000E+00  0.00000000000E+00  0.42473813148E+01  0.42473813148E+01  0.00000000000E+00 0. -1.
         13   -1    0    0    0    0 -0.00000000000E+00 -0.00000000000E+00 -0.10000000000E+04  0.10000000000E+04  0.00000000000E+00 0.  1.
    9000005    2    1    2  501    0  0.54931559584E+02 -0.19086754756E+02 -0.72427078461E+03  0.72660702640E+03  0.27965918572E+01 0.  0.
         13    1    3    3    0    0  0.18298032950E+02 -0.72112243387E+01 -0.23192520388E+03  0.23275764211E+03  0.00000000000E+00 0.  1.
          1    1    3    3  501    0  0.36633526633E+02 -0.11875530417E+02 -0.49234558073E+03  0.49384938429E+03  0.00000000000E+00 0.  1.
         -3    1    1    2    0  502 -0.54931559584E+02  0.19086754756E+02 -0.27148183407E+03  0.27764035491E+03  0.00000000000E+00 0. -1.
<mgrwt>
<rscale>  1 0.30000000E+03</rscale>
<asrwt>0</asrwt>
<pdfrwt beam="1">  1       21 0.15445056E-01 0.30000000E+03</pdfrwt>
<pdfrwt beam="2">0</pdfrwt>
<totfact> 0.39007180E+03</totfact>
</mgrwt>
</event>
<event>
 6    1  0.1270461E-001  0.3000000E+03  0.7818608E-02  0.1093470E+00
         21   -1    0    0  501  502  0.00000000000E+00  0.00000000000E+00  0.39107594903E+01  0.39107594903E+01  0.00000000000E+00 0. -1.
         13   -1    0    0    0    0 -0.00000000000E+00 -0.00000000000E+00 -0.10000000000E+04  0.10000000000E+04  0.00000000000E+00 0.  1.
    9000005    2    1    2  501    0  0.50444788417E+02  0.15283092552E+02 -0.76775053417E+03  0.76956739089E+03  0.38518565273E+01 0.  0.
         13    1    3    3    0    0  0.19494343008E+02  0.61832664915E+01 -0.32538476235E+03  0.32602684822E+03  0.00000000000E+00 0.  1.
          1    1    3    3  501    0  0.30950445409E+02  0.90998260605E+01 -0.44236577182E+03  0.44354054266E+03  0.00000000000E+00 0.  1.
         -3    1    1    2    0  502 -0.50444788417E+02 -0.15283092552E+02 -0.22833870634E+03  0.23434336860E+03  0.00000000000E+00 0. -1.
<mgrwt>
<rscale>  1 0.30000000E+03</rscale>
<asrwt>0</asrwt>
<pdfrwt beam="1">  1       21 0.14220974E-01 0.30000000E+03</pdfrwt>
<pdfrwt beam="2">0</pdfrwt>
<totfact> 0.45439306E+03</totfact>
</mgrwt>
</event>
<event>
 6    1  0.1270461E-001  0.3000000E+03  0.7818608E-02  0.1093470E+00
         21   -1    0    0  501  502  0.00000000000E+00  0.00000000000E+00  0.13581410699E+01  0.13581410699E+01  0.00000000000E+00 0. -1.
         13   -1    0    0    0    0 -0.00000000000E+00 -0.00000000000E+00 -0.10000000000E+04  0.10000000000E+04  0.00000000000E+00 0.  1.
    9000005    2    1    2  501    0 -0.17351789997E+02 -0.27928929792E+02 -0.72400831966E+03  0.72476332798E+03  0.35671997829E+01 0.  0.
         13    1    3    3    0    0 -0.13044734259E+02 -0.23607980822E+02 -0.59040960927E+03  0.59102538741E+03  0.00000000000E+00 0.  1.
          1    1    3    3  501    0 -0.43070557382E+01 -0.43209489704E+01 -0.13359871040E+03  0.13373794057E+03  0.00000000000E+00 0.  1.
         -1    1    1    2    0  502  0.17351789997E+02  0.27928929792E+02 -0.27463353927E+03  0.27659481308E+03  0.00000000000E+00 0. -1.
<mgrwt>
<rscale>  1 0.30000000E+03</rscale>
<asrwt>0</asrwt>
<pdfrwt beam="1">  1       21 0.49387052E-02 0.30000000E+03</pdfrwt>
<pdfrwt beam="2">0</pdfrwt>
<totfact> 0.29416567E+04</totfact>
</mgrwt>
</event>
<event>
 6    1  0.1270461E-001  0.3000000E+03  0.7818608E-02  0.1093470E+00
         21   -1    0    0  501  502  0.00000000000E+00  0.00000000000E+00  0.11137080150E+01  0.11137080150E+01  0.00000000000E+00 0. -1.
         13   -1    0    0    0    0 -0.00000000000E+00 -0.00000000000E+00 -0.10000000000E+04  0.10000000000E+04  0.00000000000E+00 0.  1.
    9000005    2    1    2  501    0  0.13310566735E+02 -0.29739654074E+02 -0.59974836422E+03  0.60064809951E+03  0.42919522796E+01 0.  0.
         13    1    3    3    0    0  0.18168038503E+00 -0.91332147948E+00 -0.34796329170E+02  0.34808787505E+02  0.00000000000E+00 0.  1.
          3    1    3    3  501    0  0.13128886350E+02 -0.28826332595E+02 -0.56495203505E+03  0.56583931200E+03  0.00000000000E+00 0.  1.
         -3    1    1    2    0  502 -0.13310566735E+02  0.29739654074E+02 -0.39913792777E+03  0.40046560850E+03  0.00000000000E+00 0. -1.
<mgrwt>
<rscale>  1 0.30000000E+03</rscale>
<asrwt>0</asrwt>
<pdfrwt beam="1">  1       21 0.40498559E-02 0.30000000E+03</pdfrwt>
<pdfrwt beam="2">0</pdfrwt>
<totfact> 0.41179029E+04</totfact>
</mgrwt>
</event>
<event>
 6    1  0.1270461E-001  0.3000000E+03  0.7818608E-02  0.1093470E+00
         21   -1    0    0  501  502  0.00000000000E+00  0.00000000000E+00  0.16206228689E+01  0.16206228689E+01  0.00000000000E+00 0. -1.
         13   -1    0    0    0    0 -0.00000000000E+00 -0.00000000000E+00 -0.10000000000E+04  0.10000000000E+04  0.00000000000E+00 0.  1.
    9000005    2    1    2  501    0  0.39538311377E+01  0.38929992983E+02 -0.61476737056E+03  0.61601804414E+03  0.28519590942E+01 0.  0.
         13    1    3    3    0    0  0.20837602237E+01  0.16669204336E+02 -0.24277617382E+03  0.24335668268E+03  0.00000000000E+00 0.  1.
          1    1    3    3  501    0  0.18700709140E+01  0.22260788646E+02 -0.37199119674E+03  0.37266136146E+03  0.00000000000E+00 0.  1.
         -3    1    1    2    0  502 -0.39538311377E+01 -0.38929992983E+02 -0.38361200657E+03  0.38560257873E+03  0.00000000000E+00 0. -1.
<mgrwt>
<rscale>  1 0.30000000E+03</rscale>
<asrwt>0</asrwt>
<pdfrwt beam="1">  1       21 0.58931865E-02 0.30000000E+03</pdfrwt>
<pdfrwt beam="2">0</pdfrwt>
<totfact> 0.21734431E+04</totfact>
</mgrwt>
</event>
<event>
 6    1  0.1270461E-001  0.3000000E+03  0.7818608E-02  0.1093470E+00
         21   -1    0    0  501  502  0.00000000000E+00  0.00000000000E+00  0.19581936531E+01  0.19581936531E+01  0.00000000000E+00 0. -1.
         13   -1    0    0    0    0 -0.00000000000E+00 -0.00000000000E+00 -0.10000000000E+04  0.10000000000E+04  0.00000000000E+00 0.  1.
    9000005    2    1    2  501    0 -0.33502484035E+01  0.41109851983E+02 -0.67925132388E+03  0.68051050614E+03  0.33081540516E+01 0.  0.
         13    1    3    3    0    0 -0.42089545034E+00  0.31720673708E+01 -0.40045680006E+02  0.40173320145E+02  0.00000000000E+00 0.  1.
          3    1    3    3  501    0 -0.29293529531E+01  0.37937784612E+02 -0.63920564388E+03  0.64033718600E+03  0.00000000000E+00 0.  1.
         -1    1    1    2    0  502  0.33502484035E+01 -0.41109851983E+02 -0.31879048247E+03  0.32144768751E+03  0.00000000000E+00 0. -1.
<mgrwt>
<rscale>  1 0.30000000E+03</rscale>
<asrwt>0</asrwt>
<pdfrwt beam="1">  1       21 0.71207192E-02 0.30000000E+03</pdfrwt>
<pdfrwt beam="2">0</pdfrwt>
<totfact> 0.15661889E+04</totfact>
</mgrwt>
</event>
<event>
 6    1  0.1270461E-001  0.3000000E+03  0.7818608E-02  0.1093470E+00
         21   -1    0    0  501  502  0.00000000000E+00  0.00000000000E+00  0.15359099203E+02  0.15359099203E+02  0.00000000000E+00 0. -1.
         13   -1    0    0    0    0 -0.00000000000E+00 -0.00000000000E+00 -0.10000000000E+04  0.10000000000E+04  0.00000000000E+00 0.  1.
    9000005    2    1    2  501    0 -0.44303647039E+02 -0.90217125814E+02 -0.78920904135E+03  0.79559660327E+03  0.45936104034E+01 0.  0.
         13    1    3    3    0    0 -0.26798303454E+02 -0.58369385039E+02 -0.49255899366E+03  0.49672879564E+03  0.00000000000E+00 0.  1.
          3    1    3    3  501    0 -0.17505343585E+02 -0.31847740775E+02 -0.29665004769E+03  0.29886780764E+03  0.00000000000E+00 0.  1.
         -3    1    1    2    0  502  0.44303647039E+02  0.90217125814E+02 -0.19543185944E+03  0.21976249593E+03  0.00000000000E+00 0. -1.
<mgrwt>
<rscale>  1 0.30000000E+03</rscale>
<asrwt>0</asrwt>
<pdfrwt beam="1">  1       21 0.55851388E-01 0.30000000E+03</pdfrwt>
<pdfrwt beam="2">0</pdfrwt>
<totfact> 0.29468359E+02</totfact>
</mgrwt>
</event>
<event>
 6    1  0.1270461E-001  0.3000000E+03  0.7818608E-02  0.1093470E+00
         21   -1    0    0  501  502  0.00000000000E+00  0.00000000000E+00  0.34821948982E+01  0.34821948982E+01  0.00000000000E+00 0. -1.
         13   -1    0    0    0    0 -0.00000000000E+00 -0.00000000000E+00 -0.10000000000E+04  0.10000000000E+04  0.00000000000E+00 0.  1.
    9000005    2    1    2  501    0 -0.49928260591E+02 -0.78396713232E+01 -0.75684956562E+03  0.75854310723E+03  0.34769085242E+01 0.  0.
         13    1    3    3    0    0 -0.15056991948E+02 -0.37063205888E+01 -0.21857865865E+03  0.21912799875E+03  0.00000000000E+00 0.  1.
          3    1    3    3  501    0 -0.34871268643E+02 -0.41333507344E+01 -0.53827090697E+03  0.53941510848E+03  0.00000000000E+00 0.  1.
         -1    1    1    2    0  502  0.49928260591E+02  0.78396713232E+01 -0.23966823948E+03  0.24493908767E+03  0.00000000000E+00 0. -1.
<mgrwt>
<rscale>  1 0.30000000E+03</rscale>
<asrwt>0</asrwt>
<pdfrwt beam="1">  1       21 0.12662554E-01 0.30000000E+03</pdfrwt>
<pdfrwt beam="2">0</pdfrwt>
<totfact> 0.56198195E+03</totfact>
</mgrwt>
</event>
<event>
 6    1  0.1270461E-001  0.3000000E+03  0.7818608E-02  0.1093470E+00
         21   -1    0    0  501  502  0.00000000000E+00  0.00000000000E+00  0.44434302390E+01  0.44434302390E+01  0.00000000000E+00 0. -1.
         13   -1    0    0    0    0 -0.00000000000E+00 -0.00000000000E+00 -0.10000000000E+04  0.10000000000E+04  0.00000000000E+00 0.  1.
    9000005    2    1    2  501    0 -0.14485844945E+02  0.48756443638E+02 -0.17628138666E+03  0.18359091233E+03  0.65928226176E+01 0.  0.
         13    1    3    3    0    0 -0.82023424912E+01  0.25901385415E+02 -0.82405224733E+02  0.86768549902E+02  0.00000000000E+00 0.  1.
          1    1    3    3  501    0 -0.62835024540E+01  0.22855058223E+02 -0.93876161922E+02  0.96822362431E+02  0.00000000000E+00 0.  1.
         -3    1    1    2    0  502  0.14485844945E+02 -0.48756443638E+02 -0.81927518311E+03  0.82085251791E+03  0.00000000000E+00 0. -1.
<mgrwt>
<rscale>  1 0.30000000E+03</rscale>
<asrwt>0</asrwt>
<pdfrwt beam="1">  1       21 0.16157962E-01 0.30000000E+03</pdfrwt>
<pdfrwt beam="2">0</pdfrwt>
<totfact> 0.35863640E+03</totfact>
</mgrwt>
</event>
<event>
 6    1  0.1270461E-001  0.3000000E+03  0.7818608E-02  0.1093470E+00
         21   -1    0    0  501  502  0.00000000000E+00  0.00000000000E+00  0.99747972620E+00  0.99747972620E+00  0.00000000000E+00 0. -1.
         13   -1    0    0    0    0 -0.00000000000E+00 -0.00000000000E+00 -0.10000000000E+04  0.10000000000E+04  0.00000000000E+00 0.  1.
    9000005    2    1    2  501    0 -0.48827149483E+00  0.30826953957E+02 -0.59788769476E+03  0.59869952703E+03  0.45704066712E+01 0.  0.
         13    1    3    3    0    0  0.27789614788E+00  0.97281497525E+01 -0.23092976000E+03  0.23113474031E+03  0.00000000000E+00 0.  1.
          3    1    3    3  501    0 -0.76616764271E+00  0.21098804205E+02 -0.36695793476E+03  0.36756478672E+03  0.00000000000E+00 0.  1.
         -1    1    1    2    0  502  0.48827149483E+00 -0.30826953957E+02 -0.40111482551E+03  0.40229795270E+03  0.00000000000E+00 0. -1.
<mgrwt>
<rscale>  1 0.30000000E+03</rscale>
<asrwt>0</asrwt>
<pdfrwt beam="1">  1       21 0.36272067E-02 0.30000000E+03</pdfrwt>
<pdfrwt beam="2">0</pdfrwt>
<totfact> 0.49560531E+04</totfact>
</mgrwt>
</event>
<event>
 6    1  0.1270461E-001  0.3000000E+03  0.7818608E-02  0.1093470E+00
         21   -1    0    0  501  502  0.00000000000E+00  0.00000000000E+00  0.18514452416E+01  0.18514452416E+01  0.00000000000E+00 0. -1.
         13   -1    0    0    0    0 -0.00000000000E+00 -0.00000000000E+00 -0.10000000000E+04  0.10000000000E+04  0.00000000000E+00 0.  1.
    9000005    2    1    2  501    0  0.41856752223E+02 -0.45728247318E+01 -0.59839725509E+03  0.59988876039E+03  0.37883374982E+01 0.  0.
         13    1    3    3    0    0  0.40134486086E+02 -0.50862626553E+01 -0.57666717630E+03  0.57808449146E+03  0.00000000000E+00 0.  1.
          3    1    3    3  501    0  0.17222661374E+01  0.51343792345E+00 -0.21730078793E+02  0.21804268928E+02  0.00000000000E+00 0.  1.
         -1    1    1    2    0  502 -0.41856752223E+02  0.45728247318E+01 -0.39975129966E+03  0.40196268486E+03  0.00000000000E+00 0. -1.
<mgrwt>
<rscale>  1 0.30000000E+03</rscale>
<asrwt>0</asrwt>
<pdfrwt beam="1">  1       21 0.67325423E-02 0.30000000E+03</pdfrwt>
<pdfrwt beam="2">0</pdfrwt>
<totfact> 0.17265426E+04</totfact>
</mgrwt>
</event>
<event>
 6    1  0.1270461E-001  0.3000000E+03  0.7818608E-02  0.1093470E+00
         21   -1    0    0  501  502  0.00000000000E+00  0.00000000000E+00  0.22060651144E+01  0.22060651144E+01  0.00000000000E+00 0. -1.
         13   -1    0    0    0    0 -0.00000000000E+00 -0.00000000000E+00 -0.10000000000E+04  0.10000000000E+04  0.00000000000E+00 0.  1.
    9000005    2    1    2  501    0  0.43708490202E+02  0.15123186520E+02 -0.58265148977E+03  0.58449516913E+03  0.35638912211E+01 0.  0.
         13    1    3    3    0    0  0.13413229710E+02  0.53648559950E+01 -0.16348521549E+03  0.16412224741E+03  0.00000000000E+00 0.  1.
          3    1    3    3  501    0  0.30295260492E+02  0.97583305250E+01 -0.41916627428E+03  0.42037292172E+03  0.00000000000E+00 0.  1.
         -1    1    1    2    0  502 -0.43708490202E+02 -0.15123186520E+02 -0.41514244511E+03  0.41771089598E+03  0.00000000000E+00 0. -1.
<mgrwt>
<rscale>  1 0.30000000E+03</rscale>
<asrwt>0</asrwt>
<pdfrwt beam="1">  1       21 0.80220719E-02 0.30000000E+03</pdfrwt>
<pdfrwt beam="2">0</pdfrwt>
<totfact> 0.12712196E+04</totfact>
</mgrwt>
</event>
<event>
 6    1  0.1270461E-001  0.3000000E+03  0.7818608E-02  0.1093470E+00
         21   -1    0    0  501  502  0.00000000000E+00  0.00000000000E+00  0.77560358442E+01  0.77560358442E+01  0.00000000000E+00 0. -1.
         13   -1    0    0    0    0 -0.00000000000E+00 -0.00000000000E+00 -0.10000000000E+04  0.10000000000E+04  0.00000000000E+00 0.  1.
    9000005    2    1    2  501    0  0.41909878545E+02 -0.73271473632E-01 -0.93925786138E+03  0.94019887208E+03  0.34850549598E+01 0.  0.
         13    1    3    3    0    0  0.37574887058E+02 -0.16190313804E+00 -0.86331776479E+03  0.86413509438E+03  0.00000000000E+00 0.  1.
          1    1    3    3  501    0  0.43349914875E+01  0.88631664407E-01 -0.75940096597E+02  0.76063777699E+02  0.00000000000E+00 0.  1.
         -1    1    1    2    0  502 -0.41909878545E+02  0.73271473632E-01 -0.52986102772E+02  0.67557163760E+02  0.00000000000E+00 0. -1.
<mgrwt>
<rscale>  1 0.30000000E+03</rscale>
<asrwt>0</asrwt>
<pdfrwt beam="1">  1       21 0.28203826E-01 0.30000000E+03</pdfrwt>
<pdfrwt beam="2">0</pdfrwt>
<totfact> 0.12295812E+03</totfact>
</mgrwt>
</event>
<event>
 6    1  0.1270461E-001  0.3000000E+03  0.7818608E-02  0.1093470E+00
         21   -1    0    0  501  502  0.00000000000E+00  0.00000000000E+00  0.68440822786E+01  0.68440822786E+01  0.00000000000E+00 0. -1.
         13   -1    0    0    0    0 -0.00000000000E+00 -0.00000000000E+00 -0.10000000000E+04  0.10000000000E+04  0.00000000000E+00 0.  1.
    9000005    2    1    2  501    0  0.53438521267E+02 -0.53532804048E+02 -0.70016361304E+03  0.70424545824E+03  0.33382284556E+01 0.  0.
         13    1    3    3    0    0  0.12409856632E+02 -0.12083271286E+02 -0.17353183387E+03  0.17439411502E+03  0.00000000000E+00 0.  1.
          1    1    3    3  501    0  0.41028664635E+02 -0.41449532762E+02 -0.52663177917E+03  0.52985134322E+03  0.00000000000E+00 0.  1.
         -3    1    1    2    0  502 -0.53438521267E+02  0.53532804048E+02 -0.29299230468E+03  0.30259862404E+03  0.00000000000E+00 0. -1.
<mgrwt>
<rscale>  1 0.30000000E+03</rscale>
<asrwt>0</asrwt>
<pdfrwt beam="1">  1       21 0.24887624E-01 0.30000000E+03</pdfrwt>
<pdfrwt beam="2">0</pdfrwt>
<totfact> 0.15734060E+03</totfact>
</mgrwt>
</event>
<event>
 6    1  0.1270461E-001  0.3000000E+03  0.7818608E-02  0.1093470E+00
         21   -1    0    0  501  502  0.00000000000E+00  0.00000000000E+00  0.19698263144E+01  0.19698263144E+01  0.00000000000E+00 0. -1.
         13   -1    0    0    0    0 -0.00000000000E+00 -0.00000000000E+00 -0.10000000000E+04  0.10000000000E+04  0.00000000000E+00 0.  1.
    9000005    2    1    2  501    0 -0.28059941235E+02  0.25642734377E+02 -0.24266930585E+03  0.24565312626E+03  0.34865899754E+01 0.  0.
         13    1    3    3    0    0 -0.25696537920E+02  0.23829041360E+02 -0.21701089094E+03  0.21982234204E+03  0.00000000000E+00 0.  1.
          1    1    3    3  501    0 -0.23634033150E+01  0.18136930170E+01 -0.25658414910E+02  0.25830784217E+02  0.00000000000E+00 0.  1.
         -1    1    1    2    0  502  0.28059941235E+02 -0.25642734377E+02 -0.75536086784E+03  0.75631670006E+03  0.00000000000E+00 0. -1.
<mgrwt>
<rscale>  1 0.30000000E+03</rscale>
<asrwt>0</asrwt>
<pdfrwt beam="1">  1       21 0.71630199E-02 0.30000000E+03</pdfrwt>
<pdfrwt beam="2">0</pdfrwt>
<totfact> 0.15501008E+04</totfact>
</mgrwt>
</event>
<event>
 6    1  0.1270461E-001  0.3000000E+03  0.7818608E-02  0.1093470E+00
         21   -1    0    0  501  502  0.00000000000E+00  0.00000000000E+00  0.21940214238E+01  0.21940214238E+01  0.00000000000E+00 0. -1.
         13   -1    0    0    0    0 -0.00000000000E+00 -0.00000000000E+00 -0.10000000000E+04  0.10000000000E+04  0.00000000000E+00 0.  1.
    9000005    2    1    2  501    0  0.19458900982E+00  0.30804624283E+02 -0.87619556805E+03  0.87674261772E+03  0.31593542803E+01 0.  0.
         13    1    3    3    0    0 -0.28828153711E+00  0.28605157835E+02 -0.79040321383E+03  0.79092071575E+03  0.00000000000E+00 0.  1.
          3    1    3    3  501    0  0.48287054693E+00  0.21994664480E+01 -0.85792354217E+02  0.85821901976E+02  0.00000000000E+00 0.  1.
         -1    1    1    2    0  502 -0.19458900982E+00 -0.30804624283E+02 -0.12161041053E+03  0.12545140370E+03  0.00000000000E+00 0. -1.
<mgrwt>
<rscale>  1 0.30000000E+03</rscale>
<asrwt>0</asrwt>
<pdfrwt beam="1">  1       21 0.79782765E-02 0.30000000E+03</pdfrwt>
<pdfrwt beam="2">0</pdfrwt>
<totfact> 0.12835018E+04</totfact>
</mgrwt>
</event>
<event>
 6    1  0.1270461E-001  0.3000000E+03  0.7818608E-02  0.1093470E+00
         21   -1    0    0  501  502  0.00000000000E+00  0.00000000000E+00  0.16356173517E+01  0.16356173517E+01  0.00000000000E+00 0. -1.
         13   -1    0    0    0    0 -0.00000000000E+00 -0.00000000000E+00 -0.10000000000E+04  0.10000000000E+04  0.00000000000E+00 0.  1.
    9000005    2    1    2  501    0  0.75622495750E+01 -0.38562436433E+02 -0.38983076849E+03  0.39183449511E+03  0.46898163218E+01 0.  0.
         13    1    3    3    0    0  0.14113696585E+01 -0.35884338129E+01 -0.51904968781E+02  0.52048002898E+02  0.00000000000E+00 0.  1.
          3    1    3    3  501    0  0.61508799165E+01 -0.34974002620E+02 -0.33792579971E+03  0.33978649221E+03  0.00000000000E+00 0.  1.
         -1    1    1    2    0  502 -0.75622495750E+01  0.38562436433E+02 -0.60853361416E+03  0.60980112224E+03  0.00000000000E+00 0. -1.
<mgrwt>
<rscale>  1 0.30000000E+03</rscale>
<asrwt>0</asrwt>
<pdfrwt beam="1">  1       21 0.59477120E-02 0.30000000E+03</pdfrwt>
<pdfrwt beam="2">0</pdfrwt>
<totfact> 0.21392111E+04</totfact>
</mgrwt>
</event>
<event>
 6    1  0.1270461E-001  0.3000000E+03  0.7818608E-02  0.1093470E+00
         21   -1    0    0  501  502  0.00000000000E+00  0.00000000000E+00  0.20934783616E+01  0.20934783616E+01  0.00000000000E+00 0. -1.
         13   -1    0    0    0    0 -0.00000000000E+00 -0.00000000000E+00 -0.10000000000E+04  0.10000000000E+04  0.00000000000E+00 0.  1.
    9000005    2    1    2  501    0 -0.26094066570E+02  0.16058750001E+02 -0.87079280969E+03  0.87133920682E+03  0.36210726764E+01 0.  0.
         13    1    3    3    0    0 -0.37093070485E+00 -0.19919850801E+00 -0.12929468824E+02  0.12936322264E+02  0.00000000000E+00 0.  1.
          1    1    3    3  501    0 -0.25723135865E+02  0.16257948509E+02 -0.85786334087E+03  0.85840288456E+03  0.00000000000E+00 0.  1.
         -1    1    1    2    0  502  0.26094066570E+02 -0.16058750001E+02 -0.12711371194E+03  0.13075427154E+03  0.00000000000E+00 0. -1.
<mgrwt>
<rscale>  1 0.30000000E+03</rscale>
<asrwt>0</asrwt>
<pdfrwt beam="1">  1       21 0.76126646E-02 0.30000000E+03</pdfrwt>
<pdfrwt beam="2">0</pdfrwt>
<totfact> 0.13935747E+04</totfact>
</mgrwt>
</event>
<event>
 6    1  0.1270461E-001  0.3000000E+03  0.7818608E-02  0.1093470E+00
         21   -1    0    0  501  502  0.00000000000E+00  0.00000000000E+00  0.12398010259E+01  0.12398010259E+01  0.00000000000E+00 0. -1.
         13   -1    0    0    0    0 -0.00000000000E+00 -0.00000000000E+00 -0.10000000000E+04  0.10000000000E+04  0.00000000000E+00 0.  1.
    9000005    2    1    2  501    0 -0.13741353796E+02  0.28086497231E+02 -0.72432617162E+03  0.72503025828E+03  0.65418961771E+01 0.  0.
         13    1    3    3    0    0 -0.70842265875E+01  0.83188686484E+01 -0.28454480197E+03  0.28475451563E+03  0.00000000000E+00 0.  1.
          3    1    3    3  501    0 -0.66571272085E+01  0.19767628583E+02 -0.43978136964E+03  0.44027574265E+03  0.00000000000E+00 0.  1.
         -1    1    1    2    0  502  0.13741353796E+02 -0.28086497231E+02 -0.27443402736E+03  0.27620954274E+03  0.00000000000E+00 0. -1.
<mgrwt>
<rscale>  1 0.30000000E+03</rscale>
<asrwt>0</asrwt>
<pdfrwt beam="1">  1       21 0.45083769E-02 0.30000000E+03</pdfrwt>
<pdfrwt beam="2">0</pdfrwt>
<totfact> 0.34349606E+04</totfact>
</mgrwt>
</event>
<event>
 6    1  0.1270461E-001  0.3000000E+03  0.7818608E-02  0.1093470E+00
         21   -1    0    0  501  502  0.00000000000E+00  0.00000000000E+00  0.12932328989E+01  0.12932328989E+01  0.00000000000E+00 0. -1.
         13   -1    0    0    0    0 -0.00000000000E+00 -0.00000000000E+00 -0.10000000000E+04  0.10000000000E+04  0.00000000000E+00 0.  1.
    9000005    2    1    2  501    0  0.22409762623E+01 -0.32548956517E+02 -0.70860629400E+03  0.70936389035E+03  0.31292966555E+01 0.  0.
         13    1    3    3    0    0  0.88498305771E+00 -0.45222553755E+01 -0.12175048246E+03  0.12183765414E+03  0.00000000000E+00 0.  1.
          3    1    3    3  501    0  0.13559932046E+01 -0.28026701141E+02 -0.58685581154E+03  0.58752623621E+03  0.00000000000E+00 0.  1.
         -1    1    1    2    0  502 -0.22409762623E+01  0.32548956517E+02 -0.29010047311E+03  0.29192934255E+03  0.00000000000E+00 0. -1.
<mgrwt>
<rscale>  1 0.30000000E+03</rscale>
<asrwt>0</asrwt>
<pdfrwt beam="1">  1       21 0.47026750E-02 0.30000000E+03</pdfrwt>
<pdfrwt beam="2">0</pdfrwt>
<totfact> 0.31973386E+04</totfact>
</mgrwt>
</event>
<event>
 6    1  0.1270461E-001  0.3000000E+03  0.7818608E-02  0.1093470E+00
         21   -1    0    0  501  502  0.00000000000E+00  0.00000000000E+00  0.96237329255E+00  0.96237329255E+00  0.00000000000E+00 0. -1.
         13   -1    0    0    0    0 -0.00000000000E+00 -0.00000000000E+00 -0.10000000000E+04  0.10000000000E+04  0.00000000000E+00 0.  1.
    9000005    2    1    2  501    0  0.27972014944E+02 -0.11015724173E+02 -0.37831569052E+03  0.37951285655E+03  0.18619322476E+01 0.  0.
         13    1    3    3    0    0  0.73405202437E+01 -0.37169354485E+01 -0.10734281320E+03  0.10765769081E+03  0.00000000000E+00 0.  1.
          1    1    3    3  501    0  0.20631494700E+02 -0.72987887248E+01 -0.27097287732E+03  0.27185516573E+03  0.00000000000E+00 0.  1.
         -1    1    1    2    0  502 -0.27972014944E+02  0.11015724173E+02 -0.62072193619E+03  0.62144951675E+03  0.00000000000E+00 0. -1.
<mgrwt>
<rscale>  1 0.30000000E+03</rscale>
<asrwt>0</asrwt>
<pdfrwt beam="1">  1       21 0.34995466E-02 0.30000000E+03</pdfrwt>
<pdfrwt beam="2">0</pdfrwt>
<totfact> 0.52628222E+04</totfact>
</mgrwt>
</event>
<event>
 6    1  0.1270461E-001  0.3000000E+03  0.7818608E-02  0.1093470E+00
         21   -1    0    0  501  502  0.00000000000E+00  0.00000000000E+00  0.10429698406E+01  0.10429698406E+01  0.00000000000E+00 0. -1.
         13   -1    0    0    0    0 -0.00000000000E+00 -0.00000000000E+00 -0.10000000000E+04  0.10000000000E+04  0.00000000000E+00 0.  1.
    9000005    2    1    2  501    0  0.82867593955E+01  0.29950423225E+02 -0.62302915575E+03  0.62383286261E+03  0.60343463140E+01 0.  0.
         13    1    3    3    0    0  0.38063038626E+01  0.14203197500E+02 -0.35473164556E+03  0.35503627861E+03  0.00000000000E+00 0.  1.
          1    1    3    3  501    0  0.44804555329E+01  0.15747225725E+02 -0.26829751019E+03  0.26879658400E+03  0.00000000000E+00 0.  1.
         -3    1    1    2    0  502 -0.82867593955E+01 -0.29950423225E+02 -0.37592787441E+03  0.37721010723E+03  0.00000000000E+00 0. -1.
<mgrwt>
<rscale>  1 0.30000000E+03</rscale>
<asrwt>0</asrwt>
<pdfrwt beam="1">  1       21 0.37926256E-02 0.30000000E+03</pdfrwt>
<pdfrwt beam="2">0</pdfrwt>
<totfact> 0.45985915E+04</totfact>
</mgrwt>
</event>
<event>
 6    1  0.1270461E-001  0.3000000E+03  0.7818608E-02  0.1093470E+00
         21   -1    0    0  501  502  0.00000000000E+00  0.00000000000E+00  0.38916938916E+01  0.38916938916E+01  0.00000000000E+00 0. -1.
         13   -1    0    0    0    0 -0.00000000000E+00 -0.00000000000E+00 -0.10000000000E+04  0.10000000000E+04  0.00000000000E+00 0.  1.
    9000005    2    1    2  501    0  0.56141938159E+02  0.58276184930E+01 -0.71091124805E+03  0.71316288506E+03  0.45408887164E+01 0.  0.
         13    1    3    3    0    0  0.38620905488E+02  0.59094838039E+01 -0.47916405651E+03  0.48075429212E+03  0.00000000000E+00 0.  1.
          1    1    3    3  501    0  0.17521032671E+02 -0.81865310887E-01 -0.23174719154E+03  0.23240859294E+03  0.00000000000E+00 0.  1.
         -3    1    1    2    0  502 -0.56141938159E+02 -0.58276184930E+01 -0.28519705806E+03  0.29072880883E+03  0.00000000000E+00 0. -1.
<mgrwt>
<rscale>  1 0.30000000E+03</rscale>
<asrwt>0</asrwt>
<pdfrwt beam="1">  1       21 0.14151644E-01 0.30000000E+03</pdfrwt>
<pdfrwt beam="2">0</pdfrwt>
<totfact> 0.45849679E+03</totfact>
</mgrwt>
</event>
<event>
 6    1  0.1270461E-001  0.3000000E+03  0.7818608E-02  0.1093470E+00
         21   -1    0    0  501  502  0.00000000000E+00  0.00000000000E+00  0.23256555299E+01  0.23256555299E+01  0.00000000000E+00 0. -1.
         13   -1    0    0    0    0 -0.00000000000E+00 -0.00000000000E+00 -0.10000000000E+04  0.10000000000E+04  0.00000000000E+00 0.  1.
    9000005    2    1    2  501    0 -0.23533288241E+02  0.19906167829E+02 -0.88419752089E+03  0.88473713287E+03  0.21135623404E+01 0.  0.
         13    1    3    3    0    0 -0.14166741292E+02  0.11866256954E+02 -0.50014723410E+03  0.50048852174E+03  0.00000000000E+00 0.  1.
          1    1    3    3  501    0 -0.93665469495E+01  0.80399108758E+01 -0.38405028679E+03  0.38424861113E+03  0.00000000000E+00 0.  1.
         -3    1    1    2    0  502  0.23533288241E+02 -0.19906167829E+02 -0.11347682358E+03  0.11758852266E+03  0.00000000000E+00 0. -1.
<mgrwt>
<rscale>  1 0.30000000E+03</rscale>
<asrwt>0</asrwt>
<pdfrwt beam="1">  1       21 0.84569470E-02 0.30000000E+03</pdfrwt>
<pdfrwt beam="2">0</pdfrwt>
<totfact> 0.11584511E+04</totfact>
</mgrwt>
</event>
<event>
 6    1  0.1270461E-001  0.3000000E+03  0.7818608E-02  0.1093470E+00
         21   -1    0    0  501  502  0.00000000000E+00  0.00000000000E+00  0.31474668918E+01  0.31474668918E+01  0.00000000000E+00 0. -1.
         13   -1    0    0    0    0 -0.00000000000E+00 -0.00000000000E+00 -0.10000000000E+04  0.10000000000E+04  0.00000000000E+00 0.  1.
    9000005    2    1    2  501    0  0.36011012548E+02  0.22841628400E+02 -0.17454271065E+03  0.17973264001E+03  0.44867618909E+01 0.  0.
         13    1    3    3    0    0  0.24777109654E+02  0.13229865941E+02 -0.11588573839E+03  0.11924109559E+03  0.00000000000E+00 0.  1.
          3    1    3    3  501    0  0.11233902894E+02  0.96117624588E+01 -0.58656972256E+02  0.60491544418E+02  0.00000000000E+00 0.  1.
         -3    1    1    2    0  502 -0.36011012548E+02 -0.22841628400E+02 -0.82230982246E+03  0.82341482688E+03  0.00000000000E+00 0. -1.
<mgrwt>
<rscale>  1 0.30000000E+03</rscale>
<asrwt>0</asrwt>
<pdfrwt beam="1">  1       21 0.11445358E-01 0.30000000E+03</pdfrwt>
<pdfrwt beam="2">0</pdfrwt>
<totfact> 0.67513818E+03</totfact>
</mgrwt>
</event>
<event>
 6    1  0.1270461E-001  0.3000000E+03  0.7818608E-02  0.1093470E+00
         21   -1    0    0  501  502  0.00000000000E+00  0.00000000000E+00  0.20311174025E+01  0.20311174025E+01  0.00000000000E+00 0. -1.
         13   -1    0    0    0    0 -0.00000000000E+00 -0.00000000000E+00 -0.10000000000E+04  0.10000000000E+04  0.00000000000E+00 0.  1.
    9000005    2    1    2  501    0  0.28558494923E+02  0.34716738158E+02 -0.50049533645E+03  0.50253059823E+03  0.45366072288E+01 0.  0.
         13    1    3    3    0    0  0.14847676660E+02  0.18710925302E+02 -0.24099765091E+03  0.24217848784E+03  0.00000000000E+00 0.  1.
          1    1    3    3  501    0  0.13710818263E+02  0.16005812855E+02 -0.25949768554E+03  0.26035211039E+03  0.00000000000E+00 0.  1.
         -1    1    1    2    0  502 -0.28558494923E+02 -0.34716738158E+02 -0.49747354615E+03  0.49950051918E+03  0.00000000000E+00 0. -1.
<mgrwt>
<rscale>  1 0.30000000E+03</rscale>
<asrwt>0</asrwt>
<pdfrwt beam="1">  1       21 0.73858970E-02 0.30000000E+03</pdfrwt>
<pdfrwt beam="2">0</pdfrwt>
<totfact> 0.14693428E+04</totfact>
</mgrwt>
</event>
<event>
 6    1  0.1270461E-001  0.3000000E+03  0.7818608E-02  0.1093470E+00
         21   -1    0    0  501  502  0.00000000000E+00  0.00000000000E+00  0.54345253714E+01  0.54345253714E+01  0.00000000000E+00 0. -1.
         13   -1    0    0    0    0 -0.00000000000E+00 -0.00000000000E+00 -0.10000000000E+04  0.10000000000E+04  0.00000000000E+00 0.  1.
    9000005    2    1    2  501    0  0.47398951459E+02  0.46224067966E+02 -0.27681967741E+03  0.28464166020E+03  0.29010102704E+01 0.  0.
         13    1    3    3    0    0  0.43093984681E+02  0.41448414110E+02 -0.24654047073E+03  0.25368733956E+03  0.00000000000E+00 0.  1.
          3    1    3    3  501    0  0.43049667779E+01  0.47756538564E+01 -0.30279206680E+02  0.30954320634E+02  0.00000000000E+00 0.  1.
         -3    1    1    2    0  502 -0.47398951459E+02 -0.46224067966E+02 -0.71774579722E+03  0.72079286517E+03  0.00000000000E+00 0. -1.
<mgrwt>
<rscale>  1 0.30000000E+03</rscale>
<asrwt>0</asrwt>
<pdfrwt beam="1">  1       21 0.19761952E-01 0.30000000E+03</pdfrwt>
<pdfrwt beam="2">0</pdfrwt>
<totfact> 0.24546450E+03</totfact>
</mgrwt>
</event>
<event>
 6    1  0.1270461E-001  0.3000000E+03  0.7818608E-02  0.1093470E+00
         21   -1    0    0  501  502  0.00000000000E+00  0.00000000000E+00  0.14060702818E+01  0.14060702818E+01  0.00000000000E+00 0. -1.
         13   -1    0    0    0    0 -0.00000000000E+00 -0.00000000000E+00 -0.10000000000E+04  0.10000000000E+04  0.00000000000E+00 0.  1.
    9000005    2    1    2  501    0  0.33404252458E+02  0.12449918694E+02 -0.65324081709E+03  0.65421791242E+03  0.25821038786E+01 0.  0.
         13    1    3    3    0    0  0.25024921998E+02  0.88636263012E+01 -0.46654409212E+03  0.46729883424E+03  0.00000000000E+00 0.  1.
          1    1    3    3  501    0  0.83793304596E+01  0.35862923929E+01 -0.18669672497E+03  0.18691907817E+03  0.00000000000E+00 0.  1.
         -3    1    1    2    0  502 -0.33404252458E+02 -0.12449918694E+02 -0.34535311263E+03  0.34718815786E+03  0.00000000000E+00 0. -1.
<mgrwt>
<rscale>  1 0.30000000E+03</rscale>
<asrwt>0</asrwt>
<pdfrwt beam="1">  1       21 0.51129936E-02 0.30000000E+03</pdfrwt>
<pdfrwt beam="2">0</pdfrwt>
<totfact> 0.27727357E+04</totfact>
</mgrwt>
</event>
<event>
 6    1  0.1270461E-001  0.3000000E+03  0.7818608E-02  0.1093470E+00
         21   -1    0    0  501  502  0.00000000000E+00  0.00000000000E+00  0.89868170714E+01  0.89868170714E+01  0.00000000000E+00 0. -1.
         13   -1    0    0    0    0 -0.00000000000E+00 -0.00000000000E+00 -0.10000000000E+04  0.10000000000E+04  0.00000000000E+00 0.  1.
    9000005    2    1    2  501    0  0.58212111593E+02  0.18219732513E+02 -0.88162271621E+03  0.88373953048E+03  0.40417090669E+01 0.  0.
         13    1    3    3    0    0  0.56846458016E+02  0.18319421383E+02 -0.85686053517E+03  0.85893951924E+03  0.00000000000E+00 0.  1.
          3    1    3    3  501    0  0.13656535770E+01 -0.99688870142E-01 -0.24762181039E+02  0.24800011238E+02  0.00000000000E+00 0.  1.
         -1    1    1    2    0  502 -0.58212111593E+02 -0.18219732513E+02 -0.10939046672E+03  0.12524728659E+03  0.00000000000E+00 0. -1.
<mgrwt>
<rscale>  1 0.30000000E+03</rscale>
<asrwt>0</asrwt>
<pdfrwt beam="1">  1       21 0.32679404E-01 0.30000000E+03</pdfrwt>
<pdfrwt beam="2">0</pdfrwt>
<totfact> 0.91518606E+02</totfact>
</mgrwt>
</event>
<event>
 6    1  0.1270461E-001  0.3000000E+03  0.7818608E-02  0.1093470E+00
         21   -1    0    0  501  502  0.00000000000E+00  0.00000000000E+00  0.22424386186E+01  0.22424386186E+01  0.00000000000E+00 0. -1.
         13   -1    0    0    0    0 -0.00000000000E+00 -0.00000000000E+00 -0.10000000000E+04  0.10000000000E+04  0.00000000000E+00 0.  1.
    9000005    2    1    2  501    0  0.17224031232E+02 -0.36060028563E+02 -0.76730214534E+03  0.76834782198E+03  0.29665433164E+01 0.  0.
         13    1    3    3    0    0  0.10537877186E+02 -0.24365178639E+02 -0.52763976389E+03  0.52830713531E+03  0.00000000000E+00 0.  1.
          1    1    3    3  501    0  0.66861540456E+01 -0.11694849924E+02 -0.23966238145E+03  0.24004068666E+03  0.00000000000E+00 0.  1.
         -3    1    1    2    0  502 -0.17224031232E+02  0.36060028563E+02 -0.23045541604E+03  0.23389461664E+03  0.00000000000E+00 0. -1.
<mgrwt>
<rscale>  1 0.30000000E+03</rscale>
<asrwt>0</asrwt>
<pdfrwt beam="1">  1       21 0.81543394E-02 0.30000000E+03</pdfrwt>
<pdfrwt beam="2">0</pdfrwt>
<totfact> 0.12352015E+04</totfact>
</mgrwt>
</event>
<event>
 6    1  0.1270461E-001  0.3000000E+03  0.7818608E-02  0.1093470E+00
         21   -1    0    0  501  502  0.00000000000E+00  0.00000000000E+00  0.42545912419E+01  0.42545912419E+01  0.00000000000E+00 0. -1.
         13   -1    0    0    0    0 -0.00000000000E+00 -0.00000000000E+00 -0.10000000000E+04  0.10000000000E+04  0.00000000000E+00 0.  1.
    9000005    2    1    2  501    0  0.27677792241E+01 -0.40142995862E+02 -0.89300029061E+03  0.89391112736E+03  0.29092724119E+01 0.  0.
         13    1    3    3    0    0 -0.36013431739E+00 -0.11098501339E+02 -0.23173186756E+03  0.23199776911E+03  0.00000000000E+00 0.  1.
          1    1    3    3  501    0  0.31279135414E+01 -0.29044494523E+02 -0.66126842305E+03  0.66191335825E+03  0.00000000000E+00 0.  1.
         -3    1    1    2    0  502 -0.27677792241E+01  0.40142995862E+02 -0.10274511814E+03  0.11034346388E+03  0.00000000000E+00 0. -1.
<mgrwt>
<rscale>  1 0.30000000E+03</rscale>
<asrwt>0</asrwt>
<pdfrwt beam="1">  1       21 0.15471274E-01 0.30000000E+03</pdfrwt>
<pdfrwt beam="2">0</pdfrwt>
<totfact> 0.38884456E+03</totfact>
</mgrwt>
</event>
<event>
 6    1  0.1270461E-001  0.3000000E+03  0.7818608E-02  0.1093470E+00
         21   -1    0    0  501  502  0.00000000000E+00  0.00000000000E+00  0.16439106163E+01  0.16439106163E+01  0.00000000000E+00 0. -1.
         13   -1    0    0    0    0 -0.00000000000E+00 -0.00000000000E+00 -0.10000000000E+04  0.10000000000E+04  0.00000000000E+00 0.  1.
    9000005    2    1    2  501    0  0.34196870614E+02  0.12760009712E+02 -0.71595720039E+03  0.71689599348E+03  0.35928919141E+01 0.  0.
         13    1    3    3    0    0  0.31238696758E+02  0.10934440453E+02 -0.66211781200E+03  0.66294450381E+03  0.00000000000E+00 0.  1.
          3    1    3    3  501    0  0.29581738555E+01  0.18255692592E+01 -0.53839388391E+02  0.53951489673E+02  0.00000000000E+00 0.  1.
         -3    1    1    2    0  502 -0.34196870614E+02 -0.12760009712E+02 -0.28239888899E+03  0.28474791714E+03  0.00000000000E+00 0. -1.
<mgrwt>
<rscale>  1 0.30000000E+03</rscale>
<asrwt>0</asrwt>
<pdfrwt beam="1">  1       21 0.59778694E-02 0.30000000E+03</pdfrwt>
<pdfrwt beam="2">0</pdfrwt>
<totfact> 0.21206374E+04</totfact>
</mgrwt>
</event>
<event>
 6    1  0.1270461E-001  0.3000000E+03  0.7818608E-02  0.1093470E+00
         21   -1    0    0  501  502  0.00000000000E+00  0.00000000000E+00  0.20922544126E+01  0.20922544126E+01  0.00000000000E+00 0. -1.
         13   -1    0    0    0    0 -0.00000000000E+00 -0.00000000000E+00 -0.10000000000E+04  0.10000000000E+04  0.00000000000E+00 0.  1.
    9000005    2    1    2  501    0  0.37459139649E+02 -0.79226396689E+01 -0.77252449854E+03  0.77347999881E+03  0.33544523098E+01 0.  0.
         13    1    3    3    0    0  0.15857566910E+02 -0.37823248241E+01 -0.29696113189E+03  0.29740827537E+03  0.00000000000E+00 0.  1.
          3    1    3    3  501    0  0.21601572739E+02 -0.41403148448E+01 -0.47556336666E+03  0.47607172344E+03  0.00000000000E+00 0.  1.
         -3    1    1    2    0  502 -0.37459139649E+02  0.79226396689E+01 -0.22538324704E+03  0.22861225560E+03  0.00000000000E+00 0. -1.
<mgrwt>
<rscale>  1 0.30000000E+03</rscale>
<asrwt>0</asrwt>
<pdfrwt beam="1">  1       21 0.76082139E-02 0.30000000E+03</pdfrwt>
<pdfrwt beam="2">0</pdfrwt>
<totfact> 0.13950033E+04</totfact>
</mgrwt>
</event>
<event>
 6    1  0.1270461E-001  0.3000000E+03  0.7818608E-02  0.1093470E+00
         21   -1    0    0  501  502  0.00000000000E+00  0.00000000000E+00  0.35161337644E+01  0.35161337644E+01  0.00000000000E+00 0. -1.
         13   -1    0    0    0    0 -0.00000000000E+00 -0.00000000000E+00 -0.10000000000E+04  0.10000000000E+04  0.00000000000E+00 0.  1.
    9000005    2    1    2  501    0 -0.19113935234E+02  0.29671664629E+02 -0.90133988853E+03  0.90203644764E+03  0.32261456887E+01 0.  0.
         13    1    3    3    0    0 -0.18028510566E+02  0.27187582236E+02 -0.84883577851E+03  0.84946240100E+03  0.00000000000E+00 0.  1.
          3    1    3    3  501    0 -0.10854246685E+01  0.24840823934E+01 -0.52504110017E+02  0.52574046646E+02  0.00000000000E+00 0.  1.
         -1    1    1    2    0  502  0.19113935234E+02 -0.29671664629E+02 -0.95143977706E+02  0.10147968612E+03  0.00000000000E+00 0. -1.
<mgrwt>
<rscale>  1 0.30000000E+03</rscale>
<asrwt>0</asrwt>
<pdfrwt beam="1">  1       21 0.12785968E-01 0.30000000E+03</pdfrwt>
<pdfrwt beam="2">0</pdfrwt>
<totfact> 0.55213011E+03</totfact>
</mgrwt>
</event>
<event>
 6    1  0.1270461E-001  0.3000000E+03  0.7818608E-02  0.1093470E+00
         21   -1    0    0  501  502  0.00000000000E+00  0.00000000000E+00  0.26594833828E+01  0.26594833828E+01  0.00000000000E+00 0. -1.
         13   -1    0    0    0    0 -0.00000000000E+00 -0.00000000000E+00 -0.10000000000E+04  0.10000000000E+04  0.00000000000E+00 0.  1.
    9000005    2    1    2  501    0 -0.19246365394E+02  0.29090996476E+02 -0.86773154135E+03  0.86843878778E+03  0.33453878414E+01 0.  0.
         13    1    3    3    0    0 -0.70113401129E+00  0.25102823997E+00 -0.15859663952E+02  0.15877139061E+02  0.00000000000E+00 0.  1.
          3    1    3    3  501    0 -0.18545231383E+02  0.28839968236E+02 -0.85187187739E+03  0.85256164872E+03  0.00000000000E+00 0.  1.
         -1    1    1    2    0  502  0.19246365394E+02 -0.29090996476E+02 -0.12960897527E+03  0.13422069560E+03  0.00000000000E+00 0. -1.
<mgrwt>
<rscale>  1 0.30000000E+03</rscale>
<asrwt>0</asrwt>
<pdfrwt beam="1">  1       21 0.96708691E-02 0.30000000E+03</pdfrwt>
<pdfrwt beam="2">0</pdfrwt>
<totfact> 0.91328419E+03</totfact>
</mgrwt>
</event>
<event>
 6    1  0.1270461E-001  0.3000000E+03  0.7818608E-02  0.1093470E+00
         21   -1    0    0  501  502  0.00000000000E+00  0.00000000000E+00  0.16513592460E+01  0.16513592460E+01  0.00000000000E+00 0. -1.
         13   -1    0    0    0    0 -0.00000000000E+00 -0.00000000000E+00 -0.10000000000E+04  0.10000000000E+04  0.00000000000E+00 0.  1.
    9000005    2    1    2  501    0  0.15831756353E+02  0.26822172171E+02 -0.82042842200E+03  0.82102556466E+03  0.31794286801E+01 0.  0.
         13    1    3    3    0    0  0.13649867181E+02  0.20631845837E+02 -0.64187679045E+03  0.64235333428E+03  0.00000000000E+00 0.  1.
          3    1    3    3  501    0  0.21818891718E+01  0.61903263339E+01 -0.17855163155E+03  0.17867223038E+03  0.00000000000E+00 0.  1.
         -1    1    1    2    0  502 -0.15831756353E+02 -0.26822172171E+02 -0.17792021875E+03  0.18062579459E+03  0.00000000000E+00 0. -1.
<mgrwt>
<rscale>  1 0.30000000E+03</rscale>
<asrwt>0</asrwt>
<pdfrwt beam="1">  1       21 0.60049554E-02 0.30000000E+03</pdfrwt>
<pdfrwt beam="2">0</pdfrwt>
<totfact> 0.21041685E+04</totfact>
</mgrwt>
</event>
<event>
 6    1  0.1270461E-001  0.3000000E+03  0.7818608E-02  0.1093470E+00
         21   -1    0    0  501  502  0.00000000000E+00  0.00000000000E+00  0.10485409073E+01  0.10485409073E+01  0.00000000000E+00 0. -1.
         13   -1    0    0    0    0 -0.00000000000E+00 -0.00000000000E+00 -0.10000000000E+04  0.10000000000E+04  0.00000000000E+00 0.  1.
    9000005    2    1    2  501    0 -0.35999260515E+01  0.30917559196E+02 -0.38012760286E+03  0.38144235955E+03  0.56942311383E+01 0.  0.
         13    1    3    3    0    0  0.20128218807E+00  0.21215706717E+02 -0.25850556140E+03  0.25937477133E+03  0.00000000000E+00 0.  1.
          3    1    3    3  501    0 -0.38012082396E+01  0.97018524796E+01 -0.12162204146E+03  0.12206758822E+03  0.00000000000E+00 0.  1.
         -3    1    1    2    0  502  0.35999260515E+01 -0.30917559196E+02 -0.61882385623E+03  0.61960618136E+03  0.00000000000E+00 0. -1.
<mgrwt>
<rscale>  1 0.30000000E+03</rscale>
<asrwt>0</asrwt>
<pdfrwt beam="1">  1       21 0.38128841E-02 0.30000000E+03</pdfrwt>
<pdfrwt beam="2">0</pdfrwt>
<totfact> 0.45576135E+04</totfact>
</mgrwt>
</event>
<event>
 6    1  0.1270461E-001  0.3000000E+03  0.7818608E-02  0.1093470E+00
         21   -1    0    0  501  502  0.00000000000E+00  0.00000000000E+00  0.49203329822E+01  0.49203329822E+01  0.00000000000E+00 0. -1.
         13   -1    0    0    0    0 -0.00000000000E+00 -0.00000000000E+00 -0.10000000000E+04  0.10000000000E+04  0.00000000000E+00 0.  1.
    9000005    2    1    2  501    0  0.24385584381E+02  0.19989515324E+02 -0.94633745430E+03  0.94686828092E+03  0.32751402795E+01 0.  0.
         13    1    3    3    0    0  0.21993255611E+02  0.19034432282E+02 -0.85551175718E+03  0.85600606282E+03  0.00000000000E+00 0.  1.
          1    1    3    3  501    0  0.23923287697E+01  0.95508304111E+00 -0.90825697120E+02  0.90862218100E+02  0.00000000000E+00 0.  1.
         -3    1    1    2    0  502 -0.24385584381E+02 -0.19989515324E+02 -0.48742212713E+02  0.58052052062E+02  0.00000000000E+00 0. -1.
<mgrwt>
<rscale>  1 0.30000000E+03</rscale>
<asrwt>0</asrwt>
<pdfrwt beam="1">  1       21 0.17892158E-01 0.30000000E+03</pdfrwt>
<pdfrwt beam="2">0</pdfrwt>
<totfact> 0.29628863E+03</totfact>
</mgrwt>
</event>
<event>
 6    1  0.1270461E-001  0.3000000E+03  0.7818608E-02  0.1093470E+00
         21   -1    0    0  501  502  0.00000000000E+00  0.00000000000E+00  0.41896721948E+01  0.41896721948E+01  0.00000000000E+00 0. -1.
         13   -1    0    0    0    0 -0.00000000000E+00 -0.00000000000E+00 -0.10000000000E+04  0.10000000000E+04  0.00000000000E+00 0.  1.
    9000005    2    1    2  501    0  0.39832722223E+02  0.20010762866E+02 -0.86101749486E+03  0.86221719528E+03  0.89604116610E+01 0.  0.
         13    1    3    3    0    0  0.12525096823E+02  0.36253520556E+01 -0.31735841995E+03  0.31762617641E+03  0.00000000000E+00 0.  1.
          1    1    3    3  501    0  0.27307625401E+02  0.16385410811E+02 -0.54365907491E+03  0.54459101886E+03  0.00000000000E+00 0.  1.
         -3    1    1    2    0  502 -0.39832722223E+02 -0.20010762866E+02 -0.13479283294E+03  0.14197247692E+03  0.00000000000E+00 0. -1.
<mgrwt>
<rscale>  1 0.30000000E+03</rscale>
<asrwt>0</asrwt>
<pdfrwt beam="1">  1       21 0.15235204E-01 0.30000000E+03</pdfrwt>
<pdfrwt beam="2">0</pdfrwt>
<totfact> 0.40010300E+03</totfact>
</mgrwt>
</event>
<event>
 6    1  0.1270461E-001  0.3000000E+03  0.7818608E-02  0.1093470E+00
         21   -1    0    0  501  502  0.00000000000E+00  0.00000000000E+00  0.10809142310E+01  0.10809142310E+01  0.00000000000E+00 0. -1.
         13   -1    0    0    0    0 -0.00000000000E+00 -0.00000000000E+00 -0.10000000000E+04  0.10000000000E+04  0.00000000000E+00 0.  1.
    9000005    2    1    2  501    0  0.27327029410E+02  0.13252950744E+02 -0.68909663927E+03  0.68977342060E+03  0.32842449862E+01 0.  0.
         13    1    3    3    0    0  0.25973058310E+02  0.12808261042E+02 -0.66887958390E+03  0.66950619793E+03  0.00000000000E+00 0.  1.
          3    1    3    3  501    0  0.13539711003E+01  0.44468970213E+00 -0.20217055379E+02  0.20267222673E+02  0.00000000000E+00 0.  1.
         -1    1    1    2    0  502 -0.27327029410E+02 -0.13252950744E+02 -0.30982244649E+03  0.31130749363E+03  0.00000000000E+00 0. -1.
<mgrwt>
<rscale>  1 0.30000000E+03</rscale>
<asrwt>0</asrwt>
<pdfrwt beam="1">  1       21 0.39306055E-02 0.30000000E+03</pdfrwt>
<pdfrwt beam="2">0</pdfrwt>
<totfact> 0.43304436E+04</totfact>
</mgrwt>
</event>
<event>
 6    1  0.1270461E-001  0.3000000E+03  0.7818608E-02  0.1093470E+00
         21   -1    0    0  501  502  0.00000000000E+00  0.00000000000E+00  0.58854764205E+01  0.58854764205E+01  0.00000000000E+00 0. -1.
         13   -1    0    0    0    0 -0.00000000000E+00 -0.00000000000E+00 -0.10000000000E+04  0.10000000000E+04  0.00000000000E+00 0.  1.
    9000005    2    1    2  501    0  0.11309693155E+02  0.52177348604E+02 -0.85811908616E+03  0.85978570275E+03  0.35642335510E+01 0.  0.
         13    1    3    3    0    0  0.10182629859E+02  0.41341595980E+02 -0.67015004187E+03  0.67150122273E+03  0.00000000000E+00 0.  1.
          1    1    3    3  501    0  0.11270632967E+01  0.10835752624E+02 -0.18796904428E+03  0.18828448002E+03  0.00000000000E+00 0.  1.
         -1    1    1    2    0  502 -0.11309693155E+02 -0.52177348604E+02 -0.13599543742E+03  0.14609977367E+03  0.00000000000E+00 0. -1.
<mgrwt>
<rscale>  1 0.30000000E+03</rscale>
<asrwt>0</asrwt>
<pdfrwt beam="1">  1       21 0.21401778E-01 0.30000000E+03</pdfrwt>
<pdfrwt beam="2">0</pdfrwt>
<totfact> 0.21073906E+03</totfact>
</mgrwt>
</event>
<event>
 6    1  0.1270461E-001  0.3000000E+03  0.7818608E-02  0.1093470E+00
         21   -1    0    0  501  502  0.00000000000E+00  0.00000000000E+00  0.23107272522E+01  0.23107272522E+01  0.00000000000E+00 0. -1.
         13   -1    0    0    0    0 -0.00000000000E+00 -0.00000000000E+00 -0.10000000000E+04  0.10000000000E+04  0.00000000000E+00 0.  1.
    9000005    2    1    2  501    0  0.28344304095E+02 -0.38605438821E+02 -0.53196450485E+03  0.53412984456E+03  0.38310511015E+01 0.  0.
         13    1    3    3    0    0  0.25702583024E+02 -0.33233564632E+02 -0.45740668847E+03  0.45933209255E+03  0.00000000000E+00 0.  1.
          1    1    3    3  501    0  0.26417210715E+01 -0.53718741894E+01 -0.74557816385E+02  0.74797752016E+02  0.00000000000E+00 0.  1.
         -1    1    1    2    0  502 -0.28344304095E+02  0.38605438821E+02 -0.46572476790E+03  0.46818088269E+03  0.00000000000E+00 0. -1.
<mgrwt>
<rscale>  1 0.30000000E+03</rscale>
<asrwt>0</asrwt>
<pdfrwt beam="1">  1       21 0.84026623E-02 0.30000000E+03</pdfrwt>
<pdfrwt beam="2">0</pdfrwt>
<totfact> 0.11716729E+04</totfact>
</mgrwt>
</event>
<event>
 6    1  0.1270461E-001  0.3000000E+03  0.7818608E-02  0.1093470E+00
         21   -1    0    0  501  502  0.00000000000E+00  0.00000000000E+00  0.10111573875E+01  0.10111573875E+01  0.00000000000E+00 0. -1.
         13   -1    0    0    0    0 -0.00000000000E+00 -0.00000000000E+00 -0.10000000000E+04  0.10000000000E+04  0.00000000000E+00 0.  1.
    9000005    2    1    2  501    0 -0.28398428474E+02  0.12618611772E+02 -0.59814155989E+03  0.59896110557E+03  0.39217612931E+01 0.  0.
         13    1    3    3    0    0 -0.12672326893E+02  0.76530240727E+01 -0.27059726920E+03  0.27100191649E+03  0.00000000000E+00 0.  1.
          3    1    3    3  501    0 -0.15726101581E+02  0.49655876991E+01 -0.32754429069E+03  0.32795918907E+03  0.00000000000E+00 0.  1.
         -3    1    1    2    0  502  0.28398428474E+02 -0.12618611772E+02 -0.40084728272E+03  0.40205005182E+03  0.00000000000E+00 0. -1.
<mgrwt>
<rscale>  1 0.30000000E+03</rscale>
<asrwt>0</asrwt>
<pdfrwt beam="1">  1       21 0.36769437E-02 0.30000000E+03</pdfrwt>
<pdfrwt beam="2">0</pdfrwt>
<totfact> 0.48440966E+04</totfact>
</mgrwt>
</event>
<event>
 6    1  0.1270461E-001  0.3000000E+03  0.7818608E-02  0.1093470E+00
         21   -1    0    0  501  502  0.00000000000E+00  0.00000000000E+00  0.23060699160E+01  0.23060699160E+01  0.00000000000E+00 0. -1.
         13   -1    0    0    0    0 -0.00000000000E+00 -0.00000000000E+00 -0.10000000000E+04  0.10000000000E+04  0.00000000000E+00 0.  1.
    9000005    2    1    2  501    0  0.98487439389E+01 -0.37019364736E+02 -0.80064717004E+03  0.80157028146E+03  0.34050119458E+01 0.  0.
         13    1    3    3    0    0  0.67716959322E+01 -0.20606992138E+02 -0.47593854582E+03  0.47643258010E+03  0.00000000000E+00 0.  1.
          1    1    3    3  501    0  0.30770480067E+01 -0.16412372598E+02 -0.32470862422E+03  0.32513770136E+03  0.00000000000E+00 0.  1.
         -3    1    1    2    0  502 -0.98487439389E+01  0.37019364736E+02 -0.19704676004E+03  0.20073578845E+03  0.00000000000E+00 0. -1.
<mgrwt>
<rscale>  1 0.30000000E+03</rscale>
<asrwt>0</asrwt>
<pdfrwt beam="1">  1       21 0.83857265E-02 0.30000000E+03</pdfrwt>
<pdfrwt beam="2">0</pdfrwt>
<totfact> 0.11758450E+04</totfact>
</mgrwt>
</event>
<event>
 6    1  0.1270461E-001  0.3000000E+03  0.7818608E-02  0.1093470E+00
         21   -1    0    0  501  502  0.00000000000E+00  0.00000000000E+00  0.36674673846E+01  0.36674673846E+01  0.00000000000E+00 0. -1.
         13   -1    0    0    0    0 -0.00000000000E+00 -0.00000000000E+00 -0.10000000000E+04  0.10000000000E+04  0.00000000000E+00 0.  1.
    9000005    2    1    2  501    0 -0.28742812039E+02 -0.25814648111E+02 -0.88447775484E+03  0.88532881515E+03  0.36968677598E+01 0.  0.
         13    1    3    3    0    0 -0.43701001744E+01 -0.58622331765E+01 -0.16687032356E+03  0.16703044166E+03  0.00000000000E+00 0.  1.
          1    1    3    3  501    0 -0.24372711865E+02 -0.19952414934E+02 -0.71760743127E+03  0.71829837349E+03  0.00000000000E+00 0.  1.
         -3    1    1    2    0  502  0.28742812039E+02  0.25814648111E+02 -0.11185477778E+03  0.11833865224E+03  0.00000000000E+00 0. -1.
<mgrwt>
<rscale>  1 0.30000000E+03</rscale>
<asrwt>0</asrwt>
<pdfrwt beam="1">  1       21 0.13336273E-01 0.30000000E+03</pdfrwt>
<pdfrwt beam="2">0</pdfrwt>
<totfact> 0.51122245E+03</totfact>
</mgrwt>
</event>
<event>
 6    1  0.1270461E-001  0.3000000E+03  0.7818608E-02  0.1093470E+00
         21   -1    0    0  501  502  0.00000000000E+00  0.00000000000E+00  0.40711964637E+01  0.40711964637E+01  0.00000000000E+00 0. -1.
         13   -1    0    0    0    0 -0.00000000000E+00 -0.00000000000E+00 -0.10000000000E+04  0.10000000000E+04  0.00000000000E+00 0.  1.
    9000005    2    1    2  501    0 -0.50702914559E+02  0.37521485228E+00 -0.80254662055E+03  0.80415222531E+03  0.29659707117E+01 0.  0.
         13    1    3    3    0    0 -0.42127668252E+02  0.97153432506E+00 -0.68017870858E+03  0.68148276568E+03  0.00000000000E+00 0.  1.
          1    1    3    3  501    0 -0.85752463075E+01 -0.59631947278E+00 -0.12236791197E+03  0.12266945963E+03  0.00000000000E+00 0.  1.
         -3    1    1    2    0  502  0.50702914559E+02 -0.37521485228E+00 -0.19338218298E+03  0.19991897115E+03  0.00000000000E+00 0. -1.
<mgrwt>
<rscale>  1 0.30000000E+03</rscale>
<asrwt>0</asrwt>
<pdfrwt beam="1">  1       21 0.14804382E-01 0.30000000E+03</pdfrwt>
<pdfrwt beam="2">0</pdfrwt>
<totfact> 0.42192363E+03</totfact>
</mgrwt>
</event>
<event>
 6    1  0.1270461E-001  0.3000000E+03  0.7818608E-02  0.1093470E+00
         21   -1    0    0  501  502  0.00000000000E+00  0.00000000000E+00  0.27470115148E+01  0.27470115148E+01  0.00000000000E+00 0. -1.
         13   -1    0    0    0    0 -0.00000000000E+00 -0.00000000000E+00 -0.10000000000E+04  0.10000000000E+04  0.00000000000E+00 0.  1.
    9000005    2    1    2  501    0 -0.14946907032E+02 -0.49770731633E+02 -0.43787722987E+03  0.44096255544E+03  0.33122662059E+01 0.  0.
         13    1    3    3    0    0 -0.13464716669E+02 -0.46924806626E+02 -0.41496004612E+03  0.41782182321E+03  0.00000000000E+00 0.  1.
          1    1    3    3  501    0 -0.14821903629E+01 -0.28459250070E+01 -0.22917183747E+02  0.23140732233E+02  0.00000000000E+00 0.  1.
         -1    1    1    2    0  502  0.14946907032E+02  0.49770731633E+02 -0.55937575862E+03  0.56178445607E+03  0.00000000000E+00 0. -1.
<mgrwt>
<rscale>  1 0.30000000E+03</rscale>
<asrwt>0</asrwt>
<pdfrwt beam="1">  1       21 0.99891538E-02 0.30000000E+03</pdfrwt>
<pdfrwt beam="2">0</pdfrwt>
<totfact> 0.86198956E+03</totfact>
</mgrwt>
</event>
<event>
 6    1  0.1270461E-001  0.3000000E+03  0.7818608E-02  0.1093470E+00
         21   -1    0    0  501  502  0.00000000000E+00  0.00000000000E+00  0.30343962158E+01  0.30343962158E+01  0.00000000000E+00 0. -1.
         13   -1    0    0    0    0 -0.00000000000E+00 -0.00000000000E+00 -0.10000000000E+04  0.10000000000E+04  0.00000000000E+00 0.  1.
    9000005    2    1    2  501    0  0.83775011925E+01  0.44704501027E+02 -0.78070955476E+03  0.78204717107E+03  0.46576760421E+01 0.  0.
         13    1    3    3    0    0  0.14058719440E+01  0.10021284391E+02 -0.14352989007E+03  0.14388617710E+03  0.00000000000E+00 0.  1.
          1    1    3    3  501    0  0.69716292484E+01  0.34683216635E+02 -0.63717966469E+03  0.63816099397E+03  0.00000000000E+00 0.  1.
         -1    1    1    2    0  502 -0.83775011925E+01 -0.44704501027E+02 -0.21625604903E+03  0.22098722515E+03  0.00000000000E+00 0. -1.
<mgrwt>
<rscale>  1 0.30000000E+03</rscale>
<asrwt>0</asrwt>
<pdfrwt beam="1">  1       21 0.11034191E-01 0.30000000E+03</pdfrwt>
<pdfrwt beam="2">0</pdfrwt>
<totfact> 0.72116380E+03</totfact>
</mgrwt>
</event>
<event>
 6    1  0.1270461E-001  0.3000000E+03  0.7818608E-02  0.1093470E+00
         21   -1    0    0  501  502  0.00000000000E+00  0.00000000000E+00  0.53925285394E+01  0.53925285394E+01  0.00000000000E+00 0. -1.
         13   -1    0    0    0    0 -0.00000000000E+00 -0.00000000000E+00 -0.10000000000E+04  0.10000000000E+04  0.00000000000E+00 0.  1.
    9000005    2    1    2  501    0 -0.26990404712E+02  0.59553002471E+02 -0.72576038016E+03  0.72870895376E+03  0.36834543137E+01 0.  0.
         13    1    3    3    0    0 -0.22279406088E+02  0.49753977502E+02 -0.58930632095E+03  0.59182241435E+03  0.00000000000E+00 0.  1.
          1    1    3    3  501    0 -0.47109986234E+01  0.97990249689E+01 -0.13645405921E+03  0.13688653942E+03  0.00000000000E+00 0.  1.
         -1    1    1    2    0  502  0.26990404712E+02 -0.59553002471E+02 -0.26884709130E+03  0.27668357477E+03  0.00000000000E+00 0. -1.
<mgrwt>
<rscale>  1 0.30000000E+03</rscale>
<asrwt>0</asrwt>
<pdfrwt beam="1">  1       21 0.19609236E-01 0.30000000E+03</pdfrwt>
<pdfrwt beam="2">0</pdfrwt>
<totfact> 0.24911819E+03</totfact>
</mgrwt>
</event>
<event>
 6    1  0.1270461E-001  0.3000000E+03  0.7818608E-02  0.1093470E+00
         21   -1    0    0  501  502  0.00000000000E+00  0.00000000000E+00  0.21098816967E+01  0.21098816967E+01  0.00000000000E+00 0. -1.
         13   -1    0    0    0    0 -0.00000000000E+00 -0.00000000000E+00 -0.10000000000E+04  0.10000000000E+04  0.00000000000E+00 0.  1.
    9000005    2    1    2  501    0 -0.31627009867E+02 -0.10700989538E+02 -0.84274012633E+03  0.84340796319E+03  0.33604918929E+01 0.  0.
         13    1    3    3    0    0 -0.15035141936E+02 -0.59094921945E+01 -0.37003181814E+03  0.37038429236E+03  0.00000000000E+00 0.  1.
          3    1    3    3  501    0 -0.16591867931E+02 -0.47914973438E+01 -0.47270830820E+03  0.47302367083E+03  0.00000000000E+00 0.  1.
         -1    1    1    2    0  502  0.31627009867E+02  0.10700989538E+02 -0.15514999197E+03  0.15870191851E+03  0.00000000000E+00 0. -1.
<mgrwt>
<rscale>  1 0.30000000E+03</rscale>
<asrwt>0</asrwt>
<pdfrwt beam="1">  1       21 0.76723133E-02 0.30000000E+03</pdfrwt>
<pdfrwt beam="2">0</pdfrwt>
<totfact> 0.13746448E+04</totfact>
</mgrwt>
</event>
<event>
 6    1  0.1270461E-001  0.3000000E+03  0.7818608E-02  0.1093470E+00
         21   -1    0    0  501  502  0.00000000000E+00  0.00000000000E+00  0.41310391903E+01  0.41310391903E+01  0.00000000000E+00 0. -1.
         13   -1    0    0    0    0 -0.00000000000E+00 -0.00000000000E+00 -0.10000000000E+04  0.10000000000E+04  0.00000000000E+00 0.  1.
    9000005    2    1    2  501    0  0.16764503859E+02  0.56025711082E+02 -0.70581191298E+03  0.70823744364E+03  0.31450242448E+01 0.  0.
         13    1    3    3    0    0  0.15907964846E+02  0.54829585683E+02 -0.68913191327E+03  0.69149269027E+03  0.00000000000E+00 0.  1.
          1    1    3    3  501    0  0.85653901276E+00  0.11961253992E+01 -0.16679999713E+02  0.16744753372E+02  0.00000000000E+00 0.  1.
         -1    1    1    2    0  502 -0.16764503859E+02 -0.56025711082E+02 -0.29005704783E+03  0.29589359555E+03  0.00000000000E+00 0. -1.
<mgrwt>
<rscale>  1 0.30000000E+03</rscale>
<asrwt>0</asrwt>
<pdfrwt beam="1">  1       21 0.15021992E-01 0.30000000E+03</pdfrwt>
<pdfrwt beam="2">0</pdfrwt>
<totfact> 0.41068833E+03</totfact>
</mgrwt>
</event>
<event>
 6    1  0.1270461E-001  0.3000000E+03  0.7818608E-02  0.1093470E+00
         21   -1    0    0  501  502  0.00000000000E+00  0.00000000000E+00  0.92479487474E+01  0.92479487474E+01  0.00000000000E+00 0. -1.
         13   -1    0    0    0    0 -0.00000000000E+00 -0.00000000000E+00 -0.10000000000E+04  0.10000000000E+04  0.00000000000E+00 0.  1.
    9000005    2    1    2  501    0  0.16238898956E+02 -0.34611560619E+02 -0.95839325035E+03  0.95916048561E+03  0.30907718909E+01 0.  0.
         13    1    3    3    0    0  0.28496374047E+01 -0.38298318447E+01 -0.11072247208E+03  0.11082533045E+03  0.00000000000E+00 0.  1.
          3    1    3    3  501    0  0.13389261551E+02 -0.30781728774E+02 -0.84767077827E+03  0.84833515516E+03  0.00000000000E+00 0.  1.
         -1    1    1    2    0  502 -0.16238898956E+02  0.34611560619E+02 -0.32358800905E+02  0.50087463140E+02  0.00000000000E+00 0. -1.
<mgrwt>
<rscale>  1 0.30000000E+03</rscale>
<asrwt>0</asrwt>
<pdfrwt beam="1">  1       21 0.33628975E-01 0.30000000E+03</pdfrwt>
<pdfrwt beam="2">0</pdfrwt>
<totfact> 0.86341035E+02</totfact>
</mgrwt>
</event>
<event>
 6    1  0.1270461E-001  0.3000000E+03  0.7818608E-02  0.1093470E+00
         21   -1    0    0  501  502  0.00000000000E+00  0.00000000000E+00  0.13352173889E+01  0.13352173889E+01  0.00000000000E+00 0. -1.
         13   -1    0    0    0    0 -0.00000000000E+00 -0.00000000000E+00 -0.10000000000E+04  0.10000000000E+04  0.00000000000E+00 0.  1.
    9000005    2    1    2  501    0  0.34351186135E+02  0.11975648156E+02 -0.54056542171E+03  0.54179365822E+03  0.24439333902E+01 0.  0.
         13    1    3    3    0    0  0.33222481284E+02  0.11898324979E+02 -0.52768111714E+03  0.52885977800E+03  0.00000000000E+00 0.  1.
          1    1    3    3  501    0  0.11287048505E+01  0.77323177070E-01 -0.12884304565E+02  0.12933880223E+02  0.00000000000E+00 0.  1.
         -3    1    1    2    0  502 -0.34351186135E+02 -0.11975648156E+02 -0.45809936091E+03  0.45954155916E+03  0.00000000000E+00 0. -1.
<mgrwt>
<rscale>  1 0.30000000E+03</rscale>
<asrwt>0</asrwt>
<pdfrwt beam="1">  1       21 0.48553462E-02 0.30000000E+03</pdfrwt>
<pdfrwt beam="2">0</pdfrwt>
<totfact> 0.30281860E+04</totfact>
</mgrwt>
</event>
<event>
 6    1  0.1270461E-001  0.3000000E+03  0.7818608E-02  0.1093470E+00
         21   -1    0    0  501  502  0.00000000000E+00  0.00000000000E+00  0.19129360143E+01  0.19129360143E+01  0.00000000000E+00 0. -1.
         13   -1    0    0    0    0 -0.00000000000E+00 -0.00000000000E+00 -0.10000000000E+04  0.10000000000E+04  0.00000000000E+00 0.  1.
    9000005    2    1    2  501    0 -0.30938673144E+02 -0.29861090191E+02 -0.42036708339E+03  0.42259500760E+03  0.54008746488E+01 0.  0.
         13    1    3    3    0    0 -0.20892137282E+00 -0.11505829356E+01 -0.73619322799E+01  0.74542294119E+01  0.00000000000E+00 0.  1.
          1    1    3    3  501    0 -0.30729751771E+02 -0.28710507255E+02 -0.41300515111E+03  0.41514077818E+03  0.00000000000E+00 0.  1.
         -3    1    1    2    0  502  0.30938673144E+02  0.29861090191E+02 -0.57771998060E+03  0.57931792842E+03  0.00000000000E+00 0. -1.
<mgrwt>
<rscale>  1 0.30000000E+03</rscale>
<asrwt>0</asrwt>
<pdfrwt beam="1">  1       21 0.69561456E-02 0.30000000E+03</pdfrwt>
<pdfrwt beam="2">0</pdfrwt>
<totfact> 0.16312687E+04</totfact>
</mgrwt>
</event>
<event>
 6    1  0.1270461E-001  0.3000000E+03  0.7818608E-02  0.1093470E+00
         21   -1    0    0  501  502  0.00000000000E+00  0.00000000000E+00  0.12757973759E+01  0.12757973759E+01  0.00000000000E+00 0. -1.
         13   -1    0    0    0    0 -0.00000000000E+00 -0.00000000000E+00 -0.10000000000E+04  0.10000000000E+04  0.00000000000E+00 0.  1.
    9000005    2    1    2  501    0 -0.29260580392E+01  0.34511875861E+02 -0.61496345503E+03  0.61595522592E+03  0.45997747740E+01 0.  0.
         13    1    3    3    0    0 -0.27123330326E+01  0.28291066081E+02 -0.47035234393E+03  0.47121021701E+03  0.00000000000E+00 0.  1.
          3    1    3    3  501    0 -0.21372500654E+00  0.62208097800E+01 -0.14461111110E+03  0.14474500892E+03  0.00000000000E+00 0.  1.
         -3    1    1    2    0  502  0.29260580392E+01 -0.34511875861E+02 -0.38376074759E+03  0.38532057145E+03  0.00000000000E+00 0. -1.
<mgrwt>
<rscale>  1 0.30000000E+03</rscale>
<asrwt>0</asrwt>
<pdfrwt beam="1">  1       21 0.46392730E-02 0.30000000E+03</pdfrwt>
<pdfrwt beam="2">0</pdfrwt>
<totfact> 0.32719700E+04</totfact>
</mgrwt>
</event>
<event>
 6    1  0.1270461E-001  0.3000000E+03  0.7818608E-02  0.1093470E+00
         21   -1    0    0  501  502  0.00000000000E+00  0.00000000000E+00  0.14151632453E+01  0.14151632453E+01  0.00000000000E+00 0. -1.
         13   -1    0    0    0    0 -0.00000000000E+00 -0.00000000000E+00 -0.10000000000E+04  0.10000000000E+04  0.00000000000E+00 0.  1.
    9000005    2    1    2  501    0 -0.35522489237E+02  0.38158614250E+01 -0.34679514712E+03  0.34864705162E+03  0.33888785465E+01 0.  0.
         13    1    3    3    0    0 -0.19031391995E+02  0.31861391377E+01 -0.19901339811E+03  0.19994668787E+03  0.00000000000E+00 0.  1.
          1    1    3    3  501    0 -0.16491097241E+02  0.62972228734E+00 -0.14778174901E+03  0.14870036375E+03  0.00000000000E+00 0.  1.
         -1    1    1    2    0  502  0.35522489237E+02 -0.38158614250E+01 -0.65178968963E+03  0.65276811162E+03  0.00000000000E+00 0. -1.
<mgrwt>
<rscale>  1 0.30000000E+03</rscale>
<asrwt>0</asrwt>
<pdfrwt beam="1">  1       21 0.51460590E-02 0.30000000E+03</pdfrwt>
<pdfrwt beam="2">0</pdfrwt>
<totfact> 0.27423930E+04</totfact>
</mgrwt>
</event>
<event>
 6    1  0.1270461E-001  0.3000000E+03  0.7818608E-02  0.1093470E+00
         21   -1    0    0  501  502  0.00000000000E+00  0.00000000000E+00  0.15049111127E+01  0.15049111127E+01  0.00000000000E+00 0. -1.
         13   -1    0    0    0    0 -0.00000000000E+00 -0.00000000000E+00 -0.10000000000E+04  0.10000000000E+04  0.00000000000E+00 0.  1.
    9000005    2    1    2  501    0  0.28081047739E+02 -0.21588857784E+02 -0.30204509304E+03  0.30415476898E+03  0.49255698749E+01 0.  0.
         13    1    3    3    0    0  0.25516152047E+02 -0.19761062812E+02 -0.26073481134E+03  0.26272460004E+03  0.00000000000E+00 0.  1.
          3    1    3    3  501    0  0.25648956922E+01 -0.18277949716E+01 -0.41310281698E+02  0.41430168940E+02  0.00000000000E+00 0.  1.
         -3    1    1    2    0  502 -0.28081047739E+02  0.21588857784E+02 -0.69644999585E+03  0.69735014214E+03  0.00000000000E+00 0. -1.
<mgrwt>
<rscale>  1 0.30000000E+03</rscale>
<asrwt>0</asrwt>
<pdfrwt beam="1">  1       21 0.54724156E-02 0.30000000E+03</pdfrwt>
<pdfrwt beam="2">0</pdfrwt>
<totfact> 0.24686022E+04</totfact>
</mgrwt>
</event>
<event>
 6    1  0.1270461E-001  0.3000000E+03  0.7818608E-02  0.1093470E+00
         21   -1    0    0  501  502  0.00000000000E+00  0.00000000000E+00  0.23226319234E+01  0.23226319234E+01  0.00000000000E+00 0. -1.
         13   -1    0    0    0    0 -0.00000000000E+00 -0.00000000000E+00 -0.10000000000E+04  0.10000000000E+04  0.00000000000E+00 0.  1.
    9000005    2    1    2  501    0 -0.14171487226E+02  0.26683071551E+02 -0.88905165203E+03  0.88957351422E+03  0.39217159725E+01 0.  0.
         13    1    3    3    0    0 -0.24509198994E+01  0.21101701940E+01 -0.10052104898E+03  0.10057306357E+03  0.00000000000E+00 0.  1.
          1    1    3    3  501    0 -0.11720567327E+02  0.24572901357E+02 -0.78853060305E+03  0.78900045065E+03  0.00000000000E+00 0.  1.
         -1    1    1    2    0  502  0.14171487226E+02 -0.26683071551E+02 -0.10862571604E+03  0.11274911771E+03  0.00000000000E+00 0. -1.
<mgrwt>
<rscale>  1 0.30000000E+03</rscale>
<asrwt>0</asrwt>
<pdfrwt beam="1">  1       21 0.84459521E-02 0.30000000E+03</pdfrwt>
<pdfrwt beam="2">0</pdfrwt>
<totfact> 0.11611106E+04</totfact>
</mgrwt>
</event>
<event>
 6    1  0.1270461E-001  0.3000000E+03  0.7818608E-02  0.1093470E+00
         21   -1    0    0  501  502  0.00000000000E+00  0.00000000000E+00  0.19662802979E+01  0.19662802979E+01  0.00000000000E+00 0. -1.
         13   -1    0    0    0    0 -0.00000000000E+00 -0.00000000000E+00 -0.10000000000E+04  0.10000000000E+04  0.00000000000E+00 0.  1.
    9000005    2    1    2  501    0 -0.57652864758E+01  0.34595647206E+02 -0.80476349246E+03  0.80553950495E+03  0.44179080572E+01 0.  0.
         13    1    3    3    0    0 -0.26585203733E+01  0.16302806354E+02 -0.42961677499E+03  0.42993420727E+03  0.00000000000E+00 0.  1.
          3    1    3    3  501    0 -0.31067661025E+01  0.18292840851E+02 -0.37514671747E+03  0.37560529768E+03  0.00000000000E+00 0.  1.
         -1    1    1    2    0  502  0.57652864758E+01 -0.34595647206E+02 -0.19327022725E+03  0.19642677535E+03  0.00000000000E+00 0. -1.
<mgrwt>
<rscale>  1 0.30000000E+03</rscale>
<asrwt>0</asrwt>
<pdfrwt beam="1">  1       21 0.71501253E-02 0.30000000E+03</pdfrwt>
<pdfrwt beam="2">0</pdfrwt>
<totfact> 0.15549782E+04</totfact>
</mgrwt>
</event>
<event>
 6    1  0.1270461E-001  0.3000000E+03  0.7818608E-02  0.1093470E+00
         21   -1    0    0  501  502  0.00000000000E+00  0.00000000000E+00  0.48504404781E+01  0.48504404781E+01  0.00000000000E+00 0. -1.
         13   -1    0    0    0    0 -0.00000000000E+00 -0.00000000000E+00 -0.10000000000E+04  0.10000000000E+04  0.00000000000E+00 0.  1.
    9000005    2    1    2  501    0 -0.49624286915E+02  0.32482576884E+02 -0.76059132370E+03  0.76290984106E+03  0.38178858176E+01 0.  0.
         13    1    3    3    0    0 -0.22128396661E+02  0.16671855402E+02 -0.36140127907E+03  0.36246172379E+03  0.00000000000E+00 0.  1.
          3    1    3    3  501    0 -0.27495890254E+02  0.15810721482E+02 -0.39919004463E+03  0.40044811727E+03  0.00000000000E+00 0.  1.
         -3    1    1    2    0  502  0.49624286915E+02 -0.32482576884E+02 -0.23455823582E+03  0.24194059941E+03  0.00000000000E+00 0. -1.
<mgrwt>
<rscale>  1 0.30000000E+03</rscale>
<asrwt>0</asrwt>
<pdfrwt beam="1">  1       21 0.17638003E-01 0.30000000E+03</pdfrwt>
<pdfrwt beam="2">0</pdfrwt>
<totfact> 0.30436950E+03</totfact>
</mgrwt>
</event>
<event>
 6    1  0.1270461E-001  0.3000000E+03  0.7818608E-02  0.1093470E+00
         21   -1    0    0  501  502  0.00000000000E+00  0.00000000000E+00  0.14247345264E+01  0.14247345264E+01  0.00000000000E+00 0. -1.
         13   -1    0    0    0    0 -0.00000000000E+00 -0.00000000000E+00 -0.10000000000E+04  0.10000000000E+04  0.00000000000E+00 0.  1.
    9000005    2    1    2  501    0 -0.24339645284E+02  0.27349198893E+02 -0.61831575078E+03  0.61940680886E+03  0.31670477328E+01 0.  0.
         13    1    3    3    0    0 -0.82796059705E+00  0.15319825109E+01 -0.21503129720E+02  0.21573527225E+02  0.00000000000E+00 0.  1.
          3    1    3    3  501    0 -0.23511684687E+02  0.25817216382E+02 -0.59681262106E+03  0.59783328163E+03  0.00000000000E+00 0.  1.
         -1    1    1    2    0  502  0.24339645284E+02 -0.27349198893E+02 -0.38025951470E+03  0.38201792567E+03  0.00000000000E+00 0. -1.
<mgrwt>
<rscale>  1 0.30000000E+03</rscale>
<asrwt>0</asrwt>
<pdfrwt beam="1">  1       21 0.51808637E-02 0.30000000E+03</pdfrwt>
<pdfrwt beam="2">0</pdfrwt>
<totfact> 0.27110077E+04</totfact>
</mgrwt>
</event>
<event>
 6    1  0.1270461E-001  0.3000000E+03  0.7818608E-02  0.1093470E+00
         21   -1    0    0  501  502  0.00000000000E+00  0.00000000000E+00  0.20892965998E+01  0.20892965998E+01  0.00000000000E+00 0. -1.
         13   -1    0    0    0    0 -0.00000000000E+00 -0.00000000000E+00 -0.10000000000E+04  0.10000000000E+04  0.00000000000E+00 0.  1.
    9000005    2    1    2  501    0 -0.24078477613E+02 -0.31520744607E+02 -0.74733241509E+03  0.74839103291E+03  0.31731808945E+01 0.  0.
         13    1    3    3    0    0 -0.89668952053E+01 -0.11541170245E+02 -0.24727340652E+03  0.24770494826E+03  0.00000000000E+00 0.  1.
          1    1    3    3  501    0 -0.15111582407E+02 -0.19979574362E+02 -0.50005900857E+03  0.50068608465E+03  0.00000000000E+00 0.  1.
         -1    1    1    2    0  502  0.24078477613E+02  0.31520744607E+02 -0.25057828831E+03  0.25369826368E+03  0.00000000000E+00 0. -1.
<mgrwt>
<rscale>  1 0.30000000E+03</rscale>
<asrwt>0</asrwt>
<pdfrwt beam="1">  1       21 0.75974582E-02 0.30000000E+03</pdfrwt>
<pdfrwt beam="2">0</pdfrwt>
<totfact> 0.13984650E+04</totfact>
</mgrwt>
</event>
<event>
 6    1  0.1270461E-001  0.3000000E+03  0.7818608E-02  0.1093470E+00
         21   -1    0    0  501  502  0.00000000000E+00  0.00000000000E+00  0.48384561164E+01  0.48384561164E+01  0.00000000000E+00 0. -1.
         13   -1    0    0    0    0 -0.00000000000E+00 -0.00000000000E+00 -0.10000000000E+04  0.10000000000E+04  0.00000000000E+00 0.  1.
    9000005    2    1    2  501    0 -0.36928886338E+02 -0.22219122561E+02 -0.89177585432E+03  0.89282938122E+03  0.47641956220E+01 0.  0.
         13    1    3    3    0    0 -0.19301148256E+02 -0.14248704107E+02 -0.47895089676E+03  0.47955137514E+03  0.00000000000E+00 0.  1.
          3    1    3    3  501    0 -0.17627738082E+02 -0.79704184536E+01 -0.41282495756E+03  0.41327800608E+03  0.00000000000E+00 0.  1.
         -1    1    1    2    0  502  0.36928886338E+02  0.22219122561E+02 -0.10338568956E+03  0.11200907490E+03  0.00000000000E+00 0. -1.
<mgrwt>
<rscale>  1 0.30000000E+03</rscale>
<asrwt>0</asrwt>
<pdfrwt beam="1">  1       21 0.17594423E-01 0.30000000E+03</pdfrwt>
<pdfrwt beam="2">0</pdfrwt>
<totfact> 0.30578777E+03</totfact>
</mgrwt>
</event>
<event>
 6    1  0.1270461E-001  0.3000000E+03  0.7818608E-02  0.1093470E+00
         21   -1    0    0  501  502  0.00000000000E+00  0.00000000000E+00  0.64936543139E+01  0.64936543139E+01  0.00000000000E+00 0. -1.
         13   -1    0    0    0    0 -0.00000000000E+00 -0.00000000000E+00 -0.10000000000E+04  0.10000000000E+04  0.00000000000E+00 0.  1.
    9000005    2    1    2  501    0  0.38133104196E+02  0.17442618126E+02 -0.92646911167E+03  0.92742172941E+03  0.27696120413E+01 0.  0.
         13    1    3    3    0    0  0.33505614446E+00  0.18811025817E+00 -0.16537268785E+02  0.16541732284E+02  0.00000000000E+00 0.  1.
          3    1    3    3  501    0  0.37798048051E+02  0.17254507868E+02 -0.90993184288E+03  0.91087999713E+03  0.00000000000E+00 0.  1.
         -1    1    1    2    0  502 -0.38133104196E+02 -0.17442618126E+02 -0.67037234019E+02  0.79071924902E+02  0.00000000000E+00 0. -1.
<mgrwt>
<rscale>  1 0.30000000E+03</rscale>
<asrwt>0</asrwt>
<pdfrwt beam="1">  1       21 0.23613338E-01 0.30000000E+03</pdfrwt>
<pdfrwt beam="2">0</pdfrwt>
<totfact> 0.17430673E+03</totfact>
</mgrwt>
</event>
<event>
 6    1  0.1270461E-001  0.3000000E+03  0.7818608E-02  0.1093470E+00
         21   -1    0    0  501  502  0.00000000000E+00  0.00000000000E+00  0.11727111360E+01  0.11727111360E+01  0.00000000000E+00 0. -1.
         13   -1    0    0    0    0 -0.00000000000E+00 -0.00000000000E+00 -0.10000000000E+04  0.10000000000E+04  0.00000000000E+00 0.  1.
    9000005    2    1    2  501    0  0.32605477644E+02 -0.47017382594E+01 -0.63245248701E+03  0.63331986155E+03  0.35602237965E+01 0.  0.
         13    1    3    3    0    0  0.40967280330E+01  0.32990133686E+00 -0.65593696625E+02  0.65722332981E+02  0.00000000000E+00 0.  1.
          1    1    3    3  501    0  0.28508749611E+02 -0.50316395963E+01 -0.56685879039E+03  0.56759752857E+03  0.00000000000E+00 0.  1.
         -3    1    1    2    0  502 -0.32605477644E+02  0.47017382594E+01 -0.36637480185E+03  0.36785284958E+03  0.00000000000E+00 0. -1.
<mgrwt>
<rscale>  1 0.30000000E+03</rscale>
<asrwt>0</asrwt>
<pdfrwt beam="1">  1       21 0.42644131E-02 0.30000000E+03</pdfrwt>
<pdfrwt beam="2">0</pdfrwt>
<totfact> 0.37743361E+04</totfact>
</mgrwt>
</event>
<event>
 6    1  0.1270461E-001  0.3000000E+03  0.7818608E-02  0.1093470E+00
         21   -1    0    0  501  502  0.00000000000E+00  0.00000000000E+00  0.10532533091E+01  0.10532533091E+01  0.00000000000E+00 0. -1.
         13   -1    0    0    0    0 -0.00000000000E+00 -0.00000000000E+00 -0.10000000000E+04  0.10000000000E+04  0.00000000000E+00 0.  1.
    9000005    2    1    2  501    0 -0.15067773437E+02 -0.28423731678E+02 -0.55590478947E+03  0.55684483131E+03  0.33293962561E+01 0.  0.
         13    1    3    3    0    0 -0.38662589809E+01 -0.90626681415E+01 -0.19303920326E+03  0.19329049099E+03  0.00000000000E+00 0.  1.
          1    1    3    3  501    0 -0.11201514456E+02 -0.19361063536E+02 -0.36286558621E+03  0.36355434032E+03  0.00000000000E+00 0.  1.
         -3    1    1    2    0  502  0.15067773437E+02  0.28423731678E+02 -0.44304195722E+03  0.44420842200E+03  0.00000000000E+00 0. -1.
<mgrwt>
<rscale>  1 0.30000000E+03</rscale>
<asrwt>0</asrwt>
<pdfrwt beam="1">  1       21 0.38300201E-02 0.30000000E+03</pdfrwt>
<pdfrwt beam="2">0</pdfrwt>
<totfact> 0.45233975E+04</totfact>
</mgrwt>
</event>
<event>
 6    1  0.1270461E-001  0.3000000E+03  0.7818608E-02  0.1093470E+00
         21   -1    0    0  501  502  0.00000000000E+00  0.00000000000E+00  0.29928019390E+01  0.29928019390E+01  0.00000000000E+00 0. -1.
         13   -1    0    0    0    0 -0.00000000000E+00 -0.00000000000E+00 -0.10000000000E+04  0.10000000000E+04  0.00000000000E+00 0.  1.
    9000005    2    1    2  501    0 -0.34218541268E+01 -0.38182256625E+02 -0.85590345543E+03  0.85677426690E+03  0.46717861200E+01 0.  0.
         13    1    3    3    0    0 -0.87468418662E+00 -0.42750548491E+01 -0.13301192443E+03  0.13308348210E+03  0.00000000000E+00 0.  1.
          3    1    3    3  501    0 -0.25471699402E+01 -0.33907201775E+02 -0.72289153100E+03  0.72369078480E+03  0.00000000000E+00 0.  1.
         -1    1    1    2    0  502  0.34218541268E+01  0.38182256625E+02 -0.14110374263E+03  0.14621853504E+03  0.00000000000E+00 0. -1.
<mgrwt>
<rscale>  1 0.30000000E+03</rscale>
<asrwt>0</asrwt>
<pdfrwt beam="1">  1       21 0.10882939E-01 0.30000000E+03</pdfrwt>
<pdfrwt beam="2">0</pdfrwt>
<totfact> 0.73929032E+03</totfact>
</mgrwt>
</event>
<event>
 6    1  0.1270461E-001  0.3000000E+03  0.7818608E-02  0.1093470E+00
         21   -1    0    0  501  502  0.00000000000E+00  0.00000000000E+00  0.96550076307E+01  0.96550076307E+01  0.00000000000E+00 0. -1.
         13   -1    0    0    0    0 -0.00000000000E+00 -0.00000000000E+00 -0.10000000000E+04  0.10000000000E+04  0.00000000000E+00 0.  1.
    9000005    2    1    2  501    0 -0.29207202666E+02 -0.69768502279E+02 -0.17322135403E+03  0.18903832188E+03  0.30240783574E+01 0.  0.
         13    1    3    3    0    0 -0.74968750668E+01 -0.14678969519E+02 -0.37819890379E+02  0.41255537691E+02  0.00000000000E+00 0.  1.
          1    1    3    3  501    0 -0.21710327599E+02 -0.55089532759E+02 -0.13540146365E+03  0.14778278419E+03  0.00000000000E+00 0.  1.
         -3    1    1    2    0  502  0.29207202666E+02  0.69768502279E+02 -0.81712363834E+03  0.82061668575E+03  0.00000000000E+00 0. -1.
<mgrwt>
<rscale>  1 0.30000000E+03</rscale>
<asrwt>0</asrwt>
<pdfrwt beam="1">  1       21 0.35109193E-01 0.30000000E+03</pdfrwt>
<pdfrwt beam="2">0</pdfrwt>
<totfact> 0.79073914E+02</totfact>
</mgrwt>
</event>
<event>
 6    1  0.1270461E-001  0.3000000E+03  0.7818608E-02  0.1093470E+00
         21   -1    0    0  501  502  0.00000000000E+00  0.00000000000E+00  0.31382036143E+01  0.31382036143E+01  0.00000000000E+00 0. -1.
         13   -1    0    0    0    0 -0.00000000000E+00 -0.00000000000E+00 -0.10000000000E+04  0.10000000000E+04  0.00000000000E+00 0.  1.
    9000005    2    1    2  501    0  0.51908600282E+02  0.20863391846E+02 -0.48366846506E+03  0.48690455572E+03  0.33284205511E+01 0.  0.
         13    1    3    3    0    0  0.51214331834E+01  0.18515450949E+01 -0.56173919503E+02  0.56437279606E+02  0.00000000000E+00 0.  1.
          3    1    3    3  501    0  0.46787167099E+02  0.19011846751E+02 -0.42749454555E+03  0.43046727611E+03  0.00000000000E+00 0.  1.
         -3    1    1    2    0  502 -0.51908600282E+02 -0.20863391846E+02 -0.51319333133E+03  0.51623364790E+03  0.00000000000E+00 0. -1.
<mgrwt>
<rscale>  1 0.30000000E+03</rscale>
<asrwt>0</asrwt>
<pdfrwt beam="1">  1       21 0.11411674E-01 0.30000000E+03</pdfrwt>
<pdfrwt beam="2">0</pdfrwt>
<totfact> 0.67874047E+03</totfact>
</mgrwt>
</event>
<event>
 6    1  0.1270461E-001  0.3000000E+03  0.7818608E-02  0.1093470E+00
         21   -1    0    0  501  502  0.00000000000E+00  0.00000000000E+00  0.12924021704E+01  0.12924021704E+01  0.00000000000E+00 0. -1.
         13   -1    0    0    0    0 -0.00000000000E+00 -0.00000000000E+00 -0.10000000000E+04  0.10000000000E+04  0.00000000000E+00 0.  1.
    9000005    2    1    2  501    0  0.64570356389E+01 -0.33670206339E+02 -0.35414645768E+03  0.35582014134E+03  0.35893446842E+01 0.  0.
         13    1    3    3    0    0  0.37194211481E+01 -0.17528941491E+02 -0.20312797480E+03  0.20391682625E+03  0.00000000000E+00 0.  1.
          1    1    3    3  501    0  0.27376144907E+01 -0.16141264848E+02 -0.15101848288E+03  0.15190331509E+03  0.00000000000E+00 0.  1.
         -3    1    1    2    0  502 -0.64570356389E+01  0.33670206339E+02 -0.64456114015E+03  0.64547226083E+03  0.00000000000E+00 0. -1.
<mgrwt>
<rscale>  1 0.30000000E+03</rscale>
<asrwt>0</asrwt>
<pdfrwt beam="1">  1       21 0.46996542E-02 0.30000000E+03</pdfrwt>
<pdfrwt beam="2">0</pdfrwt>
<totfact> 0.32008337E+04</totfact>
</mgrwt>
</event>
<event>
 6    1  0.1270461E-001  0.3000000E+03  0.7818608E-02  0.1093470E+00
         21   -1    0    0  501  502  0.00000000000E+00  0.00000000000E+00  0.30662583665E+01  0.30662583665E+01  0.00000000000E+00 0. -1.
         13   -1    0    0    0    0 -0.00000000000E+00 -0.00000000000E+00 -0.10000000000E+04  0.10000000000E+04  0.00000000000E+00 0.  1.
    9000005    2    1    2  501    0 -0.20744059815E+01  0.35908535171E+02 -0.87960494923E+03  0.88034799736E+03  0.37421494244E+01 0.  0.
         13    1    3    3    0    0  0.47961314825E+00  0.22785236759E+02 -0.54913084074E+03  0.54960356376E+03  0.00000000000E+00 0.  1.
          3    1    3    3  501    0 -0.25540191298E+01  0.13123298412E+02 -0.33047410849E+03  0.33074443360E+03  0.00000000000E+00 0.  1.
         -3    1    1    2    0  502  0.20744059815E+01 -0.35908535171E+02 -0.11732879240E+03  0.12271826101E+03  0.00000000000E+00 0. -1.
<mgrwt>
<rscale>  1 0.30000000E+03</rscale>
<asrwt>0</asrwt>
<pdfrwt beam="1">  1       21 0.11150054E-01 0.30000000E+03</pdfrwt>
<pdfrwt beam="2">0</pdfrwt>
<totfact> 0.70772789E+03</totfact>
</mgrwt>
</event>
<event>
 6    1  0.1270461E-001  0.3000000E+03  0.7818608E-02  0.1093470E+00
         21   -1    0    0  501  502  0.00000000000E+00  0.00000000000E+00  0.13557238763E+01  0.13557238763E+01  0.00000000000E+00 0. -1.
         13   -1    0    0    0    0 -0.00000000000E+00 -0.00000000000E+00 -0.10000000000E+04  0.10000000000E+04  0.00000000000E+00 0.  1.
    9000005    2    1    2  501    0  0.33129228294E+02  0.11883146159E+02 -0.64154400827E+03  0.64252518416E+03  0.45981307153E+01 0.  0.
         13    1    3    3    0    0  0.10783630313E+01  0.57304317930E+00 -0.11393991015E+02  0.11459244153E+02  0.00000000000E+00 0.  1.
          1    1    3    3  501    0  0.32050865263E+02  0.11310102979E+02 -0.63015001725E+03  0.63106594000E+03  0.00000000000E+00 0.  1.
         -3    1    1    2    0  502 -0.33129228294E+02 -0.11883146159E+02 -0.35710026786E+03  0.35883053972E+03  0.00000000000E+00 0. -1.
<mgrwt>
<rscale>  1 0.30000000E+03</rscale>
<asrwt>0</asrwt>
<pdfrwt beam="1">  1       21 0.49299154E-02 0.30000000E+03</pdfrwt>
<pdfrwt beam="2">0</pdfrwt>
<totfact> 0.29505977E+04</totfact>
</mgrwt>
</event>
<event>
 6    1  0.1270461E-001  0.3000000E+03  0.7818608E-02  0.1093470E+00
         21   -1    0    0  501  502  0.00000000000E+00  0.00000000000E+00  0.10448685751E+01  0.10448685751E+01  0.00000000000E+00 0. -1.
         13   -1    0    0    0    0 -0.00000000000E+00 -0.00000000000E+00 -0.10000000000E+04  0.10000000000E+04  0.00000000000E+00 0.  1.
    9000005    2    1    2  501    0 -0.13626680121E+02 -0.28973262670E+02 -0.55899793638E+03  0.55992417099E+03  0.33538079072E+01 0.  0.
         13    1    3    3    0    0 -0.91892110931E+01 -0.22133113320E+02 -0.39986630506E+03  0.40058379676E+03  0.00000000000E+00 0.  1.
          3    1    3    3  501    0 -0.44374690278E+01 -0.68401493504E+01 -0.15913163132E+03  0.15934037423E+03  0.00000000000E+00 0.  1.
         -1    1    1    2    0  502  0.13626680121E+02  0.28973262670E+02 -0.43995719505E+03  0.44112069758E+03  0.00000000000E+00 0. -1.
<mgrwt>
<rscale>  1 0.30000000E+03</rscale>
<asrwt>0</asrwt>
<pdfrwt beam="1">  1       21 0.37995301E-02 0.30000000E+03</pdfrwt>
<pdfrwt beam="2">0</pdfrwt>
<totfact> 0.45845606E+04</totfact>
</mgrwt>
</event>
<event>
 6    1  0.1270461E-001  0.3000000E+03  0.7818608E-02  0.1093470E+00
         21   -1    0    0  501  502  0.00000000000E+00  0.00000000000E+00  0.12353100176E+01  0.12353100176E+01  0.00000000000E+00 0. -1.
         13   -1    0    0    0    0 -0.00000000000E+00 -0.00000000000E+00 -0.10000000000E+04  0.10000000000E+04  0.00000000000E+00 0.  1.
    9000005    2    1    2  501    0 -0.85934210447E+01 -0.31182377937E+02 -0.69355953136E+03  0.69432102813E+03  0.32678707151E+01 0.  0.
         13    1    3    3    0    0 -0.76126235784E+01 -0.22150685267E+02 -0.50347474090E+03  0.50401926512E+03  0.00000000000E+00 0.  1.
          3    1    3    3  501    0 -0.98079746629E+00 -0.90316926705E+01 -0.19008479047E+03  0.19030176301E+03  0.00000000000E+00 0.  1.
         -1    1    1    2    0  502  0.85934210447E+01  0.31182377937E+02 -0.30520515862E+03  0.30691428189E+03  0.00000000000E+00 0. -1.
<mgrwt>
<rscale>  1 0.30000000E+03</rscale>
<asrwt>0</asrwt>
<pdfrwt beam="1">  1       21 0.44920459E-02 0.30000000E+03</pdfrwt>
<pdfrwt beam="2">0</pdfrwt>
<totfact> 0.34561782E+04</totfact>
</mgrwt>
</event>
<event>
 6    1  0.1270461E-001  0.3000000E+03  0.7818608E-02  0.1093470E+00
         21   -1    0    0  501  502  0.00000000000E+00  0.00000000000E+00  0.36659998970E+01  0.36659998970E+01  0.00000000000E+00 0. -1.
         13   -1    0    0    0    0 -0.00000000000E+00 -0.00000000000E+00 -0.10000000000E+04  0.10000000000E+04  0.00000000000E+00 0.  1.
    9000005    2    1    2  501    0 -0.13349731850E+02 -0.42278124869E+02 -0.83974584243E+03  0.84092231705E+03  0.34070885570E+01 0.  0.
         13    1    3    3    0    0 -0.98239214567E+01 -0.27379506194E+02 -0.57182810308E+03  0.57256748621E+03  0.00000000000E+00 0.  1.
          1    1    3    3  501    0 -0.35258103934E+01 -0.14898618675E+02 -0.26791773936E+03  0.26835483085E+03  0.00000000000E+00 0.  1.
         -1    1    1    2    0  502  0.13349731850E+02  0.42278124869E+02 -0.15658815767E+03  0.16274368284E+03  0.00000000000E+00 0. -1.
<mgrwt>
<rscale>  1 0.30000000E+03</rscale>
<asrwt>0</asrwt>
<pdfrwt beam="1">  1       21 0.13330937E-01 0.30000000E+03</pdfrwt>
<pdfrwt beam="2">0</pdfrwt>
<totfact> 0.51159693E+03</totfact>
</mgrwt>
</event>
<event>
 6    1  0.1270461E-001  0.3000000E+03  0.7818608E-02  0.1093470E+00
         21   -1    0    0  501  502  0.00000000000E+00  0.00000000000E+00  0.11438214153E+01  0.11438214153E+01  0.00000000000E+00 0. -1.
         13   -1    0    0    0    0 -0.00000000000E+00 -0.00000000000E+00 -0.10000000000E+04  0.10000000000E+04  0.00000000000E+00 0.  1.
    9000005    2    1    2  501    0  0.39642288707E+01 -0.33105746616E+02 -0.57684046253E+03  0.57781301676E+03  0.33552288272E+01 0.  0.
         13    1    3    3    0    0  0.32282036776E+01 -0.25443962139E+02 -0.46638369016E+03  0.46708838880E+03  0.00000000000E+00 0.  1.
          1    1    3    3  501    0  0.73602519311E+00 -0.76617844767E+01 -0.11045677237E+03  0.11072462796E+03  0.00000000000E+00 0.  1.
         -1    1    1    2    0  502 -0.39642288707E+01  0.33105746616E+02 -0.42201571606E+03  0.42333080466E+03  0.00000000000E+00 0. -1.
<mgrwt>
<rscale>  1 0.30000000E+03</rscale>
<asrwt>0</asrwt>
<pdfrwt beam="1">  1       21 0.41593594E-02 0.30000000E+03</pdfrwt>
<pdfrwt beam="2">0</pdfrwt>
<totfact> 0.39367381E+04</totfact>
</mgrwt>
</event>
<event>
 6    1  0.1270461E-001  0.3000000E+03  0.7818608E-02  0.1093470E+00
         21   -1    0    0  501  502  0.00000000000E+00  0.00000000000E+00  0.12461825260E+01  0.12461825260E+01  0.00000000000E+00 0. -1.
         13   -1    0    0    0    0 -0.00000000000E+00 -0.00000000000E+00 -0.10000000000E+04  0.10000000000E+04  0.00000000000E+00 0.  1.
    9000005    2    1    2  501    0  0.15757808272E+02  0.26647949018E+02 -0.73909656194E+03  0.73974988799E+03  0.27833775079E+01 0.  0.
         13    1    3    3    0    0  0.17334901032E+01  0.32141170688E+01 -0.11058418298E+03  0.11064446241E+03  0.00000000000E+00 0.  1.
          1    1    3    3  501    0  0.14024318169E+02  0.23433831949E+02 -0.62851237896E+03  0.62910542557E+03  0.00000000000E+00 0.  1.
         -3    1    1    2    0  502 -0.15757808272E+02 -0.26647949018E+02 -0.25965725553E+03  0.26149629454E+03  0.00000000000E+00 0. -1.
<mgrwt>
<rscale>  1 0.30000000E+03</rscale>
<asrwt>0</asrwt>
<pdfrwt beam="1">  1       21 0.45315824E-02 0.30000000E+03</pdfrwt>
<pdfrwt beam="2">0</pdfrwt>
<totfact> 0.34051549E+04</totfact>
</mgrwt>
</event>
<event>
 6    1  0.1270461E-001  0.3000000E+03  0.7818608E-02  0.1093470E+00
         21   -1    0    0  501  502  0.00000000000E+00  0.00000000000E+00  0.13746324643E+01  0.13746324643E+01  0.00000000000E+00 0. -1.
         13   -1    0    0    0    0 -0.00000000000E+00 -0.00000000000E+00 -0.10000000000E+04  0.10000000000E+04  0.00000000000E+00 0.  1.
    9000005    2    1    2  501    0 -0.25732310421E+02 -0.26252440506E+02 -0.55681503390E+03  0.55803761242E+03  0.34135713140E+01 0.  0.
         13    1    3    3    0    0 -0.15704214501E+02 -0.18236020396E+02 -0.35565505392E+03  0.35646836069E+03  0.00000000000E+00 0.  1.
          3    1    3    3  501    0 -0.10028095920E+02 -0.80164201105E+01 -0.20115997998E+03  0.20156925173E+03  0.00000000000E+00 0.  1.
         -1    1    1    2    0  502  0.25732310421E+02  0.26252440506E+02 -0.44181033364E+03  0.44333702004E+03  0.00000000000E+00 0. -1.
<mgrwt>
<rscale>  1 0.30000000E+03</rscale>
<asrwt>0</asrwt>
<pdfrwt beam="1">  1       21 0.49986740E-02 0.30000000E+03</pdfrwt>
<pdfrwt beam="2">0</pdfrwt>
<totfact> 0.28817682E+04</totfact>
</mgrwt>
</event>
<event>
 6    1  0.1270461E-001  0.3000000E+03  0.7818608E-02  0.1093470E+00
         21   -1    0    0  501  502  0.00000000000E+00  0.00000000000E+00  0.10693007029E+01  0.10693007029E+01  0.00000000000E+00 0. -1.
         13   -1    0    0    0    0 -0.00000000000E+00 -0.00000000000E+00 -0.10000000000E+04  0.10000000000E+04  0.00000000000E+00 0.  1.
    9000005    2    1    2  501    0 -0.26361095699E+01 -0.32516949823E+02 -0.50662490959E+03  0.50768376009E+03  0.31145064015E+01 0.  0.
         13    1    3    3    0    0 -0.28202840513E+01 -0.24489663513E+02 -0.39773192685E+03  0.39849514835E+03  0.00000000000E+00 0.  1.
          1    1    3    3  501    0  0.18417448144E+00 -0.80272863105E+01 -0.10889298274E+03  0.10918861175E+03  0.00000000000E+00 0.  1.
         -1    1    1    2    0  502  0.26361095699E+01  0.32516949823E+02 -0.49230578971E+03  0.49338554061E+03  0.00000000000E+00 0. -1.
<mgrwt>
<rscale>  1 0.30000000E+03</rscale>
<asrwt>0</asrwt>
<pdfrwt beam="1">  1       21 0.38883744E-02 0.30000000E+03</pdfrwt>
<pdfrwt beam="2">0</pdfrwt>
<totfact> 0.44098534E+04</totfact>
</mgrwt>
</event>
<event>
 6    1  0.1270461E-001  0.3000000E+03  0.7818608E-02  0.1093470E+00
         21   -1    0    0  501  502  0.00000000000E+00  0.00000000000E+00  0.34888532157E+01  0.34888532157E+01  0.00000000000E+00 0. -1.
         13   -1    0    0    0    0 -0.00000000000E+00 -0.00000000000E+00 -0.10000000000E+04  0.10000000000E+04  0.00000000000E+00 0.  1.
    9000005    2    1    2  501    0 -0.22349935604E+02  0.21528340348E+02 -0.92512849742E+03  0.92565266825E+03  0.26714119506E+01 0.  0.
         13    1    3    3    0    0 -0.19018991143E+02  0.18763223464E+02 -0.76806378145E+03  0.76852830328E+03  0.00000000000E+00 0.  1.
          3    1    3    3  501    0 -0.33309444608E+01  0.27651168837E+01 -0.15706471597E+03  0.15712436497E+03  0.00000000000E+00 0.  1.
         -3    1    1    2    0  502  0.22349935604E+02 -0.21528340348E+02 -0.71382649367E+02  0.77836184968E+02  0.00000000000E+00 0. -1.
<mgrwt>
<rscale>  1 0.30000000E+03</rscale>
<asrwt>0</asrwt>
<pdfrwt beam="1">  1       21 0.12686766E-01 0.30000000E+03</pdfrwt>
<pdfrwt beam="2">0</pdfrwt>
<totfact> 0.56002831E+03</totfact>
</mgrwt>
</event>
<event>
 6    1  0.1270461E-001  0.3000000E+03  0.7818608E-02  0.1093470E+00
         21   -1    0    0  501  502  0.00000000000E+00  0.00000000000E+00  0.19360775434E+01  0.19360775434E+01  0.00000000000E+00 0. -1.
         13   -1    0    0    0    0 -0.00000000000E+00 -0.00000000000E+00 -0.10000000000E+04  0.10000000000E+04  0.00000000000E+00 0.  1.
    9000005    2    1    2  501    0 -0.26046551200E+02  0.16058613631E+02 -0.85882259564E+03  0.85937223572E+03  0.28437382598E+01 0.  0.
         13    1    3    3    0    0 -0.23790439233E+01  0.16317729455E+01 -0.60773061194E+02  0.60841494885E+02  0.00000000000E+00 0.  1.
          1    1    3    3  501    0 -0.23667507276E+02  0.14426840686E+02 -0.79804953445E+03  0.79853074084E+03  0.00000000000E+00 0.  1.
         -3    1    1    2    0  502  0.26046551200E+02 -0.16058613631E+02 -0.13924132682E+03  0.14256384182E+03  0.00000000000E+00 0. -1.
<mgrwt>
<rscale>  1 0.30000000E+03</rscale>
<asrwt>0</asrwt>
<pdfrwt beam="1">  1       21 0.70402968E-02 0.30000000E+03</pdfrwt>
<pdfrwt beam="2">0</pdfrwt>
<totfact> 0.15974863E+04</totfact>
</mgrwt>
</event>
<event>
 6    1  0.1270461E-001  0.3000000E+03  0.7818608E-02  0.1093470E+00
         21   -1    0    0  501  502  0.00000000000E+00  0.00000000000E+00  0.22567240097E+01  0.22567240097E+01  0.00000000000E+00 0. -1.
         13   -1    0    0    0    0 -0.00000000000E+00 -0.00000000000E+00 -0.10000000000E+04  0.10000000000E+04  0.00000000000E+00 0.  1.
    9000005    2    1    2  501    0 -0.31148054529E+02 -0.21316795532E+02 -0.80282596159E+03  0.80371865077E+03  0.30883523092E+01 0.  0.
         13    1    3    3    0    0 -0.86447975577E+01 -0.74562839785E+01 -0.25567650563E+03  0.25593124902E+03  0.00000000000E+00 0.  1.
          3    1    3    3  501    0 -0.22503256971E+02 -0.13860511553E+02 -0.54714945597E+03  0.54778740175E+03  0.00000000000E+00 0.  1.
         -3    1    1    2    0  502  0.31148054529E+02  0.21316795532E+02 -0.19491731440E+03  0.19853807324E+03  0.00000000000E+00 0. -1.
<mgrwt>
<rscale>  1 0.30000000E+03</rscale>
<asrwt>0</asrwt>
<pdfrwt beam="1">  1       21 0.82062864E-02 0.30000000E+03</pdfrwt>
<pdfrwt beam="2">0</pdfrwt>
<totfact> 0.12214825E+04</totfact>
</mgrwt>
</event>
<event>
 6    1  0.1270461E-001  0.3000000E+03  0.7818608E-02  0.1093470E+00
         21   -1    0    0  501  502  0.00000000000E+00  0.00000000000E+00  0.20509568886E+01  0.20509568886E+01  0.00000000000E+00 0. -1.
         13   -1    0    0    0    0 -0.00000000000E+00 -0.00000000000E+00 -0.10000000000E+04  0.10000000000E+04  0.00000000000E+00 0.  1.
    9000005    2    1    2  501    0 -0.22241588557E+02  0.38313662650E+02 -0.60086976406E+03  0.60250799442E+03  0.29639449632E+01 0.  0.
         13    1    3    3    0    0 -0.67846774534E+01  0.12415327129E+02 -0.17422593108E+03  0.17479944867E+03  0.00000000000E+00 0.  1.
          1    1    3    3  501    0 -0.15456911104E+02  0.25898335522E+02 -0.42664383298E+03  0.42770854575E+03  0.00000000000E+00 0.  1.
         -3    1    1    2    0  502  0.22241588557E+02 -0.38313662650E+02 -0.39707927905E+03  0.39954296247E+03  0.00000000000E+00 0. -1.
<mgrwt>
<rscale>  1 0.30000000E+03</rscale>
<asrwt>0</asrwt>
<pdfrwt beam="1">  1       21 0.74580408E-02 0.30000000E+03</pdfrwt>
<pdfrwt beam="2">0</pdfrwt>
<totfact> 0.14445649E+04</totfact>
</mgrwt>
</event>
<event>
 6    1  0.1270461E-001  0.3000000E+03  0.7818608E-02  0.1093470E+00
         21   -1    0    0  501  502  0.00000000000E+00  0.00000000000E+00  0.27609654218E+01  0.27609654218E+01  0.00000000000E+00 0. -1.
         13   -1    0    0    0    0 -0.00000000000E+00 -0.00000000000E+00 -0.10000000000E+04  0.10000000000E+04  0.00000000000E+00 0.  1.
    9000005    2    1    2  501    0  0.29841667932E+02  0.17500349897E+02 -0.87547266826E+03  0.87617567656E+03  0.58852291804E+01 0.  0.
         13    1    3    3    0    0  0.16075656236E+02  0.12625465047E+02 -0.53282387284E+03  0.53321581799E+03  0.00000000000E+00 0.  1.
          1    1    3    3  501    0  0.13766011696E+02  0.48748848503E+01 -0.34264879542E+03  0.34295985856E+03  0.00000000000E+00 0.  1.
         -3    1    1    2    0  502 -0.29841667932E+02 -0.17500349897E+02 -0.12176636632E+03  0.12658528887E+03  0.00000000000E+00 0. -1.
<mgrwt>
<rscale>  1 0.30000000E+03</rscale>
<asrwt>0</asrwt>
<pdfrwt beam="1">  1       21 0.10039895E-01 0.30000000E+03</pdfrwt>
<pdfrwt beam="2">0</pdfrwt>
<totfact> 0.85422004E+03</totfact>
</mgrwt>
</event>
<event>
 6    1  0.1270461E-001  0.3000000E+03  0.7818608E-02  0.1093470E+00
         21   -1    0    0  501  502  0.00000000000E+00  0.00000000000E+00  0.18377997555E+01  0.18377997555E+01  0.00000000000E+00 0. -1.
         13   -1    0    0    0    0 -0.00000000000E+00 -0.00000000000E+00 -0.10000000000E+04  0.10000000000E+04  0.00000000000E+00 0.  1.
    9000005    2    1    2  501    0 -0.30249755278E+02  0.27526098514E+02 -0.64739429103E+03  0.64869355171E+03  0.33499517061E+01 0.  0.
         13    1    3    3    0    0 -0.30091816896E+02  0.26814210445E+02 -0.63513166384E+03  0.63640926277E+03  0.00000000000E+00 0.  1.
          1    1    3    3  501    0 -0.15793838200E+00  0.71188806969E+00 -0.12262627190E+02  0.12284288940E+02  0.00000000000E+00 0.  1.
         -1    1    1    2    0  502  0.30249755278E+02 -0.27526098514E+02 -0.35076790921E+03  0.35314424804E+03  0.00000000000E+00 0. -1.
<mgrwt>
<rscale>  1 0.30000000E+03</rscale>
<asrwt>0</asrwt>
<pdfrwt beam="1">  1       21 0.66829223E-02 0.30000000E+03</pdfrwt>
<pdfrwt beam="2">0</pdfrwt>
<totfact> 0.17488428E+04</totfact>
</mgrwt>
</event>
<event>
 6    1  0.1270461E-001  0.3000000E+03  0.7818608E-02  0.1093470E+00
         21   -1    0    0  501  502  0.00000000000E+00  0.00000000000E+00  0.14126144825E+01  0.14126144825E+01  0.00000000000E+00 0. -1.
         13   -1    0    0    0    0 -0.00000000000E+00 -0.00000000000E+00 -0.10000000000E+04  0.10000000000E+04  0.00000000000E+00 0.  1.
    9000005    2    1    2  501    0 -0.27432578192E+02  0.14604341649E+02 -0.78015116263E+03  0.78077667768E+03  0.32481853555E+01 0.  0.
         13    1    3    3    0    0 -0.16199021311E+02  0.98663204957E+01 -0.50301902253E+03  0.50337648892E+03  0.00000000000E+00 0.  1.
          1    1    3    3  501    0 -0.11233556881E+02  0.47380211534E+01 -0.27713214011E+03  0.27740018876E+03  0.00000000000E+00 0.  1.
         -1    1    1    2    0  502  0.27432578192E+02 -0.14604341649E+02 -0.21843622288E+03  0.22063593680E+03  0.00000000000E+00 0. -1.
<mgrwt>
<rscale>  1 0.30000000E+03</rscale>
<asrwt>0</asrwt>
<pdfrwt beam="1">  1       21 0.51367908E-02 0.30000000E+03</pdfrwt>
<pdfrwt beam="2">0</pdfrwt>
<totfact> 0.27508459E+04</totfact>
</mgrwt>
</event>
<event>
 6    1  0.1270461E-001  0.3000000E+03  0.7818608E-02  0.1093470E+00
         21   -1    0    0  501  502  0.00000000000E+00  0.00000000000E+00  0.13409313737E+01  0.13409313737E+01  0.00000000000E+00 0. -1.
         13   -1    0    0    0    0 -0.00000000000E+00 -0.00000000000E+00 -0.10000000000E+04  0.10000000000E+04  0.00000000000E+00 0.  1.
    9000005    2    1    2  501    0  0.34669867128E+02 -0.11468815014E+02 -0.47396815881E+03  0.47538077675E+03  0.27448016669E+01 0.  0.
         13    1    3    3    0    0  0.26915923851E+02 -0.78310576571E+01 -0.37012748869E+03  0.37118748673E+03  0.00000000000E+00 0.  1.
          1    1    3    3  501    0  0.77539432771E+01 -0.36377573566E+01 -0.10384067012E+03  0.10419329002E+03  0.00000000000E+00 0.  1.
         -1    1    1    2    0  502 -0.34669867128E+02  0.11468815014E+02 -0.52469090982E+03  0.52596015462E+03  0.00000000000E+00 0. -1.
<mgrwt>
<rscale>  1 0.30000000E+03</rscale>
<asrwt>0</asrwt>
<pdfrwt beam="1">  1       21 0.48761244E-02 0.30000000E+03</pdfrwt>
<pdfrwt beam="2">0</pdfrwt>
<totfact> 0.30062493E+04</totfact>
</mgrwt>
</event>
<event>
 6    1  0.1270461E-001  0.3000000E+03  0.7818608E-02  0.1093470E+00
         21   -1    0    0  501  502  0.00000000000E+00  0.00000000000E+00  0.19408759122E+01  0.19408759122E+01  0.00000000000E+00 0. -1.
         13   -1    0    0    0    0 -0.00000000000E+00 -0.00000000000E+00 -0.10000000000E+04  0.10000000000E+04  0.00000000000E+00 0.  1.
    9000005    2    1    2  501    0  0.34070156999E+02  0.20481386989E+02 -0.28512235950E+03  0.28789669443E+03  0.30796046170E+01 0.  0.
         13    1    3    3    0    0  0.12629128199E+02  0.93269922791E+01 -0.11062982629E+03  0.11173829302E+03  0.00000000000E+00 0.  1.
          3    1    3    3  501    0  0.21441028800E+02  0.11154394709E+02 -0.17449253322E+03  0.17615840140E+03  0.00000000000E+00 0.  1.
         -3    1    1    2    0  502 -0.34070156999E+02 -0.20481386989E+02 -0.71293676459E+03  0.71404418148E+03  0.00000000000E+00 0. -1.
<mgrwt>
<rscale>  1 0.30000000E+03</rscale>
<asrwt>0</asrwt>
<pdfrwt beam="1">  1       21 0.70577455E-02 0.30000000E+03</pdfrwt>
<pdfrwt beam="2">0</pdfrwt>
<totfact> 0.15906154E+04</totfact>
</mgrwt>
</event>
<event>
 6    1  0.1270461E-001  0.3000000E+03  0.7818608E-02  0.1093470E+00
         21   -1    0    0  501  502  0.00000000000E+00  0.00000000000E+00  0.21490104548E+01  0.21490104548E+01  0.00000000000E+00 0. -1.
         13   -1    0    0    0    0 -0.00000000000E+00 -0.00000000000E+00 -0.10000000000E+04  0.10000000000E+04  0.00000000000E+00 0.  1.
    9000005    2    1    2  501    0  0.33168212725E+02  0.31205071142E+02 -0.58836823957E+03  0.59014171765E+03  0.40217870535E+01 0.  0.
         13    1    3    3    0    0  0.58739405103E+01  0.69235175373E+01 -0.13398898130E+03  0.13429625975E+03  0.00000000000E+00 0.  1.
          1    1    3    3  501    0  0.27294272215E+02  0.24281553605E+02 -0.45437925827E+03  0.45584545790E+03  0.00000000000E+00 0.  1.
         -3    1    1    2    0  502 -0.33168212725E+02 -0.31205071142E+02 -0.40948274997E+03  0.41200729281E+03  0.00000000000E+00 0. -1.
<mgrwt>
<rscale>  1 0.30000000E+03</rscale>
<asrwt>0</asrwt>
<pdfrwt beam="1">  1       21 0.78146000E-02 0.30000000E+03</pdfrwt>
<pdfrwt beam="2">0</pdfrwt>
<totfact> 0.13310592E+04</totfact>
</mgrwt>
</event>
<event>
 6    1  0.1270461E-001  0.3000000E+03  0.7818608E-02  0.1093470E+00
         21   -1    0    0  501  502  0.00000000000E+00  0.00000000000E+00  0.12898205413E+01  0.12898205413E+01  0.00000000000E+00 0. -1.
         13   -1    0    0    0    0 -0.00000000000E+00 -0.00000000000E+00 -0.10000000000E+04  0.10000000000E+04  0.00000000000E+00 0.  1.
    9000005    2    1    2  501    0 -0.33275556879E+02  0.13210228961E+02 -0.47610474225E+03  0.47745948939E+03  0.31726298396E+01 0.  0.
         13    1    3    3    0    0 -0.25031436514E+02  0.85552953840E+01 -0.34320020721E+03  0.34421816937E+03  0.00000000000E+00 0.  1.
          1    1    3    3  501    0 -0.82441203653E+01  0.46549335770E+01 -0.13290453504E+03  0.13324132002E+03  0.00000000000E+00 0.  1.
         -3    1    1    2    0  502  0.33275556879E+02 -0.13210228961E+02 -0.52260543721E+03  0.52383033115E+03  0.00000000000E+00 0. -1.
<mgrwt>
<rscale>  1 0.30000000E+03</rscale>
<asrwt>0</asrwt>
<pdfrwt beam="1">  1       21 0.46902664E-02 0.30000000E+03</pdfrwt>
<pdfrwt beam="2">0</pdfrwt>
<totfact> 0.32117336E+04</totfact>
</mgrwt>
</event>
<event>
 6    1  0.1270461E-001  0.3000000E+03  0.7818608E-02  0.1093470E+00
         21   -1    0    0  501  502  0.00000000000E+00  0.00000000000E+00  0.13593152458E+01  0.13593152458E+01  0.00000000000E+00 0. -1.
         13   -1    0    0    0    0 -0.00000000000E+00 -0.00000000000E+00 -0.10000000000E+04  0.10000000000E+04  0.00000000000E+00 0.  1.
    9000005    2    1    2  501    0  0.36692629366E+02 -0.27412843632E+01 -0.50423739100E+03  0.50558872257E+03  0.32781420045E+01 0.  0.
         13    1    3    3    0    0  0.68650314865E+01  0.10692306271E+00 -0.79639408819E+02  0.79934820491E+02  0.00000000000E+00 0.  1.
          3    1    3    3  501    0  0.29827597880E+02 -0.28482074259E+01 -0.42459798218E+03  0.42565390208E+03  0.00000000000E+00 0.  1.
         -1    1    1    2    0  502 -0.36692629366E+02  0.27412843632E+01 -0.49440329375E+03  0.49577059268E+03  0.00000000000E+00 0. -1.
<mgrwt>
<rscale>  1 0.30000000E+03</rscale>
<asrwt>0</asrwt>
<pdfrwt beam="1">  1       21 0.49429750E-02 0.30000000E+03</pdfrwt>
<pdfrwt beam="2">0</pdfrwt>
<totfact> 0.29373288E+04</totfact>
</mgrwt>
</event>
<event>
 6    1  0.1270461E-001  0.3000000E+03  0.7818608E-02  0.1093470E+00
         21   -1    0    0  501  502  0.00000000000E+00  0.00000000000E+00  0.36944142995E+01  0.36944142995E+01  0.00000000000E+00 0. -1.
         13   -1    0    0    0    0 -0.00000000000E+00 -0.00000000000E+00 -0.10000000000E+04  0.10000000000E+04  0.00000000000E+00 0.  1.
    9000005    2    1    2  501    0 -0.30576301300E+02  0.40765443874E+02 -0.77138873671E+03  0.77307715438E+03  0.33123824327E+01 0.  0.
         13    1    3    3    0    0 -0.50409333920E+01  0.73784340295E+01 -0.15432512048E+03  0.15458361850E+03  0.00000000000E+00 0.  1.
          3    1    3    3  501    0 -0.25535367908E+02  0.33387009844E+02 -0.61706361623E+03  0.61849353587E+03  0.00000000000E+00 0.  1.
         -1    1    1    2    0  502  0.30576301300E+02 -0.40765443874E+02 -0.22491684899E+03  0.23061725992E+03  0.00000000000E+00 0. -1.
<mgrwt>
<rscale>  1 0.30000000E+03</rscale>
<asrwt>0</asrwt>
<pdfrwt beam="1">  1       21 0.13434262E-01 0.30000000E+03</pdfrwt>
<pdfrwt beam="2">0</pdfrwt>
<totfact> 0.50441865E+03</totfact>
</mgrwt>
</event>
<event>
 6    1  0.1270461E-001  0.3000000E+03  0.7818608E-02  0.1093470E+00
         21   -1    0    0  501  502  0.00000000000E+00  0.00000000000E+00  0.30359242630E+01  0.30359242630E+01  0.00000000000E+00 0. -1.
         13   -1    0    0    0    0 -0.00000000000E+00 -0.00000000000E+00 -0.10000000000E+04  0.10000000000E+04  0.00000000000E+00 0.  1.
    9000005    2    1    2  501    0 -0.27812052845E+02 -0.21159979844E+02 -0.88613233081E+03  0.88682520740E+03  0.26806232416E+01 0.  0.
         13    1    3    3    0    0 -0.14663764096E+02 -0.11429609727E+02 -0.43784217267E+03  0.43823672841E+03  0.00000000000E+00 0.  1.
          3    1    3    3  501    0 -0.13148288749E+02 -0.97303701172E+01 -0.44829015814E+03  0.44858847899E+03  0.00000000000E+00 0.  1.
         -1    1    1    2    0  502  0.27812052845E+02  0.21159979844E+02 -0.11083174493E+03  0.11621071687E+03  0.00000000000E+00 0. -1.
<mgrwt>
<rscale>  1 0.30000000E+03</rscale>
<asrwt>0</asrwt>
<pdfrwt beam="1">  1       21 0.11039748E-01 0.30000000E+03</pdfrwt>
<pdfrwt beam="2">0</pdfrwt>
<totfact> 0.72051070E+03</totfact>
</mgrwt>
</event>
<event>
 6    1  0.1270461E-001  0.3000000E+03  0.7818608E-02  0.1093470E+00
         21   -1    0    0  501  502  0.00000000000E+00  0.00000000000E+00  0.16633759766E+01  0.16633759766E+01  0.00000000000E+00 0. -1.
         13   -1    0    0    0    0 -0.00000000000E+00 -0.00000000000E+00 -0.10000000000E+04  0.10000000000E+04  0.00000000000E+00 0.  1.
    9000005    2    1    2  501    0  0.31552367655E+02  0.18975078094E+02 -0.71383918568E+03  0.71479337420E+03  0.27530528070E+01 0.  0.
         13    1    3    3    0    0  0.24546533908E+02  0.13403672864E+02 -0.53713684115E+03  0.53786445959E+03  0.00000000000E+00 0.  1.
          1    1    3    3  501    0  0.70058337472E+01  0.55714052302E+01 -0.17670234453E+03  0.17692891461E+03  0.00000000000E+00 0.  1.
         -3    1    1    2    0  502 -0.31552367655E+02 -0.18975078094E+02 -0.28449743834E+03  0.28687000177E+03  0.00000000000E+00 0. -1.
<mgrwt>
<rscale>  1 0.30000000E+03</rscale>
<asrwt>0</asrwt>
<pdfrwt beam="1">  1       21 0.60486527E-02 0.30000000E+03</pdfrwt>
<pdfrwt beam="2">0</pdfrwt>
<totfact> 0.20780160E+04</totfact>
</mgrwt>
</event>
<event>
 6    1  0.1270461E-001  0.3000000E+03  0.7818608E-02  0.1093470E+00
         21   -1    0    0  501  502  0.00000000000E+00  0.00000000000E+00  0.11971278217E+01  0.11971278217E+01  0.00000000000E+00 0. -1.
         13   -1    0    0    0    0 -0.00000000000E+00 -0.00000000000E+00 -0.10000000000E+04  0.10000000000E+04  0.00000000000E+00 0.  1.
    9000005    2    1    2  501    0  0.24511944942E+02  0.23241277689E+02 -0.60364261321E+03  0.60459578806E+03  0.32665000405E+01 0.  0.
         13    1    3    3    0    0  0.48645965826E+01  0.40041258968E+01 -0.13538468714E+03  0.13553121720E+03  0.00000000000E+00 0.  1.
          3    1    3    3  501    0  0.19647348359E+02  0.19237151793E+02 -0.46825792608E+03  0.46906457086E+03  0.00000000000E+00 0.  1.
         -3    1    1    2    0  502 -0.24511944942E+02 -0.23241277689E+02 -0.39516025897E+03  0.39660133976E+03  0.00000000000E+00 0. -1.
<mgrwt>
<rscale>  1 0.30000000E+03</rscale>
<asrwt>0</asrwt>
<pdfrwt beam="1">  1       21 0.43532013E-02 0.30000000E+03</pdfrwt>
<pdfrwt beam="2">0</pdfrwt>
<totfact> 0.36450459E+04</totfact>
</mgrwt>
</event>
<event>
 6    1  0.1270461E-001  0.3000000E+03  0.7818608E-02  0.1093470E+00
         21   -1    0    0  501  502  0.00000000000E+00  0.00000000000E+00  0.28200280788E+01  0.28200280788E+01  0.00000000000E+00 0. -1.
         13   -1    0    0    0    0 -0.00000000000E+00 -0.00000000000E+00 -0.10000000000E+04  0.10000000000E+04  0.00000000000E+00 0.  1.
    9000005    2    1    2  501    0 -0.29685988408E+02 -0.58623249552E+01 -0.91050382303E+03  0.91101382160E+03  0.36533039267E+01 0.  0.
         13    1    3    3    0    0 -0.10420160409E+01 -0.22973005117E+00 -0.17153705279E+02  0.17186860625E+02  0.00000000000E+00 0.  1.
          1    1    3    3  501    0 -0.28643972367E+02 -0.56325949040E+01 -0.89335011775E+03  0.89382696098E+03  0.00000000000E+00 0.  1.
         -1    1    1    2    0  502  0.29685988408E+02  0.58623249552E+01 -0.86676148887E+02  0.91806206476E+02  0.00000000000E+00 0. -1.
<mgrwt>
<rscale>  1 0.30000000E+03</rscale>
<asrwt>0</asrwt>
<pdfrwt beam="1">  1       21 0.10254669E-01 0.30000000E+03</pdfrwt>
<pdfrwt beam="2">0</pdfrwt>
<totfact> 0.82248804E+03</totfact>
</mgrwt>
</event>
<event>
 6    1  0.1270461E-001  0.3000000E+03  0.7818608E-02  0.1093470E+00
         21   -1    0    0  501  502  0.00000000000E+00  0.00000000000E+00  0.23783101831E+01  0.23783101831E+01  0.00000000000E+00 0. -1.
         13   -1    0    0    0    0 -0.00000000000E+00 -0.00000000000E+00 -0.10000000000E+04  0.10000000000E+04  0.00000000000E+00 0.  1.
    9000005    2    1    2  501    0 -0.45397901008E+02  0.17004336746E+02 -0.54927049230E+03  0.55141388453E+03  0.30135467354E+01 0.  0.
         13    1    3    3    0    0 -0.53569246542E+01  0.30640695675E+01 -0.71483401785E+02  0.71749298915E+02  0.00000000000E+00 0.  1.
          3    1    3    3  501    0 -0.40040976353E+02  0.13940267179E+02 -0.47778709051E+03  0.47966458562E+03  0.00000000000E+00 0.  1.
         -3    1    1    2    0  502  0.45397901008E+02 -0.17004336746E+02 -0.44835119752E+03  0.45096442565E+03  0.00000000000E+00 0. -1.
<mgrwt>
<rscale>  1 0.30000000E+03</rscale>
<asrwt>0</asrwt>
<pdfrwt beam="1">  1       21 0.86484189E-02 0.30000000E+03</pdfrwt>
<pdfrwt beam="2">0</pdfrwt>
<totfact> 0.11135875E+04</totfact>
</mgrwt>
</event>
<event>
 6    1  0.1270461E-001  0.3000000E+03  0.7818608E-02  0.1093470E+00
         21   -1    0    0  501  502  0.00000000000E+00  0.00000000000E+00  0.12321559638E+01  0.12321559638E+01  0.00000000000E+00 0. -1.
         13   -1    0    0    0    0 -0.00000000000E+00 -0.00000000000E+00 -0.10000000000E+04  0.10000000000E+04  0.00000000000E+00 0.  1.
    9000005    2    1    2  501    0  0.28359511866E+02 -0.17072358074E+02 -0.66179886107E+03  0.66264121869E+03  0.44637280773E+01 0.  0.
         13    1    3    3    0    0  0.17198731779E+02 -0.12837346395E+02 -0.42925596777E+03  0.42979213546E+03  0.00000000000E+00 0.  1.
          1    1    3    3  501    0  0.11160780087E+02 -0.42350116795E+01 -0.23254289331E+03  0.23284908324E+03  0.00000000000E+00 0.  1.
         -1    1    1    2    0  502 -0.28359511866E+02  0.17072358074E+02 -0.33696898296E+03  0.33859093727E+03  0.00000000000E+00 0. -1.
<mgrwt>
<rscale>  1 0.30000000E+03</rscale>
<asrwt>0</asrwt>
<pdfrwt beam="1">  1       21 0.44805766E-02 0.30000000E+03</pdfrwt>
<pdfrwt beam="2">0</pdfrwt>
<totfact> 0.34712006E+04</totfact>
</mgrwt>
</event>
<event>
 6    1  0.1270461E-001  0.3000000E+03  0.7818608E-02  0.1093470E+00
         21   -1    0    0  501  502  0.00000000000E+00  0.00000000000E+00  0.29773701719E+01  0.29773701719E+01  0.00000000000E+00 0. -1.
         13   -1    0    0    0    0 -0.00000000000E+00 -0.00000000000E+00 -0.10000000000E+04  0.10000000000E+04  0.00000000000E+00 0.  1.
    9000005    2    1    2  501    0  0.43802401679E+02 -0.57142733009E+01 -0.79243325201E+03  0.79367348385E+03  0.39795436583E+01 0.  0.
         13    1    3    3    0    0  0.27803064878E+01  0.11845569227E+00 -0.67146599574E+02  0.67204240717E+02  0.00000000000E+00 0.  1.
          1    1    3    3  501    0  0.41022095192E+02 -0.58327289932E+01 -0.72528665243E+03  0.72646924313E+03  0.00000000000E+00 0.  1.
         -1    1    1    2    0  502 -0.43802401679E+02  0.57142733009E+01 -0.20458937782E+03  0.20930388632E+03  0.00000000000E+00 0. -1.
<mgrwt>
<rscale>  1 0.30000000E+03</rscale>
<asrwt>0</asrwt>
<pdfrwt beam="1">  1       21 0.10826823E-01 0.30000000E+03</pdfrwt>
<pdfrwt beam="2">0</pdfrwt>
<totfact> 0.74619073E+03</totfact>
</mgrwt>
</event>
<event>
 6    1  0.1270461E-001  0.3000000E+03  0.7818608E-02  0.1093470E+00
         21   -1    0    0  501  502  0.00000000000E+00  0.00000000000E+00  0.50868820926E+01  0.50868820926E+01  0.00000000000E+00 0. -1.
         13   -1    0    0    0    0 -0.00000000000E+00 -0.00000000000E+00 -0.10000000000E+04  0.10000000000E+04  0.00000000000E+00 0.  1.
    9000005    2    1    2  501    0 -0.62751670566E+02 -0.25033714689E+02 -0.65798987098E+03  0.66145665445E+03  0.31267192418E+01 0.  0.
         13    1    3    3    0    0 -0.11975680487E+02 -0.43399894023E+01 -0.13571917155E+03  0.13631561156E+03  0.00000000000E+00 0.  1.
          1    1    3    3  501    0 -0.50775990079E+02 -0.20693725286E+02 -0.52227069944E+03  0.52514104289E+03  0.00000000000E+00 0.  1.
         -1    1    1    2    0  502  0.62751670566E+02  0.25033714689E+02 -0.33692324692E+03  0.34363022764E+03  0.00000000000E+00 0. -1.
<mgrwt>
<rscale>  1 0.30000000E+03</rscale>
<asrwt>0</asrwt>
<pdfrwt beam="1">  1       21 0.18497792E-01 0.30000000E+03</pdfrwt>
<pdfrwt beam="2">0</pdfrwt>
<totfact> 0.27826211E+03</totfact>
</mgrwt>
</event>
<event>
 6    1  0.1270461E-001  0.3000000E+03  0.7818608E-02  0.1093470E+00
         21   -1    0    0  501  502  0.00000000000E+00  0.00000000000E+00  0.29303172415E+02  0.29303172415E+02  0.00000000000E+00 0. -1.
         13   -1    0    0    0    0 -0.00000000000E+00 -0.00000000000E+00 -0.10000000000E+04  0.10000000000E+04  0.00000000000E+00 0.  1.
    9000005    2    1    2  501    0 -0.13276310107E+03  0.67836970748E+02 -0.73818398927E+03  0.75309651864E+03  0.32967823646E+01 0.  0.
         13    1    3    3    0    0 -0.32743336381E+02  0.15178191244E+02 -0.18010346771E+03  0.18368386606E+03  0.00000000000E+00 0.  1.
          1    1    3    3  501    0 -0.10001976469E+03  0.52658779504E+02 -0.55808052156E+03  0.56941265259E+03  0.00000000000E+00 0.  1.
         -1    1    1    2    0  502  0.13276310107E+03 -0.67836970748E+02 -0.23251283831E+03  0.27620665377E+03  0.00000000000E+00 0. -1.
<mgrwt>
<rscale>  1 0.30000000E+03</rscale>
<asrwt>0</asrwt>
<pdfrwt beam="1">  1       21 0.10655722E+00 0.30000000E+03</pdfrwt>
<pdfrwt beam="2">0</pdfrwt>
<totfact> 0.62467485E+01</totfact>
</mgrwt>
</event>
<event>
 6    1  0.1270461E-001  0.3000000E+03  0.7818608E-02  0.1093470E+00
         21   -1    0    0  501  502  0.00000000000E+00  0.00000000000E+00  0.28339629762E+01  0.28339629762E+01  0.00000000000E+00 0. -1.
         13   -1    0    0    0    0 -0.00000000000E+00 -0.00000000000E+00 -0.10000000000E+04  0.10000000000E+04  0.00000000000E+00 0.  1.
    9000005    2    1    2  501    0  0.29118930471E+02  0.14324620277E+02 -0.89590211944E+03  0.89649729074E+03  0.36983549042E+01 0.  0.
         13    1    3    3    0    0  0.19252322588E+02  0.83864133630E+01 -0.53688351499E+03  0.53729404661E+03  0.00000000000E+00 0.  1.
          3    1    3    3  501    0  0.98666078829E+01  0.59382069144E+01 -0.35901860446E+03  0.35920324414E+03  0.00000000000E+00 0.  1.
         -1    1    1    2    0  502 -0.29118930471E+02 -0.14324620277E+02 -0.10126391758E+03  0.10633667223E+03  0.00000000000E+00 0. -1.
<mgrwt>
<rscale>  1 0.30000000E+03</rscale>
<asrwt>0</asrwt>
<pdfrwt beam="1">  1       21 0.10305342E-01 0.30000000E+03</pdfrwt>
<pdfrwt beam="2">0</pdfrwt>
<totfact> 0.81526312E+03</totfact>
</mgrwt>
</event>
<event>
 6    1  0.1270461E-001  0.3000000E+03  0.7818608E-02  0.1093470E+00
         21   -1    0    0  501  502  0.00000000000E+00  0.00000000000E+00  0.14883284686E+01  0.14883284686E+01  0.00000000000E+00 0. -1.
         13   -1    0    0    0    0 -0.00000000000E+00 -0.00000000000E+00 -0.10000000000E+04  0.10000000000E+04  0.00000000000E+00 0.  1.
    9000005    2    1    2  501    0  0.30362059523E+02  0.22860922407E+02 -0.41944542852E+03  0.42117617951E+03  0.32295897335E+01 0.  0.
         13    1    3    3    0    0  0.22083716815E+02  0.14820489431E+02 -0.29621445016E+03  0.29740601530E+03  0.00000000000E+00 0.  1.
          1    1    3    3  501    0  0.82783427075E+01  0.80404329757E+01 -0.12323097836E+03  0.12377016421E+03  0.00000000000E+00 0.  1.
         -3    1    1    2    0  502 -0.30362059523E+02 -0.22860922407E+02 -0.57906624302E+03  0.58031214896E+03  0.00000000000E+00 0. -1.
<mgrwt>
<rscale>  1 0.30000000E+03</rscale>
<asrwt>0</asrwt>
<pdfrwt beam="1">  1       21 0.54121149E-02 0.30000000E+03</pdfrwt>
<pdfrwt beam="2">0</pdfrwt>
<totfact> 0.25159148E+04</totfact>
</mgrwt>
</event>
<event>
 6    1  0.1270461E-001  0.3000000E+03  0.7818608E-02  0.1093470E+00
         21   -1    0    0  501  502  0.00000000000E+00  0.00000000000E+00  0.10277906815E+01  0.10277906815E+01  0.00000000000E+00 0. -1.
         13   -1    0    0    0    0 -0.00000000000E+00 -0.00000000000E+00 -0.10000000000E+04  0.10000000000E+04  0.00000000000E+00 0.  1.
    9000005    2    1    2  501    0 -0.11989057266E+01  0.31950772945E+02 -0.48495429946E+03  0.48601643069E+03  0.30015108784E+01 0.  0.
         13    1    3    3    0    0 -0.10037260610E+01  0.75041919844E+01 -0.13135892452E+03  0.13157692585E+03  0.00000000000E+00 0.  1.
          1    1    3    3  501    0 -0.19517966555E+00  0.24446580961E+02 -0.35359537494E+03  0.35443950485E+03  0.00000000000E+00 0.  1.
         -3    1    1    2    0  502  0.11989057266E+01 -0.31950772945E+02 -0.51401790985E+03  0.51501135999E+03  0.00000000000E+00 0. -1.
<mgrwt>
<rscale>  1 0.30000000E+03</rscale>
<asrwt>0</asrwt>
<pdfrwt beam="1">  1       21 0.37374285E-02 0.30000000E+03</pdfrwt>
<pdfrwt beam="2">0</pdfrwt>
<totfact> 0.47132291E+04</totfact>
</mgrwt>
</event>
<event>
 6    1  0.1270461E-001  0.3000000E+03  0.7818608E-02  0.1093470E+00
         21   -1    0    0  501  502  0.00000000000E+00  0.00000000000E+00  0.12482490601E+01  0.12482490601E+01  0.00000000000E+00 0. -1.
         13   -1    0    0    0    0 -0.00000000000E+00 -0.00000000000E+00 -0.10000000000E+04  0.10000000000E+04  0.00000000000E+00 0.  1.
    9000005    2    1    2  501    0  0.33326529747E+01 -0.31043463673E+02 -0.73248357158E+03  0.73315582740E+03  0.32374992514E+01 0.  0.
         13    1    3    3    0    0  0.21570829623E+01 -0.73330667557E+01 -0.18461615832E+03  0.18477432936E+03  0.00000000000E+00 0.  1.
          3    1    3    3  501    0  0.11755700124E+01 -0.23710396917E+02 -0.54786741326E+03  0.54838149804E+03  0.00000000000E+00 0.  1.
         -1    1    1    2    0  502 -0.33326529747E+01  0.31043463673E+02 -0.26626817936E+03  0.26809242166E+03  0.00000000000E+00 0. -1.
<mgrwt>
<rscale>  1 0.30000000E+03</rscale>
<asrwt>0</asrwt>
<pdfrwt beam="1">  1       21 0.45390971E-02 0.30000000E+03</pdfrwt>
<pdfrwt beam="2">0</pdfrwt>
<totfact> 0.33955882E+04</totfact>
</mgrwt>
</event>
<event>
 6    1  0.1270461E-001  0.3000000E+03  0.7818608E-02  0.1093470E+00
         21   -1    0    0  501  502  0.00000000000E+00  0.00000000000E+00  0.13750284995E+01  0.13750284995E+01  0.00000000000E+00 0. -1.
         13   -1    0    0    0    0 -0.00000000000E+00 -0.00000000000E+00 -0.10000000000E+04  0.10000000000E+04  0.00000000000E+00 0.  1.
    9000005    2    1    2  501    0  0.25897532074E+01  0.35680151966E+02 -0.62784318543E+03  0.62887145409E+03  0.35299026713E+01 0.  0.
         13    1    3    3    0    0 -0.61832971989E+00  0.51712063664E+01 -0.10497868356E+03  0.10510779090E+03  0.00000000000E+00 0.  1.
          1    1    3    3  501    0  0.32080829273E+01  0.30508945599E+02 -0.52286450187E+03  0.52376366319E+03  0.00000000000E+00 0.  1.
         -3    1    1    2    0  502 -0.25897532074E+01 -0.35680151966E+02 -0.37078178607E+03  0.37250357441E+03  0.00000000000E+00 0. -1.
<mgrwt>
<rscale>  1 0.30000000E+03</rscale>
<asrwt>0</asrwt>
<pdfrwt beam="1">  1       21 0.50001142E-02 0.30000000E+03</pdfrwt>
<pdfrwt beam="2">0</pdfrwt>
<totfact> 0.28803534E+04</totfact>
</mgrwt>
</event>
<event>
 6    1  0.1270461E-001  0.3000000E+03  0.7818608E-02  0.1093470E+00
         21   -1    0    0  501  502  0.00000000000E+00  0.00000000000E+00  0.20924406188E+01  0.20924406188E+01  0.00000000000E+00 0. -1.
         13   -1    0    0    0    0 -0.00000000000E+00 -0.00000000000E+00 -0.10000000000E+04  0.10000000000E+04  0.00000000000E+00 0.  1.
    9000005    2    1    2  501    0 -0.33887506639E+02 -0.41927167100E+01 -0.83195076690E+03  0.83265927105E+03  0.36662160276E+01 0.  0.
         13    1    3    3    0    0 -0.20611673589E+02 -0.27466058139E+01 -0.54871062827E+03  0.54910448779E+03  0.00000000000E+00 0.  1.
          3    1    3    3  501    0 -0.13275833050E+02 -0.14461108961E+01 -0.28324013863E+03  0.28355478326E+03  0.00000000000E+00 0.  1.
         -3    1    1    2    0  502  0.33887506639E+02  0.41927167100E+01 -0.16595679248E+03  0.16943316957E+03  0.00000000000E+00 0. -1.
<mgrwt>
<rscale>  1 0.30000000E+03</rscale>
<asrwt>0</asrwt>
<pdfrwt beam="1">  1       21 0.76088910E-02 0.30000000E+03</pdfrwt>
<pdfrwt beam="2">0</pdfrwt>
<totfact> 0.13947858E+04</totfact>
</mgrwt>
</event>
<event>
 6    1  0.1270461E-001  0.3000000E+03  0.7818608E-02  0.1093470E+00
         21   -1    0    0  501  502  0.00000000000E+00  0.00000000000E+00  0.12957078151E+01  0.12957078151E+01  0.00000000000E+00 0. -1.
         13   -1    0    0    0    0 -0.00000000000E+00 -0.00000000000E+00 -0.10000000000E+04  0.10000000000E+04  0.00000000000E+00 0.  1.
    9000005    2    1    2  501    0 -0.20250168887E+02  0.24553095916E+02 -0.26821465632E+03  0.27011308222E+03  0.30085652931E+01 0.  0.
         13    1    3    3    0    0 -0.94585570767E+01  0.11347523244E+02 -0.13723966013E+03  0.13803244148E+03  0.00000000000E+00 0.  1.
          1    1    3    3  501    0 -0.10791611811E+02  0.13205572672E+02 -0.13097499618E+03  0.13208064075E+03  0.00000000000E+00 0.  1.
         -1    1    1    2    0  502  0.20250168887E+02 -0.24553095916E+02 -0.73048963587E+03  0.73118262559E+03  0.00000000000E+00 0. -1.
<mgrwt>
<rscale>  1 0.30000000E+03</rscale>
<asrwt>0</asrwt>
<pdfrwt beam="1">  1       21 0.47116747E-02 0.30000000E+03</pdfrwt>
<pdfrwt beam="2">0</pdfrwt>
<totfact> 0.31869614E+04</totfact>
</mgrwt>
</event>
