<event>
 6    1  0.4768011E-003  0.6508175E+03  0.7818608E-02  0.9805246E-01
          1   -1    0    0  502    0  0.00000000000E+00  0.00000000000E+00  0.10591070261E+03  0.10591070261E+03  0.00000000000E+00 0.  1.
         13   -1    0    0    0    0 -0.00000000000E+00 -0.00000000000E+00 -0.10000000000E+04  0.10000000000E+04  0.00000000000E+00 0.  1.
    9000005    2    1    2  501    0  0.16573009537E-01 -0.26943070050E-02 -0.89410512153E+03  0.11058876304E+04  0.65081754926E+03 0.  0.
         13    1    3    3    0    0  0.17524238618E+03 -0.17745584412E+03 -0.80225038413E+03  0.84012269899E+03  0.00000000000E+00 0.  1.
          3    1    3    3  501    0 -0.17522581317E+03  0.17745314981E+03 -0.91854737399E+02  0.26576493140E+03  0.00000000000E+00 0.  1.
         21    1    1    2  502  501 -0.16573009537E-01  0.26943070050E-02  0.15824134214E-01  0.23072216169E-01  0.00000000000E+00 0.  1.
<mgrwt>
<rscale>  1 0.65081755E+03</rscale>
<asrwt>0</asrwt>
<pdfrwt beam="1">  1        1 0.38513064E+00 0.65081755E+03</pdfrwt>
<pdfrwt beam="2">0</pdfrwt>
<totfact> 0.15572875E+00</totfact>
</mgrwt>
</event>
<event>
 6    1  0.4768011E-003  0.6329102E+03  0.7818608E-02  0.9839386E-01
          1   -1    0    0  502    0  0.00000000000E+00  0.00000000000E+00  0.10023803518E+03  0.10023803518E+03  0.00000000000E+00 0.  1.
         13   -1    0    0    0    0 -0.00000000000E+00 -0.00000000000E+00 -0.10000000000E+04  0.10000000000E+04  0.00000000000E+00 0.  1.
    9000005    2    1    2  501    0  0.14018851868E-01  0.62811084373E-02 -0.89985548931E+03  0.11001432575E+04  0.63291017145E+03 0.  0.
         13    1    3    3    0    0  0.30839099062E+03 -0.55136971835E+01 -0.57300485105E+03  0.65074569786E+03  0.00000000000E+00 0.  1.
          1    1    3    3  501    0 -0.30837697177E+03  0.55199782920E+01 -0.32685063826E+03  0.44939755963E+03  0.00000000000E+00 0.  1.
         21    1    1    2  502  501 -0.14018851868E-01 -0.62811084373E-02  0.93524485687E-01  0.94777687004E-01  0.00000000000E+00 0. -1.
<mgrwt>
<rscale>  1 0.63291017E+03</rscale>
<asrwt>0</asrwt>
<pdfrwt beam="1">  1        1 0.36450271E+00 0.63291017E+03</pdfrwt>
<pdfrwt beam="2">0</pdfrwt>
<totfact> 0.19257097E+00</totfact>
</mgrwt>
</event>
<event>
 6    1  0.4768011E-003  0.6174922E+03  0.7818608E-02  0.9869765E-01
          1   -1    0    0  502    0  0.00000000000E+00  0.00000000000E+00  0.95340177461E+02  0.95340177461E+02  0.00000000000E+00 0.  1.
         13   -1    0    0    0    0 -0.00000000000E+00 -0.00000000000E+00 -0.10000000000E+04  0.10000000000E+04  0.00000000000E+00 0.  1.
    9000005    2    1    2  501    0 -0.18745324479E-01  0.29239850036E-01 -0.90465220416E+03  0.10953046191E+04  0.61749218372E+03 0.  0.
         13    1    3    3    0    0 -0.19904304310E+03  0.17760332134E+03 -0.72812535936E+03  0.77545316538E+03  0.00000000000E+00 0.  1.
          3    1    3    3  501    0  0.19902429778E+03 -0.17757408149E+03 -0.17652684481E+03  0.31985145374E+03  0.00000000000E+00 0.  1.
         21    1    1    2  502  501  0.18745324479E-01 -0.29239850036E-01 -0.76183751682E-02  0.35558341639E-01  0.00000000000E+00 0. -1.
<mgrwt>
<rscale>  1 0.61749218E+03</rscale>
<asrwt>0</asrwt>
<pdfrwt beam="1">  1        1 0.34669229E+00 0.61749218E+03</pdfrwt>
<pdfrwt beam="2">0</pdfrwt>
<totfact> 0.23097318E+00</totfact>
</mgrwt>
</event>
<event>
 6    1  0.4768011E-003  0.6230597E+03  0.7818608E-02  0.9858687E-01
          1   -1    0    0  502    0  0.00000000000E+00  0.00000000000E+00  0.97175058253E+02  0.97175058253E+02  0.00000000000E+00 0.  1.
         13   -1    0    0    0    0 -0.00000000000E+00 -0.00000000000E+00 -0.10000000000E+04  0.10000000000E+04  0.00000000000E+00 0.  1.
    9000005    2    1    2  501    0  0.65191906045E-01  0.32679966685E-01 -0.90293732029E+03  0.10970410922E+04  0.62305966673E+03 0.  0.
         13    1    3    3    0    0  0.80379509138E+02  0.23628732145E+03 -0.12317429019E+03  0.27832439622E+03  0.00000000000E+00 0.  1.
          3    1    3    3  501    0 -0.80314317232E+02 -0.23625464149E+03 -0.77976303010E+03  0.81871669598E+03  0.00000000000E+00 0.  1.
         21    1    1    2  502  501 -0.65191906045E-01 -0.32679966685E-01  0.11237854173E+00  0.13396604599E+00  0.00000000000E+00 0. -1.
<mgrwt>
<rscale>  1 0.62305967E+03</rscale>
<asrwt>0</asrwt>
<pdfrwt beam="1">  1        1 0.35336459E+00 0.62305967E+03</pdfrwt>
<pdfrwt beam="2">0</pdfrwt>
<totfact> 0.21580184E+00</totfact>
</mgrwt>
</event>
<event>
 6    1  0.4768011E-003  0.6575298E+03  0.7818608E-02  0.9792752E-01
          1   -1    0    0  502    0  0.00000000000E+00  0.00000000000E+00  0.10808672249E+03  0.10808672249E+03  0.00000000000E+00 0.  1.
         13   -1    0    0    0    0 -0.00000000000E+00 -0.00000000000E+00 -0.10000000000E+04  0.10000000000E+04  0.00000000000E+00 0.  1.
    9000005    2    1    2  501    0  0.75600211142E-03 -0.11757273353E-03 -0.89191314594E+03  0.11080859462E+04  0.65752977439E+03 0.  0.
         13    1    3    3    0    0  0.19150106575E+03 -0.16628242063E+03 -0.93410258568E+02  0.27027389441E+03  0.00000000000E+00 0.  1.
          3    1    3    3  501    0 -0.19150030975E+03  0.16628230306E+03 -0.79850288737E+03  0.83781205176E+03  0.00000000000E+00 0.  1.
         21    1    1    2  502  501 -0.75600211142E-03  0.11757273353E-03 -0.13156711136E-03  0.77631980841E-03  0.00000000000E+00 0. -1.
<mgrwt>
<rscale>  1 0.65752977E+03</rscale>
<asrwt>0</asrwt>
<pdfrwt beam="1">  1        1 0.39304346E+00 0.65752977E+03</pdfrwt>
<pdfrwt beam="2">0</pdfrwt>
<totfact> 0.14346752E+00</totfact>
</mgrwt>
</event>
<event>
 6    1  0.4768011E-003  0.6461367E+03  0.7818608E-02  0.9814056E-01
          1   -1    0    0  502    0  0.00000000000E+00  0.00000000000E+00  0.10674527126E+03  0.10674527126E+03  0.00000000000E+00 0.  1.
         13   -1    0    0    0    0 -0.00000000000E+00 -0.00000000000E+00 -0.10000000000E+04  0.10000000000E+04  0.00000000000E+00 0.  1.
    9000005    2    1    2  501    0  0.10622501613E+01  0.14644170771E+00 -0.89549230294E+03  0.11042640299E+04  0.64613576993E+03 0.  0.
         13    1    3    3    0    0  0.31849494451E+03 -0.20715438077E+02 -0.35738781312E+03  0.47915989818E+03  0.00000000000E+00 0.  1.
          1    1    3    3  501    0 -0.31743269435E+03  0.20861879784E+02 -0.53810448982E+03  0.62510413168E+03  0.00000000000E+00 0.  1.
         21    1    1    2  502  501 -0.10622501613E+01 -0.14644170771E+00  0.22375742033E+01  0.24812414018E+01  0.00000000000E+00 0.  1.
<mgrwt>
<rscale>  1 0.64613666E+03</rscale>
<asrwt>0</asrwt>
<pdfrwt beam="1">  1        1 0.38816544E+00 0.64613666E+03</pdfrwt>
<pdfrwt beam="2">0</pdfrwt>
<totfact> 0.15111690E+00</totfact>
</mgrwt>
</event>
<event>
 6    1  0.4768011E-003  0.6484946E+03  0.7818608E-02  0.9809608E-01
          1   -1    0    0  502    0  0.00000000000E+00  0.00000000000E+00  0.10513634281E+03  0.10513634281E+03  0.00000000000E+00 0.  1.
         13   -1    0    0    0    0 -0.00000000000E+00 -0.00000000000E+00 -0.10000000000E+04  0.10000000000E+04  0.00000000000E+00 0.  1.
    9000005    2    1    2  501    0 -0.10380937709E-04  0.40509251363E-04 -0.89486365619E+03  0.11051363010E+04  0.64849462648E+03 0.  0.
         13    1    3    3    0    0  0.13712225951E+03  0.20328569588E+03 -0.85890568288E+02  0.25981681609E+03  0.00000000000E+00 0.  1.
          3    1    3    3  501    0 -0.13712226989E+03 -0.20328565537E+03 -0.80897308790E+03  0.84531948488E+03  0.00000000000E+00 0.  1.
         21    1    1    2  502  501  0.10380937716E-04 -0.40509251377E-04 -0.10052856385E-05  0.41830298997E-04  0.00000000000E+00 0.  1.
<mgrwt>
<rscale>  1 0.64849463E+03</rscale>
<asrwt>0</asrwt>
<pdfrwt beam="1">  1        1 0.38231478E+00 0.64849463E+03</pdfrwt>
<pdfrwt beam="2">0</pdfrwt>
<totfact> 0.16032531E+00</totfact>
</mgrwt>
</event>
<event>
 6    1  0.4768011E-003  0.6758248E+03  0.7818608E-02  0.9759492E-01
          1   -1    0    0  502    0  0.00000000000E+00  0.00000000000E+00  0.11602428632E+03  0.11602428632E+03  0.00000000000E+00 0.  1.
         13   -1    0    0    0    0 -0.00000000000E+00 -0.00000000000E+00 -0.10000000000E+04  0.10000000000E+04  0.00000000000E+00 0.  1.
    9000005    2    1    2  501    0  0.68927060849E-03  0.62342238126E-01 -0.88581461478E+03  0.11141843286E+04  0.67582481644E+03 0.  0.
         13    1    3    3    0    0  0.32040994280E+01 -0.84985262208E+02 -0.98204339491E+03  0.98571902210E+03  0.00000000000E+00 0.  1.
          1    1    3    3  501    0 -0.32034101574E+01  0.85047604446E+02  0.96228780122E+02  0.12846530653E+03  0.00000000000E+00 0.  1.
         21    1    1    2  502  501 -0.68927060849E-03 -0.62342238126E-01  0.18389011040E+01  0.18399576898E+01  0.00000000000E+00 0. -1.
<mgrwt>
<rscale>  1 0.67582482E+03</rscale>
<asrwt>0</asrwt>
<pdfrwt beam="1">  1        1 0.42190739E+00 0.67582482E+03</pdfrwt>
<pdfrwt beam="2">0</pdfrwt>
<totfact> 0.10616015E+00</totfact>
</mgrwt>
</event>
<event>
 6    1  0.4768011E-003  0.6454534E+03  0.7818608E-02  0.9815348E-01
          3   -1    0    0  502    0  0.00000000000E+00  0.00000000000E+00  0.10416102942E+03  0.10416102942E+03  0.00000000000E+00 0.  1.
         13   -1    0    0    0    0 -0.00000000000E+00 -0.00000000000E+00 -0.10000000000E+04  0.10000000000E+04  0.00000000000E+00 0.  1.
    9000005    2    1    2  501    0  0.76747801776E-03 -0.33167937288E-02 -0.89584710636E+03  0.11041522101E+04  0.64545337942E+03 0.  0.
         13    1    3    3    0    0  0.25147433077E+03 -0.19188458655E+03 -0.55738510881E+03  0.64088781633E+03  0.00000000000E+00 0.  1.
          3    1    3    3  501    0 -0.25147356329E+03  0.19188126976E+03 -0.33846199755E+03  0.46326439374E+03  0.00000000000E+00 0.  1.
         21    1    1    2  502  501 -0.76747801777E-03  0.33167937288E-02  0.81357788614E-02  0.88193560325E-02  0.00000000000E+00 0.  1.
<mgrwt>
<rscale>  1 0.64545338E+03</rscale>
<asrwt>0</asrwt>
<pdfrwt beam="1">  1        3 0.37876818E+00 0.64545338E+03</pdfrwt>
<pdfrwt beam="2">0</pdfrwt>
<totfact> 0.76676373E-02</totfact>
</mgrwt>
</event>
<event>
 6    1  0.4768011E-003  0.6227960E+03  0.7818608E-02  0.9859209E-01
          1   -1    0    0  502    0  0.00000000000E+00  0.00000000000E+00  0.96968776618E+02  0.96968776618E+02  0.00000000000E+00 0.  1.
         13   -1    0    0    0    0 -0.00000000000E+00 -0.00000000000E+00 -0.10000000000E+04  0.10000000000E+04  0.00000000000E+00 0.  1.
    9000005    2    1    2  501    0  0.75586701939E-04 -0.87451908612E-05 -0.90303126004E+03  0.10969686922E+04  0.62279599787E+03 0.  0.
         13    1    3    3    0    0  0.30812811810E+03 -0.40880295964E+02 -0.48468364674E+03  0.57578847954E+03  0.00000000000E+00 0.  1.
          1    1    3    3  501    0 -0.30812804251E+03  0.40880287219E+02 -0.41834761330E+03  0.52118021262E+03  0.00000000000E+00 0.  1.
         21    1    1    2  502  501 -0.75586701950E-04  0.87451908599E-05  0.36657004003E-04  0.84460427523E-04  0.00000000000E+00 0. -1.
<mgrwt>
<rscale>  1 0.62279600E+03</rscale>
<asrwt>0</asrwt>
<pdfrwt beam="1">  1        1 0.35261448E+00 0.62279600E+03</pdfrwt>
<pdfrwt beam="2">0</pdfrwt>
<totfact> 0.21744411E+00</totfact>
</mgrwt>
</event>
<event>
 6    1  0.4768011E-003  0.6393868E+03  0.7818608E-02  0.9826901E-01
          1   -1    0    0  502    0  0.00000000000E+00  0.00000000000E+00  0.10220504307E+03  0.10220504307E+03  0.00000000000E+00 0.  1.
         13   -1    0    0    0    0 -0.00000000000E+00 -0.00000000000E+00 -0.10000000000E+04  0.10000000000E+04  0.00000000000E+00 0.  1.
    9000005    2    1    2  501    0  0.12944820614E-02 -0.94713889414E-03 -0.89779551505E+03  0.11022033448E+04  0.63938675804E+03 0.  0.
         13    1    3    3    0    0  0.21307804177E+03 -0.24409365611E+02 -0.85758441409E+03  0.88399609519E+03  0.00000000000E+00 0.  1.
          3    1    3    3  501    0 -0.21307674729E+03  0.24408418472E+02 -0.40211100959E+02  0.21820724957E+03  0.00000000000E+00 0.  1.
         21    1    1    2  502  501 -0.12944820614E-02  0.94713889414E-03  0.55811475923E-03  0.16983073858E-02  0.00000000000E+00 0. -1.
<mgrwt>
<rscale>  1 0.63938676E+03</rscale>
<asrwt>0</asrwt>
<pdfrwt beam="1">  1        1 0.37165549E+00 0.63938676E+03</pdfrwt>
<pdfrwt beam="2">0</pdfrwt>
<totfact> 0.17893355E+00</totfact>
</mgrwt>
</event>
<event>
 6    1  0.4768011E-003  0.6432106E+03  0.7818608E-02  0.9819603E-01
          1   -1    0    0  502    0  0.00000000000E+00  0.00000000000E+00  0.10344406797E+03  0.10344406797E+03  0.00000000000E+00 0.  1.
         13   -1    0    0    0    0 -0.00000000000E+00 -0.00000000000E+00 -0.10000000000E+04  0.10000000000E+04  0.00000000000E+00 0.  1.
    9000005    2    1    2  501    0  0.21317838131E-01  0.73300144944E-02 -0.89655931642E+03  0.11034212725E+04  0.64321061577E+03 0.  0.
         13    1    3    3    0    0 -0.16726780314E+03  0.24194500905E+03 -0.67137043623E+03  0.73297623974E+03  0.00000000000E+00 0.  1.
          3    1    3    3  501    0  0.16728912098E+03 -0.24193767904E+03 -0.22518888019E+03  0.37044503276E+03  0.00000000000E+00 0.  1.
         21    1    1    2  502  501 -0.21317838131E-01 -0.73300144944E-02  0.33843947751E-02  0.22795470231E-01  0.00000000000E+00 0. -1.
<mgrwt>
<rscale>  1 0.64321062E+03</rscale>
<asrwt>0</asrwt>
<pdfrwt beam="1">  1        1 0.37616104E+00 0.64321062E+03</pdfrwt>
<pdfrwt beam="2">0</pdfrwt>
<totfact> 0.17083055E+00</totfact>
</mgrwt>
</event>
<event>
 6    1  0.4768011E-003  0.5187281E+03  0.7818608E-02  0.1009003E+00
          1   -1    0    0  502    0  0.00000000000E+00  0.00000000000E+00  0.68247982869E+02  0.68247982869E+02  0.00000000000E+00 0.  1.
         13   -1    0    0    0    0 -0.00000000000E+00 -0.00000000000E+00 -0.10000000000E+04  0.10000000000E+04  0.00000000000E+00 0.  1.
    9000005    2    1    2  501    0 -0.24850119083E-01 -0.19674951259E-01 -0.93273001726E+03  0.10672694693E+04  0.51872809245E+03 0.  0.
         13    1    3    3    0    0 -0.23735773570E+02  0.16525849922E+03 -0.87471788492E+03  0.89050835858E+03  0.00000000000E+00 0.  1.
          3    1    3    3  501    0  0.23710923451E+02 -0.16527817417E+03 -0.58012132349E+02  0.17676111067E+03  0.00000000000E+00 0.  1.
         21    1    1    2  502  501  0.24850119083E-01  0.19674951259E-01  0.97800013407E+00  0.97851361481E+00  0.00000000000E+00 0.  1.
<mgrwt>
<rscale>  1 0.51872809E+03</rscale>
<asrwt>0</asrwt>
<pdfrwt beam="1">  1        1 0.24817501E+00 0.51872809E+03</pdfrwt>
<pdfrwt beam="2">0</pdfrwt>
<totfact> 0.62700740E+00</totfact>
</mgrwt>
</event>
<event>
 6    1  0.4768011E-003  0.6514794E+03  0.7818608E-02  0.9804007E-01
          1   -1    0    0  502    0  0.00000000000E+00  0.00000000000E+00  0.10926802039E+03  0.10926802039E+03  0.00000000000E+00 0.  1.
         13   -1    0    0    0    0 -0.00000000000E+00 -0.00000000000E+00 -0.10000000000E+04  0.10000000000E+04  0.00000000000E+00 0.  1.
    9000005    2    1    2  501    0 -0.16557142532E+00 -0.30940221452E+00 -0.89388288093E+03  0.11060976383E+04  0.65147928396E+03 0.  0.
         13    1    3    3    0    0  0.83057375642E+02  0.31467256743E+03 -0.46168746287E+03  0.56486517481E+03  0.00000000000E+00 0.  1.
          3    1    3    3  501    0 -0.83222947067E+02 -0.31498196964E+03 -0.43219541806E+03  0.54123246347E+03  0.00000000000E+00 0.  1.
         21    1    1    2  502  501  0.16557142532E+00  0.30940221452E+00  0.31509013229E+01  0.31703821179E+01  0.00000000000E+00 0. -1.
<mgrwt>
<rscale>  1 0.65147938E+03</rscale>
<asrwt>0</asrwt>
<pdfrwt beam="1">  1        1 0.39733909E+00 0.65147938E+03</pdfrwt>
<pdfrwt beam="2">0</pdfrwt>
<totfact> 0.13745013E+00</totfact>
</mgrwt>
</event>
<event>
 6    1  0.4768011E-003  0.6418481E+03  0.7818608E-02  0.9822197E-01
          1   -1    0    0  502    0  0.00000000000E+00  0.00000000000E+00  0.10299333015E+03  0.10299333015E+03  0.00000000000E+00 0.  1.
         13   -1    0    0    0    0 -0.00000000000E+00 -0.00000000000E+00 -0.10000000000E+04  0.10000000000E+04  0.00000000000E+00 0.  1.
    9000005    2    1    2  501    0  0.31887870904E-04  0.17170218734E-03 -0.89700773321E+03  0.11029922525E+04  0.64184814071E+03 0.  0.
         13    1    3    3    0    0 -0.14741708711E+03  0.28483549176E+03 -0.42896720783E+03  0.53560799128E+03  0.00000000000E+00 0.  1.
          1    1    3    3  501    0  0.14741711900E+03 -0.28483532006E+03 -0.46804052538E+03  0.56738426126E+03  0.00000000000E+00 0.  1.
         21    1    1    2  502  501 -0.31887870924E-04 -0.17170218735E-03  0.10633597679E-02  0.10776049710E-02  0.00000000000E+00 0.  1.
<mgrwt>
<rscale>  1 0.64184814E+03</rscale>
<asrwt>0</asrwt>
<pdfrwt beam="1">  1        1 0.37452199E+00 0.64184814E+03</pdfrwt>
<pdfrwt beam="2">0</pdfrwt>
<totfact> 0.17373597E+00</totfact>
</mgrwt>
</event>
<event>
 6    1  0.4768011E-003  0.6429462E+03  0.7818608E-02  0.9820106E-01
          1   -1    0    0  502    0  0.00000000000E+00  0.00000000000E+00  0.10478149739E+03  0.10478149739E+03  0.00000000000E+00 0.  1.
         13   -1    0    0    0    0 -0.00000000000E+00 -0.00000000000E+00 -0.10000000000E+04  0.10000000000E+04  0.00000000000E+00 0.  1.
    9000005    2    1    2  501    0 -0.36027412297E+00 -0.20781474587E+00 -0.89662175931E+03  0.11033179012E+04  0.64294606218E+03 0.  0.
         13    1    3    3    0    0  0.27529244278E+03  0.16242748244E+03 -0.39259264203E+03  0.50625843073E+03  0.00000000000E+00 0.  1.
          3    1    3    3  501    0 -0.27565271690E+03 -0.16263529719E+03 -0.50402911727E+03  0.59705947048E+03  0.00000000000E+00 0.  1.
         21    1    1    2  502  501  0.36027412297E+00  0.20781474587E+00  0.14032566947E+01  0.14635961750E+01  0.00000000000E+00 0.  1.
<mgrwt>
<rscale>  1 0.64294620E+03</rscale>
<asrwt>0</asrwt>
<pdfrwt beam="1">  1        1 0.38102443E+00 0.64294620E+03</pdfrwt>
<pdfrwt beam="2">0</pdfrwt>
<totfact> 0.16260894E+00</totfact>
</mgrwt>
</event>
<event>
 6    1  0.4768011E-003  0.6520850E+03  0.7818608E-02  0.9802875E-01
          1   -1    0    0  502    0  0.00000000000E+00  0.00000000000E+00  0.10630371564E+03  0.10630371564E+03  0.00000000000E+00 0.  1.
         13   -1    0    0    0    0 -0.00000000000E+00 -0.00000000000E+00 -0.10000000000E+04  0.10000000000E+04  0.00000000000E+00 0.  1.
    9000005    2    1    2  501    0 -0.49309961639E-04  0.87920718812E-05 -0.89369625709E+03  0.11063036586E+04  0.65208495237E+03 0.  0.
         13    1    3    3    0    0  0.31017722063E+03 -0.95224561021E+02 -0.39250360995E+03  0.50925112572E+03  0.00000000000E+00 0.  1.
          1    1    3    3  501    0 -0.31017726994E+03  0.95224569813E+02 -0.50119264714E+03  0.59705253290E+03  0.00000000000E+00 0.  1.
         21    1    1    2  502  501  0.49309961636E-04 -0.87920718703E-05 -0.27266211180E-04  0.57028230872E-04  0.00000000000E+00 0. -1.
<mgrwt>
<rscale>  1 0.65208495E+03</rscale>
<asrwt>0</asrwt>
<pdfrwt beam="1">  1        1 0.38655978E+00 0.65208495E+03</pdfrwt>
<pdfrwt beam="2">0</pdfrwt>
<totfact> 0.15344153E+00</totfact>
</mgrwt>
</event>
<event>
 6    1  0.4768011E-003  0.6564537E+03  0.7818608E-02  0.9794744E-01
          1   -1    0    0  502    0  0.00000000000E+00  0.00000000000E+00  0.10778662166E+03  0.10778662166E+03  0.00000000000E+00 0.  1.
         13   -1    0    0    0    0 -0.00000000000E+00 -0.00000000000E+00 -0.10000000000E+04  0.10000000000E+04  0.00000000000E+00 0.  1.
    9000005    2    1    2  501    0  0.60987352547E-02  0.11382371527E-01 -0.89226626504E+03  0.11077321813E+04  0.65645372840E+03 0.  0.
         13    1    3    3    0    0 -0.32465371037E+03 -0.46379993558E+02 -0.42353684768E+03  0.53566276406E+03  0.00000000000E+00 0.  1.
          1    1    3    3  501    0  0.32465980910E+03  0.46391375930E+02 -0.46872941736E+03  0.57206941721E+03  0.00000000000E+00 0.  1.
         21    1    1    2  502  501 -0.60987352547E-02 -0.11382371527E-01  0.52886702652E-01  0.54440391904E-01  0.00000000000E+00 0.  1.
<mgrwt>
<rscale>  1 0.65645373E+03</rscale>
<asrwt>0</asrwt>
<pdfrwt beam="1">  1        1 0.39195218E+00 0.65645373E+03</pdfrwt>
<pdfrwt beam="2">0</pdfrwt>
<totfact> 0.14510638E+00</totfact>
</mgrwt>
</event>
<event>
 6    1  0.4768011E-003  0.6462603E+03  0.7818608E-02  0.9813822E-01
          1   -1    0    0  502    0  0.00000000000E+00  0.00000000000E+00  0.10441313129E+03  0.10441313129E+03  0.00000000000E+00 0.  1.
         13   -1    0    0    0    0 -0.00000000000E+00 -0.00000000000E+00 -0.10000000000E+04  0.10000000000E+04  0.00000000000E+00 0.  1.
    9000005    2    1    2  501    0 -0.23718898248E-04 -0.79762831547E-04 -0.89558683265E+03  0.11044130406E+04  0.64626031089E+03 0.  0.
         13    1    3    3    0    0 -0.47377276404E+02  0.64519230719E+02  0.87201726505E+02  0.11837009148E+03  0.00000000000E+00 0.  1.
          3    1    3    3  501    0  0.47377252685E+02 -0.64519310482E+02 -0.98278855915E+03  0.98604294912E+03  0.00000000000E+00 0.  1.
         21    1    1    2  502  501  0.23718898244E-04  0.79762831548E-04 -0.36061640002E-04  0.90692542748E-04  0.00000000000E+00 0. -1.
<mgrwt>
<rscale>  1 0.64626031E+03</rscale>
<asrwt>0</asrwt>
<pdfrwt beam="1">  1        1 0.37968491E+00 0.64626031E+03</pdfrwt>
<pdfrwt beam="2">0</pdfrwt>
<totfact> 0.16473653E+00</totfact>
</mgrwt>
</event>
<event>
 6    1  0.4768011E-003  0.6506027E+03  0.7818608E-02  0.9805649E-01
          1   -1    0    0  502    0  0.00000000000E+00  0.00000000000E+00  0.10604933298E+03  0.10604933298E+03  0.00000000000E+00 0.  1.
         13   -1    0    0    0    0 -0.00000000000E+00 -0.00000000000E+00 -0.10000000000E+04  0.10000000000E+04  0.00000000000E+00 0.  1.
    9000005    2    1    2  501    0 -0.80244475302E-01 -0.18788164376E-01 -0.89417076462E+03  0.11058143114E+04  0.65060274229E+03 0.  0.
         13    1    3    3    0    0  0.12018458088E+03  0.28075510870E+03 -0.63737437047E+03  0.70676293952E+03  0.00000000000E+00 0.  1.
          3    1    3    3  501    0 -0.12026482536E+03 -0.28077389687E+03 -0.25679639416E+03  0.39905137192E+03  0.00000000000E+00 0.  1.
         21    1    1    2  502  501  0.80244475302E-01  0.18788164376E-01  0.22009760753E+00  0.23502154747E+00  0.00000000000E+00 0.  1.
<mgrwt>
<rscale>  1 0.65060275E+03</rscale>
<asrwt>0</asrwt>
<pdfrwt beam="1">  1        1 0.38563475E+00 0.65060275E+03</pdfrwt>
<pdfrwt beam="2">0</pdfrwt>
<totfact> 0.15493724E+00</totfact>
</mgrwt>
</event>
<event>
 6    1  0.4768011E-003  0.6556686E+03  0.7818608E-02  0.9796200E-01
          1   -1    0    0  502    0  0.00000000000E+00  0.00000000000E+00  0.11096233923E+03  0.11096233923E+03  0.00000000000E+00 0.  1.
         13   -1    0    0    0    0 -0.00000000000E+00 -0.00000000000E+00 -0.10000000000E+04  0.10000000000E+04  0.00000000000E+00 0.  1.
    9000005    2    1    2  501    0 -0.64487691662E+00 -0.13580796639E+00 -0.89249016068E+03  0.11074475041E+04  0.65566824937E+03 0.  0.
         13    1    3    3    0    0 -0.19787783907E+03  0.16814047414E+03 -0.78491486322E+03  0.82675159555E+03  0.00000000000E+00 0.  1.
          3    1    3    3  501    0  0.19723296216E+03 -0.16827628211E+03 -0.10757529745E+03  0.28069590860E+03  0.00000000000E+00 0.  1.
         21    1    1    2  502  501  0.64487691662E+00  0.13580796639E+00  0.34524999087E+01  0.35148350830E+01  0.00000000000E+00 0.  1.
<mgrwt>
<rscale>  1 0.65566858E+03</rscale>
<asrwt>0</asrwt>
<pdfrwt beam="1">  1        1 0.40350027E+00 0.65566858E+03</pdfrwt>
<pdfrwt beam="2">0</pdfrwt>
<totfact> 0.12892239E+00</totfact>
</mgrwt>
</event>
<event>
 6    1  0.4768011E-003  0.6334877E+03  0.7818608E-02  0.9838266E-01
          1   -1    0    0  502    0  0.00000000000E+00  0.00000000000E+00  0.10068234489E+03  0.10068234489E+03  0.00000000000E+00 0.  1.
         13   -1    0    0    0    0 -0.00000000000E+00 -0.00000000000E+00 -0.10000000000E+04  0.10000000000E+04  0.00000000000E+00 0.  1.
    9000005    2    1    2  501    0 -0.45202539824E-02  0.78612542449E-02 -0.89967326417E+03  0.11003266202E+04  0.63348771798E+03 0.  0.
         13    1    3    3    0    0  0.31237008841E+03  0.39002620469E+02 -0.38893508638E+03  0.50036664353E+03  0.00000000000E+00 0.  1.
          3    1    3    3  501    0 -0.31237460867E+03 -0.38994759215E+02 -0.51073817779E+03  0.59995997669E+03  0.00000000000E+00 0.  1.
         21    1    1    2  502  501  0.45202539824E-02 -0.78612542449E-02  0.35560905716E+00  0.35572465974E+00  0.00000000000E+00 0. -1.
<mgrwt>
<rscale>  1 0.63348772E+03</rscale>
<asrwt>0</asrwt>
<pdfrwt beam="1">  1        1 0.36611839E+00 0.63348772E+03</pdfrwt>
<pdfrwt beam="2">0</pdfrwt>
<totfact> 0.18943667E+00</totfact>
</mgrwt>
</event>
<event>
 6    1  0.4768011E-003  0.6316250E+03  0.7818608E-02  0.9841883E-01
          1   -1    0    0  502    0  0.00000000000E+00  0.00000000000E+00  0.99737543269E+02  0.99737543269E+02  0.00000000000E+00 0.  1.
         13   -1    0    0    0    0 -0.00000000000E+00 -0.00000000000E+00 -0.10000000000E+04  0.10000000000E+04  0.00000000000E+00 0.  1.
    9000005    2    1    2  501    0 -0.67791851848E-05 -0.40545376123E-06 -0.90026245327E+03  0.10997375356E+04  0.63162501735E+03 0.  0.
         13    1    3    3    0    0  0.16855626545E+03 -0.20224247270E+03 -0.14643452346E+03  0.30125786636E+03  0.00000000000E+00 0.  1.
          3    1    3    3  501    0 -0.16855627223E+03  0.20224247229E+03 -0.75382792980E+03  0.79847966928E+03  0.00000000000E+00 0.  1.
         21    1    1    2  502  501  0.67791851986E-05  0.40545374950E-06 -0.34652555551E-05  0.76242862460E-05  0.00000000000E+00 0.  1.
<mgrwt>
<rscale>  1 0.63162502E+03</rscale>
<asrwt>0</asrwt>
<pdfrwt beam="1">  1        1 0.36268274E+00 0.63162502E+03</pdfrwt>
<pdfrwt beam="2">0</pdfrwt>
<totfact> 0.19618373E+00</totfact>
</mgrwt>
</event>
<event>
 6    1  0.4768011E-003  0.6425464E+03  0.7818608E-02  0.9820867E-01
          1   -1    0    0  502    0  0.00000000000E+00  0.00000000000E+00  0.10417502705E+03  0.10417502705E+03  0.00000000000E+00 0.  1.
         13   -1    0    0    0    0 -0.00000000000E+00 -0.00000000000E+00 -0.10000000000E+04  0.10000000000E+04  0.00000000000E+00 0.  1.
    9000005    2    1    2  501    0 -0.33091840973E-01 -0.32593037856E-01 -0.89678292097E+03  0.11032159536E+04  0.64254636476E+03 0.  0.
         13    1    3    3    0    0 -0.10810535688E+03 -0.29404152478E+03 -0.32601710235E+03  0.45214415567E+03  0.00000000000E+00 0.  1.
          3    1    3    3  501    0  0.10807226504E+03  0.29400893174E+03 -0.57076581862E+03  0.65107179798E+03  0.00000000000E+00 0.  1.
         21    1    1    2  502  501  0.33091840973E-01  0.32593037856E-01  0.95794802884E+00  0.95907340804E+00  0.00000000000E+00 0.  1.
<mgrwt>
<rscale>  1 0.64254637E+03</rscale>
<asrwt>0</asrwt>
<pdfrwt beam="1">  1        1 0.37881908E+00 0.64254637E+03</pdfrwt>
<pdfrwt beam="2">0</pdfrwt>
<totfact> 0.16630503E+00</totfact>
</mgrwt>
</event>
<event>
 6    1  0.4768011E-003  0.6596651E+03  0.7818608E-02  0.9788810E-01
          1   -1    0    0  502    0  0.00000000000E+00  0.00000000000E+00  0.10878961898E+03  0.10878961898E+03  0.00000000000E+00 0.  1.
         13   -1    0    0    0    0 -0.00000000000E+00 -0.00000000000E+00 -0.10000000000E+04  0.10000000000E+04  0.00000000000E+00 0.  1.
    9000005    2    1    2  501    0 -0.22318364699E-04  0.11952760119E-04 -0.89121049590E+03  0.11087895013E+04  0.65966507431E+03 0.  0.
         13    1    3    3    0    0  0.31989044057E+03 -0.69538862975E+02 -0.37787047702E+03  0.49995164249E+03  0.00000000000E+00 0.  1.
          3    1    3    3  501    0 -0.31989046289E+03  0.69538874928E+02 -0.51334001889E+03  0.60883785885E+03  0.00000000000E+00 0.  1.
         21    1    1    2  502  501  0.22318364723E-04 -0.11952760108E-04  0.11488305698E-03  0.11763968148E-03  0.00000000000E+00 0. -1.
<mgrwt>
<rscale>  1 0.65966507E+03</rscale>
<asrwt>0</asrwt>
<pdfrwt beam="1">  1        1 0.39559945E+00 0.65966507E+03</pdfrwt>
<pdfrwt beam="2">0</pdfrwt>
<totfact> 0.13970732E+00</totfact>
</mgrwt>
</event>
<event>
 6    1  0.4768011E-003  0.6503506E+03  0.7818608E-02  0.9806121E-01
          1   -1    0    0  502    0  0.00000000000E+00  0.00000000000E+00  0.10573965444E+03  0.10573965444E+03  0.00000000000E+00 0.  1.
         13   -1    0    0    0    0 -0.00000000000E+00 -0.00000000000E+00 -0.10000000000E+04  0.10000000000E+04  0.00000000000E+00 0.  1.
    9000005    2    1    2  501    0  0.51665453807E-03 -0.72778740488E-03 -0.89426065949E+03  0.11057387083E+04  0.65035064691E+03 0.  0.
         13    1    3    3    0    0 -0.22752398285E+03 -0.21341545625E+03 -0.60319636117E+03  0.67908701200E+03  0.00000000000E+00 0.  1.
          3    1    3    3  501    0  0.22752449951E+03  0.21341472847E+03 -0.29106429832E+03  0.42665169630E+03  0.00000000000E+00 0.  1.
         21    1    1    2  502  501 -0.51665453809E-03  0.72778740489E-03  0.31393074256E-03  0.94612838958E-03  0.00000000000E+00 0.  1.
<mgrwt>
<rscale>  1 0.65035065E+03</rscale>
<asrwt>0</asrwt>
<pdfrwt beam="1">  1        1 0.38450865E+00 0.65035065E+03</pdfrwt>
<pdfrwt beam="2">0</pdfrwt>
<totfact> 0.15673184E+00</totfact>
</mgrwt>
</event>
<event>
 6    1  0.4768011E-003  0.6530139E+03  0.7818608E-02  0.9801140E-01
          1   -1    0    0  502    0  0.00000000000E+00  0.00000000000E+00  0.10660683567E+03  0.10660683567E+03  0.00000000000E+00 0.  1.
         13   -1    0    0    0    0 -0.00000000000E+00 -0.00000000000E+00 -0.10000000000E+04  0.10000000000E+04  0.00000000000E+00 0.  1.
    9000005    2    1    2  501    0  0.55107637962E-04 -0.32492676382E-04 -0.89339320768E+03  0.11066067584E+04  0.65301385452E+03 0.  0.
         13    1    3    3    0    0  0.23224943400E+03  0.20835850234E+03 -0.28368109012E+03  0.42169660419E+03  0.00000000000E+00 0.  1.
          3    1    3    3  501    0 -0.23224937889E+03 -0.20835853484E+03 -0.60971211756E+03  0.68491015420E+03  0.00000000000E+00 0.  1.
         21    1    1    2  502  501 -0.55107637943E-04  0.32492676367E-04  0.43345036697E-04  0.77274950556E-04  0.00000000000E+00 0. -1.
<mgrwt>
<rscale>  1 0.65301385E+03</rscale>
<asrwt>0</asrwt>
<pdfrwt beam="1">  1        1 0.38766204E+00 0.65301385E+03</pdfrwt>
<pdfrwt beam="2">0</pdfrwt>
<totfact> 0.15170065E+00</totfact>
</mgrwt>
</event>
<event>
 6    1  0.4768011E-003  0.5998510E+03  0.7818608E-02  0.9905715E-01
          1   -1    0    0  502    0  0.00000000000E+00  0.00000000000E+00  0.89955455540E+02  0.89955455540E+02  0.00000000000E+00 0.  1.
         13   -1    0    0    0    0 -0.00000000000E+00 -0.00000000000E+00 -0.10000000000E+04  0.10000000000E+04  0.00000000000E+00 0.  1.
    9000005    2    1    2  501    0 -0.24083525005E-04  0.11065134012E-03 -0.91004468422E+03  0.10899552757E+04  0.59985096120E+03 0.  0.
         13    1    3    3    0    0  0.41090049512E+02  0.32036263232E+02  0.81669001981E+02  0.96873836588E+02  0.00000000000E+00 0.  1.
          3    1    3    3  501    0 -0.41090073596E+02 -0.32036152581E+02 -0.99171368620E+03  0.99308143907E+03  0.00000000000E+00 0.  1.
         21    1    1    2  502  501  0.24083525005E-04 -0.11065134012E-03  0.13976313016E-03  0.17988181620E-03  0.00000000000E+00 0. -1.
<mgrwt>
<rscale>  1 0.59985096E+03</rscale>
<asrwt>0</asrwt>
<pdfrwt beam="1">  1        1 0.32711144E+00 0.59985096E+03</pdfrwt>
<pdfrwt beam="2">0</pdfrwt>
<totfact> 0.28177091E+00</totfact>
</mgrwt>
</event>
<event>
 6    1  0.4768011E-003  0.5697073E+03  0.7818608E-02  0.9970326E-01
          1   -1    0    0  502    0  0.00000000000E+00  0.00000000000E+00  0.81142945566E+02  0.81142945566E+02  0.00000000000E+00 0.  1.
         13   -1    0    0    0    0 -0.00000000000E+00 -0.00000000000E+00 -0.10000000000E+04  0.10000000000E+04  0.00000000000E+00 0.  1.
    9000005    2    1    2  501    0  0.44450587912E-02 -0.93800294814E-03 -0.91885163557E+03  0.10811358743E+04  0.56970733762E+03 0.  0.
         13    1    3    3    0    0 -0.19039899961E+03 -0.23667136331E+02 -0.59872849297E+02  0.20098922975E+03  0.00000000000E+00 0.  1.
          3    1    3    3  501    0  0.19040344466E+03  0.23666198328E+02 -0.85897878627E+03  0.88014664457E+03  0.00000000000E+00 0.  1.
         21    1    1    2  502  501 -0.44450587913E-02  0.93800294814E-03 -0.54188646700E-02  0.70712439854E-02  0.00000000000E+00 0. -1.
<mgrwt>
<rscale>  1 0.56970734E+03</rscale>
<asrwt>0</asrwt>
<pdfrwt beam="1">  1        1 0.29506588E+00 0.56970734E+03</pdfrwt>
<pdfrwt beam="2">0</pdfrwt>
<totfact> 0.38959908E+00</totfact>
</mgrwt>
</event>
<event>
 6    1  0.4768011E-003  0.6507889E+03  0.7818608E-02  0.9805300E-01
          1   -1    0    0  502    0  0.00000000000E+00  0.00000000000E+00  0.10588157659E+03  0.10588157659E+03  0.00000000000E+00 0.  1.
         13   -1    0    0    0    0 -0.00000000000E+00 -0.00000000000E+00 -0.10000000000E+04  0.10000000000E+04  0.00000000000E+00 0.  1.
    9000005    2    1    2  501    0 -0.54073238914E-04 -0.56869930091E-04 -0.89411839499E+03  0.11058814931E+04  0.65078888481E+03 0.  0.
         13    1    3    3    0    0  0.24151238043E+03 -0.20831524924E+03 -0.55663490852E+03  0.64153401652E+03  0.00000000000E+00 0.  1.
          1    1    3    3  501    0 -0.24151243450E+03  0.20831519237E+03 -0.33748348647E+03  0.46434747661E+03  0.00000000000E+00 0.  1.
         21    1    1    2  502  501  0.54073238916E-04  0.56869930089E-04 -0.28420911693E-04  0.83461681847E-04  0.00000000000E+00 0. -1.
<mgrwt>
<rscale>  1 0.65078888E+03</rscale>
<asrwt>0</asrwt>
<pdfrwt beam="1">  1        1 0.38502473E+00 0.65078888E+03</pdfrwt>
<pdfrwt beam="2">0</pdfrwt>
<totfact> 0.15589766E+00</totfact>
</mgrwt>
</event>
<event>
 6    1  0.4768011E-003  0.6663004E+03  0.7818608E-02  0.9776664E-01
          1   -1    0    0  502    0  0.00000000000E+00  0.00000000000E+00  0.11099197215E+03  0.11099197215E+03  0.00000000000E+00 0.  1.
         13   -1    0    0    0    0 -0.00000000000E+00 -0.00000000000E+00 -0.10000000000E+04  0.10000000000E+04  0.00000000000E+00 0.  1.
    9000005    2    1    2  501    0  0.68692388075E-03  0.33987760512E-02 -0.88900975961E+03  0.11109880963E+04  0.66630038070E+03 0.  0.
         13    1    3    3    0    0 -0.14056820561E+03  0.41661870696E+01 -0.94808159674E+03  0.95845474156E+03  0.00000000000E+00 0.  1.
          3    1    3    3  501    0  0.14056889253E+03 -0.41627882936E+01  0.59071837126E+02  0.15253335470E+03  0.00000000000E+00 0.  1.
         21    1    1    2  502  501 -0.68692388076E-03 -0.33987760512E-02  0.17317679570E-02  0.38758951638E-02  0.00000000000E+00 0.  1.
<mgrwt>
<rscale>  1 0.66630038E+03</rscale>
<asrwt>0</asrwt>
<pdfrwt beam="1">  1        1 0.40360802E+00 0.66630038E+03</pdfrwt>
<pdfrwt beam="2">0</pdfrwt>
<totfact> 0.12852127E+00</totfact>
</mgrwt>
</event>
<event>
 6    1  0.4768011E-003  0.6550506E+03  0.7818608E-02  0.9797348E-01
          1   -1    0    0  502    0  0.00000000000E+00  0.00000000000E+00  0.10730793347E+03  0.10730793347E+03  0.00000000000E+00 0.  1.
         13   -1    0    0    0    0 -0.00000000000E+00 -0.00000000000E+00 -0.10000000000E+04  0.10000000000E+04  0.00000000000E+00 0.  1.
    9000005    2    1    2  501    0 -0.18015307658E-01  0.93939075522E-02 -0.89272388333E+03  0.11072701829E+04  0.65505062832E+03 0.  0.
         13    1    3    3    0    0 -0.25961152076E+03  0.12358220114E+03 -0.71153933549E+03  0.76743659549E+03  0.00000000000E+00 0.  1.
          3    1    3    3  501    0  0.25959350545E+03 -0.12357280723E+03 -0.18118454784E+03  0.33983358741E+03  0.00000000000E+00 0.  1.
         21    1    1    2  502  501  0.18015307658E-01 -0.93939075522E-02  0.31816796324E-01  0.37750567379E-01  0.00000000000E+00 0.  1.
<mgrwt>
<rscale>  1 0.65505063E+03</rscale>
<asrwt>0</asrwt>
<pdfrwt beam="1">  1        1 0.39021149E+00 0.65505063E+03</pdfrwt>
<pdfrwt beam="2">0</pdfrwt>
<totfact> 0.14774869E+00</totfact>
</mgrwt>
</event>
<event>
 6    1  0.6678539E-003  0.5256505E+03  0.7818608E-02  0.1007292E+00
          1   -1    0    0  502    0  0.00000000000E+00  0.00000000000E+00  0.69077119317E+02  0.69077119317E+02  0.00000000000E+00 0.  1.
         13   -1    0    0    0    0 -0.00000000000E+00 -0.00000000000E+00 -0.10000000000E+04  0.10000000000E+04  0.00000000000E+00 0.  1.
    9000005    2    1    2  501    0 -0.58303256623E-05  0.49775576372E-06 -0.93092288006E+03  0.10690771134E+04  0.52565051684E+03 0.  0.
         13    1    3    3    0    0 -0.73232755844E+02 -0.14692689331E+03 -0.48025366703E+02  0.17104673149E+03  0.00000000000E+00 0.  1.
          1    1    3    3  501    0  0.73232750014E+02  0.14692689381E+03 -0.88289751335E+03  0.89803038194E+03  0.00000000000E+00 0.  1.
         21    1    1    2  502  501  0.58303256640E-05 -0.49775576945E-06 -0.62653368135E-06  0.58849811051E-05  0.00000000000E+00 0.  1.
<mgrwt>
<rscale>  1 0.52565052E+03</rscale>
<asrwt>0</asrwt>
<pdfrwt beam="1">  1        1 0.25119005E+00 0.52565052E+03</pdfrwt>
<pdfrwt beam="2">0</pdfrwt>
<totfact> 0.60764692E+00</totfact>
</mgrwt>
</event>
<event>
 6    1  0.4768011E-003  0.6429542E+03  0.7818608E-02  0.9820091E-01
          1   -1    0    0  502    0  0.00000000000E+00  0.00000000000E+00  0.10336772813E+03  0.10336772813E+03  0.00000000000E+00 0.  1.
         13   -1    0    0    0    0 -0.00000000000E+00 -0.00000000000E+00 -0.10000000000E+04  0.10000000000E+04  0.00000000000E+00 0.  1.
    9000005    2    1    2  501    0 -0.58611871353E-04  0.27139365903E-03 -0.89665248740E+03  0.11033475107E+04  0.64295415559E+03 0.  0.
         13    1    3    3    0    0  0.53296113976E+02 -0.31377576321E+03 -0.52605649440E+03  0.61484237057E+03  0.00000000000E+00 0.  1.
          3    1    3    3  501    0 -0.53296172588E+02  0.31377603460E+03 -0.37059599300E+03  0.48850514012E+03  0.00000000000E+00 0.  1.
         21    1    1    2  502  501  0.58611871346E-04 -0.27139365904E-03  0.20215528694E-01  0.20217435304E-01  0.00000000000E+00 0.  1.
<mgrwt>
<rscale>  1 0.64295416E+03</rscale>
<asrwt>0</asrwt>
<pdfrwt beam="1">  1        1 0.37588344E+00 0.64295416E+03</pdfrwt>
<pdfrwt beam="2">0</pdfrwt>
<totfact> 0.17132015E+00</totfact>
</mgrwt>
</event>
<event>
 6    1  0.4768011E-003  0.6491920E+03  0.7818608E-02  0.9808296E-01
          1   -1    0    0  502    0  0.00000000000E+00  0.00000000000E+00  0.10536467564E+03  0.10536467564E+03  0.00000000000E+00 0.  1.
         13   -1    0    0    0    0 -0.00000000000E+00 -0.00000000000E+00 -0.10000000000E+04  0.10000000000E+04  0.00000000000E+00 0.  1.
    9000005    2    1    2  501    0  0.44529510321E-02  0.12975181718E-02 -0.89463411277E+03  0.11053598819E+04  0.64919201526E+03 0.  0.
         13    1    3    3    0    0  0.16928374193E+03 -0.17532027593E+03 -0.82259533349E+02  0.25721744743E+03  0.00000000000E+00 0.  1.
          3    1    3    3  501    0 -0.16927928898E+03  0.17532157345E+03 -0.81237457942E+03  0.84814243443E+03  0.00000000000E+00 0.  1.
         21    1    1    2  502  501 -0.44529510321E-02 -0.12975181718E-02 -0.12115911903E-02  0.47937750796E-02  0.00000000000E+00 0.  1.
<mgrwt>
<rscale>  1 0.64919202E+03</rscale>
<asrwt>0</asrwt>
<pdfrwt beam="1">  1        1 0.38314508E+00 0.64919202E+03</pdfrwt>
<pdfrwt beam="2">0</pdfrwt>
<totfact> 0.15895633E+00</totfact>
</mgrwt>
</event>
<event>
 6    1  0.4768011E-003  0.6483002E+03  0.7818608E-02  0.9809974E-01
          1   -1    0    0  502    0  0.00000000000E+00  0.00000000000E+00  0.10667977943E+03  0.10667977943E+03  0.00000000000E+00 0.  1.
         13   -1    0    0    0    0 -0.00000000000E+00 -0.00000000000E+00 -0.10000000000E+04  0.10000000000E+04  0.00000000000E+00 0.  1.
    9000005    2    1    2  501    0  0.10035844074E+01  0.69556683029E+00 -0.89466629412E+03  0.11048623888E+04  0.64829902765E+03 0.  0.
         13    1    3    3    0    0 -0.32057232870E+03  0.26454910378E+02 -0.38516868408E+03  0.50181808995E+03  0.00000000000E+00 0.  1.
          3    1    3    3  501    0  0.32157591311E+03 -0.25759343548E+02 -0.50949761004E+03  0.60304429880E+03  0.00000000000E+00 0.  1.
         21    1    1    2  502  501 -0.10035844074E+01 -0.69556683029E+00  0.13460735522E+01  0.18173906806E+01  0.00000000000E+00 0. -1.
<mgrwt>
<rscale>  1 0.64830018E+03</rscale>
<asrwt>0</asrwt>
<pdfrwt beam="1">  1        1 0.38792729E+00 0.64830018E+03</pdfrwt>
<pdfrwt beam="2">0</pdfrwt>
<totfact> 0.15142325E+00</totfact>
</mgrwt>
</event>
<event>
 6    1  0.4768011E-003  0.6453545E+03  0.7818608E-02  0.9815535E-01
          1   -1    0    0  502    0  0.00000000000E+00  0.00000000000E+00  0.10413283029E+03  0.10413283029E+03  0.00000000000E+00 0.  1.
         13   -1    0    0    0    0 -0.00000000000E+00 -0.00000000000E+00 -0.10000000000E+04  0.10000000000E+04  0.00000000000E+00 0.  1.
    9000005    2    1    2  501    0  0.17600088702E-02 -0.11590875847E-02 -0.89587928547E+03  0.11041205326E+04  0.64535451995E+03 0.  0.
         13    1    3    3    0    0 -0.14654887742E+03 -0.28592233878E+03 -0.49905259388E+03  0.59353319094E+03  0.00000000000E+00 0.  1.
          1    1    3    3  501    0  0.14655063743E+03  0.28592117970E+03 -0.39682669159E+03  0.51058734168E+03  0.00000000000E+00 0.  1.
         21    1    1    2  502  501 -0.17600088702E-02  0.11590875847E-02  0.12115761076E-01  0.12297673833E-01  0.00000000000E+00 0. -1.
<mgrwt>
<rscale>  1 0.64535452E+03</rscale>
<asrwt>0</asrwt>
<pdfrwt beam="1">  1        1 0.37866564E+00 0.64535452E+03</pdfrwt>
<pdfrwt beam="2">0</pdfrwt>
<totfact> 0.16647831E+00</totfact>
</mgrwt>
</event>
<event>
 6    1  0.4768011E-003  0.6646004E+03  0.7818608E-02  0.9779762E-01
          1   -1    0    0  502    0  0.00000000000E+00  0.00000000000E+00  0.11050305520E+03  0.11050305520E+03  0.00000000000E+00 0.  1.
         13   -1    0    0    0    0 -0.00000000000E+00 -0.00000000000E+00 -0.10000000000E+04  0.10000000000E+04  0.00000000000E+00 0.  1.
    9000005    2    1    2  501    0  0.35198835540E-01 -0.42511257484E-01 -0.88956580299E+03  0.11104148077E+04  0.66460042457E+03 0.  0.
         13    1    3    3    0    0 -0.27169425617E+03  0.44989423297E+02 -0.75541252252E+03  0.80404595405E+03  0.00000000000E+00 0.  1.
          3    1    3    3  501    0  0.27172945501E+03 -0.45031934554E+02 -0.13415328048E+03  0.30636885369E+03  0.00000000000E+00 0.  1.
         21    1    1    2  502  501 -0.35198835540E-01  0.42511257484E-01  0.68858194323E-01  0.88247470001E-01  0.00000000000E+00 0. -1.
<mgrwt>
<rscale>  1 0.66460043E+03</rscale>
<asrwt>0</asrwt>
<pdfrwt beam="1">  1        1 0.40183014E+00 0.66460043E+03</pdfrwt>
<pdfrwt beam="2">0</pdfrwt>
<totfact> 0.13093450E+00</totfact>
</mgrwt>
</event>
<event>
 6    1  0.4768011E-003  0.6680927E+03  0.7818608E-02  0.9773410E-01
          1   -1    0    0  502    0  0.00000000000E+00  0.00000000000E+00  0.11158719006E+03  0.11158719006E+03  0.00000000000E+00 0.  1.
         13   -1    0    0    0    0 -0.00000000000E+00 -0.00000000000E+00 -0.10000000000E+04  0.10000000000E+04  0.00000000000E+00 0.  1.
    9000005    2    1    2  501    0  0.10275028461E-03  0.13452744668E-04 -0.88841303132E+03  0.11115869456E+04  0.66809267580E+03 0.  0.
         13    1    3    3    0    0  0.28599215137E+03  0.75998101231E+02 -0.70207080309E+03  0.76188623467E+03  0.00000000000E+00 0.  1.
          3    1    3    3  501    0 -0.28599204862E+03 -0.75998087778E+02 -0.18634222823E+03  0.34970071095E+03  0.00000000000E+00 0.  1.
         21    1    1    2  502  501 -0.10275028461E-03 -0.13452744674E-04  0.22138545641E-03  0.24443837186E-03  0.00000000000E+00 0.  1.
<mgrwt>
<rscale>  1 0.66809268E+03</rscale>
<asrwt>0</asrwt>
<pdfrwt beam="1">  1        1 0.40577246E+00 0.66809268E+03</pdfrwt>
<pdfrwt beam="2">0</pdfrwt>
<totfact> 0.12564650E+00</totfact>
</mgrwt>
</event>
<event>
 6    1  0.4768011E-003  0.5773166E+03  0.7818608E-02  0.9953618E-01
          1   -1    0    0  502    0  0.00000000000E+00  0.00000000000E+00  0.83324283514E+02  0.83324283514E+02  0.00000000000E+00 0.  1.
         13   -1    0    0    0    0 -0.00000000000E+00 -0.00000000000E+00 -0.10000000000E+04  0.10000000000E+04  0.00000000000E+00 0.  1.
    9000005    2    1    2  501    0 -0.10438024194E-02  0.18303556254E-03 -0.91667592741E+03  0.10833232030E+04  0.57731655637E+03 0.  0.
         13    1    3    3    0    0  0.12849090632E+03  0.21572574868E+03 -0.19113852194E+03  0.31556528043E+03  0.00000000000E+00 0.  1.
          3    1    3    3  501    0 -0.12849195012E+03 -0.21572556564E+03 -0.72553740547E+03  0.76775792256E+03  0.00000000000E+00 0.  1.
         21    1    1    2  502  501  0.10438024195E-02 -0.18303556257E-03  0.21092399515E-03  0.10805158211E-02  0.00000000000E+00 0.  1.
<mgrwt>
<rscale>  1 0.57731656E+03</rscale>
<asrwt>0</asrwt>
<pdfrwt beam="1">  1        1 0.30299803E+00 0.57731656E+03</pdfrwt>
<pdfrwt beam="2">0</pdfrwt>
<totfact> 0.35959947E+00</totfact>
</mgrwt>
</event>
<event>
 6    1  0.4768011E-003  0.6362255E+03  0.7818608E-02  0.9832975E-01
          1   -1    0    0  502    0  0.00000000000E+00  0.00000000000E+00  0.12108320680E+03  0.12108320680E+03  0.00000000000E+00 0.  1.
         13   -1    0    0    0    0 -0.00000000000E+00 -0.00000000000E+00 -0.10000000000E+04  0.10000000000E+04  0.00000000000E+00 0.  1.
    9000005    2    1    2  501    0 -0.45792081690E+01 -0.64910398511E+01 -0.89792714941E+03  0.11004798966E+04  0.63617586761E+03 0.  0.
         13    1    3    3    0    0 -0.26127693277E+03 -0.16730302137E+03 -0.60075875134E+03  0.67614126769E+03  0.00000000000E+00 0.  1.
          3    1    3    3  501    0  0.25669772460E+03  0.16081198152E+03 -0.29716839807E+03  0.42433862896E+03  0.00000000000E+00 0.  1.
         21    1    1    2  502  501  0.45792081690E+01  0.64910398511E+01  0.19010356215E+02  0.20603310152E+02  0.00000000000E+00 0. -1.
<mgrwt>
<rscale>  1 0.63622546E+03</rscale>
<asrwt>0</asrwt>
<pdfrwt beam="1">  1        1 0.44030350E+00 0.63622546E+03</pdfrwt>
<pdfrwt beam="2">0</pdfrwt>
<totfact> 0.88269458E-01</totfact>
</mgrwt>
</event>
<event>
 6    1  0.4768011E-003  0.6502593E+03  0.7818608E-02  0.9806293E-01
          1   -1    0    0  502    0  0.00000000000E+00  0.00000000000E+00  0.11752809184E+03  0.11752809184E+03  0.00000000000E+00 0.  1.
         13   -1    0    0    0    0 -0.00000000000E+00 -0.00000000000E+00 -0.10000000000E+04  0.10000000000E+04  0.00000000000E+00 0.  1.
    9000005    2    1    2  501    0 -0.38209097598E+01 -0.66747838346E+01 -0.89289117715E+03  0.11045776765E+04  0.65021383955E+03 0.  0.
         13    1    3    3    0    0 -0.13280455616E+03  0.12336336080E+03 -0.90312409418E+03  0.92113446272E+03  0.00000000000E+00 0.  1.
          1    1    3    3  501    0  0.12898364640E+03 -0.13003814463E+03  0.10232917027E+02  0.18344321380E+03  0.00000000000E+00 0.  1.
         21    1    1    2  502  501  0.38209097598E+01  0.66747838346E+01  0.10419268992E+02  0.12950415320E+02  0.00000000000E+00 0. -1.
<mgrwt>
<rscale>  1 0.65025932E+03</rscale>
<asrwt>0</asrwt>
<pdfrwt beam="1">  1        1 0.42737578E+00 0.65025932E+03</pdfrwt>
<pdfrwt beam="2">0</pdfrwt>
<totfact> 0.10078375E+00</totfact>
</mgrwt>
</event>
<event>
 6    1  0.4768011E-003  0.6419175E+03  0.7818608E-02  0.9822065E-01
          1   -1    0    0  502    0  0.00000000000E+00  0.00000000000E+00  0.10301892161E+03  0.10301892161E+03  0.00000000000E+00 0.  1.
         13   -1    0    0    0    0 -0.00000000000E+00 -0.00000000000E+00 -0.10000000000E+04  0.10000000000E+04  0.00000000000E+00 0.  1.
    9000005    2    1    2  501    0  0.84870769015E-04  0.31807019212E-03 -0.89698547201E+03  0.11030145157E+04  0.64191750621E+03 0.  0.
         13    1    3    3    0    0  0.72997449090E+02 -0.22728177861E+03 -0.81714487847E+03  0.85129982196E+03  0.00000000000E+00 0.  1.
          3    1    3    3  501    0 -0.72997364220E+02  0.22728209668E+03 -0.79840593542E+02  0.25171469371E+03  0.00000000000E+00 0.  1.
         21    1    1    2  502  501 -0.84870769022E-04 -0.31807019212E-03  0.43936182528E-02  0.44059338449E-02  0.00000000000E+00 0. -1.
<mgrwt>
<rscale>  1 0.64191751E+03</rscale>
<asrwt>0</asrwt>
<pdfrwt beam="1">  1        1 0.37461505E+00 0.64191751E+03</pdfrwt>
<pdfrwt beam="2">0</pdfrwt>
<totfact> 0.17357001E+00</totfact>
</mgrwt>
</event>
<event>
 6    1  0.4768011E-003  0.6449376E+03  0.7818608E-02  0.9816325E-01
          3   -1    0    0  502    0  0.00000000000E+00  0.00000000000E+00  0.10479618672E+03  0.10479618672E+03  0.00000000000E+00 0.  1.
         13   -1    0    0    0    0 -0.00000000000E+00 -0.00000000000E+00 -0.10000000000E+04  0.10000000000E+04  0.00000000000E+00 0.  1.
    9000005    2    1    2  501    0  0.30655655415E-01  0.40334032359E-01 -0.89601298781E+03  0.11039854278E+04  0.64493763104E+03 0.  0.
         13    1    3    3    0    0  0.36143611523E+02  0.14710131606E+03  0.39301247493E+02  0.15649199946E+03  0.00000000000E+00 0.  1.
          3    1    3    3  501    0 -0.36112955867E+02 -0.14706098202E+03 -0.93531423530E+03  0.94749342835E+03  0.00000000000E+00 0.  1.
         21    1    1    2  502  501 -0.30655655415E-01 -0.40334032359E-01  0.80917452972E+00  0.81075891788E+00  0.00000000000E+00 0.  1.
<mgrwt>
<rscale>  1 0.64493763E+03</rscale>
<asrwt>0</asrwt>
<pdfrwt beam="1">  1        3 0.38107785E+00 0.64493763E+03</pdfrwt>
<pdfrwt beam="2">0</pdfrwt>
<totfact> 0.74558803E-02</totfact>
</mgrwt>
</event>
<event>
 6    1  0.4768011E-003  0.6499460E+03  0.7818608E-02  0.9806880E-01
          1   -1    0    0  502    0  0.00000000000E+00  0.00000000000E+00  0.10561417253E+03  0.10561417253E+03  0.00000000000E+00 0.  1.
         13   -1    0    0    0    0 -0.00000000000E+00 -0.00000000000E+00 -0.10000000000E+04  0.10000000000E+04  0.00000000000E+00 0.  1.
    9000005    2    1    2  501    0 -0.15675986643E-03  0.20943509893E-02 -0.89439235833E+03  0.11056073123E+04  0.64994602723E+03 0.  0.
         13    1    3    3    0    0  0.34845931887E+02  0.26579944150E+03 -0.75967908961E+03  0.80559040540E+03  0.00000000000E+00 0.  1.
          3    1    3    3  501    0 -0.34846088647E+02 -0.26579734715E+03 -0.13471326872E+03  0.30001690688E+03  0.00000000000E+00 0.  1.
         21    1    1    2  502  501  0.15675986643E-03 -0.20943509893E-02  0.65308615655E-02  0.68602501784E-02  0.00000000000E+00 0.  1.
<mgrwt>
<rscale>  1 0.64994603E+03</rscale>
<asrwt>0</asrwt>
<pdfrwt beam="1">  1        1 0.38405235E+00 0.64994603E+03</pdfrwt>
<pdfrwt beam="2">0</pdfrwt>
<totfact> 0.15747341E+00</totfact>
</mgrwt>
</event>
<event>
 6    1  0.4768011E-003  0.6523608E+03  0.7818608E-02  0.9802359E-01
          1   -1    0    0  502    0  0.00000000000E+00  0.00000000000E+00  0.10639663858E+03  0.10639663858E+03  0.00000000000E+00 0.  1.
         13   -1    0    0    0    0 -0.00000000000E+00 -0.00000000000E+00 -0.10000000000E+04  0.10000000000E+04  0.00000000000E+00 0.  1.
    9000005    2    1    2  501    0 -0.18914167244E-02 -0.73129066199E-03 -0.89360596405E+03  0.11063933392E+04  0.65236079129E+03 0.  0.
         13    1    3    3    0    0  0.14160357120E+03  0.53603837982E+01 -0.94506696523E+03  0.95563166223E+03  0.00000000000E+00 0.  1.
          1    1    3    3  501    0 -0.14160546261E+03 -0.53611150888E+01  0.51461001179E+02  0.15076167696E+03  0.00000000000E+00 0.  1.
         21    1    1    2  502  501  0.18914167244E-02  0.73129066199E-03  0.26026332564E-02  0.32993852647E-02  0.00000000000E+00 0. -1.
<mgrwt>
<rscale>  1 0.65236079E+03</rscale>
<asrwt>0</asrwt>
<pdfrwt beam="1">  1        1 0.38689768E+00 0.65236079E+03</pdfrwt>
<pdfrwt beam="2">0</pdfrwt>
<totfact> 0.15290610E+00</totfact>
</mgrwt>
</event>
<event>
 6    1  0.4768011E-003  0.6573333E+03  0.7818608E-02  0.9793115E-01
          1   -1    0    0  502    0  0.00000000000E+00  0.00000000000E+00  0.10822457730E+03  0.10822457730E+03  0.00000000000E+00 0.  1.
         13   -1    0    0    0    0 -0.00000000000E+00 -0.00000000000E+00 -0.10000000000E+04  0.10000000000E+04  0.00000000000E+00 0.  1.
    9000005    2    1    2  501    0 -0.22990128068E-01  0.51371835087E-01 -0.89197391230E+03  0.11080182627E+04  0.65733325414E+03 0.  0.
         13    1    3    3    0    0 -0.54581231879E+02 -0.15339023595E+03 -0.92721133728E+03  0.94139712096E+03  0.00000000000E+00 0.  1.
          3    1    3    3  501    0  0.54558241751E+02  0.15344160778E+03  0.35237424986E+02  0.16662114170E+03  0.00000000000E+00 0.  1.
         21    1    1    2  502  501  0.22990128068E-01 -0.51371835087E-01  0.19848960164E+00  0.20631464657E+00  0.00000000000E+00 0. -1.
<mgrwt>
<rscale>  1 0.65733326E+03</rscale>
<asrwt>0</asrwt>
<pdfrwt beam="1">  1        1 0.39354475E+00 0.65733326E+03</pdfrwt>
<pdfrwt beam="2">0</pdfrwt>
<totfact> 0.14273892E+00</totfact>
</mgrwt>
</event>
<event>
 6    1  0.4768011E-003  0.6573295E+03  0.7818608E-02  0.9793122E-01
          1   -1    0    0  502    0  0.00000000000E+00  0.00000000000E+00  0.11115132008E+03  0.11115132008E+03  0.00000000000E+00 0.  1.
         13   -1    0    0    0    0 -0.00000000000E+00 -0.00000000000E+00 -0.10000000000E+04  0.10000000000E+04  0.00000000000E+00 0.  1.
    9000005    2    1    2  501    0  0.36435884222E+01  0.28503396009E+01 -0.88995831686E+03  0.11063940660E+04  0.65731318511E+03 0.  0.
         13    1    3    3    0    0 -0.24936342920E+03 -0.17927782407E+03 -0.25557146400E+03  0.39954903483E+03  0.00000000000E+00 0.  1.
          1    1    3    3  501    0  0.25300701762E+03  0.18212816367E+03 -0.63438685287E+03  0.70684503115E+03  0.00000000000E+00 0.  1.
         21    1    1    2  502  501 -0.36435884222E+01 -0.28503396009E+01  0.11096369467E+01  0.47572541013E+01  0.00000000000E+00 0.  1.
<mgrwt>
<rscale>  1 0.65732946E+03</rscale>
<asrwt>0</asrwt>
<pdfrwt beam="1">  1        1 0.40418747E+00 0.65732946E+03</pdfrwt>
<pdfrwt beam="2">0</pdfrwt>
<totfact> 0.12797377E+00</totfact>
</mgrwt>
</event>
<event>
 6    1  0.4768011E-003  0.6497552E+03  0.7818608E-02  0.9807239E-01
          1   -1    0    0  502    0  0.00000000000E+00  0.00000000000E+00  0.12304888882E+03  0.12304888882E+03  0.00000000000E+00 0.  1.
         13   -1    0    0    0    0 -0.00000000000E+00 -0.00000000000E+00 -0.10000000000E+04  0.10000000000E+04  0.00000000000E+00 0.  1.
    9000005    2    1    2  501    0 -0.18672784834E+02  0.86435982708E+01 -0.88749976712E+03  0.10999261981E+04  0.64942930325E+03 0.  0.
         13    1    3    3    0    0 -0.71611950336E+02  0.28215150068E+03 -0.71568287266E+03  0.77261873844E+03  0.00000000000E+00 0.  1.
          1    1    3    3  501    0  0.52939165502E+02 -0.27350790241E+03 -0.17181689446E+03  0.32730745965E+03  0.00000000000E+00 0.  1.
         21    1    1    2  502  501  0.18672784834E+02 -0.86435982708E+01  0.10548655941E+02  0.23122690732E+02  0.00000000000E+00 0. -1.
<mgrwt>
<rscale>  1 0.64975519E+03</rscale>
<asrwt>0</asrwt>
<pdfrwt beam="1">  1        1 0.44745145E+00 0.64975519E+03</pdfrwt>
<pdfrwt beam="2">0</pdfrwt>
<totfact> 0.81625997E-01</totfact>
</mgrwt>
</event>
<event>
 6    1  0.4768011E-003  0.6656265E+03  0.7818608E-02  0.9777891E-01
          1   -1    0    0  502    0  0.00000000000E+00  0.00000000000E+00  0.11222402919E+03  0.11222402919E+03  0.00000000000E+00 0.  1.
         13   -1    0    0    0    0 -0.00000000000E+00 -0.00000000000E+00 -0.10000000000E+04  0.10000000000E+04  0.00000000000E+00 0.  1.
    9000005    2    1    2  501    0 -0.42549835310E-01  0.57367353399E-01 -0.88923437427E+03  0.11107638778E+04  0.66562648287E+03 0.  0.
         13    1    3    3    0    0 -0.19884629021E+03  0.12098498202E+03 -0.47630027478E+02  0.23758331701E+03  0.00000000000E+00 0.  1.
          3    1    3    3  501    0  0.19880374037E+03 -0.12092761467E+03 -0.84160434679E+03  0.87318056077E+03  0.00000000000E+00 0.  1.
         21    1    1    2  502  501  0.42549835310E-01 -0.57367353399E-01  0.14584034584E+01  0.14601514131E+01  0.00000000000E+00 0. -1.
<mgrwt>
<rscale>  1 0.66562649E+03</rscale>
<asrwt>0</asrwt>
<pdfrwt beam="1">  1        1 0.40808824E+00 0.66562649E+03</pdfrwt>
<pdfrwt beam="2">0</pdfrwt>
<totfact> 0.12273943E+00</totfact>
</mgrwt>
</event>
<event>
 6    1  0.4768011E-003  0.6488358E+03  0.7818608E-02  0.9808966E-01
          1   -1    0    0  502    0  0.00000000000E+00  0.00000000000E+00  0.10525074851E+03  0.10525074851E+03  0.00000000000E+00 0.  1.
         13   -1    0    0    0    0 -0.00000000000E+00 -0.00000000000E+00 -0.10000000000E+04  0.10000000000E+04  0.00000000000E+00 0.  1.
    9000005    2    1    2  501    0 -0.16889690973E-02  0.21219145154E-03 -0.89475281341E+03  0.11052468007E+04  0.64883579850E+03 0.  0.
         13    1    3    3    0    0  0.21151753547E+03 -0.17942392005E+03 -0.73400766611E+03  0.78466544769E+03  0.00000000000E+00 0.  1.
          3    1    3    3  501    0 -0.21151922444E+03  0.17942413224E+03 -0.16074514730E+03  0.32058135304E+03  0.00000000000E+00 0.  1.
         21    1    1    2  502  501  0.16889690973E-02 -0.21219145153E-03  0.35619180099E-02  0.39477717428E-02  0.00000000000E+00 0. -1.
<mgrwt>
<rscale>  1 0.64883580E+03</rscale>
<asrwt>0</asrwt>
<pdfrwt beam="1">  1        1 0.38273080E+00 0.64883580E+03</pdfrwt>
<pdfrwt beam="2">0</pdfrwt>
<totfact> 0.15963823E+00</totfact>
</mgrwt>
</event>
<event>
 6    1  0.4768011E-003  0.6492280E+03  0.7818608E-02  0.9808229E-01
          1   -1    0    0  502    0  0.00000000000E+00  0.00000000000E+00  0.10537431655E+03  0.10537431655E+03  0.00000000000E+00 0.  1.
         13   -1    0    0    0    0 -0.00000000000E+00 -0.00000000000E+00 -0.10000000000E+04  0.10000000000E+04  0.00000000000E+00 0.  1.
    9000005    2    1    2  501    0 -0.55592269177E-04  0.57572728963E-04 -0.89462571239E+03  0.11053742315E+04  0.64922802334E+03 0.  0.
         13    1    3    3    0    0  0.27493239892E+03  0.16998214737E+03 -0.49817741506E+03  0.59385393093E+03  0.00000000000E+00 0.  1.
          3    1    3    3  501    0 -0.27493245451E+03 -0.16998208980E+03 -0.39644829732E+03  0.51152030052E+03  0.00000000000E+00 0.  1.
         21    1    1    2  502  501  0.55592269169E-04 -0.57572728952E-04  0.28941625704E-04  0.85104272565E-04  0.00000000000E+00 0. -1.
<mgrwt>
<rscale>  1 0.64922802E+03</rscale>
<asrwt>0</asrwt>
<pdfrwt beam="1">  1        1 0.38318014E+00 0.64922802E+03</pdfrwt>
<pdfrwt beam="2">0</pdfrwt>
<totfact> 0.15889859E+00</totfact>
</mgrwt>
</event>
<event>
 6    1  0.4768011E-003  0.6590061E+03  0.7818608E-02  0.9790025E-01
          1   -1    0    0  502    0  0.00000000000E+00  0.00000000000E+00  0.10857366872E+03  0.10857366872E+03  0.00000000000E+00 0.  1.
         13   -1    0    0    0    0 -0.00000000000E+00 -0.00000000000E+00 -0.10000000000E+04  0.10000000000E+04  0.00000000000E+00 0.  1.
    9000005    2    1    2  501    0 -0.11314705233E-04  0.23475159355E-03 -0.89142773609E+03  0.11085722444E+04  0.65900607916E+03 0.  0.
         13    1    3    3    0    0 -0.11947078068E+03 -0.27685887889E+03 -0.66918585855E+03  0.73398489053E+03  0.00000000000E+00 0.  1.
          3    1    3    3  501    0  0.11947076936E+03  0.27685911364E+03 -0.22224187754E+03  0.37458735386E+03  0.00000000000E+00 0.  1.
         21    1    1    2  502  501  0.11314705233E-04 -0.23475159355E-03  0.14048029798E-02  0.14243271202E-02  0.00000000000E+00 0.  1.
<mgrwt>
<rscale>  1 0.65900608E+03</rscale>
<asrwt>0</asrwt>
<pdfrwt beam="1">  1        1 0.39481417E+00 0.65900608E+03</pdfrwt>
<pdfrwt beam="2">0</pdfrwt>
<totfact> 0.14085260E+00</totfact>
</mgrwt>
</event>
<event>
 6    1  0.4768011E-003  0.6521336E+03  0.7818608E-02  0.9802784E-01
          1   -1    0    0  502    0  0.00000000000E+00  0.00000000000E+00  0.12890139913E+03  0.12890139913E+03  0.00000000000E+00 0.  1.
         13   -1    0    0    0    0 -0.00000000000E+00 -0.00000000000E+00 -0.10000000000E+04  0.10000000000E+04  0.00000000000E+00 0.  1.
    9000005    2    1    2  501    0  0.14194707046E+01 -0.13477885814E+01 -0.89363350710E+03  0.11062816416E+04  0.65213065727E+03 0.  0.
         13    1    3    3    0    0 -0.32474615674E+02 -0.27996145975E+03 -0.16764789698E+03  0.32793114670E+03  0.00000000000E+00 0.  1.
          3    1    3    3  501    0  0.33894086379E+02  0.27861367117E+03 -0.72598561012E+03  0.77835049493E+03  0.00000000000E+00 0.  1.
         21    1    1    2  502  501 -0.14194707046E+01  0.13477885814E+01  0.22534906227E+02  0.22619757510E+02  0.00000000000E+00 0. -1.
<mgrwt>
<rscale>  1 0.65213359E+03</rscale>
<asrwt>0</asrwt>
<pdfrwt beam="1">  1        1 0.46873335E+00 0.65213359E+03</pdfrwt>
<pdfrwt beam="2">0</pdfrwt>
<totfact> 0.65009985E-01</totfact>
</mgrwt>
</event>
<event>
 6    1  0.4768011E-003  0.6632216E+03  0.7818608E-02  0.9782281E-01
          1   -1    0    0  502    0  0.00000000000E+00  0.00000000000E+00  0.10996578513E+03  0.10996578513E+03  0.00000000000E+00 0.  1.
         13   -1    0    0    0    0 -0.00000000000E+00 -0.00000000000E+00 -0.10000000000E+04  0.10000000000E+04  0.00000000000E+00 0.  1.
    9000005    2    1    2  501    0  0.10012717237E-03  0.11506449638E-03 -0.89003415579E+03  0.11099656216E+04  0.66322159385E+03 0.  0.
         13    1    3    3    0    0  0.88396150565E+02 -0.37917105733E+02 -0.97614128889E+03  0.98086869775E+03  0.00000000000E+00 0.  1.
          1    1    3    3  501    0 -0.88396050437E+02  0.37917220797E+02  0.86107133099E+02  0.12909692381E+03  0.00000000000E+00 0.  1.
         21    1    1    2  502  501 -0.10012717237E-03 -0.11506449638E-03 -0.59080950087E-04  0.16357214811E-03  0.00000000000E+00 0. -1.
<mgrwt>
<rscale>  1 0.66322159E+03</rscale>
<asrwt>0</asrwt>
<pdfrwt beam="1">  1        1 0.39987643E+00 0.66322159E+03</pdfrwt>
<pdfrwt beam="2">0</pdfrwt>
<totfact> 0.13362347E+00</totfact>
</mgrwt>
</event>
<event>
 6    1  0.4768011E-003  0.6473844E+03  0.7818608E-02  0.9811700E-01
          1   -1    0    0  502    0  0.00000000000E+00  0.00000000000E+00  0.10477896779E+03  0.10477896779E+03  0.00000000000E+00 0.  1.
         13   -1    0    0    0    0 -0.00000000000E+00 -0.00000000000E+00 -0.10000000000E+04  0.10000000000E+04  0.00000000000E+00 0.  1.
    9000005    2    1    2  501    0 -0.92741199239E-04 -0.11194271772E-03 -0.89522334854E+03  0.11047766469E+04  0.64738442657E+03 0.  0.
         13    1    3    3    0    0 -0.27942061841E+03 -0.14340290947E+03 -0.58129273150E+03  0.66071288479E+03  0.00000000000E+00 0.  1.
          1    1    3    3  501    0  0.27942052567E+03  0.14340279753E+03 -0.31393061704E+03  0.44406376211E+03  0.00000000000E+00 0.  1.
         21    1    1    2  502  501  0.92741199219E-04  0.11194271773E-03  0.23163293523E-02  0.23208864191E-02  0.00000000000E+00 0. -1.
<mgrwt>
<rscale>  1 0.64738443E+03</rscale>
<asrwt>0</asrwt>
<pdfrwt beam="1">  1        1 0.38101523E+00 0.64738443E+03</pdfrwt>
<pdfrwt beam="2">0</pdfrwt>
<totfact> 0.16249105E+00</totfact>
</mgrwt>
</event>
<event>
 6    1  0.4768011E-003  0.6407882E+03  0.7818608E-02  0.9824220E-01
          1   -1    0    0  502    0  0.00000000000E+00  0.00000000000E+00  0.10265392330E+03  0.10265392330E+03  0.00000000000E+00 0.  1.
         13   -1    0    0    0    0 -0.00000000000E+00 -0.00000000000E+00 -0.10000000000E+04  0.10000000000E+04  0.00000000000E+00 0.  1.
    9000005    2    1    2  501    0 -0.28774608893E-03 -0.92695032095E-05 -0.89734760339E+03  0.11026523697E+04  0.64078820767E+03 0.  0.
         13    1    3    3    0    0 -0.13482634341E+03 -0.28900098397E+03 -0.39556040234E+03  0.50810209949E+03  0.00000000000E+00 0.  1.
          1    1    3    3  501    0  0.13482605566E+03  0.28900097470E+03 -0.50178720106E+03  0.59455027021E+03  0.00000000000E+00 0.  1.
         21    1    1    2  502  501  0.28774608893E-03  0.92695032127E-05  0.15266922999E-02  0.15536000495E-02  0.00000000000E+00 0.  1.
<mgrwt>
<rscale>  1 0.64078821E+03</rscale>
<asrwt>0</asrwt>
<pdfrwt beam="1">  1        1 0.37328778E+00 0.64078821E+03</pdfrwt>
<pdfrwt beam="2">0</pdfrwt>
<totfact> 0.17595594E+00</totfact>
</mgrwt>
</event>
<event>
 6    1  0.4768011E-003  0.6476497E+03  0.7818608E-02  0.9811199E-01
          1   -1    0    0  502    0  0.00000000000E+00  0.00000000000E+00  0.10865805497E+03  0.10865805497E+03  0.00000000000E+00 0.  1.
         13   -1    0    0    0    0 -0.00000000000E+00 -0.00000000000E+00 -0.10000000000E+04  0.10000000000E+04  0.00000000000E+00 0.  1.
    9000005    2    1    2  501    0 -0.93283261868E-01  0.16253214981E-01 -0.89513682584E+03  0.11048619930E+04  0.64764965658E+03 0.  0.
         13    1    3    3    0    0  0.33355545503E+02 -0.15358293151E+03  0.35432891501E+02  0.16110803539E+03  0.00000000000E+00 0.  1.
          3    1    3    3  501    0 -0.33448828765E+02  0.15359918473E+03 -0.93056971735E+03  0.94375395763E+03  0.00000000000E+00 0.  1.
         21    1    1    2  502  501  0.93283261868E-01 -0.16253214981E-01  0.37948808177E+01  0.37960619535E+01  0.00000000000E+00 0. -1.
<mgrwt>
<rscale>  1 0.64764966E+03</rscale>
<asrwt>0</asrwt>
<pdfrwt beam="1">  1        1 0.39512103E+00 0.64764966E+03</pdfrwt>
<pdfrwt beam="2">0</pdfrwt>
<totfact> 0.14071031E+00</totfact>
</mgrwt>
</event>
<event>
 6    1  0.4768011E-003  0.6507382E+03  0.7818608E-02  0.9805395E-01
          3   -1    0    0  502    0  0.00000000000E+00  0.00000000000E+00  0.11086434298E+03  0.11086434298E+03  0.00000000000E+00 0.  1.
         13   -1    0    0    0    0 -0.00000000000E+00 -0.00000000000E+00 -0.10000000000E+04  0.10000000000E+04  0.00000000000E+00 0.  1.
    9000005    2    1    2  501    0 -0.15294857269E-01  0.91935822498E+00 -0.89408815992E+03  0.11058272070E+04  0.65073752670E+03 0.  0.
         13    1    3    3    0    0 -0.88561700765E+02  0.92216214629E+02  0.61454314049E+02  0.14185780838E+03  0.00000000000E+00 0.  1.
          3    1    3    3  501    0  0.88546405907E+02 -0.91296856404E+02 -0.95554247397E+03  0.96396939866E+03  0.00000000000E+00 0.  1.
         21    1    1    2  502  501  0.15294857269E-01 -0.91935822498E+00  0.49525029065E+01  0.50371359439E+01  0.00000000000E+00 0. -1.
<mgrwt>
<rscale>  1 0.65073818E+03</rscale>
<asrwt>0</asrwt>
<pdfrwt beam="1">  1        3 0.40314392E+00 0.65073818E+03</pdfrwt>
<pdfrwt beam="2">0</pdfrwt>
<totfact> 0.57028948E-02</totfact>
</mgrwt>
</event>
<event>
 6    1  0.4768011E-003  0.6616803E+03  0.7818608E-02  0.9785105E-01
          1   -1    0    0  502    0  0.00000000000E+00  0.00000000000E+00  0.11528818122E+03  0.11528818122E+03  0.00000000000E+00 0.  1.
         13   -1    0    0    0    0 -0.00000000000E+00 -0.00000000000E+00 -0.10000000000E+04  0.10000000000E+04  0.00000000000E+00 0.  1.
    9000005    2    1    2  501    0  0.38029856127E+01  0.68975626898E+01 -0.88742936897E+03  0.11069560657E+04  0.66163343879E+03 0.  0.
         13    1    3    3    0    0  0.84328643409E+02  0.17180780897E+03  0.93258601597E+01  0.19161475671E+03  0.00000000000E+00 0.  1.
          1    1    3    3  501    0 -0.80525657796E+02 -0.16491024628E+03 -0.89675522913E+03  0.91534130895E+03  0.00000000000E+00 0.  1.
         21    1    1    2  502  501 -0.38029856127E+01 -0.68975626898E+01  0.27175501915E+01  0.83321155581E+01  0.00000000000E+00 0. -1.
<mgrwt>
<rscale>  1 0.66168032E+03</rscale>
<asrwt>0</asrwt>
<pdfrwt beam="1">  1        1 0.41923063E+00 0.66168032E+03</pdfrwt>
<pdfrwt beam="2">0</pdfrwt>
<totfact> 0.10945402E+00</totfact>
</mgrwt>
</event>
<event>
 6    1  0.4768011E-003  0.6544915E+03  0.7818608E-02  0.9798388E-01
          1   -1    0    0  502    0  0.00000000000E+00  0.00000000000E+00  0.10708977886E+03  0.10708977886E+03  0.00000000000E+00 0.  1.
         13   -1    0    0    0    0 -0.00000000000E+00 -0.00000000000E+00 -0.10000000000E+04  0.10000000000E+04  0.00000000000E+00 0.  1.
    9000005    2    1    2  501    0  0.42473697874E-05 -0.55481046957E-05 -0.89291022795E+03  0.11070897691E+04  0.65449146798E+03 0.  0.
         13    1    3    3    0    0 -0.26530870962E+02 -0.32598134884E+03 -0.42776813353E+03  0.53847312186E+03  0.00000000000E+00 0.  1.
          3    1    3    3  501    0  0.26530875210E+02  0.32598134329E+03 -0.46514209442E+03  0.56861664724E+03  0.00000000000E+00 0.  1.
         21    1    1    2  502  501 -0.42473697860E-05  0.55481047088E-05  0.68160405889E-05  0.97611487678E-05  0.00000000000E+00 0.  1.
<mgrwt>
<rscale>  1 0.65449147E+03</rscale>
<asrwt>0</asrwt>
<pdfrwt beam="1">  1        1 0.38941820E+00 0.65449147E+03</pdfrwt>
<pdfrwt beam="2">0</pdfrwt>
<totfact> 0.14896573E+00</totfact>
</mgrwt>
</event>
<event>
 6    1  0.4768011E-003  0.6524955E+03  0.7818608E-02  0.9802108E-01
          1   -1    0    0  502    0  0.00000000000E+00  0.00000000000E+00  0.10645204846E+03  0.10645204846E+03  0.00000000000E+00 0.  1.
         13   -1    0    0    0    0 -0.00000000000E+00 -0.00000000000E+00 -0.10000000000E+04  0.10000000000E+04  0.00000000000E+00 0.  1.
    9000005    2    1    2  501    0 -0.69183650789E-02 -0.40480654332E-02 -0.89356117637E+03  0.11064365841E+04  0.65249547019E+03 0.  0.
         13    1    3    3    0    0 -0.97230620466E+02  0.18162762120E+03 -0.87574609846E+03  0.89965194120E+03  0.00000000000E+00 0.  1.
          3    1    3    3  501    0  0.97223702101E+02 -0.18163166927E+03 -0.17815077910E+02  0.20678464288E+03  0.00000000000E+00 0.  1.
         21    1    1    2  502  501  0.69183650789E-02  0.40480654331E-02  0.13224832293E-01  0.15464371901E-01  0.00000000000E+00 0.  1.
<mgrwt>
<rscale>  1 0.65249547E+03</rscale>
<asrwt>0</asrwt>
<pdfrwt beam="1">  1        1 0.38709917E+00 0.65249547E+03</pdfrwt>
<pdfrwt beam="2">0</pdfrwt>
<totfact> 0.15258851E+00</totfact>
</mgrwt>
</event>
<event>
 6    1  0.4768011E-003  0.6506896E+03  0.7818608E-02  0.9805486E-01
          1   -1    0    0  502    0  0.00000000000E+00  0.00000000000E+00  0.10586267844E+03  0.10586267844E+03  0.00000000000E+00 0.  1.
         13   -1    0    0    0    0 -0.00000000000E+00 -0.00000000000E+00 -0.10000000000E+04  0.10000000000E+04  0.00000000000E+00 0.  1.
    9000005    2    1    2  501    0 -0.36153953739E-01 -0.16599761287E-01 -0.89409969542E+03  0.11058079209E+04  0.65068955042E+03 0.  0.
         13    1    3    3    0    0  0.22869145079E+03  0.14744850894E+03 -0.75006967155E+03  0.79790059195E+03  0.00000000000E+00 0.  1.
          3    1    3    3  501    0 -0.22872760474E+03 -0.14746510871E+03 -0.14403002387E+03  0.30790732897E+03  0.00000000000E+00 0.  1.
         21    1    1    2  502  501  0.36153953739E-01  0.16599761287E-01 -0.37626140142E-01  0.54757527955E-01  0.00000000000E+00 0. -1.
<mgrwt>
<rscale>  1 0.65068955E+03</rscale>
<asrwt>0</asrwt>
<pdfrwt beam="1">  1        1 0.38495601E+00 0.65068955E+03</pdfrwt>
<pdfrwt beam="2">0</pdfrwt>
<totfact> 0.15600968E+00</totfact>
</mgrwt>
</event>
<event>
 6    1  0.4768011E-003  0.6661073E+03  0.7818608E-02  0.9777016E-01
          1   -1    0    0  502    0  0.00000000000E+00  0.00000000000E+00  0.11092783273E+03  0.11092783273E+03  0.00000000000E+00 0.  1.
         13   -1    0    0    0    0 -0.00000000000E+00 -0.00000000000E+00 -0.10000000000E+04  0.10000000000E+04  0.00000000000E+00 0.  1.
    9000005    2    1    2  501    0 -0.16682256813E-03 -0.41038640961E-03 -0.88907524402E+03  0.11109247243E+04  0.66610731376E+03 0.  0.
         13    1    3    3    0    0 -0.88455497201E+02 -0.29980661760E+03 -0.63627164031E+03  0.70890759850E+03  0.00000000000E+00 0.  1.
          3    1    3    3  501    0  0.88455330378E+02  0.29980620722E+03 -0.25280360370E+03  0.40201712576E+03  0.00000000000E+00 0.  1.
         21    1    1    2  502  501  0.16682256814E-03  0.41038640961E-03  0.30767450654E-02  0.31084734150E-02  0.00000000000E+00 0.  1.
<mgrwt>
<rscale>  1 0.66610731E+03</rscale>
<asrwt>0</asrwt>
<pdfrwt beam="1">  1        1 0.40337479E+00 0.66610731E+03</pdfrwt>
<pdfrwt beam="2">0</pdfrwt>
<totfact> 0.12883472E+00</totfact>
</mgrwt>
</event>
<event>
 6    1  0.4768011E-003  0.6467211E+03  0.7818608E-02  0.9812951E-01
          3   -1    0    0  502    0  0.00000000000E+00  0.00000000000E+00  0.10485901368E+03  0.10485901368E+03  0.00000000000E+00 0.  1.
         13   -1    0    0    0    0 -0.00000000000E+00 -0.00000000000E+00 -0.10000000000E+04  0.10000000000E+04  0.00000000000E+00 0.  1.
    9000005    2    1    2  501    0 -0.42057595335E-02 -0.18847357975E-02 -0.89543793531E+03  0.11045620289E+04  0.64672109889E+03 0.  0.
         13    1    3    3    0    0 -0.11048839966E+03 -0.30316728141E+03 -0.48375001709E+03  0.58149132927E+03  0.00000000000E+00 0.  1.
          3    1    3    3  501    0  0.11048419390E+03  0.30316539667E+03 -0.41168791821E+03  0.52307069966E+03  0.00000000000E+00 0.  1.
         21    1    1    2  502  501  0.42057595336E-02  0.18847357975E-02  0.29694898537E+00  0.29698474802E+00  0.00000000000E+00 0.  1.
<mgrwt>
<rscale>  1 0.64672110E+03</rscale>
<asrwt>0</asrwt>
<pdfrwt beam="1">  1        3 0.38130631E+00 0.64672110E+03</pdfrwt>
<pdfrwt beam="2">0</pdfrwt>
<totfact> 0.74330027E-02</totfact>
</mgrwt>
</event>
<event>
 6    1  0.4768011E-003  0.6543329E+03  0.7818608E-02  0.9798683E-01
          1   -1    0    0  502    0  0.00000000000E+00  0.00000000000E+00  0.10711902262E+03  0.10711902262E+03  0.00000000000E+00 0.  1.
         13   -1    0    0    0    0 -0.00000000000E+00 -0.00000000000E+00 -0.10000000000E+04  0.10000000000E+04  0.00000000000E+00 0.  1.
    9000005    2    1    2  501    0  0.12609963149E+00  0.77665547159E-01 -0.89287906215E+03  0.11069709121E+04  0.65433291122E+03 0.  0.
         13    1    3    3    0    0  0.20720010137E+03  0.98435534564E+02 -0.51746189235E+02  0.23515761645E+03  0.00000000000E+00 0.  1.
          1    1    3    3  501    0 -0.20707400174E+03 -0.98357869017E+02 -0.84113287292E+03  0.87181329567E+03  0.00000000000E+00 0.  1.
         21    1    1    2  502  501 -0.12609963149E+00 -0.77665547159E-01 -0.19152245987E-02  0.14811050726E+00  0.00000000000E+00 0. -1.
<mgrwt>
<rscale>  1 0.65433293E+03</rscale>
<asrwt>0</asrwt>
<pdfrwt beam="1">  1        1 0.38952454E+00 0.65433293E+03</pdfrwt>
<pdfrwt beam="2">0</pdfrwt>
<totfact> 0.14880848E+00</totfact>
</mgrwt>
</event>
<event>
 6    1  0.4768011E-003  0.6508102E+03  0.7818608E-02  0.9805260E-01
          1   -1    0    0  502    0  0.00000000000E+00  0.00000000000E+00  0.10588851186E+03  0.10588851186E+03  0.00000000000E+00 0.  1.
         13   -1    0    0    0    0 -0.00000000000E+00 -0.00000000000E+00 -0.10000000000E+04  0.10000000000E+04  0.00000000000E+00 0.  1.
    9000005    2    1    2  501    0  0.20395869370E-04  0.11197231686E-04 -0.89411152357E+03  0.11058884695E+04  0.65081017997E+03 0.  0.
         13    1    3    3    0    0 -0.24632841917E+03 -0.20489137068E+03 -0.54363381470E+03  0.63102764469E+03  0.00000000000E+00 0.  1.
          1    1    3    3  501    0  0.24632843957E+03  0.20489138188E+03 -0.35047770887E+03  0.47486082479E+03  0.00000000000E+00 0.  1.
         21    1    1    2  502  501 -0.20395869349E-04 -0.11197231674E-04  0.35424357545E-04  0.42382243819E-04  0.00000000000E+00 0.  1.
<mgrwt>
<rscale>  1 0.65081018E+03</rscale>
<asrwt>0</asrwt>
<pdfrwt beam="1">  1        1 0.38504995E+00 0.65081018E+03</pdfrwt>
<pdfrwt beam="2">0</pdfrwt>
<totfact> 0.15585701E+00</totfact>
</mgrwt>
</event>
<event>
 6    1  0.4768011E-003  0.6106681E+03  0.7818608E-02  0.9883517E-01
          3   -1    0    0  502    0  0.00000000000E+00  0.00000000000E+00  0.93229279086E+02  0.93229279086E+02  0.00000000000E+00 0.  1.
         13   -1    0    0    0    0 -0.00000000000E+00 -0.00000000000E+00 -0.10000000000E+04  0.10000000000E+04  0.00000000000E+00 0.  1.
    9000005    2    1    2  501    0 -0.10133634032E-03  0.12390324213E-03 -0.90677109041E+03  0.10932288764E+04  0.61066813068E+03 0.  0.
         13    1    3    3    0    0  0.13998985783E+03  0.26560287738E+03 -0.35392193792E+03  0.46411505783E+03  0.00000000000E+00 0.  1.
          1    1    3    3  501    0 -0.13998995917E+03 -0.26560275347E+03 -0.55284915249E+03  0.62911381858E+03  0.00000000000E+00 0.  1.
         21    1    1    2  502  501  0.10133634033E-03 -0.12390324215E-03  0.36949280545E-03  0.40267356576E-03  0.00000000000E+00 0.  1.
<mgrwt>
<rscale>  1 0.61066813E+03</rscale>
<asrwt>0</asrwt>
<pdfrwt beam="1">  1        3 0.33901628E+00 0.61066813E+03</pdfrwt>
<pdfrwt beam="2">0</pdfrwt>
<totfact> 0.12540200E-01</totfact>
</mgrwt>
</event>
<event>
 6    1  0.4768011E-003  0.6469385E+03  0.7818608E-02  0.9812541E-01
          1   -1    0    0  502    0  0.00000000000E+00  0.00000000000E+00  0.14355165608E+03  0.14355165608E+03  0.00000000000E+00 0.  1.
         13   -1    0    0    0    0 -0.00000000000E+00 -0.00000000000E+00 -0.10000000000E+04  0.10000000000E+04  0.00000000000E+00 0.  1.
    9000005    2    1    2  501    0  0.40223465979E+00 -0.44232561947E+00 -0.89536510399E+03  0.11046303039E+04  0.64693823608E+03 0.  0.
         13    1    3    3    0    0 -0.12935115513E+02  0.31685934966E+03 -0.34047042779E+03  0.46528193268E+03  0.00000000000E+00 0.  1.
          3    1    3    3  501    0  0.13337350173E+02 -0.31730167528E+03 -0.55489467621E+03  0.63934837118E+03  0.00000000000E+00 0.  1.
         21    1    1    2  502  501 -0.40223465979E+00  0.44232561947E+00  0.38916760076E+02  0.38921352231E+02  0.00000000000E+00 0.  1.
<mgrwt>
<rscale>  1 0.64693851E+03</rscale>
<asrwt>0</asrwt>
<pdfrwt beam="1">  1        1 0.52200712E+00 0.64693851E+03</pdfrwt>
<pdfrwt beam="2">0</pdfrwt>
<totfact> 0.36163629E-01</totfact>
</mgrwt>
</event>
<event>
 6    1  0.4768011E-003  0.6486179E+03  0.7818608E-02  0.9809376E-01
          1   -1    0    0  502    0  0.00000000000E+00  0.00000000000E+00  0.10569407485E+03  0.10569407485E+03  0.00000000000E+00 0.  1.
         13   -1    0    0    0    0 -0.00000000000E+00 -0.00000000000E+00 -0.10000000000E+04  0.10000000000E+04  0.00000000000E+00 0.  1.
    9000005    2    1    2  501    0  0.30671744316E-01  0.77831918814E-01 -0.89481996728E+03  0.11051732698E+04  0.64861789638E+03 0.  0.
         13    1    3    3    0    0 -0.81356095051E+02 -0.21132932569E+02  0.86291031524E+02  0.12046392473E+03  0.00000000000E+00 0.  1.
          3    1    3    3  501    0  0.81386766796E+02  0.21210764487E+02 -0.98111099880E+03  0.98470934509E+03  0.00000000000E+00 0.  1.
         21    1    1    2  502  501 -0.30671744316E-01 -0.77831918814E-01  0.51404213228E+00  0.52080502806E+00  0.00000000000E+00 0.  1.
<mgrwt>
<rscale>  1 0.64861790E+03</rscale>
<asrwt>0</asrwt>
<pdfrwt beam="1">  1        1 0.38434290E+00 0.64861790E+03</pdfrwt>
<pdfrwt beam="2">0</pdfrwt>
<totfact> 0.15704680E+00</totfact>
</mgrwt>
</event>
<event>
 6    1  0.4768011E-003  0.6437655E+03  0.7818608E-02  0.9818549E-01
          1   -1    0    0  502    0  0.00000000000E+00  0.00000000000E+00  0.10367563315E+03  0.10367563315E+03  0.00000000000E+00 0.  1.
         13   -1    0    0    0    0 -0.00000000000E+00 -0.00000000000E+00 -0.10000000000E+04  0.10000000000E+04  0.00000000000E+00 0.  1.
    9000005    2    1    2  501    0 -0.22833152921E-01 -0.22757087294E-01 -0.89638719727E+03  0.11036050152E+04  0.64376550160E+03 0.  0.
         13    1    3    3    0    0 -0.21874838325E+03 -0.81540711564E+02 -0.82813155589E+03  0.86040781998E+03  0.00000000000E+00 0.  1.
          1    1    3    3  501    0  0.21872555010E+03  0.81517954477E+02 -0.68255641371E+02  0.24319719519E+03  0.00000000000E+00 0.  1.
         21    1    1    2  502  501  0.22833152921E-01  0.22757087294E-01  0.62830416075E-01  0.70617979854E-01  0.00000000000E+00 0.  1.
<mgrwt>
<rscale>  1 0.64376550E+03</rscale>
<asrwt>0</asrwt>
<pdfrwt beam="1">  1        1 0.37700310E+00 0.64376550E+03</pdfrwt>
<pdfrwt beam="2">0</pdfrwt>
<totfact> 0.16936049E+00</totfact>
</mgrwt>
</event>
<event>
 6    1  0.4768011E-003  0.6185026E+03  0.7818608E-02  0.9867746E-01
          1   -1    0    0  502    0  0.00000000000E+00  0.00000000000E+00  0.10084079780E+03  0.10084079780E+03  0.00000000000E+00 0.  1.
         13   -1    0    0    0    0 -0.00000000000E+00 -0.00000000000E+00 -0.10000000000E+04  0.10000000000E+04  0.00000000000E+00 0.  1.
    9000005    2    1    2  501    0  0.97305789525E+00 -0.41187222717E-01 -0.90431366361E+03  0.10955951319E+04  0.61850185318E+03 0.  0.
         13    1    3    3    0    0 -0.24316786562E+03  0.18812886460E+03 -0.39937199147E+03  0.50400502789E+03  0.00000000000E+00 0.  1.
          3    1    3    3  501    0  0.24414092352E+03 -0.18817005182E+03 -0.50494167213E+03  0.59159010404E+03  0.00000000000E+00 0.  1.
         21    1    1    2  502  501 -0.97305789525E+00  0.41187222717E-01  0.51544614062E+01  0.52456658723E+01  0.00000000000E+00 0. -1.
<mgrwt>
<rscale>  1 0.61850262E+03</rscale>
<asrwt>0</asrwt>
<pdfrwt beam="1">  1        1 0.36669458E+00 0.61850262E+03</pdfrwt>
<pdfrwt beam="2">0</pdfrwt>
<totfact> 0.18885759E+00</totfact>
</mgrwt>
</event>
<event>
 6    1  0.4768011E-003  0.6586772E+03  0.7818608E-02  0.9790632E-01
          1   -1    0    0  502    0  0.00000000000E+00  0.00000000000E+00  0.10846416570E+03  0.10846416570E+03  0.00000000000E+00 0.  1.
         13   -1    0    0    0    0 -0.00000000000E+00 -0.00000000000E+00 -0.10000000000E+04  0.10000000000E+04  0.00000000000E+00 0.  1.
    9000005    2    1    2  501    0 -0.41695830745E-04 -0.76457932039E-05 -0.89153607249E+03  0.11084639238E+04  0.65867723641E+03 0.  0.
         13    1    3    3    0    0 -0.10850766351E+03  0.23052208210E+03 -0.94579030975E+02  0.27177111045E+03  0.00000000000E+00 0.  1.
          1    1    3    3  501    0  0.10850762181E+03 -0.23052208975E+03 -0.79695704151E+03  0.83669281332E+03  0.00000000000E+00 0.  1.
         21    1    1    2  502  501  0.41695830735E-04  0.76457932116E-05  0.23818482909E-03  0.24192770255E-03  0.00000000000E+00 0. -1.
<mgrwt>
<rscale>  1 0.65867724E+03</rscale>
<asrwt>0</asrwt>
<pdfrwt beam="1">  1        1 0.39441598E+00 0.65867724E+03</pdfrwt>
<pdfrwt beam="2">0</pdfrwt>
<totfact> 0.14143659E+00</totfact>
</mgrwt>
</event>
<event>
 6    1  0.4768011E-003  0.6538654E+03  0.7818608E-02  0.9799553E-01
          1   -1    0    0  502    0  0.00000000000E+00  0.00000000000E+00  0.10943662296E+03  0.10943662296E+03  0.00000000000E+00 0.  1.
         13   -1    0    0    0    0 -0.00000000000E+00 -0.00000000000E+00 -0.10000000000E+04  0.10000000000E+04  0.00000000000E+00 0.  1.
    9000005    2    1    2  501    0  0.32443483176E-01 -0.10437456449E+00 -0.89311372808E+03  0.11068839308E+04  0.65386534785E+03 0.  0.
         13    1    3    3    0    0  0.23704135259E+02 -0.29238158098E+03 -0.20208341815E+03  0.35621142993E+03  0.00000000000E+00 0.  1.
          1    1    3    3  501    0 -0.23671691775E+02  0.29227720641E+03 -0.69103030993E+03  0.75067250091E+03  0.00000000000E+00 0.  1.
         21    1    1    2  502  501 -0.32443483176E-01  0.10437456449E+00  0.25503510357E+01  0.25526921151E+01  0.00000000000E+00 0.  1.
<mgrwt>
<rscale>  1 0.65386536E+03</rscale>
<asrwt>0</asrwt>
<pdfrwt beam="1">  1        1 0.39795220E+00 0.65386536E+03</pdfrwt>
<pdfrwt beam="2">0</pdfrwt>
<totfact> 0.13652746E+00</totfact>
</mgrwt>
</event>
<event>
 6    1  0.4768011E-003  0.6422390E+03  0.7818608E-02  0.9821452E-01
          1   -1    0    0  502    0  0.00000000000E+00  0.00000000000E+00  0.10311797266E+03  0.10311797266E+03  0.00000000000E+00 0.  1.
         13   -1    0    0    0    0 -0.00000000000E+00 -0.00000000000E+00 -0.10000000000E+04  0.10000000000E+04  0.00000000000E+00 0.  1.
    9000005    2    1    2  501    0  0.18091931423E-03 -0.37057690463E-04 -0.89688221565E+03  0.11031177089E+04  0.64223902946E+03 0.  0.
         13    1    3    3    0    0  0.20373991856E+03 -0.16684453182E+03 -0.13279874878E+03  0.29492805884E+03  0.00000000000E+00 0.  1.
          3    1    3    3  501    0 -0.20373973764E+03  0.16684449476E+03 -0.76408346687E+03  0.80818965007E+03  0.00000000000E+00 0.  1.
         21    1    1    2  502  501 -0.18091931425E-03  0.37057690471E-04  0.18831314069E-03  0.26375539739E-03  0.00000000000E+00 0. -1.
<mgrwt>
<rscale>  1 0.64223903E+03</rscale>
<asrwt>0</asrwt>
<pdfrwt beam="1">  1        1 0.37497524E+00 0.64223903E+03</pdfrwt>
<pdfrwt beam="2">0</pdfrwt>
<totfact> 0.17292740E+00</totfact>
</mgrwt>
</event>
<event>
 6    1  0.4768011E-003  0.6526029E+03  0.7818608E-02  0.9801907E-01
          3   -1    0    0  502    0  0.00000000000E+00  0.00000000000E+00  0.10654401567E+03  0.10654401567E+03  0.00000000000E+00 0.  1.
         13   -1    0    0    0    0 -0.00000000000E+00 -0.00000000000E+00 -0.10000000000E+04  0.10000000000E+04  0.00000000000E+00 0.  1.
    9000005    2    1    2  501    0 -0.83629027341E-01 -0.26480956094E-01 -0.89349624754E+03  0.11064474953E+04  0.65260287143E+03 0.  0.
         13    1    3    3    0    0 -0.28944496632E+03  0.37082152294E+02 -0.19910984200E+03  0.35326789230E+03  0.00000000000E+00 0.  1.
          3    1    3    3  501    0  0.28936133730E+03 -0.37108633250E+02 -0.69438640554E+03  0.75317960300E+03  0.00000000000E+00 0.  1.
         21    1    1    2  502  501  0.83629027341E-01  0.26480956094E-01  0.40263208344E-01  0.96520366741E-01  0.00000000000E+00 0. -1.
<mgrwt>
<rscale>  1 0.65260288E+03</rscale>
<asrwt>0</asrwt>
<pdfrwt beam="1">  1        3 0.38743360E+00 0.65260288E+03</pdfrwt>
<pdfrwt beam="2">0</pdfrwt>
<totfact> 0.68933135E-02</totfact>
</mgrwt>
</event>
<event>
 6    1  0.4768011E-003  0.5375083E+03  0.7818608E-02  0.1004427E+00
          1   -1    0    0  502    0  0.00000000000E+00  0.00000000000E+00  0.81519553366E+02  0.81519553366E+02  0.00000000000E+00 0.  1.
         13   -1    0    0    0    0 -0.00000000000E+00 -0.00000000000E+00 -0.10000000000E+04  0.10000000000E+04  0.00000000000E+00 0.  1.
    9000005    2    1    2  501    0 -0.65169793968E-02  0.32886357486E+00 -0.92776809288E+03  0.10722260843E+04  0.53750817073E+03 0.  0.
         13    1    3    3    0    0  0.66045138629E+02  0.51501512266E+02  0.45543908279E+02  0.95334220947E+02  0.00000000000E+00 0.  1.
          3    1    3    3  501    0 -0.66051655608E+02 -0.51172648692E+02 -0.97331200115E+03  0.97689186340E+03  0.00000000000E+00 0.  1.
         21    1    1    2  502  501  0.65169793968E-02 -0.32886357486E+00  0.92876462419E+01  0.92934690206E+01  0.00000000000E+00 0.  1.
<mgrwt>
<rscale>  1 0.53750827E+03</rscale>
<asrwt>0</asrwt>
<pdfrwt beam="1">  1        1 0.29643536E+00 0.53750827E+03</pdfrwt>
<pdfrwt beam="2">0</pdfrwt>
<totfact> 0.38657338E+00</totfact>
</mgrwt>
</event>
<event>
 6    1  0.4768011E-003  0.6228463E+03  0.7818608E-02  0.9859109E-01
          1   -1    0    0  502    0  0.00000000000E+00  0.00000000000E+00  0.97004481845E+02  0.97004481845E+02  0.00000000000E+00 0.  1.
         13   -1    0    0    0    0 -0.00000000000E+00 -0.00000000000E+00 -0.10000000000E+04  0.10000000000E+04  0.00000000000E+00 0.  1.
    9000005    2    1    2  501    0 -0.97915649786E-02  0.62503600136E-01 -0.90292440558E+03  0.10969093001E+04  0.62284631038E+03 0.  0.
         13    1    3    3    0    0 -0.26242240224E+03  0.97710062828E+02 -0.69154028840E+03  0.74608360393E+03  0.00000000000E+00 0.  1.
          1    1    3    3  501    0  0.26241261067E+03 -0.97647559228E+02 -0.21138411718E+03  0.35082569612E+03  0.00000000000E+00 0.  1.
         21    1    1    2  502  501  0.97915649786E-02 -0.62503600136E-01 -0.71112577820E-01  0.95181791845E-01  0.00000000000E+00 0.  1.
<mgrwt>
<rscale>  1 0.62284631E+03</rscale>
<asrwt>0</asrwt>
<pdfrwt beam="1">  1        1 0.35274431E+00 0.62284631E+03</pdfrwt>
<pdfrwt beam="2">0</pdfrwt>
<totfact> 0.21715881E+00</totfact>
</mgrwt>
</event>
<event>
 6    1  0.4768011E-003  0.6700301E+03  0.7818608E-02  0.9769903E-01
          1   -1    0    0  502    0  0.00000000000E+00  0.00000000000E+00  0.11316436924E+03  0.11316436924E+03  0.00000000000E+00 0.  1.
         13   -1    0    0    0    0 -0.00000000000E+00 -0.00000000000E+00 -0.10000000000E+04  0.10000000000E+04  0.00000000000E+00 0.  1.
    9000005    2    1    2  501    0  0.24399829954E-01  0.34541020074E-03 -0.88776474454E+03  0.11122349351E+04  0.67003008033E+03 0.  0.
         13    1    3    3    0    0 -0.11022635957E+03 -0.31557903364E+03 -0.40704546639E+03  0.52671243438E+03  0.00000000000E+00 0.  1.
          3    1    3    3  501    0  0.11025075940E+03  0.31557937905E+03 -0.48071927815E+03  0.58552250069E+03  0.00000000000E+00 0.  1.
         21    1    1    2  502  501 -0.24399829954E-01 -0.34541020071E-03  0.92911377285E+00  0.92943416868E+00  0.00000000000E+00 0. -1.
<mgrwt>
<rscale>  1 0.67003008E+03</rscale>
<asrwt>0</asrwt>
<pdfrwt beam="1">  1        1 0.41150766E+00 0.67003008E+03</pdfrwt>
<pdfrwt beam="2">0</pdfrwt>
<totfact> 0.11838216E+00</totfact>
</mgrwt>
</event>
<event>
 6    1  0.4768011E-003  0.6572865E+03  0.7818608E-02  0.9793202E-01
          1   -1    0    0  502    0  0.00000000000E+00  0.00000000000E+00  0.10801143820E+03  0.10801143820E+03  0.00000000000E+00 0.  1.
         13   -1    0    0    0    0 -0.00000000000E+00 -0.00000000000E+00 -0.10000000000E+04  0.10000000000E+04  0.00000000000E+00 0.  1.
    9000005    2    1    2  501    0 -0.11910572763E-01 -0.17510673181E-02 -0.89198377661E+03  0.11079984834E+04  0.65728652915E+03 0.  0.
         13    1    3    3    0    0  0.20005325071E+02  0.14847040113E+03  0.47098313483E+02  0.15704115440E+03  0.00000000000E+00 0.  1.
          1    1    3    3  501    0 -0.20017235644E+02 -0.14847215220E+03 -0.93908209010E+03  0.95095732903E+03  0.00000000000E+00 0.  1.
         21    1    1    2  502  501  0.11910572763E-01  0.17510673181E-02 -0.47851850822E-02  0.12954766558E-01  0.00000000000E+00 0. -1.
<mgrwt>
<rscale>  1 0.65728653E+03</rscale>
<asrwt>0</asrwt>
<pdfrwt beam="1">  1        1 0.39276969E+00 0.65728653E+03</pdfrwt>
<pdfrwt beam="2">0</pdfrwt>
<totfact> 0.14387628E+00</totfact>
</mgrwt>
</event>
<event>
 6    1  0.4768011E-003  0.6442446E+03  0.7818608E-02  0.9817639E-01
          1   -1    0    0  502    0  0.00000000000E+00  0.00000000000E+00  0.10407469904E+03  0.10407469904E+03  0.00000000000E+00 0.  1.
         13   -1    0    0    0    0 -0.00000000000E+00 -0.00000000000E+00 -0.10000000000E+04  0.10000000000E+04  0.00000000000E+00 0.  1.
    9000005    2    1    2  501    0 -0.17574824598E+00  0.43108501820E+00 -0.89603292287E+03  0.11035968871E+04  0.64424442078E+03 0.  0.
         13    1    3    3    0    0  0.34837767158E+01 -0.25126442267E+03 -0.10301135230E+03  0.27158292565E+03  0.00000000000E+00 0.  1.
          1    1    3    3  501    0 -0.36595249618E+01  0.25169550769E+03 -0.79302157058E+03  0.83201396149E+03  0.00000000000E+00 0.  1.
         21    1    1    2  502  501  0.17574824598E+00 -0.43108501820E+00  0.10762191463E+00  0.47781190377E+00  0.00000000000E+00 0. -1.
<mgrwt>
<rscale>  1 0.64424459E+03</rscale>
<asrwt>0</asrwt>
<pdfrwt beam="1">  1        1 0.37845425E+00 0.64424459E+03</pdfrwt>
<pdfrwt beam="2">0</pdfrwt>
<totfact> 0.16686998E+00</totfact>
</mgrwt>
</event>
<event>
 6    1  0.4768011E-003  0.6443028E+03  0.7818608E-02  0.9817529E-01
          1   -1    0    0  502    0  0.00000000000E+00  0.00000000000E+00  0.10379242320E+03  0.10379242320E+03  0.00000000000E+00 0.  1.
         13   -1    0    0    0    0 -0.00000000000E+00 -0.00000000000E+00 -0.10000000000E+04  0.10000000000E+04  0.00000000000E+00 0.  1.
    9000005    2    1    2  501    0  0.47153672296E-03 -0.15221574543E-03 -0.89621846017E+03  0.11037815286E+04  0.64430282821E+03 0.  0.
         13    1    3    3    0    0 -0.28396261739E+03 -0.10008184408E+03 -0.64441332913E+03  0.71128031208E+03  0.00000000000E+00 0.  1.
          3    1    3    3  501    0  0.28396308893E+03  0.10008169187E+03 -0.25180513104E+03  0.39250121648E+03  0.00000000000E+00 0.  1.
         21    1    1    2  502  501 -0.47153672293E-03  0.15221574542E-03  0.10883369931E-01  0.10894643526E-01  0.00000000000E+00 0.  1.
<mgrwt>
<rscale>  1 0.64430283E+03</rscale>
<asrwt>0</asrwt>
<pdfrwt beam="1">  1        1 0.37742779E+00 0.64430283E+03</pdfrwt>
<pdfrwt beam="2">0</pdfrwt>
<totfact> 0.16861569E+00</totfact>
</mgrwt>
</event>
<event>
 6    1  0.4768011E-003  0.6393662E+03  0.7818608E-02  0.9826940E-01
          1   -1    0    0  502    0  0.00000000000E+00  0.00000000000E+00  0.10220309211E+03  0.10220309211E+03  0.00000000000E+00 0.  1.
         13   -1    0    0    0    0 -0.00000000000E+00 -0.00000000000E+00 -0.10000000000E+04  0.10000000000E+04  0.00000000000E+00 0.  1.
    9000005    2    1    2  501    0 -0.28208428523E-03  0.70103454473E-03 -0.89780267854E+03  0.11021972722E+04  0.63936623092E+03 0.  0.
         13    1    3    3    0    0 -0.20916435646E+03 -0.24167011338E+03 -0.43759519153E+03  0.54188903233E+03  0.00000000000E+00 0.  1.
          1    1    3    3  501    0  0.20916407438E+03  0.24167081441E+03 -0.46020748701E+03  0.56030823986E+03  0.00000000000E+00 0.  1.
         21    1    1    2  502  501  0.28208428521E-03 -0.70103454472E-03  0.57706511348E-02  0.58199171383E-02  0.00000000000E+00 0. -1.
<mgrwt>
<rscale>  1 0.63936623E+03</rscale>
<asrwt>0</asrwt>
<pdfrwt beam="1">  1        1 0.37164839E+00 0.63936623E+03</pdfrwt>
<pdfrwt beam="2">0</pdfrwt>
<totfact> 0.17894707E+00</totfact>
</mgrwt>
</event>
<event>
 6    1  0.4768011E-003  0.6448400E+03  0.7818608E-02  0.9816510E-01
          1   -1    0    0  502    0  0.00000000000E+00  0.00000000000E+00  0.10446977995E+03  0.10446977995E+03  0.00000000000E+00 0.  1.
         13   -1    0    0    0    0 -0.00000000000E+00 -0.00000000000E+00 -0.10000000000E+04  0.10000000000E+04  0.00000000000E+00 0.  1.
    9000005    2    1    2  501    0 -0.63401231596E+00 -0.75010042812E+00 -0.89546738474E+03  0.11034856201E+04  0.64483929168E+03 0.  0.
         13    1    3    3    0    0  0.21564489199E+03  0.26435538819E+02 -0.40288978861E+02  0.22096325254E+03  0.00000000000E+00 0.  1.
          3    1    3    3  501    0 -0.21627890431E+03 -0.27185639247E+02 -0.85517840588E+03  0.88252236760E+03  0.00000000000E+00 0.  1.
         21    1    1    2  502  501  0.63401231596E+00  0.75010042812E+00 -0.62835311197E-01  0.98415981699E+00  0.00000000000E+00 0. -1.
<mgrwt>
<rscale>  1 0.64484004E+03</rscale>
<asrwt>0</asrwt>
<pdfrwt beam="1">  1        1 0.37989091E+00 0.64484004E+03</pdfrwt>
<pdfrwt beam="2">0</pdfrwt>
<totfact> 0.16443511E+00</totfact>
</mgrwt>
</event>
<event>
 6    1  0.4768011E-003  0.6605775E+03  0.7818608E-02  0.9787131E-01
          1   -1    0    0  502    0  0.00000000000E+00  0.00000000000E+00  0.10936032062E+03  0.10936032062E+03  0.00000000000E+00 0.  1.
         13   -1    0    0    0    0 -0.00000000000E+00 -0.00000000000E+00 -0.10000000000E+04  0.10000000000E+04  0.00000000000E+00 0.  1.
    9000005    2    1    2  501    0 -0.11865962529E-02  0.14203244910E-01 -0.89090912293E+03  0.11090905004E+04  0.66057752951E+03 0.  0.
         13    1    3    3    0    0  0.25817813906E+03  0.20588118974E+03 -0.43355576009E+03  0.54498955301E+03  0.00000000000E+00 0.  1.
          3    1    3    3  501    0 -0.25817932565E+03 -0.20586698649E+03 -0.45735336284E+03  0.56410094737E+03  0.00000000000E+00 0.  1.
         21    1    1    2  502  501  0.11865962528E-02 -0.14203244910E-01  0.26944355182E+00  0.26982025090E+00  0.00000000000E+00 0.  1.
<mgrwt>
<rscale>  1 0.66057753E+03</rscale>
<asrwt>0</asrwt>
<pdfrwt beam="1">  1        1 0.39767473E+00 0.66057753E+03</pdfrwt>
<pdfrwt beam="2">0</pdfrwt>
<totfact> 0.13674407E+00</totfact>
</mgrwt>
</event>
<event>
 6    1  0.4768011E-003  0.6457123E+03  0.7818608E-02  0.9814858E-01
          1   -1    0    0  502    0  0.00000000000E+00  0.00000000000E+00  0.10428937048E+03  0.10428937048E+03  0.00000000000E+00 0.  1.
         13   -1    0    0    0    0 -0.00000000000E+00 -0.00000000000E+00 -0.10000000000E+04  0.10000000000E+04  0.00000000000E+00 0.  1.
    9000005    2    1    2  501    0  0.94824524249E-01 -0.18917781031E-01 -0.89571037948E+03  0.11041926770E+04  0.64571230019E+03 0.  0.
         13    1    3    3    0    0 -0.20017155371E+03 -0.25274775623E+03 -0.41963170686E+03  0.52918885910E+03  0.00000000000E+00 0.  1.
          3    1    3    3  501    0  0.20026637824E+03  0.25272883845E+03 -0.47607867262E+03  0.57500381787E+03  0.00000000000E+00 0.  1.
         21    1    1    2  502  501 -0.94824524249E-01  0.18917781031E-01 -0.25003634021E-03  0.96693512484E-01  0.00000000000E+00 0. -1.
<mgrwt>
<rscale>  1 0.64571231E+03</rscale>
<asrwt>0</asrwt>
<pdfrwt beam="1">  1        1 0.37923487E+00 0.64571231E+03</pdfrwt>
<pdfrwt beam="2">0</pdfrwt>
<totfact> 0.16550792E+00</totfact>
</mgrwt>
</event>
<event>
 6    1  0.4768011E-003  0.6548001E+03  0.7818608E-02  0.9797814E-01
          1   -1    0    0  502    0  0.00000000000E+00  0.00000000000E+00  0.10744642368E+03  0.10744642368E+03  0.00000000000E+00 0.  1.
         13   -1    0    0    0    0 -0.00000000000E+00 -0.00000000000E+00 -0.10000000000E+04  0.10000000000E+04  0.00000000000E+00 0.  1.
    9000005    2    1    2  501    0  0.31086146440E-01 -0.15708350829E-01 -0.89280788595E+03  0.11071897400E+04  0.65480012067E+03 0.  0.
         13    1    3    3    0    0  0.22658399487E+03  0.23155160708E+03 -0.52639801228E+03  0.61810300178E+03  0.00000000000E+00 0.  1.
          1    1    3    3  501    0 -0.22655290872E+03 -0.23156731543E+03 -0.36640987367E+03  0.48908673827E+03  0.00000000000E+00 0.  1.
         21    1    1    2  502  501 -0.31086146440E-01  0.15708350829E-01  0.25430962564E+00  0.25668363111E+00  0.00000000000E+00 0. -1.
<mgrwt>
<rscale>  1 0.65480012E+03</rscale>
<asrwt>0</asrwt>
<pdfrwt beam="1">  1        1 0.39071509E+00 0.65480012E+03</pdfrwt>
<pdfrwt beam="2">0</pdfrwt>
<totfact> 0.14699749E+00</totfact>
</mgrwt>
</event>
<event>
 6    1  0.4768011E-003  0.5331699E+03  0.7818608E-02  0.1005466E+00
          1   -1    0    0  502    0  0.00000000000E+00  0.00000000000E+00  0.72009206084E+02  0.72009206084E+02  0.00000000000E+00 0.  1.
         13   -1    0    0    0    0 -0.00000000000E+00 -0.00000000000E+00 -0.10000000000E+04  0.10000000000E+04  0.00000000000E+00 0.  1.
    9000005    2    1    2  501    0  0.95727046570E+00  0.44847632869E+00 -0.92860723597E+03  0.10707854828E+04  0.53316886075E+03 0.  0.
         13    1    3    3    0    0 -0.47771845162E+02  0.10514293773E+03 -0.94685630658E+03  0.95387318437E+03  0.00000000000E+00 0.  1.
          3    1    3    3  501    0  0.48729115628E+02 -0.10469446140E+03  0.18249070607E+02  0.11691229848E+03  0.00000000000E+00 0.  1.
         21    1    1    2  502  501 -0.95727046570E+00 -0.44847632869E+00  0.61644205495E+00  0.12237232404E+01  0.00000000000E+00 0.  1.
<mgrwt>
<rscale>  1 0.53316991E+03</rscale>
<asrwt>0</asrwt>
<pdfrwt beam="1">  1        1 0.26185221E+00 0.53316991E+03</pdfrwt>
<pdfrwt beam="2">0</pdfrwt>
<totfact> 0.54552741E+00</totfact>
</mgrwt>
</event>
<event>
 6    1  0.4768011E-003  0.6450162E+03  0.7818608E-02  0.9816176E-01
          1   -1    0    0  502    0  0.00000000000E+00  0.00000000000E+00  0.10573470773E+03  0.10573470773E+03  0.00000000000E+00 0.  1.
         13   -1    0    0    0    0 -0.00000000000E+00 -0.00000000000E+00 -0.10000000000E+04  0.10000000000E+04  0.00000000000E+00 0.  1.
    9000005    2    1    2  501    0 -0.11219766497E+01  0.47168291052E+01 -0.89066645428E+03  0.10996965836E+04  0.64499793476E+03 0.  0.
         13    1    3    3    0    0 -0.12734170680E+03  0.31764499371E+02  0.57138115420E+02  0.14314209005E+03  0.00000000000E+00 0.  1.
          3    1    3    3  501    0  0.12621973015E+03 -0.27047670266E+02 -0.94780456970E+03  0.95655449353E+03  0.00000000000E+00 0.  1.
         21    1    1    2  502  501  0.11219766497E+01 -0.47168291052E+01 -0.35988379865E+01  0.60381241510E+01  0.00000000000E+00 0.  1.
<mgrwt>
<rscale>  1 0.64501616E+03</rscale>
<asrwt>0</asrwt>
<pdfrwt beam="1">  1        1 0.38449066E+00 0.64501616E+03</pdfrwt>
<pdfrwt beam="2">0</pdfrwt>
<totfact> 0.15691545E+00</totfact>
</mgrwt>
</event>
<event>
 6    1  0.4768011E-003  0.6383189E+03  0.7818608E-02  0.9828948E-01
          1   -1    0    0  502    0  0.00000000000E+00  0.00000000000E+00  0.10202014216E+03  0.10202014216E+03  0.00000000000E+00 0.  1.
         13   -1    0    0    0    0 -0.00000000000E+00 -0.00000000000E+00 -0.10000000000E+04  0.10000000000E+04  0.00000000000E+00 0.  1.
    9000005    2    1    2  501    0 -0.95640987459E-01  0.43640013456E+00 -0.89764632010E+03  0.11014626122E+04  0.63831870599E+03 0.  0.
         13    1    3    3    0    0 -0.71411753121E+02  0.29600542250E+03 -0.28289522829E+03  0.41563031509E+03  0.00000000000E+00 0.  1.
          3    1    3    3  501    0  0.71316112133E+02 -0.29556902237E+03 -0.61475109181E+03  0.68583229708E+03  0.00000000000E+00 0.  1.
         21    1    1    2  502  501  0.95640987459E-01 -0.43640013456E+00 -0.33353773360E+00  0.55752999531E+00  0.00000000000E+00 0. -1.
<mgrwt>
<rscale>  1 0.63831886E+03</rscale>
<asrwt>0</asrwt>
<pdfrwt beam="1">  1        1 0.37098312E+00 0.63831886E+03</pdfrwt>
<pdfrwt beam="2">0</pdfrwt>
<totfact> 0.18019014E+00</totfact>
</mgrwt>
</event>
<event>
 6    1  0.4768011E-003  0.6481937E+03  0.7818608E-02  0.9810174E-01
          1   -1    0    0  502    0  0.00000000000E+00  0.00000000000E+00  0.10623409685E+03  0.10623409685E+03  0.00000000000E+00 0.  1.
         13   -1    0    0    0    0 -0.00000000000E+00 -0.00000000000E+00 -0.10000000000E+04  0.10000000000E+04  0.00000000000E+00 0.  1.
    9000005    2    1    2  501    0 -0.25497023371E-01 -0.31420269479E-01 -0.89496084001E+03  0.11050384751E+04  0.64819374003E+03 0.  0.
         13    1    3    3    0    0  0.22799774387E+03  0.75344876565E+02 -0.76416929932E+02  0.25199081097E+03  0.00000000000E+00 0.  1.
          3    1    3    3  501    0 -0.22802324089E+03 -0.75376296834E+02 -0.81854391008E+03  0.85304766410E+03  0.00000000000E+00 0.  1.
         21    1    1    2  502  501  0.25497023371E-01  0.31420269479E-01  0.11949368626E+01  0.11956217784E+01  0.00000000000E+00 0.  1.
<mgrwt>
<rscale>  1 0.64819374E+03</rscale>
<asrwt>0</asrwt>
<pdfrwt beam="1">  1        1 0.38630662E+00 0.64819374E+03</pdfrwt>
<pdfrwt beam="2">0</pdfrwt>
<totfact> 0.15394887E+00</totfact>
</mgrwt>
</event>
<event>
 6    1  0.4768011E-003  0.6526337E+03  0.7818608E-02  0.9801850E-01
          1   -1    0    0  502    0  0.00000000000E+00  0.00000000000E+00  0.10648556046E+03  0.10648556046E+03  0.00000000000E+00 0.  1.
         13   -1    0    0    0    0 -0.00000000000E+00 -0.00000000000E+00 -0.10000000000E+04  0.10000000000E+04  0.00000000000E+00 0.  1.
    9000005    2    1    2  501    0 -0.84375848303E-04  0.91646705165E-04 -0.89351732591E+03  0.11064826714E+04  0.65263365713E+03 0.  0.
         13    1    3    3    0    0  0.29137932668E+03  0.60426777631E+02 -0.21974214849E+03  0.36991880094E+03  0.00000000000E+00 0.  1.
          3    1    3    3  501    0 -0.29137941105E+03 -0.60426685984E+02 -0.67377517742E+03  0.73656387046E+03  0.00000000000E+00 0.  1.
         21    1    1    2  502  501  0.84375848316E-04 -0.91646705161E-04  0.28863682935E-02  0.28890552656E-02  0.00000000000E+00 0.  1.
<mgrwt>
<rscale>  1 0.65263366E+03</rscale>
<asrwt>0</asrwt>
<pdfrwt beam="1">  1        1 0.38722104E+00 0.65263366E+03</pdfrwt>
<pdfrwt beam="2">0</pdfrwt>
<totfact> 0.15239513E+00</totfact>
</mgrwt>
</event>
<event>
 6    1  0.4768011E-003  0.6306533E+03  0.7818608E-02  0.9843775E-01
          1   -1    0    0  502    0  0.00000000000E+00  0.00000000000E+00  0.99485583766E+02  0.99485583766E+02  0.00000000000E+00 0.  1.
         13   -1    0    0    0    0 -0.00000000000E+00 -0.00000000000E+00 -0.10000000000E+04  0.10000000000E+04  0.00000000000E+00 0.  1.
    9000005    2    1    2  501    0  0.51851030170E-01  0.10229467006E-01 -0.90055472219E+03  0.10994191177E+04  0.63065330084E+03 0.  0.
         13    1    3    3    0    0 -0.24040962179E+03  0.73447932832E+01 -0.94821831551E+02  0.25853802811E+03  0.00000000000E+00 0.  1.
          1    1    3    3  501    0  0.24046147282E+03 -0.73345638162E+01 -0.80573289064E+03  0.84088108957E+03  0.00000000000E+00 0.  1.
         21    1    1    2  502  501 -0.51851030170E-01 -0.10229467006E-01  0.40305954376E-01  0.66466091228E-01  0.00000000000E+00 0.  1.
<mgrwt>
<rscale>  1 0.63065330E+03</rscale>
<asrwt>0</asrwt>
<pdfrwt beam="1">  1        1 0.36176652E+00 0.63065330E+03</pdfrwt>
<pdfrwt beam="2">0</pdfrwt>
<totfact> 0.19803863E+00</totfact>
</mgrwt>
</event>
<event>
 6    1  0.4768011E-003  0.6895292E+03  0.7818608E-02  0.9735308E-01
          1   -1    0    0  502    0  0.00000000000E+00  0.00000000000E+00  0.11886769508E+03  0.11886769508E+03  0.00000000000E+00 0.  1.
         13   -1    0    0    0    0 -0.00000000000E+00 -0.00000000000E+00 -0.10000000000E+04  0.10000000000E+04  0.00000000000E+00 0.  1.
    9000005    2    1    2  501    0 -0.47890181207E-04  0.47819667446E-03 -0.88113735891E+03  0.11188626183E+04  0.68952919688E+03 0.  0.
         13    1    3    3    0    0 -0.24394656393E+03  0.23362496466E+03 -0.32847461741E+03  0.47115403474E+03  0.00000000000E+00 0.  1.
          1    1    3    3  501    0  0.24394651604E+03 -0.23362448646E+03 -0.55266274150E+03  0.64770858356E+03  0.00000000000E+00 0.  1.
         21    1    1    2  502  501  0.47890181218E-04 -0.47819667444E-03  0.50539929182E-02  0.50767913041E-02  0.00000000000E+00 0.  1.
<mgrwt>
<rscale>  1 0.68952920E+03</rscale>
<asrwt>0</asrwt>
<pdfrwt beam="1">  1        1 0.43224708E+00 0.68952920E+03</pdfrwt>
<pdfrwt beam="2">0</pdfrwt>
<totfact> 0.95043092E-01</totfact>
</mgrwt>
</event>
<event>
 6    1  0.4768011E-003  0.6527869E+03  0.7818608E-02  0.9801564E-01
          1   -1    0    0  502    0  0.00000000000E+00  0.00000000000E+00  0.10656455915E+03  0.10656455915E+03  0.00000000000E+00 0.  1.
         13   -1    0    0    0    0 -0.00000000000E+00 -0.00000000000E+00 -0.10000000000E+04  0.10000000000E+04  0.00000000000E+00 0.  1.
    9000005    2    1    2  501    0  0.16155792522E-02 -0.18455051362E-02 -0.89346727351E+03  0.11065326321E+04  0.65278686961E+03 0.  0.
         13    1    3    3    0    0 -0.12615114792E+03 -0.17029500362E+03 -0.86750662849E+03  0.89301861731E+03  0.00000000000E+00 0.  1.
          1    1    3    3  501    0  0.12615276349E+03  0.17029315812E+03 -0.25960645020E+02  0.21351401483E+03  0.00000000000E+00 0.  1.
         21    1    1    2  502  501 -0.16155792522E-02  0.18455051362E-02  0.31832665294E-01  0.31927019361E-01  0.00000000000E+00 0.  1.
<mgrwt>
<rscale>  1 0.65278687E+03</rscale>
<asrwt>0</asrwt>
<pdfrwt beam="1">  1        1 0.38750830E+00 0.65278687E+03</pdfrwt>
<pdfrwt beam="2">0</pdfrwt>
<totfact> 0.15194506E+00</totfact>
</mgrwt>
</event>
<event>
 6    1  0.4768011E-003  0.6365983E+03  0.7818608E-02  0.9832257E-01
          1   -1    0    0  502    0  0.00000000000E+00  0.00000000000E+00  0.10131471206E+03  0.10131471206E+03  0.00000000000E+00 0.  1.
         13   -1    0    0    0    0 -0.00000000000E+00 -0.00000000000E+00 -0.10000000000E+04  0.10000000000E+04  0.00000000000E+00 0.  1.
    9000005    2    1    2  501    0 -0.24898288011E-04 -0.18314337660E-03 -0.89868564061E+03  0.11013143139E+04  0.63659825427E+03 0.  0.
         13    1    3    3    0    0  0.32439635836E+02  0.22621209235E+03 -0.66039404023E+02  0.23787695051E+03  0.00000000000E+00 0.  1.
          3    1    3    3  501    0 -0.32439660735E+02 -0.22621227550E+03 -0.83264623659E+03  0.86343736338E+03  0.00000000000E+00 0.  1.
         21    1    1    2  502  501  0.24898288017E-04  0.18314337660E-03  0.35267148467E-03  0.39816905610E-03  0.00000000000E+00 0. -1.
<mgrwt>
<rscale>  1 0.63659825E+03</rscale>
<asrwt>0</asrwt>
<pdfrwt beam="1">  1        1 0.36841791E+00 0.63659825E+03</pdfrwt>
<pdfrwt beam="2">0</pdfrwt>
<totfact> 0.18498288E+00</totfact>
</mgrwt>
</event>
<event>
 6    1  0.4768011E-003  0.6460014E+03  0.7818608E-02  0.9814311E-01
          1   -1    0    0  502    0  0.00000000000E+00  0.00000000000E+00  0.11094563796E+03  0.11094563796E+03  0.00000000000E+00 0.  1.
         13   -1    0    0    0    0 -0.00000000000E+00 -0.00000000000E+00 -0.10000000000E+04  0.10000000000E+04  0.00000000000E+00 0.  1.
    9000005    2    1    2  501    0  0.71945810404E-01 -0.11253362347E+00 -0.89566981544E+03  0.11043288363E+04  0.64600134878E+03 0.  0.
         13    1    3    3    0    0 -0.19497819005E+03 -0.87030572630E+02 -0.33529381222E+02  0.21613661090E+03  0.00000000000E+00 0.  1.
          1    1    3    3  501    0  0.19505013586E+03  0.86918039007E+02 -0.86214043422E+03  0.88819222543E+03  0.00000000000E+00 0.  1.
         21    1    1    2  502  501 -0.71945810404E-01  0.11253362347E+00  0.66154533995E+01  0.66168016214E+01  0.00000000000E+00 0. -1.
<mgrwt>
<rscale>  1 0.64600136E+03</rscale>
<asrwt>0</asrwt>
<pdfrwt beam="1">  1        1 0.40343953E+00 0.64600136E+03</pdfrwt>
<pdfrwt beam="2">0</pdfrwt>
<totfact> 0.12924182E+00</totfact>
</mgrwt>
</event>
<event>
 6    1  0.4768011E-003  0.6459226E+03  0.7818608E-02  0.9814460E-01
          1   -1    0    0  502    0  0.00000000000E+00  0.00000000000E+00  0.10430401911E+03  0.10430401911E+03  0.00000000000E+00 0.  1.
         13   -1    0    0    0    0 -0.00000000000E+00 -0.00000000000E+00 -0.10000000000E+04  0.10000000000E+04  0.00000000000E+00 0.  1.
    9000005    2    1    2  501    0  0.33008834635E-05 -0.52175971916E-05 -0.89569597299E+03  0.11043040091E+04  0.64592264898E+03 0.  0.
         13    1    3    3    0    0 -0.12453269576E+03 -0.53113915847E+02  0.53446649798E+02  0.14555419865E+03  0.00000000000E+00 0.  1.
          1    1    3    3  501    0  0.12453269906E+03  0.53113910630E+02 -0.94914262278E+03  0.95874981044E+03  0.00000000000E+00 0.  1.
         21    1    1    2  502  501 -0.33008834628E-05  0.52175971920E-05 -0.78983600420E-05  0.10025130595E-04  0.00000000000E+00 0.  1.
<mgrwt>
<rscale>  1 0.64592265E+03</rscale>
<asrwt>0</asrwt>
<pdfrwt beam="1">  1        1 0.37928814E+00 0.64592265E+03</pdfrwt>
<pdfrwt beam="2">0</pdfrwt>
<totfact> 0.16541202E+00</totfact>
</mgrwt>
</event>
<event>
 6    1  0.4768011E-003  0.6587990E+03  0.7818608E-02  0.9790407E-01
          1   -1    0    0  502    0  0.00000000000E+00  0.00000000000E+00  0.10850403548E+03  0.10850403548E+03  0.00000000000E+00 0.  1.
         13   -1    0    0    0    0 -0.00000000000E+00 -0.00000000000E+00 -0.10000000000E+04  0.10000000000E+04  0.00000000000E+00 0.  1.
    9000005    2    1    2  501    0  0.10564812584E-04 -0.98060437210E-05 -0.89149596616E+03  0.11085040210E+04  0.65879898818E+03 0.  0.
         13    1    3    3    0    0 -0.24198854408E+03 -0.12443619294E+03 -0.13339218267E+03  0.30304503952E+03  0.00000000000E+00 0.  1.
          1    1    3    3  501    0  0.24198855465E+03  0.12443618313E+03 -0.75810378350E+03  0.80545898145E+03  0.00000000000E+00 0.  1.
         21    1    1    2  502  501 -0.10564812576E-04  0.98060437181E-05  0.16431901404E-05  0.14507716292E-04  0.00000000000E+00 0.  1.
<mgrwt>
<rscale>  1 0.65879899E+03</rscale>
<asrwt>0</asrwt>
<pdfrwt beam="1">  1        1 0.39456096E+00 0.65879899E+03</pdfrwt>
<pdfrwt beam="2">0</pdfrwt>
<totfact> 0.14122364E+00</totfact>
</mgrwt>
</event>
<event>
 6    1  0.4768011E-003  0.6551417E+03  0.7818608E-02  0.9797179E-01
          1   -1    0    0  502    0  0.00000000000E+00  0.00000000000E+00  0.11025501227E+03  0.11025501227E+03  0.00000000000E+00 0.  1.
         13   -1    0    0    0    0 -0.00000000000E+00 -0.00000000000E+00 -0.10000000000E+04  0.10000000000E+04  0.00000000000E+00 0.  1.
    9000005    2    1    2  501    0 -0.12860998186E+00 -0.67611831476E-01 -0.89269535168E+03  0.11073010726E+04  0.65514170487E+03 0.  0.
         13    1    3    3    0    0  0.68321132297E+01  0.28204279750E+03 -0.72754508467E+03  0.78033112691E+03  0.00000000000E+00 0.  1.
          1    1    3    3  501    0 -0.69607232116E+01 -0.28211040933E+03 -0.16515026701E+03  0.32696994574E+03  0.00000000000E+00 0.  1.
         21    1    1    2  502  501  0.12860998186E+00  0.67611831476E-01  0.29503639465E+01  0.29539396243E+01  0.00000000000E+00 0. -1.
<mgrwt>
<rscale>  1 0.65514172E+03</rscale>
<asrwt>0</asrwt>
<pdfrwt beam="1">  1        1 0.40092816E+00 0.65514172E+03</pdfrwt>
<pdfrwt beam="2">0</pdfrwt>
<totfact> 0.13238918E+00</totfact>
</mgrwt>
</event>
<event>
 6    1  0.4768011E-003  0.6282170E+03  0.7818608E-02  0.9848534E-01
          1   -1    0    0  502    0  0.00000000000E+00  0.00000000000E+00  0.10560342687E+03  0.10560342687E+03  0.00000000000E+00 0.  1.
         13   -1    0    0    0    0 -0.00000000000E+00 -0.00000000000E+00 -0.10000000000E+04  0.10000000000E+04  0.00000000000E+00 0.  1.
    9000005    2    1    2  501    0 -0.21411519126E+01  0.20911697100E+01 -0.90097966234E+03  0.10983719273E+04  0.62820982263E+03 0.  0.
         13    1    3    3    0    0  0.12029248831E+03 -0.15008190769E+03 -0.17019801837E+02  0.19309203871E+03  0.00000000000E+00 0.  1.
          3    1    3    3  501    0 -0.12243364022E+03  0.15217307740E+03 -0.88395986050E+03  0.90527988861E+03  0.00000000000E+00 0.  1.
         21    1    1    2  502  501  0.21411519126E+01 -0.20911697100E+01  0.65830892117E+01  0.72314995567E+01  0.00000000000E+00 0.  1.
<mgrwt>
<rscale>  1 0.62821695E+03</rscale>
<asrwt>0</asrwt>
<pdfrwt beam="1">  1        1 0.38401327E+00 0.62821695E+03</pdfrwt>
<pdfrwt beam="2">0</pdfrwt>
<totfact> 0.15817805E+00</totfact>
</mgrwt>
</event>
<event>
 6    1  0.4768011E-003  0.6724628E+03  0.7818608E-02  0.9765519E-01
          1   -1    0    0  502    0  0.00000000000E+00  0.00000000000E+00  0.11305157105E+03  0.11305157105E+03  0.00000000000E+00 0.  1.
         13   -1    0    0    0    0 -0.00000000000E+00 -0.00000000000E+00 -0.10000000000E+04  0.10000000000E+04  0.00000000000E+00 0.  1.
    9000005    2    1    2  501    0  0.20160522070E-04 -0.61695489535E-05 -0.88694844943E+03  0.11130515417E+04  0.67246277403E+03 0.  0.
         13    1    3    3    0    0 -0.86432746837E+02  0.21790292436E+03 -0.44511561896E+02  0.23860759274E+03  0.00000000000E+00 0.  1.
          1    1    3    3  501    0  0.86432766998E+02 -0.21790293052E+03 -0.84243688753E+03  0.87444394893E+03  0.00000000000E+00 0.  1.
         21    1    1    2  502  501 -0.20160522076E-04  0.61695489381E-05  0.20480487349E-04  0.29393202386E-04  0.00000000000E+00 0. -1.
<mgrwt>
<rscale>  1 0.67246277E+03</rscale>
<asrwt>0</asrwt>
<pdfrwt beam="1">  1        1 0.41109749E+00 0.67246277E+03</pdfrwt>
<pdfrwt beam="2">0</pdfrwt>
<totfact> 0.11883050E+00</totfact>
</mgrwt>
</event>
<event>
 6    1  0.4768011E-003  0.6430359E+03  0.7818608E-02  0.9819935E-01
          1   -1    0    0  502    0  0.00000000000E+00  0.00000000000E+00  0.10337381558E+03  0.10337381558E+03  0.00000000000E+00 0.  1.
         13   -1    0    0    0    0 -0.00000000000E+00 -0.00000000000E+00 -0.10000000000E+04  0.10000000000E+04  0.00000000000E+00 0.  1.
    9000005    2    1    2  501    0 -0.23600860658E-04 -0.46327412690E-04 -0.89662620078E+03  0.11033737611E+04  0.64303585647E+03 0.  0.
         13    1    3    3    0    0  0.10271385889E+03  0.16775423771E+03 -0.11918169989E+02  0.19706258868E+03  0.00000000000E+00 0.  1.
          1    1    3    3  501    0 -0.10271388249E+03 -0.16775428404E+03 -0.88470803079E+03  0.90631117240E+03  0.00000000000E+00 0.  1.
         21    1    1    2  502  501  0.23600860652E-04  0.46327412683E-04  0.16364390519E-04  0.54507091892E-04  0.00000000000E+00 0.  1.
<mgrwt>
<rscale>  1 0.64303586E+03</rscale>
<asrwt>0</asrwt>
<pdfrwt beam="1">  1        1 0.37590558E+00 0.64303586E+03</pdfrwt>
<pdfrwt beam="2">0</pdfrwt>
<totfact> 0.17127914E+00</totfact>
</mgrwt>
</event>
<event>
 6    1  0.4768011E-003  0.6629280E+03  0.7818608E-02  0.9782819E-01
          1   -1    0    0  502    0  0.00000000000E+00  0.00000000000E+00  0.10987941879E+03  0.10987941879E+03  0.00000000000E+00 0.  1.
         13   -1    0    0    0    0 -0.00000000000E+00 -0.00000000000E+00 -0.10000000000E+04  0.10000000000E+04  0.00000000000E+00 0.  1.
    9000005    2    1    2  501    0  0.21582371593E-03  0.31772249571E-04 -0.89013162027E+03  0.11098683776E+04  0.66292798564E+03 0.  0.
         13    1    3    3    0    0 -0.85453512535E+02 -0.10441706528E+03 -0.95194262805E+03  0.96145722392E+03  0.00000000000E+00 0.  1.
          3    1    3    3  501    0  0.85453728359E+02  0.10441709705E+03  0.61811007782E+02  0.14841115366E+03  0.00000000000E+00 0.  1.
         21    1    1    2  502  501 -0.21582371595E-03 -0.31772249576E-04  0.11039061768E-01  0.11041217056E-01  0.00000000000E+00 0.  1.
<mgrwt>
<rscale>  1 0.66292799E+03</rscale>
<asrwt>0</asrwt>
<pdfrwt beam="1">  1        1 0.39956237E+00 0.66292799E+03</pdfrwt>
<pdfrwt beam="2">0</pdfrwt>
<totfact> 0.13406236E+00</totfact>
</mgrwt>
</event>
