<event>
 6    1  0.1904828E-004  0.3000000E+03  0.7818608E-02  0.1093470E+00
          1   -1    0    0  502    0  0.00000000000E+00  0.00000000000E+00  0.28001559575E+02  0.28001559575E+02  0.00000000000E+00 0.  1.
         13   -1    0    0    0    0 -0.00000000000E+00 -0.00000000000E+00 -0.10000000000E+04  0.10000000000E+04  0.00000000000E+00 0.  1.
    9000005    2    1    2  501    0 -0.74237977940E+01 -0.71477339877E+01 -0.96845931347E+03  0.10171053082E+04  0.31061803426E+03 0.  0.
         13    1    3    3    0    0  0.12401469182E+03 -0.74777839541E+02 -0.65109503389E+03  0.66700533149E+03  0.00000000000E+00 0.  1.
          3    1    3    3  501    0 -0.13143848961E+03  0.67630105553E+02 -0.31736427958E+03  0.35009997669E+03  0.00000000000E+00 0.  1.
         21    1    1    2  502  501  0.74237977940E+01  0.71477339877E+01 -0.35391269570E+01  0.10896251395E+02  0.00000000000E+00 0. -1.
<mgrwt>
<rscale>  1 0.30000000E+03</rscale>
<asrwt>0</asrwt>
<pdfrwt beam="1">  1        1 0.10182407E+00 0.30000000E+03</pdfrwt>
<pdfrwt beam="2">0</pdfrwt>
<totfact> 0.33331716E+01</totfact>
</mgrwt>
</event>
<event>
 6    1  0.1904828E-004  0.3000000E+03  0.7818608E-02  0.1093470E+00
          1   -1    0    0  502    0  0.00000000000E+00  0.00000000000E+00  0.33807083587E+02  0.33807083587E+02  0.00000000000E+00 0.  1.
         13   -1    0    0    0    0 -0.00000000000E+00 -0.00000000000E+00 -0.10000000000E+04  0.10000000000E+04  0.00000000000E+00 0.  1.
    9000005    2    1    2  501    0 -0.13066114356E+02 -0.20091230084E+01 -0.96369556397E+03  0.10203535826E+04  0.33501870632E+03 0.  0.
         13    1    3    3    0    0 -0.17108401488E+03  0.30242594401E+01 -0.40363928896E+03  0.43841026663E+03  0.00000000000E+00 0.  1.
          3    1    3    3  501    0  0.15801790052E+03 -0.50333824486E+01 -0.56005627501E+03  0.58194331597E+03  0.00000000000E+00 0.  1.
         21    1    1    2  502  501  0.13066114356E+02  0.20091230084E+01 -0.24973524394E+01  0.13453500988E+02  0.00000000000E+00 0.  1.
<mgrwt>
<rscale>  1 0.30000000E+03</rscale>
<asrwt>0</asrwt>
<pdfrwt beam="1">  1        1 0.12293511E+00 0.30000000E+03</pdfrwt>
<pdfrwt beam="2">0</pdfrwt>
<totfact> 0.25027325E+01</totfact>
</mgrwt>
</event>
<event>
 6    1  0.1904828E-004  0.3000000E+03  0.7818608E-02  0.1093470E+00
          3   -1    0    0  502    0  0.00000000000E+00  0.00000000000E+00  0.32281997708E+02  0.32281997708E+02  0.00000000000E+00 0.  1.
         13   -1    0    0    0    0 -0.00000000000E+00 -0.00000000000E+00 -0.10000000000E+04  0.10000000000E+04  0.00000000000E+00 0.  1.
    9000005    2    1    2  501    0 -0.17010771852E+02 -0.89833889041E+01 -0.95691204830E+03  0.10102176310E+04  0.32324746902E+03 0.  0.
         13    1    3    3    0    0  0.14506476233E+03  0.43373797407E+02 -0.50784386574E+03  0.52993439551E+03  0.00000000000E+00 0.  1.
          1    1    3    3  501    0 -0.16207553418E+03 -0.52357186311E+02 -0.44906818256E+03  0.48028323552E+03  0.00000000000E+00 0.  1.
         21    1    1    2  502  501  0.17010771852E+02  0.89833889041E+01 -0.10805953992E+02  0.22064366678E+02  0.00000000000E+00 0. -1.
<mgrwt>
<rscale>  1 0.30000000E+03</rscale>
<asrwt>0</asrwt>
<pdfrwt beam="1">  1        3 0.11738933E+00 0.30000000E+03</pdfrwt>
<pdfrwt beam="2">0</pdfrwt>
<totfact> 0.24796117E+00</totfact>
</mgrwt>
</event>
<event>
 6    1  0.1904828E-004  0.3000000E+03  0.7818608E-02  0.1093470E+00
          1   -1    0    0  502    0  0.00000000000E+00  0.00000000000E+00  0.37365396057E+02  0.37365396057E+02  0.00000000000E+00 0.  1.
         13   -1    0    0    0    0 -0.00000000000E+00 -0.00000000000E+00 -0.10000000000E+04  0.10000000000E+04  0.00000000000E+00 0.  1.
    9000005    2    1    2  501    0  0.17919691029E+02 -0.32137938293E+02 -0.93907075711E+03  0.99367080507E+03  0.32275969323E+03 0.  0.
         13    1    3    3    0    0  0.66116852526E+01 -0.45368500941E+02 -0.96299486638E+03  0.96408564346E+03  0.00000000000E+00 0.  1.
          3    1    3    3  501    0  0.11308005776E+02  0.13230562648E+02  0.23924109270E+02  0.29585161601E+02  0.00000000000E+00 0.  1.
         21    1    1    2  502  501 -0.17919691029E+02  0.32137938293E+02 -0.23563846833E+02  0.43694590991E+02  0.00000000000E+00 0. -1.
<mgrwt>
<rscale>  1 0.30000000E+03</rscale>
<asrwt>0</asrwt>
<pdfrwt beam="1">  1        1 0.13587445E+00 0.30000000E+03</pdfrwt>
<pdfrwt beam="2">0</pdfrwt>
<totfact> 0.21272997E+01</totfact>
</mgrwt>
</event>
<event>
 6    1  0.1904828E-004  0.3000000E+03  0.7818608E-02  0.1093470E+00
          1   -1    0    0  502    0  0.00000000000E+00  0.00000000000E+00  0.51360671565E+02  0.51360671565E+02  0.00000000000E+00 0.  1.
         13   -1    0    0    0    0 -0.00000000000E+00 -0.00000000000E+00 -0.10000000000E+04  0.10000000000E+04  0.00000000000E+00 0.  1.
    9000005    2    1    2  501    0 -0.18619866352E+02  0.23749508347E+02 -0.96449429498E+03  0.10172708119E+04  0.32199366620E+03 0.  0.
         13    1    3    3    0    0  0.16195488425E+01  0.13355738222E+03 -0.17617554727E+03  0.22108374147E+03  0.00000000000E+00 0.  1.
          3    1    3    3  501    0 -0.20239415195E+02 -0.10980787388E+03 -0.78831874771E+03  0.79618707041E+03  0.00000000000E+00 0.  1.
         21    1    1    2  502  501  0.18619866352E+02 -0.23749508347E+02  0.15854966544E+02  0.34089859692E+02  0.00000000000E+00 0.  1.
<mgrwt>
<rscale>  1 0.30000000E+03</rscale>
<asrwt>0</asrwt>
<pdfrwt beam="1">  1        1 0.18676647E+00 0.30000000E+03</pdfrwt>
<pdfrwt beam="2">0</pdfrwt>
<totfact> 0.11850333E+01</totfact>
</mgrwt>
</event>
<event>
 6    1  0.1904828E-004  0.3000000E+03  0.7818608E-02  0.1093470E+00
          1   -1    0    0  502    0  0.00000000000E+00  0.00000000000E+00  0.44183975009E+02  0.44183975009E+02  0.00000000000E+00 0.  1.
         13   -1    0    0    0    0 -0.00000000000E+00 -0.00000000000E+00 -0.10000000000E+04  0.10000000000E+04  0.00000000000E+00 0.  1.
    9000005    2    1    2  501    0 -0.33609266556E+01 -0.18128288520E+02 -0.96720474796E+03  0.10225129417E+04  0.33122161895E+03 0.  0.
         13    1    3    3    0    0  0.19661012481E+01 -0.17302911128E+03 -0.43356882089E+03  0.46682422961E+03  0.00000000000E+00 0.  1.
          1    1    3    3  501    0 -0.53270279037E+01  0.15490082276E+03 -0.53363592707E+03  0.55568871212E+03  0.00000000000E+00 0.  1.
         21    1    1    2  502  501  0.33609266556E+01  0.18128288520E+02  0.11388722965E+02  0.21671033280E+02  0.00000000000E+00 0.  1.
<mgrwt>
<rscale>  1 0.30000000E+03</rscale>
<asrwt>0</asrwt>
<pdfrwt beam="1">  1        1 0.16066934E+00 0.30000000E+03</pdfrwt>
<pdfrwt beam="2">0</pdfrwt>
<totfact> 0.15881064E+01</totfact>
</mgrwt>
</event>
<event>
 6    1  0.1904828E-004  0.3000000E+03  0.7818608E-02  0.1093470E+00
          1   -1    0    0  502    0  0.00000000000E+00  0.00000000000E+00  0.34907235124E+02  0.34907235124E+02  0.00000000000E+00 0.  1.
         13   -1    0    0    0    0 -0.00000000000E+00 -0.00000000000E+00 -0.10000000000E+04  0.10000000000E+04  0.00000000000E+00 0.  1.
    9000005    2    1    2  501    0 -0.42218665941E+01  0.14506537247E+02 -0.96794994437E+03  0.10195310439E+04  0.31982525070E+03 0.  0.
         13    1    3    3    0    0 -0.14401344695E+03  0.34299465356E+02 -0.71195609020E+03  0.72718484624E+03  0.00000000000E+00 0.  1.
          3    1    3    3  501    0  0.13979158036E+03 -0.19792928109E+02 -0.25599385417E+03  0.29234619771E+03  0.00000000000E+00 0.  1.
         21    1    1    2  502  501  0.42218665941E+01 -0.14506537247E+02  0.28571794951E+01  0.15376191177E+02  0.00000000000E+00 0. -1.
<mgrwt>
<rscale>  1 0.30000000E+03</rscale>
<asrwt>0</asrwt>
<pdfrwt beam="1">  1        1 0.12693567E+00 0.30000000E+03</pdfrwt>
<pdfrwt beam="2">0</pdfrwt>
<totfact> 0.23781070E+01</totfact>
</mgrwt>
</event>
<event>
 6    1  0.1904828E-004  0.3000000E+03  0.7818608E-02  0.1093470E+00
          1   -1    0    0  502    0  0.00000000000E+00  0.00000000000E+00  0.41826879983E+02  0.41826879983E+02  0.00000000000E+00 0.  1.
         13   -1    0    0    0    0 -0.00000000000E+00 -0.00000000000E+00 -0.10000000000E+04  0.10000000000E+04  0.00000000000E+00 0.  1.
    9000005    2    1    2  501    0  0.16768515472E+02 -0.88519308595E+00 -0.96739050475E+03  0.10226715450E+04  0.33125629586E+03 0.  0.
         13    1    3    3    0    0 -0.77948681150E+02  0.11741230996E+03 -0.22900960314E+03  0.26889969460E+03  0.00000000000E+00 0.  1.
          3    1    3    3  501    0  0.94717196623E+02 -0.11829750305E+03 -0.73838090161E+03  0.75377185038E+03  0.00000000000E+00 0.  1.
         21    1    1    2  502  501 -0.16768515472E+02  0.88519308595E+00  0.92173847307E+01  0.19155335007E+02  0.00000000000E+00 0.  1.
<mgrwt>
<rscale>  1 0.30000000E+03</rscale>
<asrwt>0</asrwt>
<pdfrwt beam="1">  1        1 0.15209807E+00 0.30000000E+03</pdfrwt>
<pdfrwt beam="2">0</pdfrwt>
<totfact> 0.17530252E+01</totfact>
</mgrwt>
</event>
<event>
 6    1  0.1904828E-004  0.3000000E+03  0.7818608E-02  0.1093470E+00
          1   -1    0    0  502    0  0.00000000000E+00  0.00000000000E+00  0.27011375304E+02  0.27011375304E+02  0.00000000000E+00 0.  1.
         13   -1    0    0    0    0 -0.00000000000E+00 -0.00000000000E+00 -0.10000000000E+04  0.10000000000E+04  0.00000000000E+00 0.  1.
    9000005    2    1    2  501    0  0.24783988898E+00  0.82488818910E+01 -0.95650680295E+03  0.10085789060E+04  0.31977811063E+03 0.  0.
         13    1    3    3    0    0  0.86109444553E+02  0.13393160546E+03 -0.60356604821E+03  0.62421509588E+03  0.00000000000E+00 0.  1.
          3    1    3    3  501    0 -0.85861604664E+02 -0.12568272357E+03 -0.35294075475E+03  0.38436381011E+03  0.00000000000E+00 0.  1.
         21    1    1    2  502  501 -0.24783988898E+00 -0.82488818910E+01 -0.16481821743E+02  0.18432469314E+02  0.00000000000E+00 0. -1.
<mgrwt>
<rscale>  1 0.30000000E+03</rscale>
<asrwt>0</asrwt>
<pdfrwt beam="1">  1        1 0.98223390E-01 0.30000000E+03</pdfrwt>
<pdfrwt beam="2">0</pdfrwt>
<totfact> 0.35133346E+01</totfact>
</mgrwt>
</event>
<event>
 6    1  0.1904828E-004  0.3000000E+03  0.7818608E-02  0.1093470E+00
          1   -1    0    0  502    0  0.00000000000E+00  0.00000000000E+00  0.31862845492E+02  0.31862845492E+02  0.00000000000E+00 0.  1.
         13   -1    0    0    0    0 -0.00000000000E+00 -0.00000000000E+00 -0.10000000000E+04  0.10000000000E+04  0.00000000000E+00 0.  1.
    9000005    2    1    2  501    0  0.21209531360E+02 -0.18994257490E+02 -0.93910256935E+03  0.99119795679E+03  0.31583085306E+03 0.  0.
         13    1    3    3    0    0 -0.91337128723E+02 -0.12639028614E+03 -0.37731009973E+03  0.40826448152E+03  0.00000000000E+00 0.  1.
          3    1    3    3  501    0  0.11254666008E+03  0.10739602865E+03 -0.56179246962E+03  0.58293347526E+03  0.00000000000E+00 0.  1.
         21    1    1    2  502  501 -0.21209531360E+02  0.18994257490E+02 -0.29034585160E+02  0.40664888707E+02  0.00000000000E+00 0.  1.
<mgrwt>
<rscale>  1 0.30000000E+03</rscale>
<asrwt>0</asrwt>
<pdfrwt beam="1">  1        1 0.11586514E+00 0.30000000E+03</pdfrwt>
<pdfrwt beam="2">0</pdfrwt>
<totfact> 0.27448209E+01</totfact>
</mgrwt>
</event>
<event>
 6    1  0.1904828E-004  0.3000000E+03  0.7818608E-02  0.1093470E+00
          1   -1    0    0  502    0  0.00000000000E+00  0.00000000000E+00  0.29999624943E+02  0.29999624943E+02  0.00000000000E+00 0.  1.
         13   -1    0    0    0    0 -0.00000000000E+00 -0.00000000000E+00 -0.10000000000E+04  0.10000000000E+04  0.00000000000E+00 0.  1.
    9000005    2    1    2  501    0 -0.36721173308E+01 -0.10748422978E+02 -0.95859603490E+03  0.10139039107E+04  0.33009963494E+03 0.  0.
         13    1    3    3    0    0 -0.14503316384E+03 -0.60715236833E+02 -0.30280406818E+03  0.34119094698E+03  0.00000000000E+00 0.  1.
          3    1    3    3  501    0  0.14136104650E+03  0.49966813855E+02 -0.65579196672E+03  0.67271296373E+03  0.00000000000E+00 0.  1.
         21    1    1    2  502  501  0.36721173308E+01  0.10748422978E+02 -0.11404340159E+02  0.16095714233E+02  0.00000000000E+00 0.  1.
<mgrwt>
<rscale>  1 0.30000000E+03</rscale>
<asrwt>0</asrwt>
<pdfrwt beam="1">  1        1 0.10908978E+00 0.30000000E+03</pdfrwt>
<pdfrwt beam="2">0</pdfrwt>
<totfact> 0.30084100E+01</totfact>
</mgrwt>
</event>
<event>
 6    1  0.1904828E-004  0.3000000E+03  0.7818608E-02  0.1093470E+00
          1   -1    0    0  502    0  0.00000000000E+00  0.00000000000E+00  0.54379901701E+02  0.54379901701E+02  0.00000000000E+00 0.  1.
         13   -1    0    0    0    0 -0.00000000000E+00 -0.00000000000E+00 -0.10000000000E+04  0.10000000000E+04  0.00000000000E+00 0.  1.
    9000005    2    1    2  501    0 -0.22071421887E+02  0.56134348317E+02 -0.93577245544E+03  0.99326371076E+03  0.32751259217E+03 0.  0.
         13    1    3    3    0    0 -0.23911600532E+02 -0.12762579693E+03 -0.56138628955E+03  0.57620714572E+03  0.00000000000E+00 0.  1.
          3    1    3    3  501    0  0.18401786453E+01  0.18376014524E+03 -0.37438616589E+03  0.41705656504E+03  0.00000000000E+00 0.  1.
         21    1    1    2  502  501  0.22071421887E+02 -0.56134348317E+02 -0.98476428608E+01  0.61116190940E+02  0.00000000000E+00 0.  1.
<mgrwt>
<rscale>  1 0.30000000E+03</rscale>
<asrwt>0</asrwt>
<pdfrwt beam="1">  1        1 0.19774551E+00 0.30000000E+03</pdfrwt>
<pdfrwt beam="2">0</pdfrwt>
<totfact> 0.10499500E+01</totfact>
</mgrwt>
</event>
<event>
 6    1  0.1904828E-004  0.3000000E+03  0.7818608E-02  0.1093470E+00
          1   -1    0    0  502    0  0.00000000000E+00  0.00000000000E+00  0.35509434799E+02  0.35509434799E+02  0.00000000000E+00 0.  1.
         13   -1    0    0    0    0 -0.00000000000E+00 -0.00000000000E+00 -0.10000000000E+04  0.10000000000E+04  0.00000000000E+00 0.  1.
    9000005    2    1    2  501    0 -0.29264209721E+02  0.10876133146E+01 -0.96062431246E+03  0.10059709043E+04  0.29718817903E+03 0.  0.
         13    1    3    3    0    0  0.33873774385E+02  0.12010477747E+03 -0.71513713709E+03  0.72594332769E+03  0.00000000000E+00 0.  1.
          3    1    3    3  501    0 -0.63137984106E+02 -0.11901716415E+03 -0.24548717536E+03  0.28002757662E+03  0.00000000000E+00 0.  1.
         21    1    1    2  502  501  0.29264209721E+02 -0.10876133146E+01 -0.38662527437E+01  0.29538530492E+02  0.00000000000E+00 0.  1.
<mgrwt>
<rscale>  1 0.30000000E+03</rscale>
<asrwt>0</asrwt>
<pdfrwt beam="1">  1        1 0.12912549E+00 0.30000000E+03</pdfrwt>
<pdfrwt beam="2">0</pdfrwt>
<totfact> 0.23132427E+01</totfact>
</mgrwt>
</event>
<event>
 6    1  0.1904828E-004  0.3000000E+03  0.7818608E-02  0.1093470E+00
          1   -1    0    0  502    0  0.00000000000E+00  0.00000000000E+00  0.27640003137E+02  0.27640003137E+02  0.00000000000E+00 0.  1.
         13   -1    0    0    0    0 -0.00000000000E+00 -0.00000000000E+00 -0.10000000000E+04  0.10000000000E+04  0.00000000000E+00 0.  1.
    9000005    2    1    2  501    0 -0.11230631396E+01  0.13832816513E+02 -0.91738303193E+03  0.97093837391E+03  0.31770598134E+03 0.  0.
         13    1    3    3    0    0 -0.85083081781E+02  0.92886563042E+02 -0.78639701866E+03  0.79642156887E+03  0.00000000000E+00 0.  1.
          3    1    3    3  501    0  0.83960018641E+02 -0.79053746529E+02 -0.13098601327E+03  0.17451680504E+03  0.00000000000E+00 0.  1.
         21    1    1    2  502  501  0.11230631396E+01 -0.13832816513E+02 -0.54976964934E+02  0.56701629226E+02  0.00000000000E+00 0. -1.
<mgrwt>
<rscale>  1 0.30000000E+03</rscale>
<asrwt>0</asrwt>
<pdfrwt beam="1">  1        1 0.10050931E+00 0.30000000E+03</pdfrwt>
<pdfrwt beam="2">0</pdfrwt>
<totfact> 0.33973460E+01</totfact>
</mgrwt>
</event>
<event>
 6    1  0.1904828E-004  0.3000000E+03  0.7818608E-02  0.1093470E+00
          1   -1    0    0  502    0  0.00000000000E+00  0.00000000000E+00  0.54374903395E+02  0.54374903395E+02  0.00000000000E+00 0.  1.
         13   -1    0    0    0    0 -0.00000000000E+00 -0.00000000000E+00 -0.10000000000E+04  0.10000000000E+04  0.00000000000E+00 0.  1.
    9000005    2    1    2  501    0 -0.46630334930E+02 -0.60973624311E+02 -0.91713730933E+03  0.97249862465E+03  0.31419828100E+03 0.  0.
         13    1    3    3    0    0  0.78675444925E+02  0.27134883508E+02 -0.71006848320E+03  0.71492893240E+03  0.00000000000E+00 0.  1.
          1    1    3    3  501    0 -0.12530577985E+03 -0.88108507819E+02 -0.20706882612E+03  0.25756969225E+03  0.00000000000E+00 0.  1.
         21    1    1    2  502  501  0.46630334930E+02  0.60973624311E+02 -0.28487787277E+02  0.81876278745E+02  0.00000000000E+00 0.  1.
<mgrwt>
<rscale>  1 0.30000000E+03</rscale>
<asrwt>0</asrwt>
<pdfrwt beam="1">  1        1 0.19772734E+00 0.30000000E+03</pdfrwt>
<pdfrwt beam="2">0</pdfrwt>
<totfact> 0.10501592E+01</totfact>
</mgrwt>
</event>
<event>
 6    1  0.1904828E-004  0.3000000E+03  0.7818608E-02  0.1093470E+00
          1   -1    0    0  502    0  0.00000000000E+00  0.00000000000E+00  0.33923955793E+02  0.33923955793E+02  0.00000000000E+00 0.  1.
         13   -1    0    0    0    0 -0.00000000000E+00 -0.00000000000E+00 -0.10000000000E+04  0.10000000000E+04  0.00000000000E+00 0.  1.
    9000005    2    1    2  501    0 -0.13043080480E+02  0.34648542532E+01 -0.96153011653E+03  0.10196834284E+04  0.33916368009E+03 0.  0.
         13    1    3    3    0    0 -0.16878370121E+03  0.51071908625E+02 -0.51885817943E+03  0.54800555472E+03  0.00000000000E+00 0.  1.
          1    1    3    3  501    0  0.15574062073E+03 -0.47607054372E+02 -0.44267193711E+03  0.47167787363E+03  0.00000000000E+00 0.  1.
         21    1    1    2  502  501  0.13043080480E+02 -0.34648542532E+01 -0.45459276728E+01  0.14240527442E+02  0.00000000000E+00 0.  1.
<mgrwt>
<rscale>  1 0.30000000E+03</rscale>
<asrwt>0</asrwt>
<pdfrwt beam="1">  1        1 0.12336010E+00 0.30000000E+03</pdfrwt>
<pdfrwt beam="2">0</pdfrwt>
<totfact> 0.24891016E+01</totfact>
</mgrwt>
</event>
<event>
 6    1  0.1904828E-004  0.3000000E+03  0.7818608E-02  0.1093470E+00
          3   -1    0    0  502    0  0.00000000000E+00  0.00000000000E+00  0.28615996522E+02  0.28615996522E+02  0.00000000000E+00 0.  1.
         13   -1    0    0    0    0 -0.00000000000E+00 -0.00000000000E+00 -0.10000000000E+04  0.10000000000E+04  0.00000000000E+00 0.  1.
    9000005    2    1    2  501    0 -0.10225817062E+02 -0.95000040054E+00 -0.96501988516E+03  0.10165341160E+04  0.31933174031E+03 0.  0.
         13    1    3    3    0    0  0.69347850969E+02 -0.27013422644E+02 -0.91698685848E+03  0.92000203699E+03  0.00000000000E+00 0.  1.
          1    1    3    3  501    0 -0.79573668032E+02  0.26063422243E+02 -0.48033026676E+02  0.96532078993E+02  0.00000000000E+00 0.  1.
         21    1    1    2  502  501  0.10225817062E+02  0.95000040054E+00 -0.63641183205E+01  0.12081880539E+02  0.00000000000E+00 0. -1.
<mgrwt>
<rscale>  1 0.30000000E+03</rscale>
<asrwt>0</asrwt>
<pdfrwt beam="1">  1        3 0.10405839E+00 0.30000000E+03</pdfrwt>
<pdfrwt beam="2">0</pdfrwt>
<totfact> 0.35216395E+00</totfact>
</mgrwt>
</event>
<event>
 6    1  0.1904828E-004  0.3000000E+03  0.7818608E-02  0.1093470E+00
          1   -1    0    0  502    0  0.00000000000E+00  0.00000000000E+00  0.56392176249E+02  0.56392176249E+02  0.00000000000E+00 0.  1.
         13   -1    0    0    0    0 -0.00000000000E+00 -0.00000000000E+00 -0.10000000000E+04  0.10000000000E+04  0.00000000000E+00 0.  1.
    9000005    2    1    2  501    0  0.74617494492E+02  0.67495044351E+02 -0.86757184169E+03  0.93027785484E+03  0.32033207024E+03 0.  0.
         13    1    3    3    0    0 -0.16426007594E+02  0.18418213204E+03 -0.54113482935E+03  0.57185642868E+03  0.00000000000E+00 0.  1.
          1    1    3    3  501    0  0.91043502085E+02 -0.11668708769E+03 -0.32643701234E+03  0.35842142616E+03  0.00000000000E+00 0.  1.
         21    1    1    2  502  501 -0.74617494492E+02 -0.67495044351E+02 -0.76035982065E+02  0.12611432141E+03  0.00000000000E+00 0.  1.
<mgrwt>
<rscale>  1 0.30000000E+03</rscale>
<asrwt>0</asrwt>
<pdfrwt beam="1">  1        1 0.20506289E+00 0.30000000E+03</pdfrwt>
<pdfrwt beam="2">0</pdfrwt>
<totfact> 0.96921173E+00</totfact>
</mgrwt>
</event>
<event>
 6    1  0.1904828E-004  0.3000000E+03  0.7818608E-02  0.1093470E+00
          1   -1    0    0  502    0  0.00000000000E+00  0.00000000000E+00  0.29834502596E+02  0.29834502596E+02  0.00000000000E+00 0.  1.
         13   -1    0    0    0    0 -0.00000000000E+00 -0.00000000000E+00 -0.10000000000E+04  0.10000000000E+04  0.00000000000E+00 0.  1.
    9000005    2    1    2  501    0 -0.10244280536E+02 -0.70178513142E+01 -0.95064321214E+03  0.10066976242E+04  0.33100361664E+03 0.  0.
         13    1    3    3    0    0  0.22873100322E+02 -0.16334430372E+03 -0.58179045188E+03  0.60471867027E+03  0.00000000000E+00 0.  1.
          1    1    3    3  501    0 -0.33117380858E+02  0.15632645240E+03 -0.36885276026E+03  0.40197895391E+03  0.00000000000E+00 0.  1.
         21    1    1    2  502  501  0.10244280536E+02  0.70178513142E+01 -0.19522285264E+02  0.23136878413E+02  0.00000000000E+00 0. -1.
<mgrwt>
<rscale>  1 0.30000000E+03</rscale>
<asrwt>0</asrwt>
<pdfrwt beam="1">  1        1 0.10848933E+00 0.30000000E+03</pdfrwt>
<pdfrwt beam="2">0</pdfrwt>
<totfact> 0.30334808E+01</totfact>
</mgrwt>
</event>
<event>
 6    1  0.1904828E-004  0.3000000E+03  0.7818608E-02  0.1093470E+00
          1   -1    0    0  502    0  0.00000000000E+00  0.00000000000E+00  0.25040558580E+02  0.25040558580E+02  0.00000000000E+00 0.  1.
         13   -1    0    0    0    0 -0.00000000000E+00 -0.00000000000E+00 -0.10000000000E+04  0.10000000000E+04  0.00000000000E+00 0.  1.
    9000005    2    1    2  501    0 -0.25846302621E+02  0.25053263271E+02 -0.91357543282E+03  0.95388092205E+03  0.27197986072E+03 0.  0.
         13    1    3    3    0    0  0.23191198601E+02  0.62467437878E+01  0.11977780323E+02  0.26838791366E+02  0.00000000000E+00 0.  1.
          1    1    3    3  501    0 -0.49037501222E+02  0.18806519483E+02 -0.92555321314E+03  0.92704213068E+03  0.00000000000E+00 0.  1.
         21    1    1    2  502  501  0.25846302621E+02 -0.25053263271E+02 -0.61384008602E+02  0.71159636535E+02  0.00000000000E+00 0. -1.
<mgrwt>
<rscale>  1 0.30000000E+03</rscale>
<asrwt>0</asrwt>
<pdfrwt beam="1">  1        1 0.91056769E-01 0.30000000E+03</pdfrwt>
<pdfrwt beam="2">0</pdfrwt>
<totfact> 0.39177020E+01</totfact>
</mgrwt>
</event>
<event>
 6    1  0.1904828E-004  0.3000000E+03  0.7818608E-02  0.1093470E+00
          1   -1    0    0  502    0  0.00000000000E+00  0.00000000000E+00  0.55009470670E+02  0.55009470670E+02  0.00000000000E+00 0.  1.
         13   -1    0    0    0    0 -0.00000000000E+00 -0.00000000000E+00 -0.10000000000E+04  0.10000000000E+04  0.00000000000E+00 0.  1.
    9000005    2    1    2  501    0 -0.52741882704E+02 -0.37808956756E+02 -0.92047736564E+03  0.98564003506E+03  0.34640507310E+03 0.  0.
         13    1    3    3    0    0 -0.72467140848E+02 -0.52494181495E+02 -0.94598554796E+03  0.95020828377E+03  0.00000000000E+00 0.  1.
          3    1    3    3  501    0  0.19725258145E+02  0.14685224739E+02  0.25508182323E+02  0.35431751297E+02  0.00000000000E+00 0.  1.
         21    1    1    2  502  501  0.52741882704E+02  0.37808956756E+02 -0.24513163695E+02  0.69369435607E+02  0.00000000000E+00 0.  1.
<mgrwt>
<rscale>  1 0.30000000E+03</rscale>
<asrwt>0</asrwt>
<pdfrwt beam="1">  1        1 0.20003486E+00 0.30000000E+03</pdfrwt>
<pdfrwt beam="2">0</pdfrwt>
<totfact> 0.10239509E+01</totfact>
</mgrwt>
</event>
<event>
 6    1  0.1904828E-004  0.3000000E+03  0.7818608E-02  0.1093470E+00
          1   -1    0    0  502    0  0.00000000000E+00  0.00000000000E+00  0.45239438118E+02  0.45239438118E+02  0.00000000000E+00 0.  1.
         13   -1    0    0    0    0 -0.00000000000E+00 -0.00000000000E+00 -0.10000000000E+04  0.10000000000E+04  0.00000000000E+00 0.  1.
    9000005    2    1    2  501    0  0.13873517687E+02  0.59063411178E+01 -0.96257123780E+03  0.10282580949E+04  0.36130868047E+03 0.  0.
         13    1    3    3    0    0  0.56557124278E+02  0.59615308606E+02 -0.21838486103E+02  0.85027129800E+02  0.00000000000E+00 0.  1.
          3    1    3    3  501    0 -0.42683606591E+02 -0.53708967488E+02 -0.94073275169E+03  0.94323096512E+03  0.00000000000E+00 0.  1.
         21    1    1    2  502  501 -0.13873517687E+02 -0.59063411178E+01  0.78106759151E+01  0.16981343193E+02  0.00000000000E+00 0. -1.
<mgrwt>
<rscale>  1 0.30000000E+03</rscale>
<asrwt>0</asrwt>
<pdfrwt beam="1">  1        1 0.16450739E+00 0.30000000E+03</pdfrwt>
<pdfrwt beam="2">0</pdfrwt>
<totfact> 0.15202021E+01</totfact>
</mgrwt>
</event>
<event>
 6    1  0.1904828E-004  0.3000000E+03  0.7818608E-02  0.1093470E+00
          3   -1    0    0  502    0  0.00000000000E+00  0.00000000000E+00  0.30749692297E+02  0.30749692297E+02  0.00000000000E+00 0.  1.
         13   -1    0    0    0    0 -0.00000000000E+00 -0.00000000000E+00 -0.10000000000E+04  0.10000000000E+04  0.00000000000E+00 0.  1.
    9000005    2    1    2  501    0  0.10954243685E+02  0.35767762297E+01 -0.96303726299E+03  0.10176580649E+04  0.32871625818E+03 0.  0.
         13    1    3    3    0    0  0.20153645822E+02 -0.13610490994E+03 -0.75154114222E+03  0.76403193938E+03  0.00000000000E+00 0.  1.
          1    1    3    3  501    0 -0.91994021362E+01  0.13968168617E+03 -0.21149612077E+03  0.25362612553E+03  0.00000000000E+00 0.  1.
         21    1    1    2  502  501 -0.10954243685E+02 -0.35767762297E+01 -0.62130447114E+01  0.13091627382E+02  0.00000000000E+00 0.  1.
<mgrwt>
<rscale>  1 0.30000000E+03</rscale>
<asrwt>0</asrwt>
<pdfrwt beam="1">  1        3 0.11181730E+00 0.30000000E+03</pdfrwt>
<pdfrwt beam="2">0</pdfrwt>
<totfact> 0.28731766E+00</totfact>
</mgrwt>
</event>
<event>
 6    1  0.1904828E-004  0.3000000E+03  0.7818608E-02  0.1093470E+00
          1   -1    0    0  502    0  0.00000000000E+00  0.00000000000E+00  0.30307218024E+02  0.30307218024E+02  0.00000000000E+00 0.  1.
         13   -1    0    0    0    0 -0.00000000000E+00 -0.00000000000E+00 -0.10000000000E+04  0.10000000000E+04  0.00000000000E+00 0.  1.
    9000005    2    1    2  501    0 -0.38181644183E+01  0.13761955044E+02 -0.95997785956E+03  0.10130344214E+04  0.32322945144E+03 0.  0.
         13    1    3    3    0    0  0.90845788865E+02 -0.99955162409E+02 -0.21804100090E+03  0.25648756290E+03  0.00000000000E+00 0.  1.
          3    1    3    3  501    0 -0.94663953284E+02  0.11371711745E+03 -0.74193685866E+03  0.75654685849E+03  0.00000000000E+00 0.  1.
         21    1    1    2  502  501  0.38181644183E+01 -0.13761955044E+02 -0.97149224166E+01  0.17272796639E+02  0.00000000000E+00 0.  1.
<mgrwt>
<rscale>  1 0.30000000E+03</rscale>
<asrwt>0</asrwt>
<pdfrwt beam="1">  1        1 0.11020830E+00 0.30000000E+03</pdfrwt>
<pdfrwt beam="2">0</pdfrwt>
<totfact> 0.29624882E+01</totfact>
</mgrwt>
</event>
<event>
 6    1  0.1904828E-004  0.3000000E+03  0.7818608E-02  0.1093470E+00
          1   -1    0    0  502    0  0.00000000000E+00  0.00000000000E+00  0.29853882160E+02  0.29853882160E+02  0.00000000000E+00 0.  1.
         13   -1    0    0    0    0 -0.00000000000E+00 -0.00000000000E+00 -0.10000000000E+04  0.10000000000E+04  0.00000000000E+00 0.  1.
    9000005    2    1    2  501    0  0.12402490703E+02  0.10184861970E+02 -0.95477598919E+03  0.10076324051E+04  0.32166492044E+03 0.  0.
         13    1    3    3    0    0 -0.12352267781E+03 -0.52678777339E+02 -0.21996487733E+03  0.25771583725E+03  0.00000000000E+00 0.  1.
          3    1    3    3  501    0  0.13592516851E+03  0.62863639309E+02 -0.73481111186E+03  0.74991656782E+03  0.00000000000E+00 0.  1.
         21    1    1    2  502  501 -0.12402490703E+02 -0.10184861970E+02 -0.15370128652E+02  0.22221477083E+02  0.00000000000E+00 0.  1.
<mgrwt>
<rscale>  1 0.30000000E+03</rscale>
<asrwt>0</asrwt>
<pdfrwt beam="1">  1        1 0.10855980E+00 0.30000000E+03</pdfrwt>
<pdfrwt beam="2">0</pdfrwt>
<totfact> 0.30305229E+01</totfact>
</mgrwt>
</event>
<event>
 6    1  0.1904828E-004  0.3000000E+03  0.7818608E-02  0.1093470E+00
          1   -1    0    0  502    0  0.00000000000E+00  0.00000000000E+00  0.28817310237E+02  0.28817310237E+02  0.00000000000E+00 0.  1.
         13   -1    0    0    0    0 -0.00000000000E+00 -0.00000000000E+00 -0.10000000000E+04  0.10000000000E+04  0.00000000000E+00 0.  1.
    9000005    2    1    2  501    0  0.95436339301E+01 -0.65063462059E+01 -0.95600265521E+03  0.10097425379E+04  0.32481610589E+03 0.  0.
         13    1    3    3    0    0  0.10602742345E+03 -0.13034923533E+03 -0.49161107466E+03  0.51953266154E+03  0.00000000000E+00 0.  1.
          3    1    3    3  501    0 -0.96483789522E+02  0.12384288913E+03 -0.46439158055E+03  0.49020987639E+03  0.00000000000E+00 0.  1.
         21    1    1    2  502  501 -0.95436339301E+01  0.65063462059E+01 -0.15180034557E+02  0.19074772310E+02  0.00000000000E+00 0. -1.
<mgrwt>
<rscale>  1 0.30000000E+03</rscale>
<asrwt>0</asrwt>
<pdfrwt beam="1">  1        1 0.10479044E+00 0.30000000E+03</pdfrwt>
<pdfrwt beam="2">0</pdfrwt>
<totfact> 0.31947348E+01</totfact>
</mgrwt>
</event>
<event>
 6    1  0.1904828E-004  0.3000000E+03  0.7818608E-02  0.1093470E+00
          1   -1    0    0  502    0  0.00000000000E+00  0.00000000000E+00  0.41131417503E+02  0.41131417503E+02  0.00000000000E+00 0.  1.
         13   -1    0    0    0    0 -0.00000000000E+00 -0.00000000000E+00 -0.10000000000E+04  0.10000000000E+04  0.00000000000E+00 0.  1.
    9000005    2    1    2  501    0 -0.73730505457E+02  0.13757754831E+02 -0.79131647840E+03  0.85755807837E+03  0.32186740366E+03 0.  0.
         13    1    3    3    0    0 -0.19802425387E+03  0.23159723045E+02 -0.40113926186E+03  0.44795388747E+03  0.00000000000E+00 0.  1.
          3    1    3    3  501    0  0.12429374841E+03 -0.94019682135E+01 -0.39017721654E+03  0.40960419090E+03  0.00000000000E+00 0.  1.
         21    1    1    2  502  501  0.73730505457E+02 -0.13757754831E+02 -0.16755210409E+03  0.18357333913E+03  0.00000000000E+00 0. -1.
<mgrwt>
<rscale>  1 0.30000000E+03</rscale>
<asrwt>0</asrwt>
<pdfrwt beam="1">  1        1 0.14956911E+00 0.30000000E+03</pdfrwt>
<pdfrwt beam="2">0</pdfrwt>
<totfact> 0.18055872E+01</totfact>
</mgrwt>
</event>
<event>
 6    1  0.1904828E-004  0.3000000E+03  0.7818608E-02  0.1093470E+00
          1   -1    0    0  502    0  0.00000000000E+00  0.00000000000E+00  0.35203256771E+02  0.35203256771E+02  0.00000000000E+00 0.  1.
         13   -1    0    0    0    0 -0.00000000000E+00 -0.00000000000E+00 -0.10000000000E+04  0.10000000000E+04  0.00000000000E+00 0.  1.
    9000005    2    1    2  501    0  0.24768104799E+02  0.17593139144E+02 -0.94111892156E+03  0.99668551022E+03  0.32673261883E+03 0.  0.
         13    1    3    3    0    0 -0.35328221941E+02 -0.36289932090E+01  0.14922661752E+02  0.38521924809E+02  0.00000000000E+00 0.  1.
          3    1    3    3  501    0  0.60096326741E+02  0.21222132353E+02 -0.95604158331E+03  0.95816358541E+03  0.00000000000E+00 0.  1.
         21    1    1    2  502  501 -0.24768104799E+02 -0.17593139144E+02 -0.23677821671E+02  0.38517746551E+02  0.00000000000E+00 0.  1.
<mgrwt>
<rscale>  1 0.30000000E+03</rscale>
<asrwt>0</asrwt>
<pdfrwt beam="1">  1        1 0.12801211E+00 0.30000000E+03</pdfrwt>
<pdfrwt beam="2">0</pdfrwt>
<totfact> 0.23459333E+01</totfact>
</mgrwt>
</event>
<event>
 6    1  0.1904828E-004  0.3000000E+03  0.7818608E-02  0.1093470E+00
          1   -1    0    0  502    0  0.00000000000E+00  0.00000000000E+00  0.32673546691E+02  0.32673546691E+02  0.00000000000E+00 0.  1.
         13   -1    0    0    0    0 -0.00000000000E+00 -0.00000000000E+00 -0.10000000000E+04  0.10000000000E+04  0.00000000000E+00 0.  1.
    9000005    2    1    2  501    0  0.11818874257E+02  0.13668723660E+01 -0.96395051356E+03  0.10203062067E+04  0.33418948032E+03 0.  0.
         13    1    3    3    0    0 -0.78045706161E+02  0.14312157456E+03 -0.54916508664E+03  0.57285007615E+03  0.00000000000E+00 0.  1.
          3    1    3    3  501    0  0.89864580418E+02 -0.14175470219E+03 -0.41478542691E+03  0.44745613057E+03  0.00000000000E+00 0.  1.
         21    1    1    2  502  501 -0.11818874257E+02 -0.13668723660E+01 -0.33759397530E+01  0.12367339972E+02  0.00000000000E+00 0.  1.
<mgrwt>
<rscale>  1 0.30000000E+03</rscale>
<asrwt>0</asrwt>
<pdfrwt beam="1">  1        1 0.11881315E+00 0.30000000E+03</pdfrwt>
<pdfrwt beam="2">0</pdfrwt>
<totfact> 0.26401920E+01</totfact>
</mgrwt>
</event>
<event>
 6    1  0.1904828E-004  0.3000000E+03  0.7818608E-02  0.1093470E+00
          3   -1    0    0  502    0  0.00000000000E+00  0.00000000000E+00  0.28560343103E+02  0.28560343103E+02  0.00000000000E+00 0.  1.
         13   -1    0    0    0    0 -0.00000000000E+00 -0.00000000000E+00 -0.10000000000E+04  0.10000000000E+04  0.00000000000E+00 0.  1.
    9000005    2    1    2  501    0 -0.11499003645E+01  0.10532865636E+02 -0.95326733902E+03  0.10075247384E+04  0.32599879641E+03 0.  0.
         13    1    3    3    0    0  0.40257760786E+02  0.10195702392E+03 -0.10000797631E+03  0.14838300899E+03  0.00000000000E+00 0.  1.
          3    1    3    3  501    0 -0.41407661150E+02 -0.91424158286E+02 -0.85325936270E+03  0.85914172938E+03  0.00000000000E+00 0.  1.
         21    1    1    2  502  501  0.11499003645E+01 -0.10532865636E+02 -0.18172317878E+02  0.21035604732E+02  0.00000000000E+00 0.  1.
<mgrwt>
<rscale>  1 0.30000000E+03</rscale>
<asrwt>0</asrwt>
<pdfrwt beam="1">  1        3 0.10385601E+00 0.30000000E+03</pdfrwt>
<pdfrwt beam="2">0</pdfrwt>
<totfact> 0.35403684E+00</totfact>
</mgrwt>
</event>
<event>
 6    1  0.1904828E-004  0.3000000E+03  0.7818608E-02  0.1093470E+00
          1   -1    0    0  502    0  0.00000000000E+00  0.00000000000E+00  0.32484413279E+02  0.32484413279E+02  0.00000000000E+00 0.  1.
         13   -1    0    0    0    0 -0.00000000000E+00 -0.00000000000E+00 -0.10000000000E+04  0.10000000000E+04  0.00000000000E+00 0.  1.
    9000005    2    1    2  501    0  0.40369683960E+01 -0.16142628381E+02 -0.95107374106E+03  0.10090917680E+04  0.33682050669E+03 0.  0.
         13    1    3    3    0    0  0.67223948387E+02 -0.10849822401E+03 -0.13653765313E+03  0.18690493458E+03  0.00000000000E+00 0.  1.
          1    1    3    3  501    0 -0.63186979991E+02  0.92355595628E+02 -0.81453608793E+03  0.82218683341E+03  0.00000000000E+00 0.  1.
         21    1    1    2  502  501 -0.40369683960E+01  0.16142628381E+02 -0.16441845664E+02  0.23392645291E+02  0.00000000000E+00 0.  1.
<mgrwt>
<rscale>  1 0.30000000E+03</rscale>
<asrwt>0</asrwt>
<pdfrwt beam="1">  1        1 0.11812539E+00 0.30000000E+03</pdfrwt>
<pdfrwt beam="2">0</pdfrwt>
<totfact> 0.26641062E+01</totfact>
</mgrwt>
</event>
<event>
 6    1  0.1904828E-004  0.3000000E+03  0.7818608E-02  0.1093470E+00
          1   -1    0    0  502    0  0.00000000000E+00  0.00000000000E+00  0.36748286027E+02  0.36748286027E+02  0.00000000000E+00 0.  1.
         13   -1    0    0    0    0 -0.00000000000E+00 -0.00000000000E+00 -0.10000000000E+04  0.10000000000E+04  0.00000000000E+00 0.  1.
    9000005    2    1    2  501    0 -0.12337958395E+02  0.40048813215E+02 -0.92077498728E+03  0.97707915692E+03  0.32419279609E+03 0.  0.
         13    1    3    3    0    0  0.27558801684E+02 -0.86862790406E+02 -0.77255900870E+03  0.77791519707E+03  0.00000000000E+00 0.  1.
          1    1    3    3  501    0 -0.39896760080E+02  0.12691160362E+03 -0.14821597858E+03  0.19916395985E+03  0.00000000000E+00 0.  1.
         21    1    1    2  502  501  0.12337958395E+02 -0.40048813215E+02 -0.42476726697E+02  0.59669129105E+02  0.00000000000E+00 0. -1.
<mgrwt>
<rscale>  1 0.30000000E+03</rscale>
<asrwt>0</asrwt>
<pdfrwt beam="1">  1        1 0.13363041E+00 0.30000000E+03</pdfrwt>
<pdfrwt beam="2">0</pdfrwt>
<totfact> 0.21868645E+01</totfact>
</mgrwt>
</event>
<event>
 6    1  0.1904828E-004  0.3000000E+03  0.7818608E-02  0.1093470E+00
          1   -1    0    0  502    0  0.00000000000E+00  0.00000000000E+00  0.26025067356E+02  0.26025067356E+02  0.00000000000E+00 0.  1.
         13   -1    0    0    0    0 -0.00000000000E+00 -0.00000000000E+00 -0.10000000000E+04  0.10000000000E+04  0.00000000000E+00 0.  1.
    9000005    2    1    2  501    0  0.19075856133E+02 -0.23212780950E+02 -0.89379331863E+03  0.94039906247E+03  0.29082843530E+03 0.  0.
         13    1    3    3    0    0 -0.80369119197E+02  0.79570501280E+02 -0.18121635304E+03  0.21361185970E+03  0.00000000000E+00 0.  1.
          1    1    3    3  501    0  0.99444975331E+02 -0.10278328223E+03 -0.71257696559E+03  0.72678720277E+03  0.00000000000E+00 0.  1.
         21    1    1    2  502  501 -0.19075856133E+02  0.23212780950E+02 -0.80181614011E+02  0.85626004882E+02  0.00000000000E+00 0.  1.
<mgrwt>
<rscale>  1 0.30000000E+03</rscale>
<asrwt>0</asrwt>
<pdfrwt beam="1">  1        1 0.94636808E-01 0.30000000E+03</pdfrwt>
<pdfrwt beam="2">0</pdfrwt>
<totfact> 0.37074868E+01</totfact>
</mgrwt>
</event>
<event>
 6    1  0.1904828E-004  0.3000000E+03  0.7818608E-02  0.1093470E+00
          1   -1    0    0  502    0  0.00000000000E+00  0.00000000000E+00  0.28309072095E+02  0.28309072095E+02  0.00000000000E+00 0.  1.
         13   -1    0    0    0    0 -0.00000000000E+00 -0.00000000000E+00 -0.10000000000E+04  0.10000000000E+04  0.00000000000E+00 0.  1.
    9000005    2    1    2  501    0  0.81166506293E+01  0.59662826749E+01 -0.95720372517E+03  0.10106638011E+04  0.32419264454E+03 0.  0.
         13    1    3    3    0    0  0.14060655517E+03 -0.56885777721E+01 -0.21719333503E+03  0.25879626747E+03  0.00000000000E+00 0.  1.
          3    1    3    3  501    0 -0.13248990454E+03  0.11654860447E+02 -0.74001039014E+03  0.75186753361E+03  0.00000000000E+00 0.  1.
         21    1    1    2  502  501 -0.81166506293E+01 -0.59662826749E+01 -0.14487202733E+02  0.17645271021E+02  0.00000000000E+00 0. -1.
<mgrwt>
<rscale>  1 0.30000000E+03</rscale>
<asrwt>0</asrwt>
<pdfrwt beam="1">  1        1 0.10294230E+00 0.30000000E+03</pdfrwt>
<pdfrwt beam="2">0</pdfrwt>
<totfact> 0.32799773E+01</totfact>
</mgrwt>
</event>
<event>
 6    1  0.1904828E-004  0.3000000E+03  0.7818608E-02  0.1093470E+00
          1   -1    0    0  502    0  0.00000000000E+00  0.00000000000E+00  0.43631046876E+02  0.43631046876E+02  0.00000000000E+00 0.  1.
         13   -1    0    0    0    0 -0.00000000000E+00 -0.00000000000E+00 -0.10000000000E+04  0.10000000000E+04  0.00000000000E+00 0.  1.
    9000005    2    1    2  501    0  0.21348184072E+02 -0.15423900249E+02 -0.96313285902E+03  0.10164392819E+04  0.32377502669E+03 0.  0.
         13    1    3    3    0    0 -0.47228028658E+02 -0.15353419400E+03 -0.36563255444E+03  0.39936249233E+03  0.00000000000E+00 0.  1.
          1    1    3    3  501    0  0.68576212730E+02  0.13811029375E+03 -0.59750030458E+03  0.61707678952E+03  0.00000000000E+00 0.  1.
         21    1    1    2  502  501 -0.21348184072E+02  0.15423900249E+02  0.67639058960E+01  0.27191765022E+02  0.00000000000E+00 0.  1.
<mgrwt>
<rscale>  1 0.30000000E+03</rscale>
<asrwt>0</asrwt>
<pdfrwt beam="1">  1        1 0.15865869E+00 0.30000000E+03</pdfrwt>
<pdfrwt beam="2">0</pdfrwt>
<totfact> 0.16250795E+01</totfact>
</mgrwt>
</event>
<event>
 6    1  0.1904828E-004  0.3000000E+03  0.7818608E-02  0.1093470E+00
          1   -1    0    0  502    0  0.00000000000E+00  0.00000000000E+00  0.28525161995E+02  0.28525161995E+02  0.00000000000E+00 0.  1.
         13   -1    0    0    0    0 -0.00000000000E+00 -0.00000000000E+00 -0.10000000000E+04  0.10000000000E+04  0.00000000000E+00 0.  1.
    9000005    2    1    2  501    0  0.14774689052E+02  0.28820815275E+01 -0.95683453529E+03  0.10075266789E+04  0.31520006798E+03 0.  0.
         13    1    3    3    0    0 -0.14454849166E+03 -0.40938056273E+02 -0.44392212461E+03  0.46865450346E+03  0.00000000000E+00 0.  1.
          3    1    3    3  501    0  0.15932318071E+03  0.43820137800E+02 -0.51291241068E+03  0.53887217540E+03  0.00000000000E+00 0.  1.
         21    1    1    2  502  501 -0.14774689052E+02 -0.28820815275E+01 -0.14640302718E+02  0.20998483140E+02  0.00000000000E+00 0. -1.
<mgrwt>
<rscale>  1 0.30000000E+03</rscale>
<asrwt>0</asrwt>
<pdfrwt beam="1">  1        1 0.10372808E+00 0.30000000E+03</pdfrwt>
<pdfrwt beam="2">0</pdfrwt>
<totfact> 0.32433352E+01</totfact>
</mgrwt>
</event>
<event>
 6    1  0.1904828E-004  0.3000000E+03  0.7818608E-02  0.1093470E+00
          1   -1    0    0  502    0  0.00000000000E+00  0.00000000000E+00  0.29448405463E+02  0.29448405463E+02  0.00000000000E+00 0.  1.
         13   -1    0    0    0    0 -0.00000000000E+00 -0.00000000000E+00 -0.10000000000E+04  0.10000000000E+04  0.00000000000E+00 0.  1.
    9000005    2    1    2  501    0 -0.79123754845E+00  0.92705460992E+01 -0.96165477314E+03  0.10165750798E+04  0.32948204981E+03 0.  0.
         13    1    3    3    0    0  0.13402468295E+03 -0.34800099633E+02 -0.20924055396E+03  0.25090889183E+03  0.00000000000E+00 0.  1.
          3    1    3    3  501    0 -0.13481592050E+03  0.44070645732E+02 -0.75241421917E+03  0.76566618800E+03  0.00000000000E+00 0.  1.
         21    1    1    2  502  501  0.79123754845E+00 -0.92705460992E+01 -0.88968213994E+01  0.12873325633E+02  0.00000000000E+00 0. -1.
<mgrwt>
<rscale>  1 0.30000000E+03</rscale>
<asrwt>0</asrwt>
<pdfrwt beam="1">  1        1 0.10708534E+00 0.30000000E+03</pdfrwt>
<pdfrwt beam="2">0</pdfrwt>
<totfact> 0.30932804E+01</totfact>
</mgrwt>
</event>
<event>
 6    1  0.1904828E-004  0.3000000E+03  0.7818608E-02  0.1093470E+00
          1   -1    0    0  502    0  0.00000000000E+00  0.00000000000E+00  0.30357476051E+02  0.30357476051E+02  0.00000000000E+00 0.  1.
         13   -1    0    0    0    0 -0.00000000000E+00 -0.00000000000E+00 -0.10000000000E+04  0.10000000000E+04  0.00000000000E+00 0.  1.
    9000005    2    1    2  501    0  0.13365249235E+02  0.99758138304E+01 -0.92564059737E+03  0.98330095374E+03  0.33134891488E+03 0.  0.
         13    1    3    3    0    0 -0.56067039581E+02  0.99062342991E+02 -0.82252146601E+03  0.83036041739E+03  0.00000000000E+00 0.  1.
          1    1    3    3  501    0  0.69432288815E+02 -0.89086529161E+02 -0.10311913136E+03  0.15294053635E+03  0.00000000000E+00 0.  1.
         21    1    1    2  502  501 -0.13365249235E+02 -0.99758138304E+01 -0.44001926583E+02  0.47056522308E+02  0.00000000000E+00 0.  1.
<mgrwt>
<rscale>  1 0.30000000E+03</rscale>
<asrwt>0</asrwt>
<pdfrwt beam="1">  1        1 0.11039105E+00 0.30000000E+03</pdfrwt>
<pdfrwt beam="2">0</pdfrwt>
<totfact> 0.29550797E+01</totfact>
</mgrwt>
</event>
<event>
 6    1  0.1904828E-004  0.3000000E+03  0.7818608E-02  0.1093470E+00
          1   -1    0    0  502    0  0.00000000000E+00  0.00000000000E+00  0.32856525522E+02  0.32856525522E+02  0.00000000000E+00 0.  1.
         13   -1    0    0    0    0 -0.00000000000E+00 -0.00000000000E+00 -0.10000000000E+04  0.10000000000E+04  0.00000000000E+00 0.  1.
    9000005    2    1    2  501    0  0.12777521882E+02 -0.26473446601E+01 -0.97470964714E+03  0.10177727439E+04  0.29262978063E+03 0.  0.
         13    1    3    3    0    0 -0.87628562807E+02  0.76340435910E+02 -0.75279416860E+03  0.76171233905E+03  0.00000000000E+00 0.  1.
          3    1    3    3  501    0  0.10040608469E+03 -0.78987780570E+02 -0.22191547854E+03  0.25606040486E+03  0.00000000000E+00 0.  1.
         21    1    1    2  502  501 -0.12777521882E+02  0.26473446601E+01  0.75661726599E+01  0.15083781618E+02  0.00000000000E+00 0.  1.
<mgrwt>
<rscale>  1 0.30000000E+03</rscale>
<asrwt>0</asrwt>
<pdfrwt beam="1">  1        1 0.11947853E+00 0.30000000E+03</pdfrwt>
<pdfrwt beam="2">0</pdfrwt>
<totfact> 0.26173320E+01</totfact>
</mgrwt>
</event>
<event>
 6    1  0.1904828E-004  0.3000000E+03  0.7818608E-02  0.1093470E+00
          1   -1    0    0  502    0  0.00000000000E+00  0.00000000000E+00  0.46554619425E+02  0.46554619425E+02  0.00000000000E+00 0.  1.
         13   -1    0    0    0    0 -0.00000000000E+00 -0.00000000000E+00 -0.10000000000E+04  0.10000000000E+04  0.00000000000E+00 0.  1.
    9000005    2    1    2  501    0 -0.16763071136E+02 -0.58210983038E+01 -0.96734397148E+03  0.10240145092E+04  0.33546455872E+03 0.  0.
         13    1    3    3    0    0  0.32211707756E+02 -0.47252586011E+02 -0.27117757471E+01  0.57251678831E+02  0.00000000000E+00 0.  1.
          1    1    3    3  501    0 -0.48974778893E+02  0.41431487707E+02 -0.96463219574E+03  0.96676283038E+03  0.00000000000E+00 0.  1.
         21    1    1    2  502  501  0.16763071136E+02  0.58210983038E+01  0.13898590910E+02  0.22540110219E+02  0.00000000000E+00 0. -1.
<mgrwt>
<rscale>  1 0.30000000E+03</rscale>
<asrwt>0</asrwt>
<pdfrwt beam="1">  1        1 0.16928988E+00 0.30000000E+03</pdfrwt>
<pdfrwt beam="2">0</pdfrwt>
<totfact> 0.14401884E+01</totfact>
</mgrwt>
</event>
<event>
 6    1  0.1904828E-004  0.3000000E+03  0.7818608E-02  0.1093470E+00
          1   -1    0    0  502    0  0.00000000000E+00  0.00000000000E+00  0.40386036792E+02  0.40386036792E+02  0.00000000000E+00 0.  1.
         13   -1    0    0    0    0 -0.00000000000E+00 -0.00000000000E+00 -0.10000000000E+04  0.10000000000E+04  0.00000000000E+00 0.  1.
    9000005    2    1    2  501    0 -0.47220106134E+02 -0.71354122733E+01 -0.92080950571E+03  0.97885199374E+03  0.32860375428E+03 0.  0.
         13    1    3    3    0    0  0.33306960404E+02  0.14961237072E+03 -0.36834322347E+03  0.39896108252E+03  0.00000000000E+00 0.  1.
          1    1    3    3  501    0 -0.80527066539E+02 -0.15674778300E+03 -0.55246628223E+03  0.57989091123E+03  0.00000000000E+00 0.  1.
         21    1    1    2  502  501  0.47220106134E+02  0.71354122733E+01 -0.38804457503E+02  0.61534043047E+02  0.00000000000E+00 0.  1.
<mgrwt>
<rscale>  1 0.30000000E+03</rscale>
<asrwt>0</asrwt>
<pdfrwt beam="1">  1        1 0.14685863E+00 0.30000000E+03</pdfrwt>
<pdfrwt beam="2">0</pdfrwt>
<totfact> 0.18641109E+01</totfact>
</mgrwt>
</event>
<event>
 6    1  0.1904828E-004  0.3000000E+03  0.7818608E-02  0.1093470E+00
          1   -1    0    0  502    0  0.00000000000E+00  0.00000000000E+00  0.36823216060E+02  0.36823216060E+02  0.00000000000E+00 0.  1.
         13   -1    0    0    0    0 -0.00000000000E+00 -0.00000000000E+00 -0.10000000000E+04  0.10000000000E+04  0.00000000000E+00 0.  1.
    9000005    2    1    2  501    0  0.30825366083E+02  0.36683305937E+01 -0.94818245287E+03  0.10023487355E+04  0.32355735789E+03 0.  0.
         13    1    3    3    0    0 -0.13252842518E+03  0.15597065095E+02 -0.63556982903E+03  0.64942748594E+03  0.00000000000E+00 0.  1.
          1    1    3    3  501    0  0.16335379127E+03 -0.11928734501E+02 -0.31261262384E+03  0.35292124959E+03  0.00000000000E+00 0.  1.
         21    1    1    2  502  501 -0.30825366083E+02 -0.36683305937E+01 -0.14994331065E+02  0.34474480526E+02  0.00000000000E+00 0.  1.
<mgrwt>
<rscale>  1 0.30000000E+03</rscale>
<asrwt>0</asrwt>
<pdfrwt beam="1">  1        1 0.13390289E+00 0.30000000E+03</pdfrwt>
<pdfrwt beam="2">0</pdfrwt>
<totfact> 0.21795149E+01</totfact>
</mgrwt>
</event>
<event>
 6    1  0.1904828E-004  0.3000000E+03  0.7818608E-02  0.1093470E+00
          1   -1    0    0  502    0  0.00000000000E+00  0.00000000000E+00  0.43104267916E+02  0.43104267916E+02  0.00000000000E+00 0.  1.
         13   -1    0    0    0    0 -0.00000000000E+00 -0.00000000000E+00 -0.10000000000E+04  0.10000000000E+04  0.00000000000E+00 0.  1.
    9000005    2    1    2  501    0  0.70658743791E+01 -0.31006889119E+02 -0.95740174046E+03  0.10112984540E+04  0.32418376995E+03 0.  0.
         13    1    3    3    0    0 -0.15488475397E+03  0.54415795517E+01 -0.37668044416E+03  0.40731689728E+03  0.00000000000E+00 0.  1.
          3    1    3    3  501    0  0.16195062835E+03 -0.36448468671E+02 -0.58072129630E+03  0.60398155673E+03  0.00000000000E+00 0.  1.
         21    1    1    2  502  501 -0.70658743791E+01  0.31006889119E+02  0.50600837536E+00  0.31805813904E+02  0.00000000000E+00 0. -1.
<mgrwt>
<rscale>  1 0.30000000E+03</rscale>
<asrwt>0</asrwt>
<pdfrwt beam="1">  1        1 0.15674312E+00 0.30000000E+03</pdfrwt>
<pdfrwt beam="2">0</pdfrwt>
<totfact> 0.16612479E+01</totfact>
</mgrwt>
</event>
<event>
 6    1  0.1904828E-004  0.3000000E+03  0.7818608E-02  0.1093470E+00
          1   -1    0    0  502    0  0.00000000000E+00  0.00000000000E+00  0.26804330864E+02  0.26804330864E+02  0.00000000000E+00 0.  1.
         13   -1    0    0    0    0 -0.00000000000E+00 -0.00000000000E+00 -0.10000000000E+04  0.10000000000E+04  0.00000000000E+00 0.  1.
    9000005    2    1    2  501    0 -0.36659038127E+01 -0.10571438985E+02 -0.96310300955E+03  0.10117359550E+04  0.30970476507E+03 0.  0.
         13    1    3    3    0    0 -0.44402048278E+02 -0.13378248403E+03 -0.74277204560E+03  0.75602883982E+03  0.00000000000E+00 0.  1.
          1    1    3    3  501    0  0.40736144465E+02  0.12321104505E+03 -0.22033096395E+03  0.25570711519E+03  0.00000000000E+00 0.  1.
         21    1    1    2  502  501  0.36659038127E+01  0.10571438985E+02 -0.10092659591E+02  0.15068375845E+02  0.00000000000E+00 0.  1.
<mgrwt>
<rscale>  1 0.30000000E+03</rscale>
<asrwt>0</asrwt>
<pdfrwt beam="1">  1        1 0.97470500E-01 0.30000000E+03</pdfrwt>
<pdfrwt beam="2">0</pdfrwt>
<totfact> 0.35528185E+01</totfact>
</mgrwt>
</event>
<event>
 6    1  0.1904828E-004  0.3000000E+03  0.7818608E-02  0.1093470E+00
          1   -1    0    0  502    0  0.00000000000E+00  0.00000000000E+00  0.25514053330E+02  0.25514053330E+02  0.00000000000E+00 0.  1.
         13   -1    0    0    0    0 -0.00000000000E+00 -0.00000000000E+00 -0.10000000000E+04  0.10000000000E+04  0.00000000000E+00 0.  1.
    9000005    2    1    2  501    0  0.62990919274E+01  0.60894612667E+01 -0.95953788870E+03  0.10081876418E+04  0.30927754726E+03 0.  0.
         13    1    3    3    0    0 -0.11796779999E+03  0.94320462273E+02 -0.57614781650E+03  0.59561653594E+03  0.00000000000E+00 0.  1.
          1    1    3    3  501    0  0.12426689192E+03 -0.88231001006E+02 -0.38339007220E+03  0.41257110590E+03  0.00000000000E+00 0.  1.
         21    1    1    2  502  501 -0.62990919274E+01 -0.60894612667E+01 -0.14948057974E+02  0.17326411481E+02  0.00000000000E+00 0. -1.
<mgrwt>
<rscale>  1 0.30000000E+03</rscale>
<asrwt>0</asrwt>
<pdfrwt beam="1">  1        1 0.92778571E-01 0.30000000E+03</pdfrwt>
<pdfrwt beam="2">0</pdfrwt>
<totfact> 0.38144283E+01</totfact>
</mgrwt>
</event>
<event>
 6    1  0.1904828E-004  0.3000000E+03  0.7818608E-02  0.1093470E+00
          1   -1    0    0  502    0  0.00000000000E+00  0.00000000000E+00  0.54207038696E+02  0.54207038696E+02  0.00000000000E+00 0.  1.
         13   -1    0    0    0    0 -0.00000000000E+00 -0.00000000000E+00 -0.10000000000E+04  0.10000000000E+04  0.00000000000E+00 0.  1.
    9000005    2    1    2  501    0  0.10087488245E+03 -0.18573852254E+02 -0.62944500566E+03  0.72164612858E+03  0.33771495355E+03 0.  0.
         13    1    3    3    0    0  0.11564898535E+03 -0.75968104780E+02 -0.62873327230E+02  0.15198320971E+03  0.00000000000E+00 0.  1.
          3    1    3    3  501    0 -0.14774102900E+02  0.57394252525E+02 -0.56657167843E+03  0.56966291887E+03  0.00000000000E+00 0.  1.
         21    1    1    2  502  501 -0.10087488245E+03  0.18573852254E+02 -0.31634795565E+03  0.33256091012E+03  0.00000000000E+00 0.  1.
<mgrwt>
<rscale>  1 0.30000000E+03</rscale>
<asrwt>0</asrwt>
<pdfrwt beam="1">  1        1 0.19711692E+00 0.30000000E+03</pdfrwt>
<pdfrwt beam="2">0</pdfrwt>
<totfact> 0.10572087E+01</totfact>
</mgrwt>
</event>
<event>
 6    1  0.1904828E-004  0.3000000E+03  0.7818608E-02  0.1093470E+00
          1   -1    0    0  502    0  0.00000000000E+00  0.00000000000E+00  0.18144249770E+02  0.18144249770E+02  0.00000000000E+00 0.  1.
         13   -1    0    0    0    0 -0.00000000000E+00 -0.00000000000E+00 -0.10000000000E+04  0.10000000000E+04  0.00000000000E+00 0.  1.
    9000005    2    1    2  501    0  0.23783053073E+02  0.22224840091E+02 -0.86940058029E+03  0.90107272301E+03  0.23455299193E+03 0.  0.
         13    1    3    3    0    0  0.11400181025E+02  0.12870668800E+03 -0.44927498579E+03  0.46748624421E+03  0.00000000000E+00 0.  1.
          1    1    3    3  501    0  0.12382872048E+02 -0.10648184791E+03 -0.42012559449E+03  0.43358647880E+03  0.00000000000E+00 0.  1.
         21    1    1    2  502  501 -0.23783053073E+02 -0.22224840091E+02 -0.11245516994E+03  0.11707152676E+03  0.00000000000E+00 0. -1.
<mgrwt>
<rscale>  1 0.30000000E+03</rscale>
<asrwt>0</asrwt>
<pdfrwt beam="1">  1        1 0.65979229E-01 0.30000000E+03</pdfrwt>
<pdfrwt beam="2">0</pdfrwt>
<totfact> 0.61075904E+01</totfact>
</mgrwt>
</event>
<event>
 6    1  0.1904828E-004  0.3000000E+03  0.7818608E-02  0.1093470E+00
          1   -1    0    0  502    0  0.00000000000E+00  0.00000000000E+00  0.34222010138E+02  0.34222010138E+02  0.00000000000E+00 0.  1.
         13   -1    0    0    0    0 -0.00000000000E+00 -0.00000000000E+00 -0.10000000000E+04  0.10000000000E+04  0.00000000000E+00 0.  1.
    9000005    2    1    2  501    0 -0.80067942014E+01  0.20636340559E+02 -0.95716019232E+03  0.10104684054E+04  0.32311112203E+03 0.  0.
         13    1    3    3    0    0 -0.46747838453E+02  0.12373131739E+03 -0.16878097484E+03  0.21443371183E+03  0.00000000000E+00 0.  1.
          1    1    3    3  501    0  0.38741044252E+02 -0.10309497683E+03 -0.78837921748E+03  0.79603469353E+03  0.00000000000E+00 0.  1.
         21    1    1    2  502  501  0.80067942014E+01 -0.20636340559E+02 -0.86177975411E+01  0.23753604768E+02  0.00000000000E+00 0.  1.
<mgrwt>
<rscale>  1 0.30000000E+03</rscale>
<asrwt>0</asrwt>
<pdfrwt beam="1">  1        1 0.12444394E+00 0.30000000E+03</pdfrwt>
<pdfrwt beam="2">0</pdfrwt>
<totfact> 0.24547723E+01</totfact>
</mgrwt>
</event>
<event>
 6    1  0.1904828E-004  0.3000000E+03  0.7818608E-02  0.1093470E+00
          1   -1    0    0  502    0  0.00000000000E+00  0.00000000000E+00  0.35067200186E+02  0.35067200186E+02  0.00000000000E+00 0.  1.
         13   -1    0    0    0    0 -0.00000000000E+00 -0.00000000000E+00 -0.10000000000E+04  0.10000000000E+04  0.00000000000E+00 0.  1.
    9000005    2    1    2  501    0  0.11136098332E+02 -0.14235191425E+02 -0.98114343750E+03  0.10107888531E+04  0.24233243145E+03 0.  0.
         13    1    3    3    0    0 -0.39474349786E+02  0.74292989763E+02 -0.78709107783E+03  0.79157440423E+03  0.00000000000E+00 0.  1.
          3    1    3    3  501    0  0.50610448118E+02 -0.88528181189E+02 -0.19405235966E+03  0.21921444892E+03  0.00000000000E+00 0.  1.
         21    1    1    2  502  501 -0.11136098332E+02  0.14235191425E+02  0.16210637685E+02  0.24278347043E+02  0.00000000000E+00 0.  1.
<mgrwt>
<rscale>  1 0.30000000E+03</rscale>
<asrwt>0</asrwt>
<pdfrwt beam="1">  1        1 0.12751736E+00 0.30000000E+03</pdfrwt>
<pdfrwt beam="2">0</pdfrwt>
<totfact> 0.23606511E+01</totfact>
</mgrwt>
</event>
<event>
 6    1  0.1904828E-004  0.3000000E+03  0.7818608E-02  0.1093470E+00
          1   -1    0    0  502    0  0.00000000000E+00  0.00000000000E+00  0.45316986715E+02  0.45316986715E+02  0.00000000000E+00 0.  1.
         13   -1    0    0    0    0 -0.00000000000E+00 -0.00000000000E+00 -0.10000000000E+04  0.10000000000E+04  0.00000000000E+00 0.  1.
    9000005    2    1    2  501    0 -0.52339232069E+02  0.14654419920E+02 -0.93122891951E+03  0.98612035039E+03  0.31983104555E+03 0.  0.
         13    1    3    3    0    0 -0.42200652206E+02 -0.87771300961E+02 -0.72923651369E+02  0.12166575216E+03  0.00000000000E+00 0.  1.
          1    1    3    3  501    0 -0.10138579863E+02  0.10242572088E+03 -0.85830526814E+03  0.86445459824E+03  0.00000000000E+00 0.  1.
         21    1    1    2  502  501  0.52339232069E+02 -0.14654419920E+02 -0.23454093777E+02  0.59196636320E+02  0.00000000000E+00 0. -1.
<mgrwt>
<rscale>  1 0.30000000E+03</rscale>
<asrwt>0</asrwt>
<pdfrwt beam="1">  1        1 0.16478939E+00 0.30000000E+03</pdfrwt>
<pdfrwt beam="2">0</pdfrwt>
<totfact> 0.15153461E+01</totfact>
</mgrwt>
</event>
<event>
 6    1  0.1904828E-004  0.3000000E+03  0.7818608E-02  0.1093470E+00
          1   -1    0    0  502    0  0.00000000000E+00  0.00000000000E+00  0.38160125307E+02  0.38160125307E+02  0.00000000000E+00 0.  1.
         13   -1    0    0    0    0 -0.00000000000E+00 -0.00000000000E+00 -0.10000000000E+04  0.10000000000E+04  0.00000000000E+00 0.  1.
    9000005    2    1    2  501    0 -0.37059543876E+02  0.33748638101E+01 -0.93175830887E+03  0.99030931444E+03  0.33339794934E+03 0.  0.
         13    1    3    3    0    0 -0.14358308416E+03  0.22569586238E+02 -0.18265880091E+03  0.23343034471E+03  0.00000000000E+00 0.  1.
          1    1    3    3  501    0  0.10652354029E+03 -0.19194722428E+02 -0.74909950795E+03  0.75687896973E+03  0.00000000000E+00 0.  1.
         21    1    1    2  502  501  0.37059543876E+02 -0.33748638101E+01 -0.30081565827E+02  0.47850810867E+02  0.00000000000E+00 0.  1.
<mgrwt>
<rscale>  1 0.30000000E+03</rscale>
<asrwt>0</asrwt>
<pdfrwt beam="1">  1        1 0.13876438E+00 0.30000000E+03</pdfrwt>
<pdfrwt beam="2">0</pdfrwt>
<totfact> 0.20536967E+01</totfact>
</mgrwt>
</event>
<event>
 6    1  0.1904828E-004  0.3000000E+03  0.7818608E-02  0.1093470E+00
          1   -1    0    0  502    0  0.00000000000E+00  0.00000000000E+00  0.49927714723E+02  0.49927714723E+02  0.00000000000E+00 0.  1.
         13   -1    0    0    0    0 -0.00000000000E+00 -0.00000000000E+00 -0.10000000000E+04  0.10000000000E+04  0.00000000000E+00 0.  1.
    9000005    2    1    2  501    0  0.92145127268E+02  0.66967550047E+02 -0.69781339105E+03  0.77314273147E+03  0.31277911896E+03 0.  0.
         13    1    3    3    0    0  0.17459881441E+03  0.11382931206E+03 -0.30756058421E+03  0.37153111746E+03  0.00000000000E+00 0.  1.
          3    1    3    3  501    0 -0.82453687146E+02 -0.46861762016E+02 -0.39025280684E+03  0.40161161401E+03  0.00000000000E+00 0.  1.
         21    1    1    2  502  501 -0.92145127268E+02 -0.66967550047E+02 -0.25225889422E+03  0.27678498325E+03  0.00000000000E+00 0.  1.
<mgrwt>
<rscale>  1 0.30000000E+03</rscale>
<asrwt>0</asrwt>
<pdfrwt beam="1">  1        1 0.18155571E+00 0.30000000E+03</pdfrwt>
<pdfrwt beam="2">0</pdfrwt>
<totfact> 0.12555200E+01</totfact>
</mgrwt>
</event>
<event>
 6    1  0.1904828E-004  0.3000000E+03  0.7818608E-02  0.1093470E+00
          1   -1    0    0  502    0  0.00000000000E+00  0.00000000000E+00  0.58993233331E+02  0.58993233331E+02  0.00000000000E+00 0.  1.
         13   -1    0    0    0    0 -0.00000000000E+00 -0.00000000000E+00 -0.10000000000E+04  0.10000000000E+04  0.00000000000E+00 0.  1.
    9000005    2    1    2  501    0 -0.37974465463E+02  0.23471701543E+02 -0.95429274747E+03  0.10124153621E+04  0.33513763858E+03 0.  0.
         13    1    3    3    0    0 -0.57463077799E+02 -0.27214889795E+02 -0.74502398763E+01  0.64016885358E+02  0.00000000000E+00 0.  1.
          3    1    3    3  501    0  0.19488612336E+02  0.50686591338E+02 -0.94684250759E+03  0.94839847677E+03  0.00000000000E+00 0.  1.
         21    1    1    2  502  501  0.37974465463E+02 -0.23471701543E+02  0.13285980797E+02  0.46577871208E+02  0.00000000000E+00 0.  1.
<mgrwt>
<rscale>  1 0.30000000E+03</rscale>
<asrwt>0</asrwt>
<pdfrwt beam="1">  1        1 0.21452130E+00 0.30000000E+03</pdfrwt>
<pdfrwt beam="2">0</pdfrwt>
<totfact> 0.87461288E+00</totfact>
</mgrwt>
</event>
<event>
 6    1  0.1904828E-004  0.3000000E+03  0.7818608E-02  0.1093470E+00
          1   -1    0    0  502    0  0.00000000000E+00  0.00000000000E+00  0.28885829669E+02  0.28885829669E+02  0.00000000000E+00 0.  1.
         13   -1    0    0    0    0 -0.00000000000E+00 -0.00000000000E+00 -0.10000000000E+04  0.10000000000E+04  0.00000000000E+00 0.  1.
    9000005    2    1    2  501    0 -0.54712441224E+01 -0.12361468665E+02 -0.95631417942E+03  0.10088413753E+04  0.32100057686E+03 0.  0.
         13    1    3    3    0    0  0.11801591878E+03 -0.45627548594E+02 -0.78459044322E+03  0.79472749661E+03  0.00000000000E+00 0.  1.
          1    1    3    3  501    0 -0.12348716290E+03  0.33266079930E+02 -0.17172373620E+03  0.21411387869E+03  0.00000000000E+00 0.  1.
         21    1    1    2  502  501  0.54712441224E+01  0.12361468665E+02 -0.14799990907E+02  0.20044454362E+02  0.00000000000E+00 0.  1.
<mgrwt>
<rscale>  1 0.30000000E+03</rscale>
<asrwt>0</asrwt>
<pdfrwt beam="1">  1        1 0.10503960E+00 0.30000000E+03</pdfrwt>
<pdfrwt beam="2">0</pdfrwt>
<totfact> 0.31834891E+01</totfact>
</mgrwt>
</event>
<event>
 6    1  0.1904828E-004  0.3000000E+03  0.7818608E-02  0.1093470E+00
          1   -1    0    0  502    0  0.00000000000E+00  0.00000000000E+00  0.34051283732E+02  0.34051283732E+02  0.00000000000E+00 0.  1.
         13   -1    0    0    0    0 -0.00000000000E+00 -0.00000000000E+00 -0.10000000000E+04  0.10000000000E+04  0.00000000000E+00 0.  1.
    9000005    2    1    2  501    0  0.13455093160E+02  0.24476409625E+02 -0.92886638614E+03  0.98762679270E+03  0.33441558605E+03 0.  0.
         13    1    3    3    0    0  0.23107625257E+02 -0.53744608924E+02 -0.31765551554E+01  0.58587847170E+02  0.00000000000E+00 0.  1.
          3    1    3    3  501    0 -0.96525320969E+01  0.78221018549E+02 -0.92568983099E+03  0.92903894553E+03  0.00000000000E+00 0.  1.
         21    1    1    2  502  501 -0.13455093160E+02 -0.24476409625E+02 -0.37082330126E+02  0.46424491032E+02  0.00000000000E+00 0.  1.
<mgrwt>
<rscale>  1 0.30000000E+03</rscale>
<asrwt>0</asrwt>
<pdfrwt beam="1">  1        1 0.12382311E+00 0.30000000E+03</pdfrwt>
<pdfrwt beam="2">0</pdfrwt>
<totfact> 0.24743608E+01</totfact>
</mgrwt>
</event>
<event>
 6    1  0.1904828E-004  0.3000000E+03  0.7818608E-02  0.1093470E+00
          1   -1    0    0  502    0  0.00000000000E+00  0.00000000000E+00  0.37139656285E+02  0.37139656285E+02  0.00000000000E+00 0.  1.
         13   -1    0    0    0    0 -0.00000000000E+00 -0.00000000000E+00 -0.10000000000E+04  0.10000000000E+04  0.00000000000E+00 0.  1.
    9000005    2    1    2  501    0 -0.42982841379E+01  0.95090690755E+01 -0.94096521278E+03  0.10128848753E+04  0.37471501349E+03 0.  0.
         13    1    3    3    0    0  0.15454926692E+03  0.10746189789E+03 -0.47398075164E+03  0.50999145908E+03  0.00000000000E+00 0.  1.
          1    1    3    3  501    0 -0.15884755106E+03 -0.97952828818E+02 -0.46698446114E+03  0.50289341624E+03  0.00000000000E+00 0.  1.
         21    1    1    2  502  501  0.42982841379E+01 -0.95090690755E+01 -0.21895130935E+02  0.24254780969E+02  0.00000000000E+00 0. -1.
<mgrwt>
<rscale>  1 0.30000000E+03</rscale>
<asrwt>0</asrwt>
<pdfrwt beam="1">  1        1 0.13505358E+00 0.30000000E+03</pdfrwt>
<pdfrwt beam="2">0</pdfrwt>
<totfact> 0.21488352E+01</totfact>
</mgrwt>
</event>
<event>
 6    1  0.1904828E-004  0.3000000E+03  0.7818608E-02  0.1093470E+00
          1   -1    0    0  502    0  0.00000000000E+00  0.00000000000E+00  0.33359601327E+02  0.33359601327E+02  0.00000000000E+00 0.  1.
         13   -1    0    0    0    0 -0.00000000000E+00 -0.00000000000E+00 -0.10000000000E+04  0.10000000000E+04  0.00000000000E+00 0.  1.
    9000005    2    1    2  501    0  0.53428287540E+01 -0.11886215585E+02 -0.97058494875E+03  0.10197438966E+04  0.31252622924E+03 0.  0.
         13    1    3    3    0    0  0.10881944614E+03  0.10675465998E+03 -0.40800890975E+03  0.43555654021E+03  0.00000000000E+00 0.  1.
          3    1    3    3  501    0 -0.10347661738E+03 -0.11864087557E+03 -0.56257603900E+03  0.58418735638E+03  0.00000000000E+00 0.  1.
         21    1    1    2  502  501 -0.53428287540E+01  0.11886215585E+02  0.39445500772E+01  0.13615704732E+02  0.00000000000E+00 0. -1.
<mgrwt>
<rscale>  1 0.30000000E+03</rscale>
<asrwt>0</asrwt>
<pdfrwt beam="1">  1        1 0.12130790E+00 0.30000000E+03</pdfrwt>
<pdfrwt beam="2">0</pdfrwt>
<totfact> 0.25558349E+01</totfact>
</mgrwt>
</event>
<event>
 6    1  0.1904828E-004  0.3000000E+03  0.7818608E-02  0.1093470E+00
          3   -1    0    0  502    0  0.00000000000E+00  0.00000000000E+00  0.29769717699E+02  0.29769717699E+02  0.00000000000E+00 0.  1.
         13   -1    0    0    0    0 -0.00000000000E+00 -0.00000000000E+00 -0.10000000000E+04  0.10000000000E+04  0.00000000000E+00 0.  1.
    9000005    2    1    2  501    0 -0.39084741378E+01  0.29973570210E+02 -0.89697038012E+03  0.95051882276E+03  0.31307583510E+03 0.  0.
         13    1    3    3    0    0  0.54409153800E+02 -0.60834590527E+02 -0.47934787835E+02  0.94651715814E+02  0.00000000000E+00 0.  1.
          1    1    3    3  501    0 -0.58317627937E+02  0.90808160737E+02 -0.84903559228E+03  0.85586710694E+03  0.00000000000E+00 0.  1.
         21    1    1    2  502  501  0.39084741378E+01 -0.29973570210E+02 -0.73259902185E+02  0.79250894944E+02  0.00000000000E+00 0.  1.
<mgrwt>
<rscale>  1 0.30000000E+03</rscale>
<asrwt>0</asrwt>
<pdfrwt beam="1">  1        3 0.10825375E+00 0.30000000E+03</pdfrwt>
<pdfrwt beam="2">0</pdfrwt>
<totfact> 0.31548930E+00</totfact>
</mgrwt>
</event>
<event>
 6    1  0.1904828E-004  0.3000000E+03  0.7818608E-02  0.1093470E+00
          1   -1    0    0  502    0  0.00000000000E+00  0.00000000000E+00  0.35501850950E+02  0.35501850950E+02  0.00000000000E+00 0.  1.
         13   -1    0    0    0    0 -0.00000000000E+00 -0.00000000000E+00 -0.10000000000E+04  0.10000000000E+04  0.00000000000E+00 0.  1.
    9000005    2    1    2  501    0  0.68917462248E+00  0.29852863208E+02 -0.94893439737E+03  0.10018284376E+04  0.31983129830E+03 0.  0.
         13    1    3    3    0    0  0.37115567391E+02 -0.13153997176E+03 -0.26504737696E+03  0.29821207478E+03  0.00000000000E+00 0.  1.
          1    1    3    3  501    0 -0.36426392768E+02  0.16139283497E+03 -0.68388702042E+03  0.70361636278E+03  0.00000000000E+00 0.  1.
         21    1    1    2  502  501 -0.68917462248E+00 -0.29852863208E+02 -0.15563751676E+02  0.33673413394E+02  0.00000000000E+00 0.  1.
<mgrwt>
<rscale>  1 0.30000000E+03</rscale>
<asrwt>0</asrwt>
<pdfrwt beam="1">  1        1 0.12909791E+00 0.30000000E+03</pdfrwt>
<pdfrwt beam="2">0</pdfrwt>
<totfact> 0.23140453E+01</totfact>
</mgrwt>
</event>
<event>
 6    1  0.1904828E-004  0.3000000E+03  0.7818608E-02  0.1093470E+00
          1   -1    0    0  502    0  0.00000000000E+00  0.00000000000E+00  0.31937444150E+02  0.31937444150E+02  0.00000000000E+00 0.  1.
         13   -1    0    0    0    0 -0.00000000000E+00 -0.00000000000E+00 -0.10000000000E+04  0.10000000000E+04  0.00000000000E+00 0.  1.
    9000005    2    1    2  501    0 -0.85352553426E+01 -0.11111454441E+02 -0.96606293058E+03  0.10177842288E+04  0.32001693009E+03 0.  0.
         13    1    3    3    0    0 -0.34857395889E+02 -0.98966309576E+02 -0.89664085172E+03  0.90275920679E+03  0.00000000000E+00 0.  1.
          3    1    3    3  501    0  0.26322140546E+02  0.87854855135E+02 -0.69422078862E+02  0.11502502201E+03  0.00000000000E+00 0.  1.
         21    1    1    2  502  501  0.85352553426E+01  0.11111454441E+02 -0.19996252678E+01  0.14153215351E+02  0.00000000000E+00 0. -1.
<mgrwt>
<rscale>  1 0.30000000E+03</rscale>
<asrwt>0</asrwt>
<pdfrwt beam="1">  1        1 0.11613641E+00 0.30000000E+03</pdfrwt>
<pdfrwt beam="2">0</pdfrwt>
<totfact> 0.27349569E+01</totfact>
</mgrwt>
</event>
<event>
 6    1  0.1904828E-004  0.3000000E+03  0.7818608E-02  0.1093470E+00
          1   -1    0    0  502    0  0.00000000000E+00  0.00000000000E+00  0.34602308524E+02  0.34602308524E+02  0.00000000000E+00 0.  1.
         13   -1    0    0    0    0 -0.00000000000E+00 -0.00000000000E+00 -0.10000000000E+04  0.10000000000E+04  0.00000000000E+00 0.  1.
    9000005    2    1    2  501    0  0.57385470250E+01 -0.26825829341E+02 -0.94342376531E+03  0.99945391634E+03  0.32879655397E+03 0.  0.
         13    1    3    3    0    0  0.15283599266E+03 -0.51242636895E+02 -0.65765461171E+03  0.67712202504E+03  0.00000000000E+00 0.  1.
          1    1    3    3  501    0 -0.14709744563E+03  0.24416807554E+02 -0.28576915360E+03  0.32233189130E+03  0.00000000000E+00 0.  1.
         21    1    1    2  502  501 -0.57385470250E+01  0.26825829341E+02 -0.21973926168E+02  0.35148392183E+02  0.00000000000E+00 0. -1.
<mgrwt>
<rscale>  1 0.30000000E+03</rscale>
<asrwt>0</asrwt>
<pdfrwt beam="1">  1        1 0.12582684E+00 0.30000000E+03</pdfrwt>
<pdfrwt beam="2">0</pdfrwt>
<totfact> 0.24118415E+01</totfact>
</mgrwt>
</event>
<event>
 6    1  0.1904828E-004  0.3000000E+03  0.7818608E-02  0.1093470E+00
          1   -1    0    0  502    0  0.00000000000E+00  0.00000000000E+00  0.32767173368E+02  0.32767173368E+02  0.00000000000E+00 0.  1.
         13   -1    0    0    0    0 -0.00000000000E+00 -0.00000000000E+00 -0.10000000000E+04  0.10000000000E+04  0.00000000000E+00 0.  1.
    9000005    2    1    2  501    0 -0.56757079312E+01  0.10284851692E+02 -0.96433795855E+03  0.10206687397E+04  0.33418406030E+03 0.  0.
         13    1    3    3    0    0 -0.74461128201E+02 -0.29362490325E+02 -0.34023190847E+02  0.86972368983E+02  0.00000000000E+00 0.  1.
          3    1    3    3  501    0  0.68785420270E+02  0.39647342017E+02 -0.93031476771E+03  0.93369637077E+03  0.00000000000E+00 0.  1.
         21    1    1    2  502  501  0.56757079312E+01 -0.10284851692E+02 -0.28948680799E+01  0.12098433620E+02  0.00000000000E+00 0.  1.
<mgrwt>
<rscale>  1 0.30000000E+03</rscale>
<asrwt>0</asrwt>
<pdfrwt beam="1">  1        1 0.11915361E+00 0.30000000E+03</pdfrwt>
<pdfrwt beam="2">0</pdfrwt>
<totfact> 0.26284614E+01</totfact>
</mgrwt>
</event>
<event>
 6    1  0.1904828E-004  0.3000000E+03  0.7818608E-02  0.1093470E+00
          1   -1    0    0  502    0  0.00000000000E+00  0.00000000000E+00  0.40406094377E+02  0.40406094377E+02  0.00000000000E+00 0.  1.
         13   -1    0    0    0    0 -0.00000000000E+00 -0.00000000000E+00 -0.10000000000E+04  0.10000000000E+04  0.00000000000E+00 0.  1.
    9000005    2    1    2  501    0  0.93824796343E+01  0.94494893130E+01 -0.97249707230E+03  0.10218638323E+04  0.31349292237E+03 0.  0.
         13    1    3    3    0    0  0.15234244585E+03 -0.44817151391E+02 -0.55381223327E+03  0.57612914142E+03  0.00000000000E+00 0.  1.
          1    1    3    3  501    0 -0.14295996621E+03  0.54266640704E+02 -0.41868483903E+03  0.44573469089E+03  0.00000000000E+00 0.  1.
         21    1    1    2  502  501 -0.93824796343E+01 -0.94494893130E+01  0.12903166677E+02  0.18542262069E+02  0.00000000000E+00 0.  1.
<mgrwt>
<rscale>  1 0.30000000E+03</rscale>
<asrwt>0</asrwt>
<pdfrwt beam="1">  1        1 0.14693156E+00 0.30000000E+03</pdfrwt>
<pdfrwt beam="2">0</pdfrwt>
<totfact> 0.18625053E+01</totfact>
</mgrwt>
</event>
<event>
 6    1  0.1904828E-004  0.3000000E+03  0.7818608E-02  0.1093470E+00
          1   -1    0    0  502    0  0.00000000000E+00  0.00000000000E+00  0.45610947755E+02  0.45610947755E+02  0.00000000000E+00 0.  1.
         13   -1    0    0    0    0 -0.00000000000E+00 -0.00000000000E+00 -0.10000000000E+04  0.10000000000E+04  0.00000000000E+00 0.  1.
    9000005    2    1    2  501    0  0.89283510680E+02  0.60602439045E+01 -0.75038528837E+03  0.82284244120E+03  0.32555081049E+03 0.  0.
         13    1    3    3    0    0 -0.32844375157E+02  0.10575206298E+03 -0.58094332199E+03  0.59140290426E+03  0.00000000000E+00 0.  1.
          3    1    3    3  501    0  0.12212788584E+03 -0.99691819074E+02 -0.16944196637E+03  0.23143953694E+03  0.00000000000E+00 0.  1.
         21    1    1    2  502  501 -0.89283510680E+02 -0.60602439045E+01 -0.20400376388E+03  0.22276850655E+03  0.00000000000E+00 0.  1.
<mgrwt>
<rscale>  1 0.30000000E+03</rscale>
<asrwt>0</asrwt>
<pdfrwt beam="1">  1        1 0.16585834E+00 0.30000000E+03</pdfrwt>
<pdfrwt beam="2">0</pdfrwt>
<totfact> 0.14970988E+01</totfact>
</mgrwt>
</event>
<event>
 6    1  0.1904828E-004  0.3000000E+03  0.7818608E-02  0.1093470E+00
          1   -1    0    0  502    0  0.00000000000E+00  0.00000000000E+00  0.31353139794E+02  0.31353139794E+02  0.00000000000E+00 0.  1.
         13   -1    0    0    0    0 -0.00000000000E+00 -0.00000000000E+00 -0.10000000000E+04  0.10000000000E+04  0.00000000000E+00 0.  1.
    9000005    2    1    2  501    0 -0.15162955566E+02 -0.17993650142E+02 -0.94806711016E+03  0.10000927371E+04  0.31749102458E+03 0.  0.
         13    1    3    3    0    0 -0.15914871847E+03  0.92868889397E+01 -0.63051232663E+03  0.65035402277E+03  0.00000000000E+00 0.  1.
          1    1    3    3  501    0  0.14398576291E+03 -0.27280539082E+02 -0.31755478353E+03  0.34973871429E+03  0.00000000000E+00 0.  1.
         21    1    1    2  502  501  0.15162955566E+02  0.17993650142E+02 -0.20579750043E+02  0.31260402729E+02  0.00000000000E+00 0.  1.
<mgrwt>
<rscale>  1 0.30000000E+03</rscale>
<asrwt>0</asrwt>
<pdfrwt beam="1">  1        1 0.11401166E+00 0.30000000E+03</pdfrwt>
<pdfrwt beam="2">0</pdfrwt>
<totfact> 0.28135685E+01</totfact>
</mgrwt>
</event>
<event>
 6    1  0.1904828E-004  0.3000000E+03  0.7818608E-02  0.1093470E+00
          1   -1    0    0  502    0  0.00000000000E+00  0.00000000000E+00  0.27245561646E+02  0.27245561646E+02  0.00000000000E+00 0.  1.
         13   -1    0    0    0    0 -0.00000000000E+00 -0.00000000000E+00 -0.10000000000E+04  0.10000000000E+04  0.00000000000E+00 0.  1.
    9000005    2    1    2  501    0 -0.12886388540E+01 -0.92262068095E+01 -0.94282723532E+03  0.99590196639E+03  0.32064115069E+03 0.  0.
         13    1    3    3    0    0  0.53054780090E+02  0.13666118936E+02 -0.36851544902E+01  0.54910407582E+02  0.00000000000E+00 0.  1.
          1    1    3    3  501    0 -0.54343418944E+02 -0.22892325746E+02 -0.93914208083E+03  0.94099155881E+03  0.00000000000E+00 0.  1.
         21    1    1    2  502  501  0.12886388540E+01  0.92262068095E+01 -0.29927203036E+02  0.31343595259E+02  0.00000000000E+00 0.  1.
<mgrwt>
<rscale>  1 0.30000000E+03</rscale>
<asrwt>0</asrwt>
<pdfrwt beam="1">  1        1 0.99074979E-01 0.30000000E+03</pdfrwt>
<pdfrwt beam="2">0</pdfrwt>
<totfact> 0.34694517E+01</totfact>
</mgrwt>
</event>
<event>
 6    1  0.1904828E-004  0.3000000E+03  0.7818608E-02  0.1093470E+00
          1   -1    0    0  502    0  0.00000000000E+00  0.00000000000E+00  0.28223771947E+02  0.28223771947E+02  0.00000000000E+00 0.  1.
         13   -1    0    0    0    0 -0.00000000000E+00 -0.00000000000E+00 -0.10000000000E+04  0.10000000000E+04  0.00000000000E+00 0.  1.
    9000005    2    1    2  501    0 -0.11324807771E+02 -0.10393862935E+01 -0.95672674102E+03  0.10093606159E+04  0.32148633628E+03 0.  0.
         13    1    3    3    0    0 -0.13449366501E+03 -0.96625593522E+02 -0.50938220143E+03  0.53562606208E+03  0.00000000000E+00 0.  1.
          1    1    3    3  501    0  0.12316885724E+03  0.95586207229E+02 -0.44734453959E+03  0.47373455385E+03  0.00000000000E+00 0.  1.
         21    1    1    2  502  501  0.11324807771E+02  0.10393862935E+01 -0.15049487032E+02  0.18863156015E+02  0.00000000000E+00 0.  1.
<mgrwt>
<rscale>  1 0.30000000E+03</rscale>
<asrwt>0</asrwt>
<pdfrwt beam="1">  1        1 0.10263211E+00 0.30000000E+03</pdfrwt>
<pdfrwt beam="2">0</pdfrwt>
<totfact> 0.32946078E+01</totfact>
</mgrwt>
</event>
<event>
 6    1  0.1904828E-004  0.3000000E+03  0.7818608E-02  0.1093470E+00
          1   -1    0    0  502    0  0.00000000000E+00  0.00000000000E+00  0.31644434497E+02  0.31644434497E+02  0.00000000000E+00 0.  1.
         13   -1    0    0    0    0 -0.00000000000E+00 -0.00000000000E+00 -0.10000000000E+04  0.10000000000E+04  0.00000000000E+00 0.  1.
    9000005    2    1    2  501    0  0.41173271870E+00 -0.14467441467E+02 -0.95831795873E+03  0.10140310891E+04  0.33117406790E+03 0.  0.
         13    1    3    3    0    0  0.26064077537E+02 -0.16377946173E+03 -0.64541994517E+03  0.66638573953E+03  0.00000000000E+00 0.  1.
          3    1    3    3  501    0 -0.25652344819E+02  0.14931202026E+03 -0.31289801355E+03  0.34764534956E+03  0.00000000000E+00 0.  1.
         21    1    1    2  502  501 -0.41173271870E+00  0.14467441467E+02 -0.10037606778E+02  0.17613345402E+02  0.00000000000E+00 0.  1.
<mgrwt>
<rscale>  1 0.30000000E+03</rscale>
<asrwt>0</asrwt>
<pdfrwt beam="1">  1        1 0.11507091E+00 0.30000000E+03</pdfrwt>
<pdfrwt beam="2">0</pdfrwt>
<totfact> 0.27739877E+01</totfact>
</mgrwt>
</event>
<event>
 6    1  0.1904828E-004  0.3000000E+03  0.7818608E-02  0.1093470E+00
          1   -1    0    0  502    0  0.00000000000E+00  0.00000000000E+00  0.31088101464E+02  0.31088101464E+02  0.00000000000E+00 0.  1.
         13   -1    0    0    0    0 -0.00000000000E+00 -0.00000000000E+00 -0.10000000000E+04  0.10000000000E+04  0.00000000000E+00 0.  1.
    9000005    2    1    2  501    0  0.13952502898E+02 -0.66630122227E+01 -0.95880410977E+03  0.10126155417E+04  0.32533958627E+03 0.  0.
         13    1    3    3    0    0  0.11165085738E+03 -0.31684207094E+02 -0.87159206876E+03  0.87928524226E+03  0.00000000000E+00 0.  1.
          1    1    3    3  501    0 -0.97698354486E+02  0.25021194872E+02 -0.87212041013E+02  0.13333029948E+03  0.00000000000E+00 0.  1.
         21    1    1    2  502  501 -0.13952502898E+02  0.66630122227E+01 -0.10107788767E+02  0.18472559724E+02  0.00000000000E+00 0.  1.
<mgrwt>
<rscale>  1 0.30000000E+03</rscale>
<asrwt>0</asrwt>
<pdfrwt beam="1">  1        1 0.11304788E+00 0.30000000E+03</pdfrwt>
<pdfrwt beam="2">0</pdfrwt>
<totfact> 0.28502794E+01</totfact>
</mgrwt>
</event>
<event>
 6    1  0.1904828E-004  0.3000000E+03  0.7818608E-02  0.1093470E+00
          1   -1    0    0  502    0  0.00000000000E+00  0.00000000000E+00  0.34536114378E+02  0.34536114378E+02  0.00000000000E+00 0.  1.
         13   -1    0    0    0    0 -0.00000000000E+00 -0.00000000000E+00 -0.10000000000E+04  0.10000000000E+04  0.00000000000E+00 0.  1.
    9000005    2    1    2  501    0  0.11389461713E+02  0.12831460723E+02 -0.96559024932E+03  0.10173785449E+04  0.32000032472E+03 0.  0.
         13    1    3    3    0    0  0.12214242874E+03  0.51853117336E+02 -0.81839534062E+03  0.82908289828E+03  0.00000000000E+00 0.  1.
          1    1    3    3  501    0 -0.11075296702E+03 -0.39021656613E+02 -0.14719490871E+03  0.18829564662E+03  0.00000000000E+00 0.  1.
         21    1    1    2  502  501 -0.11389461713E+02 -0.12831460723E+02  0.12636370131E+00  0.17157569472E+02  0.00000000000E+00 0.  1.
<mgrwt>
<rscale>  1 0.30000000E+03</rscale>
<asrwt>0</asrwt>
<pdfrwt beam="1">  1        1 0.12558614E+00 0.30000000E+03</pdfrwt>
<pdfrwt beam="2">0</pdfrwt>
<totfact> 0.24192451E+01</totfact>
</mgrwt>
</event>
<event>
 6    1  0.1904828E-004  0.3000000E+03  0.7818608E-02  0.1093470E+00
          1   -1    0    0  502    0  0.00000000000E+00  0.00000000000E+00  0.52136682794E+02  0.52136682794E+02  0.00000000000E+00 0.  1.
         13   -1    0    0    0    0 -0.00000000000E+00 -0.00000000000E+00 -0.10000000000E+04  0.10000000000E+04  0.00000000000E+00 0.  1.
    9000005    2    1    2  501    0  0.96313105280E+01 -0.38535988071E+01 -0.96923887280E+03  0.10283769113E+04  0.34355125777E+03 0.  0.
         13    1    3    3    0    0  0.13116171982E+02 -0.15923574713E+03 -0.28521777539E+03  0.32692084138E+03  0.00000000000E+00 0.  1.
          3    1    3    3  501    0 -0.34848614541E+01  0.15538214832E+03 -0.68402109741E+03  0.70145606988E+03  0.00000000000E+00 0.  1.
         21    1    1    2  502  501 -0.96313105280E+01  0.38535988071E+01  0.21375555593E+02  0.23759771530E+02  0.00000000000E+00 0.  1.
<mgrwt>
<rscale>  1 0.30000000E+03</rscale>
<asrwt>0</asrwt>
<pdfrwt beam="1">  1        1 0.18958834E+00 0.30000000E+03</pdfrwt>
<pdfrwt beam="2">0</pdfrwt>
<totfact> 0.11486131E+01</totfact>
</mgrwt>
</event>
<event>
 6    1  0.1904828E-004  0.3000000E+03  0.7818608E-02  0.1093470E+00
          1   -1    0    0  502    0  0.00000000000E+00  0.00000000000E+00  0.42949741895E+02  0.42949741895E+02  0.00000000000E+00 0.  1.
         13   -1    0    0    0    0 -0.00000000000E+00 -0.00000000000E+00 -0.10000000000E+04  0.10000000000E+04  0.00000000000E+00 0.  1.
    9000005    2    1    2  501    0 -0.48369031135E+02 -0.62128364366E+02 -0.79965563524E+03  0.86695950313E+03  0.32553056427E+03 0.  0.
         13    1    3    3    0    0  0.18888066068E+02 -0.18850760358E+03 -0.50498365427E+03  0.53935180238E+03  0.00000000000E+00 0.  1.
          1    1    3    3  501    0 -0.67257097203E+02  0.12637923921E+03 -0.29467198097E+03  0.32760770076E+03  0.00000000000E+00 0.  1.
         21    1    1    2  502  501  0.48369031135E+02  0.62128364366E+02 -0.15739462287E+03  0.17599023876E+03  0.00000000000E+00 0.  1.
<mgrwt>
<rscale>  1 0.30000000E+03</rscale>
<asrwt>0</asrwt>
<pdfrwt beam="1">  1        1 0.15618121E+00 0.30000000E+03</pdfrwt>
<pdfrwt beam="2">0</pdfrwt>
<totfact> 0.16720380E+01</totfact>
</mgrwt>
</event>
<event>
 6    1  0.1904828E-004  0.3000000E+03  0.7818608E-02  0.1093470E+00
          3   -1    0    0  502    0  0.00000000000E+00  0.00000000000E+00  0.49380650162E+02  0.49380650162E+02  0.00000000000E+00 0.  1.
         13   -1    0    0    0    0 -0.00000000000E+00 -0.00000000000E+00 -0.10000000000E+04  0.10000000000E+04  0.00000000000E+00 0.  1.
    9000005    2    1    2  501    0  0.78454990142E+02 -0.20500609808E+02 -0.88264826911E+03  0.94357172664E+03  0.32354934072E+03 0.  0.
         13    1    3    3    0    0 -0.14657226903E+02  0.78114262322E+02 -0.74884617664E+03  0.75305196936E+03  0.00000000000E+00 0.  1.
          1    1    3    3  501    0  0.93112217045E+02 -0.98614872131E+02 -0.13380209247E+03  0.19051975729E+03  0.00000000000E+00 0.  1.
         21    1    1    2  502  501 -0.78454990142E+02  0.20500609808E+02 -0.67971080727E+02  0.10580892352E+03  0.00000000000E+00 0. -1.
<mgrwt>
<rscale>  1 0.30000000E+03</rscale>
<asrwt>0</asrwt>
<pdfrwt beam="1">  1        3 0.17956638E+00 0.30000000E+03</pdfrwt>
<pdfrwt beam="2">0</pdfrwt>
<totfact> 0.33375106E-01</totfact>
</mgrwt>
</event>
<event>
 6    1  0.1904828E-004  0.3000000E+03  0.7818608E-02  0.1093470E+00
          1   -1    0    0  502    0  0.00000000000E+00  0.00000000000E+00  0.33878309053E+02  0.33878309053E+02  0.00000000000E+00 0.  1.
         13   -1    0    0    0    0 -0.00000000000E+00 -0.00000000000E+00 -0.10000000000E+04  0.10000000000E+04  0.00000000000E+00 0.  1.
    9000005    2    1    2  501    0 -0.52771356951E+01  0.21577758526E+02 -0.96283711298E+03  0.10114231031E+04  0.30891412954E+03 0.  0.
         13    1    3    3    0    0 -0.30224714676E+02  0.83600293320E+02 -0.62644219280E+02  0.10875127875E+03  0.00000000000E+00 0.  1.
          3    1    3    3  501    0  0.24947578981E+02 -0.62022534794E+02 -0.90019289370E+03  0.90267182430E+03  0.00000000000E+00 0.  1.
         21    1    1    2  502  501  0.52771356951E+01 -0.21577758526E+02 -0.32845779651E+01  0.22455206001E+02  0.00000000000E+00 0.  1.
<mgrwt>
<rscale>  1 0.30000000E+03</rscale>
<asrwt>0</asrwt>
<pdfrwt beam="1">  1        1 0.12319411E+00 0.30000000E+03</pdfrwt>
<pdfrwt beam="2">0</pdfrwt>
<totfact> 0.24944139E+01</totfact>
</mgrwt>
</event>
<event>
 6    1  0.1904828E-004  0.3000000E+03  0.7818608E-02  0.1093470E+00
          1   -1    0    0  502    0  0.00000000000E+00  0.00000000000E+00  0.36038525434E+02  0.36038525434E+02  0.00000000000E+00 0.  1.
         13   -1    0    0    0    0 -0.00000000000E+00 -0.00000000000E+00 -0.10000000000E+04  0.10000000000E+04  0.00000000000E+00 0.  1.
    9000005    2    1    2  501    0 -0.29172778777E+02 -0.21082999766E+02 -0.92699423537E+03  0.98444278264E+03  0.32941423161E+03 0.  0.
         13    1    3    3    0    0 -0.89950046983E+01 -0.41955485936E+02  0.12349392946E+02  0.44650648548E+02  0.00000000000E+00 0.  1.
          3    1    3    3  501    0 -0.20177774078E+02  0.20872486170E+02 -0.93934362831E+03  0.93979213409E+03  0.00000000000E+00 0.  1.
         21    1    1    2  502  501  0.29172778777E+02  0.21082999766E+02 -0.36967239200E+02  0.51595742797E+02  0.00000000000E+00 0.  1.
<mgrwt>
<rscale>  1 0.30000000E+03</rscale>
<asrwt>0</asrwt>
<pdfrwt beam="1">  1        1 0.13104946E+00 0.30000000E+03</pdfrwt>
<pdfrwt beam="2">0</pdfrwt>
<totfact> 0.22581303E+01</totfact>
</mgrwt>
</event>
<event>
 6    1  0.1904828E-004  0.3000000E+03  0.7818608E-02  0.1093470E+00
          1   -1    0    0  502    0  0.00000000000E+00  0.00000000000E+00  0.43698675661E+02  0.43698675661E+02  0.00000000000E+00 0.  1.
         13   -1    0    0    0    0 -0.00000000000E+00 -0.00000000000E+00 -0.10000000000E+04  0.10000000000E+04  0.00000000000E+00 0.  1.
    9000005    2    1    2  501    0 -0.88503829359E+01 -0.63356695178E+01 -0.96622801158E+03  0.10289674467E+04  0.35363677139E+03 0.  0.
         13    1    3    3    0    0 -0.83625576545E+02  0.15444992011E+03 -0.51636331282E+03  0.54541643328E+03  0.00000000000E+00 0.  1.
          1    1    3    3  501    0  0.74775193609E+02 -0.16078558963E+03 -0.44986469876E+03  0.48355101344E+03  0.00000000000E+00 0.  1.
         21    1    1    2  502  501  0.88503829359E+01  0.63356695178E+01  0.99266872390E+01  0.14731228934E+02  0.00000000000E+00 0.  1.
<mgrwt>
<rscale>  1 0.30000000E+03</rscale>
<asrwt>0</asrwt>
<pdfrwt beam="1">  1        1 0.15890461E+00 0.30000000E+03</pdfrwt>
<pdfrwt beam="2">0</pdfrwt>
<totfact> 0.16205037E+01</totfact>
</mgrwt>
</event>
<event>
 6    1  0.1904828E-004  0.3000000E+03  0.7818608E-02  0.1093470E+00
          1   -1    0    0  502    0  0.00000000000E+00  0.00000000000E+00  0.32287969784E+02  0.32287969784E+02  0.00000000000E+00 0.  1.
         13   -1    0    0    0    0 -0.00000000000E+00 -0.00000000000E+00 -0.10000000000E+04  0.10000000000E+04  0.00000000000E+00 0.  1.
    9000005    2    1    2  501    0  0.29607227641E+01  0.94761874509E+01 -0.96849573412E+03  0.10223291446E+04  0.32722213987E+03 0.  0.
         13    1    3    3    0    0  0.15103308127E+03 -0.10120487841E+02 -0.28501302160E+03  0.32271634355E+03  0.00000000000E+00 0.  1.
          1    1    3    3  501    0 -0.14807235851E+03  0.19596675292E+02 -0.68348271252E+03  0.69961280102E+03  0.00000000000E+00 0.  1.
         21    1    1    2  502  501 -0.29607227641E+01 -0.94761874509E+01  0.78370390112E+00  0.99588252166E+01  0.00000000000E+00 0.  1.
<mgrwt>
<rscale>  1 0.30000000E+03</rscale>
<asrwt>0</asrwt>
<pdfrwt beam="1">  1        1 0.11741105E+00 0.30000000E+03</pdfrwt>
<pdfrwt beam="2">0</pdfrwt>
<totfact> 0.26892586E+01</totfact>
</mgrwt>
</event>
<event>
 6    1  0.1904828E-004  0.3000000E+03  0.7818608E-02  0.1093470E+00
          1   -1    0    0  502    0  0.00000000000E+00  0.00000000000E+00  0.54030874176E+02  0.54030874176E+02  0.00000000000E+00 0.  1.
         13   -1    0    0    0    0 -0.00000000000E+00 -0.00000000000E+00 -0.10000000000E+04  0.10000000000E+04  0.00000000000E+00 0.  1.
    9000005    2    1    2  501    0  0.22468212578E+02 -0.16166023702E+02 -0.96307565653E+03  0.10214917548E+04  0.33935898983E+03 0.  0.
         13    1    3    3    0    0 -0.11802288214E+03  0.91713412026E+02 -0.58790393519E+03  0.60660678176E+03  0.00000000000E+00 0.  1.
          1    1    3    3  501    0  0.14049109472E+03 -0.10787943573E+03 -0.37517172133E+03  0.41488497302E+03  0.00000000000E+00 0.  1.
         21    1    1    2  502  501 -0.22468212578E+02  0.16166023702E+02  0.17106530704E+02  0.32539119403E+02  0.00000000000E+00 0. -1.
<mgrwt>
<rscale>  1 0.30000000E+03</rscale>
<asrwt>0</asrwt>
<pdfrwt beam="1">  1        1 0.19647632E+00 0.30000000E+03</pdfrwt>
<pdfrwt beam="2">0</pdfrwt>
<totfact> 0.10646635E+01</totfact>
</mgrwt>
</event>
<event>
 6    1  0.1904828E-004  0.3000000E+03  0.7818608E-02  0.1093470E+00
          1   -1    0    0  502    0  0.00000000000E+00  0.00000000000E+00  0.29493325925E+02  0.29493325925E+02  0.00000000000E+00 0.  1.
         13   -1    0    0    0    0 -0.00000000000E+00 -0.00000000000E+00 -0.10000000000E+04  0.10000000000E+04  0.00000000000E+00 0.  1.
    9000005    2    1    2  501    0 -0.10226431210E+02  0.58866398347E+01 -0.95798588774E+03  0.10122886023E+04  0.32688227369E+03 0.  0.
         13    1    3    3    0    0  0.74911444045E+02 -0.26265124120E+02 -0.38349926615E+02  0.88160637846E+02  0.00000000000E+00 0.  1.
          1    1    3    3  501    0 -0.85137875255E+02  0.32151763955E+02 -0.91963596113E+03  0.92412796448E+03  0.00000000000E+00 0.  1.
         21    1    1    2  502  501  0.10226431210E+02 -0.58866398347E+01 -0.12520786330E+02  0.17204723601E+02  0.00000000000E+00 0. -1.
<mgrwt>
<rscale>  1 0.30000000E+03</rscale>
<asrwt>0</asrwt>
<pdfrwt beam="1">  1        1 0.10724868E+00 0.30000000E+03</pdfrwt>
<pdfrwt beam="2">0</pdfrwt>
<totfact> 0.30862366E+01</totfact>
</mgrwt>
</event>
<event>
 6    1  0.1904828E-004  0.3000000E+03  0.7818608E-02  0.1093470E+00
          1   -1    0    0  502    0  0.00000000000E+00  0.00000000000E+00  0.40574001187E+02  0.40574001187E+02  0.00000000000E+00 0.  1.
         13   -1    0    0    0    0 -0.00000000000E+00 -0.00000000000E+00 -0.10000000000E+04  0.10000000000E+04  0.00000000000E+00 0.  1.
    9000005    2    1    2  501    0  0.31434262856E+01 -0.13491417118E+02 -0.96504392403E+03  0.10256254043E+04  0.34699538212E+03 0.  0.
         13    1    3    3    0    0 -0.15705156066E+03 -0.10631825585E+02 -0.27165335628E+03  0.31396460693E+03  0.00000000000E+00 0.  1.
          3    1    3    3  501    0  0.16019498695E+03 -0.28595915327E+01 -0.69339056774E+03  0.71166079739E+03  0.00000000000E+00 0.  1.
         21    1    1    2  502  501 -0.31434262856E+01  0.13491417118E+02  0.56179252143E+01  0.14948596870E+02  0.00000000000E+00 0. -1.
<mgrwt>
<rscale>  1 0.30000000E+03</rscale>
<asrwt>0</asrwt>
<pdfrwt beam="1">  1        1 0.14754213E+00 0.30000000E+03</pdfrwt>
<pdfrwt beam="2">0</pdfrwt>
<totfact> 0.18491319E+01</totfact>
</mgrwt>
</event>
<event>
 6    1  0.1904828E-004  0.3000000E+03  0.7818608E-02  0.1093470E+00
          3   -1    0    0  502    0  0.00000000000E+00  0.00000000000E+00  0.28298046518E+02  0.28298046518E+02  0.00000000000E+00 0.  1.
         13   -1    0    0    0    0 -0.00000000000E+00 -0.00000000000E+00 -0.10000000000E+04  0.10000000000E+04  0.00000000000E+00 0.  1.
    9000005    2    1    2  501    0  0.32945276639E+01  0.10316955277E+02 -0.94820754875E+03  0.10024275898E+04  0.32503265028E+03 0.  0.
         13    1    3    3    0    0  0.15100626544E+02 -0.10349354913E+03 -0.83480140816E+03  0.84132772134E+03  0.00000000000E+00 0.  1.
          1    1    3    3  501    0 -0.11806098880E+02  0.11381050440E+03 -0.11340614059E+03  0.16109986843E+03  0.00000000000E+00 0.  1.
         21    1    1    2  502  501 -0.32945276639E+01 -0.10316955277E+02 -0.23494404728E+02  0.25870456746E+02  0.00000000000E+00 0. -1.
<mgrwt>
<rscale>  1 0.30000000E+03</rscale>
<asrwt>0</asrwt>
<pdfrwt beam="1">  1        3 0.10290220E+00 0.30000000E+03</pdfrwt>
<pdfrwt beam="2">0</pdfrwt>
<totfact> 0.36299946E+00</totfact>
</mgrwt>
</event>
<event>
 6    1  0.1904828E-004  0.3000000E+03  0.7818608E-02  0.1093470E+00
          1   -1    0    0  502    0  0.00000000000E+00  0.00000000000E+00  0.30484199689E+02  0.30484199689E+02  0.00000000000E+00 0.  1.
         13   -1    0    0    0    0 -0.00000000000E+00 -0.00000000000E+00 -0.10000000000E+04  0.10000000000E+04  0.00000000000E+00 0.  1.
    9000005    2    1    2  501    0  0.21112861175E+00  0.13298982589E+02 -0.96321606305E+03  0.10157670599E+04  0.32221208606E+03 0.  0.
         13    1    3    3    0    0  0.15942436162E+03  0.30559456507E+02 -0.48951559323E+03  0.51572814881E+03  0.00000000000E+00 0.  1.
          3    1    3    3  501    0 -0.15921323301E+03 -0.17260473918E+02 -0.47370046982E+03  0.50003891112E+03  0.00000000000E+00 0.  1.
         21    1    1    2  502  501 -0.21112861175E+00 -0.13298982589E+02 -0.62997372617E+01  0.14717139762E+02  0.00000000000E+00 0.  1.
<mgrwt>
<rscale>  1 0.30000000E+03</rscale>
<asrwt>0</asrwt>
<pdfrwt beam="1">  1        1 0.11085187E+00 0.30000000E+03</pdfrwt>
<pdfrwt beam="2">0</pdfrwt>
<totfact> 0.29365157E+01</totfact>
</mgrwt>
</event>
<event>
 6    1  0.1904828E-004  0.3000000E+03  0.7818608E-02  0.1093470E+00
          1   -1    0    0  502    0  0.00000000000E+00  0.00000000000E+00  0.44422496650E+02  0.44422496650E+02  0.00000000000E+00 0.  1.
         13   -1    0    0    0    0 -0.00000000000E+00 -0.00000000000E+00 -0.10000000000E+04  0.10000000000E+04  0.00000000000E+00 0.  1.
    9000005    2    1    2  501    0  0.98987142155E+01  0.16010910484E+02 -0.96734073474E+03  0.10222254831E+04  0.32991287855E+03 0.  0.
         13    1    3    3    0    0 -0.78621163707E+02  0.15025170055E+03 -0.50717165910E+03  0.53477093479E+03  0.00000000000E+00 0.  1.
          3    1    3    3  501    0  0.88519877922E+02 -0.13424079006E+03 -0.46016907563E+03  0.48745454831E+03  0.00000000000E+00 0.  1.
         21    1    1    2  502  501 -0.98987142155E+01 -0.16010910484E+02  0.11763231385E+02  0.22197013544E+02  0.00000000000E+00 0.  1.
<mgrwt>
<rscale>  1 0.30000000E+03</rscale>
<asrwt>0</asrwt>
<pdfrwt beam="1">  1        1 0.16153669E+00 0.30000000E+03</pdfrwt>
<pdfrwt beam="2">0</pdfrwt>
<totfact> 0.15724598E+01</totfact>
</mgrwt>
</event>
<event>
 6    1  0.1904828E-004  0.3000000E+03  0.7818608E-02  0.1093470E+00
          1   -1    0    0  502    0  0.00000000000E+00  0.00000000000E+00  0.33868470911E+02  0.33868470911E+02  0.00000000000E+00 0.  1.
         13   -1    0    0    0    0 -0.00000000000E+00 -0.00000000000E+00 -0.10000000000E+04  0.10000000000E+04  0.00000000000E+00 0.  1.
    9000005    2    1    2  501    0  0.10143955547E+02 -0.61044718678E+01 -0.96642064256E+03  0.10220258362E+04  0.33230676647E+03 0.  0.
         13    1    3    3    0    0  0.13678839453E+03 -0.62543526024E+01 -0.80645177096E+03  0.81799427913E+03  0.00000000000E+00 0.  1.
          3    1    3    3  501    0 -0.12664443899E+03  0.14988073451E+00 -0.15996887159E+03  0.20403155704E+03  0.00000000000E+00 0.  1.
         21    1    1    2  502  501 -0.10143955547E+02  0.61044718678E+01  0.28911346646E+00  0.11842634737E+02  0.00000000000E+00 0. -1.
<mgrwt>
<rscale>  1 0.30000000E+03</rscale>
<asrwt>0</asrwt>
<pdfrwt beam="1">  1        1 0.12315834E+00 0.30000000E+03</pdfrwt>
<pdfrwt beam="2">0</pdfrwt>
<totfact> 0.24955608E+01</totfact>
</mgrwt>
</event>
<event>
 6    1  0.1904828E-004  0.3000000E+03  0.7818608E-02  0.1093470E+00
          1   -1    0    0  502    0  0.00000000000E+00  0.00000000000E+00  0.30653191096E+02  0.30653191096E+02  0.00000000000E+00 0.  1.
         13   -1    0    0    0    0 -0.00000000000E+00 -0.00000000000E+00 -0.10000000000E+04  0.10000000000E+04  0.00000000000E+00 0.  1.
    9000005    2    1    2  501    0 -0.65614604442E+01 -0.15644248801E+02 -0.95096836424E+03  0.10056419434E+04  0.32662990253E+03 0.  0.
         13    1    3    3    0    0  0.12233526751E+03 -0.94134033283E+02 -0.29968779929E+03  0.33710519269E+03  0.00000000000E+00 0.  1.
          3    1    3    3  501    0 -0.12889672795E+03  0.78489784482E+02 -0.65128056495E+03  0.66853675070E+03  0.00000000000E+00 0.  1.
         21    1    1    2  502  501  0.65614604442E+01  0.15644248801E+02 -0.18378444663E+02  0.25011247708E+02  0.00000000000E+00 0. -1.
<mgrwt>
<rscale>  1 0.30000000E+03</rscale>
<asrwt>0</asrwt>
<pdfrwt beam="1">  1        1 0.11146638E+00 0.30000000E+03</pdfrwt>
<pdfrwt beam="2">0</pdfrwt>
<totfact> 0.29120156E+01</totfact>
</mgrwt>
</event>
<event>
 6    1  0.1904828E-004  0.3000000E+03  0.7818608E-02  0.1093470E+00
          1   -1    0    0  502    0  0.00000000000E+00  0.00000000000E+00  0.69727961256E+02  0.69727961256E+02  0.00000000000E+00 0.  1.
         13   -1    0    0    0    0 -0.00000000000E+00 -0.00000000000E+00 -0.10000000000E+04  0.10000000000E+04  0.00000000000E+00 0.  1.
    9000005    2    1    2  501    0 -0.44700707725E+02  0.36129144090E+02 -0.95266371620E+03  0.10080444501E+04  0.32447186162E+03 0.  0.
         13    1    3    3    0    0 -0.12957781995E+03  0.18140376725E+02 -0.89350153850E+03  0.90303072151E+03  0.00000000000E+00 0.  1.
          3    1    3    3  501    0  0.84877112229E+02  0.17988767366E+02 -0.59162177702E+02  0.10501372864E+03  0.00000000000E+00 0.  1.
         21    1    1    2  502  501  0.44700707725E+02 -0.36129144090E+02  0.22391677455E+02  0.61683511112E+02  0.00000000000E+00 0.  1.
<mgrwt>
<rscale>  1 0.30000000E+03</rscale>
<asrwt>0</asrwt>
<pdfrwt beam="1">  1        1 0.25355676E+00 0.30000000E+03</pdfrwt>
<pdfrwt beam="2">0</pdfrwt>
<totfact> 0.57428623E+00</totfact>
</mgrwt>
</event>
<event>
 6    1  0.1904828E-004  0.3000000E+03  0.7818608E-02  0.1093470E+00
          1   -1    0    0  502    0  0.00000000000E+00  0.00000000000E+00  0.58847943405E+02  0.58847943405E+02  0.00000000000E+00 0.  1.
         13   -1    0    0    0    0 -0.00000000000E+00 -0.00000000000E+00 -0.10000000000E+04  0.10000000000E+04  0.00000000000E+00 0.  1.
    9000005    2    1    2  501    0  0.75188007000E+00  0.15582514216E+02 -0.97147550492E+03  0.10247467471E+04  0.32572666286E+03 0.  0.
         13    1    3    3    0    0  0.30171871409E+02 -0.41021061257E+02 -0.95824435036E+03  0.95959642783E+03  0.00000000000E+00 0.  1.
          1    1    3    3  501    0 -0.29419991339E+02  0.56603575473E+02 -0.13231154558E+02  0.65150319245E+02  0.00000000000E+00 0.  1.
         21    1    1    2  502  501 -0.75188007000E+00 -0.15582514216E+02  0.30323448327E+02  0.34101196334E+02  0.00000000000E+00 0.  1.
<mgrwt>
<rscale>  1 0.30000000E+03</rscale>
<asrwt>0</asrwt>
<pdfrwt beam="1">  1        1 0.21399297E+00 0.30000000E+03</pdfrwt>
<pdfrwt beam="2">0</pdfrwt>
<totfact> 0.87962877E+00</totfact>
</mgrwt>
</event>
<event>
 6    1  0.1904828E-004  0.3000000E+03  0.7818608E-02  0.1093470E+00
          1   -1    0    0  502    0  0.00000000000E+00  0.00000000000E+00  0.32135118578E+02  0.32135118578E+02  0.00000000000E+00 0.  1.
         13   -1    0    0    0    0 -0.00000000000E+00 -0.00000000000E+00 -0.10000000000E+04  0.10000000000E+04  0.00000000000E+00 0.  1.
    9000005    2    1    2  501    0 -0.14281787990E+02  0.71694866389E+01 -0.96045932610E+03  0.10145222467E+04  0.32637080278E+03 0.  0.
         13    1    3    3    0    0  0.83516276807E+02  0.50367244515E+01 -0.89010462352E+03  0.89402828696E+03  0.00000000000E+00 0.  1.
          1    1    3    3  501    0 -0.97798064797E+02  0.21327621874E+01 -0.70354702584E+02  0.12049395972E+03  0.00000000000E+00 0.  1.
         21    1    1    2  502  501  0.14281787990E+02 -0.71694866389E+01 -0.74055553201E+01  0.17612871897E+02  0.00000000000E+00 0. -1.
<mgrwt>
<rscale>  1 0.30000000E+03</rscale>
<asrwt>0</asrwt>
<pdfrwt beam="1">  1        1 0.11685522E+00 0.30000000E+03</pdfrwt>
<pdfrwt beam="2">0</pdfrwt>
<totfact> 0.27090553E+01</totfact>
</mgrwt>
</event>
<event>
 6    1  0.1904828E-004  0.3000000E+03  0.7818608E-02  0.1093470E+00
          1   -1    0    0  502    0  0.00000000000E+00  0.00000000000E+00  0.39493200802E+02  0.39493200802E+02  0.00000000000E+00 0.  1.
         13   -1    0    0    0    0 -0.00000000000E+00 -0.00000000000E+00 -0.10000000000E+04  0.10000000000E+04  0.00000000000E+00 0.  1.
    9000005    2    1    2  501    0 -0.25749772542E+02  0.44433488470E+02 -0.86022185349E+03  0.92682352423E+03  0.34114926668E+03 0.  0.
         13    1    3    3    0    0 -0.40482720645E+02 -0.83066382055E+02 -0.75562006247E+03  0.76124933714E+03  0.00000000000E+00 0.  1.
          3    1    3    3  501    0  0.14732948103E+02  0.12749987052E+03 -0.10460179102E+03  0.16557418708E+03  0.00000000000E+00 0.  1.
         21    1    1    2  502  501  0.25749772542E+02 -0.44433488470E+02 -0.10028494571E+03  0.11266967658E+03  0.00000000000E+00 0. -1.
<mgrwt>
<rscale>  1 0.30000000E+03</rscale>
<asrwt>0</asrwt>
<pdfrwt beam="1">  1        1 0.14361194E+00 0.30000000E+03</pdfrwt>
<pdfrwt beam="2">0</pdfrwt>
<totfact> 0.19373800E+01</totfact>
</mgrwt>
</event>
<event>
 6    1  0.1904828E-004  0.3000000E+03  0.7818608E-02  0.1093470E+00
          1   -1    0    0  502    0  0.00000000000E+00  0.00000000000E+00  0.39609200593E+02  0.39609200593E+02  0.00000000000E+00 0.  1.
         13   -1    0    0    0    0 -0.00000000000E+00 -0.00000000000E+00 -0.10000000000E+04  0.10000000000E+04  0.00000000000E+00 0.  1.
    9000005    2    1    2  501    0 -0.14076785296E+02 -0.11010308986E+02 -0.96715166156E+03  0.10205018186E+04  0.32514956956E+03 0.  0.
         13    1    3    3    0    0 -0.84272845350E+00  0.14667248298E+02  0.24425807296E+02  0.28503656360E+02  0.00000000000E+00 0.  1.
          1    1    3    3  501    0 -0.13234056842E+02 -0.25677557284E+02 -0.99157746886E+03  0.99199816227E+03  0.00000000000E+00 0.  1.
         21    1    1    2  502  501  0.14076785296E+02  0.11010308986E+02  0.67608621551E+01  0.19107381959E+02  0.00000000000E+00 0.  1.
<mgrwt>
<rscale>  1 0.30000000E+03</rscale>
<asrwt>0</asrwt>
<pdfrwt beam="1">  1        1 0.14403376E+00 0.30000000E+03</pdfrwt>
<pdfrwt beam="2">0</pdfrwt>
<totfact> 0.19276581E+01</totfact>
</mgrwt>
</event>
<event>
 6    1  0.1904828E-004  0.3000000E+03  0.7818608E-02  0.1093470E+00
          1   -1    0    0  502    0  0.00000000000E+00  0.00000000000E+00  0.25816154874E+02  0.25816154874E+02  0.00000000000E+00 0.  1.
         13   -1    0    0    0    0 -0.00000000000E+00 -0.00000000000E+00 -0.10000000000E+04  0.10000000000E+04  0.00000000000E+00 0.  1.
    9000005    2    1    2  501    0 -0.40285827969E+00  0.99826934530E+01 -0.95726338427E+03  0.10061662577E+04  0.30970556147E+03 0.  0.
         13    1    3    3    0    0  0.11860299446E+03  0.28665813882E+02 -0.79372964043E+03  0.80305363537E+03  0.00000000000E+00 0.  1.
          1    1    3    3  501    0 -0.11900585274E+03 -0.18683120429E+02 -0.16353374384E+03  0.20311262233E+03  0.00000000000E+00 0.  1.
         21    1    1    2  502  501  0.40285827969E+00 -0.99826934530E+01 -0.16920460857E+02  0.19649897175E+02  0.00000000000E+00 0. -1.
<mgrwt>
<rscale>  1 0.30000000E+03</rscale>
<asrwt>0</asrwt>
<pdfrwt beam="1">  1        1 0.93877125E-01 0.30000000E+03</pdfrwt>
<pdfrwt beam="2">0</pdfrwt>
<totfact> 0.37506577E+01</totfact>
</mgrwt>
</event>
<event>
 6    1  0.1904828E-004  0.3000000E+03  0.7818608E-02  0.1093470E+00
          1   -1    0    0  502    0  0.00000000000E+00  0.00000000000E+00  0.47285066052E+02  0.47285066052E+02  0.00000000000E+00 0.  1.
         13   -1    0    0    0    0 -0.00000000000E+00 -0.00000000000E+00 -0.10000000000E+04  0.10000000000E+04  0.00000000000E+00 0.  1.
    9000005    2    1    2  501    0  0.19920083005E+02  0.39058713636E+02 -0.94958949882E+03  0.10033287109E+04  0.32097646788E+03 0.  0.
         13    1    3    3    0    0 -0.15354025228E+02 -0.13938782638E+03 -0.36131057720E+03  0.38756940724E+03  0.00000000000E+00 0.  1.
          1    1    3    3  501    0  0.35274108233E+02  0.17844654002E+03 -0.58827892162E+03  0.61575930361E+03  0.00000000000E+00 0.  1.
         21    1    1    2  502  501 -0.19920083005E+02 -0.39058713636E+02 -0.31254351297E+01  0.43956355201E+02  0.00000000000E+00 0.  1.
<mgrwt>
<rscale>  1 0.30000000E+03</rscale>
<asrwt>0</asrwt>
<pdfrwt beam="1">  1        1 0.17194606E+00 0.30000000E+03</pdfrwt>
<pdfrwt beam="2">0</pdfrwt>
<totfact> 0.13978106E+01</totfact>
</mgrwt>
</event>
<event>
 6    1  0.1904828E-004  0.3000000E+03  0.7818608E-02  0.1093470E+00
          1   -1    0    0  502    0  0.00000000000E+00  0.00000000000E+00  0.37913497549E+02  0.37913497549E+02  0.00000000000E+00 0.  1.
         13   -1    0    0    0    0 -0.00000000000E+00 -0.00000000000E+00 -0.10000000000E+04  0.10000000000E+04  0.00000000000E+00 0.  1.
    9000005    2    1    2  501    0  0.15819172231E+02  0.15146254771E+02 -0.96510908139E+03  0.10158048742E+04  0.31613976054E+03 0.  0.
         13    1    3    3    0    0 -0.93428440393E+02 -0.99340694102E+02 -0.26496463194E+03  0.29799950195E+03  0.00000000000E+00 0.  1.
          1    1    3    3  501    0  0.10924761262E+03  0.11448694887E+03 -0.70014444945E+03  0.71780537224E+03  0.00000000000E+00 0.  1.
         21    1    1    2  502  501 -0.15819172231E+02 -0.15146254771E+02  0.30225789367E+01  0.22108623365E+02  0.00000000000E+00 0. -1.
<mgrwt>
<rscale>  1 0.30000000E+03</rscale>
<asrwt>0</asrwt>
<pdfrwt beam="1">  1        1 0.13786755E+00 0.30000000E+03</pdfrwt>
<pdfrwt beam="2">0</pdfrwt>
<totfact> 0.20761827E+01</totfact>
</mgrwt>
</event>
<event>
 6    1  0.1904828E-004  0.3000000E+03  0.7818608E-02  0.1093470E+00
          1   -1    0    0  502    0  0.00000000000E+00  0.00000000000E+00  0.65257978551E+02  0.65257978551E+02  0.00000000000E+00 0.  1.
         13   -1    0    0    0    0 -0.00000000000E+00 -0.00000000000E+00 -0.10000000000E+04  0.10000000000E+04  0.00000000000E+00 0.  1.
    9000005    2    1    2  501    0  0.46917230013E+02  0.20162635269E+02 -0.95602110799E+03  0.10099356697E+04  0.32153684028E+03 0.  0.
         13    1    3    3    0    0  0.15735015845E+03  0.29900152029E+02 -0.26171994403E+03  0.30683940516E+03  0.00000000000E+00 0.  1.
          3    1    3    3  501    0 -0.11043292844E+03 -0.97375167605E+01 -0.69430116397E+03  0.70309626454E+03  0.00000000000E+00 0.  1.
         21    1    1    2  502  501 -0.46917230013E+02 -0.20162635269E+02  0.21279086546E+02  0.55322308857E+02  0.00000000000E+00 0.  1.
<mgrwt>
<rscale>  1 0.30000000E+03</rscale>
<asrwt>0</asrwt>
<pdfrwt beam="1">  1        1 0.23730224E+00 0.30000000E+03</pdfrwt>
<pdfrwt beam="2">0</pdfrwt>
<totfact> 0.68401912E+00</totfact>
</mgrwt>
</event>
<event>
 6    1  0.1904828E-004  0.3000000E+03  0.7818608E-02  0.1093470E+00
          1   -1    0    0  502    0  0.00000000000E+00  0.00000000000E+00  0.20604131800E+02  0.20604131800E+02  0.00000000000E+00 0.  1.
         13   -1    0    0    0    0 -0.00000000000E+00 -0.00000000000E+00 -0.10000000000E+04  0.10000000000E+04  0.00000000000E+00 0.  1.
    9000005    2    1    2  501    0  0.18762075983E+02 -0.16525441157E+02 -0.91552924539E+03  0.95201804568E+03  0.25984505850E+03 0.  0.
         13    1    3    3    0    0  0.74225172488E+02 -0.59261912947E+02 -0.85260679304E+03  0.85788093235E+03  0.00000000000E+00 0.  1.
          1    1    3    3  501    0 -0.55463096505E+02  0.42736471790E+02 -0.62922452351E+02  0.94137113323E+02  0.00000000000E+00 0.  1.
         21    1    1    2  502  501 -0.18762075983E+02  0.16525441157E+02 -0.63866622808E+02  0.68586086122E+02  0.00000000000E+00 0.  1.
<mgrwt>
<rscale>  1 0.30000000E+03</rscale>
<asrwt>0</asrwt>
<pdfrwt beam="1">  1        1 0.74924274E-01 0.30000000E+03</pdfrwt>
<pdfrwt beam="2">0</pdfrwt>
<totfact> 0.51396257E+01</totfact>
</mgrwt>
</event>
<event>
 6    1  0.1904828E-004  0.3000000E+03  0.7818608E-02  0.1093470E+00
          3   -1    0    0  502    0  0.00000000000E+00  0.00000000000E+00  0.28322583905E+02  0.28322583905E+02  0.00000000000E+00 0.  1.
         13   -1    0    0    0    0 -0.00000000000E+00 -0.00000000000E+00 -0.10000000000E+04  0.10000000000E+04  0.00000000000E+00 0.  1.
    9000005    2    1    2  501    0 -0.10385437334E+02 -0.26779633569E+01 -0.96143433692E+03  0.10134918905E+04  0.32046029250E+03 0.  0.
         13    1    3    3    0    0  0.15265819441E+03  0.17732082053E+02 -0.40006337662E+03  0.42856698003E+03  0.00000000000E+00 0.  1.
          1    1    3    3  501    0 -0.16304363175E+03 -0.20410045410E+02 -0.56137096030E+03  0.58492491046E+03  0.00000000000E+00 0.  1.
         21    1    1    2  502  501  0.10385437334E+02  0.26779633569E+01 -0.10243079171E+02  0.14830693418E+02  0.00000000000E+00 0.  1.
<mgrwt>
<rscale>  1 0.30000000E+03</rscale>
<asrwt>0</asrwt>
<pdfrwt beam="1">  1        3 0.10299143E+00 0.30000000E+03</pdfrwt>
<pdfrwt beam="2">0</pdfrwt>
<totfact> 0.36215143E+00</totfact>
</mgrwt>
</event>
<event>
 6    1  0.1904828E-004  0.3000000E+03  0.7818608E-02  0.1093470E+00
          1   -1    0    0  502    0  0.00000000000E+00  0.00000000000E+00  0.78040612001E+02  0.78040612001E+02  0.00000000000E+00 0.  1.
         13   -1    0    0    0    0 -0.00000000000E+00 -0.00000000000E+00 -0.10000000000E+04  0.10000000000E+04  0.00000000000E+00 0.  1.
    9000005    2    1    2  501    0 -0.53761213309E+02 -0.97347526535E+01 -0.95809442468E+03  0.10125366095E+04  0.32295576408E+03 0.  0.
         13    1    3    3    0    0 -0.26921699134E+02  0.78140467135E+02 -0.90009093013E+03  0.90387742144E+03  0.00000000000E+00 0.  1.
          3    1    3    3  501    0 -0.26839514174E+02 -0.87875219789E+02 -0.58003494548E+02  0.10865918808E+03  0.00000000000E+00 0.  1.
         21    1    1    2  502  501  0.53761213309E+02  0.97347526535E+01  0.36135036677E+02  0.65504002483E+02  0.00000000000E+00 0.  1.
<mgrwt>
<rscale>  1 0.30000000E+03</rscale>
<asrwt>0</asrwt>
<pdfrwt beam="1">  1        1 0.28378464E+00 0.30000000E+03</pdfrwt>
<pdfrwt beam="2">0</pdfrwt>
<totfact> 0.41451817E+00</totfact>
</mgrwt>
</event>
<event>
 6    1  0.1904828E-004  0.3000000E+03  0.7818608E-02  0.1093470E+00
          1   -1    0    0  502    0  0.00000000000E+00  0.00000000000E+00  0.31461652509E+02  0.31461652509E+02  0.00000000000E+00 0.  1.
         13   -1    0    0    0    0 -0.00000000000E+00 -0.00000000000E+00 -0.10000000000E+04  0.10000000000E+04  0.00000000000E+00 0.  1.
    9000005    2    1    2  501    0  0.51746811780E+00 -0.17218598892E+02 -0.95217315744E+03  0.10077010261E+04  0.32944026525E+03 0.  0.
         13    1    3    3    0    0  0.78584746273E+02  0.62218933722E+02 -0.79457910186E+02  0.12790745698E+03  0.00000000000E+00 0.  1.
          1    1    3    3  501    0 -0.78067278155E+02 -0.79437532614E+02 -0.87271524725E+03  0.87979356914E+03  0.00000000000E+00 0.  1.
         21    1    1    2  502  501 -0.51746811780E+00  0.17218598892E+02 -0.16365190053E+02  0.23760626391E+02  0.00000000000E+00 0. -1.
<mgrwt>
<rscale>  1 0.30000000E+03</rscale>
<asrwt>0</asrwt>
<pdfrwt beam="1">  1        1 0.11440625E+00 0.30000000E+03</pdfrwt>
<pdfrwt beam="2">0</pdfrwt>
<totfact> 0.27987314E+01</totfact>
</mgrwt>
</event>
<event>
 6    1  0.1904828E-004  0.3000000E+03  0.7818608E-02  0.1093470E+00
          1   -1    0    0  502    0  0.00000000000E+00  0.00000000000E+00  0.28917969441E+02  0.28917969441E+02  0.00000000000E+00 0.  1.
         13   -1    0    0    0    0 -0.00000000000E+00 -0.00000000000E+00 -0.10000000000E+04  0.10000000000E+04  0.00000000000E+00 0.  1.
    9000005    2    1    2  501    0 -0.45654906723E+01 -0.79587022834E+01 -0.95574640796E+03  0.10110471562E+04  0.32966797083E+03 0.  0.
         13    1    3    3    0    0  0.42783674722E+02  0.11627040549E+03 -0.15066256375E+03  0.19506013978E+03  0.00000000000E+00 0.  1.
          1    1    3    3  501    0 -0.47349165395E+02 -0.12422910777E+03 -0.80508384421E+03  0.81598701638E+03  0.00000000000E+00 0.  1.
         21    1    1    2  502  501  0.45654906723E+01  0.79587022834E+01 -0.15335622595E+02  0.17870813286E+02  0.00000000000E+00 0. -1.
<mgrwt>
<rscale>  1 0.30000000E+03</rscale>
<asrwt>0</asrwt>
<pdfrwt beam="1">  1        1 0.10515647E+00 0.30000000E+03</pdfrwt>
<pdfrwt beam="2">0</pdfrwt>
<totfact> 0.31782340E+01</totfact>
</mgrwt>
</event>
<event>
 6    1  0.1904828E-004  0.3000000E+03  0.7818608E-02  0.1093470E+00
          1   -1    0    0  502    0  0.00000000000E+00  0.00000000000E+00  0.30817445566E+02  0.30817445566E+02  0.00000000000E+00 0.  1.
         13   -1    0    0    0    0 -0.00000000000E+00 -0.00000000000E+00 -0.10000000000E+04  0.10000000000E+04  0.00000000000E+00 0.  1.
    9000005    2    1    2  501    0 -0.10559818997E+02  0.86533496514E+01 -0.95981738142E+03  0.10142615794E+04  0.32755267610E+03 0.  0.
         13    1    3    3    0    0  0.82104261673E+02  0.14430809549E+02 -0.89992052013E+03  0.90377336794E+03  0.00000000000E+00 0.  1.
          3    1    3    3  501    0 -0.92664080670E+02 -0.57774598979E+01 -0.59896861297E+02  0.11048821151E+03  0.00000000000E+00 0.  1.
         21    1    1    2  502  501  0.10559818997E+02 -0.86533496514E+01 -0.93651730125E+01  0.16555866120E+02  0.00000000000E+00 0.  1.
<mgrwt>
<rscale>  1 0.30000000E+03</rscale>
<asrwt>0</asrwt>
<pdfrwt beam="1">  1        1 0.11206367E+00 0.30000000E+03</pdfrwt>
<pdfrwt beam="2">0</pdfrwt>
<totfact> 0.28884780E+01</totfact>
</mgrwt>
</event>
<event>
 6    1  0.1904828E-004  0.3000000E+03  0.7818608E-02  0.1093470E+00
          1   -1    0    0  502    0  0.00000000000E+00  0.00000000000E+00  0.33706334268E+02  0.33706334268E+02  0.00000000000E+00 0.  1.
         13   -1    0    0    0    0 -0.00000000000E+00 -0.00000000000E+00 -0.10000000000E+04  0.10000000000E+04  0.00000000000E+00 0.  1.
    9000005    2    1    2  501    0  0.24806265767E+02 -0.12864238702E+01 -0.94719488723E+03  0.10023731402E+04  0.32704243176E+03 0.  0.
         13    1    3    3    0    0  0.22578288033E+02 -0.16382902658E+03 -0.48632929046E+03  0.51367879827E+03  0.00000000000E+00 0.  1.
          3    1    3    3  501    0  0.22279777340E+01  0.16254260271E+03 -0.46086559678E+03  0.48869434197E+03  0.00000000000E+00 0.  1.
         21    1    1    2  502  501 -0.24806265767E+02  0.12864238702E+01 -0.19098778498E+02  0.31333194025E+02  0.00000000000E+00 0.  1.
<mgrwt>
<rscale>  1 0.30000000E+03</rscale>
<asrwt>0</asrwt>
<pdfrwt beam="1">  1        1 0.12256875E+00 0.30000000E+03</pdfrwt>
<pdfrwt beam="2">0</pdfrwt>
<totfact> 0.25145611E+01</totfact>
</mgrwt>
</event>
<event>
 6    1  0.1904828E-004  0.3000000E+03  0.7818608E-02  0.1093470E+00
          1   -1    0    0  502    0  0.00000000000E+00  0.00000000000E+00  0.39595893846E+02  0.39595893846E+02  0.00000000000E+00 0.  1.
         13   -1    0    0    0    0 -0.00000000000E+00 -0.00000000000E+00 -0.10000000000E+04  0.10000000000E+04  0.00000000000E+00 0.  1.
    9000005    2    1    2  501    0  0.11340372046E+02 -0.38210530545E+01 -0.95565786400E+03  0.10267222270E+04  0.37514447059E+03 0.  0.
         13    1    3    3    0    0 -0.14684813294E+03 -0.10389963396E+03 -0.57582475083E+03  0.60326913708E+03  0.00000000000E+00 0.  1.
          1    1    3    3  501    0  0.15818850498E+03  0.10007858091E+03 -0.37983311317E+03  0.42345308987E+03  0.00000000000E+00 0.  1.
         21    1    1    2  502  501 -0.11340372046E+02  0.38210530545E+01 -0.47462421536E+01  0.12873666889E+02  0.00000000000E+00 0.  1.
<mgrwt>
<rscale>  1 0.30000000E+03</rscale>
<asrwt>0</asrwt>
<pdfrwt beam="1">  1        1 0.14398537E+00 0.30000000E+03</pdfrwt>
<pdfrwt beam="2">0</pdfrwt>
<totfact> 0.19287702E+01</totfact>
</mgrwt>
</event>
<event>
 6    1  0.1904828E-004  0.3000000E+03  0.7818608E-02  0.1093470E+00
          3   -1    0    0  502    0  0.00000000000E+00  0.00000000000E+00  0.24682814875E+02  0.24682814875E+02  0.00000000000E+00 0.  1.
         13   -1    0    0    0    0 -0.00000000000E+00 -0.00000000000E+00 -0.10000000000E+04  0.10000000000E+04  0.00000000000E+00 0.  1.
    9000005    2    1    2  501    0 -0.83205996455E+01  0.63048950409E+01 -0.94310618396E+03  0.99082232645E+03  0.30359615330E+03 0.  0.
         13    1    3    3    0    0 -0.10227528760E+03  0.25306249730E+02 -0.11036171073E+03  0.15257898913E+03  0.00000000000E+00 0.  1.
          1    1    3    3  501    0  0.93954687959E+02 -0.19001354690E+02 -0.83274447323E+03  0.83824333732E+03  0.00000000000E+00 0.  1.
         21    1    1    2  502  501  0.83205996455E+01 -0.63048950409E+01 -0.32211001167E+02  0.33860488421E+02  0.00000000000E+00 0. -1.
<mgrwt>
<rscale>  1 0.30000000E+03</rscale>
<asrwt>0</asrwt>
<pdfrwt beam="1">  1        3 0.89755880E-01 0.30000000E+03</pdfrwt>
<pdfrwt beam="2">0</pdfrwt>
<totfact> 0.51357225E+00</totfact>
</mgrwt>
</event>
<event>
 6    1  0.1904828E-004  0.3000000E+03  0.7818608E-02  0.1093470E+00
          1   -1    0    0  502    0  0.00000000000E+00  0.00000000000E+00  0.29943779102E+02  0.29943779102E+02  0.00000000000E+00 0.  1.
         13   -1    0    0    0    0 -0.00000000000E+00 -0.00000000000E+00 -0.10000000000E+04  0.10000000000E+04  0.00000000000E+00 0.  1.
    9000005    2    1    2  501    0 -0.89637966177E+01  0.14084932868E+02 -0.95634046680E+03  0.10083369076E+04  0.31918254322E+03 0.  0.
         13    1    3    3    0    0 -0.10628626698E+03  0.48749611568E+02 -0.85724169033E+03  0.86518010311E+03  0.00000000000E+00 0.  1.
          3    1    3    3  501    0  0.97322470365E+02 -0.34664678701E+02 -0.99098776476E+02  0.14315680454E+03  0.00000000000E+00 0.  1.
         21    1    1    2  502  501  0.89637966177E+01 -0.14084932868E+02 -0.13715754096E+02  0.21606871456E+02  0.00000000000E+00 0.  1.
<mgrwt>
<rscale>  1 0.30000000E+03</rscale>
<asrwt>0</asrwt>
<pdfrwt beam="1">  1        1 0.10888670E+00 0.30000000E+03</pdfrwt>
<pdfrwt beam="2">0</pdfrwt>
<totfact> 0.30168560E+01</totfact>
</mgrwt>
</event>
<event>
 6    1  0.1904828E-004  0.3000000E+03  0.7818608E-02  0.1093470E+00
          1   -1    0    0  502    0  0.00000000000E+00  0.00000000000E+00  0.29170535453E+02  0.29170535453E+02  0.00000000000E+00 0.  1.
         13   -1    0    0    0    0 -0.00000000000E+00 -0.00000000000E+00 -0.10000000000E+04  0.10000000000E+04  0.00000000000E+00 0.  1.
    9000005    2    1    2  501    0 -0.91364007661E+01 -0.62222794937E+01 -0.96357816868E+03  0.10159504041E+04  0.32179208484E+03 0.  0.
         13    1    3    3    0    0  0.12498066656E+02  0.15068121739E+03 -0.33189217617E+03  0.36471008699E+03  0.00000000000E+00 0.  1.
          3    1    3    3  501    0 -0.21634467422E+02 -0.15690349688E+03 -0.63168599251E+03  0.65124031712E+03  0.00000000000E+00 0.  1.
         21    1    1    2  502  501  0.91364007661E+01  0.62222794937E+01 -0.72512958651E+01  0.13220131345E+02  0.00000000000E+00 0.  1.
<mgrwt>
<rscale>  1 0.30000000E+03</rscale>
<asrwt>0</asrwt>
<pdfrwt beam="1">  1        1 0.10607490E+00 0.30000000E+03</pdfrwt>
<pdfrwt beam="2">0</pdfrwt>
<totfact> 0.31373697E+01</totfact>
</mgrwt>
</event>
<event>
 6    1  0.1904828E-004  0.3000000E+03  0.7818608E-02  0.1093470E+00
          1   -1    0    0  502    0  0.00000000000E+00  0.00000000000E+00  0.37685513408E+02  0.37685513408E+02  0.00000000000E+00 0.  1.
         13   -1    0    0    0    0 -0.00000000000E+00 -0.00000000000E+00 -0.10000000000E+04  0.10000000000E+04  0.00000000000E+00 0.  1.
    9000005    2    1    2  501    0  0.45905486230E+02  0.25135294687E+02 -0.90524684656E+03  0.96025288305E+03  0.31602950732E+03 0.  0.
         13    1    3    3    0    0 -0.79462640497E+02  0.12244395087E+03 -0.58369526465E+03  0.60167017071E+03  0.00000000000E+00 0.  1.
          1    1    3    3  501    0  0.12536812673E+03 -0.97308656180E+02 -0.32155158191E+03  0.35858271235E+03  0.00000000000E+00 0.  1.
         21    1    1    2  502  501 -0.45905486230E+02 -0.25135294687E+02 -0.57067640029E+02  0.77432630354E+02  0.00000000000E+00 0. -1.
<mgrwt>
<rscale>  1 0.30000000E+03</rscale>
<asrwt>0</asrwt>
<pdfrwt beam="1">  1        1 0.13703852E+00 0.30000000E+03</pdfrwt>
<pdfrwt beam="2">0</pdfrwt>
<totfact> 0.20972501E+01</totfact>
</mgrwt>
</event>
<event>
 6    1  0.1904828E-004  0.3000000E+03  0.7818608E-02  0.1093470E+00
          1   -1    0    0  502    0  0.00000000000E+00  0.00000000000E+00  0.37136259075E+02  0.37136259075E+02  0.00000000000E+00 0.  1.
         13   -1    0    0    0    0 -0.00000000000E+00 -0.00000000000E+00 -0.10000000000E+04  0.10000000000E+04  0.00000000000E+00 0.  1.
    9000005    2    1    2  501    0  0.57014762444E+01 -0.54005797167E+02 -0.87351958213E+03  0.93258238937E+03  0.32206260206E+03 0.  0.
         13    1    3    3    0    0  0.41036631362E+02 -0.34505999897E+02 -0.88806549180E+03  0.88968252027E+03  0.00000000000E+00 0.  1.
          3    1    3    3  501    0 -0.35335155117E+02 -0.19499797269E+02  0.14545909674E+02  0.42899869102E+02  0.00000000000E+00 0.  1.
         21    1    1    2  502  501 -0.57014762444E+01  0.54005797167E+02 -0.89344158795E+02  0.10455386970E+03  0.00000000000E+00 0. -1.
<mgrwt>
<rscale>  1 0.30000000E+03</rscale>
<asrwt>0</asrwt>
<pdfrwt beam="1">  1        1 0.13504123E+00 0.30000000E+03</pdfrwt>
<pdfrwt beam="2">0</pdfrwt>
<totfact> 0.21491615E+01</totfact>
</mgrwt>
</event>
<event>
 6    1  0.1904828E-004  0.3000000E+03  0.7818608E-02  0.1093470E+00
          1   -1    0    0  502    0  0.00000000000E+00  0.00000000000E+00  0.36222079897E+02  0.36222079897E+02  0.00000000000E+00 0.  1.
         13   -1    0    0    0    0 -0.00000000000E+00 -0.00000000000E+00 -0.10000000000E+04  0.10000000000E+04  0.00000000000E+00 0.  1.
    9000005    2    1    2  501    0 -0.20909776139E+01  0.43902364592E+02 -0.91107555025E+03  0.96759752458E+03  0.32288468764E+03 0.  0.
         13    1    3    3    0    0  0.93910382380E+02  0.15328868011E+03 -0.47523345531E+03  0.50809784138E+03  0.00000000000E+00 0.  1.
          1    1    3    3  501    0 -0.96001359994E+02 -0.10938631552E+03 -0.43584209494E+03  0.45949968320E+03  0.00000000000E+00 0.  1.
         21    1    1    2  502  501  0.20909776139E+01 -0.43902364592E+02 -0.52702369855E+02  0.68624555317E+02  0.00000000000E+00 0. -1.
<mgrwt>
<rscale>  1 0.30000000E+03</rscale>
<asrwt>0</asrwt>
<pdfrwt beam="1">  1        1 0.13171693E+00 0.30000000E+03</pdfrwt>
<pdfrwt beam="2">0</pdfrwt>
<totfact> 0.22394110E+01</totfact>
</mgrwt>
</event>
<event>
 6    1  0.1904828E-004  0.3000000E+03  0.7818608E-02  0.1093470E+00
          1   -1    0    0  502    0  0.00000000000E+00  0.00000000000E+00  0.71432273829E+02  0.71432273829E+02  0.00000000000E+00 0.  1.
         13   -1    0    0    0    0 -0.00000000000E+00 -0.00000000000E+00 -0.10000000000E+04  0.10000000000E+04  0.00000000000E+00 0.  1.
    9000005    2    1    2  501    0 -0.39373102820E+01  0.34378802897E+02 -0.96720950599E+03  0.10195613605E+04  0.32064580906E+03 0.  0.
         13    1    3    3    0    0 -0.16195526040E+03  0.15313757912E+02 -0.45611935932E+03  0.48426117695E+03  0.00000000000E+00 0.  1.
          3    1    3    3  501    0  0.15801795012E+03  0.19065044985E+02 -0.51109014667E+03  0.53530018356E+03  0.00000000000E+00 0.  1.
         21    1    1    2  502  501  0.39373102820E+01 -0.34378802897E+02  0.38641779819E+02  0.51870913319E+02  0.00000000000E+00 0.  1.
<mgrwt>
<rscale>  1 0.30000000E+03</rscale>
<asrwt>0</asrwt>
<pdfrwt beam="1">  1        1 0.25975427E+00 0.30000000E+03</pdfrwt>
<pdfrwt beam="2">0</pdfrwt>
<totfact> 0.53725630E+00</totfact>
</mgrwt>
</event>
<event>
 6    1  0.1904828E-004  0.3000000E+03  0.7818608E-02  0.1093470E+00
          1   -1    0    0  502    0  0.00000000000E+00  0.00000000000E+00  0.30088438970E+02  0.30088438970E+02  0.00000000000E+00 0.  1.
         13   -1    0    0    0    0 -0.00000000000E+00 -0.00000000000E+00 -0.10000000000E+04  0.10000000000E+04  0.00000000000E+00 0.  1.
    9000005    2    1    2  501    0  0.15438326904E+02  0.47786810051E+01 -0.94864692853E+03  0.10033795954E+04  0.32646353505E+03 0.  0.
         13    1    3    3    0    0  0.14375898766E+03 -0.83008686883E+02 -0.57998323029E+03  0.60327243932E+03  0.00000000000E+00 0.  1.
          1    1    3    3  501    0 -0.12832066076E+03  0.87787367888E+02 -0.36866369824E+03  0.40010715607E+03  0.00000000000E+00 0.  1.
         21    1    1    2  502  501 -0.15438326904E+02 -0.47786810051E+01 -0.21264632501E+02  0.26708843576E+02  0.00000000000E+00 0.  1.
<mgrwt>
<rscale>  1 0.30000000E+03</rscale>
<asrwt>0</asrwt>
<pdfrwt beam="1">  1        1 0.10941274E+00 0.30000000E+03</pdfrwt>
<pdfrwt beam="2">0</pdfrwt>
<totfact> 0.29950472E+01</totfact>
</mgrwt>
</event>
<event>
 6    1  0.1904828E-004  0.3000000E+03  0.7818608E-02  0.1093470E+00
          3   -1    0    0  502    0  0.00000000000E+00  0.00000000000E+00  0.26047286138E+02  0.26047286138E+02  0.00000000000E+00 0.  1.
         13   -1    0    0    0    0 -0.00000000000E+00 -0.00000000000E+00 -0.10000000000E+04  0.10000000000E+04  0.00000000000E+00 0.  1.
    9000005    2    1    2  501    0 -0.10401828350E+02 -0.78694402147E+01 -0.95367730921E+03  0.10019388197E+04  0.30693787988E+03 0.  0.
         13    1    3    3    0    0 -0.44313980552E+02  0.12022186849E+03 -0.20589269756E+03  0.24250531839E+03  0.00000000000E+00 0.  1.
          1    1    3    3  501    0  0.33912152203E+02 -0.12809130871E+03 -0.74778461165E+03  0.75943350127E+03  0.00000000000E+00 0.  1.
         21    1    1    2  502  501  0.10401828350E+02  0.78694402147E+01 -0.20275404649E+02  0.24108466480E+02  0.00000000000E+00 0. -1.
<mgrwt>
<rscale>  1 0.30000000E+03</rscale>
<asrwt>0</asrwt>
<pdfrwt beam="1">  1        3 0.94717604E-01 0.30000000E+03</pdfrwt>
<pdfrwt beam="2">0</pdfrwt>
<totfact> 0.45009721E+00</totfact>
</mgrwt>
</event>
<event>
 6    1  0.1904828E-004  0.3000000E+03  0.7818608E-02  0.1093470E+00
          1   -1    0    0  502    0  0.00000000000E+00  0.00000000000E+00  0.28373522829E+02  0.28373522829E+02  0.00000000000E+00 0.  1.
         13   -1    0    0    0    0 -0.00000000000E+00 -0.00000000000E+00 -0.10000000000E+04  0.10000000000E+04  0.00000000000E+00 0.  1.
    9000005    2    1    2  501    0  0.52494467849E+01  0.73698938094E+01 -0.95524314321E+03  0.10096576029E+04  0.32685951181E+03 0.  0.
         13    1    3    3    0    0 -0.13140480531E+03 -0.52104759100E+02 -0.69964689881E+03  0.71378421935E+03  0.00000000000E+00 0.  1.
          1    1    3    3  501    0  0.13665425210E+03  0.59474652910E+02 -0.25559624441E+03  0.29587338358E+03  0.00000000000E+00 0.  1.
         21    1    1    2  502  501 -0.52494467849E+01 -0.73698938094E+01 -0.16383333957E+02  0.18715919904E+02  0.00000000000E+00 0. -1.
<mgrwt>
<rscale>  1 0.30000000E+03</rscale>
<asrwt>0</asrwt>
<pdfrwt beam="1">  1        1 0.10317666E+00 0.30000000E+03</pdfrwt>
<pdfrwt beam="2">0</pdfrwt>
<totfact> 0.32689857E+01</totfact>
</mgrwt>
</event>
<event>
 6    1  0.1904828E-004  0.3000000E+03  0.7818608E-02  0.1093470E+00
          1   -1    0    0  502    0  0.00000000000E+00  0.00000000000E+00  0.25189215055E+02  0.25189215055E+02  0.00000000000E+00 0.  1.
         13   -1    0    0    0    0 -0.00000000000E+00 -0.00000000000E+00 -0.10000000000E+04  0.10000000000E+04  0.00000000000E+00 0.  1.
    9000005    2    1    2  501    0  0.84087612090E+01 -0.95858818641E+01 -0.95956118849E+03  0.10053109207E+04  0.29954928866E+03 0.  0.
         13    1    3    3    0    0  0.10909007714E+03 -0.11143240845E+03 -0.46661092423E+03  0.49197924874E+03  0.00000000000E+00 0.  1.
          1    1    3    3  501    0 -0.10068131593E+03  0.10184652658E+03 -0.49295026426E+03  0.51333167191E+03  0.00000000000E+00 0.  1.
         21    1    1    2  502  501 -0.84087612090E+01  0.95858818641E+01 -0.15249596458E+02  0.19878294401E+02  0.00000000000E+00 0. -1.
<mgrwt>
<rscale>  1 0.30000000E+03</rscale>
<asrwt>0</asrwt>
<pdfrwt beam="1">  1        1 0.91597339E-01 0.30000000E+03</pdfrwt>
<pdfrwt beam="2">0</pdfrwt>
<totfact> 0.38848303E+01</totfact>
</mgrwt>
</event>
<event>
 6    1  0.1904828E-004  0.3000000E+03  0.7818608E-02  0.1093470E+00
          1   -1    0    0  502    0  0.00000000000E+00  0.00000000000E+00  0.30147577717E+02  0.30147577717E+02  0.00000000000E+00 0.  1.
         13   -1    0    0    0    0 -0.00000000000E+00 -0.00000000000E+00 -0.10000000000E+04  0.10000000000E+04  0.00000000000E+00 0.  1.
    9000005    2    1    2  501    0  0.77323736019E+01 -0.53739680292E+01 -0.95938489668E+03  0.10160678680E+04  0.33449344274E+03 0.  0.
         13    1    3    3    0    0 -0.14130842107E+03 -0.38259593233E+02 -0.24371460872E+03  0.28430384598E+03  0.00000000000E+00 0.  1.
          1    1    3    3  501    0  0.14904079467E+03  0.32885625203E+02 -0.71567028797E+03  0.73176402201E+03  0.00000000000E+00 0.  1.
         21    1    1    2  502  501 -0.77323736019E+01  0.53739680292E+01 -0.10467525598E+02  0.14079709729E+02  0.00000000000E+00 0. -1.
<mgrwt>
<rscale>  1 0.30000000E+03</rscale>
<asrwt>0</asrwt>
<pdfrwt beam="1">  1        1 0.10962779E+00 0.30000000E+03</pdfrwt>
<pdfrwt beam="2">0</pdfrwt>
<totfact> 0.29861961E+01</totfact>
</mgrwt>
</event>
<event>
 6    1  0.1904828E-004  0.3000000E+03  0.7818608E-02  0.1093470E+00
          1   -1    0    0  502    0  0.00000000000E+00  0.00000000000E+00  0.22478290483E+02  0.22478290483E+02  0.00000000000E+00 0.  1.
         13   -1    0    0    0    0 -0.00000000000E+00 -0.00000000000E+00 -0.10000000000E+04  0.10000000000E+04  0.00000000000E+00 0.  1.
    9000005    2    1    2  501    0  0.21155675148E+02 -0.11248032438E+02 -0.97406611773E+03  0.99827040046E+03  0.21717483717E+03 0.  0.
         13    1    3    3    0    0  0.73622021670E+02 -0.80369889756E+02 -0.75188364751E+03  0.75974241730E+03  0.00000000000E+00 0.  1.
          3    1    3    3  501    0 -0.52466346522E+02  0.69121857318E+02 -0.22218247022E+03  0.23852798316E+03  0.00000000000E+00 0.  1.
         21    1    1    2  502  501 -0.21155675148E+02  0.11248032438E+02 -0.34555917858E+01  0.24207890021E+02  0.00000000000E+00 0.  1.
<mgrwt>
<rscale>  1 0.30000000E+03</rscale>
<asrwt>0</asrwt>
<pdfrwt beam="1">  1        1 0.81739410E-01 0.30000000E+03</pdfrwt>
<pdfrwt beam="2">0</pdfrwt>
<totfact> 0.45587043E+01</totfact>
</mgrwt>
</event>
<event>
 6    1  0.1904828E-004  0.3000000E+03  0.7818608E-02  0.1093470E+00
          1   -1    0    0  502    0  0.00000000000E+00  0.00000000000E+00  0.44578559255E+02  0.44578559255E+02  0.00000000000E+00 0.  1.
         13   -1    0    0    0    0 -0.00000000000E+00 -0.00000000000E+00 -0.10000000000E+04  0.10000000000E+04  0.00000000000E+00 0.  1.
    9000005    2    1    2  501    0 -0.48222983775E+02 -0.94659979249E+01 -0.93387156146E+03  0.99091797243E+03  0.32769997483E+03 0.  0.
         13    1    3    3    0    0  0.13734095549E+03  0.29382017074E+02 -0.44180909929E+03  0.46359585977E+03  0.00000000000E+00 0.  1.
          1    1    3    3  501    0 -0.18556393926E+03 -0.38848014999E+02 -0.49206246217E+03  0.52732211266E+03  0.00000000000E+00 0.  1.
         21    1    1    2  502  501  0.48222983775E+02  0.94659979249E+01 -0.21549879281E+02  0.53660586821E+02  0.00000000000E+00 0.  1.
<mgrwt>
<rscale>  1 0.30000000E+03</rscale>
<asrwt>0</asrwt>
<pdfrwt beam="1">  1        1 0.16210419E+00 0.30000000E+03</pdfrwt>
<pdfrwt beam="2">0</pdfrwt>
<totfact> 0.15623189E+01</totfact>
</mgrwt>
</event>
<event>
 6    1  0.1904828E-004  0.3000000E+03  0.7818608E-02  0.1093470E+00
          1   -1    0    0  502    0  0.00000000000E+00  0.00000000000E+00  0.84928212043E+02  0.84928212043E+02  0.00000000000E+00 0.  1.
         13   -1    0    0    0    0 -0.00000000000E+00 -0.00000000000E+00 -0.10000000000E+04  0.10000000000E+04  0.00000000000E+00 0.  1.
    9000005    2    1    2  501    0  0.13971807819E+02 -0.40519897077E+02 -0.96509000506E+03  0.10190579189E+04  0.32441216189E+03 0.  0.
         13    1    3    3    0    0  0.10137919684E+03 -0.14778339508E+03 -0.41913630414E+03  0.45584308140E+03  0.00000000000E+00 0.  1.
          3    1    3    3  501    0 -0.87407389021E+02  0.10726349800E+03 -0.54595370092E+03  0.56321483753E+03  0.00000000000E+00 0.  1.
         21    1    1    2  502  501 -0.13971807819E+02  0.40519897077E+02  0.50018217105E+02  0.65870293116E+02  0.00000000000E+00 0.  1.
<mgrwt>
<rscale>  1 0.30000000E+03</rscale>
<asrwt>0</asrwt>
<pdfrwt beam="1">  1        1 0.30883051E+00 0.30000000E+03</pdfrwt>
<pdfrwt beam="2">0</pdfrwt>
<totfact> 0.31533446E+00</totfact>
</mgrwt>
</event>
<event>
 6    1  0.1904828E-004  0.3000000E+03  0.7818608E-02  0.1093470E+00
          1   -1    0    0  502    0  0.00000000000E+00  0.00000000000E+00  0.33110901249E+02  0.33110901249E+02  0.00000000000E+00 0.  1.
         13   -1    0    0    0    0 -0.00000000000E+00 -0.00000000000E+00 -0.10000000000E+04  0.10000000000E+04  0.00000000000E+00 0.  1.
    9000005    2    1    2  501    0 -0.28779645645E+01 -0.99689851012E+01 -0.97037670189E+03  0.10221643621E+04  0.32106288514E+03 0.  0.
         13    1    3    3    0    0 -0.11975640921E+03  0.52358231580E+02 -0.18992843847E+03  0.23055540267E+03  0.00000000000E+00 0.  1.
          3    1    3    3  501    0  0.11687844464E+03 -0.62327216681E+02 -0.78044826342E+03  0.79160895942E+03  0.00000000000E+00 0.  1.
         21    1    1    2  502  501  0.28779645645E+01  0.99689851012E+01  0.34876031363E+01  0.10946539162E+02  0.00000000000E+00 0.  1.
<mgrwt>
<rscale>  1 0.30000000E+03</rscale>
<asrwt>0</asrwt>
<pdfrwt beam="1">  1        1 0.12040353E+00 0.30000000E+03</pdfrwt>
<pdfrwt beam="2">0</pdfrwt>
<totfact> 0.25859925E+01</totfact>
</mgrwt>
</event>
<event>
 6    1  0.1904828E-004  0.3000000E+03  0.7818608E-02  0.1093470E+00
          1   -1    0    0  502    0  0.00000000000E+00  0.00000000000E+00  0.24845792778E+02  0.24845792778E+02  0.00000000000E+00 0.  1.
         13   -1    0    0    0    0 -0.00000000000E+00 -0.00000000000E+00 -0.10000000000E+04  0.10000000000E+04  0.00000000000E+00 0.  1.
    9000005    2    1    2  501    0  0.82136792007E+01  0.40099624288E+01 -0.95631676700E+03  0.10039079448E+04  0.30529634525E+03 0.  0.
         13    1    3    3    0    0  0.10973511040E+03  0.94468210123E+02 -0.29333856401E+03  0.32712925628E+03  0.00000000000E+00 0.  1.
          3    1    3    3  501    0 -0.10152143120E+03 -0.90458247694E+02 -0.66297820300E+03  0.67677868851E+03  0.00000000000E+00 0.  1.
         21    1    1    2  502  501 -0.82136792007E+01 -0.40099624288E+01 -0.18837440219E+02  0.20937847996E+02  0.00000000000E+00 0.  1.
<mgrwt>
<rscale>  1 0.30000000E+03</rscale>
<asrwt>0</asrwt>
<pdfrwt beam="1">  1        1 0.90348528E-01 0.30000000E+03</pdfrwt>
<pdfrwt beam="2">0</pdfrwt>
<totfact> 0.39614079E+01</totfact>
</mgrwt>
</event>
<event>
 6    1  0.1904828E-004  0.3000000E+03  0.7818608E-02  0.1093470E+00
          1   -1    0    0  502    0  0.00000000000E+00  0.00000000000E+00  0.30300428667E+02  0.30300428667E+02  0.00000000000E+00 0.  1.
         13   -1    0    0    0    0 -0.00000000000E+00 -0.00000000000E+00 -0.10000000000E+04  0.10000000000E+04  0.00000000000E+00 0.  1.
    9000005    2    1    2  501    0  0.16031497371E+02  0.16884792277E+02 -0.96521784163E+03  0.10065898610E+04  0.28466745746E+03 0.  0.
         13    1    3    3    0    0  0.11148452140E+03  0.28482847594E+02 -0.84428009816E+03  0.85208506340E+03  0.00000000000E+00 0.  1.
          1    1    3    3  501    0 -0.95453024034E+02 -0.11598055317E+02 -0.12093774347E+03  0.15450479759E+03  0.00000000000E+00 0.  1.
         21    1    1    2  502  501 -0.16031497371E+02 -0.16884792277E+02 -0.44817297033E+01  0.23710567672E+02  0.00000000000E+00 0.  1.
<mgrwt>
<rscale>  1 0.30000000E+03</rscale>
<asrwt>0</asrwt>
<pdfrwt beam="1">  1        1 0.11018361E+00 0.30000000E+03</pdfrwt>
<pdfrwt beam="2">0</pdfrwt>
<totfact> 0.29634910E+01</totfact>
</mgrwt>
</event>
<event>
 6    1  0.1904828E-004  0.3000000E+03  0.7818608E-02  0.1093470E+00
          1   -1    0    0  502    0  0.00000000000E+00  0.00000000000E+00  0.27687447147E+02  0.27687447147E+02  0.00000000000E+00 0.  1.
         13   -1    0    0    0    0 -0.00000000000E+00 -0.00000000000E+00 -0.10000000000E+04  0.10000000000E+04  0.00000000000E+00 0.  1.
    9000005    2    1    2  501    0  0.33882442162E+01  0.96690740229E+01 -0.95735331463E+03  0.10095559828E+04  0.32027010814E+03 0.  0.
         13    1    3    3    0    0 -0.27522276923E+02 -0.47347923000E+02 -0.49965266433E+01  0.54993334305E+02  0.00000000000E+00 0.  1.
          3    1    3    3  501    0  0.30910521139E+02  0.57016997023E+02 -0.95235678799E+03  0.95456264849E+03  0.00000000000E+00 0.  1.
         21    1    1    2  502  501 -0.33882442162E+01 -0.96690740229E+01 -0.14959238222E+02  0.18131464351E+02  0.00000000000E+00 0.  1.
<mgrwt>
<rscale>  1 0.30000000E+03</rscale>
<asrwt>0</asrwt>
<pdfrwt beam="1">  1        1 0.10068184E+00 0.30000000E+03</pdfrwt>
<pdfrwt beam="2">0</pdfrwt>
<totfact> 0.33888221E+01</totfact>
</mgrwt>
</event>
<event>
 6    1  0.1904828E-004  0.3000000E+03  0.7818608E-02  0.1093470E+00
          1   -1    0    0  502    0  0.00000000000E+00  0.00000000000E+00  0.30258838220E+02  0.30258838220E+02  0.00000000000E+00 0.  1.
         13   -1    0    0    0    0 -0.00000000000E+00 -0.00000000000E+00 -0.10000000000E+04  0.10000000000E+04  0.00000000000E+00 0.  1.
    9000005    2    1    2  501    0 -0.12599104089E+02  0.12970913487E+02 -0.94518808302E+03  0.99976563082E+03  0.32530573662E+03 0.  0.
         13    1    3    3    0    0  0.15178906544E+03  0.32829085890E+02 -0.54445522553E+03  0.56617061198E+03  0.00000000000E+00 0.  1.
          1    1    3    3  501    0 -0.16438816953E+03 -0.19858172403E+02 -0.40073285749E+03  0.43359501884E+03  0.00000000000E+00 0.  1.
         21    1    1    2  502  501  0.12599104089E+02 -0.12970913487E+02 -0.24553078765E+02  0.30493207397E+02  0.00000000000E+00 0.  1.
<mgrwt>
<rscale>  1 0.30000000E+03</rscale>
<asrwt>0</asrwt>
<pdfrwt beam="1">  1        1 0.11003237E+00 0.30000000E+03</pdfrwt>
<pdfrwt beam="2">0</pdfrwt>
<totfact> 0.29696447E+01</totfact>
</mgrwt>
</event>
<event>
 6    1  0.1904828E-004  0.3000000E+03  0.7818608E-02  0.1093470E+00
          3   -1    0    0  502    0  0.00000000000E+00  0.00000000000E+00  0.30717522537E+02  0.30717522537E+02  0.00000000000E+00 0.  1.
         13   -1    0    0    0    0 -0.00000000000E+00 -0.00000000000E+00 -0.10000000000E+04  0.10000000000E+04  0.00000000000E+00 0.  1.
    9000005    2    1    2  501    0  0.22362414570E+01  0.16559882478E+02 -0.92723074824E+03  0.98546734669E+03  0.33333136730E+03 0.  0.
         13    1    3    3    0    0 -0.15372357581E+03 -0.52101038272E+02 -0.41369577501E+03  0.44439807629E+03  0.00000000000E+00 0.  1.
          3    1    3    3  501    0  0.15595981727E+03  0.68660920750E+02 -0.51353497323E+03  0.54106927040E+03  0.00000000000E+00 0.  1.
         21    1    1    2  502  501 -0.22362414570E+01 -0.16559882478E+02 -0.42051729224E+02  0.45250175848E+02  0.00000000000E+00 0. -1.
<mgrwt>
<rscale>  1 0.30000000E+03</rscale>
<asrwt>0</asrwt>
<pdfrwt beam="1">  1        3 0.11170032E+00 0.30000000E+03</pdfrwt>
<pdfrwt beam="2">0</pdfrwt>
<totfact> 0.28820218E+00</totfact>
</mgrwt>
</event>
<event>
 6    1  0.1904828E-004  0.3000000E+03  0.7818608E-02  0.1093470E+00
          1   -1    0    0  502    0  0.00000000000E+00  0.00000000000E+00  0.50724416978E+02  0.50724416978E+02  0.00000000000E+00 0.  1.
         13   -1    0    0    0    0 -0.00000000000E+00 -0.00000000000E+00 -0.10000000000E+04  0.10000000000E+04  0.00000000000E+00 0.  1.
    9000005    2    1    2  501    0 -0.21682927299E+02 -0.76957849239E+01 -0.96699272667E+03  0.10216852775E+04  0.32899315863E+03 0.  0.
         13    1    3    3    0    0  0.15356286004E+03  0.36542492128E+01 -0.42114146606E+03  0.44828009097E+03  0.00000000000E+00 0.  1.
          3    1    3    3  501    0 -0.17524578734E+03 -0.11350034137E+02 -0.54585126060E+03  0.57340518655E+03  0.00000000000E+00 0.  1.
         21    1    1    2  502  501  0.21682927299E+02  0.76957849239E+01  0.17717143643E+02  0.29039139463E+02  0.00000000000E+00 0.  1.
<mgrwt>
<rscale>  1 0.30000000E+03</rscale>
<asrwt>0</asrwt>
<pdfrwt beam="1">  1        1 0.18445281E+00 0.30000000E+03</pdfrwt>
<pdfrwt beam="2">0</pdfrwt>
<totfact> 0.12157852E+01</totfact>
</mgrwt>
</event>
<event>
 6    1  0.1904828E-004  0.3000000E+03  0.7818608E-02  0.1093470E+00
          1   -1    0    0  502    0  0.00000000000E+00  0.00000000000E+00  0.32238425637E+02  0.32238425637E+02  0.00000000000E+00 0.  1.
         13   -1    0    0    0    0 -0.00000000000E+00 -0.00000000000E+00 -0.10000000000E+04  0.10000000000E+04  0.00000000000E+00 0.  1.
    9000005    2    1    2  501    0  0.10751094498E+02  0.49255335407E+01 -0.96604621223E+03  0.10202889746E+04  0.32803118837E+03 0.  0.
         13    1    3    3    0    0  0.13631903297E+03  0.68222343402E+02 -0.72819609276E+03  0.74398031990E+03  0.00000000000E+00 0.  1.
          1    1    3    3  501    0 -0.12556793847E+03 -0.63296809862E+02 -0.23785011947E+03  0.27630865467E+03  0.00000000000E+00 0.  1.
         21    1    1    2  502  501 -0.10751094498E+02 -0.49255335407E+01 -0.17153621303E+01  0.11949451067E+02  0.00000000000E+00 0. -1.
<mgrwt>
<rscale>  1 0.30000000E+03</rscale>
<asrwt>0</asrwt>
<pdfrwt beam="1">  1        1 0.11723089E+00 0.30000000E+03</pdfrwt>
<pdfrwt beam="2">0</pdfrwt>
<totfact> 0.26956535E+01</totfact>
</mgrwt>
</event>
<event>
 6    1  0.1904828E-004  0.3000000E+03  0.7818608E-02  0.1093470E+00
          1   -1    0    0  502    0  0.00000000000E+00  0.00000000000E+00  0.27542266794E+02  0.27542266794E+02  0.00000000000E+00 0.  1.
         13   -1    0    0    0    0 -0.00000000000E+00 -0.00000000000E+00 -0.10000000000E+04  0.10000000000E+04  0.00000000000E+00 0.  1.
    9000005    2    1    2  501    0 -0.90793921709E+01 -0.14486708128E+02 -0.93677521949E+03  0.98797533793E+03  0.31345678559E+03 0.  0.
         13    1    3    3    0    0  0.69581745713E+02  0.11338442593E+03 -0.65832537576E+03  0.67163230100E+03  0.00000000000E+00 0.  1.
          1    1    3    3  501    0 -0.78661137884E+02 -0.12787113406E+03 -0.27844984373E+03  0.31634303693E+03  0.00000000000E+00 0.  1.
         21    1    1    2  502  501  0.90793921709E+01  0.14486708128E+02 -0.35682513718E+02  0.39566928865E+02  0.00000000000E+00 0.  1.
<mgrwt>
<rscale>  1 0.30000000E+03</rscale>
<asrwt>0</asrwt>
<pdfrwt beam="1">  1        1 0.10015391E+00 0.30000000E+03</pdfrwt>
<pdfrwt beam="2">0</pdfrwt>
<totfact> 0.34150055E+01</totfact>
</mgrwt>
</event>
<event>
 6    1  0.1904828E-004  0.3000000E+03  0.7818608E-02  0.1093470E+00
          1   -1    0    0  502    0  0.00000000000E+00  0.00000000000E+00  0.34355686453E+02  0.34355686453E+02  0.00000000000E+00 0.  1.
         13   -1    0    0    0    0 -0.00000000000E+00 -0.00000000000E+00 -0.10000000000E+04  0.10000000000E+04  0.00000000000E+00 0.  1.
    9000005    2    1    2  501    0  0.21346646377E+02  0.11281980558E+02 -0.90665672932E+03  0.97061796222E+03  0.34567302668E+03 0.  0.
         13    1    3    3    0    0  0.12231041350E+03  0.13458525441E+03 -0.56660383837E+03  0.59507389257E+03  0.00000000000E+00 0.  1.
          3    1    3    3  501    0 -0.10096376712E+03 -0.12330327385E+03 -0.34005289094E+03  0.37554406965E+03  0.00000000000E+00 0.  1.
         21    1    1    2  502  501 -0.21346646377E+02 -0.11281980558E+02 -0.58987584231E+02  0.63737724231E+02  0.00000000000E+00 0.  1.
<mgrwt>
<rscale>  1 0.30000000E+03</rscale>
<asrwt>0</asrwt>
<pdfrwt beam="1">  1        1 0.12493003E+00 0.30000000E+03</pdfrwt>
<pdfrwt beam="2">0</pdfrwt>
<totfact> 0.24395724E+01</totfact>
</mgrwt>
</event>
<event>
 6    1  0.1904828E-004  0.3000000E+03  0.7818608E-02  0.1093470E+00
          1   -1    0    0  502    0  0.00000000000E+00  0.00000000000E+00  0.85802769700E+02  0.85802769700E+02  0.00000000000E+00 0.  1.
         13   -1    0    0    0    0 -0.00000000000E+00 -0.00000000000E+00 -0.10000000000E+04  0.10000000000E+04  0.00000000000E+00 0.  1.
    9000005    2    1    2  501    0 -0.36636118267E+02 -0.18915982352E+02 -0.96522751716E+03  0.10201970556E+04  0.32777713884E+03 0.  0.
         13    1    3    3    0    0 -0.10517411965E+03 -0.60015326627E+01 -0.80133254089E+02  0.13235917894E+03  0.00000000000E+00 0.  1.
          3    1    3    3  501    0  0.68538001385E+02 -0.12914449689E+02 -0.88509426307E+03  0.88783787662E+03  0.00000000000E+00 0.  1.
         21    1    1    2  502  501  0.36636118267E+02  0.18915982352E+02  0.51030286861E+02  0.65605714135E+02  0.00000000000E+00 0.  1.
<mgrwt>
<rscale>  1 0.30000000E+03</rscale>
<asrwt>0</asrwt>
<pdfrwt beam="1">  1        1 0.31201073E+00 0.30000000E+03</pdfrwt>
<pdfrwt beam="2">0</pdfrwt>
<totfact> 0.30442599E+00</totfact>
</mgrwt>
</event>
<event>
 6    1  0.1904828E-004  0.3000000E+03  0.7818608E-02  0.1093470E+00
          1   -1    0    0  502    0  0.00000000000E+00  0.00000000000E+00  0.54466828747E+02  0.54466828747E+02  0.00000000000E+00 0.  1.
         13   -1    0    0    0    0 -0.00000000000E+00 -0.00000000000E+00 -0.10000000000E+04  0.10000000000E+04  0.00000000000E+00 0.  1.
    9000005    2    1    2  501    0  0.71004021474E+02  0.32524294130E+02 -0.90777344589E+03  0.96771893175E+03  0.32607959308E+03 0.  0.
         13    1    3    3    0    0 -0.63378080896E+02 -0.11441922173E+03 -0.44737200628E+03  0.46610111719E+03  0.00000000000E+00 0.  1.
          3    1    3    3  501    0  0.13438210237E+03  0.14694351586E+03 -0.46040143961E+03  0.50161781456E+03  0.00000000000E+00 0.  1.
         21    1    1    2  502  501 -0.71004021474E+02 -0.32524294130E+02 -0.37759725360E+02  0.86747896997E+02  0.00000000000E+00 0. -1.
<mgrwt>
<rscale>  1 0.30000000E+03</rscale>
<asrwt>0</asrwt>
<pdfrwt beam="1">  1        1 0.19806161E+00 0.30000000E+03</pdfrwt>
<pdfrwt beam="2">0</pdfrwt>
<totfact> 0.10463196E+01</totfact>
</mgrwt>
</event>
<event>
 6    1  0.1904828E-004  0.3000000E+03  0.7818608E-02  0.1093470E+00
          1   -1    0    0  502    0  0.00000000000E+00  0.00000000000E+00  0.47160146600E+02  0.47160146600E+02  0.00000000000E+00 0.  1.
         13   -1    0    0    0    0 -0.00000000000E+00 -0.00000000000E+00 -0.10000000000E+04  0.10000000000E+04  0.00000000000E+00 0.  1.
    9000005    2    1    2  501    0  0.14497396437E+02 -0.22977765900E+01 -0.97097797217E+03  0.10238267878E+04  0.32435723313E+03 0.  0.
         13    1    3    3    0    0  0.10675535326E+03  0.12098136764E+03 -0.37417452138E+03  0.40747977768E+03  0.00000000000E+00 0.  1.
          3    1    3    3  501    0 -0.92257956828E+02 -0.12327914423E+03 -0.59680345079E+03  0.61634701012E+03  0.00000000000E+00 0.  1.
         21    1    1    2  502  501 -0.14497396437E+02  0.22977765900E+01  0.18138118770E+02  0.23333358807E+02  0.00000000000E+00 0.  1.
<mgrwt>
<rscale>  1 0.30000000E+03</rscale>
<asrwt>0</asrwt>
<pdfrwt beam="1">  1        1 0.17149180E+00 0.30000000E+03</pdfrwt>
<pdfrwt beam="2">0</pdfrwt>
<totfact> 0.14049578E+01</totfact>
</mgrwt>
</event>
<event>
 6    1  0.1904828E-004  0.3000000E+03  0.7818608E-02  0.1093470E+00
          1   -1    0    0  502    0  0.00000000000E+00  0.00000000000E+00  0.32179445109E+02  0.32179445109E+02  0.00000000000E+00 0.  1.
         13   -1    0    0    0    0 -0.00000000000E+00 -0.00000000000E+00 -0.10000000000E+04  0.10000000000E+04  0.00000000000E+00 0.  1.
    9000005    2    1    2  501    0 -0.28090369792E+01 -0.11240367490E+02 -0.97395352175E+03  0.10190702944E+04  0.29964072790E+03 0.  0.
         13    1    3    3    0    0 -0.14780078418E+03 -0.18968063466E+02 -0.39458286325E+03  0.42178252122E+03  0.00000000000E+00 0.  1.
          3    1    3    3  501    0  0.14499174720E+03  0.77276959755E+01 -0.57937065851E+03  0.59728777317E+03  0.00000000000E+00 0.  1.
         21    1    1    2  502  501  0.28090369792E+01  0.11240367490E+02  0.61329668641E+01  0.13109150721E+02  0.00000000000E+00 0. -1.
<mgrwt>
<rscale>  1 0.30000000E+03</rscale>
<asrwt>0</asrwt>
<pdfrwt beam="1">  1        1 0.11701641E+00 0.30000000E+03</pdfrwt>
<pdfrwt beam="2">0</pdfrwt>
<totfact> 0.27032937E+01</totfact>
</mgrwt>
</event>
<event>
 6    1  0.1904828E-004  0.3000000E+03  0.7818608E-02  0.1093470E+00
          1   -1    0    0  502    0  0.00000000000E+00  0.00000000000E+00  0.43595909348E+02  0.43595909348E+02  0.00000000000E+00 0.  1.
         13   -1    0    0    0    0 -0.00000000000E+00 -0.00000000000E+00 -0.10000000000E+04  0.10000000000E+04  0.00000000000E+00 0.  1.
    9000005    2    1    2  501    0  0.14589548813E+01  0.11860059355E+02 -0.97221397008E+03  0.10237781939E+04  0.32059163614E+03 0.  0.
         13    1    3    3    0    0  0.13183594899E+03  0.96771737307E+02 -0.44572588254E+03  0.47478105370E+03  0.00000000000E+00 0.  1.
          1    1    3    3  501    0 -0.13037699411E+03 -0.84911677952E+02 -0.52648808755E+03  0.54899714022E+03  0.00000000000E+00 0.  1.
         21    1    1    2  502  501 -0.14589548813E+01 -0.11860059355E+02  0.15809879429E+02  0.19817715429E+02  0.00000000000E+00 0.  1.
<mgrwt>
<rscale>  1 0.30000000E+03</rscale>
<asrwt>0</asrwt>
<pdfrwt beam="1">  1        1 0.15853091E+00 0.30000000E+03</pdfrwt>
<pdfrwt beam="2">0</pdfrwt>
<totfact> 0.16274629E+01</totfact>
</mgrwt>
</event>
<event>
 6    1  0.1904828E-004  0.3000000E+03  0.7818608E-02  0.1093470E+00
          1   -1    0    0  502    0  0.00000000000E+00  0.00000000000E+00  0.29285943074E+02  0.29285943074E+02  0.00000000000E+00 0.  1.
         13   -1    0    0    0    0 -0.00000000000E+00 -0.00000000000E+00 -0.10000000000E+04  0.10000000000E+04  0.00000000000E+00 0.  1.
    9000005    2    1    2  501    0  0.27622965136E+02 -0.24927215644E+02 -0.90272365463E+03  0.95178052980E+03  0.29931887009E+03 0.  0.
         13    1    3    3    0    0  0.11877438920E+03 -0.12072911196E+03 -0.51305540991E+03  0.54028578331E+03  0.00000000000E+00 0.  1.
          3    1    3    3  501    0 -0.91151424065E+02  0.95801896317E+02 -0.38966824472E+03  0.41149474649E+03  0.00000000000E+00 0.  1.
         21    1    1    2  502  501 -0.27622965136E+02  0.24927215644E+02 -0.67990402291E+02  0.77505413271E+02  0.00000000000E+00 0.  1.
<mgrwt>
<rscale>  1 0.30000000E+03</rscale>
<asrwt>0</asrwt>
<pdfrwt beam="1">  1        1 0.10649456E+00 0.30000000E+03</pdfrwt>
<pdfrwt beam="2">0</pdfrwt>
<totfact> 0.31189490E+01</totfact>
</mgrwt>
</event>
<event>
 6    1  0.1904828E-004  0.3000000E+03  0.7818608E-02  0.1093470E+00
          1   -1    0    0  502    0  0.00000000000E+00  0.00000000000E+00  0.38625319706E+02  0.38625319706E+02  0.00000000000E+00 0.  1.
         13   -1    0    0    0    0 -0.00000000000E+00 -0.00000000000E+00 -0.10000000000E+04  0.10000000000E+04  0.00000000000E+00 0.  1.
    9000005    2    1    2  501    0  0.22978407597E+02 -0.19876366271E+01 -0.95978004801E+03  0.10155060471E+04  0.33097255652E+03 0.  0.
         13    1    3    3    0    0  0.93799055646E+02  0.12598915129E+03 -0.69974702392E+03  0.71715927559E+03  0.00000000000E+00 0.  1.
          1    1    3    3  501    0 -0.70820648049E+02 -0.12797678792E+03 -0.26003302409E+03  0.29834677148E+03  0.00000000000E+00 0.  1.
         21    1    1    2  502  501 -0.22978407597E+02  0.19876366271E+01 -0.15946322855E+01  0.23119272635E+02  0.00000000000E+00 0. -1.
<mgrwt>
<rscale>  1 0.30000000E+03</rscale>
<asrwt>0</asrwt>
<pdfrwt beam="1">  1        1 0.14045600E+00 0.30000000E+03</pdfrwt>
<pdfrwt beam="2">0</pdfrwt>
<totfact> 0.20121227E+01</totfact>
</mgrwt>
</event>
<event>
 6    1  0.1904828E-004  0.3000000E+03  0.7818608E-02  0.1093470E+00
          1   -1    0    0  502    0  0.00000000000E+00  0.00000000000E+00  0.26177166718E+02  0.26177166718E+02  0.00000000000E+00 0.  1.
         13   -1    0    0    0    0 -0.00000000000E+00 -0.00000000000E+00 -0.10000000000E+04  0.10000000000E+04  0.00000000000E+00 0.  1.
    9000005    2    1    2  501    0 -0.18370611625E+02 -0.25204719728E+01 -0.94525772969E+03  0.99212136994E+03  0.30074707815E+03 0.  0.
         13    1    3    3    0    0  0.11681868113E+03 -0.30457925166E+02 -0.19557242005E+03  0.22983224524E+03  0.00000000000E+00 0.  1.
          1    1    3    3  501    0 -0.13518929275E+03  0.27937453194E+02 -0.74968530963E+03  0.76228912471E+03  0.00000000000E+00 0.  1.
         21    1    1    2  502  501  0.18370611625E+02  0.25204719728E+01 -0.28565103597E+02  0.34055796775E+02  0.00000000000E+00 0.  1.
<mgrwt>
<rscale>  1 0.30000000E+03</rscale>
<asrwt>0</asrwt>
<pdfrwt beam="1">  1        1 0.95189898E-01 0.30000000E+03</pdfrwt>
<pdfrwt beam="2">0</pdfrwt>
<totfact> 0.36765211E+01</totfact>
</mgrwt>
</event>
<event>
 6    1  0.1904828E-004  0.3000000E+03  0.7818608E-02  0.1093470E+00
          1   -1    0    0  502    0  0.00000000000E+00  0.00000000000E+00  0.37612586693E+02  0.37612586693E+02  0.00000000000E+00 0.  1.
         13   -1    0    0    0    0 -0.00000000000E+00 -0.00000000000E+00 -0.10000000000E+04  0.10000000000E+04  0.00000000000E+00 0.  1.
    9000005    2    1    2  501    0  0.10494936104E+02  0.14389243340E+02 -0.96477765918E+03  0.10196429656E+04  0.32948239951E+03 0.  0.
         13    1    3    3    0    0 -0.71643958837E+02 -0.69840391674E+02 -0.84798153789E+03  0.85386370443E+03  0.00000000000E+00 0.  1.
          1    1    3    3  501    0  0.82138894941E+02  0.84229635013E+02 -0.11679612129E+03  0.16577926114E+03  0.00000000000E+00 0.  1.
         21    1    1    2  502  501 -0.10494936104E+02 -0.14389243340E+02  0.23902458747E+01  0.17969621116E+02  0.00000000000E+00 0.  1.
<mgrwt>
<rscale>  1 0.30000000E+03</rscale>
<asrwt>0</asrwt>
<pdfrwt beam="1">  1        1 0.13677333E+00 0.30000000E+03</pdfrwt>
<pdfrwt beam="2">0</pdfrwt>
<totfact> 0.21040468E+01</totfact>
</mgrwt>
</event>
<event>
 6    1  0.1904828E-004  0.3000000E+03  0.7818608E-02  0.1093470E+00
          1   -1    0    0  502    0  0.00000000000E+00  0.00000000000E+00  0.49306000741E+02  0.49306000741E+02  0.00000000000E+00 0.  1.
         13   -1    0    0    0    0 -0.00000000000E+00 -0.00000000000E+00 -0.10000000000E+04  0.10000000000E+04  0.00000000000E+00 0.  1.
    9000005    2    1    2  501    0 -0.10148694918E+02 -0.12451614308E+02 -0.97039727860E+03  0.10238843972E+04  0.32620598080E+03 0.  0.
         13    1    3    3    0    0  0.12464685466E+03  0.62233227664E+01 -0.77961893014E+03  0.78954496032E+03  0.00000000000E+00 0.  1.
          1    1    3    3  501    0 -0.13479554958E+03 -0.18674937074E+02 -0.19077834845E+03  0.23433943693E+03  0.00000000000E+00 0.  1.
         21    1    1    2  502  501  0.10148694918E+02  0.12451614308E+02  0.19703279340E+02  0.25421603493E+02  0.00000000000E+00 0.  1.
<mgrwt>
<rscale>  1 0.30000000E+03</rscale>
<asrwt>0</asrwt>
<pdfrwt beam="1">  1        1 0.17929493E+00 0.30000000E+03</pdfrwt>
<pdfrwt beam="2">0</pdfrwt>
<totfact> 0.12875195E+01</totfact>
</mgrwt>
</event>
<event>
 6    1  0.1904828E-004  0.3000000E+03  0.7818608E-02  0.1093470E+00
          1   -1    0    0  502    0  0.00000000000E+00  0.00000000000E+00  0.37921540614E+02  0.37921540614E+02  0.00000000000E+00 0.  1.
         13   -1    0    0    0    0 -0.00000000000E+00 -0.00000000000E+00 -0.10000000000E+04  0.10000000000E+04  0.00000000000E+00 0.  1.
    9000005    2    1    2  501    0  0.46484735937E+02 -0.13391099982E+02 -0.75796174258E+03  0.82815074591E+03  0.33013255291E+03 0.  0.
         13    1    3    3    0    0  0.11670367212E+03 -0.11761156315E+03 -0.21833700574E+03  0.27408625458E+03  0.00000000000E+00 0.  1.
          1    1    3    3  501    0 -0.70218936184E+02  0.10422046316E+03 -0.53962473684E+03  0.55406449133E+03  0.00000000000E+00 0.  1.
         21    1    1    2  502  501 -0.46484735937E+02  0.13391099982E+02 -0.20411671680E+03  0.20977079471E+03  0.00000000000E+00 0.  1.
<mgrwt>
<rscale>  1 0.30000000E+03</rscale>
<asrwt>0</asrwt>
<pdfrwt beam="1">  1        1 0.13789680E+00 0.30000000E+03</pdfrwt>
<pdfrwt beam="2">0</pdfrwt>
<totfact> 0.20754445E+01</totfact>
</mgrwt>
</event>
<event>
 6    1  0.1904828E-004  0.3000000E+03  0.7818608E-02  0.1093470E+00
          3   -1    0    0  502    0  0.00000000000E+00  0.00000000000E+00  0.28136331832E+02  0.28136331832E+02  0.00000000000E+00 0.  1.
         13   -1    0    0    0    0 -0.00000000000E+00 -0.00000000000E+00 -0.10000000000E+04  0.10000000000E+04  0.00000000000E+00 0.  1.
    9000005    2    1    2  501    0  0.12699238970E+02 -0.66466048136E-01 -0.94976510933E+03  0.10026486605E+04  0.32107522230E+03 0.  0.
         13    1    3    3    0    0  0.35623692220E+02  0.14347951591E+03 -0.68332141987E+03  0.69913058994E+03  0.00000000000E+00 0.  1.
          1    1    3    3  501    0 -0.22924453250E+02 -0.14354598196E+03 -0.26644368946E+03  0.30351807054E+03  0.00000000000E+00 0.  1.
         21    1    1    2  502  501 -0.12699238970E+02  0.66466048136E-01 -0.22098558836E+02  0.25487671349E+02  0.00000000000E+00 0. -1.
<mgrwt>
<rscale>  1 0.30000000E+03</rscale>
<asrwt>0</asrwt>
<pdfrwt beam="1">  1        3 0.10231415E+00 0.30000000E+03</pdfrwt>
<pdfrwt beam="2">0</pdfrwt>
<totfact> 0.36863874E+00</totfact>
</mgrwt>
</event>
<event>
 6    1  0.1904828E-004  0.3000000E+03  0.7818608E-02  0.1093470E+00
          1   -1    0    0  502    0  0.00000000000E+00  0.00000000000E+00  0.38517472331E+02  0.38517472331E+02  0.00000000000E+00 0.  1.
         13   -1    0    0    0    0 -0.00000000000E+00 -0.00000000000E+00 -0.10000000000E+04  0.10000000000E+04  0.00000000000E+00 0.  1.
    9000005    2    1    2  501    0  0.72169135356E+00  0.38487827205E+02 -0.92979839084E+03  0.98866049481E+03  0.33383033520E+03 0.  0.
         13    1    3    3    0    0 -0.10026414422E+03 -0.60856340791E+02 -0.75314660207E+03  0.76222450567E+03  0.00000000000E+00 0.  1.
          3    1    3    3  501    0  0.10098583557E+03  0.99344167995E+02 -0.17665178877E+03  0.22643598914E+03  0.00000000000E+00 0.  1.
         21    1    1    2  502  501 -0.72169135356E+00 -0.38487827205E+02 -0.31684136824E+02  0.49856977522E+02  0.00000000000E+00 0.  1.
<mgrwt>
<rscale>  1 0.30000000E+03</rscale>
<asrwt>0</asrwt>
<pdfrwt beam="1">  1        1 0.14006383E+00 0.30000000E+03</pdfrwt>
<pdfrwt beam="2">0</pdfrwt>
<totfact> 0.20216647E+01</totfact>
</mgrwt>
</event>
<event>
 6    1  0.1904828E-004  0.3000000E+03  0.7818608E-02  0.1093470E+00
          1   -1    0    0  502    0  0.00000000000E+00  0.00000000000E+00  0.29070821080E+02  0.29070821080E+02  0.00000000000E+00 0.  1.
         13   -1    0    0    0    0 -0.00000000000E+00 -0.00000000000E+00 -0.10000000000E+04  0.10000000000E+04  0.00000000000E+00 0.  1.
    9000005    2    1    2  501    0  0.15165102680E+02 -0.21574262831E+01 -0.96604474256E+03  0.10129931177E+04  0.30443057839E+03 0.  0.
         13    1    3    3    0    0  0.14497913171E+02  0.12467047556E+03 -0.76541179225E+03  0.77563401723E+03  0.00000000000E+00 0.  1.
          1    1    3    3  501    0  0.66718950857E+00 -0.12682790184E+03 -0.20063295030E+03  0.23735910047E+03  0.00000000000E+00 0.  1.
         21    1    1    2  502  501 -0.15165102680E+02  0.21574262831E+01 -0.48844363647E+01  0.16077703382E+02  0.00000000000E+00 0. -1.
<mgrwt>
<rscale>  1 0.30000000E+03</rscale>
<asrwt>0</asrwt>
<pdfrwt beam="1">  1        1 0.10571230E+00 0.30000000E+03</pdfrwt>
<pdfrwt beam="2">0</pdfrwt>
<totfact> 0.31534120E+01</totfact>
</mgrwt>
</event>
<event>
 6    1  0.1904828E-004  0.3000000E+03  0.7818608E-02  0.1093470E+00
          1   -1    0    0  502    0  0.00000000000E+00  0.00000000000E+00  0.46114273032E+02  0.46114273032E+02  0.00000000000E+00 0.  1.
         13   -1    0    0    0    0 -0.00000000000E+00 -0.00000000000E+00 -0.10000000000E+04  0.10000000000E+04  0.00000000000E+00 0.  1.
    9000005    2    1    2  501    0 -0.16839141549E+02  0.25583883226E+02 -0.95091071302E+03  0.10153418426E+04  0.35461215624E+03 0.  0.
         13    1    3    3    0    0  0.11799669361E+03  0.52623958242E+02 -0.80319768144E+03  0.81352259720E+03  0.00000000000E+00 0.  1.
          3    1    3    3  501    0 -0.13483583516E+03 -0.27040075016E+02 -0.14771303158E+03  0.20181924536E+03  0.00000000000E+00 0.  1.
         21    1    1    2  502  501  0.16839141549E+02 -0.25583883226E+02 -0.29750139497E+01  0.30772430470E+02  0.00000000000E+00 0.  1.
<mgrwt>
<rscale>  1 0.30000000E+03</rscale>
<asrwt>0</asrwt>
<pdfrwt beam="1">  1        1 0.16768862E+00 0.30000000E+03</pdfrwt>
<pdfrwt beam="2">0</pdfrwt>
<totfact> 0.14664336E+01</totfact>
</mgrwt>
</event>
<event>
 6    1  0.1904828E-004  0.3000000E+03  0.7818608E-02  0.1093470E+00
          1   -1    0    0  502    0  0.00000000000E+00  0.00000000000E+00  0.54933701993E+02  0.54933701993E+02  0.00000000000E+00 0.  1.
         13   -1    0    0    0    0 -0.00000000000E+00 -0.00000000000E+00 -0.10000000000E+04  0.10000000000E+04  0.00000000000E+00 0.  1.
    9000005    2    1    2  501    0  0.41305185992E+02 -0.11491649072E+03 -0.77351004942E+03  0.84435482210E+03  0.31576154106E+03 0.  0.
         13    1    3    3    0    0  0.79309793287E+02 -0.81871634075E+02 -0.78455818109E+03  0.79279540065E+03  0.00000000000E+00 0.  1.
          3    1    3    3  501    0 -0.38004607295E+02 -0.33044856648E+02  0.11048131668E+02  0.51559421446E+02  0.00000000000E+00 0.  1.
         21    1    1    2  502  501 -0.41305185992E+02  0.11491649072E+03 -0.17155624858E+03  0.21057887990E+03  0.00000000000E+00 0.  1.
<mgrwt>
<rscale>  1 0.30000000E+03</rscale>
<asrwt>0</asrwt>
<pdfrwt beam="1">  1        1 0.19975934E+00 0.30000000E+03</pdfrwt>
<pdfrwt beam="2">0</pdfrwt>
<totfact> 0.10270438E+01</totfact>
</mgrwt>
</event>
<event>
 6    1  0.1904828E-004  0.3000000E+03  0.7818608E-02  0.1093470E+00
          1   -1    0    0  502    0  0.00000000000E+00  0.00000000000E+00  0.30427579432E+02  0.30427579432E+02  0.00000000000E+00 0.  1.
         13   -1    0    0    0    0 -0.00000000000E+00 -0.00000000000E+00 -0.10000000000E+04  0.10000000000E+04  0.00000000000E+00 0.  1.
    9000005    2    1    2  501    0  0.14804282857E+02  0.94377153586E+01 -0.95478628040E+03  0.10074739914E+04  0.32105881838E+03 0.  0.
         13    1    3    3    0    0 -0.12175308018E+03  0.91030743641E+02 -0.59455327255E+03  0.61368070096E+03  0.00000000000E+00 0.  1.
          3    1    3    3  501    0  0.13655736304E+03 -0.81593028282E+02 -0.36023300785E+03  0.39379329045E+03  0.00000000000E+00 0.  1.
         21    1    1    2  502  501 -0.14804282857E+02 -0.94377153586E+01 -0.14786140165E+02  0.22953588022E+02  0.00000000000E+00 0. -1.
<mgrwt>
<rscale>  1 0.30000000E+03</rscale>
<asrwt>0</asrwt>
<pdfrwt beam="1">  1        1 0.11064598E+00 0.30000000E+03</pdfrwt>
<pdfrwt beam="2">0</pdfrwt>
<totfact> 0.29447897E+01</totfact>
</mgrwt>
</event>
<event>
 6    1  0.1904828E-004  0.3000000E+03  0.7818608E-02  0.1093470E+00
          1   -1    0    0  502    0  0.00000000000E+00  0.00000000000E+00  0.35783805415E+02  0.35783805415E+02  0.00000000000E+00 0.  1.
         13   -1    0    0    0    0 -0.00000000000E+00 -0.00000000000E+00 -0.10000000000E+04  0.10000000000E+04  0.00000000000E+00 0.  1.
    9000005    2    1    2  501    0  0.24827407222E+02  0.46496718053E+02 -0.80785304019E+03  0.87077537838E+03  0.32069437182E+03 0.  0.
         13    1    3    3    0    0  0.95757490403E+02  0.46840188481E+02 -0.79062922679E+03  0.79778322524E+03  0.00000000000E+00 0.  1.
          3    1    3    3  501    0 -0.70930083181E+02 -0.34347042862E+00 -0.17223813400E+02  0.72992153140E+02  0.00000000000E+00 0.  1.
         21    1    1    2  502  501 -0.24827407222E+02 -0.46496718053E+02 -0.15636315439E+03  0.16500842703E+03  0.00000000000E+00 0. -1.
<mgrwt>
<rscale>  1 0.30000000E+03</rscale>
<asrwt>0</asrwt>
<pdfrwt beam="1">  1        1 0.13012320E+00 0.30000000E+03</pdfrwt>
<pdfrwt beam="2">0</pdfrwt>
<totfact> 0.22844474E+01</totfact>
</mgrwt>
</event>
<event>
 6    1  0.1904828E-004  0.3000000E+03  0.7818608E-02  0.1093470E+00
          1   -1    0    0  502    0  0.00000000000E+00  0.00000000000E+00  0.60283209392E+02  0.60283209392E+02  0.00000000000E+00 0.  1.
         13   -1    0    0    0    0 -0.00000000000E+00 -0.00000000000E+00 -0.10000000000E+04  0.10000000000E+04  0.00000000000E+00 0.  1.
    9000005    2    1    2  501    0  0.16204705440E+02 -0.76638669677E+02 -0.92264967516E+03  0.98011236308E+03  0.32125028097E+03 0.  0.
         13    1    3    3    0    0  0.14947063332E+03 -0.19442717154E+02 -0.68758285918E+03  0.70391027675E+03  0.00000000000E+00 0.  1.
          3    1    3    3  501    0 -0.13326592788E+03 -0.57195952523E+02 -0.23506681598E+03  0.27620208633E+03  0.00000000000E+00 0.  1.
         21    1    1    2  502  501 -0.16204705440E+02  0.76638669677E+02 -0.17067115444E+02  0.80170846309E+02  0.00000000000E+00 0.  1.
<mgrwt>
<rscale>  1 0.30000000E+03</rscale>
<asrwt>0</asrwt>
<pdfrwt beam="1">  1        1 0.21921213E+00 0.30000000E+03</pdfrwt>
<pdfrwt beam="2">0</pdfrwt>
<totfact> 0.83136915E+00</totfact>
</mgrwt>
</event>
<event>
 6    1  0.1904828E-004  0.3000000E+03  0.7818608E-02  0.1093470E+00
          1   -1    0    0  502    0  0.00000000000E+00  0.00000000000E+00  0.31893689538E+02  0.31893689538E+02  0.00000000000E+00 0.  1.
         13   -1    0    0    0    0 -0.00000000000E+00 -0.00000000000E+00 -0.10000000000E+04  0.10000000000E+04  0.00000000000E+00 0.  1.
    9000005    2    1    2  501    0 -0.12732433984E+02 -0.92077109779E+01 -0.95962728237E+03  0.10140389777E+04  0.32732801660E+03 0.  0.
         13    1    3    3    0    0  0.28316541192E+02 -0.15791519594E+03 -0.62985780640E+03  0.64996914688E+03  0.00000000000E+00 0.  1.
          1    1    3    3  501    0 -0.41048975176E+02  0.14870748496E+03 -0.32976947597E+03  0.36406983084E+03  0.00000000000E+00 0.  1.
         21    1    1    2  502  501  0.12732433984E+02  0.92077109779E+01 -0.84790280893E+01  0.17854711814E+02  0.00000000000E+00 0.  1.
<mgrwt>
<rscale>  1 0.30000000E+03</rscale>
<asrwt>0</asrwt>
<pdfrwt beam="1">  1        1 0.11597730E+00 0.30000000E+03</pdfrwt>
<pdfrwt beam="2">0</pdfrwt>
<totfact> 0.27407364E+01</totfact>
</mgrwt>
</event>
<event>
 6    1  0.1904828E-004  0.3000000E+03  0.7818608E-02  0.1093470E+00
          1   -1    0    0  502    0  0.00000000000E+00  0.00000000000E+00  0.47015187537E+02  0.47015187537E+02  0.00000000000E+00 0.  1.
         13   -1    0    0    0    0 -0.00000000000E+00 -0.00000000000E+00 -0.10000000000E+04  0.10000000000E+04  0.00000000000E+00 0.  1.
    9000005    2    1    2  501    0  0.23880064531E+02 -0.33226528853E+02 -0.95220979217E+03  0.10060901297E+04  0.32224152604E+03 0.  0.
         13    1    3    3    0    0 -0.61348085688E+02  0.41453630512E+02 -0.34981225237E+02  0.81888199512E+02  0.00000000000E+00 0.  1.
          1    1    3    3  501    0  0.85228150220E+02 -0.74680159365E+02 -0.91722856693E+03  0.92420193020E+03  0.00000000000E+00 0.  1.
         21    1    1    2  502  501 -0.23880064531E+02  0.33226528853E+02 -0.77502029681E+00  0.40925057827E+02  0.00000000000E+00 0.  1.
<mgrwt>
<rscale>  1 0.30000000E+03</rscale>
<asrwt>0</asrwt>
<pdfrwt beam="1">  1        1 0.17096468E+00 0.30000000E+03</pdfrwt>
<pdfrwt beam="2">0</pdfrwt>
<totfact> 0.14133029E+01</totfact>
</mgrwt>
</event>
<event>
 6    1  0.1904828E-004  0.3000000E+03  0.7818608E-02  0.1093470E+00
          1   -1    0    0  502    0  0.00000000000E+00  0.00000000000E+00  0.23281054356E+02  0.23281054356E+02  0.00000000000E+00 0.  1.
         13   -1    0    0    0    0 -0.00000000000E+00 -0.00000000000E+00 -0.10000000000E+04  0.10000000000E+04  0.00000000000E+00 0.  1.
    9000005    2    1    2  501    0  0.11059359000E+02  0.96736689123E+00 -0.96990286754E+03  0.10102540002E+04  0.28245057473E+03 0.  0.
         13    1    3    3    0    0 -0.31759842010E+02  0.47513228846E+02 -0.93740892091E+03  0.93914944470E+03  0.00000000000E+00 0.  1.
          3    1    3    3  501    0  0.42819201010E+02 -0.46545861954E+02 -0.32493946630E+02  0.71104555464E+02  0.00000000000E+00 0.  1.
         21    1    1    2  502  501 -0.11059359000E+02 -0.96736689123E+00 -0.68160781072E+01  0.13027054193E+02  0.00000000000E+00 0.  1.
<mgrwt>
<rscale>  1 0.30000000E+03</rscale>
<asrwt>0</asrwt>
<pdfrwt beam="1">  1        1 0.84658558E-01 0.30000000E+03</pdfrwt>
<pdfrwt beam="2">0</pdfrwt>
<totfact> 0.43412822E+01</totfact>
</mgrwt>
</event>
<event>
 6    1  0.1904828E-004  0.3000000E+03  0.7818608E-02  0.1093470E+00
          1   -1    0    0  502    0  0.00000000000E+00  0.00000000000E+00  0.31823853186E+02  0.31823853186E+02  0.00000000000E+00 0.  1.
         13   -1    0    0    0    0 -0.00000000000E+00 -0.00000000000E+00 -0.10000000000E+04  0.10000000000E+04  0.00000000000E+00 0.  1.
    9000005    2    1    2  501    0  0.21723118625E+02  0.23532061878E+02 -0.91246242882E+03  0.96756134318E+03  0.32025242700E+03 0.  0.
         13    1    3    3    0    0 -0.96870800940E+02  0.67251578328E+02 -0.13230963216E+03  0.17723590388E+03  0.00000000000E+00 0.  1.
          1    1    3    3  501    0  0.11859391956E+03 -0.43719516450E+02 -0.78015279665E+03  0.79032543930E+03  0.00000000000E+00 0.  1.
         21    1    1    2  502  501 -0.21723118625E+02 -0.23532061878E+02 -0.55713717998E+02  0.64262510006E+02  0.00000000000E+00 0.  1.
<mgrwt>
<rscale>  1 0.30000000E+03</rscale>
<asrwt>0</asrwt>
<pdfrwt beam="1">  1        1 0.11572335E+00 0.30000000E+03</pdfrwt>
<pdfrwt beam="2">0</pdfrwt>
<totfact> 0.27499964E+01</totfact>
</mgrwt>
</event>
<event>
 6    1  0.1904828E-004  0.3000000E+03  0.7818608E-02  0.1093470E+00
          3   -1    0    0  502    0  0.00000000000E+00  0.00000000000E+00  0.35934548174E+02  0.35934548174E+02  0.00000000000E+00 0.  1.
         13   -1    0    0    0    0 -0.00000000000E+00 -0.00000000000E+00 -0.10000000000E+04  0.10000000000E+04  0.00000000000E+00 0.  1.
    9000005    2    1    2  501    0  0.26141375342E+01 -0.22807025023E+02 -0.95910790917E+03  0.10124489923E+04  0.32347795362E+03 0.  0.
         13    1    3    3    0    0 -0.50552226214E+02  0.12822303930E+03 -0.64867874803E+03  0.66315970439E+03  0.00000000000E+00 0.  1.
          3    1    3    3  501    0  0.53166363748E+02 -0.15103006432E+03 -0.31042916114E+03  0.34928928791E+03  0.00000000000E+00 0.  1.
         21    1    1    2  502  501 -0.26141375342E+01  0.22807025023E+02 -0.49575426585E+01  0.23485555873E+02  0.00000000000E+00 0. -1.
<mgrwt>
<rscale>  1 0.30000000E+03</rscale>
<asrwt>0</asrwt>
<pdfrwt beam="1">  1        3 0.13067136E+00 0.30000000E+03</pdfrwt>
<pdfrwt beam="2">0</pdfrwt>
<totfact> 0.17375975E+00</totfact>
</mgrwt>
</event>
<event>
 6    1  0.1904828E-004  0.3000000E+03  0.7818608E-02  0.1093470E+00
          1   -1    0    0  502    0  0.00000000000E+00  0.00000000000E+00  0.31571523820E+02  0.31571523820E+02  0.00000000000E+00 0.  1.
         13   -1    0    0    0    0 -0.00000000000E+00 -0.00000000000E+00 -0.10000000000E+04  0.10000000000E+04  0.00000000000E+00 0.  1.
    9000005    2    1    2  501    0  0.56740091278E+02  0.35905065150E+02 -0.89700392101E+03  0.93354051473E+03  0.24974636469E+03 0.  0.
         13    1    3    3    0    0  0.88839904325E+02 -0.47505471978E+02 -0.14687118984E+03  0.17810234382E+03  0.00000000000E+00 0.  1.
          3    1    3    3  501    0 -0.32099813046E+02  0.83410537129E+02 -0.75013273117E+03  0.75543817091E+03  0.00000000000E+00 0.  1.
         21    1    1    2  502  501 -0.56740091278E+02 -0.35905065150E+02 -0.71424555174E+02  0.98031009092E+02  0.00000000000E+00 0.  1.
<mgrwt>
<rscale>  1 0.30000000E+03</rscale>
<asrwt>0</asrwt>
<pdfrwt beam="1">  1        1 0.11480578E+00 0.30000000E+03</pdfrwt>
<pdfrwt beam="2">0</pdfrwt>
<totfact> 0.27838208E+01</totfact>
</mgrwt>
</event>
<event>
 6    1  0.1904828E-004  0.3000000E+03  0.7818608E-02  0.1093470E+00
          1   -1    0    0  502    0  0.00000000000E+00  0.00000000000E+00  0.32354811712E+02  0.32354811712E+02  0.00000000000E+00 0.  1.
         13   -1    0    0    0    0 -0.00000000000E+00 -0.00000000000E+00 -0.10000000000E+04  0.10000000000E+04  0.00000000000E+00 0.  1.
    9000005    2    1    2  501    0 -0.45349867625E+01 -0.16565188764E+02 -0.95997862458E+03  0.10135466278E+04  0.32468882866E+03 0.  0.
         13    1    3    3    0    0  0.14246383130E+03  0.16272979257E+02 -0.68666963406E+03  0.70148124667E+03  0.00000000000E+00 0.  1.
          1    1    3    3  501    0 -0.14699881807E+03 -0.32838168021E+02 -0.27330899051E+03  0.31206538111E+03  0.00000000000E+00 0.  1.
         21    1    1    2  502  501  0.45349867625E+01  0.16565188764E+02 -0.76665637101E+01  0.18808183932E+02  0.00000000000E+00 0.  1.
<mgrwt>
<rscale>  1 0.30000000E+03</rscale>
<asrwt>0</asrwt>
<pdfrwt beam="1">  1        1 0.11765411E+00 0.30000000E+03</pdfrwt>
<pdfrwt beam="2">0</pdfrwt>
<totfact> 0.26806639E+01</totfact>
</mgrwt>
</event>
<event>
 6    1  0.1904828E-004  0.3000000E+03  0.7818608E-02  0.1093470E+00
          1   -1    0    0  502    0  0.00000000000E+00  0.00000000000E+00  0.33211558028E+02  0.33211558028E+02  0.00000000000E+00 0.  1.
         13   -1    0    0    0    0 -0.00000000000E+00 -0.00000000000E+00 -0.10000000000E+04  0.10000000000E+04  0.00000000000E+00 0.  1.
    9000005    2    1    2  501    0  0.19186766187E+02  0.99343098780E+01 -0.95165850403E+03  0.10068347210E+04  0.32801741510E+03 0.  0.
         13    1    3    3    0    0 -0.99121615678E+01  0.99204039228E+02 -0.73979416847E+02  0.12414768005E+03  0.00000000000E+00 0.  1.
          1    1    3    3  501    0  0.29098927755E+02 -0.89269729350E+02 -0.87767908718E+03  0.88268704094E+03  0.00000000000E+00 0.  1.
         21    1    1    2  502  501 -0.19186766187E+02 -0.99343098780E+01 -0.15129937945E+02  0.26376837029E+02  0.00000000000E+00 0. -1.
<mgrwt>
<rscale>  1 0.30000000E+03</rscale>
<asrwt>0</asrwt>
<pdfrwt beam="1">  1        1 0.12076956E+00 0.30000000E+03</pdfrwt>
<pdfrwt beam="2">0</pdfrwt>
<totfact> 0.25737301E+01</totfact>
</mgrwt>
</event>
<event>
 6    1  0.1904828E-004  0.3000000E+03  0.7818608E-02  0.1093470E+00
          1   -1    0    0  502    0  0.00000000000E+00  0.00000000000E+00  0.32321545675E+02  0.32321545675E+02  0.00000000000E+00 0.  1.
         13   -1    0    0    0    0 -0.00000000000E+00 -0.00000000000E+00 -0.10000000000E+04  0.10000000000E+04  0.00000000000E+00 0.  1.
    9000005    2    1    2  501    0 -0.76219426061E+01  0.15427799656E+02 -0.95841756845E+03  0.10127799230E+04  0.32689880057E+03 0.  0.
         13    1    3    3    0    0 -0.66420697341E+02 -0.14294808201E+03 -0.49776424735E+03  0.52212556835E+03  0.00000000000E+00 0.  1.
          3    1    3    3  501    0  0.58798754735E+02  0.15837588167E+03 -0.46065332110E+03  0.49065435460E+03  0.00000000000E+00 0.  1.
         21    1    1    2  502  501  0.76219426061E+01 -0.15427799656E+02 -0.92608858713E+01  0.19541622717E+02  0.00000000000E+00 0.  1.
<mgrwt>
<rscale>  1 0.30000000E+03</rscale>
<asrwt>0</asrwt>
<pdfrwt beam="1">  1        1 0.11753314E+00 0.30000000E+03</pdfrwt>
<pdfrwt beam="2">0</pdfrwt>
<totfact> 0.26849366E+01</totfact>
</mgrwt>
</event>
<event>
 6    1  0.1904828E-004  0.3000000E+03  0.7818608E-02  0.1093470E+00
          1   -1    0    0  502    0  0.00000000000E+00  0.00000000000E+00  0.28286347181E+02  0.28286347181E+02  0.00000000000E+00 0.  1.
         13   -1    0    0    0    0 -0.00000000000E+00 -0.00000000000E+00 -0.10000000000E+04  0.10000000000E+04  0.00000000000E+00 0.  1.
    9000005    2    1    2  501    0  0.14599333415E+02 -0.66024907458E+01 -0.91773740923E+03  0.97198209963E+03  0.31976634639E+03 0.  0.
         13    1    3    3    0    0 -0.11601716747E+03  0.22599811176E+02 -0.74056500986E+03  0.74993817642E+03  0.00000000000E+00 0.  1.
          1    1    3    3  501    0  0.13061650088E+03 -0.29202301922E+02 -0.17717239937E+03  0.22204392322E+03  0.00000000000E+00 0.  1.
         21    1    1    2  502  501 -0.14599333415E+02  0.66024907458E+01 -0.53976243587E+02  0.56304247548E+02  0.00000000000E+00 0.  1.
<mgrwt>
<rscale>  1 0.30000000E+03</rscale>
<asrwt>0</asrwt>
<pdfrwt beam="1">  1        1 0.10285966E+00 0.30000000E+03</pdfrwt>
<pdfrwt beam="2">0</pdfrwt>
<totfact> 0.32838658E+01</totfact>
</mgrwt>
</event>
<event>
 6    1  0.1904828E-004  0.3000000E+03  0.7818608E-02  0.1093470E+00
          1   -1    0    0  502    0  0.00000000000E+00  0.00000000000E+00  0.85915724504E+02  0.85915724504E+02  0.00000000000E+00 0.  1.
         13   -1    0    0    0    0 -0.00000000000E+00 -0.00000000000E+00 -0.10000000000E+04  0.10000000000E+04  0.00000000000E+00 0.  1.
    9000005    2    1    2  501    0  0.91210302519E+02 -0.12714266290E+03 -0.84464061830E+03  0.91472285801E+03  0.31434941842E+03 0.  0.
         13    1    3    3    0    0 -0.73632180473E+02 -0.26425591579E+02 -0.41261394826E+02  0.88444969300E+02  0.00000000000E+00 0.  1.
          1    1    3    3  501    0  0.16484248299E+03 -0.10071707132E+03 -0.80337922347E+03  0.82627788871E+03  0.00000000000E+00 0.  1.
         21    1    1    2  502  501 -0.91210302519E+02  0.12714266290E+03 -0.69443657195E+02  0.17119286650E+03  0.00000000000E+00 0.  1.
<mgrwt>
<rscale>  1 0.30000000E+03</rscale>
<asrwt>0</asrwt>
<pdfrwt beam="1">  1        1 0.31242148E+00 0.30000000E+03</pdfrwt>
<pdfrwt beam="2">0</pdfrwt>
<totfact> 0.30304139E+00</totfact>
</mgrwt>
</event>
<event>
 6    1  0.1904828E-004  0.3000000E+03  0.7818608E-02  0.1093470E+00
          1   -1    0    0  502    0  0.00000000000E+00  0.00000000000E+00  0.32620263409E+02  0.32620263409E+02  0.00000000000E+00 0.  1.
         13   -1    0    0    0    0 -0.00000000000E+00 -0.00000000000E+00 -0.10000000000E+04  0.10000000000E+04  0.00000000000E+00 0.  1.
    9000005    2    1    2  501    0 -0.14520433284E+02 -0.23191132815E+02 -0.94326802208E+03  0.99615046220E+03  0.31908072682E+03 0.  0.
         13    1    3    3    0    0  0.11255993447E+03  0.86915032686E+02 -0.55707589391E+03  0.57494131294E+03  0.00000000000E+00 0.  1.
          3    1    3    3  501    0 -0.12708036776E+03 -0.11010616550E+03 -0.38619212818E+03  0.42120914926E+03  0.00000000000E+00 0.  1.
         21    1    1    2  502  501  0.14520433284E+02  0.23191132815E+02 -0.24111714508E+02  0.36469801213E+02  0.00000000000E+00 0.  1.
<mgrwt>
<rscale>  1 0.30000000E+03</rscale>
<asrwt>0</asrwt>
<pdfrwt beam="1">  1        1 0.11861939E+00 0.30000000E+03</pdfrwt>
<pdfrwt beam="2">0</pdfrwt>
<totfact> 0.26468996E+01</totfact>
</mgrwt>
</event>
<event>
 6    1  0.1904828E-004  0.3000000E+03  0.7818608E-02  0.1093470E+00
          1   -1    0    0  502    0  0.00000000000E+00  0.00000000000E+00  0.33885937650E+02  0.33885937650E+02  0.00000000000E+00 0.  1.
         13   -1    0    0    0    0 -0.00000000000E+00 -0.00000000000E+00 -0.10000000000E+04  0.10000000000E+04  0.00000000000E+00 0.  1.
    9000005    2    1    2  501    0 -0.12725340221E+02 -0.10776522124E+02 -0.96196987860E+03  0.10167033310E+04  0.32866631740E+03 0.  0.
         13    1    3    3    0    0 -0.10639281928E+03 -0.12126057791E+03 -0.68956371963E+03  0.70818195627E+03  0.00000000000E+00 0.  1.
          3    1    3    3  501    0  0.93667479054E+02  0.11048405579E+03 -0.27240615897E+03  0.30852137472E+03  0.00000000000E+00 0.  1.
         21    1    1    2  502  501  0.12725340221E+02  0.10776522124E+02 -0.41441837533E+01  0.17182606665E+02  0.00000000000E+00 0.  1.
<mgrwt>
<rscale>  1 0.30000000E+03</rscale>
<asrwt>0</asrwt>
<pdfrwt beam="1">  1        1 0.12322185E+00 0.30000000E+03</pdfrwt>
<pdfrwt beam="2">0</pdfrwt>
<totfact> 0.24935251E+01</totfact>
</mgrwt>
</event>
<event>
 6    1  0.1904828E-004  0.3000000E+03  0.7818608E-02  0.1093470E+00
          1   -1    0    0  502    0  0.00000000000E+00  0.00000000000E+00  0.30426810655E+02  0.30426810655E+02  0.00000000000E+00 0.  1.
         13   -1    0    0    0    0 -0.00000000000E+00 -0.00000000000E+00 -0.10000000000E+04  0.10000000000E+04  0.00000000000E+00 0.  1.
    9000005    2    1    2  501    0 -0.69897395198E+01 -0.68189514755E+01 -0.96685292841E+03  0.10202900273E+04  0.32571736218E+03 0.  0.
         13    1    3    3    0    0 -0.34785564960E+02 -0.20640773356E+02  0.11021377697E+02  0.41923117974E+02  0.00000000000E+00 0.  1.
          3    1    3    3  501    0  0.27795825440E+02  0.13821821881E+02 -0.97787430610E+03  0.97836690930E+03  0.00000000000E+00 0.  1.
         21    1    1    2  502  501  0.69897395198E+01  0.68189514755E+01 -0.27202609404E+01  0.10136783383E+02  0.00000000000E+00 0.  1.
<mgrwt>
<rscale>  1 0.30000000E+03</rscale>
<asrwt>0</asrwt>
<pdfrwt beam="1">  1        1 0.11064318E+00 0.30000000E+03</pdfrwt>
<pdfrwt beam="2">0</pdfrwt>
<totfact> 0.29449022E+01</totfact>
</mgrwt>
</event>
<event>
 6    1  0.1904828E-004  0.3000000E+03  0.7818608E-02  0.1093470E+00
          1   -1    0    0  502    0  0.00000000000E+00  0.00000000000E+00  0.62825640501E+02  0.62825640501E+02  0.00000000000E+00 0.  1.
         13   -1    0    0    0    0 -0.00000000000E+00 -0.00000000000E+00 -0.10000000000E+04  0.10000000000E+04  0.00000000000E+00 0.  1.
    9000005    2    1    2  501    0  0.26752006136E+02 -0.24631080784E+02 -0.96036769520E+03  0.10196945520E+04  0.34080567696E+03 0.  0.
         13    1    3    3    0    0  0.17987070522E+03  0.20817993633E+02 -0.56409183157E+03  0.59244109741E+03  0.00000000000E+00 0.  1.
          1    1    3    3  501    0 -0.15311869909E+03 -0.45449074417E+02 -0.39627586363E+03  0.42725345461E+03  0.00000000000E+00 0.  1.
         21    1    1    2  502  501 -0.26752006136E+02  0.24631080784E+02  0.23193335704E+02  0.43131088486E+02  0.00000000000E+00 0. -1.
<mgrwt>
<rscale>  1 0.30000000E+03</rscale>
<asrwt>0</asrwt>
<pdfrwt beam="1">  1        1 0.22845736E+00 0.30000000E+03</pdfrwt>
<pdfrwt beam="2">0</pdfrwt>
<totfact> 0.75245246E+00</totfact>
</mgrwt>
</event>
<event>
 6    1  0.1904828E-004  0.3000000E+03  0.7818608E-02  0.1093470E+00
          1   -1    0    0  502    0  0.00000000000E+00  0.00000000000E+00  0.34247923384E+02  0.34247923384E+02  0.00000000000E+00 0.  1.
         13   -1    0    0    0    0 -0.00000000000E+00 -0.00000000000E+00 -0.10000000000E+04  0.10000000000E+04  0.00000000000E+00 0.  1.
    9000005    2    1    2  501    0 -0.37650122346E+02 -0.26516637725E+02 -0.90239329987E+03  0.95592169292E+03  0.31201274259E+03 0.  0.
         13    1    3    3    0    0 -0.10642671161E+03 -0.10433559464E+03 -0.22037188065E+03  0.26603820597E+03  0.00000000000E+00 0.  1.
          1    1    3    3  501    0  0.68776589264E+02  0.77818956914E+02 -0.68202141922E+03  0.68988348695E+03  0.00000000000E+00 0.  1.
         21    1    1    2  502  501  0.37650122346E+02  0.26516637725E+02 -0.63358776743E+02  0.78326230467E+02  0.00000000000E+00 0.  1.
<mgrwt>
<rscale>  1 0.30000000E+03</rscale>
<asrwt>0</asrwt>
<pdfrwt beam="1">  1        1 0.12453817E+00 0.30000000E+03</pdfrwt>
<pdfrwt beam="2">0</pdfrwt>
<totfact> 0.24518165E+01</totfact>
</mgrwt>
</event>
<event>
 6    1  0.1904828E-004  0.3000000E+03  0.7818608E-02  0.1093470E+00
          1   -1    0    0  502    0  0.00000000000E+00  0.00000000000E+00  0.30443483432E+02  0.30443483432E+02  0.00000000000E+00 0.  1.
         13   -1    0    0    0    0 -0.00000000000E+00 -0.00000000000E+00 -0.10000000000E+04  0.10000000000E+04  0.00000000000E+00 0.  1.
    9000005    2    1    2  501    0 -0.58286327915E+01  0.20107128659E+02 -0.94384322324E+03  0.99728563313E+03  0.32140369382E+03 0.  0.
         13    1    3    3    0    0  0.10758662802E+03 -0.17180606251E+01 -0.10436488729E+03  0.14989951287E+03  0.00000000000E+00 0.  1.
          3    1    3    3  501    0 -0.11341526081E+03  0.21825189284E+02 -0.83947833595E+03  0.84738612025E+03  0.00000000000E+00 0.  1.
         21    1    1    2  502  501  0.58286327915E+01 -0.20107128659E+02 -0.25713293327E+02  0.33157850305E+02  0.00000000000E+00 0. -1.
<mgrwt>
<rscale>  1 0.30000000E+03</rscale>
<asrwt>0</asrwt>
<pdfrwt beam="1">  1        1 0.11070381E+00 0.30000000E+03</pdfrwt>
<pdfrwt beam="2">0</pdfrwt>
<totfact> 0.29424623E+01</totfact>
</mgrwt>
</event>
<event>
 6    1  0.1904828E-004  0.3000000E+03  0.7818608E-02  0.1093470E+00
          1   -1    0    0  502    0  0.00000000000E+00  0.00000000000E+00  0.37368926992E+02  0.37368926992E+02  0.00000000000E+00 0.  1.
         13   -1    0    0    0    0 -0.00000000000E+00 -0.00000000000E+00 -0.10000000000E+04  0.10000000000E+04  0.00000000000E+00 0.  1.
    9000005    2    1    2  501    0 -0.10101213477E+02 -0.57023736895E+01 -0.97519914452E+03  0.10202660617E+04  0.29965799440E+03 0.  0.
         13    1    3    3    0    0  0.12221968000E+03  0.75471847299E+02 -0.51046592207E+03  0.53029153067E+03  0.00000000000E+00 0.  1.
          3    1    3    3  501    0 -0.13232089348E+03 -0.81174220988E+02 -0.46473322246E+03  0.48997453103E+03  0.00000000000E+00 0.  1.
         21    1    1    2  502  501  0.10101213477E+02  0.57023736895E+01  0.12568071515E+02  0.17102865287E+02  0.00000000000E+00 0.  1.
<mgrwt>
<rscale>  1 0.30000000E+03</rscale>
<asrwt>0</asrwt>
<pdfrwt beam="1">  1        1 0.13588729E+00 0.30000000E+03</pdfrwt>
<pdfrwt beam="2">0</pdfrwt>
<totfact> 0.21269651E+01</totfact>
</mgrwt>
</event>
<event>
 6    1  0.1904828E-004  0.3000000E+03  0.7818608E-02  0.1093470E+00
          1   -1    0    0  502    0  0.00000000000E+00  0.00000000000E+00  0.50370231236E+02  0.50370231236E+02  0.00000000000E+00 0.  1.
         13   -1    0    0    0    0 -0.00000000000E+00 -0.00000000000E+00 -0.10000000000E+04  0.10000000000E+04  0.00000000000E+00 0.  1.
    9000005    2    1    2  501    0 -0.14704861304E+02  0.10834276106E+02 -0.96490854901E+03  0.10265573018E+04  0.34991109062E+03 0.  0.
         13    1    3    3    0    0 -0.81483022008E+02  0.11458749629E+03 -0.16322752914E+03  0.21543677368E+03  0.00000000000E+00 0.  1.
          1    1    3    3  501    0  0.66778160704E+02 -0.10375322018E+03 -0.80168101987E+03  0.81112052808E+03  0.00000000000E+00 0.  1.
         21    1    1    2  502  501  0.14704861304E+02 -0.10834276106E+02  0.15278780249E+02  0.23812929485E+02  0.00000000000E+00 0.  1.
<mgrwt>
<rscale>  1 0.30000000E+03</rscale>
<asrwt>0</asrwt>
<pdfrwt beam="1">  1        1 0.18316486E+00 0.30000000E+03</pdfrwt>
<pdfrwt beam="2">0</pdfrwt>
<totfact> 0.12332760E+01</totfact>
</mgrwt>
</event>
<event>
 6    1  0.1904828E-004  0.3000000E+03  0.7818608E-02  0.1093470E+00
          1   -1    0    0  502    0  0.00000000000E+00  0.00000000000E+00  0.20116326387E+02  0.20116326387E+02  0.00000000000E+00 0.  1.
         13   -1    0    0    0    0 -0.00000000000E+00 -0.00000000000E+00 -0.10000000000E+04  0.10000000000E+04  0.00000000000E+00 0.  1.
    9000005    2    1    2  501    0 -0.47779216480E+01  0.15270359680E+02 -0.94975856684E+03  0.98600570520E+03  0.26440480890E+03 0.  0.
         13    1    3    3    0    0  0.96928857022E+02 -0.23968633412E+02 -0.76496211997E+03  0.77145106372E+03  0.00000000000E+00 0.  1.
          3    1    3    3  501    0 -0.10170677867E+03  0.39238993092E+02 -0.18479644687E+03  0.21455464148E+03  0.00000000000E+00 0.  1.
         21    1    1    2  502  501  0.47779216480E+01 -0.15270359680E+02 -0.30125106771E+02  0.34110621191E+02  0.00000000000E+00 0.  1.
<mgrwt>
<rscale>  1 0.30000000E+03</rscale>
<asrwt>0</asrwt>
<pdfrwt beam="1">  1        1 0.73150432E-01 0.30000000E+03</pdfrwt>
<pdfrwt beam="2">0</pdfrwt>
<totfact> 0.53106504E+01</totfact>
</mgrwt>
</event>
<event>
 6    1  0.1904828E-004  0.3000000E+03  0.7818608E-02  0.1093470E+00
          1   -1    0    0  502    0  0.00000000000E+00  0.00000000000E+00  0.30109854007E+02  0.30109854007E+02  0.00000000000E+00 0.  1.
         13   -1    0    0    0    0 -0.00000000000E+00 -0.00000000000E+00 -0.10000000000E+04  0.10000000000E+04  0.00000000000E+00 0.  1.
    9000005    2    1    2  501    0 -0.55672486545E+01  0.17415872669E+02 -0.95420324409E+03  0.10060186571E+04  0.31817510976E+03 0.  0.
         13    1    3    3    0    0  0.11442509299E+03 -0.73245119325E+01 -0.13246014681E+03  0.17519258225E+03  0.00000000000E+00 0.  1.
          3    1    3    3  501    0 -0.11999234165E+03  0.24740384602E+02 -0.82174309728E+03  0.83082607482E+03  0.00000000000E+00 0.  1.
         21    1    1    2  502  501  0.55672486545E+01 -0.17415872669E+02 -0.15686901905E+02  0.24091196936E+02  0.00000000000E+00 0. -1.
<mgrwt>
<rscale>  1 0.30000000E+03</rscale>
<asrwt>0</asrwt>
<pdfrwt beam="1">  1        1 0.10949061E+00 0.30000000E+03</pdfrwt>
<pdfrwt beam="2">0</pdfrwt>
<totfact> 0.29918378E+01</totfact>
</mgrwt>
</event>
<event>
 6    1  0.1904828E-004  0.3000000E+03  0.7818608E-02  0.1093470E+00
          1   -1    0    0  502    0  0.00000000000E+00  0.00000000000E+00  0.32294841943E+02  0.32294841943E+02  0.00000000000E+00 0.  1.
         13   -1    0    0    0    0 -0.00000000000E+00 -0.00000000000E+00 -0.10000000000E+04  0.10000000000E+04  0.00000000000E+00 0.  1.
    9000005    2    1    2  501    0 -0.41350481516E+02  0.19744872927E+02 -0.88423593528E+03  0.93707492029E+03  0.30681671185E+03 0.  0.
         13    1    3    3    0    0  0.24600314205E+02  0.38476782031E+02  0.43248497003E+01  0.45873113470E+02  0.00000000000E+00 0.  1.
          1    1    3    3  501    0 -0.65950795721E+02 -0.18731909105E+02 -0.88856078498E+03  0.89120180682E+03  0.00000000000E+00 0.  1.
         21    1    1    2  502  501  0.41350481516E+02 -0.19744872927E+02 -0.83469222778E+02  0.95219921654E+02  0.00000000000E+00 0.  1.
<mgrwt>
<rscale>  1 0.30000000E+03</rscale>
<asrwt>0</asrwt>
<pdfrwt beam="1">  1        1 0.11743604E+00 0.30000000E+03</pdfrwt>
<pdfrwt beam="2">0</pdfrwt>
<totfact> 0.26883732E+01</totfact>
</mgrwt>
</event>
<event>
 6    1  0.1904828E-004  0.3000000E+03  0.7818608E-02  0.1093470E+00
          3   -1    0    0  502    0  0.00000000000E+00  0.00000000000E+00  0.32660939401E+02  0.32660939401E+02  0.00000000000E+00 0.  1.
         13   -1    0    0    0    0 -0.00000000000E+00 -0.00000000000E+00 -0.10000000000E+04  0.10000000000E+04  0.00000000000E+00 0.  1.
    9000005    2    1    2  501    0 -0.46287284266E+01 -0.19764490544E+02 -0.94714491600E+03  0.10040276775E+04  0.33252973549E+03 0.  0.
         13    1    3    3    0    0  0.10037321119E+03 -0.56259858022E+02 -0.10884479140E+03  0.15838920975E+03  0.00000000000E+00 0.  1.
          3    1    3    3  501    0 -0.10500193962E+03  0.36495367478E+02 -0.83830012460E+03  0.84563846771E+03  0.00000000000E+00 0.  1.
         21    1    1    2  502  501  0.46287284266E+01  0.19764490544E+02 -0.20194144596E+02  0.28633261939E+02  0.00000000000E+00 0. -1.
<mgrwt>
<rscale>  1 0.30000000E+03</rscale>
<asrwt>0</asrwt>
<pdfrwt beam="1">  1        3 0.11876730E+00 0.30000000E+03</pdfrwt>
<pdfrwt beam="2">0</pdfrwt>
<totfact> 0.23902988E+00</totfact>
</mgrwt>
</event>
<event>
 6    1  0.1904828E-004  0.3000000E+03  0.7818608E-02  0.1093470E+00
          1   -1    0    0  502    0  0.00000000000E+00  0.00000000000E+00  0.51217629070E+02  0.51217629070E+02  0.00000000000E+00 0.  1.
         13   -1    0    0    0    0 -0.00000000000E+00 -0.00000000000E+00 -0.10000000000E+04  0.10000000000E+04  0.00000000000E+00 0.  1.
    9000005    2    1    2  501    0 -0.29921483501E+02  0.11509335027E+02 -0.96212816530E+03  0.10164919873E+04  0.32640097098E+03 0.  0.
         13    1    3    3    0    0 -0.17549101688E+03  0.33755045062E+02 -0.58275367227E+03  0.60953945124E+03  0.00000000000E+00 0.  1.
          3    1    3    3  501    0  0.14556953338E+03 -0.22245710035E+02 -0.37937449303E+03  0.40695253608E+03  0.00000000000E+00 0.  1.
         21    1    1    2  502  501  0.29921483501E+02 -0.11509335027E+02  0.13345794366E+02  0.34725641750E+02  0.00000000000E+00 0.  1.
<mgrwt>
<rscale>  1 0.30000000E+03</rscale>
<asrwt>0</asrwt>
<pdfrwt beam="1">  1        1 0.18624632E+00 0.30000000E+03</pdfrwt>
<pdfrwt beam="2">0</pdfrwt>
<totfact> 0.11918764E+01</totfact>
</mgrwt>
</event>
<event>
 6    1  0.1904828E-004  0.3000000E+03  0.7818608E-02  0.1093470E+00
          3   -1    0    0  502    0  0.00000000000E+00  0.00000000000E+00  0.39624591034E+02  0.39624591034E+02  0.00000000000E+00 0.  1.
         13   -1    0    0    0    0 -0.00000000000E+00 -0.00000000000E+00 -0.10000000000E+04  0.10000000000E+04  0.00000000000E+00 0.  1.
    9000005    2    1    2  501    0  0.51723366236E+02  0.23793635286E+02 -0.87748150029E+03  0.93906195488E+03  0.32957871299E+03 0.  0.
         13    1    3    3    0    0 -0.51061055262E+02  0.44463447205E+02 -0.13874000835E+02  0.69113800365E+02  0.00000000000E+00 0.  1.
          3    1    3    3  501    0  0.10278442150E+03 -0.20669811919E+02 -0.86360749945E+03  0.86994815451E+03  0.00000000000E+00 0.  1.
         21    1    1    2  502  501 -0.51723366236E+02 -0.23793635286E+02 -0.82893908677E+02  0.10056263616E+03  0.00000000000E+00 0.  1.
<mgrwt>
<rscale>  1 0.30000000E+03</rscale>
<asrwt>0</asrwt>
<pdfrwt beam="1">  1        3 0.14408973E+00 0.30000000E+03</pdfrwt>
<pdfrwt beam="2">0</pdfrwt>
<totfact> 0.11872190E+00</totfact>
</mgrwt>
</event>
<event>
 6    1  0.1904828E-004  0.3000000E+03  0.7818608E-02  0.1093470E+00
          1   -1    0    0  502    0  0.00000000000E+00  0.00000000000E+00  0.31615341790E+02  0.31615341790E+02  0.00000000000E+00 0.  1.
         13   -1    0    0    0    0 -0.00000000000E+00 -0.00000000000E+00 -0.10000000000E+04  0.10000000000E+04  0.00000000000E+00 0.  1.
    9000005    2    1    2  501    0 -0.62851881586E+00 -0.11523221205E+02 -0.96303522776E+03  0.10188954334E+04  0.33253251671E+03 0.  0.
         13    1    3    3    0    0 -0.10819690002E+03 -0.90277075428E+02 -0.77902398049E+03  0.79166589019E+03  0.00000000000E+00 0.  1.
          1    1    3    3  501    0  0.10756838121E+03  0.78753854223E+02 -0.18401124728E+03  0.22722954323E+03  0.00000000000E+00 0.  1.
         21    1    1    2  502  501  0.62851881586E+00  0.11523221205E+02 -0.53494304456E+01  0.12719908370E+02  0.00000000000E+00 0. -1.
<mgrwt>
<rscale>  1 0.30000000E+03</rscale>
<asrwt>0</asrwt>
<pdfrwt beam="1">  1        1 0.11496512E+00 0.30000000E+03</pdfrwt>
<pdfrwt beam="2">0</pdfrwt>
<totfact> 0.27779054E+01</totfact>
</mgrwt>
</event>
<event>
 6    1  0.1904828E-004  0.3000000E+03  0.7818608E-02  0.1093470E+00
          1   -1    0    0  502    0  0.00000000000E+00  0.00000000000E+00  0.65691111858E+02  0.65691111858E+02  0.00000000000E+00 0.  1.
         13   -1    0    0    0    0 -0.00000000000E+00 -0.00000000000E+00 -0.10000000000E+04  0.10000000000E+04  0.00000000000E+00 0.  1.
    9000005    2    1    2  501    0  0.45929237200E+01  0.60504656150E+02 -0.94705616628E+03  0.10036878743E+04  0.32679054244E+03 0.  0.
         13    1    3    3    0    0  0.82308689578E+02  0.11032851587E+03 -0.15926056331E+03  0.21050184992E+03  0.00000000000E+00 0.  1.
          3    1    3    3  501    0 -0.77715765858E+02 -0.49823859721E+02 -0.78779560297E+03  0.79318602441E+03  0.00000000000E+00 0.  1.
         21    1    1    2  502  501 -0.45929237200E+01 -0.60504656150E+02  0.12747278136E+02  0.62003237529E+02  0.00000000000E+00 0.  1.
<mgrwt>
<rscale>  1 0.30000000E+03</rscale>
<asrwt>0</asrwt>
<pdfrwt beam="1">  1        1 0.23887727E+00 0.30000000E+03</pdfrwt>
<pdfrwt beam="2">0</pdfrwt>
<totfact> 0.67248651E+00</totfact>
</mgrwt>
</event>
<event>
 6    1  0.1904828E-004  0.3000000E+03  0.7818608E-02  0.1093470E+00
          1   -1    0    0  502    0  0.00000000000E+00  0.00000000000E+00  0.35685155524E+02  0.35685155524E+02  0.00000000000E+00 0.  1.
         13   -1    0    0    0    0 -0.00000000000E+00 -0.00000000000E+00 -0.10000000000E+04  0.10000000000E+04  0.00000000000E+00 0.  1.
    9000005    2    1    2  501    0  0.10303572067E+02  0.11080820009E+02 -0.96555423652E+03  0.10205034474E+04  0.33000508223E+03 0.  0.
         13    1    3    3    0    0  0.36924465941E+02  0.92528259364E+02 -0.91623686692E+03  0.92163707134E+03  0.00000000000E+00 0.  1.
          1    1    3    3  501    0 -0.26620893873E+02 -0.81447439355E+02 -0.49317369599E+02  0.98866376045E+02  0.00000000000E+00 0.  1.
         21    1    1    2  502  501 -0.10303572067E+02 -0.11080820009E+02  0.12393920405E+01  0.15181708140E+02  0.00000000000E+00 0. -1.
<mgrwt>
<rscale>  1 0.30000000E+03</rscale>
<asrwt>0</asrwt>
<pdfrwt beam="1">  1        1 0.12976448E+00 0.30000000E+03</pdfrwt>
<pdfrwt beam="2">0</pdfrwt>
<totfact> 0.22947469E+01</totfact>
</mgrwt>
</event>
<event>
 6    1  0.1904828E-004  0.3000000E+03  0.7818608E-02  0.1093470E+00
          1   -1    0    0  502    0  0.00000000000E+00  0.00000000000E+00  0.34817370549E+02  0.34817370549E+02  0.00000000000E+00 0.  1.
         13   -1    0    0    0    0 -0.00000000000E+00 -0.00000000000E+00 -0.10000000000E+04  0.10000000000E+04  0.00000000000E+00 0.  1.
    9000005    2    1    2  501    0  0.14733587444E+02 -0.13526795415E+01 -0.96550601038E+03  0.10200182856E+04  0.32865869605E+03 0.  0.
         13    1    3    3    0    0  0.12741540884E+03 -0.31568958519E+02 -0.83381426561E+03  0.84408383179E+03  0.00000000000E+00 0.  1.
          1    1    3    3  501    0 -0.11268182140E+03  0.30216278977E+02 -0.13169174476E+03  0.17593445378E+03  0.00000000000E+00 0.  1.
         21    1    1    2  502  501 -0.14733587444E+02  0.13526795415E+01  0.32338092721E+00  0.14799084976E+02  0.00000000000E+00 0.  1.
<mgrwt>
<rscale>  1 0.30000000E+03</rscale>
<asrwt>0</asrwt>
<pdfrwt beam="1">  1        1 0.12660889E+00 0.30000000E+03</pdfrwt>
<pdfrwt beam="2">0</pdfrwt>
<totfact> 0.23879859E+01</totfact>
</mgrwt>
</event>
<event>
 6    1  0.1904828E-004  0.3000000E+03  0.7818608E-02  0.1093470E+00
          1   -1    0    0  502    0  0.00000000000E+00  0.00000000000E+00  0.37202890650E+02  0.37202890650E+02  0.00000000000E+00 0.  1.
         13   -1    0    0    0    0 -0.00000000000E+00 -0.00000000000E+00 -0.10000000000E+04  0.10000000000E+04  0.00000000000E+00 0.  1.
    9000005    2    1    2  501    0 -0.87916624441E+01  0.97414186842E+01 -0.97148329921E+03  0.10214663580E+04  0.31534351310E+03 0.  0.
         13    1    3    3    0    0 -0.53630943302E+02  0.10547213629E+02 -0.97495474859E+03  0.97648568018E+03  0.00000000000E+00 0.  1.
          3    1    3    3  501    0  0.44839280858E+02 -0.80579494509E+00  0.34714493843E+01  0.44980677787E+02  0.00000000000E+00 0.  1.
         21    1    1    2  502  501  0.87916624441E+01 -0.97414186842E+01  0.86861898604E+01  0.15736532680E+02  0.00000000000E+00 0. -1.
<mgrwt>
<rscale>  1 0.30000000E+03</rscale>
<asrwt>0</asrwt>
<pdfrwt beam="1">  1        1 0.13528352E+00 0.30000000E+03</pdfrwt>
<pdfrwt beam="2">0</pdfrwt>
<totfact> 0.21427735E+01</totfact>
</mgrwt>
</event>
<event>
 6    1  0.1904828E-004  0.3000000E+03  0.7818608E-02  0.1093470E+00
          1   -1    0    0  502    0  0.00000000000E+00  0.00000000000E+00  0.30806953744E+02  0.30806953744E+02  0.00000000000E+00 0.  1.
         13   -1    0    0    0    0 -0.00000000000E+00 -0.00000000000E+00 -0.10000000000E+04  0.10000000000E+04  0.00000000000E+00 0.  1.
    9000005    2    1    2  501    0 -0.11996729486E+02  0.12400083010E+02 -0.93800449677E+03  0.99516415368E+03  0.33196622304E+03 0.  0.
         13    1    3    3    0    0 -0.16971575653E+02  0.16392649345E+03 -0.33431196408E+03  0.37272566180E+03  0.00000000000E+00 0.  1.
          1    1    3    3  501    0  0.49748461678E+01 -0.15152641044E+03 -0.60369253269E+03  0.62243849189E+03  0.00000000000E+00 0.  1.
         21    1    1    2  502  501  0.11996729486E+02 -0.12400083010E+02 -0.31188549489E+02  0.35642800062E+02  0.00000000000E+00 0. -1.
<mgrwt>
<rscale>  1 0.30000000E+03</rscale>
<asrwt>0</asrwt>
<pdfrwt beam="1">  1        1 0.11202552E+00 0.30000000E+03</pdfrwt>
<pdfrwt beam="2">0</pdfrwt>
<totfact> 0.28899734E+01</totfact>
</mgrwt>
</event>
<event>
 6    1  0.1904828E-004  0.3000000E+03  0.7818608E-02  0.1093470E+00
          1   -1    0    0  502    0  0.00000000000E+00  0.00000000000E+00  0.20726890374E+02  0.20726890374E+02  0.00000000000E+00 0.  1.
         13   -1    0    0    0    0 -0.00000000000E+00 -0.00000000000E+00 -0.10000000000E+04  0.10000000000E+04  0.00000000000E+00 0.  1.
    9000005    2    1    2  501    0  0.27351328070E+02 -0.24564951124E+02 -0.93220348533E+03  0.96100184117E+03  0.23058549109E+03 0.  0.
         13    1    3    3    0    0  0.11408782884E+03  0.22285715007E+02 -0.68628408618E+03  0.69605928823E+03  0.00000000000E+00 0.  1.
          3    1    3    3  501    0 -0.86736500769E+02 -0.46850666132E+02 -0.24591939914E+03  0.26494255294E+03  0.00000000000E+00 0.  1.
         21    1    1    2  502  501 -0.27351328070E+02  0.24564951124E+02 -0.47069624300E+02  0.59725049207E+02  0.00000000000E+00 0.  1.
<mgrwt>
<rscale>  1 0.30000000E+03</rscale>
<asrwt>0</asrwt>
<pdfrwt beam="1">  1        1 0.75370669E-01 0.30000000E+03</pdfrwt>
<pdfrwt beam="2">0</pdfrwt>
<totfact> 0.50979983E+01</totfact>
</mgrwt>
</event>
<event>
 6    1  0.1904828E-004  0.3000000E+03  0.7818608E-02  0.1093470E+00
          1   -1    0    0  502    0  0.00000000000E+00  0.00000000000E+00  0.36516728937E+02  0.36516728937E+02  0.00000000000E+00 0.  1.
         13   -1    0    0    0    0 -0.00000000000E+00 -0.00000000000E+00 -0.10000000000E+04  0.10000000000E+04  0.00000000000E+00 0.  1.
    9000005    2    1    2  501    0 -0.17249222392E+02  0.88115428408E+01 -0.96084323495E+03  0.10169681036E+04  0.33260971530E+03 0.  0.
         13    1    3    3    0    0  0.30721765247E+02 -0.15728426665E+03 -0.45514902180E+03  0.48253787358E+03  0.00000000000E+00 0.  1.
          1    1    3    3  501    0 -0.47970987640E+02  0.16609580949E+03 -0.50569421315E+03  0.53443023006E+03  0.00000000000E+00 0.  1.
         21    1    1    2  502  501  0.17249222392E+02 -0.88115428408E+01 -0.26400361137E+01  0.19548625298E+02  0.00000000000E+00 0.  1.
<mgrwt>
<rscale>  1 0.30000000E+03</rscale>
<asrwt>0</asrwt>
<pdfrwt beam="1">  1        1 0.13278839E+00 0.30000000E+03</pdfrwt>
<pdfrwt beam="2">0</pdfrwt>
<totfact> 0.22097853E+01</totfact>
</mgrwt>
</event>
<event>
 6    1  0.1904828E-004  0.3000000E+03  0.7818608E-02  0.1093470E+00
          1   -1    0    0  502    0  0.00000000000E+00  0.00000000000E+00  0.48403378770E+02  0.48403378770E+02  0.00000000000E+00 0.  1.
         13   -1    0    0    0    0 -0.00000000000E+00 -0.00000000000E+00 -0.10000000000E+04  0.10000000000E+04  0.00000000000E+00 0.  1.
    9000005    2    1    2  501    0  0.21311295543E+02  0.96670574921E+02 -0.69741901730E+03  0.77562943259E+03  0.32466653606E+03 0.  0.
         13    1    3    3    0    0  0.13731595439E+03  0.65540626942E+02 -0.60566252288E+03  0.62448245510E+03  0.00000000000E+00 0.  1.
          1    1    3    3  501    0 -0.11600465885E+03  0.31129947979E+02 -0.91756494420E+02  0.15114697749E+03  0.00000000000E+00 0.  1.
         21    1    1    2  502  501 -0.21311295543E+02 -0.96670574921E+02 -0.25417760393E+03  0.27277394618E+03  0.00000000000E+00 0.  1.
<mgrwt>
<rscale>  1 0.30000000E+03</rscale>
<asrwt>0</asrwt>
<pdfrwt beam="1">  1        1 0.17601266E+00 0.30000000E+03</pdfrwt>
<pdfrwt beam="2">0</pdfrwt>
<totfact> 0.13355705E+01</totfact>
</mgrwt>
</event>
<event>
 6    1  0.1904828E-004  0.3000000E+03  0.7818608E-02  0.1093470E+00
          1   -1    0    0  502    0  0.00000000000E+00  0.00000000000E+00  0.36166278590E+02  0.36166278590E+02  0.00000000000E+00 0.  1.
         13   -1    0    0    0    0 -0.00000000000E+00 -0.00000000000E+00 -0.10000000000E+04  0.10000000000E+04  0.00000000000E+00 0.  1.
    9000005    2    1    2  501    0 -0.37337385080E+02  0.30711177460E+02 -0.87635345124E+03  0.93621601889E+03  0.32583401568E+03 0.  0.
         13    1    3    3    0    0 -0.84889627333E+02 -0.12539959102E+03 -0.56178060565E+03  0.58183223969E+03  0.00000000000E+00 0.  1.
          1    1    3    3  501    0  0.47552242253E+02  0.15611076848E+03 -0.31457284559E+03  0.35438377920E+03  0.00000000000E+00 0.  1.
         21    1    1    2  502  501  0.37337385080E+02 -0.30711177460E+02 -0.87480270167E+02  0.99950259700E+02  0.00000000000E+00 0.  1.
<mgrwt>
<rscale>  1 0.30000000E+03</rscale>
<asrwt>0</asrwt>
<pdfrwt beam="1">  1        1 0.13151402E+00 0.30000000E+03</pdfrwt>
<pdfrwt beam="2">0</pdfrwt>
<totfact> 0.22450802E+01</totfact>
</mgrwt>
</event>
<event>
 6    1  0.1904828E-004  0.3000000E+03  0.7818608E-02  0.1093470E+00
          1   -1    0    0  502    0  0.00000000000E+00  0.00000000000E+00  0.32876383523E+02  0.32876383523E+02  0.00000000000E+00 0.  1.
         13   -1    0    0    0    0 -0.00000000000E+00 -0.00000000000E+00 -0.10000000000E+04  0.10000000000E+04  0.00000000000E+00 0.  1.
    9000005    2    1    2  501    0 -0.96501741414E+01  0.39756294815E+01 -0.96210765652E+03  0.10212966018E+04  0.34247142157E+03 0.  0.
         13    1    3    3    0    0  0.20439417999E+02 -0.57471341499E+01  0.25500441121E+02  0.33182402813E+02  0.00000000000E+00 0.  1.
          3    1    3    3  501    0 -0.30089592140E+02  0.97227636315E+01 -0.98760809764E+03  0.98811419898E+03  0.00000000000E+00 0.  1.
         21    1    1    2  502  501  0.96501741414E+01 -0.39756294815E+01 -0.50159599542E+01  0.11579781734E+02  0.00000000000E+00 0.  1.
<mgrwt>
<rscale>  1 0.30000000E+03</rscale>
<asrwt>0</asrwt>
<pdfrwt beam="1">  1        1 0.11955074E+00 0.30000000E+03</pdfrwt>
<pdfrwt beam="2">0</pdfrwt>
<totfact> 0.26148672E+01</totfact>
</mgrwt>
</event>
<event>
 6    1  0.1904828E-004  0.3000000E+03  0.7818608E-02  0.1093470E+00
          1   -1    0    0  502    0  0.00000000000E+00  0.00000000000E+00  0.53410303608E+02  0.53410303608E+02  0.00000000000E+00 0.  1.
         13   -1    0    0    0    0 -0.00000000000E+00 -0.00000000000E+00 -0.10000000000E+04  0.10000000000E+04  0.00000000000E+00 0.  1.
    9000005    2    1    2  501    0  0.49636939656E+02 -0.46698417655E+01 -0.94431340386E+03  0.10035022411E+04  0.33586203995E+03 0.  0.
         13    1    3    3    0    0  0.41993245421E+02  0.22780963298E+02  0.99614831775E+01  0.48802009148E+02  0.00000000000E+00 0.  1.
          3    1    3    3  501    0  0.76436942345E+01 -0.27450805064E+02 -0.95427488704E+03  0.95470023190E+03  0.00000000000E+00 0.  1.
         21    1    1    2  502  501 -0.49636939656E+02  0.46698417655E+01 -0.22762925296E+01  0.49908062557E+02  0.00000000000E+00 0.  1.
<mgrwt>
<rscale>  1 0.30000000E+03</rscale>
<asrwt>0</asrwt>
<pdfrwt beam="1">  1        1 0.19421970E+00 0.30000000E+03</pdfrwt>
<pdfrwt beam="2">0</pdfrwt>
<totfact> 0.10913994E+01</totfact>
</mgrwt>
</event>
<event>
 6    1  0.1904828E-004  0.3000000E+03  0.7818608E-02  0.1093470E+00
          1   -1    0    0  502    0  0.00000000000E+00  0.00000000000E+00  0.29963799333E+02  0.29963799333E+02  0.00000000000E+00 0.  1.
         13   -1    0    0    0    0 -0.00000000000E+00 -0.00000000000E+00 -0.10000000000E+04  0.10000000000E+04  0.00000000000E+00 0.  1.
    9000005    2    1    2  501    0 -0.17827691363E+02 -0.46602235423E+01 -0.92577716292E+03  0.98202209843E+03  0.32705428015E+03 0.  0.
         13    1    3    3    0    0  0.93907456665E+02 -0.85364988627E+02 -0.73941709905E+03  0.75022892378E+03  0.00000000000E+00 0.  1.
          3    1    3    3  501    0 -0.11173514803E+03  0.80704765085E+02 -0.18636006386E+03  0.23179317465E+03  0.00000000000E+00 0.  1.
         21    1    1    2  502  501  0.17827691363E+02  0.46602235423E+01 -0.44259037750E+02  0.47941700902E+02  0.00000000000E+00 0.  1.
<mgrwt>
<rscale>  1 0.30000000E+03</rscale>
<asrwt>0</asrwt>
<pdfrwt beam="1">  1        1 0.10895950E+00 0.30000000E+03</pdfrwt>
<pdfrwt beam="2">0</pdfrwt>
<totfact> 0.30138243E+01</totfact>
</mgrwt>
</event>
<event>
 6    1  0.1904828E-004  0.3000000E+03  0.7818608E-02  0.1093470E+00
          1   -1    0    0  502    0  0.00000000000E+00  0.00000000000E+00  0.37582269883E+02  0.37582269883E+02  0.00000000000E+00 0.  1.
         13   -1    0    0    0    0 -0.00000000000E+00 -0.00000000000E+00 -0.10000000000E+04  0.10000000000E+04  0.00000000000E+00 0.  1.
    9000005    2    1    2  501    0  0.15711632204E+02  0.34557866589E+01 -0.95230454620E+03  0.10185803137E+04  0.36105831801E+03 0.  0.
         13    1    3    3    0    0 -0.15447032234E+03  0.80978613413E+02 -0.45943453217E+03  0.49142517809E+03  0.00000000000E+00 0.  1.
          3    1    3    3  501    0  0.17018195454E+03 -0.77522826755E+02 -0.49287001403E+03  0.52715513566E+03  0.00000000000E+00 0.  1.
         21    1    1    2  502  501 -0.15711632204E+02 -0.34557866589E+01 -0.10113183921E+02  0.19001956135E+02  0.00000000000E+00 0.  1.
<mgrwt>
<rscale>  1 0.30000000E+03</rscale>
<asrwt>0</asrwt>
<pdfrwt beam="1">  1        1 0.13666309E+00 0.30000000E+03</pdfrwt>
<pdfrwt beam="2">0</pdfrwt>
<totfact> 0.21068807E+01</totfact>
</mgrwt>
</event>
<event>
 6    1  0.1904828E-004  0.3000000E+03  0.7818608E-02  0.1093470E+00
          1   -1    0    0  502    0  0.00000000000E+00  0.00000000000E+00  0.44655853833E+02  0.44655853833E+02  0.00000000000E+00 0.  1.
         13   -1    0    0    0    0 -0.00000000000E+00 -0.00000000000E+00 -0.10000000000E+04  0.10000000000E+04  0.00000000000E+00 0.  1.
    9000005    2    1    2  501    0  0.13923120755E+02 -0.85684422725E+01 -0.97015583476E+03  0.10225955362E+04  0.32284983422E+03 0.  0.
         13    1    3    3    0    0 -0.75591840079E+02 -0.96775852682E+02 -0.80882279289E+03  0.81809168328E+03  0.00000000000E+00 0.  1.
          3    1    3    3  501    0  0.89514960834E+02  0.88207410409E+02 -0.16133304187E+03  0.20450385293E+03  0.00000000000E+00 0.  1.
         21    1    1    2  502  501 -0.13923120755E+02  0.85684422725E+01  0.14811688597E+02  0.22060317623E+02  0.00000000000E+00 0.  1.
<mgrwt>
<rscale>  1 0.30000000E+03</rscale>
<asrwt>0</asrwt>
<pdfrwt beam="1">  1        1 0.16238527E+00 0.30000000E+03</pdfrwt>
<pdfrwt beam="2">0</pdfrwt>
<totfact> 0.15573243E+01</totfact>
</mgrwt>
</event>
<event>
 6    1  0.1904828E-004  0.3000000E+03  0.7818608E-02  0.1093470E+00
          1   -1    0    0  502    0  0.00000000000E+00  0.00000000000E+00  0.33861218471E+02  0.33861218471E+02  0.00000000000E+00 0.  1.
         13   -1    0    0    0    0 -0.00000000000E+00 -0.00000000000E+00 -0.10000000000E+04  0.10000000000E+04  0.00000000000E+00 0.  1.
    9000005    2    1    2  501    0  0.53527426616E+01 -0.87175676097E+01 -0.96879264127E+03  0.10232928312E+04  0.32933932146E+03 0.  0.
         13    1    3    3    0    0 -0.13682837865E+03  0.79731932333E+02 -0.54748120215E+03  0.56992530471E+03  0.00000000000E+00 0.  1.
          3    1    3    3  501    0  0.14218112131E+03 -0.88449499943E+02 -0.42131143912E+03  0.45336752644E+03  0.00000000000E+00 0.  1.
         21    1    1    2  502  501 -0.53527426616E+01  0.87175676097E+01  0.26538597434E+01  0.10568387321E+02  0.00000000000E+00 0.  1.
<mgrwt>
<rscale>  1 0.30000000E+03</rscale>
<asrwt>0</asrwt>
<pdfrwt beam="1">  1        1 0.12313196E+00 0.30000000E+03</pdfrwt>
<pdfrwt beam="2">0</pdfrwt>
<totfact> 0.24964067E+01</totfact>
</mgrwt>
</event>
<event>
 6    1  0.1904828E-004  0.3000000E+03  0.7818608E-02  0.1093470E+00
          1   -1    0    0  502    0  0.00000000000E+00  0.00000000000E+00  0.43650928906E+02  0.43650928906E+02  0.00000000000E+00 0.  1.
         13   -1    0    0    0    0 -0.00000000000E+00 -0.00000000000E+00 -0.10000000000E+04  0.10000000000E+04  0.00000000000E+00 0.  1.
    9000005    2    1    2  501    0  0.23463821409E+02 -0.24224515905E+01 -0.93853000548E+03  0.10140884817E+04  0.38338030504E+03 0.  0.
         13    1    3    3    0    0 -0.16222206685E+03  0.83663375707E+01 -0.65613155068E+03  0.67593979493E+03  0.00000000000E+00 0.  1.
          1    1    3    3  501    0  0.18568588826E+03 -0.10788789161E+02 -0.28239845480E+03  0.33814868674E+03  0.00000000000E+00 0.  1.
         21    1    1    2  502  501 -0.23463821409E+02  0.24224515905E+01 -0.17819065611E+02  0.29562447227E+02  0.00000000000E+00 0. -1.
<mgrwt>
<rscale>  1 0.30000000E+03</rscale>
<asrwt>0</asrwt>
<pdfrwt beam="1">  1        1 0.15873099E+00 0.30000000E+03</pdfrwt>
<pdfrwt beam="2">0</pdfrwt>
<totfact> 0.16237327E+01</totfact>
</mgrwt>
</event>
<event>
 6    1  0.1904828E-004  0.3000000E+03  0.7818608E-02  0.1093470E+00
          1   -1    0    0  502    0  0.00000000000E+00  0.00000000000E+00  0.83923975081E+02  0.83923975081E+02  0.00000000000E+00 0.  1.
         13   -1    0    0    0    0 -0.00000000000E+00 -0.00000000000E+00 -0.10000000000E+04  0.10000000000E+04  0.00000000000E+00 0.  1.
    9000005    2    1    2  501    0  0.11307411214E+02 -0.36507405298E+02 -0.96711588095E+03  0.10201610149E+04  0.32242010006E+03 0.  0.
         13    1    3    3    0    0 -0.77472528369E+00 -0.56751144608E+02 -0.41514638746E+01  0.56908059762E+02  0.00000000000E+00 0.  1.
          1    1    3    3  501    0  0.12082136497E+02  0.20243739310E+02 -0.96296441707E+03  0.96325295512E+03  0.00000000000E+00 0.  1.
         21    1    1    2  502  501 -0.11307411214E+02  0.36507405298E+02  0.51039856027E+02  0.63762960198E+02  0.00000000000E+00 0. -1.
<mgrwt>
<rscale>  1 0.30000000E+03</rscale>
<asrwt>0</asrwt>
<pdfrwt beam="1">  1        1 0.30517873E+00 0.30000000E+03</pdfrwt>
<pdfrwt beam="2">0</pdfrwt>
<totfact> 0.32828020E+00</totfact>
</mgrwt>
</event>
<event>
 6    1  0.1904828E-004  0.3000000E+03  0.7818608E-02  0.1093470E+00
          1   -1    0    0  502    0  0.00000000000E+00  0.00000000000E+00  0.49712316208E+02  0.49712316208E+02  0.00000000000E+00 0.  1.
         13   -1    0    0    0    0 -0.00000000000E+00 -0.00000000000E+00 -0.10000000000E+04  0.10000000000E+04  0.00000000000E+00 0.  1.
    9000005    2    1    2  501    0 -0.19305056895E+01 -0.13952765571E+02 -0.97151429045E+03  0.10242373216E+04  0.32407355327E+03 0.  0.
         13    1    3    3    0    0 -0.64655358077E+02  0.66317259378E+02 -0.67759110651E+02  0.11475883973E+03  0.00000000000E+00 0.  1.
          3    1    3    3  501    0  0.62724852387E+02 -0.80270024949E+02 -0.90375517980E+03  0.90947848189E+03  0.00000000000E+00 0.  1.
         21    1    1    2  502  501  0.19305056895E+01  0.13952765571E+02  0.21226606655E+02  0.25474994591E+02  0.00000000000E+00 0. -1.
<mgrwt>
<rscale>  1 0.30000000E+03</rscale>
<asrwt>0</asrwt>
<pdfrwt beam="1">  1        1 0.18077244E+00 0.30000000E+03</pdfrwt>
<pdfrwt beam="2">0</pdfrwt>
<totfact> 0.12665068E+01</totfact>
</mgrwt>
</event>
<event>
 6    1  0.1904828E-004  0.3000000E+03  0.7818608E-02  0.1093470E+00
          1   -1    0    0  502    0  0.00000000000E+00  0.00000000000E+00  0.31774826851E+02  0.31774826851E+02  0.00000000000E+00 0.  1.
         13   -1    0    0    0    0 -0.00000000000E+00 -0.00000000000E+00 -0.10000000000E+04  0.10000000000E+04  0.00000000000E+00 0.  1.
    9000005    2    1    2  501    0  0.15030766345E+01 -0.23914395287E+02 -0.94635396480E+03  0.99933245801E+03  0.32016460985E+03 0.  0.
         13    1    3    3    0    0 -0.30450562953E+02 -0.11326049043E+03 -0.12089016436E+03  0.16843279762E+03  0.00000000000E+00 0.  1.
          1    1    3    3  501    0  0.31953639588E+02  0.89346095141E+02 -0.82546380044E+03  0.83089966039E+03  0.00000000000E+00 0.  1.
         21    1    1    2  502  501 -0.15030766345E+01  0.23914395287E+02 -0.21871208351E+02  0.32442368842E+02  0.00000000000E+00 0.  1.
<mgrwt>
<rscale>  1 0.30000000E+03</rscale>
<asrwt>0</asrwt>
<pdfrwt beam="1">  1        1 0.11554507E+00 0.30000000E+03</pdfrwt>
<pdfrwt beam="2">0</pdfrwt>
<totfact> 0.27565232E+01</totfact>
</mgrwt>
</event>
<event>
 6    1  0.1904828E-004  0.3000000E+03  0.7818608E-02  0.1093470E+00
          1   -1    0    0  502    0  0.00000000000E+00  0.00000000000E+00  0.38078535109E+02  0.38078535109E+02  0.00000000000E+00 0.  1.
         13   -1    0    0    0    0 -0.00000000000E+00 -0.00000000000E+00 -0.10000000000E+04  0.10000000000E+04  0.00000000000E+00 0.  1.
    9000005    2    1    2  501    0 -0.81144986565E+01  0.30987473725E+02 -0.94476085116E+03  0.10017390899E+04  0.33148464472E+03 0.  0.
         13    1    3    3    0    0  0.65381222904E+02  0.72884438484E+02 -0.90134990235E+03  0.90665235463E+03  0.00000000000E+00 0.  1.
          3    1    3    3  501    0 -0.73495721561E+02 -0.41896964759E+02 -0.43410948808E+02  0.95086735248E+02  0.00000000000E+00 0.  1.
         21    1    1    2  502  501  0.81144986565E+01 -0.30987473725E+02 -0.17160613731E+02  0.36339445234E+02  0.00000000000E+00 0.  1.
<mgrwt>
<rscale>  1 0.30000000E+03</rscale>
<asrwt>0</asrwt>
<pdfrwt beam="1">  1        1 0.13846769E+00 0.30000000E+03</pdfrwt>
<pdfrwt beam="2">0</pdfrwt>
<totfact> 0.20611010E+01</totfact>
</mgrwt>
</event>
<event>
 6    1  0.1904828E-004  0.3000000E+03  0.7818608E-02  0.1093470E+00
          1   -1    0    0  502    0  0.00000000000E+00  0.00000000000E+00  0.34032472949E+02  0.34032472949E+02  0.00000000000E+00 0.  1.
         13   -1    0    0    0    0 -0.00000000000E+00 -0.00000000000E+00 -0.10000000000E+04  0.10000000000E+04  0.00000000000E+00 0.  1.
    9000005    2    1    2  501    0  0.11974288977E+02  0.36602149530E+01 -0.97559079882E+03  0.10182404455E+04  0.29134072392E+03 0.  0.
         13    1    3    3    0    0 -0.29408940836E+02 -0.45747301682E+02 -0.94558697095E+03  0.94714962970E+03  0.00000000000E+00 0.  1.
          3    1    3    3  501    0  0.41383229813E+02  0.49407516635E+02 -0.30003827875E+02  0.71090815841E+02  0.00000000000E+00 0.  1.
         21    1    1    2  502  501 -0.11974288977E+02 -0.36602149530E+01  0.96232717742E+01  0.15792027408E+02  0.00000000000E+00 0. -1.
<mgrwt>
<rscale>  1 0.30000000E+03</rscale>
<asrwt>0</asrwt>
<pdfrwt beam="1">  1        1 0.12375471E+00 0.30000000E+03</pdfrwt>
<pdfrwt beam="2">0</pdfrwt>
<totfact> 0.24765314E+01</totfact>
</mgrwt>
</event>
<event>
 6    1  0.1904828E-004  0.3000000E+03  0.7818608E-02  0.1093470E+00
          1   -1    0    0  502    0  0.00000000000E+00  0.00000000000E+00  0.42700675541E+02  0.42700675541E+02  0.00000000000E+00 0.  1.
         13   -1    0    0    0    0 -0.00000000000E+00 -0.00000000000E+00 -0.10000000000E+04  0.10000000000E+04  0.00000000000E+00 0.  1.
    9000005    2    1    2  501    0 -0.12722107167E+02 -0.36763104912E+02 -0.94849118711E+03  0.10028138209E+04  0.32324394715E+03 0.  0.
         13    1    3    3    0    0 -0.68130359687E+02  0.32953639089E+02 -0.89651169416E+03  0.89970045349E+03  0.00000000000E+00 0.  1.
          3    1    3    3  501    0  0.55408252520E+02 -0.69716744001E+02 -0.51979492949E+02  0.10311336736E+03  0.00000000000E+00 0.  1.
         21    1    1    2  502  501  0.12722107167E+02  0.36763104912E+02 -0.88081373491E+01  0.39886854691E+02  0.00000000000E+00 0.  1.
<mgrwt>
<rscale>  1 0.30000000E+03</rscale>
<asrwt>0</asrwt>
<pdfrwt beam="1">  1        1 0.15527551E+00 0.30000000E+03</pdfrwt>
<pdfrwt beam="2">0</pdfrwt>
<totfact> 0.16896063E+01</totfact>
</mgrwt>
</event>
<event>
 6    1  0.1904828E-004  0.3000000E+03  0.7818608E-02  0.1093470E+00
          3   -1    0    0  502    0  0.00000000000E+00  0.00000000000E+00  0.27899412476E+02  0.27899412476E+02  0.00000000000E+00 0.  1.
         13   -1    0    0    0    0 -0.00000000000E+00 -0.00000000000E+00 -0.10000000000E+04  0.10000000000E+04  0.00000000000E+00 0.  1.
    9000005    2    1    2  501    0  0.63062414164E+01 -0.10389727164E+02 -0.95797324258E+03  0.10092635066E+04  0.31741514963E+03 0.  0.
         13    1    3    3    0    0  0.11478523613E+03  0.97399490777E+02 -0.62464878070E+03  0.64253280886E+03  0.00000000000E+00 0.  1.
          1    1    3    3  501    0 -0.10847899472E+03 -0.10778921794E+03 -0.33332446188E+03  0.36673069777E+03  0.00000000000E+00 0.  1.
         21    1    1    2  502  501 -0.63062414164E+01  0.10389727164E+02 -0.14127344944E+02  0.18635905841E+02  0.00000000000E+00 0. -1.
<mgrwt>
<rscale>  1 0.30000000E+03</rscale>
<asrwt>0</asrwt>
<pdfrwt beam="1">  1        3 0.10145262E+00 0.30000000E+03</pdfrwt>
<pdfrwt beam="2">0</pdfrwt>
<totfact> 0.37706080E+00</totfact>
</mgrwt>
</event>
<event>
 6    1  0.1904828E-004  0.3000000E+03  0.7818608E-02  0.1093470E+00
          1   -1    0    0  502    0  0.00000000000E+00  0.00000000000E+00  0.42527289183E+02  0.42527289183E+02  0.00000000000E+00 0.  1.
         13   -1    0    0    0    0 -0.00000000000E+00 -0.00000000000E+00 -0.10000000000E+04  0.10000000000E+04  0.00000000000E+00 0.  1.
    9000005    2    1    2  501    0 -0.26892097210E+02  0.40917560380E+02 -0.93243593998E+03  0.98753391200E+03  0.32154162024E+03 0.  0.
         13    1    3    3    0    0  0.14018861527E+03  0.61660860740E+01 -0.56865646998E+03  0.58571413618E+03  0.00000000000E+00 0.  1.
          1    1    3    3  501    0 -0.16708071248E+03  0.34751474306E+02 -0.36377947000E+03  0.40181977582E+03  0.00000000000E+00 0.  1.
         21    1    1    2  502  501  0.26892097210E+02 -0.40917560380E+02 -0.25036770834E+02  0.54993377180E+02  0.00000000000E+00 0. -1.
<mgrwt>
<rscale>  1 0.30000000E+03</rscale>
<asrwt>0</asrwt>
<pdfrwt beam="1">  1        1 0.15464501E+00 0.30000000E+03</pdfrwt>
<pdfrwt beam="2">0</pdfrwt>
<totfact> 0.17019671E+01</totfact>
</mgrwt>
</event>
<event>
 6    1  0.1904828E-004  0.3000000E+03  0.7818608E-02  0.1093470E+00
          1   -1    0    0  502    0  0.00000000000E+00  0.00000000000E+00  0.28310818021E+02  0.28310818021E+02  0.00000000000E+00 0.  1.
         13   -1    0    0    0    0 -0.00000000000E+00 -0.00000000000E+00 -0.10000000000E+04  0.10000000000E+04  0.00000000000E+00 0.  1.
    9000005    2    1    2  501    0  0.12267521091E+01 -0.12394193986E+02 -0.94982514277E+03  0.10031482034E+04  0.32246456415E+03 0.  0.
         13    1    3    3    0    0  0.14073729462E+03  0.41025853207E+02 -0.27130319827E+03  0.30837563477E+03  0.00000000000E+00 0.  1.
          1    1    3    3  501    0 -0.13951054252E+03 -0.53420047194E+02 -0.67852194451E+03  0.69477256861E+03  0.00000000000E+00 0.  1.
         21    1    1    2  502  501 -0.12267521091E+01  0.12394193986E+02 -0.21864039206E+02  0.25162614644E+02  0.00000000000E+00 0. -1.
<mgrwt>
<rscale>  1 0.30000000E+03</rscale>
<asrwt>0</asrwt>
<pdfrwt beam="1">  1        1 0.10294865E+00 0.30000000E+03</pdfrwt>
<pdfrwt beam="2">0</pdfrwt>
<totfact> 0.32796789E+01</totfact>
</mgrwt>
</event>
<event>
 6    1  0.1904828E-004  0.3000000E+03  0.7818608E-02  0.1093470E+00
          1   -1    0    0  502    0  0.00000000000E+00  0.00000000000E+00  0.97813462609E+02  0.97813462609E+02  0.00000000000E+00 0.  1.
         13   -1    0    0    0    0 -0.00000000000E+00 -0.00000000000E+00 -0.10000000000E+04  0.10000000000E+04  0.00000000000E+00 0.  1.
    9000005    2    1    2  501    0 -0.17453683580E+01  0.14152406147E+03 -0.89130884173E+03  0.95586125041E+03  0.31497170095E+03 0.  0.
         13    1    3    3    0    0 -0.16095225765E+02 -0.21936870488E+02 -0.71308108743E+03  0.71359997186E+03  0.00000000000E+00 0.  1.
          3    1    3    3  501    0  0.14349857406E+02  0.16346093196E+03 -0.17822775430E+03  0.24226127855E+03  0.00000000000E+00 0.  1.
         21    1    1    2  502  501  0.17453683580E+01 -0.14152406147E+03 -0.10877695659E+02  0.14195221220E+03  0.00000000000E+00 0.  1.
<mgrwt>
<rscale>  1 0.30000000E+03</rscale>
<asrwt>0</asrwt>
<pdfrwt beam="1">  1        1 0.35568607E+00 0.30000000E+03</pdfrwt>
<pdfrwt beam="2">0</pdfrwt>
<totfact> 0.18401641E+00</totfact>
</mgrwt>
</event>
<event>
 6    1  0.1904828E-004  0.3000000E+03  0.7818608E-02  0.1093470E+00
          1   -1    0    0  502    0  0.00000000000E+00  0.00000000000E+00  0.32406724060E+02  0.32406724060E+02  0.00000000000E+00 0.  1.
         13   -1    0    0    0    0 -0.00000000000E+00 -0.00000000000E+00 -0.10000000000E+04  0.10000000000E+04  0.00000000000E+00 0.  1.
    9000005    2    1    2  501    0 -0.69714910784E+01  0.23851365602E+02 -0.93906600660E+03  0.99457427205E+03  0.32667342798E+03 0.  0.
         13    1    3    3    0    0  0.97843799610E+01 -0.11838445797E+03 -0.73924629998E+03  0.74872939438E+03  0.00000000000E+00 0.  1.
          3    1    3    3  501    0 -0.16755871039E+02  0.14223582357E+03 -0.19981970662E+03  0.24584487767E+03  0.00000000000E+00 0.  1.
         21    1    1    2  502  501  0.69714910784E+01 -0.23851365602E+02 -0.28527269342E+02  0.37832452009E+02  0.00000000000E+00 0.  1.
<mgrwt>
<rscale>  1 0.30000000E+03</rscale>
<asrwt>0</asrwt>
<pdfrwt beam="1">  1        1 0.11784288E+00 0.30000000E+03</pdfrwt>
<pdfrwt beam="2">0</pdfrwt>
<totfact> 0.26740148E+01</totfact>
</mgrwt>
</event>
<event>
 6    1  0.1904828E-004  0.3000000E+03  0.7818608E-02  0.1093470E+00
          1   -1    0    0  502    0  0.00000000000E+00  0.00000000000E+00  0.51084849756E+02  0.51084849756E+02  0.00000000000E+00 0.  1.
         13   -1    0    0    0    0 -0.00000000000E+00 -0.00000000000E+00 -0.10000000000E+04  0.10000000000E+04  0.00000000000E+00 0.  1.
    9000005    2    1    2  501    0 -0.19756348295E+02 -0.11204068547E+02 -0.96457619223E+03  0.10234965789E+04  0.34149988586E+03 0.  0.
         13    1    3    3    0    0  0.10443920536E+03  0.11218381706E+03 -0.59695216670E+03  0.61631537848E+03  0.00000000000E+00 0.  1.
          1    1    3    3  501    0 -0.12419555365E+03 -0.12338788561E+03 -0.36762402554E+03  0.40718120047E+03  0.00000000000E+00 0.  1.
         21    1    1    2  502  501  0.19756348295E+02  0.11204068547E+02  0.15661041989E+02  0.27588270808E+02  0.00000000000E+00 0.  1.
<mgrwt>
<rscale>  1 0.30000000E+03</rscale>
<asrwt>0</asrwt>
<pdfrwt beam="1">  1        1 0.18576348E+00 0.30000000E+03</pdfrwt>
<pdfrwt beam="2">0</pdfrwt>
<totfact> 0.11982647E+01</totfact>
</mgrwt>
</event>
<event>
 6    1  0.1904828E-004  0.3000000E+03  0.7818608E-02  0.1093470E+00
          1   -1    0    0  502    0  0.00000000000E+00  0.00000000000E+00  0.39185670186E+02  0.39185670186E+02  0.00000000000E+00 0.  1.
         13   -1    0    0    0    0 -0.00000000000E+00 -0.00000000000E+00 -0.10000000000E+04  0.10000000000E+04  0.00000000000E+00 0.  1.
    9000005    2    1    2  501    0  0.18622812570E+02 -0.22454205238E+00 -0.96539951113E+03  0.10200053820E+04  0.32873683037E+03 0.  0.
         13    1    3    3    0    0 -0.10588154884E+03  0.60287912675E+02 -0.15149573443E+03  0.19441320004E+03  0.00000000000E+00 0.  1.
          1    1    3    3  501    0  0.12450436140E+03 -0.60512454727E+02 -0.81390377670E+03  0.82559218196E+03  0.00000000000E+00 0.  1.
         21    1    1    2  502  501 -0.18622812570E+02  0.22454205238E+00  0.45851813209E+01  0.19180288186E+02  0.00000000000E+00 0.  1.
<mgrwt>
<rscale>  1 0.30000000E+03</rscale>
<asrwt>0</asrwt>
<pdfrwt beam="1">  1        1 0.14249365E+00 0.30000000E+03</pdfrwt>
<pdfrwt beam="2">0</pdfrwt>
<totfact> 0.19634557E+01</totfact>
</mgrwt>
</event>
<event>
 6    1  0.1904828E-004  0.3000000E+03  0.7818608E-02  0.1093470E+00
          1   -1    0    0  502    0  0.00000000000E+00  0.00000000000E+00  0.39053558894E+02  0.39053558894E+02  0.00000000000E+00 0.  1.
         13   -1    0    0    0    0 -0.00000000000E+00 -0.00000000000E+00 -0.10000000000E+04  0.10000000000E+04  0.00000000000E+00 0.  1.
    9000005    2    1    2  501    0 -0.51112236880E+02  0.93135346722E+01 -0.89972127465E+03  0.95875583978E+03  0.32713175568E+03 0.  0.
         13    1    3    3    0    0 -0.11015549388E+03  0.14527666243E+03 -0.46541766571E+03  0.49985312347E+03  0.00000000000E+00 0.  1.
          3    1    3    3  501    0  0.59043257000E+02 -0.13596312776E+03 -0.43430360894E+03  0.45890271632E+03  0.00000000000E+00 0.  1.
         21    1    1    2  502  501  0.51112236880E+02 -0.93135346722E+01 -0.61225166454E+02  0.80297719110E+02  0.00000000000E+00 0.  1.
<mgrwt>
<rscale>  1 0.30000000E+03</rscale>
<asrwt>0</asrwt>
<pdfrwt beam="1">  1        1 0.14201324E+00 0.30000000E+03</pdfrwt>
<pdfrwt beam="2">0</pdfrwt>
<totfact> 0.19747939E+01</totfact>
</mgrwt>
</event>
<event>
 6    1  0.1904828E-004  0.3000000E+03  0.7818608E-02  0.1093470E+00
          1   -1    0    0  502    0  0.00000000000E+00  0.00000000000E+00  0.45655262819E+02  0.45655262819E+02  0.00000000000E+00 0.  1.
         13   -1    0    0    0    0 -0.00000000000E+00 -0.00000000000E+00 -0.10000000000E+04  0.10000000000E+04  0.00000000000E+00 0.  1.
    9000005    2    1    2  501    0  0.10842042365E+02 -0.83077418840E+01 -0.97091491559E+03  0.10241811093E+04  0.32570631376E+03 0.  0.
         13    1    3    3    0    0  0.10063968838E+03  0.12622937347E+03 -0.55199305657E+03  0.57511610663E+03  0.00000000000E+00 0.  1.
          3    1    3    3  501    0 -0.89797646018E+02 -0.13453711535E+03 -0.41892185902E+03  0.44906500265E+03  0.00000000000E+00 0.  1.
         21    1    1    2  502  501 -0.10842042365E+02  0.83077418840E+01  0.16570178410E+02  0.21474153543E+02  0.00000000000E+00 0.  1.
<mgrwt>
<rscale>  1 0.30000000E+03</rscale>
<asrwt>0</asrwt>
<pdfrwt beam="1">  1        1 0.16601949E+00 0.30000000E+03</pdfrwt>
<pdfrwt beam="2">0</pdfrwt>
<totfact> 0.14943698E+01</totfact>
</mgrwt>
</event>
<event>
 6    1  0.1904828E-004  0.3000000E+03  0.7818608E-02  0.1093470E+00
          1   -1    0    0  502    0  0.00000000000E+00  0.00000000000E+00  0.15377117537E+02  0.15377117537E+02  0.00000000000E+00 0.  1.
         13   -1    0    0    0    0 -0.00000000000E+00 -0.00000000000E+00 -0.10000000000E+04  0.10000000000E+04  0.00000000000E+00 0.  1.
    9000005    2    1    2  501    0  0.87926774492E+01  0.15075244189E+02 -0.97720955373E+03  0.99641579883E+03  0.19391069620E+03 0.  0.
         13    1    3    3    0    0 -0.56194999586E+02  0.78351929567E+02 -0.36488342039E+03  0.37740801969E+03  0.00000000000E+00 0.  1.
          1    1    3    3  501    0  0.64987677035E+02 -0.63276685377E+02 -0.61232613333E+03  0.61900777915E+03  0.00000000000E+00 0.  1.
         21    1    1    2  502  501 -0.87926774492E+01 -0.15075244189E+02 -0.74133287346E+01  0.18961318705E+02  0.00000000000E+00 0.  1.
<mgrwt>
<rscale>  1 0.30000000E+03</rscale>
<asrwt>0</asrwt>
<pdfrwt beam="1">  1        1 0.55916909E-01 0.30000000E+03</pdfrwt>
<pdfrwt beam="2">0</pdfrwt>
<totfact> 0.76139219E+01</totfact>
</mgrwt>
</event>
<event>
 6    1  0.1904828E-004  0.3000000E+03  0.7818608E-02  0.1093470E+00
          3   -1    0    0  502    0  0.00000000000E+00  0.00000000000E+00  0.32214474260E+02  0.32214474260E+02  0.00000000000E+00 0.  1.
         13   -1    0    0    0    0 -0.00000000000E+00 -0.00000000000E+00 -0.10000000000E+04  0.10000000000E+04  0.00000000000E+00 0.  1.
    9000005    2    1    2  501    0  0.12916418405E+02 -0.69173450820E+00 -0.96840069868E+03  0.10192649261E+04  0.31770074586E+03 0.  0.
         13    1    3    3    0    0  0.65368440400E+02 -0.14727455935E+03 -0.53574900117E+03  0.55945493214E+03  0.00000000000E+00 0.  1.
          1    1    3    3  501    0 -0.52452021995E+02  0.14658282484E+03 -0.43265169751E+03  0.45980999392E+03  0.00000000000E+00 0.  1.
         21    1    1    2  502  501 -0.12916418405E+02  0.69173450820E+00  0.61517293972E+00  0.12949548207E+02  0.00000000000E+00 0.  1.
<mgrwt>
<rscale>  1 0.30000000E+03</rscale>
<asrwt>0</asrwt>
<pdfrwt beam="1">  1        3 0.11714379E+00 0.30000000E+03</pdfrwt>
<pdfrwt beam="2">0</pdfrwt>
<totfact> 0.24958512E+00</totfact>
</mgrwt>
</event>
<event>
 6    1  0.1904828E-004  0.3000000E+03  0.7818608E-02  0.1093470E+00
          1   -1    0    0  502    0  0.00000000000E+00  0.00000000000E+00  0.29013753312E+02  0.29013753312E+02  0.00000000000E+00 0.  1.
         13   -1    0    0    0    0 -0.00000000000E+00 -0.00000000000E+00 -0.10000000000E+04  0.10000000000E+04  0.00000000000E+00 0.  1.
    9000005    2    1    2  501    0 -0.82650190713E+01 -0.92800283957E+01 -0.96509892104E+03  0.10152627508E+04  0.31494141720E+03 0.  0.
         13    1    3    3    0    0 -0.12383043765E+03  0.36063925794E+02 -0.18603904169E+03  0.22637382593E+03  0.00000000000E+00 0.  1.
          3    1    3    3  501    0  0.11556541857E+03 -0.45343954189E+02 -0.77905987935E+03  0.78888892486E+03  0.00000000000E+00 0.  1.
         21    1    1    2  502  501  0.82650190713E+01  0.92800283957E+01 -0.58873256516E+01  0.13751002531E+02  0.00000000000E+00 0.  1.
<mgrwt>
<rscale>  1 0.30000000E+03</rscale>
<asrwt>0</asrwt>
<pdfrwt beam="1">  1        1 0.10550478E+00 0.30000000E+03</pdfrwt>
<pdfrwt beam="2">0</pdfrwt>
<totfact> 0.31626465E+01</totfact>
</mgrwt>
</event>
<event>
 6    1  0.1904828E-004  0.3000000E+03  0.7818608E-02  0.1093470E+00
          1   -1    0    0  502    0  0.00000000000E+00  0.00000000000E+00  0.49248728873E+02  0.49248728873E+02  0.00000000000E+00 0.  1.
         13   -1    0    0    0    0 -0.00000000000E+00 -0.00000000000E+00 -0.10000000000E+04  0.10000000000E+04  0.00000000000E+00 0.  1.
    9000005    2    1    2  501    0  0.23553416485E+02  0.59707821385E+02 -0.91820364877E+03  0.97728252094E+03  0.32842563507E+03 0.  0.
         13    1    3    3    0    0 -0.38127038701E+02 -0.78531408618E+02 -0.73256924998E+03  0.73775236986E+03  0.00000000000E+00 0.  1.
          1    1    3    3  501    0  0.61680455186E+02  0.13823923000E+03 -0.18563439878E+03  0.23953015108E+03  0.00000000000E+00 0.  1.
         21    1    1    2  502  501 -0.23553416485E+02 -0.59707821385E+02 -0.32547622362E+02  0.71966207932E+02  0.00000000000E+00 0.  1.
<mgrwt>
<rscale>  1 0.30000000E+03</rscale>
<asrwt>0</asrwt>
<pdfrwt beam="1">  1        1 0.17908666E+00 0.30000000E+03</pdfrwt>
<pdfrwt beam="2">0</pdfrwt>
<totfact> 0.12905118E+01</totfact>
</mgrwt>
</event>
<event>
 6    1  0.1904828E-004  0.3000000E+03  0.7818608E-02  0.1093470E+00
          1   -1    0    0  502    0  0.00000000000E+00  0.00000000000E+00  0.26599023275E+02  0.26599023275E+02  0.00000000000E+00 0.  1.
         13   -1    0    0    0    0 -0.00000000000E+00 -0.00000000000E+00 -0.10000000000E+04  0.10000000000E+04  0.00000000000E+00 0.  1.
    9000005    2    1    2  501    0 -0.20442182726E+02  0.52379269053E+02 -0.85601164949E+03  0.89643864217E+03  0.26016307280E+03 0.  0.
         13    1    3    3    0    0  0.20103314954E+02 -0.62341800925E+02 -0.67597635315E+03  0.67914260169E+03  0.00000000000E+00 0.  1.
          3    1    3    3  501    0 -0.40545497680E+02  0.11472106998E+03 -0.18003529634E+03  0.21729604048E+03  0.00000000000E+00 0.  1.
         21    1    1    2  502  501  0.20442182726E+02 -0.52379269053E+02 -0.11738932723E+03  0.13016038110E+03  0.00000000000E+00 0. -1.
<mgrwt>
<rscale>  1 0.30000000E+03</rscale>
<asrwt>0</asrwt>
<pdfrwt beam="1">  1        1 0.96723925E-01 0.30000000E+03</pdfrwt>
<pdfrwt beam="2">0</pdfrwt>
<totfact> 0.35926239E+01</totfact>
</mgrwt>
</event>
<event>
 6    1  0.1904828E-004  0.3000000E+03  0.7818608E-02  0.1093470E+00
          1   -1    0    0  502    0  0.00000000000E+00  0.00000000000E+00  0.44431262975E+02  0.44431262975E+02  0.00000000000E+00 0.  1.
         13   -1    0    0    0    0 -0.00000000000E+00 -0.00000000000E+00 -0.10000000000E+04  0.10000000000E+04  0.00000000000E+00 0.  1.
    9000005    2    1    2  501    0 -0.17598329929E+02  0.10833347641E+02 -0.96892693611E+03  0.10198242697E+04  0.31748239450E+03 0.  0.
         13    1    3    3    0    0  0.12614867565E+03 -0.44032689335E+02 -0.23857869703E+03  0.27344498674E+03  0.00000000000E+00 0.  1.
          3    1    3    3  501    0 -0.14374700558E+03  0.54866036976E+02 -0.73034823908E+03  0.74637928291E+03  0.00000000000E+00 0.  1.
         21    1    1    2  502  501  0.17598329929E+02 -0.10833347641E+02  0.13358199088E+02  0.24606993320E+02  0.00000000000E+00 0.  1.
<mgrwt>
<rscale>  1 0.30000000E+03</rscale>
<asrwt>0</asrwt>
<pdfrwt beam="1">  1        1 0.16156857E+00 0.30000000E+03</pdfrwt>
<pdfrwt beam="2">0</pdfrwt>
<totfact> 0.15718882E+01</totfact>
</mgrwt>
</event>
<event>
 6    1  0.1904828E-004  0.3000000E+03  0.7818608E-02  0.1093470E+00
          1   -1    0    0  502    0  0.00000000000E+00  0.00000000000E+00  0.51349875798E+02  0.51349875798E+02  0.00000000000E+00 0.  1.
         13   -1    0    0    0    0 -0.00000000000E+00 -0.00000000000E+00 -0.10000000000E+04  0.10000000000E+04  0.00000000000E+00 0.  1.
    9000005    2    1    2  501    0  0.25688104651E+02  0.36571497284E+01 -0.95140022227E+03  0.10252574151E+04  0.38120484109E+03 0.  0.
         13    1    3    3    0    0 -0.12032983406E+03  0.75268139674E+02 -0.14606628428E+03  0.20366620048E+03  0.00000000000E+00 0.  1.
          3    1    3    3  501    0  0.14601793871E+03 -0.71610989946E+02 -0.80533393799E+03  0.82159121464E+03  0.00000000000E+00 0.  1.
         21    1    1    2  502  501 -0.25688104651E+02 -0.36571497284E+01  0.27500980643E+01  0.26092460675E+02  0.00000000000E+00 0.  1.
<mgrwt>
<rscale>  1 0.30000000E+03</rscale>
<asrwt>0</asrwt>
<pdfrwt beam="1">  1        1 0.18672721E+00 0.30000000E+03</pdfrwt>
<pdfrwt beam="2">0</pdfrwt>
<totfact> 0.11855484E+01</totfact>
</mgrwt>
</event>
<event>
 6    1  0.1904828E-004  0.3000000E+03  0.7818608E-02  0.1093470E+00
          1   -1    0    0  502    0  0.00000000000E+00  0.00000000000E+00  0.35547632839E+02  0.35547632839E+02  0.00000000000E+00 0.  1.
         13   -1    0    0    0    0 -0.00000000000E+00 -0.00000000000E+00 -0.10000000000E+04  0.10000000000E+04  0.00000000000E+00 0.  1.
    9000005    2    1    2  501    0 -0.22220630021E+02  0.47367283467E+01 -0.95666487227E+03  0.10115301794E+04  0.32782530861E+03 0.  0.
         13    1    3    3    0    0 -0.93121426315E+02 -0.13789682385E+03 -0.55600465546E+03  0.58036911613E+03  0.00000000000E+00 0.  1.
          3    1    3    3  501    0  0.70900796294E+02  0.14263355220E+03 -0.40066021682E+03  0.43116106325E+03  0.00000000000E+00 0.  1.
         21    1    1    2  502  501  0.22220630021E+02 -0.47367283467E+01 -0.77874948887E+01  0.24017453458E+02  0.00000000000E+00 0.  1.
<mgrwt>
<rscale>  1 0.30000000E+03</rscale>
<asrwt>0</asrwt>
<pdfrwt beam="1">  1        1 0.12926439E+00 0.30000000E+03</pdfrwt>
<pdfrwt beam="2">0</pdfrwt>
<totfact> 0.23092057E+01</totfact>
</mgrwt>
</event>
<event>
 6    1  0.1904828E-004  0.3000000E+03  0.7818608E-02  0.1093470E+00
          1   -1    0    0  502    0  0.00000000000E+00  0.00000000000E+00  0.94030417808E+02  0.94030417808E+02  0.00000000000E+00 0.  1.
         13   -1    0    0    0    0 -0.00000000000E+00 -0.00000000000E+00 -0.10000000000E+04  0.10000000000E+04  0.00000000000E+00 0.  1.
    9000005    2    1    2  501    0  0.11962980625E+01 -0.89230524094E+02 -0.93967225274E+03  0.99863970777E+03  0.32608864714E+03 0.  0.
         13    1    3    3    0    0  0.10441290745E+03 -0.17223889779E+03 -0.48758564579E+03  0.52754910211E+03  0.00000000000E+00 0.  1.
          1    1    3    3  501    0 -0.10321660938E+03  0.83008373695E+02 -0.45208660695E+03  0.47109060566E+03  0.00000000000E+00 0.  1.
         21    1    1    2  502  501 -0.11962980625E+01  0.89230524094E+02  0.33702670552E+02  0.95390710038E+02  0.00000000000E+00 0.  1.
<mgrwt>
<rscale>  1 0.30000000E+03</rscale>
<asrwt>0</asrwt>
<pdfrwt beam="1">  1        1 0.34192951E+00 0.30000000E+03</pdfrwt>
<pdfrwt beam="2">0</pdfrwt>
<totfact> 0.21647349E+00</totfact>
</mgrwt>
</event>
<event>
 6    1  0.1904828E-004  0.3000000E+03  0.7818608E-02  0.1093470E+00
          1   -1    0    0  502    0  0.00000000000E+00  0.00000000000E+00  0.32809993488E+02  0.32809993488E+02  0.00000000000E+00 0.  1.
         13   -1    0    0    0    0 -0.00000000000E+00 -0.00000000000E+00 -0.10000000000E+04  0.10000000000E+04  0.00000000000E+00 0.  1.
    9000005    2    1    2  501    0  0.16586809283E+02  0.69875401636E+01 -0.95946976373E+03  0.10132255581E+04  0.32514589982E+03 0.  0.
         13    1    3    3    0    0  0.64547857086E+02  0.11574690273E+03 -0.81701199321E+03  0.82769098605E+03  0.00000000000E+00 0.  1.
          3    1    3    3  501    0 -0.47961047803E+02 -0.10875936257E+03 -0.14245777053E+03  0.18553457208E+03  0.00000000000E+00 0.  1.
         21    1    1    2  502  501 -0.16586809283E+02 -0.69875401636E+01 -0.77202427778E+01  0.19584435358E+02  0.00000000000E+00 0.  1.
<mgrwt>
<rscale>  1 0.30000000E+03</rscale>
<asrwt>0</asrwt>
<pdfrwt beam="1">  1        1 0.11930932E+00 0.30000000E+03</pdfrwt>
<pdfrwt beam="2">0</pdfrwt>
<totfact> 0.26231199E+01</totfact>
</mgrwt>
</event>
<event>
 6    1  0.1904828E-004  0.3000000E+03  0.7818608E-02  0.1093470E+00
          1   -1    0    0  502    0  0.00000000000E+00  0.00000000000E+00  0.47823700799E+02  0.47823700799E+02  0.00000000000E+00 0.  1.
         13   -1    0    0    0    0 -0.00000000000E+00 -0.00000000000E+00 -0.10000000000E+04  0.10000000000E+04  0.00000000000E+00 0.  1.
    9000005    2    1    2  501    0  0.16972980764E+02  0.35064485667E+01 -0.96754160245E+03  0.10246618830E+04  0.33688995953E+03 0.  0.
         13    1    3    3    0    0 -0.91366188420E+01  0.16922630402E+03 -0.47383197356E+03  0.50322734320E+03  0.00000000000E+00 0.  1.
          3    1    3    3  501    0  0.26109599606E+02 -0.16571985545E+03 -0.49370962890E+03  0.52143453985E+03  0.00000000000E+00 0.  1.
         21    1    1    2  502  501 -0.16972980764E+02 -0.35064485667E+01  0.15365303252E+02  0.23161817752E+02  0.00000000000E+00 0.  1.
<mgrwt>
<rscale>  1 0.30000000E+03</rscale>
<asrwt>0</asrwt>
<pdfrwt beam="1">  1        1 0.17390473E+00 0.30000000E+03</pdfrwt>
<pdfrwt beam="2">0</pdfrwt>
<totfact> 0.13674506E+01</totfact>
</mgrwt>
</event>
<event>
 6    1  0.1904828E-004  0.3000000E+03  0.7818608E-02  0.1093470E+00
          1   -1    0    0  502    0  0.00000000000E+00  0.00000000000E+00  0.39180822354E+02  0.39180822354E+02  0.00000000000E+00 0.  1.
         13   -1    0    0    0    0 -0.00000000000E+00 -0.00000000000E+00 -0.10000000000E+04  0.10000000000E+04  0.00000000000E+00 0.  1.
    9000005    2    1    2  501    0 -0.99777577235E+01 -0.39504045470E+01 -0.96729424635E+03  0.10266473528E+04  0.34384802832E+03 0.  0.
         13    1    3    3    0    0  0.52666781957E+02  0.39441366516E+02 -0.94494462554E+03  0.94723268348E+03  0.00000000000E+00 0.  1.
          3    1    3    3  501    0 -0.62644539681E+02 -0.43391771063E+02 -0.22349620808E+02  0.79414669288E+02  0.00000000000E+00 0.  1.
         21    1    1    2  502  501  0.99777577235E+01  0.39504045470E+01  0.64750687002E+01  0.12533469589E+02  0.00000000000E+00 0. -1.
<mgrwt>
<rscale>  1 0.30000000E+03</rscale>
<asrwt>0</asrwt>
<pdfrwt beam="1">  1        1 0.14247602E+00 0.30000000E+03</pdfrwt>
<pdfrwt beam="2">0</pdfrwt>
<totfact> 0.19638703E+01</totfact>
</mgrwt>
</event>
<event>
 6    1  0.1904828E-004  0.3000000E+03  0.7818608E-02  0.1093470E+00
          1   -1    0    0  502    0  0.00000000000E+00  0.00000000000E+00  0.37307317309E+02  0.37307317309E+02  0.00000000000E+00 0.  1.
         13   -1    0    0    0    0 -0.00000000000E+00 -0.00000000000E+00 -0.10000000000E+04  0.10000000000E+04  0.00000000000E+00 0.  1.
    9000005    2    1    2  501    0 -0.34417927719E+01  0.12470978425E+02 -0.97100050348E+03  0.10219323010E+04  0.31833359673E+03 0.  0.
         13    1    3    3    0    0  0.62352943977E+02 -0.60054826414E+02 -0.59172138321E+02  0.10486092576E+03  0.00000000000E+00 0.  1.
          3    1    3    3  501    0 -0.65794736748E+02  0.72525804839E+02 -0.91182836516E+03  0.91707137523E+03  0.00000000000E+00 0.  1.
         21    1    1    2  502  501  0.34417927719E+01 -0.12470978425E+02  0.83078207942E+01  0.15375016316E+02  0.00000000000E+00 0. -1.
<mgrwt>
<rscale>  1 0.30000000E+03</rscale>
<asrwt>0</asrwt>
<pdfrwt beam="1">  1        1 0.13566326E+00 0.30000000E+03</pdfrwt>
<pdfrwt beam="2">0</pdfrwt>
<totfact> 0.21328128E+01</totfact>
</mgrwt>
</event>
<event>
 6    1  0.1904828E-004  0.3000000E+03  0.7818608E-02  0.1093470E+00
          1   -1    0    0  502    0  0.00000000000E+00  0.00000000000E+00  0.31039854765E+02  0.31039854765E+02  0.00000000000E+00 0.  1.
         13   -1    0    0    0    0 -0.00000000000E+00 -0.00000000000E+00 -0.10000000000E+04  0.10000000000E+04  0.00000000000E+00 0.  1.
    9000005    2    1    2  501    0 -0.14324489928E+02  0.57552430352E+01 -0.95948954741E+03  0.10129289173E+04  0.32429382664E+03 0.  0.
         13    1    3    3    0    0  0.13906793349E+03  0.49449374562E+02 -0.62735501522E+03  0.64448386007E+03  0.00000000000E+00 0.  1.
          3    1    3    3  501    0 -0.15339242342E+03 -0.43694131527E+02 -0.33213453220E+03  0.36844505720E+03  0.00000000000E+00 0.  1.
         21    1    1    2  502  501  0.14324489928E+02 -0.57552430352E+01 -0.94705978207E+01  0.18110937502E+02  0.00000000000E+00 0.  1.
<mgrwt>
<rscale>  1 0.30000000E+03</rscale>
<asrwt>0</asrwt>
<pdfrwt beam="1">  1        1 0.11287244E+00 0.30000000E+03</pdfrwt>
<pdfrwt beam="2">0</pdfrwt>
<totfact> 0.28570354E+01</totfact>
</mgrwt>
</event>
<event>
 6    1  0.1904828E-004  0.3000000E+03  0.7818608E-02  0.1093470E+00
          1   -1    0    0  502    0  0.00000000000E+00  0.00000000000E+00  0.36587543263E+02  0.36587543263E+02  0.00000000000E+00 0.  1.
         13   -1    0    0    0    0 -0.00000000000E+00 -0.00000000000E+00 -0.10000000000E+04  0.10000000000E+04  0.00000000000E+00 0.  1.
    9000005    2    1    2  501    0 -0.19187100191E+02  0.14037942640E+02 -0.95303272598E+03  0.10106463124E+04  0.33551361130E+03 0.  0.
         13    1    3    3    0    0  0.32906122457E+02  0.84231860122E+00  0.18411999955E+02  0.37716364328E+02  0.00000000000E+00 0.  1.
          1    1    3    3  501    0 -0.52093222648E+02  0.13195624039E+02 -0.97144472593E+03  0.97292994809E+03  0.00000000000E+00 0.  1.
         21    1    1    2  502  501  0.19187100191E+02 -0.14037942640E+02 -0.10379730760E+02  0.25941230849E+02  0.00000000000E+00 0.  1.
<mgrwt>
<rscale>  1 0.30000000E+03</rscale>
<asrwt>0</asrwt>
<pdfrwt beam="1">  1        1 0.13304589E+00 0.30000000E+03</pdfrwt>
<pdfrwt beam="2">0</pdfrwt>
<totfact> 0.22027422E+01</totfact>
</mgrwt>
</event>
<event>
 6    1  0.1904828E-004  0.3000000E+03  0.7818608E-02  0.1093470E+00
          1   -1    0    0  502    0  0.00000000000E+00  0.00000000000E+00  0.37314367588E+02  0.37314367588E+02  0.00000000000E+00 0.  1.
         13   -1    0    0    0    0 -0.00000000000E+00 -0.00000000000E+00 -0.10000000000E+04  0.10000000000E+04  0.00000000000E+00 0.  1.
    9000005    2    1    2  501    0 -0.16532372404E+02  0.22769739913E+02 -0.95371122733E+03  0.10077792979E+04  0.32444140891E+03 0.  0.
         13    1    3    3    0    0 -0.13550003861E+02  0.15169659743E+03 -0.25303445706E+03  0.29533353472E+03  0.00000000000E+00 0.  1.
          1    1    3    3  501    0 -0.29823685428E+01 -0.12892685751E+03 -0.70067677027E+03  0.71244576321E+03  0.00000000000E+00 0.  1.
         21    1    1    2  502  501  0.16532372404E+02 -0.22769739913E+02 -0.89744050829E+01  0.29535069656E+02  0.00000000000E+00 0.  1.
<mgrwt>
<rscale>  1 0.30000000E+03</rscale>
<asrwt>0</asrwt>
<pdfrwt beam="1">  1        1 0.13568890E+00 0.30000000E+03</pdfrwt>
<pdfrwt beam="2">0</pdfrwt>
<totfact> 0.21321425E+01</totfact>
</mgrwt>
</event>
<event>
 6    1  0.1904828E-004  0.3000000E+03  0.7818608E-02  0.1093470E+00
          3   -1    0    0  502    0  0.00000000000E+00  0.00000000000E+00  0.28464386722E+02  0.28464386722E+02  0.00000000000E+00 0.  1.
         13   -1    0    0    0    0 -0.00000000000E+00 -0.00000000000E+00 -0.10000000000E+04  0.10000000000E+04  0.00000000000E+00 0.  1.
    9000005    2    1    2  501    0  0.58316762594E+01 -0.75163006403E+01 -0.96195663179E+03  0.10149640123E+04  0.32357515601E+03 0.  0.
         13    1    3    3    0    0  0.79332488230E+02  0.97191996692E+02 -0.16229135201E+03  0.20513022899E+03  0.00000000000E+00 0.  1.
          3    1    3    3  501    0 -0.73500811971E+02 -0.10470829733E+03 -0.79966527978E+03  0.80983378330E+03  0.00000000000E+00 0.  1.
         21    1    1    2  502  501 -0.58316762594E+01  0.75163006403E+01 -0.95789814886E+01  0.13500374427E+02  0.00000000000E+00 0. -1.
<mgrwt>
<rscale>  1 0.30000000E+03</rscale>
<asrwt>0</asrwt>
<pdfrwt beam="1">  1        3 0.10350708E+00 0.30000000E+03</pdfrwt>
<pdfrwt beam="2">0</pdfrwt>
<totfact> 0.35728954E+00</totfact>
</mgrwt>
</event>
<event>
 6    1  0.1904828E-004  0.3000000E+03  0.7818608E-02  0.1093470E+00
          1   -1    0    0  502    0  0.00000000000E+00  0.00000000000E+00  0.48749241973E+02  0.48749241973E+02  0.00000000000E+00 0.  1.
         13   -1    0    0    0    0 -0.00000000000E+00 -0.00000000000E+00 -0.10000000000E+04  0.10000000000E+04  0.00000000000E+00 0.  1.
    9000005    2    1    2  501    0 -0.42518492158E+02 -0.71866984057E+01 -0.95200780930E+03  0.10056210153E+04  0.32108454750E+03 0.  0.
         13    1    3    3    0    0 -0.14317942682E+03  0.95192422272E+02 -0.63027152424E+03  0.65330248720E+03  0.00000000000E+00 0.  1.
          1    1    3    3  501    0  0.10066093466E+03 -0.10237912068E+03 -0.32173628506E+03  0.35231852810E+03  0.00000000000E+00 0.  1.
         21    1    1    2  502  501  0.42518492158E+02  0.71866984057E+01  0.75705126999E+00  0.43128226673E+02  0.00000000000E+00 0.  1.
<mgrwt>
<rscale>  1 0.30000000E+03</rscale>
<asrwt>0</asrwt>
<pdfrwt beam="1">  1        1 0.17727034E+00 0.30000000E+03</pdfrwt>
<pdfrwt beam="2">0</pdfrwt>
<totfact> 0.13169322E+01</totfact>
</mgrwt>
</event>
<event>
 6    1  0.1904828E-004  0.3000000E+03  0.7818608E-02  0.1093470E+00
          1   -1    0    0  502    0  0.00000000000E+00  0.00000000000E+00  0.89379418466E+02  0.89379418466E+02  0.00000000000E+00 0.  1.
         13   -1    0    0    0    0 -0.00000000000E+00 -0.00000000000E+00 -0.10000000000E+04  0.10000000000E+04  0.00000000000E+00 0.  1.
    9000005    2    1    2  501    0 -0.17363362285E+02  0.69187567598E+01 -0.97154795600E+03  0.10256495157E+04  0.32818004620E+03 0.  0.
         13    1    3    3    0    0 -0.13385947762E+03 -0.55752038347E+02 -0.77682915273E+03  0.79024691209E+03  0.00000000000E+00 0.  1.
          3    1    3    3  501    0  0.11649611533E+03  0.62670795106E+02 -0.19471880327E+03  0.23540260363E+03  0.00000000000E+00 0.  1.
         21    1    1    2  502  501  0.17363362285E+02 -0.69187567598E+01  0.60927374471E+02  0.63729902752E+02  0.00000000000E+00 0.  1.
<mgrwt>
<rscale>  1 0.30000000E+03</rscale>
<asrwt>0</asrwt>
<pdfrwt beam="1">  1        1 0.32501675E+00 0.30000000E+03</pdfrwt>
<pdfrwt beam="2">0</pdfrwt>
<totfact> 0.26314086E+00</totfact>
</mgrwt>
</event>
<event>
 6    1  0.1904828E-004  0.3000000E+03  0.7818608E-02  0.1093470E+00
          1   -1    0    0  502    0  0.00000000000E+00  0.00000000000E+00  0.98679459123E+02  0.98679459123E+02  0.00000000000E+00 0.  1.
         13   -1    0    0    0    0 -0.00000000000E+00 -0.00000000000E+00 -0.10000000000E+04  0.10000000000E+04  0.00000000000E+00 0.  1.
    9000005    2    1    2  501    0 -0.15235500771E+02 -0.30897625225E+02 -0.96925812115E+03  0.10225066389E+04  0.32383906100E+03 0.  0.
         13    1    3    3    0    0 -0.53431104148E+02  0.12091044325E+03 -0.21667384469E+03  0.25381444630E+03  0.00000000000E+00 0.  1.
          3    1    3    3  501    0  0.38195603377E+02 -0.15180806847E+03 -0.75258427647E+03  0.76869219260E+03  0.00000000000E+00 0.  1.
         21    1    1    2  502  501  0.15235500771E+02  0.30897625225E+02  0.67937580277E+02  0.76172820232E+02  0.00000000000E+00 0.  1.
<mgrwt>
<rscale>  1 0.30000000E+03</rscale>
<asrwt>0</asrwt>
<pdfrwt beam="1">  1        1 0.35883515E+00 0.30000000E+03</pdfrwt>
<pdfrwt beam="2">0</pdfrwt>
<totfact> 0.17712894E+00</totfact>
</mgrwt>
</event>
<event>
 6    1  0.1904828E-004  0.3000000E+03  0.7818608E-02  0.1093470E+00
          1   -1    0    0  502    0  0.00000000000E+00  0.00000000000E+00  0.28318969810E+02  0.28318969810E+02  0.00000000000E+00 0.  1.
         13   -1    0    0    0    0 -0.00000000000E+00 -0.00000000000E+00 -0.10000000000E+04  0.10000000000E+04  0.00000000000E+00 0.  1.
    9000005    2    1    2  501    0 -0.75183293255E+01 -0.70512005335E+01 -0.95783500032E+03  0.10110575316E+04  0.32354783221E+03 0.  0.
         13    1    3    3    0    0  0.88999084645E+02  0.12903495042E+03 -0.45009163752E+03  0.47660606130E+03  0.00000000000E+00 0.  1.
          1    1    3    3  501    0 -0.96517413970E+02 -0.13608615095E+03 -0.50774336279E+03  0.53445147033E+03  0.00000000000E+00 0.  1.
         21    1    1    2  502  501  0.75183293255E+01  0.70512005335E+01 -0.13846029871E+02  0.17261438179E+02  0.00000000000E+00 0. -1.
<mgrwt>
<rscale>  1 0.30000000E+03</rscale>
<asrwt>0</asrwt>
<pdfrwt beam="1">  1        1 0.10297829E+00 0.30000000E+03</pdfrwt>
<pdfrwt beam="2">0</pdfrwt>
<totfact> 0.32782858E+01</totfact>
</mgrwt>
</event>
<event>
 6    1  0.1904828E-004  0.3000000E+03  0.7818608E-02  0.1093470E+00
          1   -1    0    0  502    0  0.00000000000E+00  0.00000000000E+00  0.30008961897E+02  0.30008961897E+02  0.00000000000E+00 0.  1.
         13   -1    0    0    0    0 -0.00000000000E+00 -0.00000000000E+00 -0.10000000000E+04  0.10000000000E+04  0.00000000000E+00 0.  1.
    9000005    2    1    2  501    0 -0.79129442905E+01  0.17743507882E+02 -0.94250853744E+03  0.99635283910E+03  0.32252006150E+03 0.  0.
         13    1    3    3    0    0 -0.11788549386E+03  0.72862752029E+02 -0.78169796464E+03  0.79388769875E+03  0.00000000000E+00 0.  1.
          1    1    3    3  501    0  0.10997254957E+03 -0.55119244147E+02 -0.16081057280E+03  0.20246514035E+03  0.00000000000E+00 0.  1.
         21    1    1    2  502  501  0.79129442905E+01 -0.17743507882E+02 -0.27482500659E+02  0.33656122798E+02  0.00000000000E+00 0. -1.
<mgrwt>
<rscale>  1 0.30000000E+03</rscale>
<asrwt>0</asrwt>
<pdfrwt beam="1">  1        1 0.10912373E+00 0.30000000E+03</pdfrwt>
<pdfrwt beam="2">0</pdfrwt>
<totfact> 0.30070012E+01</totfact>
</mgrwt>
</event>
<event>
 6    1  0.1904828E-004  0.3000000E+03  0.7818608E-02  0.1093470E+00
          1   -1    0    0  502    0  0.00000000000E+00  0.00000000000E+00  0.52109085695E+02  0.52109085695E+02  0.00000000000E+00 0.  1.
         13   -1    0    0    0    0 -0.00000000000E+00 -0.00000000000E+00 -0.10000000000E+04  0.10000000000E+04  0.00000000000E+00 0.  1.
    9000005    2    1    2  501    0  0.11520194547E+02 -0.13226582126E+02 -0.97008382760E+03  0.10238215839E+04  0.32686441490E+03 0.  0.
         13    1    3    3    0    0  0.23978656453E+02  0.43793437818E+02  0.20180750965E+01  0.49969128353E+02  0.00000000000E+00 0.  1.
          1    1    3    3  501    0 -0.12458461906E+02 -0.57020019944E+02 -0.97210190270E+03  0.97385245555E+03  0.00000000000E+00 0.  1.
         21    1    1    2  502  501 -0.11520194547E+02  0.13226582126E+02  0.22192913297E+02  0.28287501794E+02  0.00000000000E+00 0.  1.
<mgrwt>
<rscale>  1 0.30000000E+03</rscale>
<asrwt>0</asrwt>
<pdfrwt beam="1">  1        1 0.18948798E+00 0.30000000E+03</pdfrwt>
<pdfrwt beam="2">0</pdfrwt>
<totfact> 0.11498879E+01</totfact>
</mgrwt>
</event>
<event>
 6    1  0.1904828E-004  0.3000000E+03  0.7818608E-02  0.1093470E+00
          1   -1    0    0  502    0  0.00000000000E+00  0.00000000000E+00  0.34948876590E+02  0.34948876590E+02  0.00000000000E+00 0.  1.
         13   -1    0    0    0    0 -0.00000000000E+00 -0.00000000000E+00 -0.10000000000E+04  0.10000000000E+04  0.00000000000E+00 0.  1.
    9000005    2    1    2  501    0  0.21283820666E+02  0.47104780379E+02 -0.80083521701E+03  0.86278986500E+03  0.31685555855E+03 0.  0.
         13    1    3    3    0    0  0.40897536575E+02 -0.13143075928E+03 -0.41420053897E+03  0.43647306843E+03  0.00000000000E+00 0.  1.
          1    1    3    3  501    0 -0.19613715909E+02  0.17853553966E+03 -0.38663467804E+03  0.42631679657E+03  0.00000000000E+00 0.  1.
         21    1    1    2  502  501 -0.21283820666E+02 -0.47104780379E+02 -0.16421590640E+03  0.17215901159E+03  0.00000000000E+00 0. -1.
<mgrwt>
<rscale>  1 0.30000000E+03</rscale>
<asrwt>0</asrwt>
<pdfrwt beam="1">  1        1 0.12708709E+00 0.30000000E+03</pdfrwt>
<pdfrwt beam="2">0</pdfrwt>
<totfact> 0.23735471E+01</totfact>
</mgrwt>
</event>
<event>
 6    1  0.1904828E-004  0.3000000E+03  0.7818608E-02  0.1093470E+00
          1   -1    0    0  502    0  0.00000000000E+00  0.00000000000E+00  0.42127644232E+02  0.42127644232E+02  0.00000000000E+00 0.  1.
         13   -1    0    0    0    0 -0.00000000000E+00 -0.00000000000E+00 -0.10000000000E+04  0.10000000000E+04  0.00000000000E+00 0.  1.
    9000005    2    1    2  501    0 -0.38735823704E+02 -0.63415963907E+02 -0.83701047792E+03  0.90024867457E+03  0.32301561478E+03 0.  0.
         13    1    3    3    0    0  0.11403110147E+03 -0.59380267614E+02 -0.62975007293E+03  0.64273965385E+03  0.00000000000E+00 0.  1.
          1    1    3    3  501    0 -0.15276692517E+03 -0.40356962929E+01 -0.20726040499E+03  0.25750902071E+03  0.00000000000E+00 0.  1.
         21    1    1    2  502  501  0.38735823704E+02  0.63415963907E+02 -0.12086187785E+03  0.14187896966E+03  0.00000000000E+00 0.  1.
<mgrwt>
<rscale>  1 0.30000000E+03</rscale>
<asrwt>0</asrwt>
<pdfrwt beam="1">  1        1 0.15319176E+00 0.30000000E+03</pdfrwt>
<pdfrwt beam="2">0</pdfrwt>
<totfact> 0.17308757E+01</totfact>
</mgrwt>
</event>
<event>
 6    1  0.1904828E-004  0.3000000E+03  0.7818608E-02  0.1093470E+00
          1   -1    0    0  502    0  0.00000000000E+00  0.00000000000E+00  0.33472473650E+02  0.33472473650E+02  0.00000000000E+00 0.  1.
         13   -1    0    0    0    0 -0.00000000000E+00 -0.00000000000E+00 -0.10000000000E+04  0.10000000000E+04  0.00000000000E+00 0.  1.
    9000005    2    1    2  501    0  0.24589090534E+01  0.12426052058E+02 -0.96380594655E+03  0.10205163940E+04  0.33521836882E+03 0.  0.
         13    1    3    3    0    0 -0.69170009581E+02  0.57202480068E+02 -0.92182937136E+03  0.92618896768E+03  0.00000000000E+00 0.  1.
          3    1    3    3  501    0  0.71628918635E+02 -0.44776428010E+02 -0.41976575195E+02  0.94327426315E+02  0.00000000000E+00 0.  1.
         21    1    1    2  502  501 -0.24589090534E+01 -0.12426052058E+02 -0.27215797982E+01  0.12956079657E+02  0.00000000000E+00 0. -1.
<mgrwt>
<rscale>  1 0.30000000E+03</rscale>
<asrwt>0</asrwt>
<pdfrwt beam="1">  1        1 0.12171834E+00 0.30000000E+03</pdfrwt>
<pdfrwt beam="2">0</pdfrwt>
<totfact> 0.25423017E+01</totfact>
</mgrwt>
</event>
<event>
 6    1  0.1904828E-004  0.3000000E+03  0.7818608E-02  0.1093470E+00
          1   -1    0    0  502    0  0.00000000000E+00  0.00000000000E+00  0.23648472587E+02  0.23648472587E+02  0.00000000000E+00 0.  1.
         13   -1    0    0    0    0 -0.00000000000E+00 -0.00000000000E+00 -0.10000000000E+04  0.10000000000E+04  0.00000000000E+00 0.  1.
    9000005    2    1    2  501    0  0.16934403358E+02 -0.45422890709E+01 -0.96732370603E+03  0.10039277230E+04  0.26804535859E+03 0.  0.
         13    1    3    3    0    0  0.11440236383E+03 -0.49139871108E+02 -0.25711304709E+03  0.28567419689E+03  0.00000000000E+00 0.  1.
          3    1    3    3  501    0 -0.97467960469E+02  0.44597582037E+02 -0.71021065894E+03  0.71825352607E+03  0.00000000000E+00 0.  1.
         21    1    1    2  502  501 -0.16934403358E+02  0.45422890709E+01 -0.90278213825E+01  0.19720749631E+02  0.00000000000E+00 0.  1.
<mgrwt>
<rscale>  1 0.30000000E+03</rscale>
<asrwt>0</asrwt>
<pdfrwt beam="1">  1        1 0.85994627E-01 0.30000000E+03</pdfrwt>
<pdfrwt beam="2">0</pdfrwt>
<totfact> 0.42471590E+01</totfact>
</mgrwt>
</event>
<event>
 6    1  0.1904828E-004  0.3000000E+03  0.7818608E-02  0.1093470E+00
          1   -1    0    0  502    0  0.00000000000E+00  0.00000000000E+00  0.32377154113E+02  0.32377154113E+02  0.00000000000E+00 0.  1.
         13   -1    0    0    0    0 -0.00000000000E+00 -0.00000000000E+00 -0.10000000000E+04  0.10000000000E+04  0.00000000000E+00 0.  1.
    9000005    2    1    2  501    0  0.76771827949E+01 -0.15270031935E+02 -0.95486361996E+03  0.10110485147E+04  0.33190729644E+03 0.  0.
         13    1    3    3    0    0  0.86231292309E+02  0.13647265843E+03 -0.47209234603E+03  0.49893066197E+03  0.00000000000E+00 0.  1.
          1    1    3    3  501    0 -0.78554109514E+02 -0.15174269036E+03 -0.48277127393E+03  0.51211785278E+03  0.00000000000E+00 0.  1.
         21    1    1    2  502  501 -0.76771827949E+01  0.15270031935E+02 -0.12759225923E+02  0.21328639364E+02  0.00000000000E+00 0.  1.
<mgrwt>
<rscale>  1 0.30000000E+03</rscale>
<asrwt>0</asrwt>
<pdfrwt beam="1">  1        1 0.11773535E+00 0.30000000E+03</pdfrwt>
<pdfrwt beam="2">0</pdfrwt>
<totfact> 0.26777995E+01</totfact>
</mgrwt>
</event>
<event>
 6    1  0.1904828E-004  0.3000000E+03  0.7818608E-02  0.1093470E+00
          1   -1    0    0  502    0  0.00000000000E+00  0.00000000000E+00  0.34336775458E+02  0.34336775458E+02  0.00000000000E+00 0.  1.
         13   -1    0    0    0    0 -0.00000000000E+00 -0.00000000000E+00 -0.10000000000E+04  0.10000000000E+04  0.00000000000E+00 0.  1.
    9000005    2    1    2  501    0 -0.12487674617E+02  0.12841194880E+01 -0.96231071460E+03  0.10213433039E+04  0.34196877343E+03 0.  0.
         13    1    3    3    0    0 -0.12397889935E+03  0.43003382334E+01 -0.12314016013E+03  0.17479347650E+03  0.00000000000E+00 0.  1.
          3    1    3    3  501    0  0.11149122473E+03 -0.30162187454E+01 -0.83917055448E+03  0.84654982740E+03  0.00000000000E+00 0.  1.
         21    1    1    2  502  501  0.12487674617E+02 -0.12841194880E+01 -0.33525099397E+01  0.12993471557E+02  0.00000000000E+00 0.  1.
<mgrwt>
<rscale>  1 0.30000000E+03</rscale>
<asrwt>0</asrwt>
<pdfrwt beam="1">  1        1 0.12486126E+00 0.30000000E+03</pdfrwt>
<pdfrwt beam="2">0</pdfrwt>
<totfact> 0.24417155E+01</totfact>
</mgrwt>
</event>
<event>
 6    1  0.1904828E-004  0.3000000E+03  0.7818608E-02  0.1093470E+00
          1   -1    0    0  502    0  0.00000000000E+00  0.00000000000E+00  0.24640866933E+02  0.24640866933E+02  0.00000000000E+00 0.  1.
         13   -1    0    0    0    0 -0.00000000000E+00 -0.00000000000E+00 -0.10000000000E+04  0.10000000000E+04  0.00000000000E+00 0.  1.
    9000005    2    1    2  501    0 -0.19765927287E+01  0.10354144364E+02 -0.97223640511E+03  0.10136469298E+04  0.28657521804E+03 0.  0.
         13    1    3    3    0    0  0.13326224065E+03 -0.16912928824E+02 -0.63926578886E+03  0.65322708207E+03  0.00000000000E+00 0.  1.
          1    1    3    3  501    0 -0.13523883338E+03  0.27267073188E+02 -0.33297061625E+03  0.36041984771E+03  0.00000000000E+00 0.  1.
         21    1    1    2  502  501  0.19765927287E+01 -0.10354144364E+02 -0.31227279547E+01  0.10993937157E+02  0.00000000000E+00 0. -1.
<mgrwt>
<rscale>  1 0.30000000E+03</rscale>
<asrwt>0</asrwt>
<pdfrwt beam="1">  1        1 0.89603341E-01 0.30000000E+03</pdfrwt>
<pdfrwt beam="2">0</pdfrwt>
<totfact> 0.40081932E+01</totfact>
</mgrwt>
</event>
<event>
 6    1  0.1904828E-004  0.3000000E+03  0.7818608E-02  0.1093470E+00
          1   -1    0    0  502    0  0.00000000000E+00  0.00000000000E+00  0.30455169747E+02  0.30455169747E+02  0.00000000000E+00 0.  1.
         13   -1    0    0    0    0 -0.00000000000E+00 -0.00000000000E+00 -0.10000000000E+04  0.10000000000E+04  0.00000000000E+00 0.  1.
    9000005    2    1    2  501    0 -0.94511123156E+01  0.15287030618E+02 -0.93442583214E+03  0.99100443012E+03  0.32956809297E+03 0.  0.
         13    1    3    3    0    0 -0.90317947533E+02 -0.12584737640E+03 -0.32163998047E+03  0.35699743812E+03  0.00000000000E+00 0.  1.
          1    1    3    3  501    0  0.80866835218E+02  0.14113440701E+03 -0.61278585167E+03  0.63400699199E+03  0.00000000000E+00 0.  1.
         21    1    1    2  502  501  0.94511123156E+01 -0.15287030618E+02 -0.35118998111E+02  0.39450739631E+02  0.00000000000E+00 0.  1.
<mgrwt>
<rscale>  1 0.30000000E+03</rscale>
<asrwt>0</asrwt>
<pdfrwt beam="1">  1        1 0.11074631E+00 0.30000000E+03</pdfrwt>
<pdfrwt beam="2">0</pdfrwt>
<totfact> 0.29407538E+01</totfact>
</mgrwt>
</event>
<event>
 6    1  0.1904828E-004  0.3000000E+03  0.7818608E-02  0.1093470E+00
          1   -1    0    0  502    0  0.00000000000E+00  0.00000000000E+00  0.58951064810E+02  0.58951064810E+02  0.00000000000E+00 0.  1.
         13   -1    0    0    0    0 -0.00000000000E+00 -0.00000000000E+00 -0.10000000000E+04  0.10000000000E+04  0.00000000000E+00 0.  1.
    9000005    2    1    2  501    0  0.87706915120E+02 -0.37263978952E+02 -0.86801490018E+03  0.93888825892E+03  0.34493505001E+03 0.  0.
         13    1    3    3    0    0 -0.28598327922E+02  0.12253457936E+03 -0.15857231545E+03  0.20242965871E+03  0.00000000000E+00 0.  1.
          3    1    3    3  501    0  0.11630524304E+03 -0.15979855832E+03 -0.70944258473E+03  0.73645860021E+03  0.00000000000E+00 0.  1.
         21    1    1    2  502  501 -0.87706915120E+02  0.37263978952E+02 -0.73034035014E+02  0.12006280589E+03  0.00000000000E+00 0.  1.
<mgrwt>
<rscale>  1 0.30000000E+03</rscale>
<asrwt>0</asrwt>
<pdfrwt beam="1">  1        1 0.21436796E+00 0.30000000E+03</pdfrwt>
<pdfrwt beam="2">0</pdfrwt>
<totfact> 0.87606557E+00</totfact>
</mgrwt>
</event>
<event>
 6    1  0.1904828E-004  0.3000000E+03  0.7818608E-02  0.1093470E+00
          1   -1    0    0  502    0  0.00000000000E+00  0.00000000000E+00  0.10708187045E+03  0.10708187045E+03  0.00000000000E+00 0.  1.
         13   -1    0    0    0    0 -0.00000000000E+00 -0.00000000000E+00 -0.10000000000E+04  0.10000000000E+04  0.00000000000E+00 0.  1.
    9000005    2    1    2  501    0 -0.13954447130E+02  0.51039504054E+01 -0.97374586883E+03  0.10248997535E+04  0.31940211460E+03 0.  0.
         13    1    3    3    0    0  0.29396561708E+02 -0.91699112765E+02 -0.80878907015E+02  0.12575485168E+03  0.00000000000E+00 0.  1.
          3    1    3    3  501    0 -0.43351008838E+02  0.96803063170E+02 -0.89286696182E+03  0.89914490184E+03  0.00000000000E+00 0.  1.
         21    1    1    2  502  501  0.13954447130E+02 -0.51039504054E+01  0.80827739285E+02  0.82182116926E+02  0.00000000000E+00 0.  1.
<mgrwt>
<rscale>  1 0.30000000E+03</rscale>
<asrwt>0</asrwt>
<pdfrwt beam="1">  1        1 0.38938944E+00 0.30000000E+03</pdfrwt>
<pdfrwt beam="2">0</pdfrwt>
<totfact> 0.12086627E+00</totfact>
</mgrwt>
</event>
<event>
 6    1  0.1904828E-004  0.3000000E+03  0.7818608E-02  0.1093470E+00
          1   -1    0    0  502    0  0.00000000000E+00  0.00000000000E+00  0.53247475395E+02  0.53247475395E+02  0.00000000000E+00 0.  1.
         13   -1    0    0    0    0 -0.00000000000E+00 -0.00000000000E+00 -0.10000000000E+04  0.10000000000E+04  0.00000000000E+00 0.  1.
    9000005    2    1    2  501    0  0.17524817145E+02  0.11393549588E+02 -0.97498212707E+03  0.10181213791E+04  0.29247916540E+03 0.  0.
         13    1    3    3    0    0  0.13369915692E+03 -0.38952205942E+02 -0.72104227586E+03  0.73436687186E+03  0.00000000000E+00 0.  1.
          1    1    3    3  501    0 -0.11617433977E+03  0.50345755530E+02 -0.25393985121E+03  0.28375450720E+03  0.00000000000E+00 0.  1.
         21    1    1    2  502  501 -0.17524817145E+02 -0.11393549588E+02  0.28229602469E+02  0.35126096335E+02  0.00000000000E+00 0.  1.
<mgrwt>
<rscale>  1 0.30000000E+03</rscale>
<asrwt>0</asrwt>
<pdfrwt beam="1">  1        1 0.19362759E+00 0.30000000E+03</pdfrwt>
<pdfrwt beam="2">0</pdfrwt>
<totfact> 0.10985377E+01</totfact>
</mgrwt>
</event>
<event>
 6    1  0.1904828E-004  0.3000000E+03  0.7818608E-02  0.1093470E+00
          1   -1    0    0  502    0  0.00000000000E+00  0.00000000000E+00  0.29633232119E+02  0.29633232119E+02  0.00000000000E+00 0.  1.
         13   -1    0    0    0    0 -0.00000000000E+00 -0.00000000000E+00 -0.10000000000E+04  0.10000000000E+04  0.00000000000E+00 0.  1.
    9000005    2    1    2  501    0  0.69210321164E+01 -0.10763970715E+02 -0.92852369399E+03  0.98587701446E+03  0.33110945862E+03 0.  0.
         13    1    3    3    0    0  0.24017443956E+02  0.13300878931E+03 -0.18925244933E+03  0.23256109998E+03  0.00000000000E+00 0.  1.
          3    1    3    3  501    0 -0.17096411839E+02 -0.14377276003E+03 -0.73927124466E+03  0.75331591448E+03  0.00000000000E+00 0.  1.
         21    1    1    2  502  501 -0.69210321164E+01  0.10763970715E+02 -0.41843073891E+02  0.43756217659E+02  0.00000000000E+00 0.  1.
<mgrwt>
<rscale>  1 0.30000000E+03</rscale>
<asrwt>0</asrwt>
<pdfrwt beam="1">  1        1 0.10775743E+00 0.30000000E+03</pdfrwt>
<pdfrwt beam="2">0</pdfrwt>
<totfact> 0.30644454E+01</totfact>
</mgrwt>
</event>
<event>
 6    1  0.1904828E-004  0.3000000E+03  0.7818608E-02  0.1093470E+00
          1   -1    0    0  502    0  0.00000000000E+00  0.00000000000E+00  0.38998807076E+02  0.38998807076E+02  0.00000000000E+00 0.  1.
         13   -1    0    0    0    0 -0.00000000000E+00 -0.00000000000E+00 -0.10000000000E+04  0.10000000000E+04  0.00000000000E+00 0.  1.
    9000005    2    1    2  501    0 -0.27093190640E+02  0.83772807207E+01 -0.95704759627E+03  0.10103657713E+04  0.32263705688E+03 0.  0.
         13    1    3    3    0    0 -0.71609777658E+02  0.29589712260E+02 -0.95791737598E+03  0.96104589409E+03  0.00000000000E+00 0.  1.
          1    1    3    3  501    0  0.44516587018E+02 -0.21212431539E+02  0.86977971120E+00  0.49319877213E+02  0.00000000000E+00 0.  1.
         21    1    1    2  502  501  0.27093190640E+02 -0.83772807207E+01 -0.39535966522E+01  0.28633035777E+02  0.00000000000E+00 0.  1.
<mgrwt>
<rscale>  1 0.30000000E+03</rscale>
<asrwt>0</asrwt>
<pdfrwt beam="1">  1        1 0.14181414E+00 0.30000000E+03</pdfrwt>
<pdfrwt beam="2">0</pdfrwt>
<totfact> 0.19795172E+01</totfact>
</mgrwt>
</event>
<event>
 6    1  0.1904828E-004  0.3000000E+03  0.7818608E-02  0.1093470E+00
          1   -1    0    0  502    0  0.00000000000E+00  0.00000000000E+00  0.34890450950E+02  0.34890450950E+02  0.00000000000E+00 0.  1.
         13   -1    0    0    0    0 -0.00000000000E+00 -0.00000000000E+00 -0.10000000000E+04  0.10000000000E+04  0.00000000000E+00 0.  1.
    9000005    2    1    2  501    0  0.24637331569E+02  0.29039470146E+02 -0.74045029297E+03  0.80702630222E+03  0.31870758884E+03 0.  0.
         13    1    3    3    0    0  0.13645804375E+03  0.88742626787E+02 -0.23463303797E+03  0.28556735461E+03  0.00000000000E+00 0.  1.
          3    1    3    3  501    0 -0.11182071218E+03 -0.59703156641E+02 -0.50581725500E+03  0.52145894761E+03  0.00000000000E+00 0.  1.
         21    1    1    2  502  501 -0.24637331569E+02 -0.29039470146E+02 -0.22465925608E+03  0.22786414873E+03  0.00000000000E+00 0. -1.
<mgrwt>
<rscale>  1 0.30000000E+03</rscale>
<asrwt>0</asrwt>
<pdfrwt beam="1">  1        1 0.12687463E+00 0.30000000E+03</pdfrwt>
<pdfrwt beam="2">0</pdfrwt>
<totfact> 0.23799482E+01</totfact>
</mgrwt>
</event>
<event>
 6    1  0.1904828E-004  0.3000000E+03  0.7818608E-02  0.1093470E+00
          1   -1    0    0  502    0  0.00000000000E+00  0.00000000000E+00  0.30385824767E+02  0.30385824767E+02  0.00000000000E+00 0.  1.
         13   -1    0    0    0    0 -0.00000000000E+00 -0.00000000000E+00 -0.10000000000E+04  0.10000000000E+04  0.00000000000E+00 0.  1.
    9000005    2    1    2  501    0 -0.66702252793E+01  0.37568113441E+01 -0.94573199937E+03  0.10053066729E+04  0.34084290563E+03 0.  0.
         13    1    3    3    0    0  0.22836518346E+01 -0.86537290979E+02 -0.40560180744E+02  0.95598358028E+02  0.00000000000E+00 0.  1.
          1    1    3    3  501    0 -0.89538771139E+01  0.90294102323E+02 -0.90517181863E+03  0.90970831483E+03  0.00000000000E+00 0.  1.
         21    1    1    2  502  501  0.66702252793E+01 -0.37568113441E+01 -0.23882175863E+02  0.25079151914E+02  0.00000000000E+00 0. -1.
<mgrwt>
<rscale>  1 0.30000000E+03</rscale>
<asrwt>0</asrwt>
<pdfrwt beam="1">  1        1 0.11049414E+00 0.30000000E+03</pdfrwt>
<pdfrwt beam="2">0</pdfrwt>
<totfact> 0.29509124E+01</totfact>
</mgrwt>
</event>
<event>
 6    1  0.1904828E-004  0.3000000E+03  0.7818608E-02  0.1093470E+00
          3   -1    0    0  502    0  0.00000000000E+00  0.00000000000E+00  0.30695060866E+02  0.30695060866E+02  0.00000000000E+00 0.  1.
         13   -1    0    0    0    0 -0.00000000000E+00 -0.00000000000E+00 -0.10000000000E+04  0.10000000000E+04  0.00000000000E+00 0.  1.
    9000005    2    1    2  501    0 -0.11005799637E+02  0.13867947008E+02 -0.95228092509E+03  0.10061336148E+04  0.32427217413E+03 0.  0.
         13    1    3    3    0    0 -0.11421968279E+02  0.16173155046E+03 -0.34633503847E+03  0.38240752431E+03  0.00000000000E+00 0.  1.
          1    1    3    3  501    0  0.41616864242E+00 -0.14786360345E+03 -0.60594588662E+03  0.62372609047E+03  0.00000000000E+00 0.  1.
         21    1    1    2  502  501  0.11005799637E+02 -0.13867947008E+02 -0.17024014046E+02  0.24561446091E+02  0.00000000000E+00 0.  1.
<mgrwt>
<rscale>  1 0.30000000E+03</rscale>
<asrwt>0</asrwt>
<pdfrwt beam="1">  1        3 0.11161864E+00 0.30000000E+03</pdfrwt>
<pdfrwt beam="2">0</pdfrwt>
<totfact> 0.28882134E+00</totfact>
</mgrwt>
</event>
<event>
 6    1  0.1904828E-004  0.3000000E+03  0.7818608E-02  0.1093470E+00
          1   -1    0    0  502    0  0.00000000000E+00  0.00000000000E+00  0.54821258718E+02  0.54821258718E+02  0.00000000000E+00 0.  1.
         13   -1    0    0    0    0 -0.00000000000E+00 -0.00000000000E+00 -0.10000000000E+04  0.10000000000E+04  0.00000000000E+00 0.  1.
    9000005    2    1    2  501    0 -0.44978867193E+02  0.96293827431E+02 -0.85651021861E+03  0.91640989138E+03  0.30806125161E+03 0.  0.
         13    1    3    3    0    0  0.86153002543E+01  0.16858277087E+03 -0.78071020273E+03  0.79875077131E+03  0.00000000000E+00 0.  1.
          3    1    3    3  501    0 -0.53594167447E+02 -0.72288943436E+02 -0.75800015886E+02  0.11765912007E+03  0.00000000000E+00 0.  1.
         21    1    1    2  502  501  0.44978867193E+02 -0.96293827431E+02 -0.88668522670E+02  0.13841136734E+03  0.00000000000E+00 0.  1.
<mgrwt>
<rscale>  1 0.30000000E+03</rscale>
<asrwt>0</asrwt>
<pdfrwt beam="1">  1        1 0.19935045E+00 0.30000000E+03</pdfrwt>
<pdfrwt beam="2">0</pdfrwt>
<totfact> 0.10316520E+01</totfact>
</mgrwt>
</event>
<event>
 6    1  0.1904828E-004  0.3000000E+03  0.7818608E-02  0.1093470E+00
          1   -1    0    0  502    0  0.00000000000E+00  0.00000000000E+00  0.32499413276E+02  0.32499413276E+02  0.00000000000E+00 0.  1.
         13   -1    0    0    0    0 -0.00000000000E+00 -0.00000000000E+00 -0.10000000000E+04  0.10000000000E+04  0.00000000000E+00 0.  1.
    9000005    2    1    2  501    0 -0.19180902331E+02 -0.32550169072E+00 -0.95452705077E+03  0.10093407086E+04  0.32753436841E+03 0.  0.
         13    1    3    3    0    0 -0.63540712593E+02  0.15398796442E+03 -0.52437184304E+03  0.55019591521E+03  0.00000000000E+00 0.  1.
          1    1    3    3  501    0  0.44359810263E+02 -0.15431346611E+03 -0.43015520773E+03  0.45914479342E+03  0.00000000000E+00 0.  1.
         21    1    1    2  502  501  0.19180902331E+02  0.32550169072E+00 -0.12973535954E+02  0.23158704642E+02  0.00000000000E+00 0. -1.
<mgrwt>
<rscale>  1 0.30000000E+03</rscale>
<asrwt>0</asrwt>
<pdfrwt beam="1">  1        1 0.11817993E+00 0.30000000E+03</pdfrwt>
<pdfrwt beam="2">0</pdfrwt>
<totfact> 0.26621989E+01</totfact>
</mgrwt>
</event>
<event>
 6    1  0.1904828E-004  0.3000000E+03  0.7818608E-02  0.1093470E+00
          1   -1    0    0  502    0  0.00000000000E+00  0.00000000000E+00  0.55921216287E+02  0.55921216287E+02  0.00000000000E+00 0.  1.
         13   -1    0    0    0    0 -0.00000000000E+00 -0.00000000000E+00 -0.10000000000E+04  0.10000000000E+04  0.00000000000E+00 0.  1.
    9000005    2    1    2  501    0 -0.15572028392E+02  0.56974976542E+02 -0.94147520962E+03  0.99679918471E+03  0.32209378802E+03 0.  0.
         13    1    3    3    0    0  0.11386390721E+02 -0.94129822964E+02 -0.72644841685E+03  0.73260997523E+03  0.00000000000E+00 0.  1.
          1    1    3    3  501    0 -0.26958419113E+02  0.15110479951E+03 -0.21502679277E+03  0.26418920948E+03  0.00000000000E+00 0.  1.
         21    1    1    2  502  501  0.15572028392E+02 -0.56974976542E+02 -0.26035740943E+01  0.59122031581E+02  0.00000000000E+00 0.  1.
<mgrwt>
<rscale>  1 0.30000000E+03</rscale>
<asrwt>0</asrwt>
<pdfrwt beam="1">  1        1 0.20335031E+00 0.30000000E+03</pdfrwt>
<pdfrwt beam="2">0</pdfrwt>
<totfact> 0.98749632E+00</totfact>
</mgrwt>
</event>
<event>
 6    1  0.1904828E-004  0.3000000E+03  0.7818608E-02  0.1093470E+00
          1   -1    0    0  502    0  0.00000000000E+00  0.00000000000E+00  0.31705331031E+02  0.31705331031E+02  0.00000000000E+00 0.  1.
         13   -1    0    0    0    0 -0.00000000000E+00 -0.00000000000E+00 -0.10000000000E+04  0.10000000000E+04  0.00000000000E+00 0.  1.
    9000005    2    1    2  501    0 -0.86443821387E+01  0.23901646283E+02 -0.93403115935E+03  0.98904384807E+03  0.32426457209E+03 0.  0.
         13    1    3    3    0    0 -0.12817833535E+03 -0.54956461345E+02 -0.21771062196E+03  0.25854944056E+03  0.00000000000E+00 0.  1.
          3    1    3    3  501    0  0.11953395322E+03  0.78858107628E+02 -0.71632053739E+03  0.73049440751E+03  0.00000000000E+00 0.  1.
         21    1    1    2  502  501  0.86443821387E+01 -0.23901646283E+02 -0.34263509616E+02  0.42661482965E+02  0.00000000000E+00 0.  1.
<mgrwt>
<rscale>  1 0.30000000E+03</rscale>
<asrwt>0</asrwt>
<pdfrwt beam="1">  1        1 0.11529236E+00 0.30000000E+03</pdfrwt>
<pdfrwt beam="2">0</pdfrwt>
<totfact> 0.27658121E+01</totfact>
</mgrwt>
</event>
<event>
 6    1  0.1904828E-004  0.3000000E+03  0.7818608E-02  0.1093470E+00
          1   -1    0    0  502    0  0.00000000000E+00  0.00000000000E+00  0.64243876804E+02  0.64243876804E+02  0.00000000000E+00 0.  1.
         13   -1    0    0    0    0 -0.00000000000E+00 -0.00000000000E+00 -0.10000000000E+04  0.10000000000E+04  0.00000000000E+00 0.  1.
    9000005    2    1    2  501    0 -0.72653461819E+01  0.95828080752E+02 -0.92204817860E+03  0.96716806076E+03  0.27569078291E+03 0.  0.
         13    1    3    3    0    0  0.11099548661E+03  0.12629224560E+03 -0.48175159658E+03  0.51024928236E+03  0.00000000000E+00 0.  1.
          1    1    3    3  501    0 -0.11826083280E+03 -0.30464164843E+02 -0.44029658202E+03  0.45691877840E+03  0.00000000000E+00 0.  1.
         21    1    1    2  502  501  0.72653461819E+01 -0.95828080752E+02 -0.13707944598E+02  0.97075816046E+02  0.00000000000E+00 0.  1.
<mgrwt>
<rscale>  1 0.30000000E+03</rscale>
<asrwt>0</asrwt>
<pdfrwt beam="1">  1        1 0.23361459E+00 0.30000000E+03</pdfrwt>
<pdfrwt beam="2">0</pdfrwt>
<totfact> 0.71177032E+00</totfact>
</mgrwt>
</event>
<event>
 6    1  0.1904828E-004  0.3000000E+03  0.7818608E-02  0.1093470E+00
          1   -1    0    0  502    0  0.00000000000E+00  0.00000000000E+00  0.29591734343E+02  0.29591734343E+02  0.00000000000E+00 0.  1.
         13   -1    0    0    0    0 -0.00000000000E+00 -0.00000000000E+00 -0.10000000000E+04  0.10000000000E+04  0.00000000000E+00 0.  1.
    9000005    2    1    2  501    0 -0.16089974698E+02  0.45233419937E+00 -0.93197347150E+03  0.98792249757E+03  0.32734877076E+03 0.  0.
         13    1    3    3    0    0  0.58230242410E+02 -0.14507475748E+03 -0.56469924253E+03  0.58593743770E+03  0.00000000000E+00 0.  1.
          1    1    3    3  501    0 -0.74320217107E+02  0.14552709168E+03 -0.36727422898E+03  0.40198505986E+03  0.00000000000E+00 0.  1.
         21    1    1    2  502  501  0.16089974698E+02 -0.45233419937E+00 -0.38434794153E+02  0.41669236778E+02  0.00000000000E+00 0.  1.
<mgrwt>
<rscale>  1 0.30000000E+03</rscale>
<asrwt>0</asrwt>
<pdfrwt beam="1">  1        1 0.10760653E+00 0.30000000E+03</pdfrwt>
<pdfrwt beam="2">0</pdfrwt>
<totfact> 0.30708859E+01</totfact>
</mgrwt>
</event>
<event>
 6    1  0.1904828E-004  0.3000000E+03  0.7818608E-02  0.1093470E+00
          1   -1    0    0  502    0  0.00000000000E+00  0.00000000000E+00  0.88047079908E+02  0.88047079908E+02  0.00000000000E+00 0.  1.
         13   -1    0    0    0    0 -0.00000000000E+00 -0.00000000000E+00 -0.10000000000E+04  0.10000000000E+04  0.00000000000E+00 0.  1.
    9000005    2    1    2  501    0  0.11439800523E+01  0.10086229946E+03 -0.92244910773E+03  0.98663365822E+03  0.33520010000E+03 0.  0.
         13    1    3    3    0    0 -0.15641398918E+03  0.97231978186E+02 -0.38907971190E+03  0.43046767103E+03  0.00000000000E+00 0.  1.
          3    1    3    3  501    0  0.15755796923E+03  0.36303212755E+01 -0.53336939583E+03  0.55616598719E+03  0.00000000000E+00 0.  1.
         21    1    1    2  502  501 -0.11439800523E+01 -0.10086229946E+03  0.10496187637E+02  0.10141342169E+03  0.00000000000E+00 0.  1.
<mgrwt>
<rscale>  1 0.30000000E+03</rscale>
<asrwt>0</asrwt>
<pdfrwt beam="1">  1        1 0.32017187E+00 0.30000000E+03</pdfrwt>
<pdfrwt beam="2">0</pdfrwt>
<totfact> 0.27791944E+00</totfact>
</mgrwt>
</event>
<event>
 6    1  0.1904828E-004  0.3000000E+03  0.7818608E-02  0.1093470E+00
          1   -1    0    0  502    0  0.00000000000E+00  0.00000000000E+00  0.34397776110E+02  0.34397776110E+02  0.00000000000E+00 0.  1.
         13   -1    0    0    0    0 -0.00000000000E+00 -0.00000000000E+00 -0.10000000000E+04  0.10000000000E+04  0.00000000000E+00 0.  1.
    9000005    2    1    2  501    0 -0.12891833660E+02 -0.29742936499E+01 -0.95958680099E+03  0.10198639841E+04  0.34516759931E+03 0.  0.
         13    1    3    3    0    0  0.38503168238E+02 -0.15160533592E+03 -0.26521284237E+03  0.30790343227E+03  0.00000000000E+00 0.  1.
          1    1    3    3  501    0 -0.51395001898E+02  0.14863104227E+03 -0.69437395862E+03  0.71196055182E+03  0.00000000000E+00 0.  1.
         21    1    1    2  502  501  0.12891833660E+02  0.29742936499E+01 -0.60154228998E+01  0.14533792020E+02  0.00000000000E+00 0.  1.
<mgrwt>
<rscale>  1 0.30000000E+03</rscale>
<asrwt>0</asrwt>
<pdfrwt beam="1">  1        1 0.12508309E+00 0.30000000E+03</pdfrwt>
<pdfrwt beam="2">0</pdfrwt>
<totfact> 0.24348112E+01</totfact>
</mgrwt>
</event>
<event>
 6    1  0.1904828E-004  0.3000000E+03  0.7818608E-02  0.1093470E+00
          1   -1    0    0  502    0  0.00000000000E+00  0.00000000000E+00  0.35705031933E+02  0.35705031933E+02  0.00000000000E+00 0.  1.
         13   -1    0    0    0    0 -0.00000000000E+00 -0.00000000000E+00 -0.10000000000E+04  0.10000000000E+04  0.00000000000E+00 0.  1.
    9000005    2    1    2  501    0  0.14707787733E+01  0.24036074189E+02 -0.90625427830E+03  0.97286700426E+03  0.35297803756E+03 0.  0.
         13    1    3    3    0    0  0.10565497083E+03 -0.67787055159E+01 -0.83778051085E+03  0.84444366779E+03  0.00000000000E+00 0.  1.
          1    1    3    3  501    0 -0.10418419206E+03  0.30814779705E+02 -0.68473767449E+02  0.12842333647E+03  0.00000000000E+00 0.  1.
         21    1    1    2  502  501 -0.14707787733E+01 -0.24036074189E+02 -0.58040689771E+02  0.62838027672E+02  0.00000000000E+00 0.  1.
<mgrwt>
<rscale>  1 0.30000000E+03</rscale>
<asrwt>0</asrwt>
<pdfrwt beam="1">  1        1 0.12983675E+00 0.30000000E+03</pdfrwt>
<pdfrwt beam="2">0</pdfrwt>
<totfact> 0.22926669E+01</totfact>
</mgrwt>
</event>
<event>
 6    1  0.1904828E-004  0.3000000E+03  0.7818608E-02  0.1093470E+00
          1   -1    0    0  502    0  0.00000000000E+00  0.00000000000E+00  0.45979057315E+02  0.45979057315E+02  0.00000000000E+00 0.  1.
         13   -1    0    0    0    0 -0.00000000000E+00 -0.00000000000E+00 -0.10000000000E+04  0.10000000000E+04  0.00000000000E+00 0.  1.
    9000005    2    1    2  501    0  0.12924195712E+02  0.31972546320E+02 -0.95697236707E+03  0.10113670730E+04  0.32538894642E+03 0.  0.
         13    1    3    3    0    0  0.24096898186E+02 -0.11164031694E+02  0.20083082359E+02  0.33296040349E+02  0.00000000000E+00 0.  1.
          1    1    3    3  501    0 -0.11172702474E+02  0.43136578014E+02 -0.97705544943E+03  0.97807103264E+03  0.00000000000E+00 0.  1.
         21    1    1    2  502  501 -0.12924195712E+02 -0.31972546320E+02  0.29514243814E+01  0.34611984324E+02  0.00000000000E+00 0. -1.
<mgrwt>
<rscale>  1 0.30000000E+03</rscale>
<asrwt>0</asrwt>
<pdfrwt beam="1">  1        1 0.16719692E+00 0.30000000E+03</pdfrwt>
<pdfrwt beam="2">0</pdfrwt>
<totfact> 0.14746010E+01</totfact>
</mgrwt>
</event>
<event>
 6    1  0.1904828E-004  0.3000000E+03  0.7818608E-02  0.1093470E+00
          3   -1    0    0  502    0  0.00000000000E+00  0.00000000000E+00  0.28656418896E+02  0.28656418896E+02  0.00000000000E+00 0.  1.
         13   -1    0    0    0    0 -0.00000000000E+00 -0.00000000000E+00 -0.10000000000E+04  0.10000000000E+04  0.00000000000E+00 0.  1.
    9000005    2    1    2  501    0 -0.10108957723E+02 -0.36061505368E+01 -0.96524675445E+03  0.10163127305E+04  0.31792306279E+03 0.  0.
         13    1    3    3    0    0  0.13144865052E+03 -0.60555792119E+02 -0.65213547532E+03  0.66800181875E+03  0.00000000000E+00 0.  1.
          1    1    3    3  501    0 -0.14155760824E+03  0.56949641583E+02 -0.31311127913E+03  0.34831091175E+03  0.00000000000E+00 0.  1.
         21    1    1    2  502  501  0.10108957723E+02  0.36061505368E+01 -0.60968266501E+01  0.12343688393E+02  0.00000000000E+00 0. -1.
<mgrwt>
<rscale>  1 0.30000000E+03</rscale>
<asrwt>0</asrwt>
<pdfrwt beam="1">  1        3 0.10420538E+00 0.30000000E+03</pdfrwt>
<pdfrwt beam="2">0</pdfrwt>
<totfact> 0.35080987E+00</totfact>
</mgrwt>
</event>
<event>
 6    1  0.1904828E-004  0.3000000E+03  0.7818608E-02  0.1093470E+00
          1   -1    0    0  502    0  0.00000000000E+00  0.00000000000E+00  0.27375407040E+02  0.27375407040E+02  0.00000000000E+00 0.  1.
         13   -1    0    0    0    0 -0.00000000000E+00 -0.00000000000E+00 -0.10000000000E+04  0.10000000000E+04  0.00000000000E+00 0.  1.
    9000005    2    1    2  501    0  0.13672382972E+02 -0.30411610404E+01 -0.95997445835E+03  0.10085019171E+04  0.30875390428E+03 0.  0.
         13    1    3    3    0    0  0.36483199869E+02  0.13892175891E+03 -0.66519376901E+03  0.68052408429E+03  0.00000000000E+00 0.  1.
          3    1    3    3  501    0 -0.22810816897E+02 -0.14196291995E+03 -0.29478068934E+03  0.32797783282E+03  0.00000000000E+00 0.  1.
         21    1    1    2  502  501 -0.13672382972E+02  0.30411610404E+01 -0.12650134610E+02  0.18873489933E+02  0.00000000000E+00 0.  1.
<mgrwt>
<rscale>  1 0.30000000E+03</rscale>
<asrwt>0</asrwt>
<pdfrwt beam="1">  1        1 0.99547145E-01 0.30000000E+03</pdfrwt>
<pdfrwt beam="2">0</pdfrwt>
<totfact> 0.34454685E+01</totfact>
</mgrwt>
</event>
<event>
 6    1  0.1904828E-004  0.3000000E+03  0.7818608E-02  0.1093470E+00
          1   -1    0    0  502    0  0.00000000000E+00  0.00000000000E+00  0.31015710148E+02  0.31015710148E+02  0.00000000000E+00 0.  1.
         13   -1    0    0    0    0 -0.00000000000E+00 -0.00000000000E+00 -0.10000000000E+04  0.10000000000E+04  0.00000000000E+00 0.  1.
    9000005    2    1    2  501    0  0.12094757082E+02  0.22970899911E+01 -0.96459215249E+03  0.10179447254E+04  0.32499520547E+03 0.  0.
         13    1    3    3    0    0 -0.13700096891E+03 -0.11969877494E+02 -0.70460926128E+03  0.71790441880E+03  0.00000000000E+00 0.  1.
          1    1    3    3  501    0  0.14909572600E+03  0.14266967486E+02 -0.25998289122E+03  0.30004030662E+03  0.00000000000E+00 0.  1.
         21    1    1    2  502  501 -0.12094757082E+02 -0.22970899911E+01 -0.43921373594E+01  0.13070984732E+02  0.00000000000E+00 0. -1.
<mgrwt>
<rscale>  1 0.30000000E+03</rscale>
<asrwt>0</asrwt>
<pdfrwt beam="1">  1        1 0.11278464E+00 0.30000000E+03</pdfrwt>
<pdfrwt beam="2">0</pdfrwt>
<totfact> 0.28604250E+01</totfact>
</mgrwt>
</event>
<event>
 6    1  0.1904828E-004  0.3000000E+03  0.7818608E-02  0.1093470E+00
          1   -1    0    0  502    0  0.00000000000E+00  0.00000000000E+00  0.30069645972E+02  0.30069645972E+02  0.00000000000E+00 0.  1.
         13   -1    0    0    0    0 -0.00000000000E+00 -0.00000000000E+00 -0.10000000000E+04  0.10000000000E+04  0.00000000000E+00 0.  1.
    9000005    2    1    2  501    0 -0.17053680403E+02 -0.30667960365E+01 -0.95524382587E+03  0.10073556115E+04  0.31933419466E+03 0.  0.
         13    1    3    3    0    0 -0.10483293519E+03  0.35648982275E+02 -0.87586388035E+03  0.88283539300E+03  0.00000000000E+00 0.  1.
          3    1    3    3  501    0  0.87779254784E+02 -0.38715778311E+02 -0.79379945519E+02  0.12452021848E+03  0.00000000000E+00 0.  1.
         21    1    1    2  502  501  0.17053680403E+02  0.30667960365E+01 -0.14686528159E+02  0.22714034485E+02  0.00000000000E+00 0.  1.
<mgrwt>
<rscale>  1 0.30000000E+03</rscale>
<asrwt>0</asrwt>
<pdfrwt beam="1">  1        1 0.10934440E+00 0.30000000E+03</pdfrwt>
<pdfrwt beam="2">0</pdfrwt>
<totfact> 0.29978677E+01</totfact>
</mgrwt>
</event>
<event>
 6    1  0.1904828E-004  0.3000000E+03  0.7818608E-02  0.1093470E+00
          1   -1    0    0  502    0  0.00000000000E+00  0.00000000000E+00  0.39556851263E+02  0.39556851263E+02  0.00000000000E+00 0.  1.
         13   -1    0    0    0    0 -0.00000000000E+00 -0.00000000000E+00 -0.10000000000E+04  0.10000000000E+04  0.00000000000E+00 0.  1.
    9000005    2    1    2  501    0  0.33231546988E+02 -0.15306949256E+02 -0.94444595318E+03  0.99962505095E+03  0.32547418576E+03 0.  0.
         13    1    3    3    0    0 -0.45875306412E+02 -0.88366180984E+02 -0.77910737258E+02  0.12642471539E+03  0.00000000000E+00 0.  1.
          1    1    3    3  501    0  0.79106853401E+02  0.73059231728E+02 -0.86653521592E+03  0.87320033556E+03  0.00000000000E+00 0.  1.
         21    1    1    2  502  501 -0.33231546988E+02  0.15306949256E+02 -0.15997195561E+02  0.39931800317E+02  0.00000000000E+00 0.  1.
<mgrwt>
<rscale>  1 0.30000000E+03</rscale>
<asrwt>0</asrwt>
<pdfrwt beam="1">  1        1 0.14384340E+00 0.30000000E+03</pdfrwt>
<pdfrwt beam="2">0</pdfrwt>
<totfact> 0.19320378E+01</totfact>
</mgrwt>
</event>
<event>
 6    1  0.1904828E-004  0.3000000E+03  0.7818608E-02  0.1093470E+00
          1   -1    0    0  502    0  0.00000000000E+00  0.00000000000E+00  0.26218919837E+02  0.26218919837E+02  0.00000000000E+00 0.  1.
         13   -1    0    0    0    0 -0.00000000000E+00 -0.00000000000E+00 -0.10000000000E+04  0.10000000000E+04  0.00000000000E+00 0.  1.
    9000005    2    1    2  501    0  0.18581480773E+02 -0.11959674338E+02 -0.91750015565E+03  0.96575531341E+03  0.30064677701E+03 0.  0.
         13    1    3    3    0    0  0.74666183649E+02 -0.56240557490E+02 -0.73970525478E+02  0.11920435364E+03  0.00000000000E+00 0.  1.
          3    1    3    3  501    0 -0.56084702876E+02  0.44280883152E+02 -0.84352963017E+03  0.84655095977E+03  0.00000000000E+00 0.  1.
         21    1    1    2  502  501 -0.18581480773E+02  0.11959674338E+02 -0.56280924511E+02  0.60463606424E+02  0.00000000000E+00 0.  1.
<mgrwt>
<rscale>  1 0.30000000E+03</rscale>
<asrwt>0</asrwt>
<pdfrwt beam="1">  1        1 0.95341728E-01 0.30000000E+03</pdfrwt>
<pdfrwt beam="2">0</pdfrwt>
<totfact> 0.36680880E+01</totfact>
</mgrwt>
</event>
<event>
 6    1  0.1904828E-004  0.3000000E+03  0.7818608E-02  0.1093470E+00
          1   -1    0    0  502    0  0.00000000000E+00  0.00000000000E+00  0.28791408394E+02  0.28791408394E+02  0.00000000000E+00 0.  1.
         13   -1    0    0    0    0 -0.00000000000E+00 -0.00000000000E+00 -0.10000000000E+04  0.10000000000E+04  0.00000000000E+00 0.  1.
    9000005    2    1    2  501    0 -0.11603477403E+02 -0.93168190713E+01 -0.94703884133E+03  0.10004079514E+04  0.32204356588E+03 0.  0.
         13    1    3    3    0    0  0.13672336699E+03 -0.55120881019E+02 -0.63499613321E+03  0.65188317956E+03  0.00000000000E+00 0.  1.
          3    1    3    3  501    0 -0.14832684439E+03  0.45804061947E+02 -0.31204270812E+03  0.34852477179E+03  0.00000000000E+00 0.  1.
         21    1    1    2  502  501  0.11603477403E+02  0.93168190713E+01 -0.24169750273E+02  0.28383457043E+02  0.00000000000E+00 0. -1.
<mgrwt>
<rscale>  1 0.30000000E+03</rscale>
<asrwt>0</asrwt>
<pdfrwt beam="1">  1        1 0.10469625E+00 0.30000000E+03</pdfrwt>
<pdfrwt beam="2">0</pdfrwt>
<totfact> 0.31990009E+01</totfact>
</mgrwt>
</event>
<event>
 6    1  0.1904828E-004  0.3000000E+03  0.7818608E-02  0.1093470E+00
          1   -1    0    0  502    0  0.00000000000E+00  0.00000000000E+00  0.27523011471E+02  0.27523011471E+02  0.00000000000E+00 0.  1.
         13   -1    0    0    0    0 -0.00000000000E+00 -0.00000000000E+00 -0.10000000000E+04  0.10000000000E+04  0.00000000000E+00 0.  1.
    9000005    2    1    2  501    0  0.12740075809E+01  0.11352267631E+02 -0.96416039177E+03  0.10133928007E+04  0.31181598791E+03 0.  0.
         13    1    3    3    0    0  0.23767767188E+02  0.80901899126E+02 -0.53625501725E+02  0.99928566859E+02  0.00000000000E+00 0.  1.
          1    1    3    3  501    0 -0.22493759607E+02 -0.69549631495E+02 -0.91053489004E+03  0.91346423381E+03  0.00000000000E+00 0.  1.
         21    1    1    2  502  501 -0.12740075809E+01 -0.11352267631E+02 -0.83165967614E+01  0.14130210804E+02  0.00000000000E+00 0.  1.
<mgrwt>
<rscale>  1 0.30000000E+03</rscale>
<asrwt>0</asrwt>
<pdfrwt beam="1">  1        1 0.10008389E+00 0.30000000E+03</pdfrwt>
<pdfrwt beam="2">0</pdfrwt>
<totfact> 0.34185006E+01</totfact>
</mgrwt>
</event>
<event>
 6    1  0.1904828E-004  0.3000000E+03  0.7818608E-02  0.1093470E+00
          1   -1    0    0  502    0  0.00000000000E+00  0.00000000000E+00  0.34671894683E+02  0.34671894683E+02  0.00000000000E+00 0.  1.
         13   -1    0    0    0    0 -0.00000000000E+00 -0.00000000000E+00 -0.10000000000E+04  0.10000000000E+04  0.00000000000E+00 0.  1.
    9000005    2    1    2  501    0 -0.20268471802E+02  0.12746885453E+02 -0.95814093837E+03  0.10096729066E+04  0.31754059023E+03 0.  0.
         13    1    3    3    0    0  0.76048830148E+02  0.77501181933E+02 -0.82884582324E+03  0.83592778185E+03  0.00000000000E+00 0.  1.
          1    1    3    3  501    0 -0.96317301950E+02 -0.64754296480E+02 -0.12929511513E+03  0.17374512472E+03  0.00000000000E+00 0.  1.
         21    1    1    2  502  501  0.20268471802E+02 -0.12746885453E+02 -0.71871669489E+01  0.24998988113E+02  0.00000000000E+00 0. -1.
<mgrwt>
<rscale>  1 0.30000000E+03</rscale>
<asrwt>0</asrwt>
<pdfrwt beam="1">  1        1 0.12607988E+00 0.30000000E+03</pdfrwt>
<pdfrwt beam="2">0</pdfrwt>
<totfact> 0.24040896E+01</totfact>
</mgrwt>
</event>
<event>
 6    1  0.1904828E-004  0.3000000E+03  0.7818608E-02  0.1093470E+00
          1   -1    0    0  502    0  0.00000000000E+00  0.00000000000E+00  0.52419161758E+02  0.52419161758E+02  0.00000000000E+00 0.  1.
         13   -1    0    0    0    0 -0.00000000000E+00 -0.00000000000E+00 -0.10000000000E+04  0.10000000000E+04  0.00000000000E+00 0.  1.
    9000005    2    1    2  501    0 -0.38956564969E+02  0.13283024160E+02 -0.95313120307E+03  0.10108877371E+04  0.33427664298E+03 0.  0.
         13    1    3    3    0    0  0.13008283296E+03 -0.53113809910E+02 -0.56743848149E+03  0.58457595786E+03  0.00000000000E+00 0.  1.
          1    1    3    3  501    0 -0.16903939793E+03  0.66396834069E+02 -0.38569272158E+03  0.42631177923E+03  0.00000000000E+00 0.  1.
         21    1    1    2  502  501  0.38956564969E+02 -0.13283024160E+02  0.55503648321E+01  0.41531424666E+02  0.00000000000E+00 0.  1.
<mgrwt>
<rscale>  1 0.30000000E+03</rscale>
<asrwt>0</asrwt>
<pdfrwt beam="1">  1        1 0.19061554E+00 0.30000000E+03</pdfrwt>
<pdfrwt beam="2">0</pdfrwt>
<totfact> 0.11356498E+01</totfact>
</mgrwt>
</event>
<event>
 6    1  0.1904828E-004  0.3000000E+03  0.7818608E-02  0.1093470E+00
          1   -1    0    0  502    0  0.00000000000E+00  0.00000000000E+00  0.31087143957E+02  0.31087143957E+02  0.00000000000E+00 0.  1.
         13   -1    0    0    0    0 -0.00000000000E+00 -0.00000000000E+00 -0.10000000000E+04  0.10000000000E+04  0.00000000000E+00 0.  1.
    9000005    2    1    2  501    0  0.12402392180E+02 -0.99175252433E+01 -0.96073679839E+03  0.10132258854E+04  0.32149544696E+03 0.  0.
         13    1    3    3    0    0 -0.10788766045E+03 -0.91538463993E+02 -0.24539063706E+03  0.28325889646E+03  0.00000000000E+00 0.  1.
          3    1    3    3  501    0  0.12029005263E+03  0.81620938750E+02 -0.71534616133E+03  0.72996698893E+03  0.00000000000E+00 0.  1.
         21    1    1    2  502  501 -0.12402392180E+02  0.99175252433E+01 -0.81760576558E+01  0.17861258565E+02  0.00000000000E+00 0. -1.
<mgrwt>
<rscale>  1 0.30000000E+03</rscale>
<asrwt>0</asrwt>
<pdfrwt beam="1">  1        1 0.11304440E+00 0.30000000E+03</pdfrwt>
<pdfrwt beam="2">0</pdfrwt>
<totfact> 0.28504132E+01</totfact>
</mgrwt>
</event>
<event>
 6    1  0.1904828E-004  0.3000000E+03  0.7818608E-02  0.1093470E+00
          1   -1    0    0  502    0  0.00000000000E+00  0.00000000000E+00  0.33527818146E+02  0.33527818146E+02  0.00000000000E+00 0.  1.
         13   -1    0    0    0    0 -0.00000000000E+00 -0.00000000000E+00 -0.10000000000E+04  0.10000000000E+04  0.00000000000E+00 0.  1.
    9000005    2    1    2  501    0  0.24247651699E+02 -0.18204762248E+02 -0.92486827639E+03  0.98204726909E+03  0.32881020067E+03 0.  0.
         13    1    3    3    0    0  0.10891911228E+03 -0.14180582132E+03 -0.45510474501E+03  0.48897095303E+03  0.00000000000E+00 0.  1.
          1    1    3    3  501    0 -0.84671460578E+02  0.12360105907E+03 -0.46976353139E+03  0.49307631606E+03  0.00000000000E+00 0.  1.
         21    1    1    2  502  501 -0.24247651699E+02  0.18204762248E+02 -0.41603905460E+02  0.51480549054E+02  0.00000000000E+00 0. -1.
<mgrwt>
<rscale>  1 0.30000000E+03</rscale>
<asrwt>0</asrwt>
<pdfrwt beam="1">  1        1 0.12191960E+00 0.30000000E+03</pdfrwt>
<pdfrwt beam="2">0</pdfrwt>
<totfact> 0.25357005E+01</totfact>
</mgrwt>
</event>
<event>
 6    1  0.1904828E-004  0.3000000E+03  0.7818608E-02  0.1093470E+00
          1   -1    0    0  502    0  0.00000000000E+00  0.00000000000E+00  0.45642595602E+02  0.45642595602E+02  0.00000000000E+00 0.  1.
         13   -1    0    0    0    0 -0.00000000000E+00 -0.00000000000E+00 -0.10000000000E+04  0.10000000000E+04  0.00000000000E+00 0.  1.
    9000005    2    1    2  501    0 -0.12562278140E+02 -0.14878729704E+02 -0.96702089846E+03  0.10224143475E+04  0.33139476822E+03 0.  0.
         13    1    3    3    0    0  0.15104838605E+03  0.31978067292E+02 -0.35393554059E+03  0.38614579968E+03  0.00000000000E+00 0.  1.
          1    1    3    3  501    0 -0.16361066419E+03 -0.46856796996E+02 -0.61308535787E+03  0.63626854778E+03  0.00000000000E+00 0.  1.
         21    1    1    2  502  501  0.12562278140E+02  0.14878729704E+02  0.12663494064E+02  0.23228248138E+02  0.00000000000E+00 0.  1.
<mgrwt>
<rscale>  1 0.30000000E+03</rscale>
<asrwt>0</asrwt>
<pdfrwt beam="1">  1        1 0.16597342E+00 0.30000000E+03</pdfrwt>
<pdfrwt beam="2">0</pdfrwt>
<totfact> 0.14951493E+01</totfact>
</mgrwt>
</event>
<event>
 6    1  0.1904828E-004  0.3000000E+03  0.7818608E-02  0.1093470E+00
          1   -1    0    0  502    0  0.00000000000E+00  0.00000000000E+00  0.29701760679E+02  0.29701760679E+02  0.00000000000E+00 0.  1.
         13   -1    0    0    0    0 -0.00000000000E+00 -0.00000000000E+00 -0.10000000000E+04  0.10000000000E+04  0.00000000000E+00 0.  1.
    9000005    2    1    2  501    0 -0.21838780727E+01  0.11657013270E+02 -0.94103314927E+03  0.99812485809E+03  0.33251945660E+03 0.  0.
         13    1    3    3    0    0  0.12057525001E+03 -0.92608318818E+02 -0.28967105951E+03  0.32714524961E+03  0.00000000000E+00 0.  1.
          1    1    3    3  501    0 -0.12275912808E+03  0.10426533209E+03 -0.65136208976E+03  0.67097960847E+03  0.00000000000E+00 0.  1.
         21    1    1    2  502  501  0.21838780727E+01 -0.11657013270E+02 -0.29265090050E+02  0.31576902594E+02  0.00000000000E+00 0.  1.
<mgrwt>
<rscale>  1 0.30000000E+03</rscale>
<asrwt>0</asrwt>
<pdfrwt beam="1">  1        1 0.10800663E+00 0.30000000E+03</pdfrwt>
<pdfrwt beam="2">0</pdfrwt>
<totfact> 0.30538520E+01</totfact>
</mgrwt>
</event>
<event>
 6    1  0.1904828E-004  0.3000000E+03  0.7818608E-02  0.1093470E+00
          1   -1    0    0  502    0  0.00000000000E+00  0.00000000000E+00  0.28180441691E+02  0.28180441691E+02  0.00000000000E+00 0.  1.
         13   -1    0    0    0    0 -0.00000000000E+00 -0.00000000000E+00 -0.10000000000E+04  0.10000000000E+04  0.00000000000E+00 0.  1.
    9000005    2    1    2  501    0 -0.10426943487E+02 -0.18986967593E+01 -0.94982725298E+03  0.10037675825E+04  0.32444602477E+03 0.  0.
         13    1    3    3    0    0  0.12713840914E+03  0.13044896996E+02 -0.17511169446E+03  0.21679125894E+03  0.00000000000E+00 0.  1.
          3    1    3    3  501    0 -0.13756535263E+03 -0.14943593756E+02 -0.77471555852E+03  0.78697632357E+03  0.00000000000E+00 0.  1.
         21    1    1    2  502  501  0.10426943487E+02  0.18986967593E+01 -0.21992305330E+02  0.24412859185E+02  0.00000000000E+00 0. -1.
<mgrwt>
<rscale>  1 0.30000000E+03</rscale>
<asrwt>0</asrwt>
<pdfrwt beam="1">  1        1 0.10247455E+00 0.30000000E+03</pdfrwt>
<pdfrwt beam="2">0</pdfrwt>
<totfact> 0.33020762E+01</totfact>
</mgrwt>
</event>
<event>
 6    1  0.1904828E-004  0.3000000E+03  0.7818608E-02  0.1093470E+00
          1   -1    0    0  502    0  0.00000000000E+00  0.00000000000E+00  0.32282712214E+02  0.32282712214E+02  0.00000000000E+00 0.  1.
         13   -1    0    0    0    0 -0.00000000000E+00 -0.00000000000E+00 -0.10000000000E+04  0.10000000000E+04  0.00000000000E+00 0.  1.
    9000005    2    1    2  501    0 -0.60584194829E+01  0.25065823054E+02 -0.91797768106E+03  0.97625567937E+03  0.33125085456E+03 0.  0.
         13    1    3    3    0    0 -0.31979142703E+02 -0.11762194010E+03 -0.14333827348E+03  0.18815803731E+03  0.00000000000E+00 0.  1.
          3    1    3    3  501    0  0.25920723220E+02  0.14268776315E+03 -0.77463940758E+03  0.78809764206E+03  0.00000000000E+00 0.  1.
         21    1    1    2  502  501  0.60584194829E+01 -0.25065823054E+02 -0.49739606725E+02  0.56027032843E+02  0.00000000000E+00 0.  1.
<mgrwt>
<rscale>  1 0.30000000E+03</rscale>
<asrwt>0</asrwt>
<pdfrwt beam="1">  1        1 0.11739193E+00 0.30000000E+03</pdfrwt>
<pdfrwt beam="2">0</pdfrwt>
<totfact> 0.26899362E+01</totfact>
</mgrwt>
</event>
<event>
 6    1  0.1904828E-004  0.3000000E+03  0.7818608E-02  0.1093470E+00
          1   -1    0    0  502    0  0.00000000000E+00  0.00000000000E+00  0.15570396940E+02  0.15570396940E+02  0.00000000000E+00 0.  1.
         13   -1    0    0    0    0 -0.00000000000E+00 -0.00000000000E+00 -0.10000000000E+04  0.10000000000E+04  0.00000000000E+00 0.  1.
    9000005    2    1    2  501    0 -0.67943797509E+01 -0.19572161253E+02 -0.96588633994E+03  0.98776597824E+03  0.20570846600E+03 0.  0.
         13    1    3    3    0    0 -0.85654390996E+02  0.34470573722E+02 -0.27015660687E+03  0.28549866441E+03  0.00000000000E+00 0.  1.
          3    1    3    3  501    0  0.78860011245E+02 -0.54042734975E+02 -0.69572973308E+03  0.70226731382E+03  0.00000000000E+00 0.  1.
         21    1    1    2  502  501  0.67943797509E+01  0.19572161253E+02 -0.18543263116E+02  0.27804418701E+02  0.00000000000E+00 0.  1.
<mgrwt>
<rscale>  1 0.30000000E+03</rscale>
<asrwt>0</asrwt>
<pdfrwt beam="1">  1        1 0.56619745E-01 0.30000000E+03</pdfrwt>
<pdfrwt beam="2">0</pdfrwt>
<totfact> 0.74890017E+01</totfact>
</mgrwt>
</event>
<event>
 6    1  0.1904828E-004  0.3000000E+03  0.7818608E-02  0.1093470E+00
          3   -1    0    0  502    0  0.00000000000E+00  0.00000000000E+00  0.28667811068E+02  0.28667811068E+02  0.00000000000E+00 0.  1.
         13   -1    0    0    0    0 -0.00000000000E+00 -0.00000000000E+00 -0.10000000000E+04  0.10000000000E+04  0.00000000000E+00 0.  1.
    9000005    2    1    2  501    0 -0.55074102978E-01 -0.11497391141E+02 -0.97148047303E+03  0.10171693318E+04  0.30120914185E+03 0.  0.
         13    1    3    3    0    0 -0.11491490194E+03 -0.81653425632E+02 -0.70122119163E+03  0.71525091835E+03  0.00000000000E+00 0.  1.
          3    1    3    3  501    0  0.11485982784E+03  0.70156034492E+02 -0.27025928140E+03  0.30191841350E+03  0.00000000000E+00 0.  1.
         21    1    1    2  502  501  0.55074102978E-01  0.11497391141E+02  0.14828409811E+00  0.11498479220E+02  0.00000000000E+00 0.  1.
<mgrwt>
<rscale>  1 0.30000000E+03</rscale>
<asrwt>0</asrwt>
<pdfrwt beam="1">  1        3 0.10424681E+00 0.30000000E+03</pdfrwt>
<pdfrwt beam="2">0</pdfrwt>
<totfact> 0.35042919E+00</totfact>
</mgrwt>
</event>
<event>
 6    1  0.1904828E-004  0.3000000E+03  0.7818608E-02  0.1093470E+00
          3   -1    0    0  502    0  0.00000000000E+00  0.00000000000E+00  0.37581890127E+02  0.37581890127E+02  0.00000000000E+00 0.  1.
         13   -1    0    0    0    0 -0.00000000000E+00 -0.00000000000E+00 -0.10000000000E+04  0.10000000000E+04  0.00000000000E+00 0.  1.
    9000005    2    1    2  501    0  0.15695741860E+02 -0.18104386722E+02 -0.96492879971E+03  0.10134898023E+04  0.30903052563E+03 0.  0.
         13    1    3    3    0    0 -0.50691286661E+02  0.76520685854E+02 -0.83318437614E+03  0.83822504529E+03  0.00000000000E+00 0.  1.
          1    1    3    3  501    0  0.66387028521E+02 -0.94625072576E+02 -0.13174442357E+03  0.17526475704E+03  0.00000000000E+00 0.  1.
         21    1    1    2  502  501 -0.15695741860E+02  0.18104386722E+02  0.25106898423E+01  0.24092087801E+02  0.00000000000E+00 0. -1.
<mgrwt>
<rscale>  1 0.30000000E+03</rscale>
<asrwt>0</asrwt>
<pdfrwt beam="1">  1        3 0.13666171E+00 0.30000000E+03</pdfrwt>
<pdfrwt beam="2">0</pdfrwt>
<totfact> 0.14733190E+00</totfact>
</mgrwt>
</event>
<event>
 6    1  0.1904828E-004  0.3000000E+03  0.7818608E-02  0.1093470E+00
          1   -1    0    0  502    0  0.00000000000E+00  0.00000000000E+00  0.30706450099E+02  0.30706450099E+02  0.00000000000E+00 0.  1.
         13   -1    0    0    0    0 -0.00000000000E+00 -0.00000000000E+00 -0.10000000000E+04  0.10000000000E+04  0.00000000000E+00 0.  1.
    9000005    2    1    2  501    0 -0.12529207520E+02 -0.37357360670E+01 -0.96567361965E+03  0.10171402915E+04  0.31918317010E+03 0.  0.
         13    1    3    3    0    0  0.13451241982E+03  0.61209402425E+02 -0.33218290480E+03  0.36357346476E+03  0.00000000000E+00 0.  1.
          1    1    3    3  501    0 -0.14704162734E+03 -0.64945138492E+02 -0.63349071484E+03  0.65356682671E+03  0.00000000000E+00 0.  1.
         21    1    1    2  502  501  0.12529207520E+02  0.37357360670E+01 -0.36199302546E+01  0.13566158635E+02  0.00000000000E+00 0.  1.
<mgrwt>
<rscale>  1 0.30000000E+03</rscale>
<asrwt>0</asrwt>
<pdfrwt beam="1">  1        1 0.11166005E+00 0.30000000E+03</pdfrwt>
<pdfrwt beam="2">0</pdfrwt>
<totfact> 0.29043541E+01</totfact>
</mgrwt>
</event>
<event>
 6    1  0.1904828E-004  0.3000000E+03  0.7818608E-02  0.1093470E+00
          1   -1    0    0  502    0  0.00000000000E+00  0.00000000000E+00  0.73352841245E+02  0.73352841245E+02  0.00000000000E+00 0.  1.
         13   -1    0    0    0    0 -0.00000000000E+00 -0.00000000000E+00 -0.10000000000E+04  0.10000000000E+04  0.00000000000E+00 0.  1.
    9000005    2    1    2  501    0  0.13598522113E+03 -0.45633651264E+02 -0.82800421923E+03  0.89926998738E+03  0.32018918258E+03 0.  0.
         13    1    3    3    0    0  0.16908182299E+03 -0.75907578174E+02 -0.83370250452E+03  0.85405531983E+03  0.00000000000E+00 0.  1.
          1    1    3    3  501    0 -0.33096601867E+02  0.30273926909E+02  0.56982852942E+01  0.45214667542E+02  0.00000000000E+00 0.  1.
         21    1    1    2  502  501 -0.13598522113E+03  0.45633651264E+02 -0.98642939528E+02  0.17408285387E+03  0.00000000000E+00 0.  1.
<mgrwt>
<rscale>  1 0.30000000E+03</rscale>
<asrwt>0</asrwt>
<pdfrwt beam="1">  1        1 0.26673817E+00 0.30000000E+03</pdfrwt>
<pdfrwt beam="2">0</pdfrwt>
<totfact> 0.49808694E+00</totfact>
</mgrwt>
</event>
<event>
 6    1  0.1904828E-004  0.3000000E+03  0.7818608E-02  0.1093470E+00
          1   -1    0    0  502    0  0.00000000000E+00  0.00000000000E+00  0.77381466551E+02  0.77381466551E+02  0.00000000000E+00 0.  1.
         13   -1    0    0    0    0 -0.00000000000E+00 -0.00000000000E+00 -0.10000000000E+04  0.10000000000E+04  0.00000000000E+00 0.  1.
    9000005    2    1    2  501    0 -0.13453783724E+02  0.27633384897E+02 -0.92730839587E+03  0.10462912258E+04  0.48361126949E+03 0.  0.
         13    1    3    3    0    0 -0.14410393065E+03  0.15331210249E+03 -0.17871869411E+03  0.27606324497E+03  0.00000000000E+00 0.  1.
          1    1    3    3  501    0  0.13065014692E+03 -0.12567871759E+03 -0.74858970177E+03  0.77022798088E+03  0.00000000000E+00 0.  1.
         21    1    1    2  502  501  0.13453783724E+02 -0.27633384897E+02  0.46898624249E+01  0.31090240703E+02  0.00000000000E+00 0. -1.
<mgrwt>
<rscale>  1 0.30000000E+03</rscale>
<asrwt>0</asrwt>
<pdfrwt beam="1">  1        1 0.28138774E+00 0.30000000E+03</pdfrwt>
<pdfrwt beam="2">0</pdfrwt>
<totfact> 0.42539368E+00</totfact>
</mgrwt>
</event>
<event>
 6    1  0.1904828E-004  0.3000000E+03  0.7818608E-02  0.1093470E+00
          1   -1    0    0  502    0  0.00000000000E+00  0.00000000000E+00  0.25224399607E+02  0.25224399607E+02  0.00000000000E+00 0.  1.
         13   -1    0    0    0    0 -0.00000000000E+00 -0.00000000000E+00 -0.10000000000E+04  0.10000000000E+04  0.00000000000E+00 0.  1.
    9000005    2    1    2  501    0 -0.82828820381E+01 -0.96816900782E+01 -0.97910376375E+03  0.10117680162E+04  0.25469196507E+03 0.  0.
         13    1    3    3    0    0  0.29897585057E+02 -0.29646544530E+02 -0.12105135795E+02  0.43810016063E+02  0.00000000000E+00 0.  1.
          1    1    3    3  501    0 -0.38180467095E+02  0.19964854452E+02 -0.96699862795E+03  0.96795800009E+03  0.00000000000E+00 0.  1.
         21    1    1    2  502  501  0.82828820381E+01  0.96816900782E+01  0.43281633530E+01  0.13456383453E+02  0.00000000000E+00 0.  1.
<mgrwt>
<rscale>  1 0.30000000E+03</rscale>
<asrwt>0</asrwt>
<pdfrwt beam="1">  1        1 0.91725283E-01 0.30000000E+03</pdfrwt>
<pdfrwt beam="2">0</pdfrwt>
<totfact> 0.38771109E+01</totfact>
</mgrwt>
</event>
<event>
 6    1  0.1904828E-004  0.3000000E+03  0.7818608E-02  0.1093470E+00
          1   -1    0    0  502    0  0.00000000000E+00  0.00000000000E+00  0.34850869987E+02  0.34850869987E+02  0.00000000000E+00 0.  1.
         13   -1    0    0    0    0 -0.00000000000E+00 -0.00000000000E+00 -0.10000000000E+04  0.10000000000E+04  0.00000000000E+00 0.  1.
    9000005    2    1    2  501    0  0.38003560447E+02 -0.16277469949E+02 -0.90936455762E+03  0.96541640339E+03  0.32152092722E+03 0.  0.
         13    1    3    3    0    0  0.10957763627E+03 -0.14036382420E+03 -0.43961757935E+03  0.47431305863E+03  0.00000000000E+00 0.  1.
          1    1    3    3  501    0 -0.71574075823E+02  0.12408635425E+03 -0.46974697826E+03  0.49110334475E+03  0.00000000000E+00 0.  1.
         21    1    1    2  502  501 -0.38003560447E+02  0.16277469949E+02 -0.55784572398E+02  0.69434466601E+02  0.00000000000E+00 0. -1.
<mgrwt>
<rscale>  1 0.30000000E+03</rscale>
<asrwt>0</asrwt>
<pdfrwt beam="1">  1        1 0.12673070E+00 0.30000000E+03</pdfrwt>
<pdfrwt beam="2">0</pdfrwt>
<totfact> 0.23842972E+01</totfact>
</mgrwt>
</event>
<event>
 6    1  0.1904828E-004  0.3000000E+03  0.7818608E-02  0.1093470E+00
          1   -1    0    0  502    0  0.00000000000E+00  0.00000000000E+00  0.27909299058E+02  0.27909299058E+02  0.00000000000E+00 0.  1.
         13   -1    0    0    0    0 -0.00000000000E+00 -0.00000000000E+00 -0.10000000000E+04  0.10000000000E+04  0.00000000000E+00 0.  1.
    9000005    2    1    2  501    0 -0.70116275663E+01  0.15506264787E+02 -0.90882475436E+03  0.96239451321E+03  0.31615053019E+03 0.  0.
         13    1    3    3    0    0  0.10560964331E+03  0.12180596365E+03 -0.43571668668E+03  0.46458489062E+03  0.00000000000E+00 0.  1.
          1    1    3    3  501    0 -0.11262127088E+03 -0.10629969886E+03 -0.47310806768E+03  0.49780962258E+03  0.00000000000E+00 0.  1.
         21    1    1    2  502  501  0.70116275663E+01 -0.15506264787E+02 -0.63265946579E+02  0.65514785853E+02  0.00000000000E+00 0. -1.
<mgrwt>
<rscale>  1 0.30000000E+03</rscale>
<asrwt>0</asrwt>
<pdfrwt beam="1">  1        1 0.10148857E+00 0.30000000E+03</pdfrwt>
<pdfrwt beam="2">0</pdfrwt>
<totfact> 0.33493773E+01</totfact>
</mgrwt>
</event>
<event>
 6    1  0.1904828E-004  0.3000000E+03  0.7818608E-02  0.1093470E+00
          3   -1    0    0  502    0  0.00000000000E+00  0.00000000000E+00  0.31754453912E+02  0.31754453912E+02  0.00000000000E+00 0.  1.
         13   -1    0    0    0    0 -0.00000000000E+00 -0.00000000000E+00 -0.10000000000E+04  0.10000000000E+04  0.00000000000E+00 0.  1.
    9000005    2    1    2  501    0  0.85992465369E+01 -0.73050837973E+01 -0.96670134546E+03  0.10203660455E+04  0.32635573265E+03 0.  0.
         13    1    3    3    0    0 -0.26252896629E+02 -0.97711398815E+02 -0.89278283646E+03  0.89849759328E+03  0.00000000000E+00 0.  1.
          1    1    3    3  501    0  0.34852143166E+02  0.90406315018E+02 -0.73918508995E+02  0.12186845224E+03  0.00000000000E+00 0.  1.
         21    1    1    2  502  501 -0.85992465369E+01  0.73050837973E+01 -0.15442006284E+01  0.11388408399E+02  0.00000000000E+00 0.  1.
<mgrwt>
<rscale>  1 0.30000000E+03</rscale>
<asrwt>0</asrwt>
<pdfrwt beam="1">  1        3 0.11547098E+00 0.30000000E+03</pdfrwt>
<pdfrwt beam="2">0</pdfrwt>
<totfact> 0.26091464E+00</totfact>
</mgrwt>
</event>
<event>
 6    1  0.1904828E-004  0.3000000E+03  0.7818608E-02  0.1093470E+00
          1   -1    0    0  502    0  0.00000000000E+00  0.00000000000E+00  0.29057671972E+02  0.29057671972E+02  0.00000000000E+00 0.  1.
         13   -1    0    0    0    0 -0.00000000000E+00 -0.00000000000E+00 -0.10000000000E+04  0.10000000000E+04  0.00000000000E+00 0.  1.
    9000005    2    1    2  501    0  0.62622222038E+01  0.74894033194E+01 -0.96104490979E+03  0.10151556766E+04  0.32686147280E+03 0.  0.
         13    1    3    3    0    0 -0.14409727541E+03 -0.25301800816E+02 -0.67151262384E+03  0.68726516708E+03  0.00000000000E+00 0.  1.
          1    1    3    3  501    0  0.15035949761E+03  0.32791204136E+02 -0.28953228596E+03  0.32789050947E+03  0.00000000000E+00 0.  1.
         21    1    1    2  502  501 -0.62622222038E+01 -0.74894033194E+01 -0.98974182340E+01  0.13901995422E+02  0.00000000000E+00 0. -1.
<mgrwt>
<rscale>  1 0.30000000E+03</rscale>
<asrwt>0</asrwt>
<pdfrwt beam="1">  1        1 0.10566448E+00 0.30000000E+03</pdfrwt>
<pdfrwt beam="2">0</pdfrwt>
<totfact> 0.31555363E+01</totfact>
</mgrwt>
</event>
<event>
 6    1  0.1904828E-004  0.3000000E+03  0.7818608E-02  0.1093470E+00
          1   -1    0    0  502    0  0.00000000000E+00  0.00000000000E+00  0.11647386850E+03  0.11647386850E+03  0.00000000000E+00 0.  1.
         13   -1    0    0    0    0 -0.00000000000E+00 -0.00000000000E+00 -0.10000000000E+04  0.10000000000E+04  0.00000000000E+00 0.  1.
    9000005    2    1    2  501    0 -0.10531342606E+03  0.60875650534E+02 -0.92720910881E+03  0.98722617977E+03  0.31638905802E+03 0.  0.
         13    1    3    3    0    0  0.86544609802E+02 -0.54419246368E+02 -0.42951505541E+03  0.44151399376E+03  0.00000000000E+00 0.  1.
          1    1    3    3  501    0 -0.19185803586E+03  0.11529489690E+03 -0.49769405340E+03  0.54571218601E+03  0.00000000000E+00 0.  1.
         21    1    1    2  502  501  0.10531342606E+03 -0.60875650534E+02  0.43682977307E+02  0.12924768873E+03  0.00000000000E+00 0.  1.
<mgrwt>
<rscale>  1 0.30000000E+03</rscale>
<asrwt>0</asrwt>
<pdfrwt beam="1">  1        1 0.42354223E+00 0.30000000E+03</pdfrwt>
<pdfrwt beam="2">0</pdfrwt>
<totfact> 0.76254684E-01</totfact>
</mgrwt>
</event>
<event>
 6    1  0.1904828E-004  0.3000000E+03  0.7818608E-02  0.1093470E+00
          1   -1    0    0  502    0  0.00000000000E+00  0.00000000000E+00  0.30678192604E+02  0.30678192604E+02  0.00000000000E+00 0.  1.
         13   -1    0    0    0    0 -0.00000000000E+00 -0.00000000000E+00 -0.10000000000E+04  0.10000000000E+04  0.00000000000E+00 0.  1.
    9000005    2    1    2  501    0  0.10174620722E+02 -0.74087075777E+01 -0.95331800037E+03  0.10103180921E+04  0.33431874829E+03 0.  0.
         13    1    3    3    0    0 -0.12002893458E+03  0.88775110698E+01 -0.79784782413E+03  0.80687477703E+03  0.00000000000E+00 0.  1.
          1    1    3    3  501    0  0.13020355530E+03 -0.16286218647E+02 -0.15547017623E+03  0.20344331502E+03  0.00000000000E+00 0.  1.
         21    1    1    2  502  501 -0.10174620722E+02  0.74087075777E+01 -0.16003807027E+02  0.20360100544E+02  0.00000000000E+00 0.  1.
<mgrwt>
<rscale>  1 0.30000000E+03</rscale>
<asrwt>0</asrwt>
<pdfrwt beam="1">  1        1 0.11155730E+00 0.30000000E+03</pdfrwt>
<pdfrwt beam="2">0</pdfrwt>
<totfact> 0.29084155E+01</totfact>
</mgrwt>
</event>
<event>
 6    1  0.1904828E-004  0.3000000E+03  0.7818608E-02  0.1093470E+00
          1   -1    0    0  502    0  0.00000000000E+00  0.00000000000E+00  0.43847868888E+02  0.43847868888E+02  0.00000000000E+00 0.  1.
         13   -1    0    0    0    0 -0.00000000000E+00 -0.00000000000E+00 -0.10000000000E+04  0.10000000000E+04  0.00000000000E+00 0.  1.
    9000005    2    1    2  501    0 -0.26675354232E+02 -0.20185526304E+02 -0.94012987569E+03  0.10067568637E+04  0.35860308070E+03 0.  0.
         13    1    3    3    0    0 -0.12972360123E+03 -0.11026370558E+03 -0.76902271359E+03  0.78764346725E+03  0.00000000000E+00 0.  1.
          1    1    3    3  501    0  0.10304824700E+03  0.90078179274E+02 -0.17110716210E+03  0.21911339647E+03  0.00000000000E+00 0.  1.
         21    1    1    2  502  501  0.26675354232E+02  0.20185526304E+02 -0.16022255421E+02  0.37091005168E+02  0.00000000000E+00 0. -1.
<mgrwt>
<rscale>  1 0.30000000E+03</rscale>
<asrwt>0</asrwt>
<pdfrwt beam="1">  1        1 0.15944713E+00 0.30000000E+03</pdfrwt>
<pdfrwt beam="2">0</pdfrwt>
<totfact> 0.16104625E+01</totfact>
</mgrwt>
</event>
<event>
 6    1  0.1904828E-004  0.3000000E+03  0.7818608E-02  0.1093470E+00
          1   -1    0    0  502    0  0.00000000000E+00  0.00000000000E+00  0.39343960824E+02  0.39343960824E+02  0.00000000000E+00 0.  1.
         13   -1    0    0    0    0 -0.00000000000E+00 -0.00000000000E+00 -0.10000000000E+04  0.10000000000E+04  0.00000000000E+00 0.  1.
    9000005    2    1    2  501    0  0.26613997604E+02 -0.53062183461E+00 -0.95859354408E+03  0.10126448913E+04  0.32532984290E+03 0.  0.
         13    1    3    3    0    0 -0.83962924330E+02  0.11247207811E+03 -0.25074999226E+03  0.28735918227E+03  0.00000000000E+00 0.  1.
          1    1    3    3  501    0  0.11057692193E+03 -0.11300269994E+03 -0.70784355182E+03  0.72528570902E+03  0.00000000000E+00 0.  1.
         21    1    1    2  502  501 -0.26613997604E+02  0.53062183461E+00 -0.20624950982E+01  0.26699069534E+02  0.00000000000E+00 0.  1.
<mgrwt>
<rscale>  1 0.30000000E+03</rscale>
<asrwt>0</asrwt>
<pdfrwt beam="1">  1        1 0.14306925E+00 0.30000000E+03</pdfrwt>
<pdfrwt beam="2">0</pdfrwt>
<totfact> 0.19499791E+01</totfact>
</mgrwt>
</event>
<event>
 6    1  0.1904828E-004  0.3000000E+03  0.7818608E-02  0.1093470E+00
          1   -1    0    0  502    0  0.00000000000E+00  0.00000000000E+00  0.45397876104E+02  0.45397876104E+02  0.00000000000E+00 0.  1.
         13   -1    0    0    0    0 -0.00000000000E+00 -0.00000000000E+00 -0.10000000000E+04  0.10000000000E+04  0.00000000000E+00 0.  1.
    9000005    2    1    2  501    0  0.18272609098E+02 -0.86006573607E+02 -0.77776815129E+03  0.84791047697E+03  0.32603352720E+03 0.  0.
         13    1    3    3    0    0 -0.11372438141E+03  0.69828169199E+02 -0.30983449465E+03  0.33735237099E+03  0.00000000000E+00 0.  1.
          1    1    3    3  501    0  0.13199699051E+03 -0.15583474281E+03 -0.46793365664E+03  0.51055810598E+03  0.00000000000E+00 0.  1.
         21    1    1    2  502  501 -0.18272609098E+02  0.86006573607E+02 -0.17683397261E+03  0.19748739913E+03  0.00000000000E+00 0.  1.
<mgrwt>
<rscale>  1 0.30000000E+03</rscale>
<asrwt>0</asrwt>
<pdfrwt beam="1">  1        1 0.16508353E+00 0.30000000E+03</pdfrwt>
<pdfrwt beam="2">0</pdfrwt>
<totfact> 0.15102997E+01</totfact>
</mgrwt>
</event>
<event>
 6    1  0.1904828E-004  0.3000000E+03  0.7818608E-02  0.1093470E+00
          1   -1    0    0  502    0  0.00000000000E+00  0.00000000000E+00  0.30816211932E+02  0.30816211932E+02  0.00000000000E+00 0.  1.
         13   -1    0    0    0    0 -0.00000000000E+00 -0.00000000000E+00 -0.10000000000E+04  0.10000000000E+04  0.00000000000E+00 0.  1.
    9000005    2    1    2  501    0 -0.17578817728E+00 -0.11282357175E+02 -0.96295027376E+03  0.10179251613E+04  0.32980461164E+03 0.  0.
         13    1    3    3    0    0 -0.81054169072E+02 -0.19126612331E+02 -0.92412201758E+03  0.92786696730E+03  0.00000000000E+00 0.  1.
          3    1    3    3  501    0  0.80878380895E+02  0.78442551555E+01 -0.38828256179E+02  0.90058194036E+02  0.00000000000E+00 0.  1.
         21    1    1    2  502  501  0.17578817728E+00  0.11282357175E+02 -0.62335143075E+01  0.12891050599E+02  0.00000000000E+00 0.  1.
<mgrwt>
<rscale>  1 0.30000000E+03</rscale>
<asrwt>0</asrwt>
<pdfrwt beam="1">  1        1 0.11205919E+00 0.30000000E+03</pdfrwt>
<pdfrwt beam="2">0</pdfrwt>
<totfact> 0.28886538E+01</totfact>
</mgrwt>
</event>
<event>
 6    1  0.1904828E-004  0.3000000E+03  0.7818608E-02  0.1093470E+00
          1   -1    0    0  502    0  0.00000000000E+00  0.00000000000E+00  0.29418300960E+02  0.29418300960E+02  0.00000000000E+00 0.  1.
         13   -1    0    0    0    0 -0.00000000000E+00 -0.00000000000E+00 -0.10000000000E+04  0.10000000000E+04  0.00000000000E+00 0.  1.
    9000005    2    1    2  501    0 -0.54459783272E+00  0.17538774514E+02 -0.93221042833E+03  0.98722517813E+03  0.32448322676E+03 0.  0.
         13    1    3    3    0    0 -0.13011556115E+03  0.22202490120E+02 -0.17609367833E+03  0.22007270019E+03  0.00000000000E+00 0.  1.
          1    1    3    3  501    0  0.12957096332E+03 -0.46637156058E+01 -0.75611674999E+03  0.76715247793E+03  0.00000000000E+00 0.  1.
         21    1    1    2  502  501  0.54459783272E+00 -0.17538774514E+02 -0.38371270714E+02  0.42193122834E+02  0.00000000000E+00 0.  1.
<mgrwt>
<rscale>  1 0.30000000E+03</rscale>
<asrwt>0</asrwt>
<pdfrwt beam="1">  1        1 0.10697587E+00 0.30000000E+03</pdfrwt>
<pdfrwt beam="2">0</pdfrwt>
<totfact> 0.30980139E+01</totfact>
</mgrwt>
</event>
<event>
 6    1  0.1904828E-004  0.3000000E+03  0.7818608E-02  0.1093470E+00
          1   -1    0    0  502    0  0.00000000000E+00  0.00000000000E+00  0.33995961952E+02  0.33995961952E+02  0.00000000000E+00 0.  1.
         13   -1    0    0    0    0 -0.00000000000E+00 -0.00000000000E+00 -0.10000000000E+04  0.10000000000E+04  0.00000000000E+00 0.  1.
    9000005    2    1    2  501    0  0.30478359443E+02 -0.12711607330E+02 -0.92598953552E+03  0.98211459952E+03  0.32557940866E+03 0.  0.
         13    1    3    3    0    0 -0.11870870769E+03 -0.98416743244E+02 -0.39956470931E+03  0.42828678425E+03  0.00000000000E+00 0.  1.
          3    1    3    3  501    0  0.14918706714E+03  0.85705135914E+02 -0.52642482621E+03  0.55382781527E+03  0.00000000000E+00 0.  1.
         21    1    1    2  502  501 -0.30478359443E+02  0.12711607330E+02 -0.40014502531E+02  0.51881362434E+02  0.00000000000E+00 0.  1.
<mgrwt>
<rscale>  1 0.30000000E+03</rscale>
<asrwt>0</asrwt>
<pdfrwt beam="1">  1        1 0.12362194E+00 0.30000000E+03</pdfrwt>
<pdfrwt beam="2">0</pdfrwt>
<totfact> 0.24807515E+01</totfact>
</mgrwt>
</event>
<event>
 6    1  0.1904828E-004  0.3000000E+03  0.7818608E-02  0.1093470E+00
          3   -1    0    0  502    0  0.00000000000E+00  0.00000000000E+00  0.25346686335E+02  0.25346686335E+02  0.00000000000E+00 0.  1.
         13   -1    0    0    0    0 -0.00000000000E+00 -0.00000000000E+00 -0.10000000000E+04  0.10000000000E+04  0.00000000000E+00 0.  1.
    9000005    2    1    2  501    0  0.39931333904E+01 -0.15796695172E+02 -0.96959028744E+03  0.10082845960E+04  0.27616484262E+03 0.  0.
         13    1    3    3    0    0 -0.18543910007E+02  0.10328482771E+03 -0.75141933223E+03  0.75871117369E+03  0.00000000000E+00 0.  1.
          1    1    3    3  501    0  0.22537043397E+02 -0.11908152288E+03 -0.21817095521E+03  0.24957342229E+03  0.00000000000E+00 0.  1.
         21    1    1    2  502  501 -0.39931333904E+01  0.15796695172E+02 -0.50630262231E+01  0.17062090352E+02  0.00000000000E+00 0. -1.
<mgrwt>
<rscale>  1 0.30000000E+03</rscale>
<asrwt>0</asrwt>
<pdfrwt beam="1">  1        3 0.92169963E-01 0.30000000E+03</pdfrwt>
<pdfrwt beam="2">0</pdfrwt>
<totfact> 0.48152540E+00</totfact>
</mgrwt>
</event>
<event>
 6    1  0.1904828E-004  0.3000000E+03  0.7818608E-02  0.1093470E+00
          1   -1    0    0  502    0  0.00000000000E+00  0.00000000000E+00  0.29402889935E+02  0.29402889935E+02  0.00000000000E+00 0.  1.
         13   -1    0    0    0    0 -0.00000000000E+00 -0.00000000000E+00 -0.10000000000E+04  0.10000000000E+04  0.00000000000E+00 0.  1.
    9000005    2    1    2  501    0  0.90553850572E+00  0.16728361673E+02 -0.94408090289E+03  0.99803782454E+03  0.32328020343E+03 0.  0.
         13    1    3    3    0    0  0.83298281961E+02  0.12516145690E+03 -0.72230569683E+03  0.73778690267E+03  0.00000000000E+00 0.  1.
          3    1    3    3  501    0 -0.82392743455E+02 -0.10843309523E+03 -0.22177520605E+03  0.26025092187E+03  0.00000000000E+00 0.  1.
         21    1    1    2  502  501 -0.90553850572E+00 -0.16728361673E+02 -0.26516207179E+02  0.31365065398E+02  0.00000000000E+00 0.  1.
<mgrwt>
<rscale>  1 0.30000000E+03</rscale>
<asrwt>0</asrwt>
<pdfrwt beam="1">  1        1 0.10691983E+00 0.30000000E+03</pdfrwt>
<pdfrwt beam="2">0</pdfrwt>
<totfact> 0.31004410E+01</totfact>
</mgrwt>
</event>
<event>
 6    1  0.1904828E-004  0.3000000E+03  0.7818608E-02  0.1093470E+00
          1   -1    0    0  502    0  0.00000000000E+00  0.00000000000E+00  0.34697093276E+02  0.34697093276E+02  0.00000000000E+00 0.  1.
         13   -1    0    0    0    0 -0.00000000000E+00 -0.00000000000E+00 -0.10000000000E+04  0.10000000000E+04  0.00000000000E+00 0.  1.
    9000005    2    1    2  501    0  0.37533229740E+02 -0.25806167072E+02 -0.91314669006E+03  0.96545135312E+03  0.31013664097E+03 0.  0.
         13    1    3    3    0    0 -0.90371988852E+02 -0.36441318788E+02 -0.75736556528E+03  0.76360831947E+03  0.00000000000E+00 0.  1.
          1    1    3    3  501    0  0.12790521859E+03  0.10635151716E+02 -0.15578112478E+03  0.20184303365E+03  0.00000000000E+00 0.  1.
         21    1    1    2  502  501 -0.37533229740E+02  0.25806167072E+02 -0.52156216662E+02  0.69245740159E+02  0.00000000000E+00 0.  1.
<mgrwt>
<rscale>  1 0.30000000E+03</rscale>
<asrwt>0</asrwt>
<pdfrwt beam="1">  1        1 0.12617151E+00 0.30000000E+03</pdfrwt>
<pdfrwt beam="2">0</pdfrwt>
<totfact> 0.24012903E+01</totfact>
</mgrwt>
</event>
<event>
 6    1  0.1904828E-004  0.3000000E+03  0.7818608E-02  0.1093470E+00
          1   -1    0    0  502    0  0.00000000000E+00  0.00000000000E+00  0.29369142300E+02  0.29369142300E+02  0.00000000000E+00 0.  1.
         13   -1    0    0    0    0 -0.00000000000E+00 -0.00000000000E+00 -0.10000000000E+04  0.10000000000E+04  0.00000000000E+00 0.  1.
    9000005    2    1    2  501    0  0.87695858775E+01  0.55129467437E+01 -0.95683792885E+03  0.10121197045E+04  0.32975775340E+03 0.  0.
         13    1    3    3    0    0 -0.33462066269E+02  0.12994198606E+03 -0.78189540935E+03  0.79332531838E+03  0.00000000000E+00 0.  1.
          3    1    3    3  501    0  0.42231652147E+02 -0.12442903931E+03 -0.17494251950E+03  0.21879438612E+03  0.00000000000E+00 0.  1.
         21    1    1    2  502  501 -0.87695858775E+01 -0.55129467437E+01 -0.13792928848E+02  0.17249437802E+02  0.00000000000E+00 0. -1.
<mgrwt>
<rscale>  1 0.30000000E+03</rscale>
<asrwt>0</asrwt>
<pdfrwt beam="1">  1        1 0.10679711E+00 0.30000000E+03</pdfrwt>
<pdfrwt beam="2">0</pdfrwt>
<totfact> 0.31057657E+01</totfact>
</mgrwt>
</event>
<event>
 6    1  0.1904828E-004  0.3000000E+03  0.7818608E-02  0.1093470E+00
          1   -1    0    0  502    0  0.00000000000E+00  0.00000000000E+00  0.35152260140E+02  0.35152260140E+02  0.00000000000E+00 0.  1.
         13   -1    0    0    0    0 -0.00000000000E+00 -0.00000000000E+00 -0.10000000000E+04  0.10000000000E+04  0.00000000000E+00 0.  1.
    9000005    2    1    2  501    0 -0.24096485887E+02 -0.26205508022E+02 -0.93601719823E+03  0.98934211483E+03  0.31843720811E+03 0.  0.
         13    1    3    3    0    0  0.56785754119E+02  0.75953586381E+02 -0.81784923906E+02  0.12522916167E+03  0.00000000000E+00 0.  1.
          3    1    3    3  501    0 -0.80882240006E+02 -0.10215909440E+03 -0.85423227432E+03  0.86411295315E+03  0.00000000000E+00 0.  1.
         21    1    1    2  502  501  0.24096485887E+02  0.26205508022E+02 -0.28830541634E+02  0.45810145314E+02  0.00000000000E+00 0.  1.
<mgrwt>
<rscale>  1 0.30000000E+03</rscale>
<asrwt>0</asrwt>
<pdfrwt beam="1">  1        1 0.12782667E+00 0.30000000E+03</pdfrwt>
<pdfrwt beam="2">0</pdfrwt>
<totfact> 0.23514360E+01</totfact>
</mgrwt>
</event>
<event>
 6    1  0.1904828E-004  0.3000000E+03  0.7818608E-02  0.1093470E+00
          1   -1    0    0  502    0  0.00000000000E+00  0.00000000000E+00  0.25790633933E+02  0.25790633933E+02  0.00000000000E+00 0.  1.
         13   -1    0    0    0    0 -0.00000000000E+00 -0.00000000000E+00 -0.10000000000E+04  0.10000000000E+04  0.00000000000E+00 0.  1.
    9000005    2    1    2  501    0  0.82877970181E+00 -0.91032538979E+01 -0.96178109630E+03  0.10103628020E+04  0.30939708863E+03 0.  0.
         13    1    3    3    0    0  0.14129659727E+03  0.30541292686E+02 -0.65319864861E+03  0.66900371710E+03  0.00000000000E+00 0.  1.
          1    1    3    3  501    0 -0.14046781757E+03 -0.39644546584E+02 -0.30858244770E+03  0.34135908494E+03  0.00000000000E+00 0.  1.
         21    1    1    2  502  501 -0.82877970181E+00  0.91032538979E+01 -0.12428269763E+02  0.15427831884E+02  0.00000000000E+00 0.  1.
<mgrwt>
<rscale>  1 0.30000000E+03</rscale>
<asrwt>0</asrwt>
<pdfrwt beam="1">  1        1 0.93784321E-01 0.30000000E+03</pdfrwt>
<pdfrwt beam="2">0</pdfrwt>
<totfact> 0.37559829E+01</totfact>
</mgrwt>
</event>
<event>
 6    1  0.1904828E-004  0.3000000E+03  0.7818608E-02  0.1093470E+00
          1   -1    0    0  502    0  0.00000000000E+00  0.00000000000E+00  0.55231203674E+02  0.55231203674E+02  0.00000000000E+00 0.  1.
         13   -1    0    0    0    0 -0.00000000000E+00 -0.00000000000E+00 -0.10000000000E+04  0.10000000000E+04  0.00000000000E+00 0.  1.
    9000005    2    1    2  501    0 -0.52451676810E+01 -0.35501626548E+02 -0.96195644221E+03  0.10154405962E+04  0.32322056006E+03 0.  0.
         13    1    3    3    0    0  0.47175742000E+02 -0.13246065392E+03 -0.83737692331E+03  0.84910039875E+03  0.00000000000E+00 0.  1.
          1    1    3    3  501    0 -0.52420909680E+02  0.96959027370E+02 -0.12457951890E+03  0.16634019745E+03  0.00000000000E+00 0.  1.
         21    1    1    2  502  501  0.52451676810E+01  0.35501626548E+02  0.17187645883E+02  0.39790607466E+02  0.00000000000E+00 0.  1.
<mgrwt>
<rscale>  1 0.30000000E+03</rscale>
<asrwt>0</asrwt>
<pdfrwt beam="1">  1        1 0.20084116E+00 0.30000000E+03</pdfrwt>
<pdfrwt beam="2">0</pdfrwt>
<totfact> 0.10149558E+01</totfact>
</mgrwt>
</event>
<event>
 6    1  0.1904828E-004  0.3000000E+03  0.7818608E-02  0.1093470E+00
          1   -1    0    0  502    0  0.00000000000E+00  0.00000000000E+00  0.65199954737E+02  0.65199954737E+02  0.00000000000E+00 0.  1.
         13   -1    0    0    0    0 -0.00000000000E+00 -0.00000000000E+00 -0.10000000000E+04  0.10000000000E+04  0.00000000000E+00 0.  1.
    9000005    2    1    2  501    0 -0.11061981211E+03  0.25093661247E+02 -0.86994638283E+03  0.93453843708E+03  0.32200768112E+03 0.  0.
         13    1    3    3    0    0 -0.10073684869E+03  0.88534135456E+02 -0.85900012535E+03  0.86940636136E+03  0.00000000000E+00 0.  1.
          1    1    3    3  501    0 -0.98829634241E+01 -0.63440474209E+02 -0.10946257483E+02  0.65132075714E+02  0.00000000000E+00 0.  1.
         21    1    1    2  502  501  0.11061981211E+03 -0.25093661247E+02 -0.64853662429E+02  0.13066151766E+03  0.00000000000E+00 0.  1.
<mgrwt>
<rscale>  1 0.30000000E+03</rscale>
<asrwt>0</asrwt>
<pdfrwt beam="1">  1        1 0.23709124E+00 0.30000000E+03</pdfrwt>
<pdfrwt beam="2">0</pdfrwt>
<totfact> 0.68557873E+00</totfact>
</mgrwt>
</event>
<event>
 6    1  0.1904828E-004  0.3000000E+03  0.7818608E-02  0.1093470E+00
          1   -1    0    0  502    0  0.00000000000E+00  0.00000000000E+00  0.27478356762E+02  0.27478356762E+02  0.00000000000E+00 0.  1.
         13   -1    0    0    0    0 -0.00000000000E+00 -0.00000000000E+00 -0.10000000000E+04  0.10000000000E+04  0.00000000000E+00 0.  1.
    9000005    2    1    2  501    0  0.10666993344E+02  0.75863408574E+01 -0.96279841793E+03  0.10111725779E+04  0.30873589258E+03 0.  0.
         13    1    3    3    0    0  0.17793247343E+02  0.94867052002E+02 -0.83801644355E+02  0.12782438266E+03  0.00000000000E+00 0.  1.
          1    1    3    3  501    0 -0.71262539991E+01 -0.87280711144E+02 -0.87899677358E+03  0.88334819522E+03  0.00000000000E+00 0.  1.
         21    1    1    2  502  501 -0.10666993344E+02 -0.75863408574E+01 -0.97232253040E+01  0.16305778881E+02  0.00000000000E+00 0. -1.
<mgrwt>
<rscale>  1 0.30000000E+03</rscale>
<asrwt>0</asrwt>
<pdfrwt beam="1">  1        1 0.99921508E-01 0.30000000E+03</pdfrwt>
<pdfrwt beam="2">0</pdfrwt>
<totfact> 0.34266263E+01</totfact>
</mgrwt>
</event>
<event>
 6    1  0.1904828E-004  0.3000000E+03  0.7818608E-02  0.1093470E+00
          1   -1    0    0  502    0  0.00000000000E+00  0.00000000000E+00  0.45584526231E+02  0.45584526231E+02  0.00000000000E+00 0.  1.
         13   -1    0    0    0    0 -0.00000000000E+00 -0.00000000000E+00 -0.10000000000E+04  0.10000000000E+04  0.00000000000E+00 0.  1.
    9000005    2    1    2  501    0 -0.26755386185E+02 -0.23272012492E+02 -0.95077344425E+03  0.10099376241E+04  0.33874241680E+03 0.  0.
         13    1    3    3    0    0 -0.16967862822E+02 -0.87768976877E+02 -0.41900752256E+02  0.98726767953E+02  0.00000000000E+00 0.  1.
          3    1    3    3  501    0 -0.97875233635E+01  0.64496964385E+02 -0.90887269200E+03  0.91121085611E+03  0.00000000000E+00 0.  1.
         21    1    1    2  502  501  0.26755386185E+02  0.23272012492E+02 -0.36420295152E+01  0.35646902170E+02  0.00000000000E+00 0.  1.
<mgrwt>
<rscale>  1 0.30000000E+03</rscale>
<asrwt>0</asrwt>
<pdfrwt beam="1">  1        1 0.16576226E+00 0.30000000E+03</pdfrwt>
<pdfrwt beam="2">0</pdfrwt>
<totfact> 0.14987286E+01</totfact>
</mgrwt>
</event>
<event>
 6    1  0.1904828E-004  0.3000000E+03  0.7818608E-02  0.1093470E+00
          1   -1    0    0  502    0  0.00000000000E+00  0.00000000000E+00  0.29388571832E+02  0.29388571832E+02  0.00000000000E+00 0.  1.
         13   -1    0    0    0    0 -0.00000000000E+00 -0.00000000000E+00 -0.10000000000E+04  0.10000000000E+04  0.00000000000E+00 0.  1.
    9000005    2    1    2  501    0  0.84144219672E+01  0.56769810965E+01 -0.96445572287E+03  0.10175174590E+04  0.32413563125E+03 0.  0.
         13    1    3    3    0    0 -0.13092702730E+03 -0.85805715233E+02 -0.42597520577E+03  0.45382748173E+03  0.00000000000E+00 0.  1.
          3    1    3    3  501    0  0.13934144926E+03  0.91482696330E+02 -0.53848051710E+03  0.56368997730E+03  0.00000000000E+00 0.  1.
         21    1    1    2  502  501 -0.84144219672E+01 -0.56769810965E+01 -0.61557052939E+01  0.11871112799E+02  0.00000000000E+00 0.  1.
<mgrwt>
<rscale>  1 0.30000000E+03</rscale>
<asrwt>0</asrwt>
<pdfrwt beam="1">  1        1 0.10686776E+00 0.30000000E+03</pdfrwt>
<pdfrwt beam="2">0</pdfrwt>
<totfact> 0.31026985E+01</totfact>
</mgrwt>
</event>
<event>
 6    1  0.1904828E-004  0.3000000E+03  0.7818608E-02  0.1093470E+00
          1   -1    0    0  502    0  0.00000000000E+00  0.00000000000E+00  0.31179495660E+02  0.31179495660E+02  0.00000000000E+00 0.  1.
         13   -1    0    0    0    0 -0.00000000000E+00 -0.00000000000E+00 -0.10000000000E+04  0.10000000000E+04  0.00000000000E+00 0.  1.
    9000005    2    1    2  501    0  0.47549414160E+00 -0.21084742055E+02 -0.93002585618E+03  0.98702276154E+03  0.32988035133E+03 0.  0.
         13    1    3    3    0    0 -0.10345435172E+03  0.11786630765E+03 -0.42414394619E+03  0.45220941660E+03  0.00000000000E+00 0.  1.
          1    1    3    3  501    0  0.10392984586E+03 -0.13895104970E+03 -0.50588190999E+03  0.53481334495E+03  0.00000000000E+00 0.  1.
         21    1    1    2  502  501 -0.47549414160E+00  0.21084742055E+02 -0.38794648156E+02  0.44156734116E+02  0.00000000000E+00 0. -1.
<mgrwt>
<rscale>  1 0.30000000E+03</rscale>
<asrwt>0</asrwt>
<pdfrwt beam="1">  1        1 0.11338022E+00 0.30000000E+03</pdfrwt>
<pdfrwt beam="2">0</pdfrwt>
<totfact> 0.28375437E+01</totfact>
</mgrwt>
</event>
<event>
 6    1  0.1904828E-004  0.3000000E+03  0.7818608E-02  0.1093470E+00
          1   -1    0    0  502    0  0.00000000000E+00  0.00000000000E+00  0.41931487322E+02  0.41931487322E+02  0.00000000000E+00 0.  1.
         13   -1    0    0    0    0 -0.00000000000E+00 -0.00000000000E+00 -0.10000000000E+04  0.10000000000E+04  0.00000000000E+00 0.  1.
    9000005    2    1    2  501    0  0.78479099070E+01  0.75343233147E+01 -0.96583090457E+03  0.10285669654E+04  0.35355665801E+03 0.  0.
         13    1    3    3    0    0 -0.29078547697E+02 -0.79753796438E+02 -0.33228874703E+02  0.91161330050E+02  0.00000000000E+00 0.  1.
          3    1    3    3  501    0  0.36926457604E+02  0.87288119753E+02 -0.93260202987E+03  0.93740563537E+03  0.00000000000E+00 0.  1.
         21    1    1    2  502  501 -0.78479099070E+01 -0.75343233147E+01  0.77623918900E+01  0.13364521898E+02  0.00000000000E+00 0.  1.
<mgrwt>
<rscale>  1 0.30000000E+03</rscale>
<asrwt>0</asrwt>
<pdfrwt beam="1">  1        1 0.15247846E+00 0.30000000E+03</pdfrwt>
<pdfrwt beam="2">0</pdfrwt>
<totfact> 0.17452825E+01</totfact>
</mgrwt>
</event>
<event>
 6    1  0.1904828E-004  0.3000000E+03  0.7818608E-02  0.1093470E+00
          3   -1    0    0  502    0  0.00000000000E+00  0.00000000000E+00  0.31236128707E+02  0.31236128707E+02  0.00000000000E+00 0.  1.
         13   -1    0    0    0    0 -0.00000000000E+00 -0.00000000000E+00 -0.10000000000E+04  0.10000000000E+04  0.00000000000E+00 0.  1.
    9000005    2    1    2  501    0  0.14530982446E+02 -0.20000305566E+01 -0.96226552722E+03  0.10151931225E+04  0.32318258227E+03 0.  0.
         13    1    3    3    0    0 -0.78551926120E+02 -0.15267661799E+02 -0.89741064299E+03  0.90097134735E+03  0.00000000000E+00 0.  1.
          1    1    3    3  501    0  0.93082908566E+02  0.13267631242E+02 -0.64854884237E+02  0.11422177514E+03  0.00000000000E+00 0.  1.
         21    1    1    2  502  501 -0.14530982446E+02  0.20000305566E+01 -0.64983440704E+01  0.16043006225E+02  0.00000000000E+00 0.  1.
<mgrwt>
<rscale>  1 0.30000000E+03</rscale>
<asrwt>0</asrwt>
<pdfrwt beam="1">  1        3 0.11358616E+00 0.30000000E+03</pdfrwt>
<pdfrwt beam="2">0</pdfrwt>
<totfact> 0.27424619E+00</totfact>
</mgrwt>
</event>
<event>
 6    1  0.1904828E-004  0.3000000E+03  0.7818608E-02  0.1093470E+00
          1   -1    0    0  502    0  0.00000000000E+00  0.00000000000E+00  0.55131388980E+02  0.55131388980E+02  0.00000000000E+00 0.  1.
         13   -1    0    0    0    0 -0.00000000000E+00 -0.00000000000E+00 -0.10000000000E+04  0.10000000000E+04  0.00000000000E+00 0.  1.
    9000005    2    1    2  501    0  0.20050490651E+02 -0.58463165172E+01 -0.91751635200E+03  0.10207170364E+04  0.44675587356E+03 0.  0.
         13    1    3    3    0    0  0.42717859968E+02 -0.22314261541E+03 -0.51043797155E+03  0.55871671281E+03  0.00000000000E+00 0.  1.
          1    1    3    3  501    0 -0.22667369317E+02  0.21729629889E+03 -0.40707838045E+03  0.46200032356E+03  0.00000000000E+00 0.  1.
         21    1    1    2  502  501 -0.20050490651E+02  0.58463165172E+01 -0.27352259023E+02  0.34414352614E+02  0.00000000000E+00 0.  1.
<mgrwt>
<rscale>  1 0.30000000E+03</rscale>
<asrwt>0</asrwt>
<pdfrwt beam="1">  1        1 0.20047820E+00 0.30000000E+03</pdfrwt>
<pdfrwt beam="2">0</pdfrwt>
<totfact> 0.10189946E+01</totfact>
</mgrwt>
</event>
<event>
 6    1  0.1904828E-004  0.3000000E+03  0.7818608E-02  0.1093470E+00
          1   -1    0    0  502    0  0.00000000000E+00  0.00000000000E+00  0.36325619967E+02  0.36325619967E+02  0.00000000000E+00 0.  1.
         13   -1    0    0    0    0 -0.00000000000E+00 -0.00000000000E+00 -0.10000000000E+04  0.10000000000E+04  0.00000000000E+00 0.  1.
    9000005    2    1    2  501    0 -0.58383876700E+01 -0.95746724798E+01 -0.96925528740E+03  0.10237993416E+04  0.32952013370E+03 0.  0.
         13    1    3    3    0    0 -0.11137372579E+03 -0.11950977613E+03 -0.64735147766E+03  0.66764558638E+03  0.00000000000E+00 0.  1.
          3    1    3    3  501    0  0.10553533812E+03  0.10993510365E+03 -0.32190380974E+03  0.35615375518E+03  0.00000000000E+00 0.  1.
         21    1    1    2  502  501  0.58383876700E+01  0.95746724798E+01  0.55809073633E+01  0.12526278405E+02  0.00000000000E+00 0. -1.
<mgrwt>
<rscale>  1 0.30000000E+03</rscale>
<asrwt>0</asrwt>
<pdfrwt beam="1">  1        1 0.13209344E+00 0.30000000E+03</pdfrwt>
<pdfrwt beam="2">0</pdfrwt>
<totfact> 0.22289413E+01</totfact>
</mgrwt>
</event>
<event>
 6    1  0.1904828E-004  0.3000000E+03  0.7818608E-02  0.1093470E+00
          1   -1    0    0  502    0  0.00000000000E+00  0.00000000000E+00  0.57796564055E+02  0.57796564055E+02  0.00000000000E+00 0.  1.
         13   -1    0    0    0    0 -0.00000000000E+00 -0.00000000000E+00 -0.10000000000E+04  0.10000000000E+04  0.00000000000E+00 0.  1.
    9000005    2    1    2  501    0  0.51813831591E+02 -0.26558684666E+02 -0.93058114811E+03  0.99842388979E+03  0.35704194936E+03 0.  0.
         13    1    3    3    0    0 -0.13852148831E+03  0.73130962365E+01 -0.20494118983E+03  0.24747237298E+03  0.00000000000E+00 0.  1.
          3    1    3    3  501    0  0.19033531990E+03 -0.33871780902E+02 -0.72563995828E+03  0.75095151680E+03  0.00000000000E+00 0.  1.
         21    1    1    2  502  501 -0.51813831591E+02  0.26558684666E+02 -0.11622287835E+02  0.59372674269E+02  0.00000000000E+00 0. -1.
<mgrwt>
<rscale>  1 0.30000000E+03</rscale>
<asrwt>0</asrwt>
<pdfrwt beam="1">  1        1 0.21016977E+00 0.30000000E+03</pdfrwt>
<pdfrwt beam="2">0</pdfrwt>
<totfact> 0.91684102E+00</totfact>
</mgrwt>
</event>
<event>
 6    1  0.1904828E-004  0.3000000E+03  0.7818608E-02  0.1093470E+00
          1   -1    0    0  502    0  0.00000000000E+00  0.00000000000E+00  0.25630195192E+02  0.25630195192E+02  0.00000000000E+00 0.  1.
         13   -1    0    0    0    0 -0.00000000000E+00 -0.00000000000E+00 -0.10000000000E+04  0.10000000000E+04  0.00000000000E+00 0.  1.
    9000005    2    1    2  501    0 -0.63822017904E+01 -0.99100048982E+01 -0.93464189283E+03  0.98419050785E+03  0.30811774894E+03 0.  0.
         13    1    3    3    0    0  0.11856177970E+03 -0.10740903297E+01 -0.76046326073E+03  0.76965084304E+03  0.00000000000E+00 0.  1.
          3    1    3    3  501    0 -0.12494398149E+03 -0.88359145685E+01 -0.17417863210E+03  0.21453966481E+03  0.00000000000E+00 0.  1.
         21    1    1    2  502  501  0.63822017904E+01  0.99100048982E+01 -0.39727911976E+02  0.41439687339E+02  0.00000000000E+00 0.  1.
<mgrwt>
<rscale>  1 0.30000000E+03</rscale>
<asrwt>0</asrwt>
<pdfrwt beam="1">  1        1 0.93200906E-01 0.30000000E+03</pdfrwt>
<pdfrwt beam="2">0</pdfrwt>
<totfact> 0.37897211E+01</totfact>
</mgrwt>
</event>
<event>
 6    1  0.1904828E-004  0.3000000E+03  0.7818608E-02  0.1093470E+00
          1   -1    0    0  502    0  0.00000000000E+00  0.00000000000E+00  0.61411784921E+02  0.61411784921E+02  0.00000000000E+00 0.  1.
         13   -1    0    0    0    0 -0.00000000000E+00 -0.00000000000E+00 -0.10000000000E+04  0.10000000000E+04  0.00000000000E+00 0.  1.
    9000005    2    1    2  501    0  0.96871956619E+02 -0.63000647315E+02 -0.85069083784E+03  0.91622498639E+03  0.32006259788E+03 0.  0.
         13    1    3    3    0    0 -0.70718961475E+02  0.87920919429E+02 -0.23940916320E+03  0.26466584028E+03  0.00000000000E+00 0.  1.
          1    1    3    3  501    0  0.16759091809E+03 -0.15092156674E+03 -0.61128167464E+03  0.65155914612E+03  0.00000000000E+00 0.  1.
         21    1    1    2  502  501 -0.96871956619E+02  0.63000647315E+02 -0.87897377236E+02  0.14518679853E+03  0.00000000000E+00 0. -1.
<mgrwt>
<rscale>  1 0.30000000E+03</rscale>
<asrwt>0</asrwt>
<pdfrwt beam="1">  1        1 0.22331605E+00 0.30000000E+03</pdfrwt>
<pdfrwt beam="2">0</pdfrwt>
<totfact> 0.79535436E+00</totfact>
</mgrwt>
</event>
<event>
 6    1  0.1904828E-004  0.3000000E+03  0.7818608E-02  0.1093470E+00
          1   -1    0    0  502    0  0.00000000000E+00  0.00000000000E+00  0.61727769425E+02  0.61727769425E+02  0.00000000000E+00 0.  1.
         13   -1    0    0    0    0 -0.00000000000E+00 -0.00000000000E+00 -0.10000000000E+04  0.10000000000E+04  0.00000000000E+00 0.  1.
    9000005    2    1    2  501    0 -0.67590784483E+02  0.64791079571E+02 -0.89890712961E+03  0.96016001218E+03  0.32420182475E+03 0.  0.
         13    1    3    3    0    0 -0.35552105230E+02  0.19142066192E+03 -0.40644961377E+03  0.45067406241E+03  0.00000000000E+00 0.  1.
          3    1    3    3  501    0 -0.32038679253E+02 -0.12662958235E+03 -0.49245751585E+03  0.50948594977E+03  0.00000000000E+00 0.  1.
         21    1    1    2  502  501  0.67590784483E+02 -0.64791079571E+02 -0.39365100961E+02  0.10156775725E+03  0.00000000000E+00 0.  1.
<mgrwt>
<rscale>  1 0.30000000E+03</rscale>
<asrwt>0</asrwt>
<pdfrwt beam="1">  1        1 0.22446509E+00 0.30000000E+03</pdfrwt>
<pdfrwt beam="2">0</pdfrwt>
<totfact> 0.78555687E+00</totfact>
</mgrwt>
</event>
<event>
 6    1  0.1904828E-004  0.3000000E+03  0.7818608E-02  0.1093470E+00
          3   -1    0    0  502    0  0.00000000000E+00  0.00000000000E+00  0.31197716771E+02  0.31197716771E+02  0.00000000000E+00 0.  1.
         13   -1    0    0    0    0 -0.00000000000E+00 -0.00000000000E+00 -0.10000000000E+04  0.10000000000E+04  0.00000000000E+00 0.  1.
    9000005    2    1    2  501    0  0.49421992680E+01  0.15256506547E+02 -0.96025654977E+03  0.10130258736E+04  0.32229116150E+03 0.  0.
         13    1    3    3    0    0 -0.15634197305E+02 -0.38391965391E+02  0.87089713428E+01  0.42358202438E+02  0.00000000000E+00 0.  1.
          1    1    3    3  501    0  0.20576396573E+02  0.53648471937E+02 -0.96896552112E+03  0.97066767112E+03  0.00000000000E+00 0.  1.
         21    1    1    2  502  501 -0.49421992680E+01 -0.15256506547E+02 -0.85457334557E+01  0.18171843217E+02  0.00000000000E+00 0.  1.
<mgrwt>
<rscale>  1 0.30000000E+03</rscale>
<asrwt>0</asrwt>
<pdfrwt beam="1">  1        3 0.11344648E+00 0.30000000E+03</pdfrwt>
<pdfrwt beam="2">0</pdfrwt>
<totfact> 0.27525845E+00</totfact>
</mgrwt>
</event>
<event>
 6    1  0.1904828E-004  0.3000000E+03  0.7818608E-02  0.1093470E+00
          1   -1    0    0  502    0  0.00000000000E+00  0.00000000000E+00  0.27451164603E+02  0.27451164603E+02  0.00000000000E+00 0.  1.
         13   -1    0    0    0    0 -0.00000000000E+00 -0.00000000000E+00 -0.10000000000E+04  0.10000000000E+04  0.00000000000E+00 0.  1.
    9000005    2    1    2  501    0 -0.10280902760E+02  0.72494187908E+01 -0.96355487535E+03  0.10119869365E+04  0.30906522085E+03 0.  0.
         13    1    3    3    0    0 -0.77909595281E+02  0.73417897322E+02 -0.87776605475E+03  0.88426994722E+03  0.00000000000E+00 0.  1.
          1    1    3    3  501    0  0.67628692521E+02 -0.66168478531E+02 -0.85788820600E+02  0.12771698925E+03  0.00000000000E+00 0.  1.
         21    1    1    2  502  501  0.10280902760E+02 -0.72494187908E+01 -0.89939600434E+01  0.15464228129E+02  0.00000000000E+00 0.  1.
<mgrwt>
<rscale>  1 0.30000000E+03</rscale>
<asrwt>0</asrwt>
<pdfrwt beam="1">  1        1 0.99822627E-01 0.30000000E+03</pdfrwt>
<pdfrwt beam="2">0</pdfrwt>
<totfact> 0.34315883E+01</totfact>
</mgrwt>
</event>
<event>
 6    1  0.1904828E-004  0.3000000E+03  0.7818608E-02  0.1093470E+00
          1   -1    0    0  502    0  0.00000000000E+00  0.00000000000E+00  0.34089031726E+02  0.34089031726E+02  0.00000000000E+00 0.  1.
         13   -1    0    0    0    0 -0.00000000000E+00 -0.00000000000E+00 -0.10000000000E+04  0.10000000000E+04  0.00000000000E+00 0.  1.
    9000005    2    1    2  501    0 -0.12229447134E+01 -0.14425044936E+02 -0.96799383349E+03  0.10194631696E+04  0.31950510951E+03 0.  0.
         13    1    3    3    0    0 -0.34685202509E+02 -0.63227337167E+02 -0.27612234226E+02  0.77221725682E+02  0.00000000000E+00 0.  1.
          3    1    3    3  501    0  0.33462257795E+02  0.48802292231E+02 -0.94038159926E+03  0.94224144393E+03  0.00000000000E+00 0.  1.
         21    1    1    2  502  501  0.12229447134E+01  0.14425044936E+02  0.20828652149E+01  0.14625862117E+02  0.00000000000E+00 0. -1.
<mgrwt>
<rscale>  1 0.30000000E+03</rscale>
<asrwt>0</asrwt>
<pdfrwt beam="1">  1        1 0.12396038E+00 0.30000000E+03</pdfrwt>
<pdfrwt beam="2">0</pdfrwt>
<totfact> 0.24700125E+01</totfact>
</mgrwt>
</event>
<event>
 6    1  0.1904828E-004  0.3000000E+03  0.7818608E-02  0.1093470E+00
          1   -1    0    0  502    0  0.00000000000E+00  0.00000000000E+00  0.39022828470E+02  0.39022828470E+02  0.00000000000E+00 0.  1.
         13   -1    0    0    0    0 -0.00000000000E+00 -0.00000000000E+00 -0.10000000000E+04  0.10000000000E+04  0.00000000000E+00 0.  1.
    9000005    2    1    2  501    0  0.16864326322E+02  0.31201820718E+02 -0.95282879138E+03  0.10026311369E+04  0.31004601566E+03 0.  0.
         13    1    3    3    0    0  0.10278066860E+03  0.55634120253E+02 -0.12937561872E+03  0.17434756061E+03  0.00000000000E+00 0.  1.
          3    1    3    3  501    0 -0.85916342276E+02 -0.24432299535E+02 -0.82345317266E+03  0.82828357626E+03  0.00000000000E+00 0.  1.
         21    1    1    2  502  501 -0.16864326322E+02 -0.31201820718E+02 -0.81483801525E+01  0.36391691600E+02  0.00000000000E+00 0.  1.
<mgrwt>
<rscale>  1 0.30000000E+03</rscale>
<asrwt>0</asrwt>
<pdfrwt beam="1">  1        1 0.14190149E+00 0.30000000E+03</pdfrwt>
<pdfrwt beam="2">0</pdfrwt>
<totfact> 0.19774432E+01</totfact>
</mgrwt>
</event>
<event>
 6    1  0.1904828E-004  0.3000000E+03  0.7818608E-02  0.1093470E+00
          1   -1    0    0  502    0  0.00000000000E+00  0.00000000000E+00  0.32205594606E+02  0.32205594606E+02  0.00000000000E+00 0.  1.
         13   -1    0    0    0    0 -0.00000000000E+00 -0.00000000000E+00 -0.10000000000E+04  0.10000000000E+04  0.00000000000E+00 0.  1.
    9000005    2    1    2  501    0  0.18894366186E+02 -0.18008969839E+02 -0.94256146410E+03  0.99590103023E+03  0.32049247782E+03 0.  0.
         13    1    3    3    0    0  0.79834694799E+01  0.89076286301E+02 -0.62088483870E+02  0.10887286345E+03  0.00000000000E+00 0.  1.
          3    1    3    3  501    0  0.10910896706E+02 -0.10708525614E+03 -0.88047298023E+03  0.88702816678E+03  0.00000000000E+00 0.  1.
         21    1    1    2  502  501 -0.18894366186E+02  0.18008969839E+02 -0.25232941295E+02  0.36304564377E+02  0.00000000000E+00 0. -1.
<mgrwt>
<rscale>  1 0.30000000E+03</rscale>
<asrwt>0</asrwt>
<pdfrwt beam="1">  1        1 0.11711150E+00 0.30000000E+03</pdfrwt>
<pdfrwt beam="2">0</pdfrwt>
<totfact> 0.26999027E+01</totfact>
</mgrwt>
</event>
<event>
 6    1  0.1904828E-004  0.3000000E+03  0.7818608E-02  0.1093470E+00
          3   -1    0    0  502    0  0.00000000000E+00  0.00000000000E+00  0.29398868467E+02  0.29398868467E+02  0.00000000000E+00 0.  1.
         13   -1    0    0    0    0 -0.00000000000E+00 -0.00000000000E+00 -0.10000000000E+04  0.10000000000E+04  0.00000000000E+00 0.  1.
    9000005    2    1    2  501    0  0.12301446349E+02 -0.73144982605E+01 -0.93750770632E+03  0.99334332438E+03  0.32803267095E+03 0.  0.
         13    1    3    3    0    0  0.49706758685E+02  0.51259539516E+02 -0.21311528929E+02  0.74514988530E+02  0.00000000000E+00 0.  1.
          3    1    3    3  501    0 -0.37405312336E+02 -0.58574037777E+02 -0.91619617739E+03  0.91882833585E+03  0.00000000000E+00 0.  1.
         21    1    1    2  502  501 -0.12301446349E+02  0.73144982605E+01 -0.33093425210E+02  0.36055544085E+02  0.00000000000E+00 0. -1.
<mgrwt>
<rscale>  1 0.30000000E+03</rscale>
<asrwt>0</asrwt>
<pdfrwt beam="1">  1        3 0.10690520E+00 0.30000000E+03</pdfrwt>
<pdfrwt beam="2">0</pdfrwt>
<totfact> 0.32684384E+00</totfact>
</mgrwt>
</event>
<event>
 6    1  0.1904828E-004  0.3000000E+03  0.7818608E-02  0.1093470E+00
          1   -1    0    0  502    0  0.00000000000E+00  0.00000000000E+00  0.28536838533E+02  0.28536838533E+02  0.00000000000E+00 0.  1.
         13   -1    0    0    0    0 -0.00000000000E+00 -0.00000000000E+00 -0.10000000000E+04  0.10000000000E+04  0.00000000000E+00 0.  1.
    9000005    2    1    2  501    0 -0.12400454602E+02  0.74933273103E+01 -0.94314620325E+03  0.99672848505E+03  0.32207606397E+03 0.  0.
         13    1    3    3    0    0 -0.44165551642E+02 -0.14482891479E+03 -0.61786433594E+03  0.63614648324E+03  0.00000000000E+00 0.  1.
          3    1    3    3  501    0  0.31765097040E+02  0.15232224211E+03 -0.32528186732E+03  0.36058200182E+03  0.00000000000E+00 0.  1.
         21    1    1    2  502  501  0.12400454602E+02 -0.74933273103E+01 -0.28316958215E+02  0.31808353479E+02  0.00000000000E+00 0. -1.
<mgrwt>
<rscale>  1 0.30000000E+03</rscale>
<asrwt>0</asrwt>
<pdfrwt beam="1">  1        1 0.10377054E+00 0.30000000E+03</pdfrwt>
<pdfrwt beam="2">0</pdfrwt>
<totfact> 0.32413722E+01</totfact>
</mgrwt>
</event>
<event>
 6    1  0.1904828E-004  0.3000000E+03  0.7818608E-02  0.1093470E+00
          1   -1    0    0  502    0  0.00000000000E+00  0.00000000000E+00  0.32129227992E+02  0.32129227992E+02  0.00000000000E+00 0.  1.
         13   -1    0    0    0    0 -0.00000000000E+00 -0.00000000000E+00 -0.10000000000E+04  0.10000000000E+04  0.00000000000E+00 0.  1.
    9000005    2    1    2  501    0 -0.12007898246E+02  0.20672377001E+01 -0.96480093849E+03  0.10195639198E+04  0.32942567078E+03 0.  0.
         13    1    3    3    0    0  0.76194105393E+02  0.52976773704E+02 -0.88586920835E+03  0.89071675327E+03  0.00000000000E+00 0.  1.
          1    1    3    3  501    0 -0.88202003639E+02 -0.50909536004E+02 -0.78931730137E+02  0.12884716654E+03  0.00000000000E+00 0.  1.
         21    1    1    2  502  501  0.12007898246E+02 -0.20672377001E+01 -0.30698335217E+01  0.12565308188E+02  0.00000000000E+00 0. -1.
<mgrwt>
<rscale>  1 0.30000000E+03</rscale>
<asrwt>0</asrwt>
<pdfrwt beam="1">  1        1 0.11683380E+00 0.30000000E+03</pdfrwt>
<pdfrwt beam="2">0</pdfrwt>
<totfact> 0.27098223E+01</totfact>
</mgrwt>
</event>
<event>
 6    1  0.1904828E-004  0.3000000E+03  0.7818608E-02  0.1093470E+00
          1   -1    0    0  502    0  0.00000000000E+00  0.00000000000E+00  0.48625939685E+02  0.48625939685E+02  0.00000000000E+00 0.  1.
         13   -1    0    0    0    0 -0.00000000000E+00 -0.00000000000E+00 -0.10000000000E+04  0.10000000000E+04  0.00000000000E+00 0.  1.
    9000005    2    1    2  501    0  0.14117013527E+02  0.35717771834E+02 -0.93495769008E+03  0.10068581709E+04  0.37167518726E+03 0.  0.
         13    1    3    3    0    0 -0.16860330341E+03  0.41289577468E+02 -0.30526840379E+03  0.35117047353E+03  0.00000000000E+00 0.  1.
          1    1    3    3  501    0  0.18272031694E+03 -0.55718056340E+01 -0.62968928629E+03  0.65568769739E+03  0.00000000000E+00 0.  1.
         21    1    1    2  502  501 -0.14117013527E+02 -0.35717771834E+02 -0.16416370236E+02  0.41767768763E+02  0.00000000000E+00 0. -1.
<mgrwt>
<rscale>  1 0.30000000E+03</rscale>
<asrwt>0</asrwt>
<pdfrwt beam="1">  1        1 0.17682197E+00 0.30000000E+03</pdfrwt>
<pdfrwt beam="2">0</pdfrwt>
<totfact> 0.13235444E+01</totfact>
</mgrwt>
</event>
<event>
 6    1  0.1904828E-004  0.3000000E+03  0.7818608E-02  0.1093470E+00
          1   -1    0    0  502    0  0.00000000000E+00  0.00000000000E+00  0.32629322291E+02  0.32629322291E+02  0.00000000000E+00 0.  1.
         13   -1    0    0    0    0 -0.00000000000E+00 -0.00000000000E+00 -0.10000000000E+04  0.10000000000E+04  0.00000000000E+00 0.  1.
    9000005    2    1    2  501    0  0.10693414815E+02 -0.10505953097E+02 -0.95053641535E+03  0.10100878813E+04  0.34136978038E+03 0.  0.
         13    1    3    3    0    0  0.59695899108E+02 -0.65968295009E+02 -0.41723158319E+02  0.98266160283E+02  0.00000000000E+00 0.  1.
          3    1    3    3  501    0 -0.49002484293E+02  0.55462341912E+02 -0.90881325704E+03  0.91182172106E+03  0.00000000000E+00 0.  1.
         21    1    1    2  502  501 -0.10693414815E+02  0.10505953097E+02 -0.16834262355E+02  0.22541440946E+02  0.00000000000E+00 0. -1.
<mgrwt>
<rscale>  1 0.30000000E+03</rscale>
<asrwt>0</asrwt>
<pdfrwt beam="1">  1        1 0.11865233E+00 0.30000000E+03</pdfrwt>
<pdfrwt beam="2">0</pdfrwt>
<totfact> 0.26457576E+01</totfact>
</mgrwt>
</event>
<event>
 6    1  0.1904828E-004  0.3000000E+03  0.7818608E-02  0.1093470E+00
          1   -1    0    0  502    0  0.00000000000E+00  0.00000000000E+00  0.29091188736E+02  0.29091188736E+02  0.00000000000E+00 0.  1.
         13   -1    0    0    0    0 -0.00000000000E+00 -0.00000000000E+00 -0.10000000000E+04  0.10000000000E+04  0.00000000000E+00 0.  1.
    9000005    2    1    2  501    0 -0.11820985710E+02 -0.79852594714E+01 -0.94705144050E+03  0.10012941707E+04  0.32477697771E+03 0.  0.
         13    1    3    3    0    0  0.95146864486E+01 -0.78267261492E+02 -0.91945907699E+03  0.92283329358E+03  0.00000000000E+00 0.  1.
          1    1    3    3  501    0 -0.21335672158E+02  0.70282002020E+02 -0.27592363512E+02  0.78460877121E+02  0.00000000000E+00 0.  1.
         21    1    1    2  502  501  0.11820985710E+02  0.79852594714E+01 -0.23857370766E+02  0.27797018039E+02  0.00000000000E+00 0.  1.
<mgrwt>
<rscale>  1 0.30000000E+03</rscale>
<asrwt>0</asrwt>
<pdfrwt beam="1">  1        1 0.10578636E+00 0.30000000E+03</pdfrwt>
<pdfrwt beam="2">0</pdfrwt>
<totfact> 0.31501256E+01</totfact>
</mgrwt>
</event>
<event>
 6    1  0.1904828E-004  0.3000000E+03  0.7818608E-02  0.1093470E+00
          1   -1    0    0  502    0  0.00000000000E+00  0.00000000000E+00  0.31067867839E+02  0.31067867839E+02  0.00000000000E+00 0.  1.
         13   -1    0    0    0    0 -0.00000000000E+00 -0.00000000000E+00 -0.10000000000E+04  0.10000000000E+04  0.00000000000E+00 0.  1.
    9000005    2    1    2  501    0  0.14699514644E+01  0.12640219746E+02 -0.96409500942E+03  0.10174541369E+04  0.32491813997E+03 0.  0.
         13    1    3    3    0    0 -0.14353921460E+03  0.51546454971E+02 -0.29932186587E+03  0.33593767656E+03  0.00000000000E+00 0.  1.
          1    1    3    3  501    0  0.14500916606E+03 -0.38906235225E+02 -0.66477314355E+03  0.68151646038E+03  0.00000000000E+00 0.  1.
         21    1    1    2  502  501 -0.14699514644E+01 -0.12640219746E+02 -0.48371227418E+01  0.13613730898E+02  0.00000000000E+00 0. -1.
<mgrwt>
<rscale>  1 0.30000000E+03</rscale>
<asrwt>0</asrwt>
<pdfrwt beam="1">  1        1 0.11297430E+00 0.30000000E+03</pdfrwt>
<pdfrwt beam="2">0</pdfrwt>
<totfact> 0.28531099E+01</totfact>
</mgrwt>
</event>
<event>
 6    1  0.1904828E-004  0.3000000E+03  0.7818608E-02  0.1093470E+00
          1   -1    0    0  502    0  0.00000000000E+00  0.00000000000E+00  0.31905304961E+02  0.31905304961E+02  0.00000000000E+00 0.  1.
         13   -1    0    0    0    0 -0.00000000000E+00 -0.00000000000E+00 -0.10000000000E+04  0.10000000000E+04  0.00000000000E+00 0.  1.
    9000005    2    1    2  501    0  0.12890307050E+02  0.17510085238E+02 -0.95197714013E+03  0.10048398532E+04  0.32088922110E+03 0.  0.
         13    1    3    3    0    0 -0.92703995276E+02  0.13431361228E+03 -0.44554343387E+03  0.47449249588E+03  0.00000000000E+00 0.  1.
          1    1    3    3  501    0  0.10559430233E+03 -0.11680352704E+03 -0.50643370627E+03  0.53034735736E+03  0.00000000000E+00 0.  1.
         21    1    1    2  502  501 -0.12890307050E+02 -0.17510085238E+02 -0.16117554906E+02  0.27065451725E+02  0.00000000000E+00 0. -1.
<mgrwt>
<rscale>  1 0.30000000E+03</rscale>
<asrwt>0</asrwt>
<pdfrwt beam="1">  1        1 0.11601954E+00 0.30000000E+03</pdfrwt>
<pdfrwt beam="2">0</pdfrwt>
<totfact> 0.27392005E+01</totfact>
</mgrwt>
</event>
<event>
 6    1  0.1904828E-004  0.3000000E+03  0.7818608E-02  0.1093470E+00
          1   -1    0    0  502    0  0.00000000000E+00  0.00000000000E+00  0.45769457700E+02  0.45769457700E+02  0.00000000000E+00 0.  1.
         13   -1    0    0    0    0 -0.00000000000E+00 -0.00000000000E+00 -0.10000000000E+04  0.10000000000E+04  0.00000000000E+00 0.  1.
    9000005    2    1    2  501    0  0.16653192117E+02  0.88965614509E+01 -0.96873404849E+03  0.10219612804E+04  0.32496572797E+03 0.  0.
         13    1    3    3    0    0 -0.11908249024E+03 -0.69690565394E+02 -0.67518023082E+03  0.68913406422E+03  0.00000000000E+00 0.  1.
          1    1    3    3  501    0  0.13573568235E+03  0.78587126845E+02 -0.29355381768E+03  0.33282721620E+03  0.00000000000E+00 0.  1.
         21    1    1    2  502  501 -0.16653192117E+02 -0.88965614509E+01  0.14503506195E+02  0.23808177278E+02  0.00000000000E+00 0.  1.
<mgrwt>
<rscale>  1 0.30000000E+03</rscale>
<asrwt>0</asrwt>
<pdfrwt beam="1">  1        1 0.16643474E+00 0.30000000E+03</pdfrwt>
<pdfrwt beam="2">0</pdfrwt>
<totfact> 0.14873636E+01</totfact>
</mgrwt>
</event>
<event>
 6    1  0.1904828E-004  0.3000000E+03  0.7818608E-02  0.1093470E+00
          1   -1    0    0  502    0  0.00000000000E+00  0.00000000000E+00  0.32362365572E+02  0.32362365572E+02  0.00000000000E+00 0.  1.
         13   -1    0    0    0    0 -0.00000000000E+00 -0.00000000000E+00 -0.10000000000E+04  0.10000000000E+04  0.00000000000E+00 0.  1.
    9000005    2    1    2  501    0 -0.27067440447E+02 -0.18346576759E+02 -0.90310883048E+03  0.96002143836E+03  0.32398512189E+03 0.  0.
         13    1    3    3    0    0 -0.66730073750E+02  0.90824638234E+02 -0.10674170360E+03  0.15522824788E+03  0.00000000000E+00 0.  1.
          1    1    3    3  501    0  0.39662633303E+02 -0.10917121499E+03 -0.79636712687E+03  0.80479319047E+03  0.00000000000E+00 0.  1.
         21    1    1    2  502  501  0.27067440447E+02  0.18346576759E+02 -0.64528803952E+02  0.72340927217E+02  0.00000000000E+00 0. -1.
<mgrwt>
<rscale>  1 0.30000000E+03</rscale>
<asrwt>0</asrwt>
<pdfrwt beam="1">  1        1 0.11768158E+00 0.30000000E+03</pdfrwt>
<pdfrwt beam="2">0</pdfrwt>
<totfact> 0.26796950E+01</totfact>
</mgrwt>
</event>
<event>
 6    1  0.1904828E-004  0.3000000E+03  0.7818608E-02  0.1093470E+00
          1   -1    0    0  502    0  0.00000000000E+00  0.00000000000E+00  0.37761099626E+02  0.37761099626E+02  0.00000000000E+00 0.  1.
         13   -1    0    0    0    0 -0.00000000000E+00 -0.00000000000E+00 -0.10000000000E+04  0.10000000000E+04  0.00000000000E+00 0.  1.
    9000005    2    1    2  501    0  0.15845795284E+01 -0.10707574088E+02 -0.97077630027E+03  0.10239752289E+04  0.32557868661E+03 0.  0.
         13    1    3    3    0    0 -0.22854238031E+02 -0.11387601241E+03 -0.86993365598E+03  0.87765290873E+03  0.00000000000E+00 0.  1.
          3    1    3    3  501    0  0.24438817560E+02  0.10316843832E+03 -0.10084264428E+03  0.14632232015E+03  0.00000000000E+00 0.  1.
         21    1    1    2  502  501 -0.15845795284E+01  0.10707574088E+02  0.85373998930E+01  0.13785870740E+02  0.00000000000E+00 0. -1.
<mgrwt>
<rscale>  1 0.30000000E+03</rscale>
<asrwt>0</asrwt>
<pdfrwt beam="1">  1        1 0.13731338E+00 0.30000000E+03</pdfrwt>
<pdfrwt beam="2">0</pdfrwt>
<totfact> 0.20902351E+01</totfact>
</mgrwt>
</event>
<event>
 6    1  0.1904828E-004  0.3000000E+03  0.7818608E-02  0.1093470E+00
          1   -1    0    0  502    0  0.00000000000E+00  0.00000000000E+00  0.33892691227E+02  0.33892691227E+02  0.00000000000E+00 0.  1.
         13   -1    0    0    0    0 -0.00000000000E+00 -0.00000000000E+00 -0.10000000000E+04  0.10000000000E+04  0.00000000000E+00 0.  1.
    9000005    2    1    2  501    0  0.26407226579E+02  0.22553753971E+02 -0.92453276736E+03  0.97972207256E+03  0.32231737168E+03 0.  0.
         13    1    3    3    0    0 -0.13989655786E+03 -0.11649568714E+02 -0.28024950229E+03  0.31344304568E+03  0.00000000000E+00 0.  1.
          3    1    3    3  501    0  0.16630378444E+03  0.34203322686E+02 -0.64428326507E+03  0.66627902687E+03  0.00000000000E+00 0.  1.
         21    1    1    2  502  501 -0.26407226579E+02 -0.22553753971E+02 -0.41574541409E+02  0.54170618670E+02  0.00000000000E+00 0.  1.
<mgrwt>
<rscale>  1 0.30000000E+03</rscale>
<asrwt>0</asrwt>
<pdfrwt beam="1">  1        1 0.12324641E+00 0.30000000E+03</pdfrwt>
<pdfrwt beam="2">0</pdfrwt>
<totfact> 0.24927385E+01</totfact>
</mgrwt>
</event>
<event>
 6    1  0.1904828E-004  0.3000000E+03  0.7818608E-02  0.1093470E+00
          1   -1    0    0  502    0  0.00000000000E+00  0.00000000000E+00  0.84427096759E+02  0.84427096759E+02  0.00000000000E+00 0.  1.
         13   -1    0    0    0    0 -0.00000000000E+00 -0.00000000000E+00 -0.10000000000E+04  0.10000000000E+04  0.00000000000E+00 0.  1.
    9000005    2    1    2  501    0 -0.15778607750E+03  0.43047287088E+02 -0.81536823852E+03  0.89261862455E+03  0.32433490305E+03 0.  0.
         13    1    3    3    0    0 -0.11948042970E+03 -0.55652634073E+02 -0.90087641821E+02  0.15965140766E+03  0.00000000000E+00 0.  1.
          3    1    3    3  501    0 -0.38305647797E+02  0.98699921161E+02 -0.72528059670E+03  0.73296721689E+03  0.00000000000E+00 0.  1.
         21    1    1    2  502  501  0.15778607750E+03 -0.43047287088E+02 -0.10020466472E+03  0.19180847221E+03  0.00000000000E+00 0.  1.
<mgrwt>
<rscale>  1 0.30000000E+03</rscale>
<asrwt>0</asrwt>
<pdfrwt beam="1">  1        1 0.30700827E+00 0.30000000E+03</pdfrwt>
<pdfrwt beam="2">0</pdfrwt>
<totfact> 0.32173778E+00</totfact>
</mgrwt>
</event>
<event>
 6    1  0.1904828E-004  0.3000000E+03  0.7818608E-02  0.1093470E+00
          1   -1    0    0  502    0  0.00000000000E+00  0.00000000000E+00  0.31257449689E+02  0.31257449689E+02  0.00000000000E+00 0.  1.
         13   -1    0    0    0    0 -0.00000000000E+00 -0.00000000000E+00 -0.10000000000E+04  0.10000000000E+04  0.00000000000E+00 0.  1.
    9000005    2    1    2  501    0  0.11615060856E+02  0.47895472009E+01 -0.96504059123E+03  0.10181595910E+04  0.32432662646E+03 0.  0.
         13    1    3    3    0    0 -0.44695308593E+02  0.94050154042E+02 -0.86976905409E+03  0.87598019928E+03  0.00000000000E+00 0.  1.
          3    1    3    3  501    0  0.56310369449E+02 -0.89260606841E+02 -0.95271537145E+02  0.14217939172E+03  0.00000000000E+00 0.  1.
         21    1    1    2  502  501 -0.11615060856E+02 -0.47895472009E+01 -0.37019590795E+01  0.13097858684E+02  0.00000000000E+00 0.  1.
<mgrwt>
<rscale>  1 0.30000000E+03</rscale>
<asrwt>0</asrwt>
<pdfrwt beam="1">  1        1 0.11366369E+00 0.30000000E+03</pdfrwt>
<pdfrwt beam="2">0</pdfrwt>
<totfact> 0.28267448E+01</totfact>
</mgrwt>
</event>
<event>
 6    1  0.1904828E-004  0.3000000E+03  0.7818608E-02  0.1093470E+00
          1   -1    0    0  502    0  0.00000000000E+00  0.00000000000E+00  0.37765753667E+02  0.37765753667E+02  0.00000000000E+00 0.  1.
         13   -1    0    0    0    0 -0.00000000000E+00 -0.00000000000E+00 -0.10000000000E+04  0.10000000000E+04  0.00000000000E+00 0.  1.
    9000005    2    1    2  501    0 -0.80693210598E+01  0.69255256081E+01 -0.96936918243E+03  0.10249601236E+04  0.33279658405E+03 0.  0.
         13    1    3    3    0    0  0.48887732307E+02 -0.15088480198E+03 -0.37022563114E+03  0.40276947723E+03  0.00000000000E+00 0.  1.
          1    1    3    3  501    0 -0.56957053367E+02  0.15781032758E+03 -0.59914355129E+03  0.62219064640E+03  0.00000000000E+00 0.  1.
         21    1    1    2  502  501  0.80693210598E+01 -0.69255256081E+01  0.71349360981E+01  0.12805630029E+02  0.00000000000E+00 0.  1.
<mgrwt>
<rscale>  1 0.30000000E+03</rscale>
<asrwt>0</asrwt>
<pdfrwt beam="1">  1        1 0.13733030E+00 0.30000000E+03</pdfrwt>
<pdfrwt beam="2">0</pdfrwt>
<totfact> 0.20898042E+01</totfact>
</mgrwt>
</event>
<event>
 6    1  0.1904828E-004  0.3000000E+03  0.7818608E-02  0.1093470E+00
          1   -1    0    0  502    0  0.00000000000E+00  0.00000000000E+00  0.23910601676E+02  0.23910601676E+02  0.00000000000E+00 0.  1.
         13   -1    0    0    0    0 -0.00000000000E+00 -0.00000000000E+00 -0.10000000000E+04  0.10000000000E+04  0.00000000000E+00 0.  1.
    9000005    2    1    2  501    0 -0.74197562481E+01  0.54244622015E+01 -0.95758165828E+03  0.10032462843E+04  0.29909195412E+03 0.  0.
         13    1    3    3    0    0  0.83973012873E+02 -0.82157980885E+02 -0.17681595288E+03  0.21228584952E+03  0.00000000000E+00 0.  1.
          1    1    3    3  501    0 -0.91392769121E+02  0.87582443086E+02 -0.78076570540E+03  0.79096043473E+03  0.00000000000E+00 0.  1.
         21    1    1    2  502  501  0.74197562481E+01 -0.54244622015E+01 -0.18507740047E+02  0.20664317424E+02  0.00000000000E+00 0. -1.
<mgrwt>
<rscale>  1 0.30000000E+03</rscale>
<asrwt>0</asrwt>
<pdfrwt beam="1">  1        1 0.86947826E-01 0.30000000E+03</pdfrwt>
<pdfrwt beam="2">0</pdfrwt>
<totfact> 0.41819399E+01</totfact>
</mgrwt>
</event>
<event>
 6    1  0.1904828E-004  0.3000000E+03  0.7818608E-02  0.1093470E+00
          1   -1    0    0  502    0  0.00000000000E+00  0.00000000000E+00  0.56541275787E+02  0.56541275787E+02  0.00000000000E+00 0.  1.
         13   -1    0    0    0    0 -0.00000000000E+00 -0.00000000000E+00 -0.10000000000E+04  0.10000000000E+04  0.00000000000E+00 0.  1.
    9000005    2    1    2  501    0  0.11189171183E+03  0.27687079830E+02 -0.68017973092E+03  0.76913536444E+03  0.34005648489E+03 0.  0.
         13    1    3    3    0    0 -0.65435550408E+02  0.11508832029E+03 -0.43204556250E+03  0.45187443034E+03  0.00000000000E+00 0.  1.
          3    1    3    3  501    0  0.17732726224E+03 -0.87401240455E+02 -0.24813416842E+03  0.31726093409E+03  0.00000000000E+00 0.  1.
         21    1    1    2  502  501 -0.11189171183E+03 -0.27687079830E+02 -0.26327899330E+03  0.28740591135E+03  0.00000000000E+00 0. -1.
<mgrwt>
<rscale>  1 0.30000000E+03</rscale>
<asrwt>0</asrwt>
<pdfrwt beam="1">  1        1 0.20560507E+00 0.30000000E+03</pdfrwt>
<pdfrwt beam="2">0</pdfrwt>
<totfact> 0.96349957E+00</totfact>
</mgrwt>
</event>
<event>
 6    1  0.1904828E-004  0.3000000E+03  0.7818608E-02  0.1093470E+00
          1   -1    0    0  502    0  0.00000000000E+00  0.00000000000E+00  0.88034907812E+02  0.88034907812E+02  0.00000000000E+00 0.  1.
         13   -1    0    0    0    0 -0.00000000000E+00 -0.00000000000E+00 -0.10000000000E+04  0.10000000000E+04  0.00000000000E+00 0.  1.
    9000005    2    1    2  501    0  0.15199112954E+03 -0.32768452561E+02 -0.84858631135E+03  0.92013033729E+03  0.31994692506E+03 0.  0.
         13    1    3    3    0    0  0.15113159738E+03  0.55604044271E+02 -0.80617981798E+03  0.82210611747E+03  0.00000000000E+00 0.  1.
          3    1    3    3  501    0  0.85953215703E+00 -0.88372496832E+02 -0.42406493371E+02  0.98024219822E+02  0.00000000000E+00 0.  1.
         21    1    1    2  502  501 -0.15199112954E+03  0.32768452561E+02 -0.63378780842E+02  0.16790457052E+03  0.00000000000E+00 0.  1.
<mgrwt>
<rscale>  1 0.30000000E+03</rscale>
<asrwt>0</asrwt>
<pdfrwt beam="1">  1        1 0.32012761E+00 0.30000000E+03</pdfrwt>
<pdfrwt beam="2">0</pdfrwt>
<totfact> 0.27805763E+00</totfact>
</mgrwt>
</event>
<event>
 6    1  0.1904828E-004  0.3000000E+03  0.7818608E-02  0.1093470E+00
          1   -1    0    0  502    0  0.00000000000E+00  0.00000000000E+00  0.47043185980E+02  0.47043185980E+02  0.00000000000E+00 0.  1.
         13   -1    0    0    0    0 -0.00000000000E+00 -0.00000000000E+00 -0.10000000000E+04  0.10000000000E+04  0.00000000000E+00 0.  1.
    9000005    2    1    2  501    0 -0.94806541882E+01  0.51988193686E+01 -0.97269387538E+03  0.10245384727E+04  0.32160347699E+03 0.  0.
         13    1    3    3    0    0 -0.30548890376E+02 -0.15543467874E+03 -0.52810528387E+03  0.55135139876E+03  0.00000000000E+00 0.  1.
          3    1    3    3  501    0  0.21068236188E+02  0.16063349811E+03 -0.44458859151E+03  0.47318707399E+03  0.00000000000E+00 0.  1.
         21    1    1    2  502  501  0.94806541882E+01 -0.51988193686E+01  0.19737061359E+02  0.22504713234E+02  0.00000000000E+00 0.  1.
<mgrwt>
<rscale>  1 0.30000000E+03</rscale>
<asrwt>0</asrwt>
<pdfrwt beam="1">  1        1 0.17106649E+00 0.30000000E+03</pdfrwt>
<pdfrwt beam="2">0</pdfrwt>
<totfact> 0.14116867E+01</totfact>
</mgrwt>
</event>
<event>
 6    1  0.1904828E-004  0.3000000E+03  0.7818608E-02  0.1093470E+00
          1   -1    0    0  502    0  0.00000000000E+00  0.00000000000E+00  0.50581649234E+02  0.50581649234E+02  0.00000000000E+00 0.  1.
         13   -1    0    0    0    0 -0.00000000000E+00 -0.00000000000E+00 -0.10000000000E+04  0.10000000000E+04  0.00000000000E+00 0.  1.
    9000005    2    1    2  501    0  0.13147505428E+02  0.39471365621E+02 -0.95399949111E+03  0.10087267517E+04  0.32509042572E+03 0.  0.
         13    1    3    3    0    0  0.12413177893E+03  0.87836078902E+02 -0.23708066044E+03  0.28165779742E+03  0.00000000000E+00 0.  1.
          3    1    3    3  501    0 -0.11098427350E+03 -0.48364713281E+02 -0.71691883068E+03  0.72706895425E+03  0.00000000000E+00 0.  1.
         21    1    1    2  502  501 -0.13147505428E+02 -0.39471365621E+02  0.45811403468E+01  0.41854897561E+02  0.00000000000E+00 0.  1.
<mgrwt>
<rscale>  1 0.30000000E+03</rscale>
<asrwt>0</asrwt>
<pdfrwt beam="1">  1        1 0.18393366E+00 0.30000000E+03</pdfrwt>
<pdfrwt beam="2">0</pdfrwt>
<totfact> 0.12228023E+01</totfact>
</mgrwt>
</event>
<event>
 6    1  0.1904828E-004  0.3000000E+03  0.7818608E-02  0.1093470E+00
          1   -1    0    0  502    0  0.00000000000E+00  0.00000000000E+00  0.35434665848E+02  0.35434665848E+02  0.00000000000E+00 0.  1.
         13   -1    0    0    0    0 -0.00000000000E+00 -0.00000000000E+00 -0.10000000000E+04  0.10000000000E+04  0.00000000000E+00 0.  1.
    9000005    2    1    2  501    0  0.34308232795E+01 -0.31317574753E+02 -0.92098592793E+03  0.98165989775E+03  0.33830240079E+03 0.  0.
         13    1    3    3    0    0  0.59507273303E+02  0.63330740550E+02 -0.43273590960E+02  0.97079874068E+02  0.00000000000E+00 0.  1.
          1    1    3    3  501    0 -0.56076450023E+02 -0.94648315303E+02 -0.87771233697E+03  0.88458002368E+03  0.00000000000E+00 0.  1.
         21    1    1    2  502  501 -0.34308232795E+01  0.31317574753E+02 -0.43579406225E+02  0.53774768095E+02  0.00000000000E+00 0.  1.
<mgrwt>
<rscale>  1 0.30000000E+03</rscale>
<asrwt>0</asrwt>
<pdfrwt beam="1">  1        1 0.12885360E+00 0.30000000E+03</pdfrwt>
<pdfrwt beam="2">0</pdfrwt>
<totfact> 0.23211712E+01</totfact>
</mgrwt>
</event>
<event>
 6    1  0.1904828E-004  0.3000000E+03  0.7818608E-02  0.1093470E+00
          1   -1    0    0  502    0  0.00000000000E+00  0.00000000000E+00  0.33139660840E+02  0.33139660840E+02  0.00000000000E+00 0.  1.
         13   -1    0    0    0    0 -0.00000000000E+00 -0.00000000000E+00 -0.10000000000E+04  0.10000000000E+04  0.00000000000E+00 0.  1.
    9000005    2    1    2  501    0 -0.18579417022E+02  0.46713835753E+01 -0.96084226134E+03  0.10130589780E+04  0.32047406329E+03 0.  0.
         13    1    3    3    0    0 -0.88583397721E+02 -0.90339380567E+02 -0.16203506167E+03  0.20558108679E+03  0.00000000000E+00 0.  1.
          3    1    3    3  501    0  0.70003980700E+02  0.95010764143E+02 -0.79880719966E+03  0.80747789124E+03  0.00000000000E+00 0.  1.
         21    1    1    2  502  501  0.18579417022E+02 -0.46713835753E+01 -0.60180778243E+01  0.20080682809E+02  0.00000000000E+00 0. -1.
<mgrwt>
<rscale>  1 0.30000000E+03</rscale>
<asrwt>0</asrwt>
<pdfrwt beam="1">  1        1 0.12050811E+00 0.30000000E+03</pdfrwt>
<pdfrwt beam="2">0</pdfrwt>
<totfact> 0.25824810E+01</totfact>
</mgrwt>
</event>
<event>
 6    1  0.1904828E-004  0.3000000E+03  0.7818608E-02  0.1093470E+00
          1   -1    0    0  502    0  0.00000000000E+00  0.00000000000E+00  0.38777907151E+02  0.38777907151E+02  0.00000000000E+00 0.  1.
         13   -1    0    0    0    0 -0.00000000000E+00 -0.00000000000E+00 -0.10000000000E+04  0.10000000000E+04  0.00000000000E+00 0.  1.
    9000005    2    1    2  501    0 -0.12650496546E+02  0.12525169616E+02 -0.96550094326E+03  0.10204687975E+04  0.32992056652E+03 0.  0.
         13    1    3    3    0    0  0.55746019241E+02 -0.92892298732E+02 -0.10509762866E+03  0.15093743530E+03  0.00000000000E+00 0.  1.
          1    1    3    3  501    0 -0.68396515786E+02  0.10541746835E+03 -0.86040331460E+03  0.86953136216E+03  0.00000000000E+00 0.  1.
         21    1    1    2  502  501  0.12650496546E+02 -0.12525169616E+02  0.42788504148E+01  0.18309109690E+02  0.00000000000E+00 0.  1.
<mgrwt>
<rscale>  1 0.30000000E+03</rscale>
<asrwt>0</asrwt>
<pdfrwt beam="1">  1        1 0.14101087E+00 0.30000000E+03</pdfrwt>
<pdfrwt beam="2">0</pdfrwt>
<totfact> 0.19987200E+01</totfact>
</mgrwt>
</event>
<event>
 6    1  0.1904828E-004  0.3000000E+03  0.7818608E-02  0.1093470E+00
          1   -1    0    0  502    0  0.00000000000E+00  0.00000000000E+00  0.29027602472E+02  0.29027602472E+02  0.00000000000E+00 0.  1.
         13   -1    0    0    0    0 -0.00000000000E+00 -0.00000000000E+00 -0.10000000000E+04  0.10000000000E+04  0.00000000000E+00 0.  1.
    9000005    2    1    2  501    0  0.24934874658E+01 -0.17988090139E+02 -0.93145842136E+03  0.98554032641E+03  0.32147341320E+03 0.  0.
         13    1    3    3    0    0  0.15002798658E+02 -0.16510202135E+03 -0.37858472449E+03  0.41329185214E+03  0.00000000000E+00 0.  1.
          3    1    3    3  501    0 -0.12509311192E+02  0.14711393121E+03 -0.55287369687E+03  0.57224847427E+03  0.00000000000E+00 0.  1.
         21    1    1    2  502  501 -0.24934874658E+01  0.17988090139E+02 -0.39513976169E+02  0.43487276062E+02  0.00000000000E+00 0. -1.
<mgrwt>
<rscale>  1 0.30000000E+03</rscale>
<asrwt>0</asrwt>
<pdfrwt beam="1">  1        1 0.10555514E+00 0.30000000E+03</pdfrwt>
<pdfrwt beam="2">0</pdfrwt>
<totfact> 0.31604019E+01</totfact>
</mgrwt>
</event>
<event>
 6    1  0.1904828E-004  0.3000000E+03  0.7818608E-02  0.1093470E+00
          1   -1    0    0  502    0  0.00000000000E+00  0.00000000000E+00  0.43962202333E+02  0.43962202333E+02  0.00000000000E+00 0.  1.
         13   -1    0    0    0    0 -0.00000000000E+00 -0.00000000000E+00 -0.10000000000E+04  0.10000000000E+04  0.00000000000E+00 0.  1.
    9000005    2    1    2  501    0  0.60405265525E+02  0.13179812719E+02 -0.90385758010E+03  0.96305930577E+03  0.32665302351E+03 0.  0.
         13    1    3    3    0    0  0.21509584817E+02  0.11297783379E+03 -0.10091708027E+03  0.15300624254E+03  0.00000000000E+00 0.  1.
          3    1    3    3  501    0  0.38895680708E+02 -0.99798021068E+02 -0.80294049983E+03  0.81005306323E+03  0.00000000000E+00 0.  1.
         21    1    1    2  502  501 -0.60405265525E+02 -0.13179812719E+02 -0.52180217570E+02  0.80902896562E+02  0.00000000000E+00 0.  1.
<mgrwt>
<rscale>  1 0.30000000E+03</rscale>
<asrwt>0</asrwt>
<pdfrwt beam="1">  1        1 0.15986289E+00 0.30000000E+03</pdfrwt>
<pdfrwt beam="2">0</pdfrwt>
<totfact> 0.16028167E+01</totfact>
</mgrwt>
</event>
<event>
 6    1  0.1904828E-004  0.3000000E+03  0.7818608E-02  0.1093470E+00
          3   -1    0    0  502    0  0.00000000000E+00  0.00000000000E+00  0.36859887641E+02  0.36859887641E+02  0.00000000000E+00 0.  1.
         13   -1    0    0    0    0 -0.00000000000E+00 -0.00000000000E+00 -0.10000000000E+04  0.10000000000E+04  0.00000000000E+00 0.  1.
    9000005    2    1    2  501    0  0.12406188265E+01 -0.10385598436E+02 -0.96906914230E+03  0.10248368603E+04  0.33329594645E+03 0.  0.
         13    1    3    3    0    0  0.14450998457E+03  0.28228252855E+02 -0.24598735927E+03  0.28668754912E+03  0.00000000000E+00 0.  1.
          3    1    3    3  501    0 -0.14326936574E+03 -0.38613851291E+02 -0.72308178303E+03  0.73814931120E+03  0.00000000000E+00 0.  1.
         21    1    1    2  502  501 -0.12406188265E+01  0.10385598436E+02  0.59290299405E+01  0.12023027322E+02  0.00000000000E+00 0.  1.
<mgrwt>
<rscale>  1 0.30000000E+03</rscale>
<asrwt>0</asrwt>
<pdfrwt beam="1">  1        3 0.13403624E+00 0.30000000E+03</pdfrwt>
<pdfrwt beam="2">0</pdfrwt>
<totfact> 0.15851394E+00</totfact>
</mgrwt>
</event>
<event>
 6    1  0.1904828E-004  0.3000000E+03  0.7818608E-02  0.1093470E+00
          1   -1    0    0  502    0  0.00000000000E+00  0.00000000000E+00  0.39200703494E+02  0.39200703494E+02  0.00000000000E+00 0.  1.
         13   -1    0    0    0    0 -0.00000000000E+00 -0.00000000000E+00 -0.10000000000E+04  0.10000000000E+04  0.00000000000E+00 0.  1.
    9000005    2    1    2  501    0 -0.62373829499E+01 -0.17982603721E+02 -0.96666594896E+03  0.10192834599E+04  0.32269712688E+03 0.  0.
         13    1    3    3    0    0 -0.12233370982E+03 -0.10544527048E+02 -0.83334504130E+03  0.84234237782E+03  0.00000000000E+00 0.  1.
          1    1    3    3  501    0  0.11609632687E+03 -0.74380766730E+01 -0.13332090766E+03  0.17694108205E+03  0.00000000000E+00 0.  1.
         21    1    1    2  502  501  0.62373829499E+01  0.17982603721E+02  0.58666524540E+01  0.19917243626E+02  0.00000000000E+00 0.  1.
<mgrwt>
<rscale>  1 0.30000000E+03</rscale>
<asrwt>0</asrwt>
<pdfrwt beam="1">  1        1 0.14254831E+00 0.30000000E+03</pdfrwt>
<pdfrwt beam="2">0</pdfrwt>
<totfact> 0.19621708E+01</totfact>
</mgrwt>
</event>
<event>
 6    1  0.1904828E-004  0.3000000E+03  0.7818608E-02  0.1093470E+00
          1   -1    0    0  502    0  0.00000000000E+00  0.00000000000E+00  0.37518350009E+02  0.37518350009E+02  0.00000000000E+00 0.  1.
         13   -1    0    0    0    0 -0.00000000000E+00 -0.00000000000E+00 -0.10000000000E+04  0.10000000000E+04  0.00000000000E+00 0.  1.
    9000005    2    1    2  501    0 -0.40057081586E+02  0.74652247758E+01 -0.71187811759E+03  0.78362382503E+03  0.32501622340E+03 0.  0.
         13    1    3    3    0    0  0.12229050881E+03  0.63338136075E+02 -0.44897897607E+03  0.46962624392E+03  0.00000000000E+00 0.  1.
          3    1    3    3  501    0 -0.16234759040E+03 -0.55872911299E+02 -0.26289914152E+03  0.31399758110E+03  0.00000000000E+00 0.  1.
         21    1    1    2  502  501  0.40057081586E+02 -0.74652247758E+01 -0.25060353240E+03  0.25389452498E+03  0.00000000000E+00 0.  1.
<mgrwt>
<rscale>  1 0.30000000E+03</rscale>
<asrwt>0</asrwt>
<pdfrwt beam="1">  1        1 0.13643065E+00 0.30000000E+03</pdfrwt>
<pdfrwt beam="2">0</pdfrwt>
<totfact> 0.21128716E+01</totfact>
</mgrwt>
</event>
<event>
 6    1  0.1904828E-004  0.3000000E+03  0.7818608E-02  0.1093470E+00
          1   -1    0    0  502    0  0.00000000000E+00  0.00000000000E+00  0.25085034887E+02  0.25085034887E+02  0.00000000000E+00 0.  1.
         13   -1    0    0    0    0 -0.00000000000E+00 -0.00000000000E+00 -0.10000000000E+04  0.10000000000E+04  0.00000000000E+00 0.  1.
    9000005    2    1    2  501    0  0.77569576801E+01  0.79679188680E+01 -0.97563960034E+03  0.10139412824E+04  0.27582718550E+03 0.  0.
         13    1    3    3    0    0  0.23722360403E+02 -0.31937418337E+01  0.11537589096E+02  0.26571908704E+02  0.00000000000E+00 0.  1.
          3    1    3    3  501    0 -0.15965402723E+02  0.11161660702E+02 -0.98717718943E+03  0.98736937368E+03  0.00000000000E+00 0.  1.
         21    1    1    2  502  501 -0.77569576801E+01 -0.79679188680E+01  0.72463522428E+00  0.11143752498E+02  0.00000000000E+00 0.  1.
<mgrwt>
<rscale>  1 0.30000000E+03</rscale>
<asrwt>0</asrwt>
<pdfrwt beam="1">  1        1 0.91218501E-01 0.30000000E+03</pdfrwt>
<pdfrwt beam="2">0</pdfrwt>
<totfact> 0.39078234E+01</totfact>
</mgrwt>
</event>
<event>
 6    1  0.1904828E-004  0.3000000E+03  0.7818608E-02  0.1093470E+00
          1   -1    0    0  502    0  0.00000000000E+00  0.00000000000E+00  0.29728175558E+02  0.29728175558E+02  0.00000000000E+00 0.  1.
         13   -1    0    0    0    0 -0.00000000000E+00 -0.00000000000E+00 -0.10000000000E+04  0.10000000000E+04  0.00000000000E+00 0.  1.
    9000005    2    1    2  501    0 -0.98262714696E+00 -0.14605830955E+02 -0.95761156849E+03  0.10103741596E+04  0.32190329351E+03 0.  0.
         13    1    3    3    0    0 -0.92816455694E+02  0.12465370740E+03 -0.45811076739E+03  0.48375501694E+03  0.00000000000E+00 0.  1.
          3    1    3    3  501    0  0.91833828547E+02 -0.13925953835E+03 -0.49950080110E+03  0.52661914263E+03  0.00000000000E+00 0.  1.
         21    1    1    2  502  501  0.98262714696E+00  0.14605830955E+02 -0.12660255955E+02  0.19354015987E+02  0.00000000000E+00 0. -1.
<mgrwt>
<rscale>  1 0.30000000E+03</rscale>
<asrwt>0</asrwt>
<pdfrwt beam="1">  1        1 0.10810268E+00 0.30000000E+03</pdfrwt>
<pdfrwt beam="2">0</pdfrwt>
<totfact> 0.30497827E+01</totfact>
</mgrwt>
</event>
<event>
 6    1  0.1904828E-004  0.3000000E+03  0.7818608E-02  0.1093470E+00
          1   -1    0    0  502    0  0.00000000000E+00  0.00000000000E+00  0.28293600708E+02  0.28293600708E+02  0.00000000000E+00 0.  1.
         13   -1    0    0    0    0 -0.00000000000E+00 -0.00000000000E+00 -0.10000000000E+04  0.10000000000E+04  0.00000000000E+00 0.  1.
    9000005    2    1    2  501    0  0.11342064258E+02 -0.21604242460E+01 -0.94642029638E+03  0.10004961754E+04  0.32426518421E+03 0.  0.
         13    1    3    3    0    0  0.38289058066E+01 -0.22328265711E+02  0.22152031807E+02  0.31684767358E+02  0.00000000000E+00 0.  1.
          1    1    3    3  501    0  0.75131584511E+01  0.20167841465E+02 -0.96857232818E+03  0.96881140802E+03  0.00000000000E+00 0.  1.
         21    1    1    2  502  501 -0.11342064258E+02  0.21604242460E+01 -0.25286102915E+02  0.27797425333E+02  0.00000000000E+00 0. -1.
<mgrwt>
<rscale>  1 0.30000000E+03</rscale>
<asrwt>0</asrwt>
<pdfrwt beam="1">  1        1 0.10288604E+00 0.30000000E+03</pdfrwt>
<pdfrwt beam="2">0</pdfrwt>
<totfact> 0.32826239E+01</totfact>
</mgrwt>
</event>
<event>
 6    1  0.1904828E-004  0.3000000E+03  0.7818608E-02  0.1093470E+00
          1   -1    0    0  502    0  0.00000000000E+00  0.00000000000E+00  0.36833822030E+02  0.36833822030E+02  0.00000000000E+00 0.  1.
         13   -1    0    0    0    0 -0.00000000000E+00 -0.00000000000E+00 -0.10000000000E+04  0.10000000000E+04  0.00000000000E+00 0.  1.
    9000005    2    1    2  501    0  0.59692186792E+01 -0.10152283577E+02 -0.95202877760E+03  0.10206245000E+04  0.36766408065E+03 0.  0.
         13    1    3    3    0    0 -0.17655260072E+03 -0.97727094520E+01 -0.35970620016E+03  0.40081776047E+03  0.00000000000E+00 0.  1.
          1    1    3    3  501    0  0.18252181940E+03 -0.37957412498E+00 -0.59232257744E+03  0.61980673954E+03  0.00000000000E+00 0.  1.
         21    1    1    2  502  501 -0.59692186792E+01  0.10152283577E+02 -0.11137400368E+02  0.16209322023E+02  0.00000000000E+00 0. -1.
<mgrwt>
<rscale>  1 0.30000000E+03</rscale>
<asrwt>0</asrwt>
<pdfrwt beam="1">  1        1 0.13394145E+00 0.30000000E+03</pdfrwt>
<pdfrwt beam="2">0</pdfrwt>
<totfact> 0.21784773E+01</totfact>
</mgrwt>
</event>
<event>
 6    1  0.1904828E-004  0.3000000E+03  0.7818608E-02  0.1093470E+00
          1   -1    0    0  502    0  0.00000000000E+00  0.00000000000E+00  0.35542981252E+02  0.35542981252E+02  0.00000000000E+00 0.  1.
         13   -1    0    0    0    0 -0.00000000000E+00 -0.00000000000E+00 -0.10000000000E+04  0.10000000000E+04  0.00000000000E+00 0.  1.
    9000005    2    1    2  501    0  0.19761970273E+02  0.43040482886E+01 -0.96694631963E+03  0.10151651276E+04  0.30848985549E+03 0.  0.
         13    1    3    3    0    0  0.12230709454E+03  0.10401371176E+03 -0.60612823496E+03  0.62703214816E+03  0.00000000000E+00 0.  1.
          1    1    3    3  501    0 -0.10254512427E+03 -0.99709663473E+02 -0.36081808467E+03  0.38813297943E+03  0.00000000000E+00 0.  1.
         21    1    1    2  502  501 -0.19761970273E+02 -0.43040482886E+01  0.24893008814E+01  0.20377853655E+02  0.00000000000E+00 0.  1.
<mgrwt>
<rscale>  1 0.30000000E+03</rscale>
<asrwt>0</asrwt>
<pdfrwt beam="1">  1        1 0.12924748E+00 0.30000000E+03</pdfrwt>
<pdfrwt beam="2">0</pdfrwt>
<totfact> 0.23096969E+01</totfact>
</mgrwt>
</event>
<event>
 6    1  0.1904828E-004  0.3000000E+03  0.7818608E-02  0.1093470E+00
          1   -1    0    0  502    0  0.00000000000E+00  0.00000000000E+00  0.29063264238E+02  0.29063264238E+02  0.00000000000E+00 0.  1.
         13   -1    0    0    0    0 -0.00000000000E+00 -0.00000000000E+00 -0.10000000000E+04  0.10000000000E+04  0.00000000000E+00 0.  1.
    9000005    2    1    2  501    0 -0.74207296168E+01 -0.76796271595E+01 -0.95042837931E+03  0.10059410544E+04  0.32937707406E+03 0.  0.
         13    1    3    3    0    0 -0.73823510802E+02  0.13080279445E+03 -0.27573631672E+03  0.31399012427E+03  0.00000000000E+00 0.  1.
          1    1    3    3  501    0  0.66402781185E+02 -0.13848242161E+03 -0.67469206259E+03  0.69195093018E+03  0.00000000000E+00 0.  1.
         21    1    1    2  502  501  0.74207296168E+01  0.76796271595E+01 -0.20508356450E+02  0.23122209791E+02  0.00000000000E+00 0.  1.
<mgrwt>
<rscale>  1 0.30000000E+03</rscale>
<asrwt>0</asrwt>
<pdfrwt beam="1">  1        1 0.10568482E+00 0.30000000E+03</pdfrwt>
<pdfrwt beam="2">0</pdfrwt>
<totfact> 0.31546326E+01</totfact>
</mgrwt>
</event>
<event>
 6    1  0.1904828E-004  0.3000000E+03  0.7818608E-02  0.1093470E+00
          1   -1    0    0  502    0  0.00000000000E+00  0.00000000000E+00  0.34137095402E+02  0.34137095402E+02  0.00000000000E+00 0.  1.
         13   -1    0    0    0    0 -0.00000000000E+00 -0.00000000000E+00 -0.10000000000E+04  0.10000000000E+04  0.00000000000E+00 0.  1.
    9000005    2    1    2  501    0  0.12452464114E+02  0.35625513121E+02 -0.90989313053E+03  0.96663260180E+03  0.32411238301E+03 0.  0.
         13    1    3    3    0    0 -0.11984609805E+03  0.11321746501E+03 -0.36387539454E+03  0.39948289620E+03  0.00000000000E+00 0.  1.
          3    1    3    3  501    0  0.13229856216E+03 -0.77591951889E+02 -0.54601773599E+03  0.56714970560E+03  0.00000000000E+00 0.  1.
         21    1    1    2  502  501 -0.12452464114E+02 -0.35625513121E+02 -0.55969774068E+02  0.67504493605E+02  0.00000000000E+00 0. -1.
<mgrwt>
<rscale>  1 0.30000000E+03</rscale>
<asrwt>0</asrwt>
<pdfrwt beam="1">  1        1 0.12413515E+00 0.30000000E+03</pdfrwt>
<pdfrwt beam="2">0</pdfrwt>
<totfact> 0.24644901E+01</totfact>
</mgrwt>
</event>
<event>
 6    1  0.1904828E-004  0.3000000E+03  0.7818608E-02  0.1093470E+00
          1   -1    0    0  502    0  0.00000000000E+00  0.00000000000E+00  0.35345545284E+02  0.35345545284E+02  0.00000000000E+00 0.  1.
         13   -1    0    0    0    0 -0.00000000000E+00 -0.00000000000E+00 -0.10000000000E+04  0.10000000000E+04  0.00000000000E+00 0.  1.
    9000005    2    1    2  501    0 -0.37461839175E+02 -0.26275650231E+02 -0.81047509550E+03  0.87451932230E+03  0.32530042341E+03 0.  0.
         13    1    3    3    0    0  0.45382532482E+01  0.13208895443E+03 -0.18129315376E+03  0.22435528794E+03  0.00000000000E+00 0.  1.
          3    1    3    3  501    0 -0.42000092423E+02 -0.15836460466E+03 -0.62918194173E+03  0.65016403436E+03  0.00000000000E+00 0.  1.
         21    1    1    2  502  501  0.37461839175E+02  0.26275650231E+02 -0.15417935922E+03  0.16082622298E+03  0.00000000000E+00 0.  1.
<mgrwt>
<rscale>  1 0.30000000E+03</rscale>
<asrwt>0</asrwt>
<pdfrwt beam="1">  1        1 0.12852953E+00 0.30000000E+03</pdfrwt>
<pdfrwt beam="2">0</pdfrwt>
<totfact> 0.23306675E+01</totfact>
</mgrwt>
</event>
<event>
 6    1  0.1904828E-004  0.3000000E+03  0.7818608E-02  0.1093470E+00
          1   -1    0    0  502    0  0.00000000000E+00  0.00000000000E+00  0.32782824403E+02  0.32782824403E+02  0.00000000000E+00 0.  1.
         13   -1    0    0    0    0 -0.00000000000E+00 -0.00000000000E+00 -0.10000000000E+04  0.10000000000E+04  0.00000000000E+00 0.  1.
    9000005    2    1    2  501    0  0.26371356638E+02  0.22448366043E+02 -0.92226991818E+03  0.97604100968E+03  0.31760804934E+03 0.  0.
         13    1    3    3    0    0  0.33300275129E+02  0.82377931354E+02 -0.50531851189E+02  0.10221790392E+03  0.00000000000E+00 0.  1.
          1    1    3    3  501    0 -0.69289184912E+01 -0.59929565310E+02 -0.87173806699E+03  0.87382310576E+03  0.00000000000E+00 0.  1.
         21    1    1    2  502  501 -0.26371356638E+02 -0.22448366043E+02 -0.44947257416E+02  0.56741814724E+02  0.00000000000E+00 0. -1.
<mgrwt>
<rscale>  1 0.30000000E+03</rscale>
<asrwt>0</asrwt>
<pdfrwt beam="1">  1        1 0.11921052E+00 0.30000000E+03</pdfrwt>
<pdfrwt beam="2">0</pdfrwt>
<totfact> 0.26265074E+01</totfact>
</mgrwt>
</event>
<event>
 6    1  0.1904828E-004  0.3000000E+03  0.7818608E-02  0.1093470E+00
          1   -1    0    0  502    0  0.00000000000E+00  0.00000000000E+00  0.36244552741E+02  0.36244552741E+02  0.00000000000E+00 0.  1.
         13   -1    0    0    0    0 -0.00000000000E+00 -0.00000000000E+00 -0.10000000000E+04  0.10000000000E+04  0.00000000000E+00 0.  1.
    9000005    2    1    2  501    0  0.11078197626E+02  0.17794743321E+02 -0.96302245236E+03  0.10152703630E+04  0.32081503539E+03 0.  0.
         13    1    3    3    0    0 -0.98610941507E+02 -0.31279640997E+01 -0.85238517271E+03  0.85807597833E+03  0.00000000000E+00 0.  1.
          3    1    3    3  501    0  0.10968913913E+03  0.20922707421E+02 -0.11063727966E+03  0.15719438470E+03  0.00000000000E+00 0.  1.
         21    1    1    2  502  501 -0.11078197626E+02 -0.17794743321E+02 -0.73299489455E+00  0.20974189711E+02  0.00000000000E+00 0.  1.
<mgrwt>
<rscale>  1 0.30000000E+03</rscale>
<asrwt>0</asrwt>
<pdfrwt beam="1">  1        1 0.13179865E+00 0.30000000E+03</pdfrwt>
<pdfrwt beam="2">0</pdfrwt>
<totfact> 0.22371331E+01</totfact>
</mgrwt>
</event>
<event>
 6    1  0.1904828E-004  0.3000000E+03  0.7818608E-02  0.1093470E+00
          1   -1    0    0  502    0  0.00000000000E+00  0.00000000000E+00  0.28912250930E+02  0.28912250930E+02  0.00000000000E+00 0.  1.
         13   -1    0    0    0    0 -0.00000000000E+00 -0.00000000000E+00 -0.10000000000E+04  0.10000000000E+04  0.00000000000E+00 0.  1.
    9000005    2    1    2  501    0  0.21699233055E+02 -0.11600818383E+02 -0.89310661115E+03  0.94714126846E+03  0.31437513872E+03 0.  0.
         13    1    3    3    0    0 -0.14113200562E+03 -0.46593673711E+02 -0.43640008210E+03  0.46101436540E+03  0.00000000000E+00 0.  1.
          1    1    3    3  501    0  0.16283123868E+03  0.34992855329E+02 -0.45670652905E+03  0.48612690307E+03  0.00000000000E+00 0.  1.
         21    1    1    2  502  501 -0.21699233055E+02  0.11600818383E+02 -0.77981137919E+02  0.81770982466E+02  0.00000000000E+00 0. -1.
<mgrwt>
<rscale>  1 0.30000000E+03</rscale>
<asrwt>0</asrwt>
<pdfrwt beam="1">  1        1 0.10513568E+00 0.30000000E+03</pdfrwt>
<pdfrwt beam="2">0</pdfrwt>
<totfact> 0.31791681E+01</totfact>
</mgrwt>
</event>
<event>
 6    1  0.1904828E-004  0.3000000E+03  0.7818608E-02  0.1093470E+00
          1   -1    0    0  502    0  0.00000000000E+00  0.00000000000E+00  0.38181286260E+02  0.38181286260E+02  0.00000000000E+00 0.  1.
         13   -1    0    0    0    0 -0.00000000000E+00 -0.00000000000E+00 -0.10000000000E+04  0.10000000000E+04  0.00000000000E+00 0.  1.
    9000005    2    1    2  501    0  0.62427577720E+01  0.82325692892E+01 -0.97086953454E+03  0.10244457637E+04  0.32679461829E+03 0.  0.
         13    1    3    3    0    0  0.77131736604E+02 -0.11833317652E+03 -0.72778665342E+03  0.74136728978E+03  0.00000000000E+00 0.  1.
          1    1    3    3  501    0 -0.70888978832E+02  0.12656574581E+03 -0.24308288112E+03  0.28307847397E+03  0.00000000000E+00 0.  1.
         21    1    1    2  502  501 -0.62427577720E+01 -0.82325692892E+01  0.90508207954E+01  0.13735522515E+02  0.00000000000E+00 0. -1.
<mgrwt>
<rscale>  1 0.30000000E+03</rscale>
<asrwt>0</asrwt>
<pdfrwt beam="1">  1        1 0.13884133E+00 0.30000000E+03</pdfrwt>
<pdfrwt beam="2">0</pdfrwt>
<totfact> 0.20517819E+01</totfact>
</mgrwt>
</event>
<event>
 6    1  0.1904828E-004  0.3000000E+03  0.7818608E-02  0.1093470E+00
          1   -1    0    0  502    0  0.00000000000E+00  0.00000000000E+00  0.31796207677E+02  0.31796207677E+02  0.00000000000E+00 0.  1.
         13   -1    0    0    0    0 -0.00000000000E+00 -0.00000000000E+00 -0.10000000000E+04  0.10000000000E+04  0.00000000000E+00 0.  1.
    9000005    2    1    2  501    0 -0.71545972627E+01 -0.74095578304E+01 -0.97006302223E+03  0.10213297591E+04  0.31935265769E+03 0.  0.
         13    1    3    3    0    0  0.43993868449E+02 -0.76238384383E+02 -0.91543024420E+03  0.91965226239E+03  0.00000000000E+00 0.  1.
          1    1    3    3  501    0 -0.51148465712E+02  0.68828826552E+02 -0.54632778035E+02  0.10167749675E+03  0.00000000000E+00 0.  1.
         21    1    1    2  502  501  0.71545972627E+01  0.74095578304E+01  0.18592299118E+01  0.10466448543E+02  0.00000000000E+00 0.  1.
<mgrwt>
<rscale>  1 0.30000000E+03</rscale>
<asrwt>0</asrwt>
<pdfrwt beam="1">  1        1 0.11562282E+00 0.30000000E+03</pdfrwt>
<pdfrwt beam="2">0</pdfrwt>
<totfact> 0.27536742E+01</totfact>
</mgrwt>
</event>
<event>
 6    1  0.1904828E-004  0.3000000E+03  0.7818608E-02  0.1093470E+00
          1   -1    0    0  502    0  0.00000000000E+00  0.00000000000E+00  0.35758673677E+02  0.35758673677E+02  0.00000000000E+00 0.  1.
         13   -1    0    0    0    0 -0.00000000000E+00 -0.00000000000E+00 -0.10000000000E+04  0.10000000000E+04  0.00000000000E+00 0.  1.
    9000005    2    1    2  501    0 -0.11216724034E+02 -0.12523277015E+02 -0.97178404195E+03  0.10173320645E+04  0.30052896362E+03 0.  0.
         13    1    3    3    0    0 -0.25761641368E+02 -0.14461763627E+03 -0.31953358166E+03  0.35168115203E+03  0.00000000000E+00 0.  1.
          3    1    3    3  501    0  0.14544917334E+02  0.13209435925E+03 -0.65225046029E+03  0.66565091251E+03  0.00000000000E+00 0.  1.
         21    1    1    2  502  501  0.11216724034E+02  0.12523277015E+02  0.75427156315E+01  0.18426609139E+02  0.00000000000E+00 0.  1.
<mgrwt>
<rscale>  1 0.30000000E+03</rscale>
<asrwt>0</asrwt>
<pdfrwt beam="1">  1        1 0.13003181E+00 0.30000000E+03</pdfrwt>
<pdfrwt beam="2">0</pdfrwt>
<totfact> 0.22870656E+01</totfact>
</mgrwt>
</event>
<event>
 6    1  0.1904828E-004  0.3000000E+03  0.7818608E-02  0.1093470E+00
          1   -1    0    0  502    0  0.00000000000E+00  0.00000000000E+00  0.58437496204E+02  0.58437496204E+02  0.00000000000E+00 0.  1.
         13   -1    0    0    0    0 -0.00000000000E+00 -0.00000000000E+00 -0.10000000000E+04  0.10000000000E+04  0.00000000000E+00 0.  1.
    9000005    2    1    2  501    0 -0.42602648376E+02 -0.96442300734E+02 -0.86263584846E+03  0.92673510465E+03  0.32184040162E+03 0.  0.
         13    1    3    3    0    0 -0.13315245910E+03  0.39261340221E+02 -0.61297807546E+03  0.62850071694E+03  0.00000000000E+00 0.  1.
          3    1    3    3  501    0  0.90549810726E+02 -0.13570364095E+03 -0.24965777301E+03  0.29823438771E+03  0.00000000000E+00 0.  1.
         21    1    1    2  502  501  0.42602648376E+02  0.96442300734E+02 -0.78926655331E+02  0.13170239155E+03  0.00000000000E+00 0.  1.
<mgrwt>
<rscale>  1 0.30000000E+03</rscale>
<asrwt>0</asrwt>
<pdfrwt beam="1">  1        1 0.21250043E+00 0.30000000E+03</pdfrwt>
<pdfrwt beam="2">0</pdfrwt>
<totfact> 0.89396285E+00</totfact>
</mgrwt>
</event>
<event>
 6    1  0.1904828E-004  0.3000000E+03  0.7818608E-02  0.1093470E+00
          1   -1    0    0  502    0  0.00000000000E+00  0.00000000000E+00  0.26988673013E+02  0.26988673013E+02  0.00000000000E+00 0.  1.
         13   -1    0    0    0    0 -0.00000000000E+00 -0.00000000000E+00 -0.10000000000E+04  0.10000000000E+04  0.00000000000E+00 0.  1.
    9000005    2    1    2  501    0 -0.72105485177E+01 -0.62159972095E+01 -0.95365553875E+03  0.10054183886E+04  0.31830271586E+03 0.  0.
         13    1    3    3    0    0 -0.88250161280E+02 -0.13206333042E+03 -0.61459126653E+03  0.63478440364E+03  0.00000000000E+00 0.  1.
          1    1    3    3  501    0  0.81039612762E+02  0.12584733321E+03 -0.33906427222E+03  0.37063398496E+03  0.00000000000E+00 0.  1.
         21    1    1    2  502  501  0.72105485177E+01  0.62159972095E+01 -0.19355788235E+02  0.21570284408E+02  0.00000000000E+00 0.  1.
<mgrwt>
<rscale>  1 0.30000000E+03</rscale>
<asrwt>0</asrwt>
<pdfrwt beam="1">  1        1 0.98140836E-01 0.30000000E+03</pdfrwt>
<pdfrwt beam="2">0</pdfrwt>
<totfact> 0.35176322E+01</totfact>
</mgrwt>
</event>
<event>
 6    1  0.1904828E-004  0.3000000E+03  0.7818608E-02  0.1093470E+00
          1   -1    0    0  502    0  0.00000000000E+00  0.00000000000E+00  0.36892133610E+02  0.36892133610E+02  0.00000000000E+00 0.  1.
         13   -1    0    0    0    0 -0.00000000000E+00 -0.00000000000E+00 -0.10000000000E+04  0.10000000000E+04  0.00000000000E+00 0.  1.
    9000005    2    1    2  501    0 -0.75594321998E+01 -0.29018688662E+02 -0.92847191707E+03  0.99107861713E+03  0.34536574126E+03 0.  0.
         13    1    3    3    0    0  0.55864736360E+02  0.27663781886E+02 -0.89884605309E+03  0.90100520573E+03  0.00000000000E+00 0.  1.
          3    1    3    3  501    0 -0.63424168559E+02 -0.56682470548E+02 -0.29625863981E+02  0.90073411401E+02  0.00000000000E+00 0.  1.
         21    1    1    2  502  501  0.75594321998E+01  0.29018688662E+02 -0.34635949319E+02  0.45813516478E+02  0.00000000000E+00 0.  1.
<mgrwt>
<rscale>  1 0.30000000E+03</rscale>
<asrwt>0</asrwt>
<pdfrwt beam="1">  1        1 0.13415350E+00 0.30000000E+03</pdfrwt>
<pdfrwt beam="2">0</pdfrwt>
<totfact> 0.21727839E+01</totfact>
</mgrwt>
</event>
<event>
 6    1  0.1904828E-004  0.3000000E+03  0.7818608E-02  0.1093470E+00
          1   -1    0    0  502    0  0.00000000000E+00  0.00000000000E+00  0.32963024650E+02  0.32963024650E+02  0.00000000000E+00 0.  1.
         13   -1    0    0    0    0 -0.00000000000E+00 -0.00000000000E+00 -0.10000000000E+04  0.10000000000E+04  0.00000000000E+00 0.  1.
    9000005    2    1    2  501    0  0.31686294020E+02 -0.17893950258E+02 -0.91256525830E+03  0.96745437909E+03  0.31916831027E+03 0.  0.
         13    1    3    3    0    0  0.17532707618E+03 -0.26587731794E+02 -0.50488248830E+03  0.53511944285E+03  0.00000000000E+00 0.  1.
          3    1    3    3  501    0 -0.14364078216E+03  0.86937815358E+01 -0.40768277001E+03  0.43233493625E+03  0.00000000000E+00 0.  1.
         21    1    1    2  502  501 -0.31686294020E+02  0.17893950258E+02 -0.54471717047E+02  0.65508645556E+02  0.00000000000E+00 0.  1.
<mgrwt>
<rscale>  1 0.30000000E+03</rscale>
<asrwt>0</asrwt>
<pdfrwt beam="1">  1        1 0.11986580E+00 0.30000000E+03</pdfrwt>
<pdfrwt beam="2">0</pdfrwt>
<totfact> 0.26041495E+01</totfact>
</mgrwt>
</event>
<event>
 6    1  0.1904828E-004  0.3000000E+03  0.7818608E-02  0.1093470E+00
          1   -1    0    0  502    0  0.00000000000E+00  0.00000000000E+00  0.31696015502E+02  0.31696015502E+02  0.00000000000E+00 0.  1.
         13   -1    0    0    0    0 -0.00000000000E+00 -0.00000000000E+00 -0.10000000000E+04  0.10000000000E+04  0.00000000000E+00 0.  1.
    9000005    2    1    2  501    0 -0.10638672344E+02  0.47153812510E+01 -0.96865012516E+03  0.10200540233E+04  0.31951796391E+03 0.  0.
         13    1    3    3    0    0  0.15440718249E+03  0.84149113730E+01 -0.46532560146E+03  0.49034712613E+03  0.00000000000E+00 0.  1.
          3    1    3    3  501    0 -0.16504585483E+03 -0.36995301220E+01 -0.50332452370E+03  0.52970689714E+03  0.00000000000E+00 0.  1.
         21    1    1    2  502  501  0.10638672344E+02 -0.47153812510E+01  0.34614066257E+00  0.11641992224E+02  0.00000000000E+00 0. -1.
<mgrwt>
<rscale>  1 0.30000000E+03</rscale>
<asrwt>0</asrwt>
<pdfrwt beam="1">  1        1 0.11525848E+00 0.30000000E+03</pdfrwt>
<pdfrwt beam="2">0</pdfrwt>
<totfact> 0.27670606E+01</totfact>
</mgrwt>
</event>
<event>
 6    1  0.1904828E-004  0.3000000E+03  0.7818608E-02  0.1093470E+00
          1   -1    0    0  502    0  0.00000000000E+00  0.00000000000E+00  0.34187092949E+02  0.34187092949E+02  0.00000000000E+00 0.  1.
         13   -1    0    0    0    0 -0.00000000000E+00 -0.00000000000E+00 -0.10000000000E+04  0.10000000000E+04  0.00000000000E+00 0.  1.
    9000005    2    1    2  501    0  0.10644922617E+02 -0.11307455603E+01 -0.97149729949E+03  0.10220666441E+04  0.31733047301E+03 0.  0.
         13    1    3    3    0    0 -0.12693457550E+03  0.87009081518E+02 -0.49053392940E+03  0.51410748158E+03  0.00000000000E+00 0.  1.
          3    1    3    3  501    0  0.13757949811E+03 -0.88139827079E+02 -0.48096337008E+03  0.50795916251E+03  0.00000000000E+00 0.  1.
         21    1    1    2  502  501 -0.10644922617E+02  0.11307455603E+01  0.56843924357E+01  0.12120448853E+02  0.00000000000E+00 0.  1.
<mgrwt>
<rscale>  1 0.30000000E+03</rscale>
<asrwt>0</asrwt>
<pdfrwt beam="1">  1        1 0.12431696E+00 0.30000000E+03</pdfrwt>
<pdfrwt beam="2">0</pdfrwt>
<totfact> 0.24587623E+01</totfact>
</mgrwt>
</event>
<event>
 6    1  0.1904828E-004  0.3000000E+03  0.7818608E-02  0.1093470E+00
          1   -1    0    0  502    0  0.00000000000E+00  0.00000000000E+00  0.29952332725E+02  0.29952332725E+02  0.00000000000E+00 0.  1.
         13   -1    0    0    0    0 -0.00000000000E+00 -0.00000000000E+00 -0.10000000000E+04  0.10000000000E+04  0.00000000000E+00 0.  1.
    9000005    2    1    2  501    0 -0.92526178301E+01  0.75602747616E+01 -0.95908161865E+03  0.10137343515E+04  0.32814176139E+03 0.  0.
         13    1    3    3    0    0  0.44610017104E+02 -0.18595039775E+02 -0.95224204627E+03  0.95346774661E+03  0.00000000000E+00 0.  1.
          3    1    3    3  501    0 -0.53862634934E+02  0.26155314537E+02 -0.68395723825E+01  0.60266604939E+02  0.00000000000E+00 0.  1.
         21    1    1    2  502  501  0.92526178301E+01 -0.75602747616E+01 -0.10966048622E+02  0.16217981180E+02  0.00000000000E+00 0. -1.
<mgrwt>
<rscale>  1 0.30000000E+03</rscale>
<asrwt>0</asrwt>
<pdfrwt beam="1">  1        1 0.10891780E+00 0.30000000E+03</pdfrwt>
<pdfrwt beam="2">0</pdfrwt>
<totfact> 0.30155601E+01</totfact>
</mgrwt>
</event>
<event>
 6    1  0.1904828E-004  0.3000000E+03  0.7818608E-02  0.1093470E+00
          1   -1    0    0  502    0  0.00000000000E+00  0.00000000000E+00  0.35695654630E+02  0.35695654630E+02  0.00000000000E+00 0.  1.
         13   -1    0    0    0    0 -0.00000000000E+00 -0.00000000000E+00 -0.10000000000E+04  0.10000000000E+04  0.00000000000E+00 0.  1.
    9000005    2    1    2  501    0 -0.60704157607E+01  0.99906686249E+01 -0.96900811671E+03  0.10230945090E+04  0.32803807802E+03 0.  0.
         13    1    3    3    0    0 -0.13841619195E+02 -0.13845785040E+03 -0.71810037006E+03  0.73145765990E+03  0.00000000000E+00 0.  1.
          1    1    3    3  501    0  0.77712034345E+01  0.14844851902E+03 -0.25090774665E+03  0.29163684907E+03  0.00000000000E+00 0.  1.
         21    1    1    2  502  501  0.60704157607E+01 -0.99906686249E+01  0.47037713398E+01  0.12601145658E+02  0.00000000000E+00 0.  1.
<mgrwt>
<rscale>  1 0.30000000E+03</rscale>
<asrwt>0</asrwt>
<pdfrwt beam="1">  1        1 0.12980265E+00 0.30000000E+03</pdfrwt>
<pdfrwt beam="2">0</pdfrwt>
<totfact> 0.22936479E+01</totfact>
</mgrwt>
</event>
<event>
 6    1  0.1904828E-004  0.3000000E+03  0.7818608E-02  0.1093470E+00
          1   -1    0    0  502    0  0.00000000000E+00  0.00000000000E+00  0.44511413290E+02  0.44511413290E+02  0.00000000000E+00 0.  1.
         13   -1    0    0    0    0 -0.00000000000E+00 -0.00000000000E+00 -0.10000000000E+04  0.10000000000E+04  0.00000000000E+00 0.  1.
    9000005    2    1    2  501    0 -0.23556675850E+02  0.14944309723E+02 -0.96433295715E+03  0.10152458660E+04  0.31624020429E+03 0.  0.
         13    1    3    3    0    0  0.72828865881E+02 -0.61471126917E+02 -0.86085720259E+02  0.12842700021E+03  0.00000000000E+00 0.  1.
          1    1    3    3  501    0 -0.96385541732E+02  0.76415436640E+02 -0.87824723689E+03  0.88681886578E+03  0.00000000000E+00 0.  1.
         21    1    1    2  502  501  0.23556675850E+02 -0.14944309723E+02  0.88443704359E+01  0.29265547298E+02  0.00000000000E+00 0.  1.
<mgrwt>
<rscale>  1 0.30000000E+03</rscale>
<asrwt>0</asrwt>
<pdfrwt beam="1">  1        1 0.16186003E+00 0.30000000E+03</pdfrwt>
<pdfrwt beam="2">0</pdfrwt>
<totfact> 0.15666727E+01</totfact>
</mgrwt>
</event>
<event>
 6    1  0.1904828E-004  0.3000000E+03  0.7818608E-02  0.1093470E+00
          1   -1    0    0  502    0  0.00000000000E+00  0.00000000000E+00  0.39812630687E+02  0.39812630687E+02  0.00000000000E+00 0.  1.
         13   -1    0    0    0    0 -0.00000000000E+00 -0.00000000000E+00 -0.10000000000E+04  0.10000000000E+04  0.00000000000E+00 0.  1.
    9000005    2    1    2  501    0 -0.23680476361E+02 -0.21835999313E+02 -0.92084353025E+03  0.98896468580E+03  0.35925028425E+03 0.  0.
         13    1    3    3    0    0 -0.85905839730E+02 -0.85487846844E+02 -0.88458558517E+03  0.89284917133E+03  0.00000000000E+00 0.  1.
          1    1    3    3  501    0  0.62225363368E+02  0.63651847531E+02 -0.36257945079E+02  0.96115514470E+02  0.00000000000E+00 0.  1.
         21    1    1    2  502  501  0.23680476361E+02  0.21835999313E+02 -0.39343839062E+02  0.50847944883E+02  0.00000000000E+00 0.  1.
<mgrwt>
<rscale>  1 0.30000000E+03</rscale>
<asrwt>0</asrwt>
<pdfrwt beam="1">  1        1 0.14477351E+00 0.30000000E+03</pdfrwt>
<pdfrwt beam="2">0</pdfrwt>
<totfact> 0.19107568E+01</totfact>
</mgrwt>
</event>
<event>
 6    1  0.1904828E-004  0.3000000E+03  0.7818608E-02  0.1093470E+00
          1   -1    0    0  502    0  0.00000000000E+00  0.00000000000E+00  0.58177932206E+02  0.58177932206E+02  0.00000000000E+00 0.  1.
         13   -1    0    0    0    0 -0.00000000000E+00 -0.00000000000E+00 -0.10000000000E+04  0.10000000000E+04  0.00000000000E+00 0.  1.
    9000005    2    1    2  501    0  0.30768977248E+02 -0.12788402640E+03 -0.72723360905E+03  0.80648514169E+03  0.32287537452E+03 0.  0.
         13    1    3    3    0    0 -0.29087245996E+02 -0.18510516595E+03 -0.69125295715E+03  0.71619874414E+03  0.00000000000E+00 0.  1.
          1    1    3    3  501    0  0.59856223244E+02  0.57221139543E+02 -0.35980651895E+02  0.90286397549E+02  0.00000000000E+00 0.  1.
         21    1    1    2  502  501 -0.30768977248E+02  0.12788402640E+03 -0.21458845875E+03  0.25169279051E+03  0.00000000000E+00 0.  1.
<mgrwt>
<rscale>  1 0.30000000E+03</rscale>
<asrwt>0</asrwt>
<pdfrwt beam="1">  1        1 0.21155656E+00 0.30000000E+03</pdfrwt>
<pdfrwt beam="2">0</pdfrwt>
<totfact> 0.90315449E+00</totfact>
</mgrwt>
</event>
<event>
 6    1  0.1904828E-004  0.3000000E+03  0.7818608E-02  0.1093470E+00
          1   -1    0    0  502    0  0.00000000000E+00  0.00000000000E+00  0.27660582774E+02  0.27660582774E+02  0.00000000000E+00 0.  1.
         13   -1    0    0    0    0 -0.00000000000E+00 -0.00000000000E+00 -0.10000000000E+04  0.10000000000E+04  0.00000000000E+00 0.  1.
    9000005    2    1    2  501    0  0.10377774951E+02 -0.43215935249E+01 -0.93058930915E+03  0.98442349328E+03  0.32088436770E+03 0.  0.
         13    1    3    3    0    0  0.34449654522E+02 -0.50035034019E+02 -0.90277008102E+01  0.61414841104E+02  0.00000000000E+00 0.  1.
          1    1    3    3  501    0 -0.24071879571E+02  0.45713440494E+02 -0.92156160834E+03  0.92300865217E+03  0.00000000000E+00 0.  1.
         21    1    1    2  502  501 -0.10377774951E+02  0.43215935249E+01 -0.41750108079E+02  0.43237089497E+02  0.00000000000E+00 0. -1.
<mgrwt>
<rscale>  1 0.30000000E+03</rscale>
<asrwt>0</asrwt>
<pdfrwt beam="1">  1        1 0.10058415E+00 0.30000000E+03</pdfrwt>
<pdfrwt beam="2">0</pdfrwt>
<totfact> 0.33936448E+01</totfact>
</mgrwt>
</event>
<event>
 6    1  0.1904828E-004  0.3000000E+03  0.7818608E-02  0.1093470E+00
          1   -1    0    0  502    0  0.00000000000E+00  0.00000000000E+00  0.42202084217E+02  0.42202084217E+02  0.00000000000E+00 0.  1.
         13   -1    0    0    0    0 -0.00000000000E+00 -0.00000000000E+00 -0.10000000000E+04  0.10000000000E+04  0.00000000000E+00 0.  1.
    9000005    2    1    2  501    0 -0.44035581321E+02  0.25312817266E+00 -0.93953891238E+03  0.99453041861E+03  0.32313803424E+03 0.  0.
         13    1    3    3    0    0 -0.14101608684E+03 -0.83266109678E+02 -0.73674344789E+03  0.75472491000E+03  0.00000000000E+00 0.  1.
          1    1    3    3  501    0  0.96980505522E+02  0.83519237851E+02 -0.20279546449E+03  0.23980550861E+03  0.00000000000E+00 0.  1.
         21    1    1    2  502  501  0.44035581321E+02 -0.25312817266E+00 -0.18259003403E+02  0.47671665603E+02  0.00000000000E+00 0.  1.
<mgrwt>
<rscale>  1 0.30000000E+03</rscale>
<asrwt>0</asrwt>
<pdfrwt beam="1">  1        1 0.15346245E+00 0.30000000E+03</pdfrwt>
<pdfrwt beam="2">0</pdfrwt>
<totfact> 0.17254462E+01</totfact>
</mgrwt>
</event>
<event>
 6    1  0.1904828E-004  0.3000000E+03  0.7818608E-02  0.1093470E+00
          1   -1    0    0  502    0  0.00000000000E+00  0.00000000000E+00  0.40462695289E+02  0.40462695289E+02  0.00000000000E+00 0.  1.
         13   -1    0    0    0    0 -0.00000000000E+00 -0.00000000000E+00 -0.10000000000E+04  0.10000000000E+04  0.00000000000E+00 0.  1.
    9000005    2    1    2  501    0 -0.16061126726E+02 -0.61679914866E+01 -0.96514462483E+03  0.10223672276E+04  0.33680053058E+03 0.  0.
         13    1    3    3    0    0  0.11211273460E+02 -0.52404126607E+02 -0.96716544839E+03  0.96864900232E+03  0.00000000000E+00 0.  1.
          1    1    3    3  501    0 -0.27272400186E+02  0.46236135120E+02  0.20208235657E+01  0.53718225312E+02  0.00000000000E+00 0.  1.
         21    1    1    2  502  501  0.16061126726E+02  0.61679914866E+01  0.56073201168E+01  0.18095467653E+02  0.00000000000E+00 0. -1.
<mgrwt>
<rscale>  1 0.30000000E+03</rscale>
<asrwt>0</asrwt>
<pdfrwt beam="1">  1        1 0.14713738E+00 0.30000000E+03</pdfrwt>
<pdfrwt beam="2">0</pdfrwt>
<totfact> 0.18579836E+01</totfact>
</mgrwt>
</event>
<event>
 6    1  0.1904828E-004  0.3000000E+03  0.7818608E-02  0.1093470E+00
          1   -1    0    0  502    0  0.00000000000E+00  0.00000000000E+00  0.32453331957E+02  0.32453331957E+02  0.00000000000E+00 0.  1.
         13   -1    0    0    0    0 -0.00000000000E+00 -0.00000000000E+00 -0.10000000000E+04  0.10000000000E+04  0.00000000000E+00 0.  1.
    9000005    2    1    2  501    0 -0.23357030487E+01 -0.10909386783E+02 -0.96391446658E+03  0.10207203393E+04  0.33558075331E+03 0.  0.
         13    1    3    3    0    0 -0.15972118326E+03  0.49345744193E+02 -0.49046473193E+03  0.51817131542E+03  0.00000000000E+00 0.  1.
          3    1    3    3  501    0  0.15738548021E+03 -0.60255130976E+02 -0.47344973465E+03  0.50254902390E+03  0.00000000000E+00 0.  1.
         21    1    1    2  502  501  0.23357030487E+01  0.10909386783E+02 -0.36322014649E+01  0.11732992636E+02  0.00000000000E+00 0. -1.
<mgrwt>
<rscale>  1 0.30000000E+03</rscale>
<asrwt>0</asrwt>
<pdfrwt beam="1">  1        1 0.11801237E+00 0.30000000E+03</pdfrwt>
<pdfrwt beam="2">0</pdfrwt>
<totfact> 0.26680644E+01</totfact>
</mgrwt>
</event>
<event>
 6    1  0.1904828E-004  0.3000000E+03  0.7818608E-02  0.1093470E+00
          1   -1    0    0  502    0  0.00000000000E+00  0.00000000000E+00  0.35986837238E+02  0.35986837238E+02  0.00000000000E+00 0.  1.
         13   -1    0    0    0    0 -0.00000000000E+00 -0.00000000000E+00 -0.10000000000E+04  0.10000000000E+04  0.00000000000E+00 0.  1.
    9000005    2    1    2  501    0 -0.29600409296E+02  0.22376546159E+02 -0.91744897725E+03  0.97644594859E+03  0.33220049761E+03 0.  0.
         13    1    3    3    0    0  0.32443420422E+02  0.16857434980E+03 -0.54932272938E+03  0.57552180493E+03  0.00000000000E+00 0.  1.
          1    1    3    3  501    0 -0.62043829718E+02 -0.14619780365E+03 -0.36812624787E+03  0.40092414366E+03  0.00000000000E+00 0.  1.
         21    1    1    2  502  501  0.29600409296E+02 -0.22376546159E+02 -0.46564185516E+02  0.59540888651E+02  0.00000000000E+00 0.  1.
<mgrwt>
<rscale>  1 0.30000000E+03</rscale>
<asrwt>0</asrwt>
<pdfrwt beam="1">  1        1 0.13086150E+00 0.30000000E+03</pdfrwt>
<pdfrwt beam="2">0</pdfrwt>
<totfact> 0.22634385E+01</totfact>
</mgrwt>
</event>
<event>
 6    1  0.1904828E-004  0.3000000E+03  0.7818608E-02  0.1093470E+00
          1   -1    0    0  502    0  0.00000000000E+00  0.00000000000E+00  0.35237295879E+02  0.35237295879E+02  0.00000000000E+00 0.  1.
         13   -1    0    0    0    0 -0.00000000000E+00 -0.00000000000E+00 -0.10000000000E+04  0.10000000000E+04  0.00000000000E+00 0.  1.
    9000005    2    1    2  501    0  0.35942548229E+02 -0.35022878159E+02 -0.85429338530E+03  0.91390329747E+03  0.32075470410E+03 0.  0.
         13    1    3    3    0    0  0.10538271260E+02  0.14233836185E+03 -0.43866016848E+03  0.46129600890E+03  0.00000000000E+00 0.  1.
          1    1    3    3  501    0  0.25404276969E+02 -0.17736124001E+03 -0.41563321681E+03  0.45260728857E+03  0.00000000000E+00 0.  1.
         21    1    1    2  502  501 -0.35942548229E+02  0.35022878159E+02 -0.11046931883E+03  0.12133399841E+03  0.00000000000E+00 0.  1.
<mgrwt>
<rscale>  1 0.30000000E+03</rscale>
<asrwt>0</asrwt>
<pdfrwt beam="1">  1        1 0.12813589E+00 0.30000000E+03</pdfrwt>
<pdfrwt beam="2">0</pdfrwt>
<totfact> 0.23422696E+01</totfact>
</mgrwt>
</event>
<event>
 6    1  0.1904828E-004  0.3000000E+03  0.7818608E-02  0.1093470E+00
          1   -1    0    0  502    0  0.00000000000E+00  0.00000000000E+00  0.31088688004E+02  0.31088688004E+02  0.00000000000E+00 0.  1.
         13   -1    0    0    0    0 -0.00000000000E+00 -0.00000000000E+00 -0.10000000000E+04  0.10000000000E+04  0.00000000000E+00 0.  1.
    9000005    2    1    2  501    0  0.73420583049E+01  0.40612423713E+02 -0.90443941533E+03  0.95453870277E+03  0.30237427850E+03 0.  0.
         13    1    3    3    0    0 -0.44027238280E+02  0.16426069171E+03 -0.46317994620E+03  0.49341223649E+03  0.00000000000E+00 0.  1.
          1    1    3    3  501    0  0.51369296585E+02 -0.12364826799E+03 -0.44125946913E+03  0.46112646628E+03  0.00000000000E+00 0.  1.
         21    1    1    2  502  501 -0.73420583049E+01 -0.40612423713E+02 -0.64471896667E+02  0.76549985238E+02  0.00000000000E+00 0.  1.
<mgrwt>
<rscale>  1 0.30000000E+03</rscale>
<asrwt>0</asrwt>
<pdfrwt beam="1">  1        1 0.11305001E+00 0.30000000E+03</pdfrwt>
<pdfrwt beam="2">0</pdfrwt>
<totfact> 0.28501974E+01</totfact>
</mgrwt>
</event>
<event>
 6    1  0.1904828E-004  0.3000000E+03  0.7818608E-02  0.1093470E+00
          1   -1    0    0  502    0  0.00000000000E+00  0.00000000000E+00  0.24564931553E+02  0.24564931553E+02  0.00000000000E+00 0.  1.
         13   -1    0    0    0    0 -0.00000000000E+00 -0.00000000000E+00 -0.10000000000E+04  0.10000000000E+04  0.00000000000E+00 0.  1.
    9000005    2    1    2  501    0 -0.95541143613E+01  0.29616376952E+01 -0.96125897254E+03  0.10072151738E+04  0.30060529210E+03 0.  0.
         13    1    3    3    0    0 -0.42056847475E+02  0.13736025113E+03 -0.31326321532E+03  0.34463090268E+03  0.00000000000E+00 0.  1.
          1    1    3    3  501    0  0.32502733113E+02 -0.13439861344E+03 -0.64799575723E+03  0.66258427112E+03  0.00000000000E+00 0.  1.
         21    1    1    2  502  501  0.95541143613E+01 -0.29616376952E+01 -0.14176095905E+02  0.17349757756E+02  0.00000000000E+00 0.  1.
<mgrwt>
<rscale>  1 0.30000000E+03</rscale>
<asrwt>0</asrwt>
<pdfrwt beam="1">  1        1 0.89327212E-01 0.30000000E+03</pdfrwt>
<pdfrwt beam="2">0</pdfrwt>
<totfact> 0.40257419E+01</totfact>
</mgrwt>
</event>
<event>
 6    1  0.1904828E-004  0.3000000E+03  0.7818608E-02  0.1093470E+00
          1   -1    0    0  502    0  0.00000000000E+00  0.00000000000E+00  0.41693915753E+02  0.41693915753E+02  0.00000000000E+00 0.  1.
         13   -1    0    0    0    0 -0.00000000000E+00 -0.00000000000E+00 -0.10000000000E+04  0.10000000000E+04  0.00000000000E+00 0.  1.
    9000005    2    1    2  501    0 -0.64068295564E+02  0.11638002475E+02 -0.74639693231E+03  0.82000567007E+03  0.33325775129E+03 0.  0.
         13    1    3    3    0    0 -0.12837700280E+03  0.12320214965E+03 -0.59609618959E+03  0.62208527693E+03  0.00000000000E+00 0.  1.
          3    1    3    3  501    0  0.64308707235E+02 -0.11156414717E+03 -0.15030074271E+03  0.19792039314E+03  0.00000000000E+00 0.  1.
         21    1    1    2  502  501  0.64068295564E+02 -0.11638002475E+02 -0.21190915194E+03  0.22168824568E+03  0.00000000000E+00 0.  1.
<mgrwt>
<rscale>  1 0.30000000E+03</rscale>
<asrwt>0</asrwt>
<pdfrwt beam="1">  1        1 0.15161456E+00 0.30000000E+03</pdfrwt>
<pdfrwt beam="2">0</pdfrwt>
<totfact> 0.17629275E+01</totfact>
</mgrwt>
</event>
<event>
 6    1  0.1904828E-004  0.3000000E+03  0.7818608E-02  0.1093470E+00
          1   -1    0    0  502    0  0.00000000000E+00  0.00000000000E+00  0.62367983164E+02  0.62367983164E+02  0.00000000000E+00 0.  1.
         13   -1    0    0    0    0 -0.00000000000E+00 -0.00000000000E+00 -0.10000000000E+04  0.10000000000E+04  0.00000000000E+00 0.  1.
    9000005    2    1    2  501    0 -0.35272235184E+02  0.67941930650E+01 -0.95789457259E+03  0.10211264652E+04  0.35191895970E+03 0.  0.
         13    1    3    3    0    0  0.11529867110E+03 -0.94994711837E+02 -0.61677855874E+03  0.63461292876E+03  0.00000000000E+00 0.  1.
          3    1    3    3  501    0 -0.15057090628E+03  0.10178890490E+03 -0.34111601385E+03  0.38651353649E+03  0.00000000000E+00 0.  1.
         21    1    1    2  502  501  0.35272235184E+02 -0.67941930650E+01  0.20262555754E+02  0.41241517915E+02  0.00000000000E+00 0.  1.
<mgrwt>
<rscale>  1 0.30000000E+03</rscale>
<asrwt>0</asrwt>
<pdfrwt beam="1">  1        1 0.22679314E+00 0.30000000E+03</pdfrwt>
<pdfrwt beam="2">0</pdfrwt>
<totfact> 0.76607754E+00</totfact>
</mgrwt>
</event>
<event>
 6    1  0.1904828E-004  0.3000000E+03  0.7818608E-02  0.1093470E+00
          1   -1    0    0  502    0  0.00000000000E+00  0.00000000000E+00  0.32831705430E+02  0.32831705430E+02  0.00000000000E+00 0.  1.
         13   -1    0    0    0    0 -0.00000000000E+00 -0.00000000000E+00 -0.10000000000E+04  0.10000000000E+04  0.00000000000E+00 0.  1.
    9000005    2    1    2  501    0  0.13652672096E+02 -0.71503063275E+01 -0.94473945949E+03  0.10056181981E+04  0.34423508215E+03 0.  0.
         13    1    3    3    0    0  0.22651115327E+02  0.15408156605E+03 -0.66144196136E+03  0.67952900620E+03  0.00000000000E+00 0.  1.
          1    1    3    3  501    0 -0.89984432312E+01 -0.16123187238E+03 -0.28329749813E+03  0.32608919194E+03  0.00000000000E+00 0.  1.
         21    1    1    2  502  501 -0.13652672096E+02  0.71503063275E+01 -0.22428835081E+02  0.27213507290E+02  0.00000000000E+00 0. -1.
<mgrwt>
<rscale>  1 0.30000000E+03</rscale>
<asrwt>0</asrwt>
<pdfrwt beam="1">  1        1 0.11938827E+00 0.30000000E+03</pdfrwt>
<pdfrwt beam="2">0</pdfrwt>
<totfact> 0.26204171E+01</totfact>
</mgrwt>
</event>
<event>
 6    1  0.1904828E-004  0.3000000E+03  0.7818608E-02  0.1093470E+00
          1   -1    0    0  502    0  0.00000000000E+00  0.00000000000E+00  0.41862808857E+02  0.41862808857E+02  0.00000000000E+00 0.  1.
         13   -1    0    0    0    0 -0.00000000000E+00 -0.00000000000E+00 -0.10000000000E+04  0.10000000000E+04  0.00000000000E+00 0.  1.
    9000005    2    1    2  501    0 -0.31955721408E+02  0.58277451045E+02 -0.79961518261E+03  0.86997139947E+03  0.33622665898E+03 0.  0.
         13    1    3    3    0    0 -0.14475510327E+03  0.13786427911E+03 -0.39973554000E+03  0.44693299422E+03  0.00000000000E+00 0.  1.
          3    1    3    3  501    0  0.11279938186E+03 -0.79586828065E+02 -0.39987964261E+03  0.42303840526E+03  0.00000000000E+00 0.  1.
         21    1    1    2  502  501  0.31955721408E+02 -0.58277451045E+02 -0.15852200853E+03  0.17189140938E+03  0.00000000000E+00 0.  1.
<mgrwt>
<rscale>  1 0.30000000E+03</rscale>
<asrwt>0</asrwt>
<pdfrwt beam="1">  1        1 0.15222872E+00 0.30000000E+03</pdfrwt>
<pdfrwt beam="2">0</pdfrwt>
<totfact> 0.17503612E+01</totfact>
</mgrwt>
</event>
<event>
 6    1  0.1904828E-004  0.3000000E+03  0.7818608E-02  0.1093470E+00
          1   -1    0    0  502    0  0.00000000000E+00  0.00000000000E+00  0.29871445450E+02  0.29871445450E+02  0.00000000000E+00 0.  1.
         13   -1    0    0    0    0 -0.00000000000E+00 -0.00000000000E+00 -0.10000000000E+04  0.10000000000E+04  0.00000000000E+00 0.  1.
    9000005    2    1    2  501    0 -0.31452377644E+01 -0.14630676105E+02 -0.94301723170E+03  0.99890415576E+03  0.32909582786E+03 0.  0.
         13    1    3    3    0    0 -0.23292930008E+02  0.27924869407E+02  0.15284925903E+02  0.39446012214E+02  0.00000000000E+00 0.  1.
          3    1    3    3  501    0  0.20147692244E+02 -0.42555545512E+02 -0.95830215760E+03  0.95945814355E+03  0.00000000000E+00 0.  1.
         21    1    1    2  502  501  0.31452377644E+01  0.14630676105E+02 -0.27111322850E+02  0.30967289687E+02  0.00000000000E+00 0. -1.
<mgrwt>
<rscale>  1 0.30000000E+03</rscale>
<asrwt>0</asrwt>
<pdfrwt beam="1">  1        1 0.10862367E+00 0.30000000E+03</pdfrwt>
<pdfrwt beam="2">0</pdfrwt>
<totfact> 0.30278459E+01</totfact>
</mgrwt>
</event>
<event>
 6    1  0.1904828E-004  0.3000000E+03  0.7818608E-02  0.1093470E+00
          1   -1    0    0  502    0  0.00000000000E+00  0.00000000000E+00  0.38543558046E+02  0.38543558046E+02  0.00000000000E+00 0.  1.
         13   -1    0    0    0    0 -0.00000000000E+00 -0.00000000000E+00 -0.10000000000E+04  0.10000000000E+04  0.00000000000E+00 0.  1.
    9000005    2    1    2  501    0 -0.10841754395E+02  0.32254087965E+01 -0.97248632069E+03  0.10227446617E+04  0.31646335053E+03 0.  0.
         13    1    3    3    0    0  0.10728348142E+03 -0.23197182823E+02 -0.12372554074E+03  0.16539608251E+03  0.00000000000E+00 0.  1.
          3    1    3    3  501    0 -0.11812523582E+03  0.26422591619E+02 -0.84876077995E+03  0.85734857921E+03  0.00000000000E+00 0.  1.
         21    1    1    2  502  501  0.10841754395E+02 -0.32254087965E+01  0.11029878740E+02  0.15798896331E+02  0.00000000000E+00 0.  1.
<mgrwt>
<rscale>  1 0.30000000E+03</rscale>
<asrwt>0</asrwt>
<pdfrwt beam="1">  1        1 0.14015869E+00 0.30000000E+03</pdfrwt>
<pdfrwt beam="2">0</pdfrwt>
<totfact> 0.20193514E+01</totfact>
</mgrwt>
</event>
<event>
 6    1  0.1904828E-004  0.3000000E+03  0.7818608E-02  0.1093470E+00
          1   -1    0    0  502    0  0.00000000000E+00  0.00000000000E+00  0.32531994133E+02  0.32531994133E+02  0.00000000000E+00 0.  1.
         13   -1    0    0    0    0 -0.00000000000E+00 -0.00000000000E+00 -0.10000000000E+04  0.10000000000E+04  0.00000000000E+00 0.  1.
    9000005    2    1    2  501    0 -0.74463098405E+01 -0.69426394257E+01 -0.96721150238E+03  0.10223480083E+04  0.33104941031E+03 0.  0.
         13    1    3    3    0    0  0.31230274892E+02 -0.16415765523E+03 -0.54997825738E+03  0.57480357465E+03  0.00000000000E+00 0.  1.
          1    1    3    3  501    0 -0.38676584732E+02  0.15721501581E+03 -0.41723324500E+03  0.44754443370E+03  0.00000000000E+00 0.  1.
         21    1    1    2  502  501  0.74463098405E+01  0.69426394257E+01 -0.25650348919E+00  0.10183985785E+02  0.00000000000E+00 0. -1.
<mgrwt>
<rscale>  1 0.30000000E+03</rscale>
<asrwt>0</asrwt>
<pdfrwt beam="1">  1        1 0.11829841E+00 0.30000000E+03</pdfrwt>
<pdfrwt beam="2">0</pdfrwt>
<totfact> 0.26580624E+01</totfact>
</mgrwt>
</event>
<event>
 6    1  0.1904828E-004  0.3000000E+03  0.7818608E-02  0.1093470E+00
          1   -1    0    0  502    0  0.00000000000E+00  0.00000000000E+00  0.27337068154E+02  0.27337068154E+02  0.00000000000E+00 0.  1.
         13   -1    0    0    0    0 -0.00000000000E+00 -0.00000000000E+00 -0.10000000000E+04  0.10000000000E+04  0.00000000000E+00 0.  1.
    9000005    2    1    2  501    0 -0.94402263354E+00  0.10437068316E+02 -0.96274741628E+03  0.10129099748E+04  0.31463344692E+03 0.  0.
         13    1    3    3    0    0  0.10518482468E+03  0.12261653221E+02 -0.85545670037E+03  0.86198628857E+03  0.00000000000E+00 0.  1.
          3    1    3    3  501    0 -0.10612884732E+03 -0.18245849047E+01 -0.10729071591E+03  0.15092368622E+03  0.00000000000E+00 0.  1.
         21    1    1    2  502  501  0.94402263354E+00 -0.10437068316E+02 -0.99155155701E+01  0.14427093359E+02  0.00000000000E+00 0. -1.
<mgrwt>
<rscale>  1 0.30000000E+03</rscale>
<asrwt>0</asrwt>
<pdfrwt beam="1">  1        1 0.99407730E-01 0.30000000E+03</pdfrwt>
<pdfrwt beam="2">0</pdfrwt>
<totfact> 0.34525244E+01</totfact>
</mgrwt>
</event>
<event>
 6    1  0.1904828E-004  0.3000000E+03  0.7818608E-02  0.1093470E+00
          1   -1    0    0  502    0  0.00000000000E+00  0.00000000000E+00  0.19220238995E+02  0.19220238995E+02  0.00000000000E+00 0.  1.
         13   -1    0    0    0    0 -0.00000000000E+00 -0.00000000000E+00 -0.10000000000E+04  0.10000000000E+04  0.00000000000E+00 0.  1.
    9000005    2    1    2  501    0 -0.33107894042E+00  0.96036863138E+01 -0.94673843923E+03  0.98384861206E+03  0.26749220311E+03 0.  0.
         13    1    3    3    0    0 -0.21082307249E+02 -0.12684830058E+03 -0.50037118436E+03  0.51662972928E+03  0.00000000000E+00 0.  1.
          3    1    3    3  501    0  0.20751228308E+02  0.13645198689E+03 -0.44636725488E+03  0.46721888278E+03  0.00000000000E+00 0.  1.
         21    1    1    2  502  501  0.33107894042E+00 -0.96036863138E+01 -0.34041321772E+02  0.35371626936E+02  0.00000000000E+00 0.  1.
<mgrwt>
<rscale>  1 0.30000000E+03</rscale>
<asrwt>0</asrwt>
<pdfrwt beam="1">  1        1 0.69891926E-01 0.30000000E+03</pdfrwt>
<pdfrwt beam="2">0</pdfrwt>
<totfact> 0.56502504E+01</totfact>
</mgrwt>
</event>
<event>
 6    1  0.1904828E-004  0.3000000E+03  0.7818608E-02  0.1093470E+00
          1   -1    0    0  502    0  0.00000000000E+00  0.00000000000E+00  0.29184293575E+02  0.29184293575E+02  0.00000000000E+00 0.  1.
         13   -1    0    0    0    0 -0.00000000000E+00 -0.00000000000E+00 -0.10000000000E+04  0.10000000000E+04  0.00000000000E+00 0.  1.
    9000005    2    1    2  501    0  0.13348634346E+01  0.13990026641E+02 -0.91836826914E+03  0.97488662895E+03  0.32681211550E+03 0.  0.
         13    1    3    3    0    0  0.91997841561E+01 -0.11932655063E+03 -0.13582747534E+03  0.18103194407E+03  0.00000000000E+00 0.  1.
          3    1    3    3  501    0 -0.78649207215E+01  0.13331657728E+03 -0.78254079380E+03  0.79385468488E+03  0.00000000000E+00 0.  1.
         21    1    1    2  502  501 -0.13348634346E+01 -0.13990026641E+02 -0.52447437288E+02  0.54297664626E+02  0.00000000000E+00 0.  1.
<mgrwt>
<rscale>  1 0.30000000E+03</rscale>
<asrwt>0</asrwt>
<pdfrwt beam="1">  1        1 0.10612493E+00 0.30000000E+03</pdfrwt>
<pdfrwt beam="2">0</pdfrwt>
<totfact> 0.31351655E+01</totfact>
</mgrwt>
</event>
<event>
 6    1  0.1904828E-004  0.3000000E+03  0.7818608E-02  0.1093470E+00
          1   -1    0    0  502    0  0.00000000000E+00  0.00000000000E+00  0.29400232588E+02  0.29400232588E+02  0.00000000000E+00 0.  1.
         13   -1    0    0    0    0 -0.00000000000E+00 -0.00000000000E+00 -0.10000000000E+04  0.10000000000E+04  0.00000000000E+00 0.  1.
    9000005    2    1    2  501    0 -0.12661863972E+02  0.51185149739E+01 -0.95495854593E+03  0.10086356039E+04  0.32436620513E+03 0.  0.
         13    1    3    3    0    0 -0.41484915475E+02  0.21975887364E+01 -0.97340475441E+03  0.97429084134E+03  0.00000000000E+00 0.  1.
          1    1    3    3  501    0  0.28823051502E+02  0.29209262375E+01  0.18446208487E+02  0.34344762564E+02  0.00000000000E+00 0.  1.
         21    1    1    2  502  501  0.12661863972E+02 -0.51185149739E+01 -0.15641221486E+02  0.20764628684E+02  0.00000000000E+00 0.  1.
<mgrwt>
<rscale>  1 0.30000000E+03</rscale>
<asrwt>0</asrwt>
<pdfrwt beam="1">  1        1 0.10691016E+00 0.30000000E+03</pdfrwt>
<pdfrwt beam="2">0</pdfrwt>
<totfact> 0.31008598E+01</totfact>
</mgrwt>
</event>
<event>
 6    1  0.1904828E-004  0.3000000E+03  0.7818608E-02  0.1093470E+00
          1   -1    0    0  502    0  0.00000000000E+00  0.00000000000E+00  0.38129978599E+02  0.38129978599E+02  0.00000000000E+00 0.  1.
         13   -1    0    0    0    0 -0.00000000000E+00 -0.00000000000E+00 -0.10000000000E+04  0.10000000000E+04  0.00000000000E+00 0.  1.
    9000005    2    1    2  501    0 -0.10645408008E+02  0.74112171331E+01 -0.96924934328E+03  0.10232066666E+04  0.32762683372E+03 0.  0.
         13    1    3    3    0    0  0.78520608142E+02  0.13696839481E+03 -0.34431831596E+03  0.37878876671E+03  0.00000000000E+00 0.  1.
          1    1    3    3  501    0 -0.89166016149E+02 -0.12955717768E+03 -0.62493102732E+03  0.64441789984E+03  0.00000000000E+00 0.  1.
         21    1    1    2  502  501  0.10645408008E+02 -0.74112171331E+01  0.73793218817E+01  0.14923312048E+02  0.00000000000E+00 0.  1.
<mgrwt>
<rscale>  1 0.30000000E+03</rscale>
<asrwt>0</asrwt>
<pdfrwt beam="1">  1        1 0.13865476E+00 0.30000000E+03</pdfrwt>
<pdfrwt beam="2">0</pdfrwt>
<totfact> 0.20564285E+01</totfact>
</mgrwt>
</event>
<event>
 6    1  0.1904828E-004  0.3000000E+03  0.7818608E-02  0.1093470E+00
          1   -1    0    0  502    0  0.00000000000E+00  0.00000000000E+00  0.28387843535E+02  0.28387843535E+02  0.00000000000E+00 0.  1.
         13   -1    0    0    0    0 -0.00000000000E+00 -0.00000000000E+00 -0.10000000000E+04  0.10000000000E+04  0.00000000000E+00 0.  1.
    9000005    2    1    2  501    0 -0.96498040247E+00 -0.14550557220E+02 -0.95131129237E+03  0.10033923442E+04  0.31873244511E+03 0.  0.
         13    1    3    3    0    0  0.14826258254E+03 -0.63854269912E+02 -0.45461845359E+03  0.48242833614E+03  0.00000000000E+00 0.  1.
          1    1    3    3  501    0 -0.14922756294E+03  0.49303712692E+02 -0.49669283879E+03  0.52096400809E+03  0.00000000000E+00 0.  1.
         21    1    1    2  502  501  0.96498040247E+00  0.14550557220E+02 -0.20300864092E+02  0.24995499304E+02  0.00000000000E+00 0.  1.
<mgrwt>
<rscale>  1 0.30000000E+03</rscale>
<asrwt>0</asrwt>
<pdfrwt beam="1">  1        1 0.10322874E+00 0.30000000E+03</pdfrwt>
<pdfrwt beam="2">0</pdfrwt>
<totfact> 0.32665506E+01</totfact>
</mgrwt>
</event>
<event>
 6    1  0.1904828E-004  0.3000000E+03  0.7818608E-02  0.1093470E+00
          1   -1    0    0  502    0  0.00000000000E+00  0.00000000000E+00  0.30653269068E+02  0.30653269068E+02  0.00000000000E+00 0.  1.
         13   -1    0    0    0    0 -0.00000000000E+00 -0.00000000000E+00 -0.10000000000E+04  0.10000000000E+04  0.00000000000E+00 0.  1.
    9000005    2    1    2  501    0 -0.62673501055E+01  0.17336344488E+02 -0.95460020336E+03  0.10070463084E+04  0.32022006565E+03 0.  0.
         13    1    3    3    0    0 -0.10347997696E+03 -0.79823981256E+02 -0.19262961647E+03  0.23277917166E+03  0.00000000000E+00 0.  1.
          3    1    3    3  501    0  0.97212626859E+02  0.97160325745E+02 -0.76197058689E+03  0.77426713672E+03  0.00000000000E+00 0.  1.
         21    1    1    2  502  501  0.62673501055E+01 -0.17336344488E+02 -0.14746527571E+02  0.23606960689E+02  0.00000000000E+00 0. -1.
<mgrwt>
<rscale>  1 0.30000000E+03</rscale>
<asrwt>0</asrwt>
<pdfrwt beam="1">  1        1 0.11146667E+00 0.30000000E+03</pdfrwt>
<pdfrwt beam="2">0</pdfrwt>
<totfact> 0.29120044E+01</totfact>
</mgrwt>
</event>
<event>
 6    1  0.1904828E-004  0.3000000E+03  0.7818608E-02  0.1093470E+00
          1   -1    0    0  502    0  0.00000000000E+00  0.00000000000E+00  0.58598018332E+02  0.58598018332E+02  0.00000000000E+00 0.  1.
         13   -1    0    0    0    0 -0.00000000000E+00 -0.00000000000E+00 -0.10000000000E+04  0.10000000000E+04  0.00000000000E+00 0.  1.
    9000005    2    1    2  501    0  0.11198449440E+02  0.34308149002E+01 -0.96962350186E+03  0.10280426593E+04  0.34141587299E+03 0.  0.
         13    1    3    3    0    0  0.83247724341E+01 -0.16612568259E+03 -0.38676406810E+03  0.42101483184E+03  0.00000000000E+00 0.  1.
          1    1    3    3  501    0  0.28736770062E+01  0.16955649749E+03 -0.58285943375E+03  0.60702782751E+03  0.00000000000E+00 0.  1.
         21    1    1    2  502  501 -0.11198449440E+02 -0.34308149002E+01  0.28221520189E+02  0.30555358983E+02  0.00000000000E+00 0.  1.
<mgrwt>
<rscale>  1 0.30000000E+03</rscale>
<asrwt>0</asrwt>
<pdfrwt beam="1">  1        1 0.21308415E+00 0.30000000E+03</pdfrwt>
<pdfrwt beam="2">0</pdfrwt>
<totfact> 0.88832786E+00</totfact>
</mgrwt>
</event>
<event>
 6    1  0.1904828E-004  0.3000000E+03  0.7818608E-02  0.1093470E+00
          1   -1    0    0  502    0  0.00000000000E+00  0.00000000000E+00  0.35054087955E+02  0.35054087955E+02  0.00000000000E+00 0.  1.
         13   -1    0    0    0    0 -0.00000000000E+00 -0.00000000000E+00 -0.10000000000E+04  0.10000000000E+04  0.00000000000E+00 0.  1.
    9000005    2    1    2  501    0 -0.25109208796E+02  0.27680191222E+02 -0.91718896817E+03  0.97441259192E+03  0.32687555831E+03 0.  0.
         13    1    3    3    0    0 -0.13776926252E+02  0.11687976845E+03 -0.10640852360E+03  0.15866145678E+03  0.00000000000E+00 0.  1.
          1    1    3    3  501    0 -0.11332282544E+02 -0.89199577232E+02 -0.81078044456E+03  0.81575113515E+03  0.00000000000E+00 0.  1.
         21    1    1    2  502  501  0.25109208796E+02 -0.27680191222E+02 -0.47756943877E+02  0.60641496031E+02  0.00000000000E+00 0.  1.
<mgrwt>
<rscale>  1 0.30000000E+03</rscale>
<asrwt>0</asrwt>
<pdfrwt beam="1">  1        1 0.12746968E+00 0.30000000E+03</pdfrwt>
<pdfrwt beam="2">0</pdfrwt>
<totfact> 0.23620757E+01</totfact>
</mgrwt>
</event>
<event>
 6    1  0.1904828E-004  0.3000000E+03  0.7818608E-02  0.1093470E+00
          1   -1    0    0  502    0  0.00000000000E+00  0.00000000000E+00  0.35790563611E+02  0.35790563611E+02  0.00000000000E+00 0.  1.
         13   -1    0    0    0    0 -0.00000000000E+00 -0.00000000000E+00 -0.10000000000E+04  0.10000000000E+04  0.00000000000E+00 0.  1.
    9000005    2    1    2  501    0  0.11292291520E+02 -0.53548430909E+01 -0.96793592192E+03  0.10227492107E+04  0.33009060691E+03 0.  0.
         13    1    3    3    0    0  0.55784634163E+02  0.14568993322E+03 -0.64323184032E+03  0.66187965859E+03  0.00000000000E+00 0.  1.
          1    1    3    3  501    0 -0.44492342643E+02 -0.15104477631E+03 -0.32470408160E+03  0.36086955207E+03  0.00000000000E+00 0.  1.
         21    1    1    2  502  501 -0.11292291520E+02  0.53548430909E+01  0.37264855324E+01  0.13041352949E+02  0.00000000000E+00 0.  1.
<mgrwt>
<rscale>  1 0.30000000E+03</rscale>
<asrwt>0</asrwt>
<pdfrwt beam="1">  1        1 0.13014778E+00 0.30000000E+03</pdfrwt>
<pdfrwt beam="2">0</pdfrwt>
<totfact> 0.22837440E+01</totfact>
</mgrwt>
</event>
<event>
 6    1  0.1904828E-004  0.3000000E+03  0.7818608E-02  0.1093470E+00
          1   -1    0    0  502    0  0.00000000000E+00  0.00000000000E+00  0.35784090005E+02  0.35784090005E+02  0.00000000000E+00 0.  1.
         13   -1    0    0    0    0 -0.00000000000E+00 -0.00000000000E+00 -0.10000000000E+04  0.10000000000E+04  0.00000000000E+00 0.  1.
    9000005    2    1    2  501    0 -0.27562879214E+02  0.39051994277E+02 -0.88320395512E+03  0.94172183722E+03  0.32327391138E+03 0.  0.
         13    1    3    3    0    0  0.14852332219E+02  0.17069861024E+03 -0.63359508301E+03  0.65635458140E+03  0.00000000000E+00 0.  1.
          3    1    3    3  501    0 -0.42415211433E+02 -0.13164661596E+03 -0.24960887211E+03  0.28536725581E+03  0.00000000000E+00 0.  1.
         21    1    1    2  502  501  0.27562879214E+02 -0.39051994277E+02 -0.81011954873E+02  0.94062252789E+02  0.00000000000E+00 0. -1.
<mgrwt>
<rscale>  1 0.30000000E+03</rscale>
<asrwt>0</asrwt>
<pdfrwt beam="1">  1        1 0.13012424E+00 0.30000000E+03</pdfrwt>
<pdfrwt beam="2">0</pdfrwt>
<totfact> 0.22844178E+01</totfact>
</mgrwt>
</event>
<event>
 6    1  0.1904828E-004  0.3000000E+03  0.7818608E-02  0.1093470E+00
          1   -1    0    0  502    0  0.00000000000E+00  0.00000000000E+00  0.54490598139E+02  0.54490598139E+02  0.00000000000E+00 0.  1.
         13   -1    0    0    0    0 -0.00000000000E+00 -0.00000000000E+00 -0.10000000000E+04  0.10000000000E+04  0.00000000000E+00 0.  1.
    9000005    2    1    2  501    0 -0.37309072080E+02  0.37961068322E+02 -0.94537264984E+03  0.10012643991E+04  0.32552717273E+03 0.  0.
         13    1    3    3    0    0  0.49240258915E+02 -0.12863428935E+03 -0.32163681736E+03  0.34988801891E+03  0.00000000000E+00 0.  1.
          1    1    3    3  501    0 -0.86549330995E+02  0.16659535768E+03 -0.62373583248E+03  0.65137638015E+03  0.00000000000E+00 0.  1.
         21    1    1    2  502  501  0.37309072080E+02 -0.37961068322E+02 -0.13675202226E+00  0.53226199082E+02  0.00000000000E+00 0.  1.
<mgrwt>
<rscale>  1 0.30000000E+03</rscale>
<asrwt>0</asrwt>
<pdfrwt beam="1">  1        1 0.19814805E+00 0.30000000E+03</pdfrwt>
<pdfrwt beam="2">0</pdfrwt>
<totfact> 0.10453291E+01</totfact>
</mgrwt>
</event>
<event>
 6    1  0.1904828E-004  0.3000000E+03  0.7818608E-02  0.1093470E+00
          1   -1    0    0  502    0  0.00000000000E+00  0.00000000000E+00  0.58575721669E+02  0.58575721669E+02  0.00000000000E+00 0.  1.
         13   -1    0    0    0    0 -0.00000000000E+00 -0.00000000000E+00 -0.10000000000E+04  0.10000000000E+04  0.00000000000E+00 0.  1.
    9000005    2    1    2  501    0  0.10970706866E+02 -0.29498565152E+00 -0.97299300563E+03  0.10251537533E+04  0.32265211217E+03 0.  0.
         13    1    3    3    0    0  0.11942173118E+03  0.48966151654E+02 -0.17037368649E+03  0.21374383485E+03  0.00000000000E+00 0.  1.
          3    1    3    3  501    0 -0.10845102431E+03 -0.49261137306E+02 -0.80261931914E+03  0.81140991846E+03  0.00000000000E+00 0.  1.
         21    1    1    2  502  501 -0.10970706866E+02  0.29498565152E+00  0.31568727301E+02  0.33421968360E+02  0.00000000000E+00 0.  1.
<mgrwt>
<rscale>  1 0.30000000E+03</rscale>
<asrwt>0</asrwt>
<pdfrwt beam="1">  1        1 0.21300307E+00 0.30000000E+03</pdfrwt>
<pdfrwt beam="2">0</pdfrwt>
<totfact> 0.88910833E+00</totfact>
</mgrwt>
</event>
<event>
 6    1  0.1904828E-004  0.3000000E+03  0.7818608E-02  0.1093470E+00
          1   -1    0    0  502    0  0.00000000000E+00  0.00000000000E+00  0.44573886608E+02  0.44573886608E+02  0.00000000000E+00 0.  1.
         13   -1    0    0    0    0 -0.00000000000E+00 -0.00000000000E+00 -0.10000000000E+04  0.10000000000E+04  0.00000000000E+00 0.  1.
    9000005    2    1    2  501    0 -0.30866100901E+02  0.47494268979E+02 -0.91940646520E+03  0.97744835624E+03  0.32693824969E+03 0.  0.
         13    1    3    3    0    0 -0.50806295393E+02 -0.13266460061E+03 -0.51585945326E+03  0.53506275466E+03  0.00000000000E+00 0.  1.
          1    1    3    3  501    0  0.19940194492E+02  0.18015886958E+03 -0.40354701193E+03  0.44238560158E+03  0.00000000000E+00 0.  1.
         21    1    1    2  502  501  0.30866100901E+02 -0.47494268979E+02 -0.36019648197E+02  0.67125530366E+02  0.00000000000E+00 0.  1.
<mgrwt>
<rscale>  1 0.30000000E+03</rscale>
<asrwt>0</asrwt>
<pdfrwt beam="1">  1        1 0.16208720E+00 0.30000000E+03</pdfrwt>
<pdfrwt beam="2">0</pdfrwt>
<totfact> 0.15626214E+01</totfact>
</mgrwt>
</event>
<event>
 6    1  0.1904828E-004  0.3000000E+03  0.7818608E-02  0.1093470E+00
          1   -1    0    0  502    0  0.00000000000E+00  0.00000000000E+00  0.35986275301E+02  0.35986275301E+02  0.00000000000E+00 0.  1.
         13   -1    0    0    0    0 -0.00000000000E+00 -0.00000000000E+00 -0.10000000000E+04  0.10000000000E+04  0.00000000000E+00 0.  1.
    9000005    2    1    2  501    0  0.25112497768E+02 -0.14530727643E+00 -0.89145356774E+03  0.95920323657E+03  0.35320068935E+03 0.  0.
         13    1    3    3    0    0 -0.17429269691E+02 -0.17012268898E+03 -0.54102555646E+03  0.56741004704E+03  0.00000000000E+00 0.  1.
          1    1    3    3  501    0  0.42541767459E+02  0.16997738170E+03 -0.35042801128E+03  0.39179318953E+03  0.00000000000E+00 0.  1.
         21    1    1    2  502  501 -0.25112497768E+02  0.14530727643E+00 -0.72560156960E+02  0.76783038729E+02  0.00000000000E+00 0. -1.
<mgrwt>
<rscale>  1 0.30000000E+03</rscale>
<asrwt>0</asrwt>
<pdfrwt beam="1">  1        1 0.13085946E+00 0.30000000E+03</pdfrwt>
<pdfrwt beam="2">0</pdfrwt>
<totfact> 0.22634963E+01</totfact>
</mgrwt>
</event>
<event>
 6    1  0.1904828E-004  0.3000000E+03  0.7818608E-02  0.1093470E+00
          1   -1    0    0  502    0  0.00000000000E+00  0.00000000000E+00  0.30053896430E+02  0.30053896430E+02  0.00000000000E+00 0.  1.
         13   -1    0    0    0    0 -0.00000000000E+00 -0.00000000000E+00 -0.10000000000E+04  0.10000000000E+04  0.00000000000E+00 0.  1.
    9000005    2    1    2  501    0  0.28541946248E+01  0.14171700659E+02 -0.96297509258E+03  0.10140046435E+04  0.31729387720E+03 0.  0.
         13    1    3    3    0    0  0.49725492641E+02  0.26163053191E+02 -0.67908782216E+01  0.56597226060E+02  0.00000000000E+00 0.  1.
          1    1    3    3  501    0 -0.46871298016E+02 -0.11991352532E+02 -0.95618421436E+03  0.95740741740E+03  0.00000000000E+00 0.  1.
         21    1    1    2  502  501 -0.28541946248E+01 -0.14171700659E+02 -0.69710109904E+01  0.16049252966E+02  0.00000000000E+00 0.  1.
<mgrwt>
<rscale>  1 0.30000000E+03</rscale>
<asrwt>0</asrwt>
<pdfrwt beam="1">  1        1 0.10928713E+00 0.30000000E+03</pdfrwt>
<pdfrwt beam="2">0</pdfrwt>
<totfact> 0.30002344E+01</totfact>
</mgrwt>
</event>
<event>
 6    1  0.1904828E-004  0.3000000E+03  0.7818608E-02  0.1093470E+00
          1   -1    0    0  502    0  0.00000000000E+00  0.00000000000E+00  0.33631653227E+02  0.33631653227E+02  0.00000000000E+00 0.  1.
         13   -1    0    0    0    0 -0.00000000000E+00 -0.00000000000E+00 -0.10000000000E+04  0.10000000000E+04  0.00000000000E+00 0.  1.
    9000005    2    1    2  501    0 -0.15681955408E+02  0.20778717726E+02 -0.95061760394E+03  0.10032052710E+04  0.31948287591E+03 0.  0.
         13    1    3    3    0    0 -0.41721899382E+02  0.10313740525E+03 -0.89177844830E+03  0.89869173920E+03  0.00000000000E+00 0.  1.
          3    1    3    3  501    0  0.26039943974E+02 -0.82358687524E+02 -0.58839155641E+02  0.10451353180E+03  0.00000000000E+00 0.  1.
         21    1    1    2  502  501  0.15681955408E+02 -0.20778717726E+02 -0.15750742832E+02  0.30426382229E+02  0.00000000000E+00 0.  1.
<mgrwt>
<rscale>  1 0.30000000E+03</rscale>
<asrwt>0</asrwt>
<pdfrwt beam="1">  1        1 0.12229718E+00 0.30000000E+03</pdfrwt>
<pdfrwt beam="2">0</pdfrwt>
<totfact> 0.25233764E+01</totfact>
</mgrwt>
</event>
<event>
 6    1  0.1904828E-004  0.3000000E+03  0.7818608E-02  0.1093470E+00
          1   -1    0    0  502    0  0.00000000000E+00  0.00000000000E+00  0.32109348207E+02  0.32109348207E+02  0.00000000000E+00 0.  1.
         13   -1    0    0    0    0 -0.00000000000E+00 -0.00000000000E+00 -0.10000000000E+04  0.10000000000E+04  0.00000000000E+00 0.  1.
    9000005    2    1    2  501    0  0.27542711879E+02 -0.29975342605E+02 -0.89461087027E+03  0.94828185557E+03  0.31185372573E+03 0.  0.
         13    1    3    3    0    0 -0.13301562517E+03  0.13446944060E+02 -0.54447186554E+03  0.56064568955E+03  0.00000000000E+00 0.  1.
          3    1    3    3  501    0  0.16055833705E+03 -0.43422286665E+02 -0.35013900473E+03  0.38763616602E+03  0.00000000000E+00 0.  1.
         21    1    1    2  502  501 -0.27542711879E+02  0.29975342605E+02 -0.73279781521E+02  0.83827492637E+02  0.00000000000E+00 0. -1.
<mgrwt>
<rscale>  1 0.30000000E+03</rscale>
<asrwt>0</asrwt>
<pdfrwt beam="1">  1        1 0.11676151E+00 0.30000000E+03</pdfrwt>
<pdfrwt beam="2">0</pdfrwt>
<totfact> 0.27124128E+01</totfact>
</mgrwt>
</event>
<event>
 6    1  0.1904828E-004  0.3000000E+03  0.7818608E-02  0.1093470E+00
          1   -1    0    0  502    0  0.00000000000E+00  0.00000000000E+00  0.36445321553E+02  0.36445321553E+02  0.00000000000E+00 0.  1.
         13   -1    0    0    0    0 -0.00000000000E+00 -0.00000000000E+00 -0.10000000000E+04  0.10000000000E+04  0.00000000000E+00 0.  1.
    9000005    2    1    2  501    0 -0.24131293480E+02 -0.21235943567E+02 -0.94761599114E+03  0.10005659908E+04  0.31956681712E+03 0.  0.
         13    1    3    3    0    0  0.13919413079E+03 -0.51242644520E+02 -0.34600526442E+03  0.37645777674E+03  0.00000000000E+00 0.  1.
          1    1    3    3  501    0 -0.16332542427E+03  0.30006700953E+02 -0.60161072672E+03  0.62410821403E+03  0.00000000000E+00 0.  1.
         21    1    1    2  502  501  0.24131293480E+02  0.21235943567E+02 -0.15938687311E+02  0.35879330782E+02  0.00000000000E+00 0.  1.
<mgrwt>
<rscale>  1 0.30000000E+03</rscale>
<asrwt>0</asrwt>
<pdfrwt beam="1">  1        1 0.13252872E+00 0.30000000E+03</pdfrwt>
<pdfrwt beam="2">0</pdfrwt>
<totfact> 0.22169174E+01</totfact>
</mgrwt>
</event>
<event>
 6    1  0.1904828E-004  0.3000000E+03  0.7818608E-02  0.1093470E+00
          1   -1    0    0  502    0  0.00000000000E+00  0.00000000000E+00  0.52749646769E+02  0.52749646769E+02  0.00000000000E+00 0.  1.
         13   -1    0    0    0    0 -0.00000000000E+00 -0.00000000000E+00 -0.10000000000E+04  0.10000000000E+04  0.00000000000E+00 0.  1.
    9000005    2    1    2  501    0 -0.99575927883E+01 -0.56163251217E+01 -0.97243363259E+03  0.10250929239E+04  0.32412595706E+03 0.  0.
         13    1    3    3    0    0  0.41237659083E+02  0.70465944638E+02 -0.45173743946E+02  0.93309490527E+02  0.00000000000E+00 0.  1.
          1    1    3    3  501    0 -0.51195251872E+02 -0.76082269759E+02 -0.92725988864E+03  0.93178343335E+03  0.00000000000E+00 0.  1.
         21    1    1    2  502  501  0.99575927883E+01  0.56163251217E+01  0.25183279355E+02  0.27656722891E+02  0.00000000000E+00 0.  1.
<mgrwt>
<rscale>  1 0.30000000E+03</rscale>
<asrwt>0</asrwt>
<pdfrwt beam="1">  1        1 0.19181730E+00 0.30000000E+03</pdfrwt>
<pdfrwt beam="2">0</pdfrwt>
<totfact> 0.11206820E+01</totfact>
</mgrwt>
</event>
<event>
 6    1  0.1904828E-004  0.3000000E+03  0.7818608E-02  0.1093470E+00
          1   -1    0    0  502    0  0.00000000000E+00  0.00000000000E+00  0.28713771207E+02  0.28713771207E+02  0.00000000000E+00 0.  1.
         13   -1    0    0    0    0 -0.00000000000E+00 -0.00000000000E+00 -0.10000000000E+04  0.10000000000E+04  0.00000000000E+00 0.  1.
    9000005    2    1    2  501    0  0.14485489364E+02 -0.45942787630E+00 -0.96146046464E+03  0.10112041705E+04  0.31291789478E+03 0.  0.
         13    1    3    3    0    0 -0.94430160604E+02  0.10539120789E+03 -0.28872621725E+03  0.32153878531E+03  0.00000000000E+00 0.  1.
          3    1    3    3  501    0  0.10891564997E+03 -0.10585063576E+03 -0.67273424740E+03  0.68966538518E+03  0.00000000000E+00 0.  1.
         21    1    1    2  502  501 -0.14485489364E+02  0.45942787630E+00 -0.98257641491E+01  0.17509600715E+02  0.00000000000E+00 0.  1.
<mgrwt>
<rscale>  1 0.30000000E+03</rscale>
<asrwt>0</asrwt>
<pdfrwt beam="1">  1        1 0.10441393E+00 0.30000000E+03</pdfrwt>
<pdfrwt beam="2">0</pdfrwt>
<totfact> 0.32118375E+01</totfact>
</mgrwt>
</event>
<event>
 6    1  0.1904828E-004  0.3000000E+03  0.7818608E-02  0.1093470E+00
          1   -1    0    0  502    0  0.00000000000E+00  0.00000000000E+00  0.31811982981E+02  0.31811982981E+02  0.00000000000E+00 0.  1.
         13   -1    0    0    0    0 -0.00000000000E+00 -0.00000000000E+00 -0.10000000000E+04  0.10000000000E+04  0.00000000000E+00 0.  1.
    9000005    2    1    2  501    0 -0.10764618610E+02  0.19427877391E+02 -0.94918802667E+03  0.10025832460E+04  0.32205890098E+03 0.  0.
         13    1    3    3    0    0  0.72532696095E+02 -0.12165924611E+03 -0.28200030875E+03  0.31557271476E+03  0.00000000000E+00 0.  1.
          3    1    3    3  501    0 -0.83297314705E+02  0.14108712350E+03 -0.66718771792E+03  0.68701053121E+03  0.00000000000E+00 0.  1.
         21    1    1    2  502  501  0.10764618610E+02 -0.19427877391E+02 -0.18999990349E+02  0.29228737007E+02  0.00000000000E+00 0.  1.
<mgrwt>
<rscale>  1 0.30000000E+03</rscale>
<asrwt>0</asrwt>
<pdfrwt beam="1">  1        1 0.11568018E+00 0.30000000E+03</pdfrwt>
<pdfrwt beam="2">0</pdfrwt>
<totfact> 0.27515747E+01</totfact>
</mgrwt>
</event>
<event>
 6    1  0.1904828E-004  0.3000000E+03  0.7818608E-02  0.1093470E+00
          1   -1    0    0  502    0  0.00000000000E+00  0.00000000000E+00  0.28241078225E+02  0.28241078225E+02  0.00000000000E+00 0.  1.
         13   -1    0    0    0    0 -0.00000000000E+00 -0.00000000000E+00 -0.10000000000E+04  0.10000000000E+04  0.00000000000E+00 0.  1.
    9000005    2    1    2  501    0  0.10115770061E+02  0.28473547374E+01 -0.94964481324E+03  0.10037570012E+04  0.32494985744E+03 0.  0.
         13    1    3    3    0    0 -0.31702864607E+02  0.25276997039E+02  0.10943610383E+02  0.41997152425E+02  0.00000000000E+00 0.  1.
          3    1    3    3  501    0  0.41818634668E+02 -0.22429642302E+02 -0.96058842363E+03  0.96175984875E+03  0.00000000000E+00 0.  1.
         21    1    1    2  502  501 -0.10115770061E+02 -0.28473547374E+01 -0.22114108532E+02  0.24484077052E+02  0.00000000000E+00 0.  1.
<mgrwt>
<rscale>  1 0.30000000E+03</rscale>
<asrwt>0</asrwt>
<pdfrwt beam="1">  1        1 0.10269505E+00 0.30000000E+03</pdfrwt>
<pdfrwt beam="2">0</pdfrwt>
<totfact> 0.32916318E+01</totfact>
</mgrwt>
</event>
<event>
 6    1  0.1904828E-004  0.3000000E+03  0.7818608E-02  0.1093470E+00
          1   -1    0    0  502    0  0.00000000000E+00  0.00000000000E+00  0.57563493438E+02  0.57563493438E+02  0.00000000000E+00 0.  1.
         13   -1    0    0    0    0 -0.00000000000E+00 -0.00000000000E+00 -0.10000000000E+04  0.10000000000E+04  0.00000000000E+00 0.  1.
    9000005    2    1    2  501    0 -0.13057872810E+02  0.10056116177E+01 -0.97044415483E+03  0.10266450902E+04  0.33476374401E+03 0.  0.
         13    1    3    3    0    0 -0.15254067396E+03  0.74339121800E+02 -0.61200355575E+03  0.63509315419E+03  0.00000000000E+00 0.  1.
          1    1    3    3  501    0  0.13948280115E+03 -0.73333510182E+02 -0.35844059908E+03  0.39155193602E+03  0.00000000000E+00 0.  1.
         21    1    1    2  502  501  0.13057872810E+02 -0.10056116177E+01  0.28007648267E+02  0.30918403234E+02  0.00000000000E+00 0.  1.
<mgrwt>
<rscale>  1 0.30000000E+03</rscale>
<asrwt>0</asrwt>
<pdfrwt beam="1">  1        1 0.20932224E+00 0.30000000E+03</pdfrwt>
<pdfrwt beam="2">0</pdfrwt>
<totfact> 0.92531352E+00</totfact>
</mgrwt>
</event>
<event>
 6    1  0.1904828E-004  0.3000000E+03  0.7818608E-02  0.1093470E+00
          1   -1    0    0  502    0  0.00000000000E+00  0.00000000000E+00  0.52932250538E+02  0.52932250538E+02  0.00000000000E+00 0.  1.
         13   -1    0    0    0    0 -0.00000000000E+00 -0.00000000000E+00 -0.10000000000E+04  0.10000000000E+04  0.00000000000E+00 0.  1.
    9000005    2    1    2  501    0 -0.30488597198E+02  0.72118800733E+02 -0.89668141720E+03  0.95982232380E+03  0.33330264525E+03 0.  0.
         13    1    3    3    0    0 -0.90787420378E+02  0.16789215700E+03 -0.75358412071E+03  0.77737967498E+03  0.00000000000E+00 0.  1.
          3    1    3    3  501    0  0.60298823180E+02 -0.95773356262E+02 -0.14309729649E+03  0.18244264882E+03  0.00000000000E+00 0.  1.
         21    1    1    2  502  501  0.30488597198E+02 -0.72118800733E+02 -0.50386332259E+02  0.93109926736E+02  0.00000000000E+00 0.  1.
<mgrwt>
<rscale>  1 0.30000000E+03</rscale>
<asrwt>0</asrwt>
<pdfrwt beam="1">  1        1 0.19248132E+00 0.30000000E+03</pdfrwt>
<pdfrwt beam="2">0</pdfrwt>
<totfact> 0.11125034E+01</totfact>
</mgrwt>
</event>
<event>
 6    1  0.1904828E-004  0.3000000E+03  0.7818608E-02  0.1093470E+00
          1   -1    0    0  502    0  0.00000000000E+00  0.00000000000E+00  0.55043434581E+02  0.55043434581E+02  0.00000000000E+00 0.  1.
         13   -1    0    0    0    0 -0.00000000000E+00 -0.00000000000E+00 -0.10000000000E+04  0.10000000000E+04  0.00000000000E+00 0.  1.
    9000005    2    1    2  501    0 -0.23817906940E+02  0.22644516823E+02 -0.96420741964E+03  0.10169558746E+04  0.32159483213E+03 0.  0.
         13    1    3    3    0    0  0.99684424755E+02  0.11552735721E+03 -0.63804952074E+03  0.65604172559E+03  0.00000000000E+00 0.  1.
          1    1    3    3  501    0 -0.12350233169E+03 -0.92882840382E+02 -0.32615789891E+03  0.36091414906E+03  0.00000000000E+00 0.  1.
         21    1    1    2  502  501  0.23817906940E+02 -0.22644516823E+02  0.19250854226E+02  0.38087559932E+02  0.00000000000E+00 0.  1.
<mgrwt>
<rscale>  1 0.30000000E+03</rscale>
<asrwt>0</asrwt>
<pdfrwt beam="1">  1        1 0.20015837E+00 0.30000000E+03</pdfrwt>
<pdfrwt beam="2">0</pdfrwt>
<totfact> 0.10225676E+01</totfact>
</mgrwt>
</event>
<event>
 6    1  0.1904828E-004  0.3000000E+03  0.7818608E-02  0.1093470E+00
          1   -1    0    0  502    0  0.00000000000E+00  0.00000000000E+00  0.28710533376E+02  0.28710533376E+02  0.00000000000E+00 0.  1.
         13   -1    0    0    0    0 -0.00000000000E+00 -0.00000000000E+00 -0.10000000000E+04  0.10000000000E+04  0.00000000000E+00 0.  1.
    9000005    2    1    2  501    0 -0.91917186502E+01 -0.70758568024E+00 -0.96168805334E+03  0.10153998044E+04  0.32574201823E+03 0.  0.
         13    1    3    3    0    0 -0.91583515551E+02  0.12669938837E+03 -0.32173401848E+03  0.35770526133E+03  0.00000000000E+00 0.  1.
          1    1    3    3  501    0  0.82391796900E+02 -0.12740697405E+03 -0.63995403486E+03  0.65769454306E+03  0.00000000000E+00 0.  1.
         21    1    1    2  502  501  0.91917186502E+01  0.70758568024E+00 -0.96014132839E+01  0.13310728992E+02  0.00000000000E+00 0.  1.
<mgrwt>
<rscale>  1 0.30000000E+03</rscale>
<asrwt>0</asrwt>
<pdfrwt beam="1">  1        1 0.10440216E+00 0.30000000E+03</pdfrwt>
<pdfrwt beam="2">0</pdfrwt>
<totfact> 0.32123744E+01</totfact>
</mgrwt>
</event>
<event>
 6    1  0.1904828E-004  0.3000000E+03  0.7818608E-02  0.1093470E+00
          1   -1    0    0  502    0  0.00000000000E+00  0.00000000000E+00  0.31655260621E+02  0.31655260621E+02  0.00000000000E+00 0.  1.
         13   -1    0    0    0    0 -0.00000000000E+00 -0.00000000000E+00 -0.10000000000E+04  0.10000000000E+04  0.00000000000E+00 0.  1.
    9000005    2    1    2  501    0 -0.22842467288E+00  0.19589202427E+02 -0.92188142201E+03  0.98123077361E+03  0.33550661067E+03 0.  0.
         13    1    3    3    0    0 -0.12761340034E+03 -0.84039119937E+02 -0.60897954984E+03  0.62785654871E+03  0.00000000000E+00 0.  1.
          1    1    3    3  501    0  0.12738497566E+03  0.10362832236E+03 -0.31290187216E+03  0.35337422490E+03  0.00000000000E+00 0.  1.
         21    1    1    2  502  501  0.22842467288E+00 -0.19589202427E+02 -0.46463317370E+02  0.50424487013E+02  0.00000000000E+00 0. -1.
<mgrwt>
<rscale>  1 0.30000000E+03</rscale>
<asrwt>0</asrwt>
<pdfrwt beam="1">  1        1 0.11511028E+00 0.30000000E+03</pdfrwt>
<pdfrwt beam="2">0</pdfrwt>
<totfact> 0.27725317E+01</totfact>
</mgrwt>
</event>
<event>
 6    1  0.1904828E-004  0.3000000E+03  0.7818608E-02  0.1093470E+00
          1   -1    0    0  502    0  0.00000000000E+00  0.00000000000E+00  0.51230514101E+02  0.51230514101E+02  0.00000000000E+00 0.  1.
         13   -1    0    0    0    0 -0.00000000000E+00 -0.00000000000E+00 -0.10000000000E+04  0.10000000000E+04  0.00000000000E+00 0.  1.
    9000005    2    1    2  501    0 -0.64346733424E+01  0.82099914714E+01 -0.96082278748E+03  0.10352902801E+04  0.38540462651E+03 0.  0.
         13    1    3    3    0    0  0.12599489817E+03  0.71335665432E+02 -0.81740483362E+03  0.83012899814E+03  0.00000000000E+00 0.  1.
          3    1    3    3  501    0 -0.13242957152E+03 -0.63125673961E+02 -0.14341795387E+03  0.20516128196E+03  0.00000000000E+00 0.  1.
         21    1    1    2  502  501  0.64346733424E+01 -0.82099914714E+01  0.12053301584E+02  0.15940234003E+02  0.00000000000E+00 0.  1.
<mgrwt>
<rscale>  1 0.30000000E+03</rscale>
<asrwt>0</asrwt>
<pdfrwt beam="1">  1        1 0.18629317E+00 0.30000000E+03</pdfrwt>
<pdfrwt beam="2">0</pdfrwt>
<totfact> 0.11912584E+01</totfact>
</mgrwt>
</event>
<event>
 6    1  0.1904828E-004  0.3000000E+03  0.7818608E-02  0.1093470E+00
          1   -1    0    0  502    0  0.00000000000E+00  0.00000000000E+00  0.44431081846E+02  0.44431081846E+02  0.00000000000E+00 0.  1.
         13   -1    0    0    0    0 -0.00000000000E+00 -0.00000000000E+00 -0.10000000000E+04  0.10000000000E+04  0.00000000000E+00 0.  1.
    9000005    2    1    2  501    0 -0.23728022630E+02  0.19813859691E+02 -0.96683539476E+03  0.10115290821E+04  0.29574447627E+03 0.  0.
         13    1    3    3    0    0  0.54077008915E+02 -0.10765165734E+03 -0.22923406726E+03  0.25896227488E+03  0.00000000000E+00 0.  1.
          1    1    3    3  501    0 -0.77805031545E+02  0.12746551703E+03 -0.73760132750E+03  0.75256680720E+03  0.00000000000E+00 0.  1.
         21    1    1    2  502  501  0.23728022630E+02 -0.19813859691E+02  0.11266476601E+02  0.32901999768E+02  0.00000000000E+00 0. -1.
<mgrwt>
<rscale>  1 0.30000000E+03</rscale>
<asrwt>0</asrwt>
<pdfrwt beam="1">  1        1 0.16156791E+00 0.30000000E+03</pdfrwt>
<pdfrwt beam="2">0</pdfrwt>
<totfact> 0.15719000E+01</totfact>
</mgrwt>
</event>
<event>
 6    1  0.1904828E-004  0.3000000E+03  0.7818608E-02  0.1093470E+00
          1   -1    0    0  502    0  0.00000000000E+00  0.00000000000E+00  0.41733571927E+02  0.41733571927E+02  0.00000000000E+00 0.  1.
         13   -1    0    0    0    0 -0.00000000000E+00 -0.00000000000E+00 -0.10000000000E+04  0.10000000000E+04  0.00000000000E+00 0.  1.
    9000005    2    1    2  501    0  0.19467200363E+02 -0.12485531319E+02 -0.95973783051E+03  0.10185597633E+04  0.34034163377E+03 0.  0.
         13    1    3    3    0    0  0.12970323443E+03  0.84003136667E+02 -0.72933407476E+03  0.74552508247E+03  0.00000000000E+00 0.  1.
          1    1    3    3  501    0 -0.11023603407E+03 -0.96488667986E+02 -0.23040375575E+03  0.27303468080E+03  0.00000000000E+00 0.  1.
         21    1    1    2  502  501 -0.19467200363E+02  0.12485531319E+02  0.14714024358E+01  0.23173808651E+02  0.00000000000E+00 0. -1.
<mgrwt>
<rscale>  1 0.30000000E+03</rscale>
<asrwt>0</asrwt>
<pdfrwt beam="1">  1        1 0.15175876E+00 0.30000000E+03</pdfrwt>
<pdfrwt beam="2">0</pdfrwt>
<totfact> 0.17599670E+01</totfact>
</mgrwt>
</event>
<event>
 6    1  0.1904828E-004  0.3000000E+03  0.7818608E-02  0.1093470E+00
          1   -1    0    0  502    0  0.00000000000E+00  0.00000000000E+00  0.82593688090E+02  0.82593688090E+02  0.00000000000E+00 0.  1.
         13   -1    0    0    0    0 -0.00000000000E+00 -0.00000000000E+00 -0.10000000000E+04  0.10000000000E+04  0.00000000000E+00 0.  1.
    9000005    2    1    2  501    0 -0.67955045040E+02  0.49538629262E+02 -0.93024285261E+03  0.99752465311E+03  0.35018809916E+03 0.  0.
         13    1    3    3    0    0 -0.33234443745E+01  0.13946722400E+03 -0.84846701478E+03  0.85985953912E+03  0.00000000000E+00 0.  1.
          3    1    3    3  501    0 -0.64631600665E+02 -0.89928594736E+02 -0.81775837831E+02  0.13766511399E+03  0.00000000000E+00 0.  1.
         21    1    1    2  502  501  0.67955045040E+02 -0.49538629262E+02  0.12836540701E+02  0.85069034981E+02  0.00000000000E+00 0. -1.
<mgrwt>
<rscale>  1 0.30000000E+03</rscale>
<asrwt>0</asrwt>
<pdfrwt beam="1">  1        1 0.30034132E+00 0.30000000E+03</pdfrwt>
<pdfrwt beam="2">0</pdfrwt>
<totfact> 0.34614628E+00</totfact>
</mgrwt>
</event>
<event>
 6    1  0.1904828E-004  0.3000000E+03  0.7818608E-02  0.1093470E+00
          1   -1    0    0  502    0  0.00000000000E+00  0.00000000000E+00  0.35890566836E+02  0.35890566836E+02  0.00000000000E+00 0.  1.
         13   -1    0    0    0    0 -0.00000000000E+00 -0.00000000000E+00 -0.10000000000E+04  0.10000000000E+04  0.00000000000E+00 0.  1.
    9000005    2    1    2  501    0 -0.27010984267E+02 -0.89370785019E+01 -0.95114102519E+03  0.10046232636E+04  0.32216329310E+03 0.  0.
         13    1    3    3    0    0 -0.30647334714E+02 -0.15190177186E+03 -0.68691980637E+03  0.70418195646E+03  0.00000000000E+00 0.  1.
          1    1    3    3  501    0  0.36363504465E+01  0.14296469336E+03 -0.26422121882E+03  0.30044130719E+03  0.00000000000E+00 0.  1.
         21    1    1    2  502  501  0.27010984267E+02  0.89370785019E+01 -0.12968407975E+02  0.31267303188E+02  0.00000000000E+00 0.  1.
<mgrwt>
<rscale>  1 0.30000000E+03</rscale>
<asrwt>0</asrwt>
<pdfrwt beam="1">  1        1 0.13051143E+00 0.30000000E+03</pdfrwt>
<pdfrwt beam="2">0</pdfrwt>
<totfact> 0.22733686E+01</totfact>
</mgrwt>
</event>
<event>
 6    1  0.1904828E-004  0.3000000E+03  0.7818608E-02  0.1093470E+00
          3   -1    0    0  502    0  0.00000000000E+00  0.00000000000E+00  0.30682024467E+02  0.30682024467E+02  0.00000000000E+00 0.  1.
         13   -1    0    0    0    0 -0.00000000000E+00 -0.00000000000E+00 -0.10000000000E+04  0.10000000000E+04  0.00000000000E+00 0.  1.
    9000005    2    1    2  501    0  0.77811228588E+01  0.98127967199E+01 -0.96308511312E+03  0.10166932638E+04  0.32553866222E+03 0.  0.
         13    1    3    3    0    0 -0.15594395513E+03 -0.10123476310E+01 -0.56478461290E+03  0.58591910786E+03  0.00000000000E+00 0.  1.
          3    1    3    3  501    0  0.16372507798E+03  0.10825144351E+02 -0.39830050022E+03  0.43077415589E+03  0.00000000000E+00 0.  1.
         21    1    1    2  502  501 -0.77811228588E+01 -0.98127967199E+01 -0.62328624157E+01  0.13988760714E+02  0.00000000000E+00 0.  1.
<mgrwt>
<rscale>  1 0.30000000E+03</rscale>
<asrwt>0</asrwt>
<pdfrwt beam="1">  1        3 0.11157123E+00 0.30000000E+03</pdfrwt>
<pdfrwt beam="2">0</pdfrwt>
<totfact> 0.28918129E+00</totfact>
</mgrwt>
</event>
<event>
 6    1  0.1904828E-004  0.3000000E+03  0.7818608E-02  0.1093470E+00
          1   -1    0    0  502    0  0.00000000000E+00  0.00000000000E+00  0.38193271806E+02  0.38193271806E+02  0.00000000000E+00 0.  1.
         13   -1    0    0    0    0 -0.00000000000E+00 -0.00000000000E+00 -0.10000000000E+04  0.10000000000E+04  0.00000000000E+00 0.  1.
    9000005    2    1    2  501    0 -0.15035763626E+02  0.31633114459E+01 -0.97000783761E+03  0.10207766440E+04  0.31754318014E+03 0.  0.
         13    1    3    3    0    0 -0.11294881200E+03 -0.95210611972E+02 -0.27621573057E+03  0.31323732948E+03  0.00000000000E+00 0.  1.
          3    1    3    3  501    0  0.97913048376E+02  0.98373923418E+02 -0.69379210704E+03  0.70753931456E+03  0.00000000000E+00 0.  1.
         21    1    1    2  502  501  0.15035763626E+02 -0.31633114459E+01  0.82011094195E+01  0.17416627769E+02  0.00000000000E+00 0.  1.
<mgrwt>
<rscale>  1 0.30000000E+03</rscale>
<asrwt>0</asrwt>
<pdfrwt beam="1">  1        1 0.13888492E+00 0.30000000E+03</pdfrwt>
<pdfrwt beam="2">0</pdfrwt>
<totfact> 0.20506983E+01</totfact>
</mgrwt>
</event>
<event>
 6    1  0.1904828E-004  0.3000000E+03  0.7818608E-02  0.1093470E+00
          1   -1    0    0  502    0  0.00000000000E+00  0.00000000000E+00  0.26706672652E+02  0.26706672652E+02  0.00000000000E+00 0.  1.
         13   -1    0    0    0    0 -0.00000000000E+00 -0.00000000000E+00 -0.10000000000E+04  0.10000000000E+04  0.00000000000E+00 0.  1.
    9000005    2    1    2  501    0 -0.47695854461E+01  0.74931051574E+01 -0.94646373527E+03  0.99844499221E+03  0.31783628604E+03 0.  0.
         13    1    3    3    0    0  0.12248480912E+03 -0.94437624163E+02 -0.44091941304E+03  0.46725894547E+03  0.00000000000E+00 0.  1.
          3    1    3    3  501    0 -0.12725439457E+03  0.10193072932E+03 -0.50554432223E+03  0.53118604674E+03  0.00000000000E+00 0.  1.
         21    1    1    2  502  501  0.47695854461E+01 -0.74931051574E+01 -0.26829592075E+02  0.28261680437E+02  0.00000000000E+00 0. -1.
<mgrwt>
<rscale>  1 0.30000000E+03</rscale>
<asrwt>0</asrwt>
<pdfrwt beam="1">  1        1 0.97115378E-01 0.30000000E+03</pdfrwt>
<pdfrwt beam="2">0</pdfrwt>
<totfact> 0.35716706E+01</totfact>
</mgrwt>
</event>
<event>
 6    1  0.1904828E-004  0.3000000E+03  0.7818608E-02  0.1093470E+00
          1   -1    0    0  502    0  0.00000000000E+00  0.00000000000E+00  0.38231067511E+02  0.38231067511E+02  0.00000000000E+00 0.  1.
         13   -1    0    0    0    0 -0.00000000000E+00 -0.00000000000E+00 -0.10000000000E+04  0.10000000000E+04  0.00000000000E+00 0.  1.
    9000005    2    1    2  501    0 -0.83609031776E+01  0.28680506439E+02 -0.94193578925E+03  0.10023725996E+04  0.34148985515E+03 0.  0.
         13    1    3    3    0    0  0.16144605812E+02  0.40814147863E+02 -0.96536559840E+03  0.96636286225E+03  0.00000000000E+00 0.  1.
          1    1    3    3  501    0 -0.24505508990E+02 -0.12133641424E+02  0.23429809158E+02  0.36009737325E+02  0.00000000000E+00 0.  1.
         21    1    1    2  502  501  0.83609031776E+01 -0.28680506439E+02 -0.19833143243E+02  0.35858467932E+02  0.00000000000E+00 0.  1.
<mgrwt>
<rscale>  1 0.30000000E+03</rscale>
<asrwt>0</asrwt>
<pdfrwt beam="1">  1        1 0.13902236E+00 0.30000000E+03</pdfrwt>
<pdfrwt beam="2">0</pdfrwt>
<totfact> 0.20472863E+01</totfact>
</mgrwt>
</event>
<event>
 6    1  0.1904828E-004  0.3000000E+03  0.7818608E-02  0.1093470E+00
          1   -1    0    0  502    0  0.00000000000E+00  0.00000000000E+00  0.28333794621E+02  0.28333794621E+02  0.00000000000E+00 0.  1.
         13   -1    0    0    0    0 -0.00000000000E+00 -0.00000000000E+00 -0.10000000000E+04  0.10000000000E+04  0.00000000000E+00 0.  1.
    9000005    2    1    2  501    0  0.14355561375E+02 -0.22235477206E+02 -0.91237658463E+03  0.96340492802E+03  0.30824912745E+03 0.  0.
         13    1    3    3    0    0  0.28358841180E+02 -0.16298118180E+03 -0.55235660900E+03  0.57659770465E+03  0.00000000000E+00 0.  1.
          1    1    3    3  501    0 -0.14003279804E+02  0.14074570459E+03 -0.36001997562E+03  0.38680722337E+03  0.00000000000E+00 0.  1.
         21    1    1    2  502  501 -0.14355561375E+02  0.22235477206E+02 -0.59289620753E+02  0.64928866601E+02  0.00000000000E+00 0.  1.
<mgrwt>
<rscale>  1 0.30000000E+03</rscale>
<asrwt>0</asrwt>
<pdfrwt beam="1">  1        1 0.10303220E+00 0.30000000E+03</pdfrwt>
<pdfrwt beam="2">0</pdfrwt>
<totfact> 0.32757547E+01</totfact>
</mgrwt>
</event>
<event>
 6    1  0.1904828E-004  0.3000000E+03  0.7818608E-02  0.1093470E+00
          1   -1    0    0  502    0  0.00000000000E+00  0.00000000000E+00  0.38560212930E+02  0.38560212930E+02  0.00000000000E+00 0.  1.
         13   -1    0    0    0    0 -0.00000000000E+00 -0.00000000000E+00 -0.10000000000E+04  0.10000000000E+04  0.00000000000E+00 0.  1.
    9000005    2    1    2  501    0  0.11561789270E+02  0.69634847625E+01 -0.97001356290E+03  0.10225703811E+04  0.32332910003E+03 0.  0.
         13    1    3    3    0    0 -0.48540340113E+02  0.15518089410E+03 -0.53062559741E+03  0.55497819700E+03  0.00000000000E+00 0.  1.
          3    1    3    3  501    0  0.60102129383E+02 -0.14821740933E+03 -0.43938796549E+03  0.46759218407E+03  0.00000000000E+00 0.  1.
         21    1    1    2  502  501 -0.11561789270E+02 -0.69634847625E+01  0.85737758297E+01  0.15989831867E+02  0.00000000000E+00 0.  1.
<mgrwt>
<rscale>  1 0.30000000E+03</rscale>
<asrwt>0</asrwt>
<pdfrwt beam="1">  1        1 0.14021925E+00 0.30000000E+03</pdfrwt>
<pdfrwt beam="2">0</pdfrwt>
<totfact> 0.20178763E+01</totfact>
</mgrwt>
</event>
<event>
 6    1  0.1904828E-004  0.3000000E+03  0.7818608E-02  0.1093470E+00
          1   -1    0    0  502    0  0.00000000000E+00  0.00000000000E+00  0.36742618148E+02  0.36742618148E+02  0.00000000000E+00 0.  1.
         13   -1    0    0    0    0 -0.00000000000E+00 -0.00000000000E+00 -0.10000000000E+04  0.10000000000E+04  0.00000000000E+00 0.  1.
    9000005    2    1    2  501    0  0.15181556745E+02  0.58273111325E+01 -0.96640827243E+03  0.10201786412E+04  0.32642774660E+03 0.  0.
         13    1    3    3    0    0 -0.13821069824E+03  0.51124283744E+01 -0.69312008887E+03  0.70678411954E+03  0.00000000000E+00 0.  1.
          1    1    3    3  501    0  0.15339225498E+03  0.71488275805E+00 -0.27328818356E+03  0.31339452168E+03  0.00000000000E+00 0.  1.
         21    1    1    2  502  501 -0.15181556745E+02 -0.58273111325E+01  0.31508905827E+01  0.16563976929E+02  0.00000000000E+00 0. -1.
<mgrwt>
<rscale>  1 0.30000000E+03</rscale>
<asrwt>0</asrwt>
<pdfrwt beam="1">  1        1 0.13360980E+00 0.30000000E+03</pdfrwt>
<pdfrwt beam="2">0</pdfrwt>
<totfact> 0.21874218E+01</totfact>
</mgrwt>
</event>
<event>
 6    1  0.1904828E-004  0.3000000E+03  0.7818608E-02  0.1093470E+00
          1   -1    0    0  502    0  0.00000000000E+00  0.00000000000E+00  0.31588885115E+02  0.31588885115E+02  0.00000000000E+00 0.  1.
         13   -1    0    0    0    0 -0.00000000000E+00 -0.00000000000E+00 -0.10000000000E+04  0.10000000000E+04  0.00000000000E+00 0.  1.
    9000005    2    1    2  501    0  0.32432381344E+02  0.19527937524E+02 -0.93125912960E+03  0.97854673476E+03  0.29812236740E+03 0.  0.
         13    1    3    3    0    0  0.45645498344E+02  0.63182297454E+02 -0.42810938537E+02  0.88928570713E+02  0.00000000000E+00 0.  1.
          3    1    3    3  501    0 -0.13213117000E+02 -0.43654359931E+02 -0.88844819106E+03  0.88961816405E+03  0.00000000000E+00 0.  1.
         21    1    1    2  502  501 -0.32432381344E+02 -0.19527937524E+02 -0.37151985287E+02  0.53042150355E+02  0.00000000000E+00 0.  1.
<mgrwt>
<rscale>  1 0.30000000E+03</rscale>
<asrwt>0</asrwt>
<pdfrwt beam="1">  1        1 0.11486892E+00 0.30000000E+03</pdfrwt>
<pdfrwt beam="2">0</pdfrwt>
<totfact> 0.27814749E+01</totfact>
</mgrwt>
</event>
<event>
 6    1  0.1904828E-004  0.3000000E+03  0.7818608E-02  0.1093470E+00
          1   -1    0    0  502    0  0.00000000000E+00  0.00000000000E+00  0.34310877306E+02  0.34310877306E+02  0.00000000000E+00 0.  1.
         13   -1    0    0    0    0 -0.00000000000E+00 -0.00000000000E+00 -0.10000000000E+04  0.10000000000E+04  0.00000000000E+00 0.  1.
    9000005    2    1    2  501    0 -0.30486758956E+01  0.11466782143E+02 -0.96083238397E+03  0.10214902132E+04  0.34655822604E+03 0.  0.
         13    1    3    3    0    0 -0.94680283208E+02 -0.10729930121E+03 -0.19946795096E+03  0.24548922487E+03  0.00000000000E+00 0.  1.
          3    1    3    3  501    0  0.91631607313E+02  0.11876608335E+03 -0.76136443301E+03  0.77600098831E+03  0.00000000000E+00 0.  1.
         21    1    1    2  502  501  0.30486758956E+01 -0.11466782143E+02 -0.48567387272E+01  0.12820664120E+02  0.00000000000E+00 0.  1.
<mgrwt>
<rscale>  1 0.30000000E+03</rscale>
<asrwt>0</asrwt>
<pdfrwt beam="1">  1        1 0.12476709E+00 0.30000000E+03</pdfrwt>
<pdfrwt beam="2">0</pdfrwt>
<totfact> 0.24446542E+01</totfact>
</mgrwt>
</event>
<event>
 6    1  0.1904828E-004  0.3000000E+03  0.7818608E-02  0.1093470E+00
          1   -1    0    0  502    0  0.00000000000E+00  0.00000000000E+00  0.36966068575E+02  0.36966068575E+02  0.00000000000E+00 0.  1.
         13   -1    0    0    0    0 -0.00000000000E+00 -0.00000000000E+00 -0.10000000000E+04  0.10000000000E+04  0.00000000000E+00 0.  1.
    9000005    2    1    2  501    0  0.24508026684E+02 -0.52960794434E+01 -0.96781149628E+03  0.10114412384E+04  0.29278933482E+03 0.  0.
         13    1    3    3    0    0  0.15506273942E+03 -0.11478416135E+02 -0.63805733401E+03  0.65672929635E+03  0.00000000000E+00 0.  1.
          3    1    3    3  501    0 -0.13055471274E+03  0.61823366918E+01 -0.32975416227E+03  0.35471194206E+03  0.00000000000E+00 0.  1.
         21    1    1    2  502  501 -0.24508026684E+02  0.52960794434E+01  0.47775648524E+01  0.25524830173E+02  0.00000000000E+00 0.  1.
<mgrwt>
<rscale>  1 0.30000000E+03</rscale>
<asrwt>0</asrwt>
<pdfrwt beam="1">  1        1 0.13442235E+00 0.30000000E+03</pdfrwt>
<pdfrwt beam="2">0</pdfrwt>
<totfact> 0.21655934E+01</totfact>
</mgrwt>
</event>
<event>
 6    1  0.1904828E-004  0.3000000E+03  0.7818608E-02  0.1093470E+00
          1   -1    0    0  502    0  0.00000000000E+00  0.00000000000E+00  0.35076715388E+02  0.35076715388E+02  0.00000000000E+00 0.  1.
         13   -1    0    0    0    0 -0.00000000000E+00 -0.00000000000E+00 -0.10000000000E+04  0.10000000000E+04  0.00000000000E+00 0.  1.
    9000005    2    1    2  501    0 -0.25270812499E+02  0.93702856333E+01 -0.95296111864E+03  0.10055892667E+04  0.31991946390E+03 0.  0.
         13    1    3    3    0    0  0.10431717649E+03 -0.41562955273E+02 -0.13379094577E+03  0.17466988788E+03  0.00000000000E+00 0.  1.
          3    1    3    3  501    0 -0.12958798899E+03  0.50933240906E+02 -0.81917017287E+03  0.83091937879E+03  0.00000000000E+00 0.  1.
         21    1    1    2  502  501  0.25270812499E+02 -0.93702856333E+01 -0.11962165971E+02  0.29487448719E+02  0.00000000000E+00 0. -1.
<mgrwt>
<rscale>  1 0.30000000E+03</rscale>
<asrwt>0</asrwt>
<pdfrwt beam="1">  1        1 0.12755196E+00 0.30000000E+03</pdfrwt>
<pdfrwt beam="2">0</pdfrwt>
<totfact> 0.23596179E+01</totfact>
</mgrwt>
</event>
<event>
 6    1  0.1904828E-004  0.3000000E+03  0.7818608E-02  0.1093470E+00
          1   -1    0    0  502    0  0.00000000000E+00  0.00000000000E+00  0.46642057620E+02  0.46642057620E+02  0.00000000000E+00 0.  1.
         13   -1    0    0    0    0 -0.00000000000E+00 -0.00000000000E+00 -0.10000000000E+04  0.10000000000E+04  0.00000000000E+00 0.  1.
    9000005    2    1    2  501    0  0.20659348874E+02 -0.20729696058E+02 -0.95629041462E+03  0.10172289927E+04  0.34555308926E+03 0.  0.
         13    1    3    3    0    0  0.16263022895E+03 -0.15537863495E+02 -0.26360464077E+03  0.31012485099E+03  0.00000000000E+00 0.  1.
          1    1    3    3  501    0 -0.14197088008E+03 -0.51918325633E+01 -0.69268577386E+03  0.70710414171E+03  0.00000000000E+00 0.  1.
         21    1    1    2  502  501 -0.20659348874E+02  0.20729696058E+02  0.29324722431E+01  0.29413064921E+02  0.00000000000E+00 0. -1.
<mgrwt>
<rscale>  1 0.30000000E+03</rscale>
<asrwt>0</asrwt>
<pdfrwt beam="1">  1        1 0.16960784E+00 0.30000000E+03</pdfrwt>
<pdfrwt beam="2">0</pdfrwt>
<totfact> 0.14350403E+01</totfact>
</mgrwt>
</event>
<event>
 6    1  0.1904828E-004  0.3000000E+03  0.7818608E-02  0.1093470E+00
          1   -1    0    0  502    0  0.00000000000E+00  0.00000000000E+00  0.40668002559E+02  0.40668002559E+02  0.00000000000E+00 0.  1.
         13   -1    0    0    0    0 -0.00000000000E+00 -0.00000000000E+00 -0.10000000000E+04  0.10000000000E+04  0.00000000000E+00 0.  1.
    9000005    2    1    2  501    0 -0.38962897445E+02  0.14812777693E+02 -0.94029957692E+03  0.99484487749E+03  0.32220414359E+03 0.  0.
         13    1    3    3    0    0 -0.11680338026E+03 -0.90634769933E+02 -0.23622768525E+03  0.27867761022E+03  0.00000000000E+00 0.  1.
          3    1    3    3  501    0  0.77840482811E+02  0.10544754763E+03 -0.70407189167E+03  0.71616726727E+03  0.00000000000E+00 0.  1.
         21    1    1    2  502  501  0.38962897445E+02 -0.14812777693E+02 -0.19032420519E+02  0.45823125069E+02  0.00000000000E+00 0.  1.
<mgrwt>
<rscale>  1 0.30000000E+03</rscale>
<asrwt>0</asrwt>
<pdfrwt beam="1">  1        1 0.14788396E+00 0.30000000E+03</pdfrwt>
<pdfrwt beam="2">0</pdfrwt>
<totfact> 0.18416974E+01</totfact>
</mgrwt>
</event>
<event>
 6    1  0.1904828E-004  0.3000000E+03  0.7818608E-02  0.1093470E+00
          1   -1    0    0  502    0  0.00000000000E+00  0.00000000000E+00  0.28416089978E+02  0.28416089978E+02  0.00000000000E+00 0.  1.
         13   -1    0    0    0    0 -0.00000000000E+00 -0.00000000000E+00 -0.10000000000E+04  0.10000000000E+04  0.00000000000E+00 0.  1.
    9000005    2    1    2  501    0  0.84654793173E+01  0.98428868526E+01 -0.95395716559E+03  0.10065243363E+04  0.32076224674E+03 0.  0.
         13    1    3    3    0    0 -0.20160797844E+02  0.16062234309E+03 -0.39512219319E+03  0.42699829323E+03  0.00000000000E+00 0.  1.
          1    1    3    3  501    0  0.28626277161E+02 -0.15077945624E+03 -0.55883497241E+03  0.57952604303E+03  0.00000000000E+00 0.  1.
         21    1    1    2  502  501 -0.84654793173E+01 -0.98428868526E+01 -0.17626744428E+02  0.21891753717E+02  0.00000000000E+00 0. -1.
<mgrwt>
<rscale>  1 0.30000000E+03</rscale>
<asrwt>0</asrwt>
<pdfrwt beam="1">  1        1 0.10333145E+00 0.30000000E+03</pdfrwt>
<pdfrwt beam="2">0</pdfrwt>
<totfact> 0.32617555E+01</totfact>
</mgrwt>
</event>
<event>
 6    1  0.1904828E-004  0.3000000E+03  0.7818608E-02  0.1093470E+00
          3   -1    0    0  502    0  0.00000000000E+00  0.00000000000E+00  0.24792421613E+02  0.24792421613E+02  0.00000000000E+00 0.  1.
         13   -1    0    0    0    0 -0.00000000000E+00 -0.00000000000E+00 -0.10000000000E+04  0.10000000000E+04  0.00000000000E+00 0.  1.
    9000005    2    1    2  501    0 -0.97369470457E+01 -0.10582527564E+02 -0.95363918999E+03  0.99886958601E+03  0.29682645966E+03 0.  0.
         13    1    3    3    0    0  0.19398594803E+02 -0.12095116522E+03 -0.18550913360E+03  0.22230413513E+03  0.00000000000E+00 0.  1.
          1    1    3    3  501    0 -0.29135541849E+02  0.11036863765E+03 -0.76813005639E+03  0.77656545088E+03  0.00000000000E+00 0.  1.
         21    1    1    2  502  501  0.97369470457E+01  0.10582527564E+02 -0.21568388398E+02  0.25922835599E+02  0.00000000000E+00 0. -1.
<mgrwt>
<rscale>  1 0.30000000E+03</rscale>
<asrwt>0</asrwt>
<pdfrwt beam="1">  1        3 0.90154451E-01 0.30000000E+03</pdfrwt>
<pdfrwt beam="2">0</pdfrwt>
<totfact> 0.50811886E+00</totfact>
</mgrwt>
</event>
<event>
 6    1  0.1904828E-004  0.3000000E+03  0.7818608E-02  0.1093470E+00
          1   -1    0    0  502    0  0.00000000000E+00  0.00000000000E+00  0.39638706603E+02  0.39638706603E+02  0.00000000000E+00 0.  1.
         13   -1    0    0    0    0 -0.00000000000E+00 -0.00000000000E+00 -0.10000000000E+04  0.10000000000E+04  0.00000000000E+00 0.  1.
    9000005    2    1    2  501    0 -0.31064234858E+01  0.41159511638E+02 -0.93963977795E+03  0.99345281625E+03  0.31987783691E+03 0.  0.
         13    1    3    3    0    0  0.12100128803E+03  0.74423646579E+02 -0.75658071702E+03  0.76980164474E+03  0.00000000000E+00 0.  1.
          3    1    3    3  501    0 -0.12410771152E+03 -0.33264134941E+02 -0.18305906093E+03  0.22365117152E+03  0.00000000000E+00 0.  1.
         21    1    1    2  502  501  0.31064234858E+01 -0.41159511638E+02 -0.20721515448E+02  0.46185890352E+02  0.00000000000E+00 0.  1.
<mgrwt>
<rscale>  1 0.30000000E+03</rscale>
<asrwt>0</asrwt>
<pdfrwt beam="1">  1        1 0.14414106E+00 0.30000000E+03</pdfrwt>
<pdfrwt beam="2">0</pdfrwt>
<totfact> 0.19251950E+01</totfact>
</mgrwt>
</event>
<event>
 6    1  0.1904828E-004  0.3000000E+03  0.7818608E-02  0.1093470E+00
          1   -1    0    0  502    0  0.00000000000E+00  0.00000000000E+00  0.40728196060E+02  0.40728196060E+02  0.00000000000E+00 0.  1.
         13   -1    0    0    0    0 -0.00000000000E+00 -0.00000000000E+00 -0.10000000000E+04  0.10000000000E+04  0.00000000000E+00 0.  1.
    9000005    2    1    2  501    0  0.21899736174E+02 -0.27337336921E+02 -0.94537872663E+03  0.10030460248E+04  0.33336685895E+03 0.  0.
         13    1    3    3    0    0 -0.78437467666E+02  0.10386039948E+03 -0.19322293836E+03  0.23296893103E+03  0.00000000000E+00 0.  1.
          1    1    3    3  501    0  0.10033720384E+03 -0.13119773640E+03 -0.75215578827E+03  0.77007709377E+03  0.00000000000E+00 0.  1.
         21    1    1    2  502  501 -0.21899736174E+02  0.27337336921E+02 -0.13893077306E+02  0.37682171268E+02  0.00000000000E+00 0. -1.
<mgrwt>
<rscale>  1 0.30000000E+03</rscale>
<asrwt>0</asrwt>
<pdfrwt beam="1">  1        1 0.14810284E+00 0.30000000E+03</pdfrwt>
<pdfrwt beam="2">0</pdfrwt>
<totfact> 0.18369564E+01</totfact>
</mgrwt>
</event>
<event>
 6    1  0.1904828E-004  0.3000000E+03  0.7818608E-02  0.1093470E+00
          1   -1    0    0  502    0  0.00000000000E+00  0.00000000000E+00  0.27531047219E+02  0.27531047219E+02  0.00000000000E+00 0.  1.
         13   -1    0    0    0    0 -0.00000000000E+00 -0.00000000000E+00 -0.10000000000E+04  0.10000000000E+04  0.00000000000E+00 0.  1.
    9000005    2    1    2  501    0 -0.49013339657E+01  0.91380283998E+01 -0.95589554944E+03  0.10079810003E+04  0.31965898832E+03 0.  0.
         13    1    3    3    0    0  0.11106773496E+03  0.23788618202E+02 -0.82379668759E+03  0.83159059795E+03  0.00000000000E+00 0.  1.
          3    1    3    3  501    0 -0.11596906892E+03 -0.14650589803E+02 -0.13209886185E+03  0.17639040232E+03  0.00000000000E+00 0.  1.
         21    1    1    2  502  501  0.49013339657E+01 -0.91380283998E+01 -0.16573403337E+02  0.19550046953E+02  0.00000000000E+00 0. -1.
<mgrwt>
<rscale>  1 0.30000000E+03</rscale>
<asrwt>0</asrwt>
<pdfrwt beam="1">  1        1 0.10011311E+00 0.30000000E+03</pdfrwt>
<pdfrwt beam="2">0</pdfrwt>
<totfact> 0.34170414E+01</totfact>
</mgrwt>
</event>
<event>
 6    1  0.1904828E-004  0.3000000E+03  0.7818608E-02  0.1093470E+00
          1   -1    0    0  502    0  0.00000000000E+00  0.00000000000E+00  0.35831851286E+02  0.35831851286E+02  0.00000000000E+00 0.  1.
         13   -1    0    0    0    0 -0.00000000000E+00 -0.00000000000E+00 -0.10000000000E+04  0.10000000000E+04  0.00000000000E+00 0.  1.
    9000005    2    1    2  501    0 -0.40527686876E+02 -0.34076730652E+02 -0.84894258811E+03  0.90902236113E+03  0.32064687456E+03 0.  0.
         13    1    3    3    0    0  0.24442395690E+02 -0.62208591912E+02 -0.83398683734E+03  0.83666085391E+03  0.00000000000E+00 0.  1.
          3    1    3    3  501    0 -0.64970082566E+02  0.28131861260E+02 -0.14955750771E+02  0.72361507224E+02  0.00000000000E+00 0.  1.
         21    1    1    2  502  501  0.40527686876E+02  0.34076730652E+02 -0.11522556061E+03  0.12680949015E+03  0.00000000000E+00 0.  1.
<mgrwt>
<rscale>  1 0.30000000E+03</rscale>
<asrwt>0</asrwt>
<pdfrwt beam="1">  1        1 0.13029792E+00 0.30000000E+03</pdfrwt>
<pdfrwt beam="2">0</pdfrwt>
<totfact> 0.22794529E+01</totfact>
</mgrwt>
</event>
<event>
 6    1  0.1904828E-004  0.3000000E+03  0.7818608E-02  0.1093470E+00
          1   -1    0    0  502    0  0.00000000000E+00  0.00000000000E+00  0.33049744305E+02  0.33049744305E+02  0.00000000000E+00 0.  1.
         13   -1    0    0    0    0 -0.00000000000E+00 -0.00000000000E+00 -0.10000000000E+04  0.10000000000E+04  0.00000000000E+00 0.  1.
    9000005    2    1    2  501    0  0.20343283053E+02 -0.85086323945E+01 -0.95036484765E+03  0.10054576847E+04  0.32751422286E+03 0.  0.
         13    1    3    3    0    0 -0.45357444813E+02  0.14941577008E+03 -0.41333588081E+03  0.44184716873E+03  0.00000000000E+00 0.  1.
          3    1    3    3  501    0  0.65700727866E+02 -0.15792440248E+03 -0.53702896684E+03  0.56361051602E+03  0.00000000000E+00 0.  1.
         21    1    1    2  502  501 -0.20343283053E+02  0.85086323945E+01 -0.16585408043E+02  0.27592059556E+02  0.00000000000E+00 0.  1.
<mgrwt>
<rscale>  1 0.30000000E+03</rscale>
<asrwt>0</asrwt>
<pdfrwt beam="1">  1        1 0.12018114E+00 0.30000000E+03</pdfrwt>
<pdfrwt beam="2">0</pdfrwt>
<totfact> 0.25934811E+01</totfact>
</mgrwt>
</event>
<event>
 6    1  0.1904828E-004  0.3000000E+03  0.7818608E-02  0.1093470E+00
          1   -1    0    0  502    0  0.00000000000E+00  0.00000000000E+00  0.34134256924E+02  0.34134256924E+02  0.00000000000E+00 0.  1.
         13   -1    0    0    0    0 -0.00000000000E+00 -0.00000000000E+00 -0.10000000000E+04  0.10000000000E+04  0.00000000000E+00 0.  1.
    9000005    2    1    2  501    0  0.10305797233E+02 -0.19666910757E+02 -0.94725588961E+03  0.10051631768E+04  0.33550900858E+03 0.  0.
         13    1    3    3    0    0 -0.83086878739E+02 -0.13234229170E+03 -0.70519397959E+03  0.72229942576E+03  0.00000000000E+00 0.  1.
          1    1    3    3  501    0  0.93392675972E+02  0.11267538094E+03 -0.24206191002E+03  0.28286375108E+03  0.00000000000E+00 0.  1.
         21    1    1    2  502  501 -0.10305797233E+02  0.19666910757E+02 -0.18609853466E+02  0.28971080086E+02  0.00000000000E+00 0. -1.
<mgrwt>
<rscale>  1 0.30000000E+03</rscale>
<asrwt>0</asrwt>
<pdfrwt beam="1">  1        1 0.12412483E+00 0.30000000E+03</pdfrwt>
<pdfrwt beam="2">0</pdfrwt>
<totfact> 0.24648158E+01</totfact>
</mgrwt>
</event>
<event>
 6    1  0.1904828E-004  0.3000000E+03  0.7818608E-02  0.1093470E+00
          1   -1    0    0  502    0  0.00000000000E+00  0.00000000000E+00  0.88731682875E+02  0.88731682875E+02  0.00000000000E+00 0.  1.
         13   -1    0    0    0    0 -0.00000000000E+00 -0.00000000000E+00 -0.10000000000E+04  0.10000000000E+04  0.00000000000E+00 0.  1.
    9000005    2    1    2  501    0 -0.74149313225E+01 -0.16385869746E+02 -0.97229478984E+03  0.10251100804E+04  0.32429930707E+03 0.  0.
         13    1    3    3    0    0 -0.15398262982E+03 -0.69384956860E+02 -0.51453148347E+03  0.54154184512E+03  0.00000000000E+00 0.  1.
          1    1    3    3  501    0  0.14656769850E+03  0.52999087115E+02 -0.45776330637E+03  0.48356823524E+03  0.00000000000E+00 0.  1.
         21    1    1    2  502  501  0.74149313225E+01  0.16385869746E+02  0.61026472719E+02  0.63621602514E+02  0.00000000000E+00 0.  1.
<mgrwt>
<rscale>  1 0.30000000E+03</rscale>
<asrwt>0</asrwt>
<pdfrwt beam="1">  1        1 0.32266135E+00 0.30000000E+03</pdfrwt>
<pdfrwt beam="2">0</pdfrwt>
<totfact> 0.27024044E+00</totfact>
</mgrwt>
</event>
<event>
 6    1  0.1904828E-004  0.3000000E+03  0.7818608E-02  0.1093470E+00
          1   -1    0    0  502    0  0.00000000000E+00  0.00000000000E+00  0.34484200047E+02  0.34484200047E+02  0.00000000000E+00 0.  1.
         13   -1    0    0    0    0 -0.00000000000E+00 -0.00000000000E+00 -0.10000000000E+04  0.10000000000E+04  0.00000000000E+00 0.  1.
    9000005    2    1    2  501    0  0.79415993506E+00 -0.12119556002E+02 -0.97151157017E+03  0.10209393269E+04  0.31358390254E+03 0.  0.
         13    1    3    3    0    0 -0.11480764203E+03  0.43145995232E+02 -0.78580055793E+03  0.79531433309E+03  0.00000000000E+00 0.  1.
          1    1    3    3  501    0  0.11560180196E+03 -0.55265551234E+02 -0.18571101224E+03  0.22562499383E+03  0.00000000000E+00 0.  1.
         21    1    1    2  502  501 -0.79415993506E+00  0.12119556002E+02  0.59957702197E+01  0.13544873134E+02  0.00000000000E+00 0.  1.
<mgrwt>
<rscale>  1 0.30000000E+03</rscale>
<asrwt>0</asrwt>
<pdfrwt beam="1">  1        1 0.12539736E+00 0.30000000E+03</pdfrwt>
<pdfrwt beam="2">0</pdfrwt>
<totfact> 0.24250717E+01</totfact>
</mgrwt>
</event>
<event>
 6    1  0.1904828E-004  0.3000000E+03  0.7818608E-02  0.1093470E+00
          1   -1    0    0  502    0  0.00000000000E+00  0.00000000000E+00  0.48526897166E+02  0.48526897166E+02  0.00000000000E+00 0.  1.
         13   -1    0    0    0    0 -0.00000000000E+00 -0.00000000000E+00 -0.10000000000E+04  0.10000000000E+04  0.00000000000E+00 0.  1.
    9000005    2    1    2  501    0  0.43783555014E+02 -0.13747642360E+02 -0.94759174651E+03  0.10024719052E+04  0.32390400623E+03 0.  0.
         13    1    3    3    0    0  0.17112108653E+03  0.53700962870E+02 -0.59892577760E+03  0.62520261256E+03  0.00000000000E+00 0.  1.
          1    1    3    3  501    0 -0.12733753152E+03 -0.67448605230E+02 -0.34866596891E+03  0.37726929262E+03  0.00000000000E+00 0.  1.
         21    1    1    2  502  501 -0.43783555014E+02  0.13747642360E+02 -0.38813563230E+01  0.46054991989E+02  0.00000000000E+00 0.  1.
<mgrwt>
<rscale>  1 0.30000000E+03</rscale>
<asrwt>0</asrwt>
<pdfrwt beam="1">  1        1 0.17646182E+00 0.30000000E+03</pdfrwt>
<pdfrwt beam="2">0</pdfrwt>
<totfact> 0.13288816E+01</totfact>
</mgrwt>
</event>
<event>
 6    1  0.1904828E-004  0.3000000E+03  0.7818608E-02  0.1093470E+00
          1   -1    0    0  502    0  0.00000000000E+00  0.00000000000E+00  0.42734965430E+02  0.42734965430E+02  0.00000000000E+00 0.  1.
         13   -1    0    0    0    0 -0.00000000000E+00 -0.00000000000E+00 -0.10000000000E+04  0.10000000000E+04  0.00000000000E+00 0.  1.
    9000005    2    1    2  501    0  0.13247399462E+02  0.58839621414E+01 -0.97235260240E+03  0.10218125061E+04  0.31372137249E+03 0.  0.
         13    1    3    3    0    0 -0.43255733477E+02 -0.53763181174E+02 -0.28936487271E+02  0.74825519872E+02  0.00000000000E+00 0.  1.
          1    1    3    3  501    0  0.56503132939E+02  0.59647143316E+02 -0.94341611513E+03  0.94698698619E+03  0.00000000000E+00 0.  1.
         21    1    1    2  502  501 -0.13247399462E+02 -0.58839621414E+01  0.15087567826E+02  0.20922459366E+02  0.00000000000E+00 0.  1.
<mgrwt>
<rscale>  1 0.30000000E+03</rscale>
<asrwt>0</asrwt>
<pdfrwt beam="1">  1        1 0.15540020E+00 0.30000000E+03</pdfrwt>
<pdfrwt beam="2">0</pdfrwt>
<totfact> 0.16871746E+01</totfact>
</mgrwt>
</event>
<event>
 6    1  0.1904828E-004  0.3000000E+03  0.7818608E-02  0.1093470E+00
          1   -1    0    0  502    0  0.00000000000E+00  0.00000000000E+00  0.32097752591E+02  0.32097752591E+02  0.00000000000E+00 0.  1.
         13   -1    0    0    0    0 -0.00000000000E+00 -0.00000000000E+00 -0.10000000000E+04  0.10000000000E+04  0.00000000000E+00 0.  1.
    9000005    2    1    2  501    0 -0.73412199895E+01  0.27847913025E+02 -0.86144781835E+03  0.92181654278E+03  0.32683940251E+03 0.  0.
         13    1    3    3    0    0  0.14259394321E+03 -0.33677958346E+02 -0.25509168103E+03  0.29417512344E+03  0.00000000000E+00 0.  1.
          1    1    3    3  501    0 -0.14993516320E+03  0.61525871372E+02 -0.60635613732E+03  0.62764141935E+03  0.00000000000E+00 0.  1.
         21    1    1    2  502  501  0.73412199895E+01 -0.27847913025E+02 -0.10645442906E+03  0.11028120981E+03  0.00000000000E+00 0. -1.
<mgrwt>
<rscale>  1 0.30000000E+03</rscale>
<asrwt>0</asrwt>
<pdfrwt beam="1">  1        1 0.11671935E+00 0.30000000E+03</pdfrwt>
<pdfrwt beam="2">0</pdfrwt>
<totfact> 0.27139253E+01</totfact>
</mgrwt>
</event>
<event>
 6    1  0.1904828E-004  0.3000000E+03  0.7818608E-02  0.1093470E+00
          1   -1    0    0  502    0  0.00000000000E+00  0.00000000000E+00  0.35588930552E+02  0.35588930552E+02  0.00000000000E+00 0.  1.
         13   -1    0    0    0    0 -0.00000000000E+00 -0.00000000000E+00 -0.10000000000E+04  0.10000000000E+04  0.00000000000E+00 0.  1.
    9000005    2    1    2  501    0 -0.12516148660E+02 -0.27970878805E+01 -0.96991821744E+03  0.10216316258E+04  0.32066392464E+03 0.  0.
         13    1    3    3    0    0 -0.13769067244E+03  0.71924094437E+02 -0.32196836994E+03  0.35748486384E+03  0.00000000000E+00 0.  1.
          1    1    3    3  501    0  0.12517452378E+03 -0.74721182317E+02 -0.64794984750E+03  0.66414676192E+03  0.00000000000E+00 0.  1.
         21    1    1    2  502  501  0.12516148660E+02  0.27970878805E+01  0.55071479923E+01  0.13957304786E+02  0.00000000000E+00 0. -1.
<mgrwt>
<rscale>  1 0.30000000E+03</rscale>
<asrwt>0</asrwt>
<pdfrwt beam="1">  1        1 0.12941457E+00 0.30000000E+03</pdfrwt>
<pdfrwt beam="2">0</pdfrwt>
<totfact> 0.23048514E+01</totfact>
</mgrwt>
</event>
<event>
 6    1  0.1904828E-004  0.3000000E+03  0.7818608E-02  0.1093470E+00
          1   -1    0    0  502    0  0.00000000000E+00  0.00000000000E+00  0.30329578288E+02  0.30329578288E+02  0.00000000000E+00 0.  1.
         13   -1    0    0    0    0 -0.00000000000E+00 -0.00000000000E+00 -0.10000000000E+04  0.10000000000E+04  0.00000000000E+00 0.  1.
    9000005    2    1    2  501    0  0.13262527567E+02  0.14864241325E+02 -0.91030541940E+03  0.96771133968E+03  0.32773837132E+03 0.  0.
         13    1    3    3    0    0 -0.11780058858E+03 -0.19589999516E+02 -0.74238941796E+03  0.75193270620E+03  0.00000000000E+00 0.  1.
          1    1    3    3  501    0  0.13106311615E+03  0.34454240841E+02 -0.16791600144E+03  0.21577863348E+03  0.00000000000E+00 0.  1.
         21    1    1    2  502  501 -0.13262527567E+02 -0.14864241325E+02 -0.59365002309E+02  0.62618238611E+02  0.00000000000E+00 0.  1.
<mgrwt>
<rscale>  1 0.30000000E+03</rscale>
<asrwt>0</asrwt>
<pdfrwt beam="1">  1        1 0.11028961E+00 0.30000000E+03</pdfrwt>
<pdfrwt beam="2">0</pdfrwt>
<totfact> 0.29591888E+01</totfact>
</mgrwt>
</event>
<event>
 6    1  0.1904828E-004  0.3000000E+03  0.7818608E-02  0.1093470E+00
          1   -1    0    0  502    0  0.00000000000E+00  0.00000000000E+00  0.48041633328E+02  0.48041633328E+02  0.00000000000E+00 0.  1.
         13   -1    0    0    0    0 -0.00000000000E+00 -0.00000000000E+00 -0.10000000000E+04  0.10000000000E+04  0.00000000000E+00 0.  1.
    9000005    2    1    2  501    0 -0.10002636463E+02 -0.53045831676E-01 -0.97209687097E+03  0.10255557510E+04  0.32663774465E+03 0.  0.
         13    1    3    3    0    0  0.15560925368E+03  0.84159540291E+01 -0.38099702091E+03  0.41163551603E+03  0.00000000000E+00 0.  1.
          1    1    3    3  501    0 -0.16561189015E+03 -0.84689998608E+01 -0.59109985007E+03  0.61392023494E+03  0.00000000000E+00 0.  1.
         21    1    1    2  502  501  0.10002636463E+02  0.53045831676E-01  0.20138504303E+02  0.22485882363E+02  0.00000000000E+00 0.  1.
<mgrwt>
<rscale>  1 0.30000000E+03</rscale>
<asrwt>0</asrwt>
<pdfrwt beam="1">  1        1 0.17469722E+00 0.30000000E+03</pdfrwt>
<pdfrwt beam="2">0</pdfrwt>
<totfact> 0.13553700E+01</totfact>
</mgrwt>
</event>
<event>
 6    1  0.1904828E-004  0.3000000E+03  0.7818608E-02  0.1093470E+00
          1   -1    0    0  502    0  0.00000000000E+00  0.00000000000E+00  0.47735353927E+02  0.47735353927E+02  0.00000000000E+00 0.  1.
         13   -1    0    0    0    0 -0.00000000000E+00 -0.00000000000E+00 -0.10000000000E+04  0.10000000000E+04  0.00000000000E+00 0.  1.
    9000005    2    1    2  501    0  0.47597506356E+01  0.17116266397E+02 -0.94488711982E+03  0.10284986781E+04  0.40581059615E+03 0.  0.
         13    1    3    3    0    0 -0.30967188043E+02  0.18963948508E+03 -0.27264603878E+03  0.33355353918E+03  0.00000000000E+00 0.  1.
          1    1    3    3  501    0  0.35726938678E+02 -0.17252321869E+03 -0.67224108104E+03  0.69494513896E+03  0.00000000000E+00 0.  1.
         21    1    1    2  502  501 -0.47597506356E+01 -0.17116266397E+02 -0.73775262554E+01  0.19236675782E+02  0.00000000000E+00 0. -1.
<mgrwt>
<rscale>  1 0.30000000E+03</rscale>
<asrwt>0</asrwt>
<pdfrwt beam="1">  1        1 0.17358347E+00 0.30000000E+03</pdfrwt>
<pdfrwt beam="2">0</pdfrwt>
<totfact> 0.13723807E+01</totfact>
</mgrwt>
</event>
<event>
 6    1  0.1904828E-004  0.3000000E+03  0.7818608E-02  0.1093470E+00
          1   -1    0    0  502    0  0.00000000000E+00  0.00000000000E+00  0.41905113933E+02  0.41905113933E+02  0.00000000000E+00 0.  1.
         13   -1    0    0    0    0 -0.00000000000E+00 -0.00000000000E+00 -0.10000000000E+04  0.10000000000E+04  0.00000000000E+00 0.  1.
    9000005    2    1    2  501    0  0.54238667997E+02 -0.42215901324E+02 -0.86593225383E+03  0.92693569969E+03  0.32349205200E+03 0.  0.
         13    1    3    3    0    0  0.38636836358E+01  0.11812456082E+03 -0.60588658280E+03  0.61730615673E+03  0.00000000000E+00 0.  1.
          3    1    3    3  501    0  0.50374984361E+02 -0.16034046215E+03 -0.26004567104E+03  0.30962954296E+03  0.00000000000E+00 0.  1.
         21    1    1    2  502  501 -0.54238667997E+02  0.42215901324E+02 -0.92162632233E+02  0.11496941424E+03  0.00000000000E+00 0.  1.
<mgrwt>
<rscale>  1 0.30000000E+03</rscale>
<asrwt>0</asrwt>
<pdfrwt beam="1">  1        1 0.15238255E+00 0.30000000E+03</pdfrwt>
<pdfrwt beam="2">0</pdfrwt>
<totfact> 0.17472307E+01</totfact>
</mgrwt>
</event>
<event>
 6    1  0.1904828E-004  0.3000000E+03  0.7818608E-02  0.1093470E+00
          1   -1    0    0  502    0  0.00000000000E+00  0.00000000000E+00  0.35146418839E+02  0.35146418839E+02  0.00000000000E+00 0.  1.
         13   -1    0    0    0    0 -0.00000000000E+00 -0.00000000000E+00 -0.10000000000E+04  0.10000000000E+04  0.00000000000E+00 0.  1.
    9000005    2    1    2  501    0 -0.16797929288E+02 -0.24478284837E+01 -0.96399752047E+03  0.10181495035E+04  0.32718348005E+03 0.  0.
         13    1    3    3    0    0 -0.12603013331E+03  0.50742638568E+01 -0.85286255089E+03  0.86213912645E+03  0.00000000000E+00 0.  1.
          3    1    3    3  501    0  0.10923220402E+03 -0.75220923405E+01 -0.11113496959E+03  0.15601037700E+03  0.00000000000E+00 0.  1.
         21    1    1    2  502  501  0.16797929288E+02  0.24478284837E+01 -0.85606068781E+00  0.16996915383E+02  0.00000000000E+00 0.  1.
<mgrwt>
<rscale>  1 0.30000000E+03</rscale>
<asrwt>0</asrwt>
<pdfrwt beam="1">  1        1 0.12780543E+00 0.30000000E+03</pdfrwt>
<pdfrwt beam="2">0</pdfrwt>
<totfact> 0.23520673E+01</totfact>
</mgrwt>
</event>
<event>
 6    1  0.1904828E-004  0.3000000E+03  0.7818608E-02  0.1093470E+00
          1   -1    0    0  502    0  0.00000000000E+00  0.00000000000E+00  0.48308259613E+02  0.48308259613E+02  0.00000000000E+00 0.  1.
         13   -1    0    0    0    0 -0.00000000000E+00 -0.00000000000E+00 -0.10000000000E+04  0.10000000000E+04  0.00000000000E+00 0.  1.
    9000005    2    1    2  501    0  0.32678743687E+02 -0.91040533789E+01 -0.95522783901E+03  0.10142012505E+04  0.33910642581E+03 0.  0.
         13    1    3    3    0    0  0.56615843166E+02 -0.11398205059E+03 -0.12976638431E+03  0.18175966563E+03  0.00000000000E+00 0.  1.
          1    1    3    3  501    0 -0.23937099479E+02  0.10487799721E+03 -0.82546145470E+03  0.83244158487E+03  0.00000000000E+00 0.  1.
         21    1    1    2  502  501 -0.32678743687E+02  0.91040533789E+01  0.35360986241E+01  0.34107009109E+02  0.00000000000E+00 0. -1.
<mgrwt>
<rscale>  1 0.30000000E+03</rscale>
<asrwt>0</asrwt>
<pdfrwt beam="1">  1        1 0.17566677E+00 0.30000000E+03</pdfrwt>
<pdfrwt beam="2">0</pdfrwt>
<totfact> 0.13407463E+01</totfact>
</mgrwt>
</event>
<event>
 6    1  0.1904828E-004  0.3000000E+03  0.7818608E-02  0.1093470E+00
          1   -1    0    0  502    0  0.00000000000E+00  0.00000000000E+00  0.28334649135E+02  0.28334649135E+02  0.00000000000E+00 0.  1.
         13   -1    0    0    0    0 -0.00000000000E+00 -0.00000000000E+00 -0.10000000000E+04  0.10000000000E+04  0.00000000000E+00 0.  1.
    9000005    2    1    2  501    0 -0.10079160894E+02  0.34095133888E+01 -0.95617870914E+03  0.10095450153E+04  0.32371314452E+03 0.  0.
         13    1    3    3    0    0  0.13248188198E+03 -0.65423585582E+02 -0.29831610370E+03  0.33290267696E+03  0.00000000000E+00 0.  1.
          1    1    3    3  501    0 -0.14256104287E+03  0.68833098971E+02 -0.65786260544E+03  0.67664233838E+03  0.00000000000E+00 0.  1.
         21    1    1    2  502  501  0.10079160894E+02 -0.34095133888E+01 -0.15486641725E+02  0.18789633785E+02  0.00000000000E+00 0.  1.
<mgrwt>
<rscale>  1 0.30000000E+03</rscale>
<asrwt>0</asrwt>
<pdfrwt beam="1">  1        1 0.10303531E+00 0.30000000E+03</pdfrwt>
<pdfrwt beam="2">0</pdfrwt>
<totfact> 0.32756089E+01</totfact>
</mgrwt>
</event>
<event>
 6    1  0.1904828E-004  0.3000000E+03  0.7818608E-02  0.1093470E+00
          1   -1    0    0  502    0  0.00000000000E+00  0.00000000000E+00  0.70466478064E+02  0.70466478064E+02  0.00000000000E+00 0.  1.
         13   -1    0    0    0    0 -0.00000000000E+00 -0.00000000000E+00 -0.10000000000E+04  0.10000000000E+04  0.00000000000E+00 0.  1.
    9000005    2    1    2  501    0  0.37374435177E+02  0.63425404854E+02 -0.93887667273E+03  0.99625782053E+03  0.32499324299E+03 0.  0.
         13    1    3    3    0    0 -0.11090162854E+02 -0.11048397354E+03 -0.14792290497E+03  0.18496184995E+03  0.00000000000E+00 0.  1.
          3    1    3    3  501    0  0.48464598031E+02  0.17390937839E+03 -0.79095376776E+03  0.81129597059E+03  0.00000000000E+00 0.  1.
         21    1    1    2  502  501 -0.37374435177E+02 -0.63425404854E+02  0.93431507961E+01  0.74208657530E+02  0.00000000000E+00 0.  1.
<mgrwt>
<rscale>  1 0.30000000E+03</rscale>
<asrwt>0</asrwt>
<pdfrwt beam="1">  1        1 0.25624228E+00 0.30000000E+03</pdfrwt>
<pdfrwt beam="2">0</pdfrwt>
<totfact> 0.55796852E+00</totfact>
</mgrwt>
</event>
<event>
 6    1  0.1904828E-004  0.3000000E+03  0.7818608E-02  0.1093470E+00
          1   -1    0    0  502    0  0.00000000000E+00  0.00000000000E+00  0.33218129603E+02  0.33218129603E+02  0.00000000000E+00 0.  1.
         13   -1    0    0    0    0 -0.00000000000E+00 -0.00000000000E+00 -0.10000000000E+04  0.10000000000E+04  0.00000000000E+00 0.  1.
    9000005    2    1    2  501    0  0.21845769664E+01  0.10748866020E+02 -0.96686195353E+03  0.10222492231E+04  0.33173954600E+03 0.  0.
         13    1    3    3    0    0 -0.67113435122E+02  0.13080054734E+03 -0.23367828402E+03  0.27607704863E+03  0.00000000000E+00 0.  1.
          1    1    3    3  501    0  0.69298012088E+02 -0.12005168132E+03 -0.73318366951E+03  0.74617217444E+03  0.00000000000E+00 0.  1.
         21    1    1    2  502  501 -0.21845769664E+01 -0.10748866020E+02  0.80083133974E-01  0.10968906534E+02  0.00000000000E+00 0.  1.
<mgrwt>
<rscale>  1 0.30000000E+03</rscale>
<asrwt>0</asrwt>
<pdfrwt beam="1">  1        1 0.12079345E+00 0.30000000E+03</pdfrwt>
<pdfrwt beam="2">0</pdfrwt>
<totfact> 0.25729322E+01</totfact>
</mgrwt>
</event>
<event>
 6    1  0.1904828E-004  0.3000000E+03  0.7818608E-02  0.1093470E+00
          1   -1    0    0  502    0  0.00000000000E+00  0.00000000000E+00  0.51377800283E+02  0.51377800283E+02  0.00000000000E+00 0.  1.
         13   -1    0    0    0    0 -0.00000000000E+00 -0.00000000000E+00 -0.10000000000E+04  0.10000000000E+04  0.00000000000E+00 0.  1.
    9000005    2    1    2  501    0  0.64006043480E+01 -0.81128831036E+01 -0.97278279431E+03  0.10251000352E+04  0.32313608682E+03 0.  0.
         13    1    3    3    0    0 -0.10300172986E+03 -0.83232272943E+02 -0.77934078233E+03  0.79051187380E+03  0.00000000000E+00 0.  1.
          3    1    3    3  501    0  0.10940233421E+03  0.75119389840E+02 -0.19344201197E+03  0.23458816137E+03  0.00000000000E+00 0.  1.
         21    1    1    2  502  501 -0.64006043480E+01  0.81128831036E+01  0.24160594590E+02  0.26277765111E+02  0.00000000000E+00 0.  1.
<mgrwt>
<rscale>  1 0.30000000E+03</rscale>
<asrwt>0</asrwt>
<pdfrwt beam="1">  1        1 0.18682876E+00 0.30000000E+03</pdfrwt>
<pdfrwt beam="2">0</pdfrwt>
<totfact> 0.11842166E+01</totfact>
</mgrwt>
</event>
<event>
 6    1  0.1904828E-004  0.3000000E+03  0.7818608E-02  0.1093470E+00
          1   -1    0    0  502    0  0.00000000000E+00  0.00000000000E+00  0.40931214378E+02  0.40931214378E+02  0.00000000000E+00 0.  1.
         13   -1    0    0    0    0 -0.00000000000E+00 -0.00000000000E+00 -0.10000000000E+04  0.10000000000E+04  0.00000000000E+00 0.  1.
    9000005    2    1    2  501    0 -0.25493072272E+01  0.18152384345E+02 -0.94406126167E+03  0.10172408408E+04  0.37840620290E+03 0.  0.
         13    1    3    3    0    0 -0.16052937155E+02  0.11417612760E+03 -0.64033833109E+02  0.13188713617E+03  0.00000000000E+00 0.  1.
          1    1    3    3  501    0  0.13503629928E+02 -0.96023743254E+02 -0.88002742857E+03  0.88535370464E+03  0.00000000000E+00 0.  1.
         21    1    1    2  502  501  0.25493072272E+01 -0.18152384345E+02 -0.15007523949E+02  0.23690373568E+02  0.00000000000E+00 0. -1.
<mgrwt>
<rscale>  1 0.30000000E+03</rscale>
<asrwt>0</asrwt>
<pdfrwt beam="1">  1        1 0.14884109E+00 0.30000000E+03</pdfrwt>
<pdfrwt beam="2">0</pdfrwt>
<totfact> 0.18210782E+01</totfact>
</mgrwt>
</event>
<event>
 6    1  0.1904828E-004  0.3000000E+03  0.7818608E-02  0.1093470E+00
          1   -1    0    0  502    0  0.00000000000E+00  0.00000000000E+00  0.28589886119E+02  0.28589886119E+02  0.00000000000E+00 0.  1.
         13   -1    0    0    0    0 -0.00000000000E+00 -0.00000000000E+00 -0.10000000000E+04  0.10000000000E+04  0.00000000000E+00 0.  1.
    9000005    2    1    2  501    0  0.95192531993E+01 -0.47998228309E+01 -0.95712500779E+03  0.10107652196E+04  0.32472202593E+03 0.  0.
         13    1    3    3    0    0 -0.85991812071E+02  0.12676702948E+03 -0.34615264471E+03  0.37853153758E+03  0.00000000000E+00 0.  1.
          3    1    3    3  501    0  0.95511065270E+02 -0.13156685231E+03 -0.61097236309E+03  0.63223368202E+03  0.00000000000E+00 0.  1.
         21    1    1    2  502  501 -0.95192531993E+01  0.47998228309E+01 -0.14285106088E+02  0.17824666522E+02  0.00000000000E+00 0.  1.
<mgrwt>
<rscale>  1 0.30000000E+03</rscale>
<asrwt>0</asrwt>
<pdfrwt beam="1">  1        1 0.10396344E+00 0.30000000E+03</pdfrwt>
<pdfrwt beam="2">0</pdfrwt>
<totfact> 0.32324759E+01</totfact>
</mgrwt>
</event>
<event>
 6    1  0.1904828E-004  0.3000000E+03  0.7818608E-02  0.1093470E+00
          1   -1    0    0  502    0  0.00000000000E+00  0.00000000000E+00  0.31902027347E+02  0.31902027347E+02  0.00000000000E+00 0.  1.
         13   -1    0    0    0    0 -0.00000000000E+00 -0.00000000000E+00 -0.10000000000E+04  0.10000000000E+04  0.00000000000E+00 0.  1.
    9000005    2    1    2  501    0 -0.15064563202E+02  0.31549877556E+02 -0.92417399371E+03  0.97576245339E+03  0.31111486456E+03 0.  0.
         13    1    3    3    0    0  0.40932723119E+02 -0.11531433925E+03 -0.19789253035E+03  0.23266787107E+03  0.00000000000E+00 0.  1.
          1    1    3    3  501    0 -0.55997286321E+02  0.14686421680E+03 -0.72628146336E+03  0.74309458232E+03  0.00000000000E+00 0.  1.
         21    1    1    2  502  501  0.15064563202E+02 -0.31549877556E+02 -0.43923978939E+02  0.56139573958E+02  0.00000000000E+00 0.  1.
<mgrwt>
<rscale>  1 0.30000000E+03</rscale>
<asrwt>0</asrwt>
<pdfrwt beam="1">  1        1 0.11600762E+00 0.30000000E+03</pdfrwt>
<pdfrwt beam="2">0</pdfrwt>
<totfact> 0.27396338E+01</totfact>
</mgrwt>
</event>
<event>
 6    1  0.1904828E-004  0.3000000E+03  0.7818608E-02  0.1093470E+00
          1   -1    0    0  502    0  0.00000000000E+00  0.00000000000E+00  0.77111252289E+02  0.77111252289E+02  0.00000000000E+00 0.  1.
         13   -1    0    0    0    0 -0.00000000000E+00 -0.00000000000E+00 -0.10000000000E+04  0.10000000000E+04  0.00000000000E+00 0.  1.
    9000005    2    1    2  501    0  0.11176839714E+03  0.15903203768E+01 -0.89880394968E+03  0.96276624272E+03  0.32645917729E+03 0.  0.
         13    1    3    3    0    0 -0.88565929409E+02  0.84008737331E+02 -0.41706682920E+03  0.43456430113E+03  0.00000000000E+00 0.  1.
          3    1    3    3  501    0  0.20033432655E+03 -0.82418416954E+02 -0.48173712048E+03  0.52820194159E+03  0.00000000000E+00 0.  1.
         21    1    1    2  502  501 -0.11176839714E+03 -0.15903203768E+01 -0.24084798030E+02  0.11434500957E+03  0.00000000000E+00 0.  1.
<mgrwt>
<rscale>  1 0.30000000E+03</rscale>
<asrwt>0</asrwt>
<pdfrwt beam="1">  1        1 0.28040515E+00 0.30000000E+03</pdfrwt>
<pdfrwt beam="2">0</pdfrwt>
<totfact> 0.42992172E+00</totfact>
</mgrwt>
</event>
<event>
 6    1  0.1904828E-004  0.3000000E+03  0.7818608E-02  0.1093470E+00
          1   -1    0    0  502    0  0.00000000000E+00  0.00000000000E+00  0.30463782214E+02  0.30463782214E+02  0.00000000000E+00 0.  1.
         13   -1    0    0    0    0 -0.00000000000E+00 -0.00000000000E+00 -0.10000000000E+04  0.10000000000E+04  0.00000000000E+00 0.  1.
    9000005    2    1    2  501    0 -0.17402620984E+00  0.20893227600E+02 -0.91526010664E+03  0.97230491801E+03  0.32747401963E+03 0.  0.
         13    1    3    3    0    0  0.13674657177E+03 -0.43849035250E+02 -0.66044292299E+03  0.67587514920E+03  0.00000000000E+00 0.  1.
          1    1    3    3  501    0 -0.13692059798E+03  0.64742262850E+02 -0.25481718366E+03  0.29642976881E+03  0.00000000000E+00 0.  1.
         21    1    1    2  502  501  0.17402620984E+00 -0.20893227600E+02 -0.54276111144E+02  0.58158864205E+02  0.00000000000E+00 0.  1.
<mgrwt>
<rscale>  1 0.30000000E+03</rscale>
<asrwt>0</asrwt>
<pdfrwt beam="1">  1        1 0.11077762E+00 0.30000000E+03</pdfrwt>
<pdfrwt beam="2">0</pdfrwt>
<totfact> 0.29394955E+01</totfact>
</mgrwt>
</event>
<event>
 6    1  0.1904828E-004  0.3000000E+03  0.7818608E-02  0.1093470E+00
          1   -1    0    0  502    0  0.00000000000E+00  0.00000000000E+00  0.39896470205E+02  0.39896470205E+02  0.00000000000E+00 0.  1.
         13   -1    0    0    0    0 -0.00000000000E+00 -0.00000000000E+00 -0.10000000000E+04  0.10000000000E+04  0.00000000000E+00 0.  1.
    9000005    2    1    2  501    0  0.97338732617E+01  0.56573790270E+01 -0.93947621504E+03  0.10163966757E+04  0.38771109037E+03 0.  0.
         13    1    3    3    0    0  0.15138110582E+03 -0.10640133383E+02 -0.80905092449E+03  0.82316028212E+03  0.00000000000E+00 0.  1.
          3    1    3    3  501    0 -0.14164723256E+03  0.16297512410E+02 -0.13042529055E+03  0.19323639362E+03  0.00000000000E+00 0.  1.
         21    1    1    2  502  501 -0.97338732617E+01 -0.56573790270E+01 -0.20627314759E+02  0.23499794474E+02  0.00000000000E+00 0. -1.
<mgrwt>
<rscale>  1 0.30000000E+03</rscale>
<asrwt>0</asrwt>
<pdfrwt beam="1">  1        1 0.14507838E+00 0.30000000E+03</pdfrwt>
<pdfrwt beam="2">0</pdfrwt>
<totfact> 0.19038456E+01</totfact>
</mgrwt>
</event>
<event>
 6    1  0.1904828E-004  0.3000000E+03  0.7818608E-02  0.1093470E+00
          1   -1    0    0  502    0  0.00000000000E+00  0.00000000000E+00  0.61597683071E+02  0.61597683071E+02  0.00000000000E+00 0.  1.
         13   -1    0    0    0    0 -0.00000000000E+00 -0.00000000000E+00 -0.10000000000E+04  0.10000000000E+04  0.00000000000E+00 0.  1.
    9000005    2    1    2  501    0  0.24355979352E+02 -0.10018372141E+02 -0.96873039894E+03  0.10214308551E+04  0.32278293701E+03 0.  0.
         13    1    3    3    0    0  0.74358742302E+02  0.12562595137E+03 -0.26068199833E+03  0.29877450772E+03  0.00000000000E+00 0.  1.
          1    1    3    3  501    0 -0.50002762950E+02 -0.13564432351E+03 -0.70804840061E+03  0.72265634738E+03  0.00000000000E+00 0.  1.
         21    1    1    2  502  501 -0.24355979352E+02  0.10018372141E+02  0.30328082009E+02  0.40166827966E+02  0.00000000000E+00 0.  1.
<mgrwt>
<rscale>  1 0.30000000E+03</rscale>
<asrwt>0</asrwt>
<pdfrwt beam="1">  1        1 0.22399205E+00 0.30000000E+03</pdfrwt>
<pdfrwt beam="2">0</pdfrwt>
<totfact> 0.78957556E+00</totfact>
</mgrwt>
</event>
<event>
 6    1  0.1904828E-004  0.3000000E+03  0.7818608E-02  0.1093470E+00
          1   -1    0    0  502    0  0.00000000000E+00  0.00000000000E+00  0.29290336438E+02  0.29290336438E+02  0.00000000000E+00 0.  1.
         13   -1    0    0    0    0 -0.00000000000E+00 -0.00000000000E+00 -0.10000000000E+04  0.10000000000E+04  0.00000000000E+00 0.  1.
    9000005    2    1    2  501    0  0.26159507663E+01  0.14690053529E+02 -0.96225652320E+03  0.10121410958E+04  0.31347941013E+03 0.  0.
         13    1    3    3    0    0 -0.13749275274E+03  0.53932221690E+02 -0.66476715982E+03  0.68097600425E+03  0.00000000000E+00 0.  1.
          3    1    3    3  501    0  0.14010870351E+03 -0.39242168161E+02 -0.29748936339E+03  0.33116509159E+03  0.00000000000E+00 0.  1.
         21    1    1    2  502  501 -0.26159507663E+01 -0.14690053529E+02 -0.84531403603E+01  0.17149240597E+02  0.00000000000E+00 0. -1.
<mgrwt>
<rscale>  1 0.30000000E+03</rscale>
<asrwt>0</asrwt>
<pdfrwt beam="1">  1        1 0.10651054E+00 0.30000000E+03</pdfrwt>
<pdfrwt beam="2">0</pdfrwt>
<totfact> 0.31182509E+01</totfact>
</mgrwt>
</event>
<event>
 6    1  0.1904828E-004  0.3000000E+03  0.7818608E-02  0.1093470E+00
          1   -1    0    0  502    0  0.00000000000E+00  0.00000000000E+00  0.80010709106E+02  0.80010709106E+02  0.00000000000E+00 0.  1.
         13   -1    0    0    0    0 -0.00000000000E+00 -0.00000000000E+00 -0.10000000000E+04  0.10000000000E+04  0.00000000000E+00 0.  1.
    9000005    2    1    2  501    0  0.17856644067E+02 -0.15506414460E+01 -0.95666014624E+03  0.10391938516E+04  0.40546758385E+03 0.  0.
         13    1    3    3    0    0 -0.14741163993E+03 -0.44670844450E+02 -0.15126176905E+03  0.21588376202E+03  0.00000000000E+00 0.  1.
          3    1    3    3  501    0  0.16526828399E+03  0.43120203004E+02 -0.80539837719E+03  0.82331008957E+03  0.00000000000E+00 0.  1.
         21    1    1    2  502  501 -0.17856644067E+02  0.15506414460E+01  0.36670855342E+02  0.40816857519E+02  0.00000000000E+00 0.  1.
<mgrwt>
<rscale>  1 0.30000000E+03</rscale>
<asrwt>0</asrwt>
<pdfrwt beam="1">  1        1 0.29094865E+00 0.30000000E+03</pdfrwt>
<pdfrwt beam="2">0</pdfrwt>
<totfact> 0.38347660E+00</totfact>
</mgrwt>
</event>
<event>
 6    1  0.1904828E-004  0.3000000E+03  0.7818608E-02  0.1093470E+00
          1   -1    0    0  502    0  0.00000000000E+00  0.00000000000E+00  0.42714854989E+02  0.42714854989E+02  0.00000000000E+00 0.  1.
         13   -1    0    0    0    0 -0.00000000000E+00 -0.00000000000E+00 -0.10000000000E+04  0.10000000000E+04  0.00000000000E+00 0.  1.
    9000005    2    1    2  501    0 -0.15627924188E+02 -0.14317969462E+01 -0.97189682018E+03  0.10212723013E+04  0.31331677627E+03 0.  0.
         13    1    3    3    0    0  0.81134177061E+02  0.66389588596E+02 -0.83010336919E+03  0.83669703937E+03  0.00000000000E+00 0.  1.
          1    1    3    3  501    0 -0.96762101249E+02 -0.67821385542E+02 -0.14179345099E+03  0.18457526194E+03  0.00000000000E+00 0.  1.
         21    1    1    2  502  501  0.15627924188E+02  0.14317969462E+01  0.14611675170E+02  0.21442553677E+02  0.00000000000E+00 0.  1.
<mgrwt>
<rscale>  1 0.30000000E+03</rscale>
<asrwt>0</asrwt>
<pdfrwt beam="1">  1        1 0.15532707E+00 0.30000000E+03</pdfrwt>
<pdfrwt beam="2">0</pdfrwt>
<totfact> 0.16886002E+01</totfact>
</mgrwt>
</event>
<event>
 6    1  0.1904828E-004  0.3000000E+03  0.7818608E-02  0.1093470E+00
          1   -1    0    0  502    0  0.00000000000E+00  0.00000000000E+00  0.51866501390E+02  0.51866501390E+02  0.00000000000E+00 0.  1.
         13   -1    0    0    0    0 -0.00000000000E+00 -0.00000000000E+00 -0.10000000000E+04  0.10000000000E+04  0.00000000000E+00 0.  1.
    9000005    2    1    2  501    0 -0.43722287338E+02 -0.51886314903E+02 -0.95427996392E+03  0.98373716028E+03  0.22909544495E+03 0.  0.
         13    1    3    3    0    0 -0.46155033589E+02 -0.13990271305E+03 -0.67571129880E+03  0.69158427944E+03  0.00000000000E+00 0.  1.
          3    1    3    3  501    0  0.24327462514E+01  0.88016398145E+02 -0.27856866512E+03  0.29215288084E+03  0.00000000000E+00 0.  1.
         21    1    1    2  502  501  0.43722287338E+02  0.51886314903E+02  0.61464653093E+01  0.68129341110E+02  0.00000000000E+00 0.  1.
<mgrwt>
<rscale>  1 0.30000000E+03</rscale>
<asrwt>0</asrwt>
<pdfrwt beam="1">  1        1 0.18860586E+00 0.30000000E+03</pdfrwt>
<pdfrwt beam="2">0</pdfrwt>
<totfact> 0.11611587E+01</totfact>
</mgrwt>
</event>
<event>
 6    1  0.1904828E-004  0.3000000E+03  0.7818608E-02  0.1093470E+00
          1   -1    0    0  502    0  0.00000000000E+00  0.00000000000E+00  0.45385949208E+02  0.45385949208E+02  0.00000000000E+00 0.  1.
         13   -1    0    0    0    0 -0.00000000000E+00 -0.00000000000E+00 -0.10000000000E+04  0.10000000000E+04  0.00000000000E+00 0.  1.
    9000005    2    1    2  501    0  0.84269609152E+00  0.91385361337E+02 -0.80715034927E+03  0.87189952994E+03  0.31680452898E+03 0.  0.
         13    1    3    3    0    0 -0.11294800536E+03  0.12480540074E+03 -0.24420261822E+03  0.29659494047E+03  0.00000000000E+00 0.  1.
          1    1    3    3  501    0  0.11379070145E+03 -0.33420039400E+02 -0.56294773105E+03  0.57530458947E+03  0.00000000000E+00 0.  1.
         21    1    1    2  502  501 -0.84269609152E+00 -0.91385361337E+02 -0.14746370152E+03  0.17348641927E+03  0.00000000000E+00 0. -1.
<mgrwt>
<rscale>  1 0.30000000E+03</rscale>
<asrwt>0</asrwt>
<pdfrwt beam="1">  1        1 0.16504016E+00 0.30000000E+03</pdfrwt>
<pdfrwt beam="2">0</pdfrwt>
<totfact> 0.15110426E+01</totfact>
</mgrwt>
</event>
<event>
 6    1  0.1904828E-004  0.3000000E+03  0.7818608E-02  0.1093470E+00
          1   -1    0    0  502    0  0.00000000000E+00  0.00000000000E+00  0.37034218617E+02  0.37034218617E+02  0.00000000000E+00 0.  1.
         13   -1    0    0    0    0 -0.00000000000E+00 -0.00000000000E+00 -0.10000000000E+04  0.10000000000E+04  0.00000000000E+00 0.  1.
    9000005    2    1    2  501    0  0.78603986352E+01  0.74175422594E+01 -0.96792533312E+03  0.10251429212E+04  0.33752296613E+03 0.  0.
         13    1    3    3    0    0  0.74652844140E+02  0.89453871624E+01 -0.24098521614E+02  0.78954454172E+02  0.00000000000E+00 0.  1.
          3    1    3    3  501    0 -0.66792445505E+02 -0.15278449031E+01 -0.94382681151E+03  0.94618846707E+03  0.00000000000E+00 0.  1.
         21    1    1    2  502  501 -0.78603986352E+01 -0.74175422594E+01  0.49595517406E+01  0.11891297378E+02  0.00000000000E+00 0.  1.
<mgrwt>
<rscale>  1 0.30000000E+03</rscale>
<asrwt>0</asrwt>
<pdfrwt beam="1">  1        1 0.13467017E+00 0.30000000E+03</pdfrwt>
<pdfrwt beam="2">0</pdfrwt>
<totfact> 0.21589936E+01</totfact>
</mgrwt>
</event>
<event>
 6    1  0.1904828E-004  0.3000000E+03  0.7818608E-02  0.1093470E+00
          1   -1    0    0  502    0  0.00000000000E+00  0.00000000000E+00  0.38861630161E+02  0.38861630161E+02  0.00000000000E+00 0.  1.
         13   -1    0    0    0    0 -0.00000000000E+00 -0.00000000000E+00 -0.10000000000E+04  0.10000000000E+04  0.00000000000E+00 0.  1.
    9000005    2    1    2  501    0  0.10368858926E+02  0.43324147698E+02 -0.92490864251E+03  0.98144135368E+03  0.32524857987E+03 0.  0.
         13    1    3    3    0    0 -0.11027077187E+03 -0.86482917171E+02 -0.28717490416E+03  0.31954399332E+03  0.00000000000E+00 0.  1.
          3    1    3    3  501    0  0.12063963080E+03  0.12980706487E+03 -0.63773373836E+03  0.66189736036E+03  0.00000000000E+00 0.  1.
         21    1    1    2  502  501 -0.10368858926E+02 -0.43324147698E+02 -0.36229727325E+02  0.57420276482E+02  0.00000000000E+00 0.  1.
<mgrwt>
<rscale>  1 0.30000000E+03</rscale>
<asrwt>0</asrwt>
<pdfrwt beam="1">  1        1 0.14131532E+00 0.30000000E+03</pdfrwt>
<pdfrwt beam="2">0</pdfrwt>
<totfact> 0.19914142E+01</totfact>
</mgrwt>
</event>
<event>
 6    1  0.1904828E-004  0.3000000E+03  0.7818608E-02  0.1093470E+00
          1   -1    0    0  502    0  0.00000000000E+00  0.00000000000E+00  0.30082850849E+02  0.30082850849E+02  0.00000000000E+00 0.  1.
         13   -1    0    0    0    0 -0.00000000000E+00 -0.00000000000E+00 -0.10000000000E+04  0.10000000000E+04  0.00000000000E+00 0.  1.
    9000005    2    1    2  501    0  0.18466879600E+02 -0.88419615533E+01 -0.92174225371E+03  0.97773758863E+03  0.32548856204E+03 0.  0.
         13    1    3    3    0    0  0.61948191005E+02 -0.10495614854E+03 -0.82704564661E+03  0.83597719649E+03  0.00000000000E+00 0.  1.
          1    1    3    3  501    0 -0.43481311406E+02  0.96114186988E+02 -0.94696607109E+02  0.14176039214E+03  0.00000000000E+00 0.  1.
         21    1    1    2  502  501 -0.18466879600E+02  0.88419615533E+01 -0.48174895436E+02  0.52345262217E+02  0.00000000000E+00 0.  1.
<mgrwt>
<rscale>  1 0.30000000E+03</rscale>
<asrwt>0</asrwt>
<pdfrwt beam="1">  1        1 0.10939242E+00 0.30000000E+03</pdfrwt>
<pdfrwt beam="2">0</pdfrwt>
<totfact> 0.29958855E+01</totfact>
</mgrwt>
</event>
<event>
 6    1  0.1904828E-004  0.3000000E+03  0.7818608E-02  0.1093470E+00
          1   -1    0    0  502    0  0.00000000000E+00  0.00000000000E+00  0.29540494854E+02  0.29540494854E+02  0.00000000000E+00 0.  1.
         13   -1    0    0    0    0 -0.00000000000E+00 -0.00000000000E+00 -0.10000000000E+04  0.10000000000E+04  0.00000000000E+00 0.  1.
    9000005    2    1    2  501    0  0.77965589037E+01  0.88503790384E+01 -0.95926410493E+03  0.10132784985E+04  0.32620020991E+03 0.  0.
         13    1    3    3    0    0 -0.15055953142E+03 -0.66017805093E+00 -0.63067695168E+03  0.64839958800E+03  0.00000000000E+00 0.  1.
          3    1    3    3  501    0  0.15835609032E+03  0.95105570894E+01 -0.32858715324E+03  0.36487891048E+03  0.00000000000E+00 0.  1.
         21    1    1    2  502  501 -0.77965589037E+01 -0.88503790384E+01 -0.11195400220E+02  0.16261996370E+02  0.00000000000E+00 0. -1.
<mgrwt>
<rscale>  1 0.30000000E+03</rscale>
<asrwt>0</asrwt>
<pdfrwt beam="1">  1        1 0.10742021E+00 0.30000000E+03</pdfrwt>
<pdfrwt beam="2">0</pdfrwt>
<totfact> 0.30788650E+01</totfact>
</mgrwt>
</event>
<event>
 6    1  0.1904828E-004  0.3000000E+03  0.7818608E-02  0.1093470E+00
          1   -1    0    0  502    0  0.00000000000E+00  0.00000000000E+00  0.29991929739E+02  0.29991929739E+02  0.00000000000E+00 0.  1.
         13   -1    0    0    0    0 -0.00000000000E+00 -0.00000000000E+00 -0.10000000000E+04  0.10000000000E+04  0.00000000000E+00 0.  1.
    9000005    2    1    2  501    0 -0.50588715861E+01 -0.11899078518E+02 -0.96651669697E+03  0.10165990235E+04  0.31488389719E+03 0.  0.
         13    1    3    3    0    0  0.12898029994E+03  0.59286433713E+02 -0.65336330668E+03  0.66860631878E+03  0.00000000000E+00 0.  1.
          3    1    3    3  501    0 -0.13403917153E+03 -0.71185512232E+02 -0.31315339029E+03  0.34799270467E+03  0.00000000000E+00 0.  1.
         21    1    1    2  502  501  0.50588715861E+01  0.11899078518E+02 -0.34913732882E+01  0.13392906284E+02  0.00000000000E+00 0. -1.
<mgrwt>
<rscale>  1 0.30000000E+03</rscale>
<asrwt>0</asrwt>
<pdfrwt beam="1">  1        1 0.10906179E+00 0.30000000E+03</pdfrwt>
<pdfrwt beam="2">0</pdfrwt>
<totfact> 0.30095718E+01</totfact>
</mgrwt>
</event>
<event>
 6    1  0.3301083E-004  0.3000000E+03  0.7818608E-02  0.1093470E+00
          1   -1    0    0  502    0  0.00000000000E+00  0.00000000000E+00  0.56451394453E+02  0.56451394453E+02  0.00000000000E+00 0.  1.
         13   -1    0    0    0    0 -0.00000000000E+00 -0.00000000000E+00 -0.10000000000E+04  0.10000000000E+04  0.00000000000E+00 0.  1.
    9000005    2    1    2  501    0  0.11352044171E+02  0.15678788829E+01 -0.92766320283E+03  0.10368638175E+04  0.46302940622E+03 0.  0.
         13    1    3    3    0    0  0.32968137325E+02 -0.20163148838E+03 -0.21977727406E+03  0.30007366659E+03  0.00000000000E+00 0.  1.
          1    1    3    3  501    0 -0.21616093154E+02  0.20319936727E+03 -0.70788592877E+03  0.73679015092E+03  0.00000000000E+00 0.  1.
         21    1    1    2  502  501 -0.11352044171E+02 -0.15678788829E+01 -0.15885402718E+02  0.19587576945E+02  0.00000000000E+00 0. -1.
<mgrwt>
<rscale>  1 0.30000000E+03</rscale>
<asrwt>0</asrwt>
<pdfrwt beam="1">  1        1 0.20527823E+00 0.30000000E+03</pdfrwt>
<pdfrwt beam="2">0</pdfrwt>
<totfact> 0.96693863E+00</totfact>
</mgrwt>
</event>
<event>
 6    1  0.1904828E-004  0.3000000E+03  0.7818608E-02  0.1093470E+00
          1   -1    0    0  502    0  0.00000000000E+00  0.00000000000E+00  0.31904710844E+02  0.31904710844E+02  0.00000000000E+00 0.  1.
         13   -1    0    0    0    0 -0.00000000000E+00 -0.00000000000E+00 -0.10000000000E+04  0.10000000000E+04  0.00000000000E+00 0.  1.
    9000005    2    1    2  501    0  0.16395068044E+02  0.69942954759E+01 -0.95908709695E+03  0.10119330822E+04  0.32224646594E+03 0.  0.
         13    1    3    3    0    0 -0.11922760068E+03  0.99062208419E+02 -0.54391625149E+03  0.56557354123E+03  0.00000000000E+00 0.  1.
          3    1    3    3  501    0  0.13562266872E+03 -0.92067912943E+02 -0.41517084545E+03  0.44635954093E+03  0.00000000000E+00 0.  1.
         21    1    1    2  502  501 -0.16395068044E+02 -0.69942954759E+01 -0.90081922090E+01  0.19971628683E+02  0.00000000000E+00 0.  1.
<mgrwt>
<rscale>  1 0.30000000E+03</rscale>
<asrwt>0</asrwt>
<pdfrwt beam="1">  1        1 0.11601737E+00 0.30000000E+03</pdfrwt>
<pdfrwt beam="2">0</pdfrwt>
<totfact> 0.27392790E+01</totfact>
</mgrwt>
</event>
<event>
 6    1  0.1904828E-004  0.3000000E+03  0.7818608E-02  0.1093470E+00
          1   -1    0    0  502    0  0.00000000000E+00  0.00000000000E+00  0.40834935356E+02  0.40834935356E+02  0.00000000000E+00 0.  1.
         13   -1    0    0    0    0 -0.00000000000E+00 -0.00000000000E+00 -0.10000000000E+04  0.10000000000E+04  0.00000000000E+00 0.  1.
    9000005    2    1    2  501    0 -0.26363329349E+02 -0.15738014667E+02 -0.95440676283E+03  0.10097648263E+04  0.32831391270E+03 0.  0.
         13    1    3    3    0    0 -0.74472586440E+02  0.44002783328E+01 -0.95469952169E+03  0.95760989202E+03  0.00000000000E+00 0.  1.
          1    1    3    3  501    0  0.48109257091E+02 -0.20138293000E+02  0.29275886002E+00  0.52154934288E+02  0.00000000000E+00 0.  1.
         21    1    1    2  502  501  0.26363329349E+02  0.15738014667E+02 -0.47583018142E+01  0.31070109047E+02  0.00000000000E+00 0.  1.
<mgrwt>
<rscale>  1 0.30000000E+03</rscale>
<asrwt>0</asrwt>
<pdfrwt beam="1">  1        1 0.14849099E+00 0.30000000E+03</pdfrwt>
<pdfrwt beam="2">0</pdfrwt>
<totfact> 0.18285868E+01</totfact>
</mgrwt>
</event>
<event>
 6    1  0.1904828E-004  0.3000000E+03  0.7818608E-02  0.1093470E+00
          1   -1    0    0  502    0  0.00000000000E+00  0.00000000000E+00  0.38602318894E+02  0.38602318894E+02  0.00000000000E+00 0.  1.
         13   -1    0    0    0    0 -0.00000000000E+00 -0.00000000000E+00 -0.10000000000E+04  0.10000000000E+04  0.00000000000E+00 0.  1.
    9000005    2    1    2  501    0  0.13257382854E+02  0.17722116814E+02 -0.95756137005E+03  0.10161401528E+04  0.33930399501E+03 0.  0.
         13    1    3    3    0    0 -0.76199184420E+02  0.83453686565E+02 -0.98422964303E+02  0.14985964570E+03  0.00000000000E+00 0.  1.
          1    1    3    3  501    0  0.89456567274E+02 -0.65731569751E+02 -0.85913840575E+03  0.86628050707E+03  0.00000000000E+00 0.  1.
         21    1    1    2  502  501 -0.13257382854E+02 -0.17722116814E+02 -0.38363110513E+01  0.22462166125E+02  0.00000000000E+00 0. -1.
<mgrwt>
<rscale>  1 0.30000000E+03</rscale>
<asrwt>0</asrwt>
<pdfrwt beam="1">  1        1 0.14037236E+00 0.30000000E+03</pdfrwt>
<pdfrwt beam="2">0</pdfrwt>
<totfact> 0.20141529E+01</totfact>
</mgrwt>
</event>
<event>
 6    1  0.1904828E-004  0.3000000E+03  0.7818608E-02  0.1093470E+00
          1   -1    0    0  502    0  0.00000000000E+00  0.00000000000E+00  0.33020370103E+02  0.33020370103E+02  0.00000000000E+00 0.  1.
         13   -1    0    0    0    0 -0.00000000000E+00 -0.00000000000E+00 -0.10000000000E+04  0.10000000000E+04  0.00000000000E+00 0.  1.
    9000005    2    1    2  501    0 -0.33920279284E+02  0.31893589456E+02 -0.94438093098E+03  0.98126626313E+03  0.26241255683E+03 0.  0.
         13    1    3    3    0    0 -0.61734514819E+02 -0.10072093672E+03 -0.29257075460E+03  0.31552100383E+03  0.00000000000E+00 0.  1.
          3    1    3    3  501    0  0.27814235535E+02  0.13261452618E+03 -0.65181017638E+03  0.66574525930E+03  0.00000000000E+00 0.  1.
         21    1    1    2  502  501  0.33920279284E+02 -0.31893589456E+02 -0.22598698921E+02  0.51754106968E+02  0.00000000000E+00 0.  1.
<mgrwt>
<rscale>  1 0.30000000E+03</rscale>
<asrwt>0</asrwt>
<pdfrwt beam="1">  1        1 0.12007433E+00 0.30000000E+03</pdfrwt>
<pdfrwt beam="2">0</pdfrwt>
<totfact> 0.25970882E+01</totfact>
</mgrwt>
</event>
<event>
 6    1  0.1904828E-004  0.3000000E+03  0.7818608E-02  0.1093470E+00
          1   -1    0    0  502    0  0.00000000000E+00  0.00000000000E+00  0.36716163090E+02  0.36716163090E+02  0.00000000000E+00 0.  1.
         13   -1    0    0    0    0 -0.00000000000E+00 -0.00000000000E+00 -0.10000000000E+04  0.10000000000E+04  0.00000000000E+00 0.  1.
    9000005    2    1    2  501    0 -0.11149164925E+02 -0.97524516622E+01 -0.96867798029E+03  0.10209519322E+04  0.32215897352E+03 0.  0.
         13    1    3    3    0    0 -0.75527437515E+02  0.93824021946E+02 -0.14593869984E+03  0.18922326766E+03  0.00000000000E+00 0.  1.
          1    1    3    3  501    0  0.64378272589E+02 -0.10357647361E+03 -0.82273928045E+03  0.83172866457E+03  0.00000000000E+00 0.  1.
         21    1    1    2  502  501  0.11149164925E+02  0.97524516622E+01  0.53941433816E+01  0.15764230865E+02  0.00000000000E+00 0.  1.
<mgrwt>
<rscale>  1 0.30000000E+03</rscale>
<asrwt>0</asrwt>
<pdfrwt beam="1">  1        1 0.13351360E+00 0.30000000E+03</pdfrwt>
<pdfrwt beam="2">0</pdfrwt>
<totfact> 0.21900254E+01</totfact>
</mgrwt>
</event>
<event>
 6    1  0.1904828E-004  0.3000000E+03  0.7818608E-02  0.1093470E+00
          1   -1    0    0  502    0  0.00000000000E+00  0.00000000000E+00  0.30835235104E+02  0.30835235104E+02  0.00000000000E+00 0.  1.
         13   -1    0    0    0    0 -0.00000000000E+00 -0.00000000000E+00 -0.10000000000E+04  0.10000000000E+04  0.00000000000E+00 0.  1.
    9000005    2    1    2  501    0 -0.11084627704E+02  0.12868609280E+02 -0.96382672467E+03  0.10130317312E+04  0.31142071743E+03 0.  0.
         13    1    3    3    0    0  0.69467206057E+02 -0.10102605474E+03 -0.73408607470E+03  0.74425420491E+03  0.00000000000E+00 0.  1.
          1    1    3    3  501    0 -0.80551833762E+02  0.11389466402E+03 -0.22974064997E+03  0.26877752634E+03  0.00000000000E+00 0.  1.
         21    1    1    2  502  501  0.11084627704E+02 -0.12868609280E+02 -0.53380402231E+01  0.17803503857E+02  0.00000000000E+00 0. -1.
<mgrwt>
<rscale>  1 0.30000000E+03</rscale>
<asrwt>0</asrwt>
<pdfrwt beam="1">  1        1 0.11212836E+00 0.30000000E+03</pdfrwt>
<pdfrwt beam="2">0</pdfrwt>
<totfact> 0.28859449E+01</totfact>
</mgrwt>
</event>
<event>
 6    1  0.1904828E-004  0.3000000E+03  0.7818608E-02  0.1093470E+00
          1   -1    0    0  502    0  0.00000000000E+00  0.00000000000E+00  0.33540191007E+02  0.33540191007E+02  0.00000000000E+00 0.  1.
         13   -1    0    0    0    0 -0.00000000000E+00 -0.00000000000E+00 -0.10000000000E+04  0.10000000000E+04  0.00000000000E+00 0.  1.
    9000005    2    1    2  501    0  0.83357847780E+01 -0.10996422231E+02 -0.96424350256E+03  0.10195645471E+04  0.33099233642E+03 0.  0.
         13    1    3    3    0    0  0.42067249743E+02 -0.65068838547E+02 -0.29902906311E+02  0.83052941289E+02  0.00000000000E+00 0.  1.
          3    1    3    3  501    0 -0.33731464965E+02  0.54072416316E+02 -0.93434059625E+03  0.93651160576E+03  0.00000000000E+00 0.  1.
         21    1    1    2  502  501 -0.83357847780E+01  0.10996422231E+02 -0.22163064357E+01  0.13975643955E+02  0.00000000000E+00 0.  1.
<mgrwt>
<rscale>  1 0.30000000E+03</rscale>
<asrwt>0</asrwt>
<pdfrwt beam="1">  1        1 0.12196459E+00 0.30000000E+03</pdfrwt>
<pdfrwt beam="2">0</pdfrwt>
<totfact> 0.25342278E+01</totfact>
</mgrwt>
</event>
<event>
 6    1  0.1904828E-004  0.3000000E+03  0.7818608E-02  0.1093470E+00
          1   -1    0    0  502    0  0.00000000000E+00  0.00000000000E+00  0.30475049637E+02  0.30475049637E+02  0.00000000000E+00 0.  1.
         13   -1    0    0    0    0 -0.00000000000E+00 -0.00000000000E+00 -0.10000000000E+04  0.10000000000E+04  0.00000000000E+00 0.  1.
    9000005    2    1    2  501    0 -0.14354756922E+02 -0.45184332931E+01 -0.96141836784E+03  0.10133814261E+04  0.31998462688E+03 0.  0.
         13    1    3    3    0    0 -0.12179292551E+03 -0.34952737758E+01 -0.14268948393E+03  0.18763267964E+03  0.00000000000E+00 0.  1.
          3    1    3    3  501    0  0.10743816859E+03 -0.10231595173E+01 -0.81872888391E+03  0.82574874646E+03  0.00000000000E+00 0.  1.
         21    1    1    2  502  501  0.14354756922E+02  0.45184332931E+01 -0.81065825195E+01  0.17093623544E+02  0.00000000000E+00 0.  1.
<mgrwt>
<rscale>  1 0.30000000E+03</rscale>
<asrwt>0</asrwt>
<pdfrwt beam="1">  1        1 0.11081860E+00 0.30000000E+03</pdfrwt>
<pdfrwt beam="2">0</pdfrwt>
<totfact> 0.29378506E+01</totfact>
</mgrwt>
</event>
<event>
 6    1  0.1904828E-004  0.3000000E+03  0.7818608E-02  0.1093470E+00
          1   -1    0    0  502    0  0.00000000000E+00  0.00000000000E+00  0.31830742339E+02  0.31830742339E+02  0.00000000000E+00 0.  1.
         13   -1    0    0    0    0 -0.00000000000E+00 -0.00000000000E+00 -0.10000000000E+04  0.10000000000E+04  0.00000000000E+00 0.  1.
    9000005    2    1    2  501    0  0.19728723152E+01 -0.10984259055E+02 -0.96025865535E+03  0.10181514221E+04  0.33824707990E+03 0.  0.
         13    1    3    3    0    0  0.14888602319E+03 -0.64890611814E+02 -0.31764743920E+03  0.35676005246E+03  0.00000000000E+00 0.  1.
          1    1    3    3  501    0 -0.14691315087E+03  0.53906352759E+02 -0.64261121615E+03  0.66139136968E+03  0.00000000000E+00 0.  1.
         21    1    1    2  502  501 -0.19728723152E+01  0.10984259055E+02 -0.79106023115E+01  0.13679320199E+02  0.00000000000E+00 0.  1.
<mgrwt>
<rscale>  1 0.30000000E+03</rscale>
<asrwt>0</asrwt>
<pdfrwt beam="1">  1        1 0.11574840E+00 0.30000000E+03</pdfrwt>
<pdfrwt beam="2">0</pdfrwt>
<totfact> 0.27490810E+01</totfact>
</mgrwt>
</event>
<event>
 6    1  0.1904828E-004  0.3000000E+03  0.7818608E-02  0.1093470E+00
          1   -1    0    0  502    0  0.00000000000E+00  0.00000000000E+00  0.31129339369E+02  0.31129339369E+02  0.00000000000E+00 0.  1.
         13   -1    0    0    0    0 -0.00000000000E+00 -0.00000000000E+00 -0.10000000000E+04  0.10000000000E+04  0.00000000000E+00 0.  1.
    9000005    2    1    2  501    0  0.86182203898E+01  0.70911061353E+01 -0.96702721493E+03  0.10198175844E+04  0.32366914199E+03 0.  0.
         13    1    3    3    0    0 -0.47467463855E+02 -0.32286799363E+00 -0.96183566703E+03  0.96300629009E+03  0.00000000000E+00 0.  1.
          1    1    3    3  501    0  0.56085684245E+02  0.74139741289E+01 -0.51915479011E+01  0.56811294293E+02  0.00000000000E+00 0.  1.
         21    1    1    2  502  501 -0.86182203898E+01 -0.70911061353E+01 -0.18434456959E+01  0.11311754990E+02  0.00000000000E+00 0. -1.
<mgrwt>
<rscale>  1 0.30000000E+03</rscale>
<asrwt>0</asrwt>
<pdfrwt beam="1">  1        1 0.11319784E+00 0.30000000E+03</pdfrwt>
<pdfrwt beam="2">0</pdfrwt>
<totfact> 0.28445228E+01</totfact>
</mgrwt>
</event>
<event>
 6    1  0.1904828E-004  0.3000000E+03  0.7818608E-02  0.1093470E+00
          3   -1    0    0  502    0  0.00000000000E+00  0.00000000000E+00  0.39094726031E+02  0.39094726031E+02  0.00000000000E+00 0.  1.
         13   -1    0    0    0    0 -0.00000000000E+00 -0.00000000000E+00 -0.10000000000E+04  0.10000000000E+04  0.00000000000E+00 0.  1.
    9000005    2    1    2  501    0 -0.56050362337E+01  0.87320116599E+01 -0.97446374106E+03  0.10220214578E+04  0.30796203185E+03 0.  0.
         13    1    3    3    0    0  0.94545001749E+02 -0.11492963607E+03 -0.48870977394E+03  0.51086673580E+03  0.00000000000E+00 0.  1.
          3    1    3    3  501    0 -0.10015003798E+03  0.12366164773E+03 -0.48575396712E+03  0.51115472198E+03  0.00000000000E+00 0.  1.
         21    1    1    2  502  501  0.56050362337E+01 -0.87320116599E+01  0.13558467093E+02  0.17073268250E+02  0.00000000000E+00 0. -1.
<mgrwt>
<rscale>  1 0.30000000E+03</rscale>
<asrwt>0</asrwt>
<pdfrwt beam="1">  1        3 0.14216294E+00 0.30000000E+03</pdfrwt>
<pdfrwt beam="2">0</pdfrwt>
<totfact> 0.12572160E+00</totfact>
</mgrwt>
</event>
<event>
 6    1  0.1904828E-004  0.3000000E+03  0.7818608E-02  0.1093470E+00
          1   -1    0    0  502    0  0.00000000000E+00  0.00000000000E+00  0.34678686980E+02  0.34678686980E+02  0.00000000000E+00 0.  1.
         13   -1    0    0    0    0 -0.00000000000E+00 -0.00000000000E+00 -0.10000000000E+04  0.10000000000E+04  0.00000000000E+00 0.  1.
    9000005    2    1    2  501    0  0.77212574564E+01  0.12648460447E+02 -0.95299405359E+03  0.10154027254E+04  0.35017913598E+03 0.  0.
         13    1    3    3    0    0 -0.97755541531E+01  0.31395679191E+02 -0.97860673424E+03  0.97915902203E+03  0.00000000000E+00 0.  1.
          3    1    3    3  501    0  0.17496811610E+02 -0.18747218744E+02  0.25612680642E+02  0.36243703409E+02  0.00000000000E+00 0.  1.
         21    1    1    2  502  501 -0.77212574564E+01 -0.12648460447E+02 -0.12327259426E+02  0.19275961541E+02  0.00000000000E+00 0. -1.
<mgrwt>
<rscale>  1 0.30000000E+03</rscale>
<asrwt>0</asrwt>
<pdfrwt beam="1">  1        1 0.12610458E+00 0.30000000E+03</pdfrwt>
<pdfrwt beam="2">0</pdfrwt>
<totfact> 0.24033346E+01</totfact>
</mgrwt>
</event>
<event>
 6    1  0.1904828E-004  0.3000000E+03  0.7818608E-02  0.1093470E+00
          3   -1    0    0  502    0  0.00000000000E+00  0.00000000000E+00  0.22547706756E+02  0.22547706756E+02  0.00000000000E+00 0.  1.
         13   -1    0    0    0    0 -0.00000000000E+00 -0.00000000000E+00 -0.10000000000E+04  0.10000000000E+04  0.00000000000E+00 0.  1.
    9000005    2    1    2  501    0  0.46550417673E+02  0.62298833771E+01 -0.90548659840E+03  0.93661276586E+03  0.23480149160E+03 0.  0.
         13    1    3    3    0    0 -0.15934551379E+02 -0.75446666098E+02 -0.72335998442E+03  0.72745843620E+03  0.00000000000E+00 0.  1.
          3    1    3    3  501    0  0.62484969051E+02  0.81676549475E+02 -0.18212661399E+03  0.20915432966E+03  0.00000000000E+00 0.  1.
         21    1    1    2  502  501 -0.46550417673E+02 -0.62298833771E+01 -0.71965694842E+02  0.85934940894E+02  0.00000000000E+00 0. -1.
<mgrwt>
<rscale>  1 0.30000000E+03</rscale>
<asrwt>0</asrwt>
<pdfrwt beam="1">  1        3 0.81991834E-01 0.30000000E+03</pdfrwt>
<pdfrwt beam="2">0</pdfrwt>
<totfact> 0.63386051E+00</totfact>
</mgrwt>
</event>
<event>
 6    1  0.1904828E-004  0.3000000E+03  0.7818608E-02  0.1093470E+00
          1   -1    0    0  502    0  0.00000000000E+00  0.00000000000E+00  0.56229566749E+02  0.56229566749E+02  0.00000000000E+00 0.  1.
         13   -1    0    0    0    0 -0.00000000000E+00 -0.00000000000E+00 -0.10000000000E+04  0.10000000000E+04  0.00000000000E+00 0.  1.
    9000005    2    1    2  501    0  0.10001582637E+02  0.57548785706E+02 -0.94250612497E+03  0.99780446198E+03  0.32231049370E+03 0.  0.
         13    1    3    3    0    0  0.86580997631E+02  0.14524779883E+03 -0.29596879753E+03  0.34086760087E+03  0.00000000000E+00 0.  1.
          3    1    3    3  501    0 -0.76579414994E+02 -0.87699013123E+02 -0.64653732745E+03  0.65693686111E+03  0.00000000000E+00 0.  1.
         21    1    1    2  502  501 -0.10001582637E+02 -0.57548785706E+02 -0.12643082794E+01  0.58425104766E+02  0.00000000000E+00 0.  1.
<mgrwt>
<rscale>  1 0.30000000E+03</rscale>
<asrwt>0</asrwt>
<pdfrwt beam="1">  1        1 0.20447158E+00 0.30000000E+03</pdfrwt>
<pdfrwt beam="2">0</pdfrwt>
<totfact> 0.97548329E+00</totfact>
</mgrwt>
</event>
<event>
 6    1  0.1904828E-004  0.3000000E+03  0.7818608E-02  0.1093470E+00
          3   -1    0    0  502    0  0.00000000000E+00  0.00000000000E+00  0.41537765183E+02  0.41537765183E+02  0.00000000000E+00 0.  1.
         13   -1    0    0    0    0 -0.00000000000E+00 -0.00000000000E+00 -0.10000000000E+04  0.10000000000E+04  0.00000000000E+00 0.  1.
    9000005    2    1    2  501    0 -0.49349899821E+02 -0.40638680917E+02 -0.87594684102E+03  0.93715527042E+03  0.32694069430E+03 0.  0.
         13    1    3    3    0    0 -0.89285826672E+02 -0.86005192102E+01 -0.88113986705E+03  0.88569373549E+03  0.00000000000E+00 0.  1.
          1    1    3    3  501    0  0.39935926851E+02 -0.32038161706E+02  0.51930260268E+01  0.51461534939E+02  0.00000000000E+00 0.  1.
         21    1    1    2  502  501  0.49349899821E+02  0.40638680917E+02 -0.82515393795E+02  0.10438249476E+03  0.00000000000E+00 0. -1.
<mgrwt>
<rscale>  1 0.30000000E+03</rscale>
<asrwt>0</asrwt>
<pdfrwt beam="1">  1        3 0.15104674E+00 0.30000000E+03</pdfrwt>
<pdfrwt beam="2">0</pdfrwt>
<totfact> 0.95746441E-01</totfact>
</mgrwt>
</event>
<event>
 6    1  0.1904828E-004  0.3000000E+03  0.7818608E-02  0.1093470E+00
          1   -1    0    0  502    0  0.00000000000E+00  0.00000000000E+00  0.31639626916E+02  0.31639626916E+02  0.00000000000E+00 0.  1.
         13   -1    0    0    0    0 -0.00000000000E+00 -0.00000000000E+00 -0.10000000000E+04  0.10000000000E+04  0.00000000000E+00 0.  1.
    9000005    2    1    2  501    0 -0.12230188689E+02 -0.67930674163E+01 -0.96140089194E+03  0.10160140819E+04  0.32832486389E+03 0.  0.
         13    1    3    3    0    0  0.55811013482E+02  0.13790812633E+03 -0.29120884916E+03  0.32701087805E+03  0.00000000000E+00 0.  1.
          1    1    3    3  501    0 -0.68041202171E+02 -0.14470119375E+03 -0.67019204278E+03  0.68900320381E+03  0.00000000000E+00 0.  1.
         21    1    1    2  502  501  0.12230188689E+02  0.67930674163E+01 -0.69594811464E+01  0.15625545050E+02  0.00000000000E+00 0. -1.
<mgrwt>
<rscale>  1 0.30000000E+03</rscale>
<asrwt>0</asrwt>
<pdfrwt beam="1">  1        1 0.11505343E+00 0.30000000E+03</pdfrwt>
<pdfrwt beam="2">0</pdfrwt>
<totfact> 0.27746345E+01</totfact>
</mgrwt>
</event>
<event>
 6    1  0.1904828E-004  0.3000000E+03  0.7818608E-02  0.1093470E+00
          1   -1    0    0  502    0  0.00000000000E+00  0.00000000000E+00  0.42556089768E+02  0.42556089768E+02  0.00000000000E+00 0.  1.
         13   -1    0    0    0    0 -0.00000000000E+00 -0.00000000000E+00 -0.10000000000E+04  0.10000000000E+04  0.00000000000E+00 0.  1.
    9000005    2    1    2  501    0 -0.14059066339E+01  0.13731853634E+02 -0.97338020947E+03  0.10214727786E+04  0.30943022603E+03 0.  0.
         13    1    3    3    0    0 -0.41270521562E+02  0.13901383054E+03 -0.27566785462E+03  0.31148172836E+03  0.00000000000E+00 0.  1.
          3    1    3    3  501    0  0.39864614928E+02 -0.12528197690E+03 -0.69771235485E+03  0.70999105021E+03  0.00000000000E+00 0.  1.
         21    1    1    2  502  501  0.14059066339E+01 -0.13731853634E+02  0.15936299241E+02  0.21083311200E+02  0.00000000000E+00 0.  1.
<mgrwt>
<rscale>  1 0.30000000E+03</rscale>
<asrwt>0</asrwt>
<pdfrwt beam="1">  1        1 0.15474974E+00 0.30000000E+03</pdfrwt>
<pdfrwt beam="2">0</pdfrwt>
<totfact> 0.16999064E+01</totfact>
</mgrwt>
</event>
<event>
 6    1  0.1904828E-004  0.3000000E+03  0.7818608E-02  0.1093470E+00
          1   -1    0    0  502    0  0.00000000000E+00  0.00000000000E+00  0.77646109961E+02  0.77646109961E+02  0.00000000000E+00 0.  1.
         13   -1    0    0    0    0 -0.00000000000E+00 -0.00000000000E+00 -0.10000000000E+04  0.10000000000E+04  0.00000000000E+00 0.  1.
    9000005    2    1    2  501    0  0.11234955222E+02  0.10429738799E+02 -0.97870113134E+03  0.10192507739E+04  0.28422039327E+03 0.  0.
         13    1    3    3    0    0 -0.83940571278E+02  0.75131700815E+02 -0.18031786208E+03  0.21261543537E+03  0.00000000000E+00 0.  1.
          3    1    3    3  501    0  0.95175526500E+02 -0.64701962016E+02 -0.79838326926E+03  0.80663533854E+03  0.00000000000E+00 0.  1.
         21    1    1    2  502  501 -0.11234955222E+02 -0.10429738799E+02  0.56347241303E+02  0.58395336053E+02  0.00000000000E+00 0.  1.
<mgrwt>
<rscale>  1 0.30000000E+03</rscale>
<asrwt>0</asrwt>
<pdfrwt beam="1">  1        1 0.28235009E+00 0.30000000E+03</pdfrwt>
<pdfrwt beam="2">0</pdfrwt>
<totfact> 0.42099849E+00</totfact>
</mgrwt>
</event>
<event>
 6    1  0.1904828E-004  0.3000000E+03  0.7818608E-02  0.1093470E+00
          1   -1    0    0  502    0  0.00000000000E+00  0.00000000000E+00  0.38339652483E+02  0.38339652483E+02  0.00000000000E+00 0.  1.
         13   -1    0    0    0    0 -0.00000000000E+00 -0.00000000000E+00 -0.10000000000E+04  0.10000000000E+04  0.00000000000E+00 0.  1.
    9000005    2    1    2  501    0  0.11275158405E+02 -0.13366884722E+02 -0.96354925155E+03  0.10207507138E+04  0.33645067518E+03 0.  0.
         13    1    3    3    0    0  0.77183054412E+02 -0.13682670661E+02 -0.95029515214E+03  0.95352258261E+03  0.00000000000E+00 0.  1.
          3    1    3    3  501    0 -0.65907896007E+02  0.31578593900E+00 -0.13254099408E+02  0.67228131225E+02  0.00000000000E+00 0.  1.
         21    1    1    2  502  501 -0.11275158405E+02  0.13366884722E+02  0.18889040352E+01  0.17588938646E+02  0.00000000000E+00 0.  1.
<mgrwt>
<rscale>  1 0.30000000E+03</rscale>
<asrwt>0</asrwt>
<pdfrwt beam="1">  1        1 0.13941721E+00 0.30000000E+03</pdfrwt>
<pdfrwt beam="2">0</pdfrwt>
<totfact> 0.20375239E+01</totfact>
</mgrwt>
</event>
<event>
 6    1  0.1904828E-004  0.3000000E+03  0.7818608E-02  0.1093470E+00
          1   -1    0    0  502    0  0.00000000000E+00  0.00000000000E+00  0.50528640015E+02  0.50528640015E+02  0.00000000000E+00 0.  1.
         13   -1    0    0    0    0 -0.00000000000E+00 -0.00000000000E+00 -0.10000000000E+04  0.10000000000E+04  0.00000000000E+00 0.  1.
    9000005    2    1    2  501    0 -0.40955043816E+02  0.20854190046E+02 -0.95460754748E+03  0.10042837130E+04  0.30854172093E+03 0.  0.
         13    1    3    3    0    0 -0.93751405255E+02 -0.28181404435E+02 -0.79214984917E+02  0.12593066099E+03  0.00000000000E+00 0.  1.
          3    1    3    3  501    0  0.52796361439E+02  0.49035594481E+02 -0.87539256256E+03  0.87835305196E+03  0.00000000000E+00 0.  1.
         21    1    1    2  502  501  0.40955043816E+02 -0.20854190046E+02  0.51361874926E+01  0.46244927056E+02  0.00000000000E+00 0.  1.
<mgrwt>
<rscale>  1 0.30000000E+03</rscale>
<asrwt>0</asrwt>
<pdfrwt beam="1">  1        1 0.18374090E+00 0.30000000E+03</pdfrwt>
<pdfrwt beam="2">0</pdfrwt>
<totfact> 0.12254191E+01</totfact>
</mgrwt>
</event>
<event>
 6    1  0.1904828E-004  0.3000000E+03  0.7818608E-02  0.1093470E+00
          1   -1    0    0  502    0  0.00000000000E+00  0.00000000000E+00  0.30429785436E+02  0.30429785436E+02  0.00000000000E+00 0.  1.
         13   -1    0    0    0    0 -0.00000000000E+00 -0.00000000000E+00 -0.10000000000E+04  0.10000000000E+04  0.00000000000E+00 0.  1.
    9000005    2    1    2  501    0 -0.20190409205E+02 -0.74638863713E+01 -0.92325101983E+03  0.97935307818E+03  0.32600098757E+03 0.  0.
         13    1    3    3    0    0  0.94131801277E+02  0.88413694518E+02 -0.69338232546E+03  0.70530619355E+03  0.00000000000E+00 0.  1.
          1    1    3    3  501    0 -0.11432221048E+03 -0.95877580889E+02 -0.22986869436E+03  0.27404688463E+03  0.00000000000E+00 0.  1.
         21    1    1    2  502  501  0.20190409205E+02  0.74638863713E+01 -0.46319194736E+02  0.51076707261E+02  0.00000000000E+00 0.  1.
<mgrwt>
<rscale>  1 0.30000000E+03</rscale>
<asrwt>0</asrwt>
<pdfrwt beam="1">  1        1 0.11065400E+00 0.30000000E+03</pdfrwt>
<pdfrwt beam="2">0</pdfrwt>
<totfact> 0.29444667E+01</totfact>
</mgrwt>
</event>
<event>
 6    1  0.1904828E-004  0.3000000E+03  0.7818608E-02  0.1093470E+00
          1   -1    0    0  502    0  0.00000000000E+00  0.00000000000E+00  0.28212748905E+02  0.28212748905E+02  0.00000000000E+00 0.  1.
         13   -1    0    0    0    0 -0.00000000000E+00 -0.00000000000E+00 -0.10000000000E+04  0.10000000000E+04  0.00000000000E+00 0.  1.
    9000005    2    1    2  501    0 -0.56021752460E+01 -0.95643476681E+01 -0.95295815355E+03  0.10063633547E+04  0.32328794921E+03 0.  0.
         13    1    3    3    0    0  0.15492799545E+03 -0.29224759339E+02 -0.39082338477E+03  0.42142578043E+03  0.00000000000E+00 0.  1.
          3    1    3    3  501    0 -0.16053017069E+03  0.19660411671E+02 -0.56213476878E+03  0.58493757425E+03  0.00000000000E+00 0.  1.
         21    1    1    2  502  501  0.56021752460E+01  0.95643476681E+01 -0.18829097545E+02  0.21849394229E+02  0.00000000000E+00 0.  1.
<mgrwt>
<rscale>  1 0.30000000E+03</rscale>
<asrwt>0</asrwt>
<pdfrwt beam="1">  1        1 0.10259203E+00 0.30000000E+03</pdfrwt>
<pdfrwt beam="2">0</pdfrwt>
<totfact> 0.32965054E+01</totfact>
</mgrwt>
</event>
<event>
 6    1  0.1904828E-004  0.3000000E+03  0.7818608E-02  0.1093470E+00
          1   -1    0    0  502    0  0.00000000000E+00  0.00000000000E+00  0.21199468107E+02  0.21199468107E+02  0.00000000000E+00 0.  1.
         13   -1    0    0    0    0 -0.00000000000E+00 -0.00000000000E+00 -0.10000000000E+04  0.10000000000E+04  0.00000000000E+00 0.  1.
    9000005    2    1    2  501    0 -0.13047784442E+02 -0.12783633810E+02 -0.96138828082E+03  0.99596353223E+03  0.25950388255E+03 0.  0.
         13    1    3    3    0    0 -0.13236892763E+02  0.89955660201E+02 -0.79659404830E+03  0.80176637116E+03  0.00000000000E+00 0.  1.
          1    1    3    3  501    0  0.18910832018E+00 -0.10273929401E+03 -0.16479423252E+03  0.19419716107E+03  0.00000000000E+00 0.  1.
         21    1    1    2  502  501  0.13047784442E+02  0.12783633810E+02 -0.17412251072E+02  0.25235935878E+02  0.00000000000E+00 0.  1.
<mgrwt>
<rscale>  1 0.30000000E+03</rscale>
<asrwt>0</asrwt>
<pdfrwt beam="1">  1        1 0.77089137E-01 0.30000000E+03</pdfrwt>
<pdfrwt beam="2">0</pdfrwt>
<totfact> 0.49427436E+01</totfact>
</mgrwt>
</event>
<event>
 6    1  0.1904828E-004  0.3000000E+03  0.7818608E-02  0.1093470E+00
          1   -1    0    0  502    0  0.00000000000E+00  0.00000000000E+00  0.46027666642E+02  0.46027666642E+02  0.00000000000E+00 0.  1.
         13   -1    0    0    0    0 -0.00000000000E+00 -0.00000000000E+00 -0.10000000000E+04  0.10000000000E+04  0.00000000000E+00 0.  1.
    9000005    2    1    2  501    0 -0.43361586421E+02  0.65541278058E+02 -0.73604859771E+03  0.81436705094E+03  0.33948530037E+03 0.  0.
         13    1    3    3    0    0 -0.89199584881E+02  0.97402289319E+02 -0.74605368952E+03  0.75765419523E+03  0.00000000000E+00 0.  1.
          1    1    3    3  501    0  0.45837998460E+02 -0.31861011261E+02  0.10005091805E+02  0.56712855716E+02  0.00000000000E+00 0.  1.
         21    1    1    2  502  501  0.43361586421E+02 -0.65541278058E+02 -0.21792373565E+03  0.23166061570E+03  0.00000000000E+00 0.  1.
<mgrwt>
<rscale>  1 0.30000000E+03</rscale>
<asrwt>0</asrwt>
<pdfrwt beam="1">  1        1 0.16737369E+00 0.30000000E+03</pdfrwt>
<pdfrwt beam="2">0</pdfrwt>
<totfact> 0.14716589E+01</totfact>
</mgrwt>
</event>
<event>
 6    1  0.1904828E-004  0.3000000E+03  0.7818608E-02  0.1093470E+00
          1   -1    0    0  502    0  0.00000000000E+00  0.00000000000E+00  0.36525406411E+02  0.36525406411E+02  0.00000000000E+00 0.  1.
         13   -1    0    0    0    0 -0.00000000000E+00 -0.00000000000E+00 -0.10000000000E+04  0.10000000000E+04  0.00000000000E+00 0.  1.
    9000005    2    1    2  501    0  0.10865071558E+02  0.33933559122E+02 -0.94090541974E+03  0.99434835314E+03  0.31961868261E+03 0.  0.
         13    1    3    3    0    0  0.13537572016E+03 -0.43890979768E+02 -0.24688216372E+03  0.28496281595E+03  0.00000000000E+00 0.  1.
          1    1    3    3  501    0 -0.12451064860E+03  0.77824538889E+02 -0.69402325603E+03  0.70938553719E+03  0.00000000000E+00 0.  1.
         21    1    1    2  502  501 -0.10865071558E+02 -0.33933559122E+02 -0.22569173846E+02  0.42177053272E+02  0.00000000000E+00 0.  1.
<mgrwt>
<rscale>  1 0.30000000E+03</rscale>
<asrwt>0</asrwt>
<pdfrwt beam="1">  1        1 0.13281994E+00 0.30000000E+03</pdfrwt>
<pdfrwt beam="2">0</pdfrwt>
<totfact> 0.22089206E+01</totfact>
</mgrwt>
</event>
<event>
 6    1  0.1904828E-004  0.3000000E+03  0.7818608E-02  0.1093470E+00
          1   -1    0    0  502    0  0.00000000000E+00  0.00000000000E+00  0.42160752894E+02  0.42160752894E+02  0.00000000000E+00 0.  1.
         13   -1    0    0    0    0 -0.00000000000E+00 -0.00000000000E+00 -0.10000000000E+04  0.10000000000E+04  0.00000000000E+00 0.  1.
    9000005    2    1    2  501    0 -0.61128050964E+02  0.43184240452E+02 -0.77581051328E+03  0.84534617727E+03  0.32730213821E+03 0.  0.
         13    1    3    3    0    0 -0.58321578336E+02  0.39652825604E+02 -0.10095317566E+01  0.70532065278E+02  0.00000000000E+00 0.  1.
          1    1    3    3  501    0 -0.28064726286E+01  0.35314148479E+01 -0.77480098152E+03  0.77481411200E+03  0.00000000000E+00 0.  1.
         21    1    1    2  502  501  0.61128050964E+02 -0.43184240452E+02 -0.18202873383E+03  0.19681457562E+03  0.00000000000E+00 0. -1.
<mgrwt>
<rscale>  1 0.30000000E+03</rscale>
<asrwt>0</asrwt>
<pdfrwt beam="1">  1        1 0.15331215E+00 0.30000000E+03</pdfrwt>
<pdfrwt beam="2">0</pdfrwt>
<totfact> 0.17284583E+01</totfact>
</mgrwt>
</event>
<event>
 6    1  0.1904828E-004  0.3000000E+03  0.7818608E-02  0.1093470E+00
          1   -1    0    0  502    0  0.00000000000E+00  0.00000000000E+00  0.23341499833E+02  0.23341499833E+02  0.00000000000E+00 0.  1.
         13   -1    0    0    0    0 -0.00000000000E+00 -0.00000000000E+00 -0.10000000000E+04  0.10000000000E+04  0.00000000000E+00 0.  1.
    9000005    2    1    2  501    0  0.16271295161E+02  0.30848223838E+02 -0.90906606287E+03  0.94728161856E+03  0.26405490003E+03 0.  0.
         13    1    3    3    0    0 -0.10794640467E+02  0.49629423297E+02 -0.91272332504E+03  0.91413536852E+03  0.00000000000E+00 0.  1.
          3    1    3    3  501    0  0.27065935628E+02 -0.18781199459E+02  0.36572621677E+01  0.33146250030E+02  0.00000000000E+00 0.  1.
         21    1    1    2  502  501 -0.16271295161E+02 -0.30848223838E+02 -0.67592437297E+02  0.76059881277E+02  0.00000000000E+00 0.  1.
<mgrwt>
<rscale>  1 0.30000000E+03</rscale>
<asrwt>0</asrwt>
<pdfrwt beam="1">  1        1 0.84878360E-01 0.30000000E+03</pdfrwt>
<pdfrwt beam="2">0</pdfrwt>
<totfact> 0.43255746E+01</totfact>
</mgrwt>
</event>
<event>
 6    1  0.1904828E-004  0.3000000E+03  0.7818608E-02  0.1093470E+00
          1   -1    0    0  502    0  0.00000000000E+00  0.00000000000E+00  0.32622405836E+02  0.32622405836E+02  0.00000000000E+00 0.  1.
         13   -1    0    0    0    0 -0.00000000000E+00 -0.00000000000E+00 -0.10000000000E+04  0.10000000000E+04  0.00000000000E+00 0.  1.
    9000005    2    1    2  501    0  0.40320107174E+01 -0.95994698687E+01 -0.95678177958E+03  0.10177671637E+04  0.34685763483E+03 0.  0.
         13    1    3    3    0    0 -0.16986976282E+03 -0.26664618016E+02 -0.49663734501E+03  0.52556197602E+03  0.00000000000E+00 0.  1.
          1    1    3    3  501    0  0.17390177354E+03  0.17065148147E+02 -0.46014443457E+03  0.49220518768E+03  0.00000000000E+00 0.  1.
         21    1    1    2  502  501 -0.40320107174E+01  0.95994698687E+01 -0.10595814582E+02  0.14855242133E+02  0.00000000000E+00 0. -1.
<mgrwt>
<rscale>  1 0.30000000E+03</rscale>
<asrwt>0</asrwt>
<pdfrwt beam="1">  1        1 0.11862718E+00 0.30000000E+03</pdfrwt>
<pdfrwt beam="2">0</pdfrwt>
<totfact> 0.26466295E+01</totfact>
</mgrwt>
</event>
<event>
 6    1  0.1904828E-004  0.3000000E+03  0.7818608E-02  0.1093470E+00
          1   -1    0    0  502    0  0.00000000000E+00  0.00000000000E+00  0.45378316503E+02  0.45378316503E+02  0.00000000000E+00 0.  1.
         13   -1    0    0    0    0 -0.00000000000E+00 -0.00000000000E+00 -0.10000000000E+04  0.10000000000E+04  0.00000000000E+00 0.  1.
    9000005    2    1    2  501    0  0.23274520922E+02  0.21994608899E+02 -0.95911899509E+03  0.10130411559E+04  0.32452684118E+03 0.  0.
         13    1    3    3    0    0  0.12621511573E+03 -0.91157016558E+02 -0.64677031522E+03  0.66524559206E+03  0.00000000000E+00 0.  1.
          3    1    3    3  501    0 -0.10294059481E+03  0.11315162546E+03 -0.31234867987E+03  0.34779556383E+03  0.00000000000E+00 0.  1.
         21    1    1    2  502  501 -0.23274520922E+02 -0.21994608899E+02  0.44973115930E+01  0.32337160610E+02  0.00000000000E+00 0.  1.
<mgrwt>
<rscale>  1 0.30000000E+03</rscale>
<asrwt>0</asrwt>
<pdfrwt beam="1">  1        1 0.16501241E+00 0.30000000E+03</pdfrwt>
<pdfrwt beam="2">0</pdfrwt>
<totfact> 0.15115182E+01</totfact>
</mgrwt>
</event>
<event>
 6    1  0.1904828E-004  0.3000000E+03  0.7818608E-02  0.1093470E+00
          1   -1    0    0  502    0  0.00000000000E+00  0.00000000000E+00  0.31798549487E+02  0.31798549487E+02  0.00000000000E+00 0.  1.
         13   -1    0    0    0    0 -0.00000000000E+00 -0.00000000000E+00 -0.10000000000E+04  0.10000000000E+04  0.00000000000E+00 0.  1.
    9000005    2    1    2  501    0  0.25647292681E+02  0.14670442829E+02 -0.89569956186E+03  0.95350723852E+03  0.32561533023E+03 0.  0.
         13    1    3    3    0    0 -0.10663864648E+03 -0.10166934577E+03 -0.47757604324E+03  0.49978728863E+03  0.00000000000E+00 0.  1.
          3    1    3    3  501    0  0.13228593916E+03  0.11633978860E+03 -0.41812351862E+03  0.45371994989E+03  0.00000000000E+00 0.  1.
         21    1    1    2  502  501 -0.25647292681E+02 -0.14670442829E+02 -0.72501888656E+02  0.78291310969E+02  0.00000000000E+00 0. -1.
<mgrwt>
<rscale>  1 0.30000000E+03</rscale>
<asrwt>0</asrwt>
<pdfrwt beam="1">  1        1 0.11563133E+00 0.30000000E+03</pdfrwt>
<pdfrwt beam="2">0</pdfrwt>
<totfact> 0.27533624E+01</totfact>
</mgrwt>
</event>
<event>
 6    1  0.1904828E-004  0.3000000E+03  0.7818608E-02  0.1093470E+00
          1   -1    0    0  502    0  0.00000000000E+00  0.00000000000E+00  0.31033858425E+02  0.31033858425E+02  0.00000000000E+00 0.  1.
         13   -1    0    0    0    0 -0.00000000000E+00 -0.00000000000E+00 -0.10000000000E+04  0.10000000000E+04  0.00000000000E+00 0.  1.
    9000005    2    1    2  501    0 -0.29869650553E+02 -0.17461833777E+02 -0.93122775810E+03  0.97983525248E+03  0.30281161287E+03 0.  0.
         13    1    3    3    0    0  0.10927479663E+03  0.15571204543E+02 -0.69484888843E+03  0.70356124207E+03  0.00000000000E+00 0.  1.
          3    1    3    3  501    0 -0.13914444719E+03 -0.33033038320E+02 -0.23637886967E+03  0.27627401041E+03  0.00000000000E+00 0.  1.
         21    1    1    2  502  501  0.29869650553E+02  0.17461833777E+02 -0.37738383477E+02  0.51198605943E+02  0.00000000000E+00 0.  1.
<mgrwt>
<rscale>  1 0.30000000E+03</rscale>
<asrwt>0</asrwt>
<pdfrwt beam="1">  1        1 0.11285063E+00 0.30000000E+03</pdfrwt>
<pdfrwt beam="2">0</pdfrwt>
<totfact> 0.28578767E+01</totfact>
</mgrwt>
</event>
<event>
 6    1  0.1904828E-004  0.3000000E+03  0.7818608E-02  0.1093470E+00
          1   -1    0    0  502    0  0.00000000000E+00  0.00000000000E+00  0.28872525487E+02  0.28872525487E+02  0.00000000000E+00 0.  1.
         13   -1    0    0    0    0 -0.00000000000E+00 -0.00000000000E+00 -0.10000000000E+04  0.10000000000E+04  0.00000000000E+00 0.  1.
    9000005    2    1    2  501    0 -0.54191195646E+01  0.11137553648E+02 -0.95934326612E+03  0.10117763410E+04  0.32124515546E+03 0.  0.
         13    1    3    3    0    0 -0.72413752528E+02 -0.13890339559E+03 -0.43950071022E+03  0.46658201760E+03  0.00000000000E+00 0.  1.
          1    1    3    3  501    0  0.66994632964E+02  0.15004094924E+03 -0.51984255590E+03  0.54519432335E+03  0.00000000000E+00 0.  1.
         21    1    1    2  502  501  0.54191195646E+01 -0.11137553648E+02 -0.11784208394E+02  0.17096184534E+02  0.00000000000E+00 0. -1.
<mgrwt>
<rscale>  1 0.30000000E+03</rscale>
<asrwt>0</asrwt>
<pdfrwt beam="1">  1        1 0.10499122E+00 0.30000000E+03</pdfrwt>
<pdfrwt beam="2">0</pdfrwt>
<totfact> 0.31856682E+01</totfact>
</mgrwt>
</event>
<event>
 6    1  0.1904828E-004  0.3000000E+03  0.7818608E-02  0.1093470E+00
          1   -1    0    0  502    0  0.00000000000E+00  0.00000000000E+00  0.33612405884E+02  0.33612405884E+02  0.00000000000E+00 0.  1.
         13   -1    0    0    0    0 -0.00000000000E+00 -0.00000000000E+00 -0.10000000000E+04  0.10000000000E+04  0.00000000000E+00 0.  1.
    9000005    2    1    2  501    0 -0.55078777564E+01  0.13958067456E+02 -0.95084066791E+03  0.10120052016E+04  0.34616670530E+03 0.  0.
         13    1    3    3    0    0 -0.10485256402E+02 -0.16487222166E+03 -0.39751474355E+03  0.43047736458E+03  0.00000000000E+00 0.  1.
          1    1    3    3  501    0  0.49773786451E+01  0.17883028912E+03 -0.55332592436E+03  0.58152783697E+03  0.00000000000E+00 0.  1.
         21    1    1    2  502  501  0.55078777564E+01 -0.13958067456E+02 -0.15546926203E+02  0.21607204327E+02  0.00000000000E+00 0.  1.
<mgrwt>
<rscale>  1 0.30000000E+03</rscale>
<asrwt>0</asrwt>
<pdfrwt beam="1">  1        1 0.12222719E+00 0.30000000E+03</pdfrwt>
<pdfrwt beam="2">0</pdfrwt>
<totfact> 0.25256549E+01</totfact>
</mgrwt>
</event>
<event>
 6    1  0.1904828E-004  0.3000000E+03  0.7818608E-02  0.1093470E+00
          1   -1    0    0  502    0  0.00000000000E+00  0.00000000000E+00  0.39351673429E+02  0.39351673429E+02  0.00000000000E+00 0.  1.
         13   -1    0    0    0    0 -0.00000000000E+00 -0.00000000000E+00 -0.10000000000E+04  0.10000000000E+04  0.00000000000E+00 0.  1.
    9000005    2    1    2  501    0 -0.32471496208E+02 -0.17979835019E+01 -0.95129474340E+03  0.10055120468E+04  0.32409127831E+03 0.  0.
         13    1    3    3    0    0 -0.34881964092E+02  0.12900811970E+03 -0.18552418329E+03  0.22864616540E+03  0.00000000000E+00 0.  1.
          1    1    3    3  501    0  0.24104678843E+01 -0.13080610320E+03 -0.76577056011E+03  0.77686588142E+03  0.00000000000E+00 0.  1.
         21    1    1    2  502  501  0.32471496208E+02  0.17979835019E+01 -0.93535831734E+01  0.33839626606E+02  0.00000000000E+00 0.  1.
<mgrwt>
<rscale>  1 0.30000000E+03</rscale>
<asrwt>0</asrwt>
<pdfrwt beam="1">  1        1 0.14309730E+00 0.30000000E+03</pdfrwt>
<pdfrwt beam="2">0</pdfrwt>
<totfact> 0.19493254E+01</totfact>
</mgrwt>
</event>
<event>
 6    1  0.1904828E-004  0.3000000E+03  0.7818608E-02  0.1093470E+00
          1   -1    0    0  502    0  0.00000000000E+00  0.00000000000E+00  0.30513266360E+02  0.30513266360E+02  0.00000000000E+00 0.  1.
         13   -1    0    0    0    0 -0.00000000000E+00 -0.00000000000E+00 -0.10000000000E+04  0.10000000000E+04  0.00000000000E+00 0.  1.
    9000005    2    1    2  501    0 -0.21545906327E+02 -0.82784471268E+01 -0.93027253694E+03  0.98501038745E+03  0.32296394789E+03 0.  0.
         13    1    3    3    0    0 -0.97832641278E+02 -0.14038978802E+03 -0.47857034440E+03  0.50824215962E+03  0.00000000000E+00 0.  1.
          1    1    3    3  501    0  0.76286734951E+02  0.13211134089E+03 -0.45170219254E+03  0.47676822782E+03  0.00000000000E+00 0.  1.
         21    1    1    2  502  501  0.21545906327E+02  0.82784471268E+01 -0.39214196704E+02  0.45502878913E+02  0.00000000000E+00 0.  1.
<mgrwt>
<rscale>  1 0.30000000E+03</rscale>
<asrwt>0</asrwt>
<pdfrwt beam="1">  1        1 0.11095757E+00 0.30000000E+03</pdfrwt>
<pdfrwt beam="2">0</pdfrwt>
<totfact> 0.29322810E+01</totfact>
</mgrwt>
</event>
<event>
 6    1  0.1904828E-004  0.3000000E+03  0.7818608E-02  0.1093470E+00
          1   -1    0    0  502    0  0.00000000000E+00  0.00000000000E+00  0.30100067992E+02  0.30100067992E+02  0.00000000000E+00 0.  1.
         13   -1    0    0    0    0 -0.00000000000E+00 -0.00000000000E+00 -0.10000000000E+04  0.10000000000E+04  0.00000000000E+00 0.  1.
    9000005    2    1    2  501    0 -0.74190383063E+01  0.16169003626E+02 -0.91577229474E+03  0.97312393330E+03  0.32865607396E+03 0.  0.
         13    1    3    3    0    0  0.52613180536E+02 -0.14606031286E+03 -0.39719319886E+03  0.42645538920E+03  0.00000000000E+00 0.  1.
          1    1    3    3  501    0 -0.60032218842E+02  0.16222931649E+03 -0.51857909588E+03  0.54666854411E+03  0.00000000000E+00 0.  1.
         21    1    1    2  502  501  0.74190383063E+01 -0.16169003626E+02 -0.54127637268E+02  0.56976134687E+02  0.00000000000E+00 0.  1.
<mgrwt>
<rscale>  1 0.30000000E+03</rscale>
<asrwt>0</asrwt>
<pdfrwt beam="1">  1        1 0.10945502E+00 0.30000000E+03</pdfrwt>
<pdfrwt beam="2">0</pdfrwt>
<totfact> 0.29933038E+01</totfact>
</mgrwt>
</event>
<event>
 6    1  0.1904828E-004  0.3000000E+03  0.7818608E-02  0.1093470E+00
          1   -1    0    0  502    0  0.00000000000E+00  0.00000000000E+00  0.39704643897E+02  0.39704643897E+02  0.00000000000E+00 0.  1.
         13   -1    0    0    0    0 -0.00000000000E+00 -0.00000000000E+00 -0.10000000000E+04  0.10000000000E+04  0.00000000000E+00 0.  1.
    9000005    2    1    2  501    0 -0.17231824565E+01  0.18866532773E+02 -0.96382735369E+03  0.10204331514E+04  0.33460683393E+03 0.  0.
         13    1    3    3    0    0 -0.52472430573E+02  0.16049397368E+03 -0.35234817896E+03  0.39071845462E+03  0.00000000000E+00 0.  1.
          1    1    3    3  501    0  0.50749248117E+02 -0.14162744091E+03 -0.61147917473E+03  0.62971469677E+03  0.00000000000E+00 0.  1.
         21    1    1    2  502  501  0.17231824565E+01 -0.18866532773E+02  0.35319975862E+01  0.19271492511E+02  0.00000000000E+00 0.  1.
<mgrwt>
<rscale>  1 0.30000000E+03</rscale>
<asrwt>0</asrwt>
<pdfrwt beam="1">  1        1 0.14438083E+00 0.30000000E+03</pdfrwt>
<pdfrwt beam="2">0</pdfrwt>
<totfact> 0.19197051E+01</totfact>
</mgrwt>
</event>
<event>
 6    1  0.1904828E-004  0.3000000E+03  0.7818608E-02  0.1093470E+00
          1   -1    0    0  502    0  0.00000000000E+00  0.00000000000E+00  0.37664908130E+02  0.37664908130E+02  0.00000000000E+00 0.  1.
         13   -1    0    0    0    0 -0.00000000000E+00 -0.00000000000E+00 -0.10000000000E+04  0.10000000000E+04  0.00000000000E+00 0.  1.
    9000005    2    1    2  501    0 -0.23419478467E+02 -0.21305491630E+02 -0.92717206232E+03  0.99034858333E+03  0.34661201280E+03 0.  0.
         13    1    3    3    0    0  0.86418311685E+02  0.13248341678E+03 -0.45796319966E+03  0.48451034309E+03  0.00000000000E+00 0.  1.
          1    1    3    3  501    0 -0.10983779015E+03 -0.15378890841E+03 -0.46920886266E+03  0.50583824024E+03  0.00000000000E+00 0.  1.
         21    1    1    2  502  501  0.23419478467E+02  0.21305491630E+02 -0.35163029552E+02  0.47316324799E+02  0.00000000000E+00 0.  1.
<mgrwt>
<rscale>  1 0.30000000E+03</rscale>
<asrwt>0</asrwt>
<pdfrwt beam="1">  1        1 0.13696359E+00 0.30000000E+03</pdfrwt>
<pdfrwt beam="2">0</pdfrwt>
<totfact> 0.20991676E+01</totfact>
</mgrwt>
</event>
<event>
 6    1  0.1904828E-004  0.3000000E+03  0.7818608E-02  0.1093470E+00
          1   -1    0    0  502    0  0.00000000000E+00  0.00000000000E+00  0.53214233848E+02  0.53214233848E+02  0.00000000000E+00 0.  1.
         13   -1    0    0    0    0 -0.00000000000E+00 -0.00000000000E+00 -0.10000000000E+04  0.10000000000E+04  0.00000000000E+00 0.  1.
    9000005    2    1    2  501    0  0.25436915327E+02 -0.21467536281E+02 -0.96619826178E+03  0.10146819518E+04  0.30811116568E+03 0.  0.
         13    1    3    3    0    0 -0.63587020819E+02 -0.49825445730E+02 -0.52777802005E+02  0.96495495456E+02  0.00000000000E+00 0.  1.
          1    1    3    3  501    0  0.89023936145E+02  0.28357909448E+02 -0.91342045977E+03  0.91818645632E+03  0.00000000000E+00 0.  1.
         21    1    1    2  502  501 -0.25436915327E+02  0.21467536281E+02  0.19412495627E+02  0.38532282073E+02  0.00000000000E+00 0.  1.
<mgrwt>
<rscale>  1 0.30000000E+03</rscale>
<asrwt>0</asrwt>
<pdfrwt beam="1">  1        1 0.19350671E+00 0.30000000E+03</pdfrwt>
<pdfrwt beam="2">0</pdfrwt>
<totfact> 0.11000014E+01</totfact>
</mgrwt>
</event>
<event>
 6    1  0.1904828E-004  0.3000000E+03  0.7818608E-02  0.1093470E+00
          1   -1    0    0  502    0  0.00000000000E+00  0.00000000000E+00  0.44113997080E+02  0.44113997080E+02  0.00000000000E+00 0.  1.
         13   -1    0    0    0    0 -0.00000000000E+00 -0.00000000000E+00 -0.10000000000E+04  0.10000000000E+04  0.00000000000E+00 0.  1.
    9000005    2    1    2  501    0  0.28473094317E+02 -0.18031123120E+02 -0.94254351911E+03  0.10078667851E+04  0.35534677797E+03 0.  0.
         13    1    3    3    0    0 -0.15410745759E+03  0.49694226069E+02 -0.40800028728E+03  0.43895655708E+03  0.00000000000E+00 0.  1.
          3    1    3    3  501    0  0.18258055191E+03 -0.67725349189E+02 -0.53454323184E+03  0.56891022803E+03  0.00000000000E+00 0.  1.
         21    1    1    2  502  501 -0.28473094317E+02  0.18031123120E+02 -0.13342483805E+02  0.36247211963E+02  0.00000000000E+00 0.  1.
<mgrwt>
<rscale>  1 0.30000000E+03</rscale>
<asrwt>0</asrwt>
<pdfrwt beam="1">  1        1 0.16041487E+00 0.30000000E+03</pdfrwt>
<pdfrwt beam="2">0</pdfrwt>
<totfact> 0.15927311E+01</totfact>
</mgrwt>
</event>
<event>
 6    1  0.1904828E-004  0.3000000E+03  0.7818608E-02  0.1093470E+00
          1   -1    0    0  502    0  0.00000000000E+00  0.00000000000E+00  0.38142880681E+02  0.38142880681E+02  0.00000000000E+00 0.  1.
         13   -1    0    0    0    0 -0.00000000000E+00 -0.00000000000E+00 -0.10000000000E+04  0.10000000000E+04  0.00000000000E+00 0.  1.
    9000005    2    1    2  501    0  0.58551560035E+02  0.91382135953E+01 -0.88376592077E+03  0.94011213336E+03  0.31505051728E+03 0.  0.
         13    1    3    3    0    0  0.17409665079E+03 -0.16172493959E+02 -0.32586352759E+03  0.36980837198E+03  0.00000000000E+00 0.  1.
          1    1    3    3  501    0 -0.11554509076E+03  0.25310707554E+02 -0.55790239318E+03  0.57030376137E+03  0.00000000000E+00 0.  1.
         21    1    1    2  502  501 -0.58551560035E+02 -0.91382135953E+01 -0.78091198548E+02  0.98030747323E+02  0.00000000000E+00 0.  1.
<mgrwt>
<rscale>  1 0.30000000E+03</rscale>
<asrwt>0</asrwt>
<pdfrwt beam="1">  1        1 0.13870168E+00 0.30000000E+03</pdfrwt>
<pdfrwt beam="2">0</pdfrwt>
<totfact> 0.20552588E+01</totfact>
</mgrwt>
</event>
<event>
 6    1  0.1904828E-004  0.3000000E+03  0.7818608E-02  0.1093470E+00
          1   -1    0    0  502    0  0.00000000000E+00  0.00000000000E+00  0.37197308887E+02  0.37197308887E+02  0.00000000000E+00 0.  1.
         13   -1    0    0    0    0 -0.00000000000E+00 -0.00000000000E+00 -0.10000000000E+04  0.10000000000E+04  0.00000000000E+00 0.  1.
    9000005    2    1    2  501    0  0.33435204516E+01 -0.27270564148E+02 -0.90311812636E+03  0.97149259012E+03  0.35696027749E+03 0.  0.
         13    1    3    3    0    0  0.11799362039E+03 -0.13308682576E+03 -0.30224485847E+03  0.35069438563E+03  0.00000000000E+00 0.  1.
          3    1    3    3  501    0 -0.11465009994E+03  0.10581626161E+03 -0.60087326788E+03  0.62079820449E+03  0.00000000000E+00 0.  1.
         21    1    1    2  502  501 -0.33435204516E+01  0.27270564148E+02 -0.59684564756E+02  0.65704718766E+02  0.00000000000E+00 0. -1.
<mgrwt>
<rscale>  1 0.30000000E+03</rscale>
<asrwt>0</asrwt>
<pdfrwt beam="1">  1        1 0.13526323E+00 0.30000000E+03</pdfrwt>
<pdfrwt beam="2">0</pdfrwt>
<totfact> 0.21433076E+01</totfact>
</mgrwt>
</event>
<event>
 6    1  0.1904828E-004  0.3000000E+03  0.7818608E-02  0.1093470E+00
          1   -1    0    0  502    0  0.00000000000E+00  0.00000000000E+00  0.35853502210E+02  0.35853502210E+02  0.00000000000E+00 0.  1.
         13   -1    0    0    0    0 -0.00000000000E+00 -0.00000000000E+00 -0.10000000000E+04  0.10000000000E+04  0.00000000000E+00 0.  1.
    9000005    2    1    2  501    0  0.36971526202E+02 -0.24692064119E+02 -0.86243178569E+03  0.92484686079E+03  0.33102347224E+03 0.  0.
         13    1    3    3    0    0  0.14685863564E+03  0.88633745127E+02 -0.37213860665E+03  0.40976888876E+03  0.00000000000E+00 0.  1.
          3    1    3    3  501    0 -0.10988710944E+03 -0.11332580925E+03 -0.49029317904E+03  0.51507797204E+03  0.00000000000E+00 0.  1.
         21    1    1    2  502  501 -0.36971526202E+02  0.24692064119E+02 -0.10171471210E+03  0.11100664142E+03  0.00000000000E+00 0.  1.
<mgrwt>
<rscale>  1 0.30000000E+03</rscale>
<asrwt>0</asrwt>
<pdfrwt beam="1">  1        1 0.13037665E+00 0.30000000E+03</pdfrwt>
<pdfrwt beam="2">0</pdfrwt>
<totfact> 0.22772069E+01</totfact>
</mgrwt>
</event>
<event>
 6    1  0.1904828E-004  0.3000000E+03  0.7818608E-02  0.1093470E+00
          1   -1    0    0  502    0  0.00000000000E+00  0.00000000000E+00  0.35705126379E+02  0.35705126379E+02  0.00000000000E+00 0.  1.
         13   -1    0    0    0    0 -0.00000000000E+00 -0.00000000000E+00 -0.10000000000E+04  0.10000000000E+04  0.00000000000E+00 0.  1.
    9000005    2    1    2  501    0  0.34145912091E+02  0.52745625882E+02 -0.78814595866E+03  0.84868511514E+03  0.30845474246E+03 0.  0.
         13    1    3    3    0    0  0.86267978991E+02 -0.68583296694E+02 -0.64333492324E+03  0.65270640892E+03  0.00000000000E+00 0.  1.
          1    1    3    3  501    0 -0.52122066901E+02  0.12132892258E+03 -0.14481103542E+03  0.19597870621E+03  0.00000000000E+00 0.  1.
         21    1    1    2  502  501 -0.34145912091E+02 -0.52745625882E+02 -0.17614891496E+03  0.18702001124E+03  0.00000000000E+00 0.  1.
<mgrwt>
<rscale>  1 0.30000000E+03</rscale>
<asrwt>0</asrwt>
<pdfrwt beam="1">  1        1 0.12983710E+00 0.30000000E+03</pdfrwt>
<pdfrwt beam="2">0</pdfrwt>
<totfact> 0.22926570E+01</totfact>
</mgrwt>
</event>
<event>
 6    1  0.1904828E-004  0.3000000E+03  0.7818608E-02  0.1093470E+00
          1   -1    0    0  502    0  0.00000000000E+00  0.00000000000E+00  0.12975499559E+03  0.12975499559E+03  0.00000000000E+00 0.  1.
         13   -1    0    0    0    0 -0.00000000000E+00 -0.00000000000E+00 -0.10000000000E+04  0.10000000000E+04  0.00000000000E+00 0.  1.
    9000005    2    1    2  501    0  0.11375096267E+02 -0.17482106909E+02 -0.97173049911E+03  0.10261484200E+04  0.32906747034E+03 0.  0.
         13    1    3    3    0    0  0.11879992373E+03 -0.12003226612E+03 -0.37601972329E+03  0.41220383197E+03  0.00000000000E+00 0.  1.
          3    1    3    3  501    0 -0.10742482746E+03  0.10255015921E+03 -0.59571077582E+03  0.61394458800E+03  0.00000000000E+00 0.  1.
         21    1    1    2  502  501 -0.11375096267E+02  0.17482106909E+02  0.10148549470E+03  0.10360657561E+03  0.00000000000E+00 0.  1.
<mgrwt>
<rscale>  1 0.30000000E+03</rscale>
<asrwt>0</asrwt>
<pdfrwt beam="1">  1        1 0.47183734E+00 0.30000000E+03</pdfrwt>
<pdfrwt beam="2">0</pdfrwt>
<totfact> 0.36504192E-01</totfact>
</mgrwt>
</event>
<event>
 6    1  0.1904828E-004  0.3000000E+03  0.7818608E-02  0.1093470E+00
          1   -1    0    0  502    0  0.00000000000E+00  0.00000000000E+00  0.34374929644E+02  0.34374929644E+02  0.00000000000E+00 0.  1.
         13   -1    0    0    0    0 -0.00000000000E+00 -0.00000000000E+00 -0.10000000000E+04  0.10000000000E+04  0.00000000000E+00 0.  1.
    9000005    2    1    2  501    0  0.33198788802E+01  0.10133401197E+02 -0.96332037686E+03  0.10234653454E+04  0.34551621872E+03 0.  0.
         13    1    3    3    0    0  0.15996920531E+03  0.73830628000E+02 -0.46717754193E+03  0.49929546759E+03  0.00000000000E+00 0.  1.
          3    1    3    3  501    0 -0.15664932643E+03 -0.63697226803E+02 -0.49614283494E+03  0.52416987784E+03  0.00000000000E+00 0.  1.
         21    1    1    2  502  501 -0.33198788802E+01 -0.10133401197E+02 -0.23046934924E+01  0.10909584213E+02  0.00000000000E+00 0.  1.
<mgrwt>
<rscale>  1 0.30000000E+03</rscale>
<asrwt>0</asrwt>
<pdfrwt beam="1">  1        1 0.12500001E+00 0.30000000E+03</pdfrwt>
<pdfrwt beam="2">0</pdfrwt>
<totfact> 0.24373941E+01</totfact>
</mgrwt>
</event>
<event>
 6    1  0.1904828E-004  0.3000000E+03  0.7818608E-02  0.1093470E+00
          1   -1    0    0  502    0  0.00000000000E+00  0.00000000000E+00  0.29136438923E+02  0.29136438923E+02  0.00000000000E+00 0.  1.
         13   -1    0    0    0    0 -0.00000000000E+00 -0.00000000000E+00 -0.10000000000E+04  0.10000000000E+04  0.00000000000E+00 0.  1.
    9000005    2    1    2  501    0  0.81575164850E+01 -0.60242925807E+01 -0.96237434262E+03  0.10159113111E+04  0.32528230736E+03 0.  0.
         13    1    3    3    0    0 -0.13915042883E+03 -0.13285238932E+02 -0.70976193681E+03  0.72339570524E+03  0.00000000000E+00 0.  1.
          3    1    3    3  501    0  0.14730794531E+03  0.72609463516E+01 -0.25261240581E+03  0.29251560584E+03  0.00000000000E+00 0.  1.
         21    1    1    2  502  501 -0.81575164850E+01  0.60242925807E+01 -0.84892184585E+01  0.13225127838E+02  0.00000000000E+00 0.  1.
<mgrwt>
<rscale>  1 0.30000000E+03</rscale>
<asrwt>0</asrwt>
<pdfrwt beam="1">  1        1 0.10595091E+00 0.30000000E+03</pdfrwt>
<pdfrwt beam="2">0</pdfrwt>
<totfact> 0.31428420E+01</totfact>
</mgrwt>
</event>
<event>
 6    1  0.1904828E-004  0.3000000E+03  0.7818608E-02  0.1093470E+00
          1   -1    0    0  502    0  0.00000000000E+00  0.00000000000E+00  0.34393972070E+02  0.34393972070E+02  0.00000000000E+00 0.  1.
         13   -1    0    0    0    0 -0.00000000000E+00 -0.00000000000E+00 -0.10000000000E+04  0.10000000000E+04  0.00000000000E+00 0.  1.
    9000005    2    1    2  501    0  0.38822759966E+01  0.29511060270E+02 -0.93844357004E+03  0.99409789455E+03  0.32660115591E+03 0.  0.
         13    1    3    3    0    0  0.79966268971E+01  0.17657501912E+03 -0.58890764916E+03  0.61486169392E+03  0.00000000000E+00 0.  1.
          1    1    3    3  501    0 -0.41143509005E+01 -0.14706395885E+03 -0.34953592089E+03  0.37923620063E+03  0.00000000000E+00 0.  1.
         21    1    1    2  502  501 -0.38822759966E+01 -0.29511060270E+02 -0.27162457888E+02  0.40296077522E+02  0.00000000000E+00 0.  1.
<mgrwt>
<rscale>  1 0.30000000E+03</rscale>
<asrwt>0</asrwt>
<pdfrwt beam="1">  1        1 0.12506925E+00 0.30000000E+03</pdfrwt>
<pdfrwt beam="2">0</pdfrwt>
<totfact> 0.24352410E+01</totfact>
</mgrwt>
</event>
<event>
 6    1  0.1904828E-004  0.3000000E+03  0.7818608E-02  0.1093470E+00
          1   -1    0    0  502    0  0.00000000000E+00  0.00000000000E+00  0.34879072985E+02  0.34879072985E+02  0.00000000000E+00 0.  1.
         13   -1    0    0    0    0 -0.00000000000E+00 -0.00000000000E+00 -0.10000000000E+04  0.10000000000E+04  0.00000000000E+00 0.  1.
    9000005    2    1    2  501    0 -0.67151948704E+01  0.40907187271E+02 -0.90461718834E+03  0.96153608282E+03  0.32326597302E+03 0.  0.
         13    1    3    3    0    0 -0.32084728931E+02 -0.74017680453E+02 -0.80003352432E+03  0.80409059619E+03  0.00000000000E+00 0.  1.
          1    1    3    3  501    0  0.25369534061E+02  0.11492486772E+03 -0.10458366402E+03  0.15744548663E+03  0.00000000000E+00 0.  1.
         21    1    1    2  502  501  0.67151948704E+01 -0.40907187271E+02 -0.60503738678E+02  0.73342990167E+02  0.00000000000E+00 0.  1.
<mgrwt>
<rscale>  1 0.30000000E+03</rscale>
<asrwt>0</asrwt>
<pdfrwt beam="1">  1        1 0.12683326E+00 0.30000000E+03</pdfrwt>
<pdfrwt beam="2">0</pdfrwt>
<totfact> 0.23811973E+01</totfact>
</mgrwt>
</event>
<event>
 6    1  0.1904828E-004  0.3000000E+03  0.7818608E-02  0.1093470E+00
          1   -1    0    0  502    0  0.00000000000E+00  0.00000000000E+00  0.36239683197E+02  0.36239683197E+02  0.00000000000E+00 0.  1.
         13   -1    0    0    0    0 -0.00000000000E+00 -0.00000000000E+00 -0.10000000000E+04  0.10000000000E+04  0.00000000000E+00 0.  1.
    9000005    2    1    2  501    0 -0.21453017020E+02 -0.57722687635E+01 -0.95742895708E+03  0.10131390957E+04  0.33058594705E+03 0.  0.
         13    1    3    3    0    0 -0.12345957160E+03 -0.40342789594E+01 -0.12956641685E+03  0.17901395924E+03  0.00000000000E+00 0.  1.
          3    1    3    3  501    0  0.10200655458E+03 -0.17379898041E+01 -0.82786254023E+03  0.83412513648E+03  0.00000000000E+00 0.  1.
         21    1    1    2  502  501  0.21453017020E+02  0.57722687635E+01 -0.63313597206E+01  0.23100587478E+02  0.00000000000E+00 0.  1.
<mgrwt>
<rscale>  1 0.30000000E+03</rscale>
<asrwt>0</asrwt>
<pdfrwt beam="1">  1        1 0.13178094E+00 0.30000000E+03</pdfrwt>
<pdfrwt beam="2">0</pdfrwt>
<totfact> 0.22376264E+01</totfact>
</mgrwt>
</event>
<event>
 6    1  0.1904828E-004  0.3000000E+03  0.7818608E-02  0.1093470E+00
          1   -1    0    0  502    0  0.00000000000E+00  0.00000000000E+00  0.42987412305E+02  0.42987412305E+02  0.00000000000E+00 0.  1.
         13   -1    0    0    0    0 -0.00000000000E+00 -0.00000000000E+00 -0.10000000000E+04  0.10000000000E+04  0.00000000000E+00 0.  1.
    9000005    2    1    2  501    0 -0.94240889292E+02 -0.30456409281E+02 -0.83150100129E+03  0.88310590492E+03  0.28048740807E+03 0.  0.
         13    1    3    3    0    0  0.10024218174E+03 -0.22227393201E+02 -0.27505346640E+03  0.29359319029E+03  0.00000000000E+00 0.  1.
          1    1    3    3  501    0 -0.19448307103E+03 -0.82290160801E+01 -0.55644753489E+03  0.58951271463E+03  0.00000000000E+00 0.  1.
         21    1    1    2  502  501  0.94240889292E+02  0.30456409281E+02 -0.12551158641E+03  0.15988150738E+03  0.00000000000E+00 0.  1.
<mgrwt>
<rscale>  1 0.30000000E+03</rscale>
<asrwt>0</asrwt>
<pdfrwt beam="1">  1        1 0.15631819E+00 0.30000000E+03</pdfrwt>
<pdfrwt beam="2">0</pdfrwt>
<totfact> 0.16693999E+01</totfact>
</mgrwt>
</event>
<event>
 6    1  0.1904828E-004  0.3000000E+03  0.7818608E-02  0.1093470E+00
          1   -1    0    0  502    0  0.00000000000E+00  0.00000000000E+00  0.42300204437E+02  0.42300204437E+02  0.00000000000E+00 0.  1.
         13   -1    0    0    0    0 -0.00000000000E+00 -0.00000000000E+00 -0.10000000000E+04  0.10000000000E+04  0.00000000000E+00 0.  1.
    9000005    2    1    2  501    0  0.48463576991E+01 -0.14205959791E+02 -0.97076914888E+03  0.10223978309E+04  0.32043608991E+03 0.  0.
         13    1    3    3    0    0 -0.10219434197E+03  0.10989947055E+03 -0.56971758069E+03  0.58915167734E+03  0.00000000000E+00 0.  1.
          3    1    3    3  501    0  0.10704069967E+03 -0.12410543034E+03 -0.40105156819E+03  0.43324615355E+03  0.00000000000E+00 0.  1.
         21    1    1    2  502  501 -0.48463576991E+01  0.14205959791E+02  0.13069353318E+02  0.19902373544E+02  0.00000000000E+00 0.  1.
<mgrwt>
<rscale>  1 0.30000000E+03</rscale>
<asrwt>0</asrwt>
<pdfrwt beam="1">  1        1 0.15381925E+00 0.30000000E+03</pdfrwt>
<pdfrwt beam="2">0</pdfrwt>
<totfact> 0.17183211E+01</totfact>
</mgrwt>
</event>
<event>
 6    1  0.1904828E-004  0.3000000E+03  0.7818608E-02  0.1093470E+00
          1   -1    0    0  502    0  0.00000000000E+00  0.00000000000E+00  0.41461987103E+02  0.41461987103E+02  0.00000000000E+00 0.  1.
         13   -1    0    0    0    0 -0.00000000000E+00 -0.00000000000E+00 -0.10000000000E+04  0.10000000000E+04  0.00000000000E+00 0.  1.
    9000005    2    1    2  501    0 -0.87578022131E+01  0.40268868495E+02 -0.93299892417E+03  0.99297976435E+03  0.33737744301E+03 0.  0.
         13    1    3    3    0    0 -0.44452949476E+02 -0.13098415562E+03 -0.22865892745E+03  0.26724112491E+03  0.00000000000E+00 0.  1.
          3    1    3    3  501    0  0.35695147263E+02  0.17125302412E+03 -0.70433999672E+03  0.72573863944E+03  0.00000000000E+00 0.  1.
         21    1    1    2  502  501  0.87578022131E+01 -0.40268868495E+02 -0.25539088730E+02  0.48482222748E+02  0.00000000000E+00 0.  1.
<mgrwt>
<rscale>  1 0.30000000E+03</rscale>
<asrwt>0</asrwt>
<pdfrwt beam="1">  1        1 0.15077118E+00 0.30000000E+03</pdfrwt>
<pdfrwt beam="2">0</pdfrwt>
<totfact> 0.17803647E+01</totfact>
</mgrwt>
</event>
<event>
 6    1  0.1904828E-004  0.3000000E+03  0.7818608E-02  0.1093470E+00
          1   -1    0    0  502    0  0.00000000000E+00  0.00000000000E+00  0.34793581498E+02  0.34793581498E+02  0.00000000000E+00 0.  1.
         13   -1    0    0    0    0 -0.00000000000E+00 -0.00000000000E+00 -0.10000000000E+04  0.10000000000E+04  0.00000000000E+00 0.  1.
    9000005    2    1    2  501    0 -0.81766335394E+01  0.14120652876E+02 -0.93689303921E+03  0.10021148786E+04  0.35524556703E+03 0.  0.
         13    1    3    3    0    0 -0.17661789118E+03 -0.86912977533E+01 -0.36643450950E+03  0.40687057880E+03  0.00000000000E+00 0.  1.
          1    1    3    3  501    0  0.16844125764E+03  0.22811950630E+02 -0.57045852971E+03  0.59524429984E+03  0.00000000000E+00 0.  1.
         21    1    1    2  502  501  0.81766335394E+01 -0.14120652876E+02 -0.28313379291E+02  0.32678702859E+02  0.00000000000E+00 0. -1.
<mgrwt>
<rscale>  1 0.30000000E+03</rscale>
<asrwt>0</asrwt>
<pdfrwt beam="1">  1        1 0.12652238E+00 0.30000000E+03</pdfrwt>
<pdfrwt beam="2">0</pdfrwt>
<totfact> 0.23906098E+01</totfact>
</mgrwt>
</event>
<event>
 6    1  0.1904828E-004  0.3000000E+03  0.7818608E-02  0.1093470E+00
          1   -1    0    0  502    0  0.00000000000E+00  0.00000000000E+00  0.28783824738E+02  0.28783824738E+02  0.00000000000E+00 0.  1.
         13   -1    0    0    0    0 -0.00000000000E+00 -0.00000000000E+00 -0.10000000000E+04  0.10000000000E+04  0.00000000000E+00 0.  1.
    9000005    2    1    2  501    0  0.15186561788E+02 -0.64131691005E+01 -0.95447811562E+03  0.10052907824E+04  0.31513381859E+03 0.  0.
         13    1    3    3    0    0 -0.12488524472E+03 -0.51211198823E+02 -0.68620171134E+03  0.69935091326E+03  0.00000000000E+00 0.  1.
          1    1    3    3  501    0  0.14007180651E+03  0.44798029723E+02 -0.26827640428E+03  0.30593986916E+03  0.00000000000E+00 0.  1.
         21    1    1    2  502  501 -0.15186561788E+02  0.64131691005E+01 -0.16738059642E+02  0.23493042320E+02  0.00000000000E+00 0.  1.
<mgrwt>
<rscale>  1 0.30000000E+03</rscale>
<asrwt>0</asrwt>
<pdfrwt beam="1">  1        1 0.10466867E+00 0.30000000E+03</pdfrwt>
<pdfrwt beam="2">0</pdfrwt>
<totfact> 0.32002515E+01</totfact>
</mgrwt>
</event>
<event>
 6    1  0.1904828E-004  0.3000000E+03  0.7818608E-02  0.1093470E+00
          1   -1    0    0  502    0  0.00000000000E+00  0.00000000000E+00  0.32354378131E+02  0.32354378131E+02  0.00000000000E+00 0.  1.
         13   -1    0    0    0    0 -0.00000000000E+00 -0.00000000000E+00 -0.10000000000E+04  0.10000000000E+04  0.00000000000E+00 0.  1.
    9000005    2    1    2  501    0  0.12725209962E+02  0.96156347949E+01 -0.95957276362E+03  0.10144780686E+04  0.32883350141E+03 0.  0.
         13    1    3    3    0    0  0.15197866412E+03 -0.29114502472E+02 -0.28205817862E+03  0.32171724344E+03  0.00000000000E+00 0.  1.
          1    1    3    3  501    0 -0.13925345416E+03  0.38730137267E+02 -0.67751458500E+03  0.69276082519E+03  0.00000000000E+00 0.  1.
         21    1    1    2  502  501 -0.12725209962E+02 -0.96156347949E+01 -0.80728582518E+01  0.17876309503E+02  0.00000000000E+00 0. -1.
<mgrwt>
<rscale>  1 0.30000000E+03</rscale>
<asrwt>0</asrwt>
<pdfrwt beam="1">  1        1 0.11765253E+00 0.30000000E+03</pdfrwt>
<pdfrwt beam="2">0</pdfrwt>
<totfact> 0.26807195E+01</totfact>
</mgrwt>
</event>
<event>
 6    1  0.1904828E-004  0.3000000E+03  0.7818608E-02  0.1093470E+00
          1   -1    0    0  502    0  0.00000000000E+00  0.00000000000E+00  0.28608608420E+02  0.28608608420E+02  0.00000000000E+00 0.  1.
         13   -1    0    0    0    0 -0.00000000000E+00 -0.00000000000E+00 -0.10000000000E+04  0.10000000000E+04  0.00000000000E+00 0.  1.
    9000005    2    1    2  501    0  0.16610176068E+02  0.10229135666E+02 -0.94485070228E+03  0.99567016046E+03  0.31342572592E+03 0.  0.
         13    1    3    3    0    0  0.76309854754E+02  0.12819462166E+03 -0.71596747823E+03  0.73134566714E+03  0.00000000000E+00 0.  1.
          1    1    3    3  501    0 -0.59699678685E+02 -0.11796548599E+03 -0.22888322405E+03  0.26432449332E+03  0.00000000000E+00 0.  1.
         21    1    1    2  502  501 -0.16610176068E+02 -0.10229135666E+02 -0.26540689303E+02  0.32938447962E+02  0.00000000000E+00 0.  1.
<mgrwt>
<rscale>  1 0.30000000E+03</rscale>
<asrwt>0</asrwt>
<pdfrwt beam="1">  1        1 0.10403152E+00 0.30000000E+03</pdfrwt>
<pdfrwt beam="2">0</pdfrwt>
<totfact> 0.32293446E+01</totfact>
</mgrwt>
</event>
<event>
 6    1  0.1904828E-004  0.3000000E+03  0.7818608E-02  0.1093470E+00
          1   -1    0    0  502    0  0.00000000000E+00  0.00000000000E+00  0.35093780397E+02  0.35093780397E+02  0.00000000000E+00 0.  1.
         13   -1    0    0    0    0 -0.00000000000E+00 -0.00000000000E+00 -0.10000000000E+04  0.10000000000E+04  0.00000000000E+00 0.  1.
    9000005    2    1    2  501    0  0.42039713620E+02  0.13637981055E+02 -0.92112205676E+03  0.97288136231E+03  0.30996607819E+03 0.  0.
         13    1    3    3    0    0 -0.64989696465E+02  0.12097777116E+03 -0.25392507834E+03  0.28868187885E+03  0.00000000000E+00 0.  1.
          1    1    3    3  501    0  0.10702941009E+03 -0.10733979011E+03 -0.66719697842E+03  0.68419948347E+03  0.00000000000E+00 0.  1.
         21    1    1    2  502  501 -0.42039713620E+02 -0.13637981055E+02 -0.43784162839E+02  0.62212418085E+02  0.00000000000E+00 0.  1.
<mgrwt>
<rscale>  1 0.30000000E+03</rscale>
<asrwt>0</asrwt>
<pdfrwt beam="1">  1        1 0.12761402E+00 0.30000000E+03</pdfrwt>
<pdfrwt beam="2">0</pdfrwt>
<totfact> 0.23577665E+01</totfact>
</mgrwt>
</event>
<event>
 6    1  0.1904828E-004  0.3000000E+03  0.7818608E-02  0.1093470E+00
          3   -1    0    0  502    0  0.00000000000E+00  0.00000000000E+00  0.38748609292E+02  0.38748609292E+02  0.00000000000E+00 0.  1.
         13   -1    0    0    0    0 -0.00000000000E+00 -0.00000000000E+00 -0.10000000000E+04  0.10000000000E+04  0.00000000000E+00 0.  1.
    9000005    2    1    2  501    0 -0.58956062939E+01 -0.10248037445E+02 -0.93520818007E+03  0.10101473984E+04  0.38163286802E+03 0.  0.
         13    1    3    3    0    0 -0.57465214224E+02 -0.18291367443E+03 -0.59548876996E+03  0.62559294936E+03  0.00000000000E+00 0.  1.
          1    1    3    3  501    0  0.51569607930E+02  0.17266563699E+03 -0.33971941011E+03  0.38455444903E+03  0.00000000000E+00 0.  1.
         21    1    1    2  502  501  0.58956062939E+01  0.10248037445E+02 -0.26043210633E+02  0.28601210903E+02  0.00000000000E+00 0. -1.
<mgrwt>
<rscale>  1 0.30000000E+03</rscale>
<asrwt>0</asrwt>
<pdfrwt beam="1">  1        3 0.14090433E+00 0.30000000E+03</pdfrwt>
<pdfrwt beam="2">0</pdfrwt>
<totfact> 0.13045134E+00</totfact>
</mgrwt>
</event>
<event>
 6    1  0.1904828E-004  0.3000000E+03  0.7818608E-02  0.1093470E+00
          1   -1    0    0  502    0  0.00000000000E+00  0.00000000000E+00  0.27110318585E+02  0.27110318585E+02  0.00000000000E+00 0.  1.
         13   -1    0    0    0    0 -0.00000000000E+00 -0.00000000000E+00 -0.10000000000E+04  0.10000000000E+04  0.00000000000E+00 0.  1.
    9000005    2    1    2  501    0  0.12157128674E+02  0.67169431723E+01 -0.91774679235E+03  0.97024511554E+03  0.31452105852E+03 0.  0.
         13    1    3    3    0    0  0.38331494936E+01  0.16059305403E+03 -0.47984723238E+03  0.50602192488E+03  0.00000000000E+00 0.  1.
          1    1    3    3  501    0  0.83239791801E+01 -0.15387611086E+03 -0.43789955997E+03  0.46422319065E+03  0.00000000000E+00 0.  1.
         21    1    1    2  502  501 -0.12157128674E+02 -0.67169431723E+01 -0.55142889066E+02  0.56865203049E+02  0.00000000000E+00 0.  1.
<mgrwt>
<rscale>  1 0.30000000E+03</rscale>
<asrwt>0</asrwt>
<pdfrwt beam="1">  1        1 0.98583185E-01 0.30000000E+03</pdfrwt>
<pdfrwt beam="2">0</pdfrwt>
<totfact> 0.34946947E+01</totfact>
</mgrwt>
</event>
<event>
 6    1  0.1904828E-004  0.3000000E+03  0.7818608E-02  0.1093470E+00
          1   -1    0    0  502    0  0.00000000000E+00  0.00000000000E+00  0.36958456718E+02  0.36958456718E+02  0.00000000000E+00 0.  1.
         13   -1    0    0    0    0 -0.00000000000E+00 -0.00000000000E+00 -0.10000000000E+04  0.10000000000E+04  0.00000000000E+00 0.  1.
    9000005    2    1    2  501    0  0.11708626595E+02 -0.21157393619E+01 -0.97248220968E+03  0.10217698270E+04  0.31328958330E+03 0.  0.
         13    1    3    3    0    0  0.45793792496E+02  0.32947946150E+02 -0.90961449659E+01  0.57143489917E+02  0.00000000000E+00 0.  1.
          1    1    3    3  501    0 -0.34085165901E+02 -0.35063685512E+02 -0.96338606471E+03  0.96462633711E+03  0.00000000000E+00 0.  1.
         21    1    1    2  502  501 -0.11708626595E+02  0.21157393619E+01  0.94406663949E+01  0.15188629687E+02  0.00000000000E+00 0.  1.
<mgrwt>
<rscale>  1 0.30000000E+03</rscale>
<asrwt>0</asrwt>
<pdfrwt beam="1">  1        1 0.13439467E+00 0.30000000E+03</pdfrwt>
<pdfrwt beam="2">0</pdfrwt>
<totfact> 0.21663323E+01</totfact>
</mgrwt>
</event>
<event>
 6    1  0.1904828E-004  0.3000000E+03  0.7818608E-02  0.1093470E+00
          1   -1    0    0  502    0  0.00000000000E+00  0.00000000000E+00  0.31158100336E+02  0.31158100336E+02  0.00000000000E+00 0.  1.
         13   -1    0    0    0    0 -0.00000000000E+00 -0.00000000000E+00 -0.10000000000E+04  0.10000000000E+04  0.00000000000E+00 0.  1.
    9000005    2    1    2  501    0  0.16235787853E+02 -0.55255126273E+01 -0.95767058093E+03  0.10106903096E+04  0.32259545589E+03 0.  0.
         13    1    3    3    0    0  0.27220156998E+02 -0.11542409132E+03 -0.84366469665E+03  0.85195878901E+03  0.00000000000E+00 0.  1.
          3    1    3    3  501    0 -0.10984369145E+02  0.10989857869E+03 -0.11400588428E+03  0.15873152055E+03  0.00000000000E+00 0.  1.
         21    1    1    2  502  501 -0.16235787853E+02  0.55255126273E+01 -0.11171318734E+02  0.20467790777E+02  0.00000000000E+00 0.  1.
<mgrwt>
<rscale>  1 0.30000000E+03</rscale>
<asrwt>0</asrwt>
<pdfrwt beam="1">  1        1 0.11330242E+00 0.30000000E+03</pdfrwt>
<pdfrwt beam="2">0</pdfrwt>
<totfact> 0.28405178E+01</totfact>
</mgrwt>
</event>
<event>
 6    1  0.1904828E-004  0.3000000E+03  0.7818608E-02  0.1093470E+00
          1   -1    0    0  502    0  0.00000000000E+00  0.00000000000E+00  0.68186211692E+02  0.68186211692E+02  0.00000000000E+00 0.  1.
         13   -1    0    0    0    0 -0.00000000000E+00 -0.00000000000E+00 -0.10000000000E+04  0.10000000000E+04  0.00000000000E+00 0.  1.
    9000005    2    1    2  501    0  0.55057677652E+02  0.30601784539E+01 -0.95173979494E+03  0.10095538119E+04  0.33218902654E+03 0.  0.
         13    1    3    3    0    0  0.81994545135E+02  0.33136678890E+02 -0.40242588646E+02  0.97162805953E+02  0.00000000000E+00 0.  1.
          3    1    3    3  501    0 -0.26936867483E+02 -0.30076500436E+02 -0.91149720630E+03  0.91239100598E+03  0.00000000000E+00 0.  1.
         21    1    1    2  502  501 -0.55057677652E+02 -0.30601784539E+01  0.19926006636E+02  0.58632399756E+02  0.00000000000E+00 0.  1.
<mgrwt>
<rscale>  1 0.30000000E+03</rscale>
<asrwt>0</asrwt>
<pdfrwt beam="1">  1        1 0.24795038E+00 0.30000000E+03</pdfrwt>
<pdfrwt beam="2">0</pdfrwt>
<totfact> 0.60986849E+00</totfact>
</mgrwt>
</event>
<event>
 6    1  0.1904828E-004  0.3000000E+03  0.7818608E-02  0.1093470E+00
          1   -1    0    0  502    0  0.00000000000E+00  0.00000000000E+00  0.28661757685E+02  0.28661757685E+02  0.00000000000E+00 0.  1.
         13   -1    0    0    0    0 -0.00000000000E+00 -0.00000000000E+00 -0.10000000000E+04  0.10000000000E+04  0.00000000000E+00 0.  1.
    9000005    2    1    2  501    0 -0.77661492480E+01  0.90910221451E+01 -0.94897168069E+03  0.10032999195E+04  0.32545432542E+03 0.  0.
         13    1    3    3    0    0  0.14085170524E+02 -0.68115971506E+02 -0.91252251321E+03  0.91516966444E+03  0.00000000000E+00 0.  1.
          1    1    3    3  501    0 -0.21851319772E+02  0.77206993652E+02 -0.36449167484E+02  0.88130255048E+02  0.00000000000E+00 0.  1.
         21    1    1    2  502  501  0.77661492480E+01 -0.90910221451E+01 -0.22366561620E+02  0.25361838193E+02  0.00000000000E+00 0.  1.
<mgrwt>
<rscale>  1 0.30000000E+03</rscale>
<asrwt>0</asrwt>
<pdfrwt beam="1">  1        1 0.10422479E+00 0.30000000E+03</pdfrwt>
<pdfrwt beam="2">0</pdfrwt>
<totfact> 0.32204792E+01</totfact>
</mgrwt>
</event>
<event>
 6    1  0.1904828E-004  0.3000000E+03  0.7818608E-02  0.1093470E+00
          1   -1    0    0  502    0  0.00000000000E+00  0.00000000000E+00  0.81943269407E+02  0.81943269407E+02  0.00000000000E+00 0.  1.
         13   -1    0    0    0    0 -0.00000000000E+00 -0.00000000000E+00 -0.10000000000E+04  0.10000000000E+04  0.00000000000E+00 0.  1.
    9000005    2    1    2  501    0  0.16439584276E+02  0.11454021689E+01 -0.97353433292E+03  0.10240698192E+04  0.31729847993E+03 0.  0.
         13    1    3    3    0    0 -0.65646166763E+02  0.17861122578E+02 -0.92450764790E+03  0.92700745948E+03  0.00000000000E+00 0.  1.
          3    1    3    3  501    0  0.82085751039E+02 -0.16715720409E+02 -0.49026685026E+02  0.97062359734E+02  0.00000000000E+00 0.  1.
         21    1    1    2  502  501 -0.16439584276E+02 -0.11454021689E+01  0.55477602329E+02  0.57873450195E+02  0.00000000000E+00 0.  1.
<mgrwt>
<rscale>  1 0.30000000E+03</rscale>
<asrwt>0</asrwt>
<pdfrwt beam="1">  1        1 0.29797615E+00 0.30000000E+03</pdfrwt>
<pdfrwt beam="2">0</pdfrwt>
<totfact> 0.35520115E+00</totfact>
</mgrwt>
</event>
<event>
 6    1  0.1904828E-004  0.3000000E+03  0.7818608E-02  0.1093470E+00
          1   -1    0    0  502    0  0.00000000000E+00  0.00000000000E+00  0.41644065115E+02  0.41644065115E+02  0.00000000000E+00 0.  1.
         13   -1    0    0    0    0 -0.00000000000E+00 -0.00000000000E+00 -0.10000000000E+04  0.10000000000E+04  0.00000000000E+00 0.  1.
    9000005    2    1    2  501    0  0.38686289286E+02 -0.14538915451E+02 -0.94494407436E+03  0.99819424297E+03  0.31900538241E+03 0.  0.
         13    1    3    3    0    0  0.10723012028E+03 -0.42565862674E+02 -0.10816525934E+03  0.15814510643E+03  0.00000000000E+00 0.  1.
          3    1    3    3  501    0 -0.68543830998E+02  0.28026947223E+02 -0.83677881502E+03  0.84004913654E+03  0.00000000000E+00 0.  1.
         21    1    1    2  502  501 -0.38686289286E+02  0.14538915451E+02 -0.13411860528E+02  0.43449822140E+02  0.00000000000E+00 0. -1.
<mgrwt>
<rscale>  1 0.30000000E+03</rscale>
<asrwt>0</asrwt>
<pdfrwt beam="1">  1        1 0.15143328E+00 0.30000000E+03</pdfrwt>
<pdfrwt beam="2">0</pdfrwt>
<totfact> 0.17666577E+01</totfact>
</mgrwt>
</event>
<event>
 6    1  0.1904828E-004  0.3000000E+03  0.7818608E-02  0.1093470E+00
          1   -1    0    0  502    0  0.00000000000E+00  0.00000000000E+00  0.28214167786E+02  0.28214167786E+02  0.00000000000E+00 0.  1.
         13   -1    0    0    0    0 -0.00000000000E+00 -0.00000000000E+00 -0.10000000000E+04  0.10000000000E+04  0.00000000000E+00 0.  1.
    9000005    2    1    2  501    0 -0.67940727608E+01 -0.46036628039E+01 -0.94205181149E+03  0.99736833947E+03  0.32743646088E+03 0.  0.
         13    1    3    3    0    0  0.11763790980E+03 -0.86968331438E+02 -0.68227543113E+03  0.69778358567E+03  0.00000000000E+00 0.  1.
          1    1    3    3  501    0 -0.12443198256E+03  0.82364668634E+02 -0.25977638036E+03  0.29958475381E+03  0.00000000000E+00 0.  1.
         21    1    1    2  502  501  0.67940727608E+01  0.46036628039E+01 -0.29734020722E+02  0.30845828311E+02  0.00000000000E+00 0. -1.
<mgrwt>
<rscale>  1 0.30000000E+03</rscale>
<asrwt>0</asrwt>
<pdfrwt beam="1">  1        1 0.10259719E+00 0.30000000E+03</pdfrwt>
<pdfrwt beam="2">0</pdfrwt>
<totfact> 0.32962610E+01</totfact>
</mgrwt>
</event>
<event>
 6    1  0.1904828E-004  0.3000000E+03  0.7818608E-02  0.1093470E+00
          1   -1    0    0  502    0  0.00000000000E+00  0.00000000000E+00  0.49727338401E+02  0.49727338401E+02  0.00000000000E+00 0.  1.
         13   -1    0    0    0    0 -0.00000000000E+00 -0.00000000000E+00 -0.10000000000E+04  0.10000000000E+04  0.00000000000E+00 0.  1.
    9000005    2    1    2  501    0  0.10939462292E+02 -0.15897466625E+02 -0.97074635846E+03  0.10215924216E+04  0.31769510877E+03 0.  0.
         13    1    3    3    0    0  0.75066441244E+02  0.10208566435E+03 -0.76816571318E+03  0.77854673358E+03  0.00000000000E+00 0.  1.
          3    1    3    3  501    0 -0.64126978952E+02 -0.11798313097E+03 -0.20258064528E+03  0.24304568802E+03  0.00000000000E+00 0.  1.
         21    1    1    2  502  501 -0.10939462292E+02  0.15897466625E+02  0.20473696858E+02  0.28134916800E+02  0.00000000000E+00 0.  1.
<mgrwt>
<rscale>  1 0.30000000E+03</rscale>
<asrwt>0</asrwt>
<pdfrwt beam="1">  1        1 0.18082707E+00 0.30000000E+03</pdfrwt>
<pdfrwt beam="2">0</pdfrwt>
<totfact> 0.12657372E+01</totfact>
</mgrwt>
</event>
<event>
 6    1  0.1904828E-004  0.3000000E+03  0.7818608E-02  0.1093470E+00
          1   -1    0    0  502    0  0.00000000000E+00  0.00000000000E+00  0.29570525122E+02  0.29570525122E+02  0.00000000000E+00 0.  1.
         13   -1    0    0    0    0 -0.00000000000E+00 -0.00000000000E+00 -0.10000000000E+04  0.10000000000E+04  0.00000000000E+00 0.  1.
    9000005    2    1    2  501    0 -0.20447409303E+01  0.10083516587E+02 -0.95382521578E+03  0.10100369721E+04  0.33209378878E+03 0.  0.
         13    1    3    3    0    0 -0.10433571224E+03  0.71804605630E+02 -0.14538779207E+03  0.19281974049E+03  0.00000000000E+00 0.  1.
          3    1    3    3  501    0  0.10229097131E+03 -0.61721089044E+02 -0.80843742371E+03  0.81721723164E+03  0.00000000000E+00 0.  1.
         21    1    1    2  502  501  0.20447409303E+01 -0.10083516587E+02 -0.16604259100E+02  0.19533552992E+02  0.00000000000E+00 0.  1.
<mgrwt>
<rscale>  1 0.30000000E+03</rscale>
<asrwt>0</asrwt>
<pdfrwt beam="1">  1        1 0.10752941E+00 0.30000000E+03</pdfrwt>
<pdfrwt beam="2">0</pdfrwt>
<totfact> 0.30741850E+01</totfact>
</mgrwt>
</event>
<event>
 6    1  0.1904828E-004  0.3000000E+03  0.7818608E-02  0.1093470E+00
          1   -1    0    0  502    0  0.00000000000E+00  0.00000000000E+00  0.54412000882E+02  0.54412000882E+02  0.00000000000E+00 0.  1.
         13   -1    0    0    0    0 -0.00000000000E+00 -0.00000000000E+00 -0.10000000000E+04  0.10000000000E+04  0.00000000000E+00 0.  1.
    9000005    2    1    2  501    0  0.22472094006E+02 -0.23162534102E+02 -0.96349443935E+03  0.10175048390E+04  0.32550432372E+03 0.  0.
         13    1    3    3    0    0  0.58739742774E+02  0.57591486079E+02 -0.43112208266E+02  0.92875180492E+02  0.00000000000E+00 0.  1.
          1    1    3    3  501    0 -0.36267648768E+02 -0.80754020181E+02 -0.92038223109E+03  0.92462965852E+03  0.00000000000E+00 0.  1.
         21    1    1    2  502  501 -0.22472094006E+02  0.23162534102E+02  0.17906440236E+02  0.36907161865E+02  0.00000000000E+00 0.  1.
<mgrwt>
<rscale>  1 0.30000000E+03</rscale>
<asrwt>0</asrwt>
<pdfrwt beam="1">  1        1 0.19786224E+00 0.30000000E+03</pdfrwt>
<pdfrwt beam="2">0</pdfrwt>
<totfact> 0.10486079E+01</totfact>
</mgrwt>
</event>
<event>
 6    1  0.1904828E-004  0.3000000E+03  0.7818608E-02  0.1093470E+00
          1   -1    0    0  502    0  0.00000000000E+00  0.00000000000E+00  0.31528368972E+02  0.31528368972E+02  0.00000000000E+00 0.  1.
         13   -1    0    0    0    0 -0.00000000000E+00 -0.00000000000E+00 -0.10000000000E+04  0.10000000000E+04  0.00000000000E+00 0.  1.
    9000005    2    1    2  501    0 -0.10461603740E+02  0.11760509056E+01 -0.96909444272E+03  0.10209824625E+04  0.32117023775E+03 0.  0.
         13    1    3    3    0    0  0.83459984393E+02  0.45534644065E+02 -0.75590929950E+02  0.12146176969E+03  0.00000000000E+00 0.  1.
          3    1    3    3  501    0 -0.93921588133E+02 -0.44358593159E+02 -0.89350351277E+03  0.89952069283E+03  0.00000000000E+00 0.  1.
         21    1    1    2  502  501  0.10461603740E+02 -0.11760509056E+01  0.62281168678E+00  0.10545906455E+02  0.00000000000E+00 0.  1.
<mgrwt>
<rscale>  1 0.30000000E+03</rscale>
<asrwt>0</asrwt>
<pdfrwt beam="1">  1        1 0.11464886E+00 0.30000000E+03</pdfrwt>
<pdfrwt beam="2">0</pdfrwt>
<totfact> 0.27896640E+01</totfact>
</mgrwt>
</event>
<event>
 6    1  0.1904828E-004  0.3000000E+03  0.7818608E-02  0.1093470E+00
          1   -1    0    0  502    0  0.00000000000E+00  0.00000000000E+00  0.40556460506E+02  0.40556460506E+02  0.00000000000E+00 0.  1.
         13   -1    0    0    0    0 -0.00000000000E+00 -0.00000000000E+00 -0.10000000000E+04  0.10000000000E+04  0.00000000000E+00 0.  1.
    9000005    2    1    2  501    0  0.73301544267E+01 -0.10664235209E+02 -0.95787588935E+03  0.10275213309E+04  0.37162670654E+03 0.  0.
         13    1    3    3    0    0  0.16849776547E+03  0.10933430217E+02 -0.25327101874E+03  0.30439652724E+03  0.00000000000E+00 0.  1.
          1    1    3    3  501    0 -0.16116761104E+03 -0.21597665426E+02 -0.70460487061E+03  0.72312480367E+03  0.00000000000E+00 0.  1.
         21    1    1    2  502  501 -0.73301544267E+01  0.10664235209E+02 -0.15676501459E+01  0.13035129593E+02  0.00000000000E+00 0.  1.
<mgrwt>
<rscale>  1 0.30000000E+03</rscale>
<asrwt>0</asrwt>
<pdfrwt beam="1">  1        1 0.14747835E+00 0.30000000E+03</pdfrwt>
<pdfrwt beam="2">0</pdfrwt>
<totfact> 0.18505234E+01</totfact>
</mgrwt>
</event>
<event>
 6    1  0.1904828E-004  0.3000000E+03  0.7818608E-02  0.1093470E+00
          1   -1    0    0  502    0  0.00000000000E+00  0.00000000000E+00  0.30416065756E+02  0.30416065756E+02  0.00000000000E+00 0.  1.
         13   -1    0    0    0    0 -0.00000000000E+00 -0.00000000000E+00 -0.10000000000E+04  0.10000000000E+04  0.00000000000E+00 0.  1.
    9000005    2    1    2  501    0  0.53955983002E+01  0.14706909803E+02 -0.94497365686E+03  0.10012429372E+04  0.33055529258E+03 0.  0.
         13    1    3    3    0    0 -0.11727536861E+03 -0.90606761132E+02 -0.63002453831E+03  0.64722022227E+03  0.00000000000E+00 0.  1.
          1    1    3    3  501    0  0.12267096691E+03  0.10531367094E+03 -0.31494911855E+03  0.35402271493E+03  0.00000000000E+00 0.  1.
         21    1    1    2  502  501 -0.53955983002E+01 -0.14706909803E+02 -0.24610277380E+02  0.29173128555E+02  0.00000000000E+00 0.  1.
<mgrwt>
<rscale>  1 0.30000000E+03</rscale>
<asrwt>0</asrwt>
<pdfrwt beam="1">  1        1 0.11060411E+00 0.30000000E+03</pdfrwt>
<pdfrwt beam="2">0</pdfrwt>
<totfact> 0.29464762E+01</totfact>
</mgrwt>
</event>
<event>
 6    1  0.1904828E-004  0.3000000E+03  0.7818608E-02  0.1093470E+00
          1   -1    0    0  502    0  0.00000000000E+00  0.00000000000E+00  0.36312473801E+02  0.36312473801E+02  0.00000000000E+00 0.  1.
         13   -1    0    0    0    0 -0.00000000000E+00 -0.00000000000E+00 -0.10000000000E+04  0.10000000000E+04  0.00000000000E+00 0.  1.
    9000005    2    1    2  501    0  0.14876153395E+02  0.22737509832E+01 -0.96427258379E+03  0.10212521891E+04  0.33601777924E+03 0.  0.
         13    1    3    3    0    0 -0.26285059856E+02  0.16215982662E+03 -0.58445873334E+03  0.60710684786E+03  0.00000000000E+00 0.  1.
          3    1    3    3  501    0  0.41161213251E+02 -0.15988607564E+03 -0.37981385045E+03  0.41414534122E+03  0.00000000000E+00 0.  1.
         21    1    1    2  502  501 -0.14876153395E+02 -0.22737509832E+01  0.58505759581E+00  0.15060284717E+02  0.00000000000E+00 0.  1.
<mgrwt>
<rscale>  1 0.30000000E+03</rscale>
<asrwt>0</asrwt>
<pdfrwt beam="1">  1        1 0.13204564E+00 0.30000000E+03</pdfrwt>
<pdfrwt beam="2">0</pdfrwt>
<totfact> 0.22302670E+01</totfact>
</mgrwt>
</event>
<event>
 6    1  0.1904828E-004  0.3000000E+03  0.7818608E-02  0.1093470E+00
          1   -1    0    0  502    0  0.00000000000E+00  0.00000000000E+00  0.32438562030E+02  0.32438562030E+02  0.00000000000E+00 0.  1.
         13   -1    0    0    0    0 -0.00000000000E+00 -0.00000000000E+00 -0.10000000000E+04  0.10000000000E+04  0.00000000000E+00 0.  1.
    9000005    2    1    2  501    0 -0.12409835757E+02 -0.20135166685E+02 -0.93707781827E+03  0.99385514550E+03  0.33026320380E+03 0.  0.
         13    1    3    3    0    0 -0.89022023199E+01 -0.17194069983E+03 -0.39457830732E+03  0.43050539378E+03  0.00000000000E+00 0.  1.
          3    1    3    3  501    0 -0.35076334368E+01  0.15180553315E+03 -0.54249951095E+03  0.56334975173E+03  0.00000000000E+00 0.  1.
         21    1    1    2  502  501  0.12409835757E+02  0.20135166685E+02 -0.30483619698E+02  0.38583416526E+02  0.00000000000E+00 0. -1.
<mgrwt>
<rscale>  1 0.30000000E+03</rscale>
<asrwt>0</asrwt>
<pdfrwt beam="1">  1        1 0.11795866E+00 0.30000000E+03</pdfrwt>
<pdfrwt beam="2">0</pdfrwt>
<totfact> 0.26699481E+01</totfact>
</mgrwt>
</event>
<event>
 6    1  0.1904828E-004  0.3000000E+03  0.7818608E-02  0.1093470E+00
          1   -1    0    0  502    0  0.00000000000E+00  0.00000000000E+00  0.31946160872E+02  0.31946160872E+02  0.00000000000E+00 0.  1.
         13   -1    0    0    0    0 -0.00000000000E+00 -0.00000000000E+00 -0.10000000000E+04  0.10000000000E+04  0.00000000000E+00 0.  1.
    9000005    2    1    2  501    0 -0.18364025776E+02 -0.15927682754E+02 -0.94256522602E+03  0.99672403830E+03  0.32316973048E+03 0.  0.
         13    1    3    3    0    0  0.10611305346E+03 -0.11990232982E+03 -0.52043504646E+03  0.54450820599E+03  0.00000000000E+00 0.  1.
          1    1    3    3  501    0 -0.12447707924E+03  0.10397464707E+03 -0.42213017956E+03  0.45221583230E+03  0.00000000000E+00 0.  1.
         21    1    1    2  502  501  0.18364025776E+02  0.15927682754E+02 -0.25488613108E+02  0.35222122576E+02  0.00000000000E+00 0. -1.
<mgrwt>
<rscale>  1 0.30000000E+03</rscale>
<asrwt>0</asrwt>
<pdfrwt beam="1">  1        1 0.11616810E+00 0.30000000E+03</pdfrwt>
<pdfrwt beam="2">0</pdfrwt>
<totfact> 0.27338075E+01</totfact>
</mgrwt>
</event>
<event>
 6    1  0.1904828E-004  0.3000000E+03  0.7818608E-02  0.1093470E+00
          1   -1    0    0  502    0  0.00000000000E+00  0.00000000000E+00  0.31607399146E+02  0.31607399146E+02  0.00000000000E+00 0.  1.
         13   -1    0    0    0    0 -0.00000000000E+00 -0.00000000000E+00 -0.10000000000E+04  0.10000000000E+04  0.00000000000E+00 0.  1.
    9000005    2    1    2  501    0 -0.67880505975E+01  0.19930408186E+02 -0.95752646859E+03  0.10079141167E+04  0.31399144868E+03 0.  0.
         13    1    3    3    0    0 -0.13073897674E+03 -0.13947520814E+02 -0.76647489473E+03  0.77767022421E+03  0.00000000000E+00 0.  1.
          1    1    3    3  501    0  0.12395092614E+03  0.33877929000E+02 -0.19105157386E+03  0.23024389252E+03  0.00000000000E+00 0.  1.
         21    1    1    2  502  501  0.67880505975E+01 -0.19930408186E+02 -0.10866132264E+02  0.23693282418E+02  0.00000000000E+00 0. -1.
<mgrwt>
<rscale>  1 0.30000000E+03</rscale>
<asrwt>0</asrwt>
<pdfrwt beam="1">  1        1 0.11493624E+00 0.30000000E+03</pdfrwt>
<pdfrwt beam="2">0</pdfrwt>
<totfact> 0.27789763E+01</totfact>
</mgrwt>
</event>
<event>
 6    1  0.1904828E-004  0.3000000E+03  0.7818608E-02  0.1093470E+00
          1   -1    0    0  502    0  0.00000000000E+00  0.00000000000E+00  0.30730537887E+02  0.30730537887E+02  0.00000000000E+00 0.  1.
         13   -1    0    0    0    0 -0.00000000000E+00 -0.00000000000E+00 -0.10000000000E+04  0.10000000000E+04  0.00000000000E+00 0.  1.
    9000005    2    1    2  501    0 -0.10504198600E+02  0.19895500299E+02 -0.93874366302E+03  0.99280965274E+03  0.32237427407E+03 0.  0.
         13    1    3    3    0    0  0.41576660103E+01 -0.13009543756E+03 -0.19842336290E+03  0.23730558360E+03  0.00000000000E+00 0.  1.
          1    1    3    3  501    0 -0.14661864611E+02  0.14999093786E+03 -0.74032030012E+03  0.75550406914E+03  0.00000000000E+00 0.  1.
         21    1    1    2  502  501  0.10504198600E+02 -0.19895500299E+02 -0.30525799092E+02  0.37920885150E+02  0.00000000000E+00 0.  1.
<mgrwt>
<rscale>  1 0.30000000E+03</rscale>
<asrwt>0</asrwt>
<pdfrwt beam="1">  1        1 0.11174765E+00 0.30000000E+03</pdfrwt>
<pdfrwt beam="2">0</pdfrwt>
<totfact> 0.29008983E+01</totfact>
</mgrwt>
</event>
<event>
 6    1  0.1904828E-004  0.3000000E+03  0.7818608E-02  0.1093470E+00
          1   -1    0    0  502    0  0.00000000000E+00  0.00000000000E+00  0.28704240490E+02  0.28704240490E+02  0.00000000000E+00 0.  1.
         13   -1    0    0    0    0 -0.00000000000E+00 -0.00000000000E+00 -0.10000000000E+04  0.10000000000E+04  0.00000000000E+00 0.  1.
    9000005    2    1    2  501    0  0.21451268170E+02 -0.63290703730E+01 -0.94779473665E+03  0.99626179740E+03  0.30614129435E+03 0.  0.
         13    1    3    3    0    0 -0.13838324546E+02 -0.28363665678E+02 -0.95371659965E+03  0.95423862278E+03  0.00000000000E+00 0.  1.
          3    1    3    3  501    0  0.35289592716E+02  0.22034595305E+02  0.59218629984E+01  0.42023174627E+02  0.00000000000E+00 0.  1.
         21    1    1    2  502  501 -0.21451268170E+02  0.63290703730E+01 -0.23501022862E+02  0.32442443087E+02  0.00000000000E+00 0. -1.
<mgrwt>
<rscale>  1 0.30000000E+03</rscale>
<asrwt>0</asrwt>
<pdfrwt beam="1">  1        1 0.10437928E+00 0.30000000E+03</pdfrwt>
<pdfrwt beam="2">0</pdfrwt>
<totfact> 0.32134184E+01</totfact>
</mgrwt>
</event>
<event>
 6    1  0.1904828E-004  0.3000000E+03  0.7818608E-02  0.1093470E+00
          1   -1    0    0  502    0  0.00000000000E+00  0.00000000000E+00  0.53887322887E+02  0.53887322887E+02  0.00000000000E+00 0.  1.
         13   -1    0    0    0    0 -0.00000000000E+00 -0.00000000000E+00 -0.10000000000E+04  0.10000000000E+04  0.00000000000E+00 0.  1.
    9000005    2    1    2  501    0 -0.11024575797E+03 -0.17023320807E+01 -0.77399822277E+03  0.84948475324E+03  0.33225603388E+03 0.  0.
         13    1    3    3    0    0 -0.93455132631E+02 -0.12306610817E+03 -0.15644746273E+03  0.21989756113E+03  0.00000000000E+00 0.  1.
          1    1    3    3  501    0 -0.16790625339E+02  0.12136377609E+03 -0.61755076004E+03  0.62958719211E+03  0.00000000000E+00 0.  1.
         21    1    1    2  502  501  0.11024575797E+03  0.17023320807E+01 -0.17211445435E+03  0.20440256965E+03  0.00000000000E+00 0.  1.
<mgrwt>
<rscale>  1 0.30000000E+03</rscale>
<asrwt>0</asrwt>
<pdfrwt beam="1">  1        1 0.19595431E+00 0.30000000E+03</pdfrwt>
<pdfrwt beam="2">0</pdfrwt>
<totfact> 0.10707821E+01</totfact>
</mgrwt>
</event>
<event>
 6    1  0.1904828E-004  0.3000000E+03  0.7818608E-02  0.1093470E+00
          1   -1    0    0  502    0  0.00000000000E+00  0.00000000000E+00  0.32515439636E+02  0.32515439636E+02  0.00000000000E+00 0.  1.
         13   -1    0    0    0    0 -0.00000000000E+00 -0.00000000000E+00 -0.10000000000E+04  0.10000000000E+04  0.00000000000E+00 0.  1.
    9000005    2    1    2  501    0  0.76387695279E+01 -0.85729046445E+01 -0.97008048384E+03  0.10207432558E+04  0.31737801373E+03 0.  0.
         13    1    3    3    0    0  0.56206040348E+02 -0.11572917352E+03 -0.82007253843E+03  0.83010320374E+03  0.00000000000E+00 0.  1.
          3    1    3    3  501    0 -0.48567270820E+02  0.10715626888E+03 -0.15000794542E+03  0.19064005204E+03  0.00000000000E+00 0.  1.
         21    1    1    2  502  501 -0.76387695279E+01  0.85729046445E+01  0.25959234799E+01  0.11772183853E+02  0.00000000000E+00 0.  1.
<mgrwt>
<rscale>  1 0.30000000E+03</rscale>
<asrwt>0</asrwt>
<pdfrwt beam="1">  1        1 0.11823821E+00 0.30000000E+03</pdfrwt>
<pdfrwt beam="2">0</pdfrwt>
<totfact> 0.26601631E+01</totfact>
</mgrwt>
</event>
<event>
 6    1  0.1904828E-004  0.3000000E+03  0.7818608E-02  0.1093470E+00
          1   -1    0    0  502    0  0.00000000000E+00  0.00000000000E+00  0.31553459624E+02  0.31553459624E+02  0.00000000000E+00 0.  1.
         13   -1    0    0    0    0 -0.00000000000E+00 -0.00000000000E+00 -0.10000000000E+04  0.10000000000E+04  0.00000000000E+00 0.  1.
    9000005    2    1    2  501    0 -0.22706514579E+01  0.10042029644E+02 -0.95317618203E+03  0.10131365635E+04  0.34321256412E+03 0.  0.
         13    1    3    3    0    0 -0.11833278691E+03  0.39175901582E+02 -0.83742379824E+03  0.84664987899E+03  0.00000000000E+00 0.  1.
          1    1    3    3  501    0  0.11606213546E+03 -0.29133871938E+02 -0.11575238379E+03  0.16648668455E+03  0.00000000000E+00 0.  1.
         21    1    1    2  502  501  0.22706514579E+01 -0.10042029644E+02 -0.15270358343E+02  0.18416896083E+02  0.00000000000E+00 0. -1.
<mgrwt>
<rscale>  1 0.30000000E+03</rscale>
<asrwt>0</asrwt>
<pdfrwt beam="1">  1        1 0.11474010E+00 0.30000000E+03</pdfrwt>
<pdfrwt beam="2">0</pdfrwt>
<totfact> 0.27862646E+01</totfact>
</mgrwt>
</event>
<event>
 6    1  0.1904828E-004  0.3000000E+03  0.7818608E-02  0.1093470E+00
          1   -1    0    0  502    0  0.00000000000E+00  0.00000000000E+00  0.48884438877E+02  0.48884438877E+02  0.00000000000E+00 0.  1.
         13   -1    0    0    0    0 -0.00000000000E+00 -0.00000000000E+00 -0.10000000000E+04  0.10000000000E+04  0.00000000000E+00 0.  1.
    9000005    2    1    2  501    0 -0.81816659999E+01 -0.17000937197E+02 -0.96535968327E+03  0.10252440806E+04  0.34474647959E+03 0.  0.
         13    1    3    3    0    0  0.48519287921E+02 -0.88742477573E+02 -0.64941777366E+02  0.12019477141E+03  0.00000000000E+00 0.  1.
          1    1    3    3  501    0 -0.56700953921E+02  0.71741540376E+02 -0.90041790590E+03  0.90504930919E+03  0.00000000000E+00 0.  1.
         21    1    1    2  502  501  0.81816659999E+01  0.17000937197E+02  0.14244122144E+02  0.23640358283E+02  0.00000000000E+00 0.  1.
<mgrwt>
<rscale>  1 0.30000000E+03</rscale>
<asrwt>0</asrwt>
<pdfrwt beam="1">  1        1 0.17776197E+00 0.30000000E+03</pdfrwt>
<pdfrwt beam="2">0</pdfrwt>
<totfact> 0.13097234E+01</totfact>
</mgrwt>
</event>
<event>
 6    1  0.1904828E-004  0.3000000E+03  0.7818608E-02  0.1093470E+00
          3   -1    0    0  502    0  0.00000000000E+00  0.00000000000E+00  0.29076767968E+02  0.29076767968E+02  0.00000000000E+00 0.  1.
         13   -1    0    0    0    0 -0.00000000000E+00 -0.00000000000E+00 -0.10000000000E+04  0.10000000000E+04  0.00000000000E+00 0.  1.
    9000005    2    1    2  501    0  0.55755844619E+01  0.75003610309E+01 -0.95252421879E+03  0.10084402410E+04  0.33100149501E+03 0.  0.
         13    1    3    3    0    0  0.36028594536E+02 -0.16496404014E+02 -0.96643627983E+03  0.96724830005E+03  0.00000000000E+00 0.  1.
          1    1    3    3  501    0 -0.30453010074E+02  0.23996765044E+02  0.13912061047E+02  0.41191940932E+02  0.00000000000E+00 0.  1.
         21    1    1    2  502  501 -0.55755844619E+01 -0.75003610309E+01 -0.18399013244E+02  0.20636526986E+02  0.00000000000E+00 0. -1.
<mgrwt>
<rscale>  1 0.30000000E+03</rscale>
<asrwt>0</asrwt>
<pdfrwt beam="1">  1        3 0.10573392E+00 0.30000000E+03</pdfrwt>
<pdfrwt beam="2">0</pdfrwt>
<totfact> 0.33703390E+00</totfact>
</mgrwt>
</event>
<event>
 6    1  0.1904828E-004  0.3000000E+03  0.7818608E-02  0.1093470E+00
          1   -1    0    0  502    0  0.00000000000E+00  0.00000000000E+00  0.38773224560E+02  0.38773224560E+02  0.00000000000E+00 0.  1.
         13   -1    0    0    0    0 -0.00000000000E+00 -0.00000000000E+00 -0.10000000000E+04  0.10000000000E+04  0.00000000000E+00 0.  1.
    9000005    2    1    2  501    0 -0.50076526309E+02 -0.94411444391E+01 -0.88262656079E+03  0.94509938916E+03  0.33404552965E+03 0.  0.
         13    1    3    3    0    0 -0.15684336155E+03  0.97992309480E+02 -0.44046089009E+03  0.47771134431E+03  0.00000000000E+00 0.  1.
          3    1    3    3  501    0  0.10676683524E+03 -0.10743345392E+03 -0.44216567070E+03  0.46738804485E+03  0.00000000000E+00 0.  1.
         21    1    1    2  502  501  0.50076526309E+02  0.94411444391E+01 -0.78600214649E+02  0.93673835399E+02  0.00000000000E+00 0.  1.
<mgrwt>
<rscale>  1 0.30000000E+03</rscale>
<asrwt>0</asrwt>
<pdfrwt beam="1">  1        1 0.14099384E+00 0.30000000E+03</pdfrwt>
<pdfrwt beam="2">0</pdfrwt>
<totfact> 0.19991296E+01</totfact>
</mgrwt>
</event>
<event>
 6    1  0.1904828E-004  0.3000000E+03  0.7818608E-02  0.1093470E+00
          1   -1    0    0  502    0  0.00000000000E+00  0.00000000000E+00  0.39271694788E+02  0.39271694788E+02  0.00000000000E+00 0.  1.
         13   -1    0    0    0    0 -0.00000000000E+00 -0.00000000000E+00 -0.10000000000E+04  0.10000000000E+04  0.00000000000E+00 0.  1.
    9000005    2    1    2  501    0 -0.52029602826E+01  0.11990717894E+02 -0.96984391648E+03  0.10233361220E+04  0.32626484357E+03 0.  0.
         13    1    3    3    0    0 -0.31761857766E+02  0.12384102418E+03 -0.84099539622E+03  0.85065778744E+03  0.00000000000E+00 0.  1.
          3    1    3    3  501    0  0.26558897484E+02 -0.11185030629E+03 -0.12884852026E+03  0.17267833456E+03  0.00000000000E+00 0.  1.
         21    1    1    2  502  501  0.52029602826E+01 -0.11990717894E+02  0.91156112658E+01  0.15935572787E+02  0.00000000000E+00 0.  1.
<mgrwt>
<rscale>  1 0.30000000E+03</rscale>
<asrwt>0</asrwt>
<pdfrwt beam="1">  1        1 0.14280646E+00 0.30000000E+03</pdfrwt>
<pdfrwt beam="2">0</pdfrwt>
<totfact> 0.19561171E+01</totfact>
</mgrwt>
</event>
<event>
 6    1  0.1904828E-004  0.3000000E+03  0.7818608E-02  0.1093470E+00
          1   -1    0    0  502    0  0.00000000000E+00  0.00000000000E+00  0.30515797531E+02  0.30515797531E+02  0.00000000000E+00 0.  1.
         13   -1    0    0    0    0 -0.00000000000E+00 -0.00000000000E+00 -0.10000000000E+04  0.10000000000E+04  0.00000000000E+00 0.  1.
    9000005    2    1    2  501    0  0.21354472303E+02 -0.87456251304E+01 -0.91302062830E+03  0.96951879224E+03  0.32531142212E+03 0.  0.
         13    1    3    3    0    0  0.46359712502E+02 -0.15364025871E+03 -0.63553228131E+03  0.65548137474E+03  0.00000000000E+00 0.  1.
          1    1    3    3  501    0 -0.25005240199E+02  0.14489463358E+03 -0.27748834698E+03  0.31403741750E+03  0.00000000000E+00 0.  1.
         21    1    1    2  502  501 -0.21354472303E+02  0.87456251304E+01 -0.56463574173E+02  0.60997005293E+02  0.00000000000E+00 0. -1.
<mgrwt>
<rscale>  1 0.30000000E+03</rscale>
<asrwt>0</asrwt>
<pdfrwt beam="1">  1        1 0.11096677E+00 0.30000000E+03</pdfrwt>
<pdfrwt beam="2">0</pdfrwt>
<totfact> 0.29319126E+01</totfact>
</mgrwt>
</event>
<event>
 6    1  0.1904828E-004  0.3000000E+03  0.7818608E-02  0.1093470E+00
          1   -1    0    0  502    0  0.00000000000E+00  0.00000000000E+00  0.37253664203E+02  0.37253664203E+02  0.00000000000E+00 0.  1.
         13   -1    0    0    0    0 -0.00000000000E+00 -0.00000000000E+00 -0.10000000000E+04  0.10000000000E+04  0.00000000000E+00 0.  1.
    9000005    2    1    2  501    0  0.58052359598E+02 -0.43952178282E+02 -0.89698259940E+03  0.93913771516E+03  0.26851442045E+03 0.  0.
         13    1    3    3    0    0 -0.17926716867E+02 -0.54972665706E+02 -0.23705796649E+02  0.62492607140E+02  0.00000000000E+00 0.  1.
          1    1    3    3  501    0  0.75979076465E+02  0.11020487424E+02 -0.87327680275E+03  0.87664510802E+03  0.00000000000E+00 0.  1.
         21    1    1    2  502  501 -0.58052359598E+02  0.43952178282E+02 -0.65763736400E+02  0.98115949039E+02  0.00000000000E+00 0.  1.
<mgrwt>
<rscale>  1 0.30000000E+03</rscale>
<asrwt>0</asrwt>
<pdfrwt beam="1">  1        1 0.13546816E+00 0.30000000E+03</pdfrwt>
<pdfrwt beam="2">0</pdfrwt>
<totfact> 0.21379227E+01</totfact>
</mgrwt>
</event>
<event>
 6    1  0.1904828E-004  0.3000000E+03  0.7818608E-02  0.1093470E+00
          1   -1    0    0  502    0  0.00000000000E+00  0.00000000000E+00  0.31959224324E+02  0.31959224324E+02  0.00000000000E+00 0.  1.
         13   -1    0    0    0    0 -0.00000000000E+00 -0.00000000000E+00 -0.10000000000E+04  0.10000000000E+04  0.00000000000E+00 0.  1.
    9000005    2    1    2  501    0 -0.17623838653E+02  0.13630556279E+02 -0.86869834515E+03  0.93014905658E+03  0.33172889660E+03 0.  0.
         13    1    3    3    0    0 -0.60368500446E+02  0.51320194434E+02 -0.86955230063E+03  0.87315480972E+03  0.00000000000E+00 0.  1.
          1    1    3    3  501    0  0.42744661793E+02 -0.37689638155E+02  0.85395547430E+00  0.56994246868E+02  0.00000000000E+00 0.  1.
         21    1    1    2  502  501  0.17623838653E+02 -0.13630556279E+02 -0.99342430522E+02  0.10181016774E+03  0.00000000000E+00 0.  1.
<mgrwt>
<rscale>  1 0.30000000E+03</rscale>
<asrwt>0</asrwt>
<pdfrwt beam="1">  1        1 0.11621561E+00 0.30000000E+03</pdfrwt>
<pdfrwt beam="2">0</pdfrwt>
<totfact> 0.27320862E+01</totfact>
</mgrwt>
</event>
<event>
 6    1  0.1904828E-004  0.3000000E+03  0.7818608E-02  0.1093470E+00
          1   -1    0    0  502    0  0.00000000000E+00  0.00000000000E+00  0.28719264660E+02  0.28719264660E+02  0.00000000000E+00 0.  1.
         13   -1    0    0    0    0 -0.00000000000E+00 -0.00000000000E+00 -0.10000000000E+04  0.10000000000E+04  0.00000000000E+00 0.  1.
    9000005    2    1    2  501    0  0.75150810192E+01 -0.63210159733E+01 -0.96171321088E+03  0.10150090783E+04  0.32442980345E+03 0.  0.
         13    1    3    3    0    0 -0.74150523483E+02  0.86447728307E+02 -0.81612913469E+03  0.82403778696E+03  0.00000000000E+00 0.  1.
          3    1    3    3  501    0  0.81665604502E+02 -0.92768744280E+02 -0.14558407620E+03  0.19097129134E+03  0.00000000000E+00 0.  1.
         21    1    1    2  502  501 -0.75150810192E+01  0.63210159733E+01 -0.95675244549E+01  0.13710186354E+02  0.00000000000E+00 0. -1.
<mgrwt>
<rscale>  1 0.30000000E+03</rscale>
<asrwt>0</asrwt>
<pdfrwt beam="1">  1        1 0.10443391E+00 0.30000000E+03</pdfrwt>
<pdfrwt beam="2">0</pdfrwt>
<totfact> 0.32109267E+01</totfact>
</mgrwt>
</event>
<event>
 6    1  0.1904828E-004  0.3000000E+03  0.7818608E-02  0.1093470E+00
          1   -1    0    0  502    0  0.00000000000E+00  0.00000000000E+00  0.33309959201E+02  0.33309959201E+02  0.00000000000E+00 0.  1.
         13   -1    0    0    0    0 -0.00000000000E+00 -0.00000000000E+00 -0.10000000000E+04  0.10000000000E+04  0.00000000000E+00 0.  1.
    9000005    2    1    2  501    0  0.20625284154E+02  0.10740588679E+02 -0.94039488929E+03  0.99820728716E+03  0.33396777950E+03 0.  0.
         13    1    3    3    0    0 -0.10328202632E+03  0.11876980089E+03 -0.59842548795E+03  0.61877823749E+03  0.00000000000E+00 0.  1.
          3    1    3    3  501    0  0.12390731047E+03 -0.10802921221E+03 -0.34196940134E+03  0.37942904967E+03  0.00000000000E+00 0.  1.
         21    1    1    2  502  501 -0.20625284154E+02 -0.10740588679E+02 -0.26295151512E+02  0.35102672044E+02  0.00000000000E+00 0.  1.
<mgrwt>
<rscale>  1 0.30000000E+03</rscale>
<asrwt>0</asrwt>
<pdfrwt beam="1">  1        1 0.12112738E+00 0.30000000E+03</pdfrwt>
<pdfrwt beam="2">0</pdfrwt>
<totfact> 0.25618171E+01</totfact>
</mgrwt>
</event>
<event>
 6    1  0.1904828E-004  0.3000000E+03  0.7818608E-02  0.1093470E+00
          1   -1    0    0  502    0  0.00000000000E+00  0.00000000000E+00  0.29263321188E+02  0.29263321188E+02  0.00000000000E+00 0.  1.
         13   -1    0    0    0    0 -0.00000000000E+00 -0.00000000000E+00 -0.10000000000E+04  0.10000000000E+04  0.00000000000E+00 0.  1.
    9000005    2    1    2  501    0 -0.59515738893E+01  0.12628802785E+02 -0.93956083112E+03  0.99510426132E+03  0.32751034738E+03 0.  0.
         13    1    3    3    0    0  0.34329814472E+02  0.13095545337E+03 -0.78373019068E+03  0.79533695923E+03  0.00000000000E+00 0.  1.
          3    1    3    3  501    0 -0.40281388361E+02 -0.11832665059E+03 -0.15583064044E+03  0.19976730210E+03  0.00000000000E+00 0.  1.
         21    1    1    2  502  501  0.59515738893E+01 -0.12628802785E+02 -0.31175847692E+02  0.34159059865E+02  0.00000000000E+00 0.  1.
<mgrwt>
<rscale>  1 0.30000000E+03</rscale>
<asrwt>0</asrwt>
<pdfrwt beam="1">  1        1 0.10641230E+00 0.30000000E+03</pdfrwt>
<pdfrwt beam="2">0</pdfrwt>
<totfact> 0.31225475E+01</totfact>
</mgrwt>
</event>
<event>
 6    1  0.1904828E-004  0.3000000E+03  0.7818608E-02  0.1093470E+00
          1   -1    0    0  502    0  0.00000000000E+00  0.00000000000E+00  0.29761157095E+02  0.29761157095E+02  0.00000000000E+00 0.  1.
         13   -1    0    0    0    0 -0.00000000000E+00 -0.00000000000E+00 -0.10000000000E+04  0.10000000000E+04  0.00000000000E+00 0.  1.
    9000005    2    1    2  501    0 -0.89443603587E+01 -0.50220515664E+01 -0.96571956371E+03  0.10185519435E+04  0.32361792806E+03 0.  0.
         13    1    3    3    0    0 -0.11578964011E+03 -0.21903265948E+02 -0.12842322118E+03  0.17429721040E+03  0.00000000000E+00 0.  1.
          1    1    3    3  501    0  0.10684527975E+03  0.16881214381E+02 -0.83729634253E+03  0.84425473313E+03  0.00000000000E+00 0.  1.
         21    1    1    2  502  501  0.89443603587E+01  0.50220515664E+01 -0.45192791929E+01  0.11209213558E+02  0.00000000000E+00 0.  1.
<mgrwt>
<rscale>  1 0.30000000E+03</rscale>
<asrwt>0</asrwt>
<pdfrwt beam="1">  1        1 0.10822262E+00 0.30000000E+03</pdfrwt>
<pdfrwt beam="2">0</pdfrwt>
<totfact> 0.30447126E+01</totfact>
</mgrwt>
</event>
<event>
 6    1  0.1904828E-004  0.3000000E+03  0.7818608E-02  0.1093470E+00
          1   -1    0    0  502    0  0.00000000000E+00  0.00000000000E+00  0.35824341303E+02  0.35824341303E+02  0.00000000000E+00 0.  1.
         13   -1    0    0    0    0 -0.00000000000E+00 -0.00000000000E+00 -0.10000000000E+04  0.10000000000E+04  0.00000000000E+00 0.  1.
    9000005    2    1    2  501    0 -0.31113168455E+02 -0.83326257827E+01 -0.94014154895E+03  0.99563603038E+03  0.32617098433E+03 0.  0.
         13    1    3    3    0    0  0.95112665338E+02 -0.11785540632E+03 -0.33128576803E+03  0.36426168616E+03  0.00000000000E+00 0.  1.
          1    1    3    3  501    0 -0.12622583379E+03  0.10952278054E+03 -0.60885578092E+03  0.63137434422E+03  0.00000000000E+00 0.  1.
         21    1    1    2  502  501  0.31113168455E+02  0.83326257827E+01 -0.24034109742E+02  0.40188310923E+02  0.00000000000E+00 0.  1.
<mgrwt>
<rscale>  1 0.30000000E+03</rscale>
<asrwt>0</asrwt>
<pdfrwt beam="1">  1        1 0.13027061E+00 0.30000000E+03</pdfrwt>
<pdfrwt beam="2">0</pdfrwt>
<totfact> 0.22802327E+01</totfact>
</mgrwt>
</event>
<event>
 6    1  0.1904828E-004  0.3000000E+03  0.7818608E-02  0.1093470E+00
          1   -1    0    0  502    0  0.00000000000E+00  0.00000000000E+00  0.53691973671E+02  0.53691973671E+02  0.00000000000E+00 0.  1.
         13   -1    0    0    0    0 -0.00000000000E+00 -0.00000000000E+00 -0.10000000000E+04  0.10000000000E+04  0.00000000000E+00 0.  1.
    9000005    2    1    2  501    0  0.11206751936E+02  0.20952091036E+02 -0.96874634123E+03  0.10210107959E+04  0.32160377826E+03 0.  0.
         13    1    3    3    0    0  0.27795463685E+02  0.73306065153E+02 -0.96255635505E+03  0.96574380849E+03  0.00000000000E+00 0.  1.
          1    1    3    3  501    0 -0.16588711749E+02 -0.52353974117E+02 -0.61899861821E+01  0.55266987364E+02  0.00000000000E+00 0.  1.
         21    1    1    2  502  501 -0.11206751936E+02 -0.20952091036E+02  0.22438314904E+02  0.32681177817E+02  0.00000000000E+00 0.  1.
<mgrwt>
<rscale>  1 0.30000000E+03</rscale>
<asrwt>0</asrwt>
<pdfrwt beam="1">  1        1 0.19524395E+00 0.30000000E+03</pdfrwt>
<pdfrwt beam="2">0</pdfrwt>
<totfact> 0.10791722E+01</totfact>
</mgrwt>
</event>
<event>
 6    1  0.1904828E-004  0.3000000E+03  0.7818608E-02  0.1093470E+00
          1   -1    0    0  502    0  0.00000000000E+00  0.00000000000E+00  0.29282242916E+02  0.29282242916E+02  0.00000000000E+00 0.  1.
         13   -1    0    0    0    0 -0.00000000000E+00 -0.00000000000E+00 -0.10000000000E+04  0.10000000000E+04  0.00000000000E+00 0.  1.
    9000005    2    1    2  501    0 -0.16056505010E+02 -0.25132201228E+01 -0.88097459795E+03  0.93807937980E+03  0.32188903826E+03 0.  0.
         13    1    3    3    0    0 -0.21731738297E+02  0.15240941582E+03 -0.57253316629E+03  0.59287024295E+03  0.00000000000E+00 0.  1.
          1    1    3    3  501    0  0.56752332872E+01 -0.15492263594E+03 -0.30844143166E+03  0.34520913685E+03  0.00000000000E+00 0.  1.
         21    1    1    2  502  501  0.16056505010E+02  0.25132201228E+01 -0.89743159136E+02  0.91202863114E+02  0.00000000000E+00 0.  1.
<mgrwt>
<rscale>  1 0.30000000E+03</rscale>
<asrwt>0</asrwt>
<pdfrwt beam="1">  1        1 0.10648111E+00 0.30000000E+03</pdfrwt>
<pdfrwt beam="2">0</pdfrwt>
<totfact> 0.31195372E+01</totfact>
</mgrwt>
</event>
<event>
 6    1  0.1904828E-004  0.3000000E+03  0.7818608E-02  0.1093470E+00
          1   -1    0    0  502    0  0.00000000000E+00  0.00000000000E+00  0.30746271947E+02  0.30746271947E+02  0.00000000000E+00 0.  1.
         13   -1    0    0    0    0 -0.00000000000E+00 -0.00000000000E+00 -0.10000000000E+04  0.10000000000E+04  0.00000000000E+00 0.  1.
    9000005    2    1    2  501    0 -0.84960389317E+01 -0.91543649127E+01 -0.96095744676E+03  0.10157524946E+04  0.32887373082E+03 0.  0.
         13    1    3    3    0    0  0.10742214347E+03 -0.28155334261E+02 -0.10855557327E+03  0.15529504900E+03  0.00000000000E+00 0.  1.
          3    1    3    3  501    0 -0.11591818240E+03  0.19000969348E+02 -0.85240187349E+03  0.86045744565E+03  0.00000000000E+00 0.  1.
         21    1    1    2  502  501  0.84960389317E+01  0.91543649127E+01 -0.82962812928E+01  0.14993777302E+02  0.00000000000E+00 0.  1.
<mgrwt>
<rscale>  1 0.30000000E+03</rscale>
<asrwt>0</asrwt>
<pdfrwt beam="1">  1        1 0.11180486E+00 0.30000000E+03</pdfrwt>
<pdfrwt beam="2">0</pdfrwt>
<totfact> 0.28986441E+01</totfact>
</mgrwt>
</event>
<event>
 6    1  0.1904828E-004  0.3000000E+03  0.7818608E-02  0.1093470E+00
          1   -1    0    0  502    0  0.00000000000E+00  0.00000000000E+00  0.33375469289E+02  0.33375469289E+02  0.00000000000E+00 0.  1.
         13   -1    0    0    0    0 -0.00000000000E+00 -0.00000000000E+00 -0.10000000000E+04  0.10000000000E+04  0.00000000000E+00 0.  1.
    9000005    2    1    2  501    0 -0.25773062789E+02  0.71322201558E+01 -0.93372050313E+03  0.99097506409E+03  0.33088136901E+03 0.  0.
         13    1    3    3    0    0 -0.90080665301E+02 -0.10483242999E+03 -0.77079623050E+03  0.78309079524E+03  0.00000000000E+00 0.  1.
          3    1    3    3  501    0  0.64307602512E+02  0.11196465015E+03 -0.16292427263E+03  0.20788426885E+03  0.00000000000E+00 0.  1.
         21    1    1    2  502  501  0.25773062789E+02 -0.71322201558E+01 -0.32904027577E+02  0.42400405195E+02  0.00000000000E+00 0.  1.
<mgrwt>
<rscale>  1 0.30000000E+03</rscale>
<asrwt>0</asrwt>
<pdfrwt beam="1">  1        1 0.12136560E+00 0.30000000E+03</pdfrwt>
<pdfrwt beam="2">0</pdfrwt>
<totfact> 0.25539266E+01</totfact>
</mgrwt>
</event>
<event>
 6    1  0.1904828E-004  0.3000000E+03  0.7818608E-02  0.1093470E+00
          1   -1    0    0  502    0  0.00000000000E+00  0.00000000000E+00  0.38682189560E+02  0.38682189560E+02  0.00000000000E+00 0.  1.
         13   -1    0    0    0    0 -0.00000000000E+00 -0.00000000000E+00 -0.10000000000E+04  0.10000000000E+04  0.00000000000E+00 0.  1.
    9000005    2    1    2  501    0 -0.10849232573E+02  0.41881945092E+01 -0.96985293561E+03  0.10242566850E+04  0.32916833567E+03 0.  0.
         13    1    3    3    0    0  0.10427125191E+03 -0.69027501370E+02 -0.16039062901E+03  0.20337758921E+03  0.00000000000E+00 0.  1.
          3    1    3    3  501    0 -0.11512048448E+03  0.73215695880E+02 -0.80946230660E+03  0.82087909577E+03  0.00000000000E+00 0.  1.
         21    1    1    2  502  501  0.10849232573E+02 -0.41881945092E+01  0.85351251675E+01  0.14425504577E+02  0.00000000000E+00 0.  1.
<mgrwt>
<rscale>  1 0.30000000E+03</rscale>
<asrwt>0</asrwt>
<pdfrwt beam="1">  1        1 0.14066280E+00 0.30000000E+03</pdfrwt>
<pdfrwt beam="2">0</pdfrwt>
<totfact> 0.20071141E+01</totfact>
</mgrwt>
</event>
<event>
 6    1  0.1904828E-004  0.3000000E+03  0.7818608E-02  0.1093470E+00
          1   -1    0    0  502    0  0.00000000000E+00  0.00000000000E+00  0.27870601575E+02  0.27870601575E+02  0.00000000000E+00 0.  1.
         13   -1    0    0    0    0 -0.00000000000E+00 -0.00000000000E+00 -0.10000000000E+04  0.10000000000E+04  0.00000000000E+00 0.  1.
    9000005    2    1    2  501    0 -0.30649949910E+01  0.27008406104E+02 -0.91866802030E+03  0.96789588069E+03  0.30353361615E+03 0.  0.
         13    1    3    3    0    0 -0.84331023226E+02  0.13767346330E+03 -0.39975286659E+03  0.43112417971E+03  0.00000000000E+00 0.  1.
          1    1    3    3  501    0  0.81266028235E+02 -0.11066505720E+03 -0.51891515371E+03  0.53677170098E+03  0.00000000000E+00 0.  1.
         21    1    1    2  502  501  0.30649949910E+01 -0.27008406104E+02 -0.53461378122E+02  0.59974720886E+02  0.00000000000E+00 0.  1.
<mgrwt>
<rscale>  1 0.30000000E+03</rscale>
<asrwt>0</asrwt>
<pdfrwt beam="1">  1        1 0.10134786E+00 0.30000000E+03</pdfrwt>
<pdfrwt beam="2">0</pdfrwt>
<totfact> 0.33562089E+01</totfact>
</mgrwt>
</event>
<event>
 6    1  0.1904828E-004  0.3000000E+03  0.7818608E-02  0.1093470E+00
          1   -1    0    0  502    0  0.00000000000E+00  0.00000000000E+00  0.32514247919E+02  0.32514247919E+02  0.00000000000E+00 0.  1.
         13   -1    0    0    0    0 -0.00000000000E+00 -0.00000000000E+00 -0.10000000000E+04  0.10000000000E+04  0.00000000000E+00 0.  1.
    9000005    2    1    2  501    0  0.16462237575E+02  0.63545265849E+01 -0.96129337967E+03  0.10138131584E+04  0.32159100270E+03 0.  0.
         13    1    3    3    0    0 -0.42430485923E+02  0.14814071193E+03 -0.33134025410E+03  0.36542082679E+03  0.00000000000E+00 0.  1.
          3    1    3    3  501    0  0.58892723498E+02 -0.14178618535E+03 -0.62995312557E+03  0.64839233158E+03  0.00000000000E+00 0.  1.
         21    1    1    2  502  501 -0.16462237575E+02 -0.63545265849E+01 -0.61923724111E+01  0.18701089545E+02  0.00000000000E+00 0.  1.
<mgrwt>
<rscale>  1 0.30000000E+03</rscale>
<asrwt>0</asrwt>
<pdfrwt beam="1">  1        1 0.11823388E+00 0.30000000E+03</pdfrwt>
<pdfrwt beam="2">0</pdfrwt>
<totfact> 0.26603144E+01</totfact>
</mgrwt>
</event>
<event>
 6    1  0.1904828E-004  0.3000000E+03  0.7818608E-02  0.1093470E+00
          1   -1    0    0  502    0  0.00000000000E+00  0.00000000000E+00  0.29129907355E+02  0.29129907355E+02  0.00000000000E+00 0.  1.
         13   -1    0    0    0    0 -0.00000000000E+00 -0.00000000000E+00 -0.10000000000E+04  0.10000000000E+04  0.00000000000E+00 0.  1.
    9000005    2    1    2  501    0 -0.71158508467E+01  0.77124612194E+01 -0.96416052206E+03  0.10166745580E+04  0.32235310933E+03 0.  0.
         13    1    3    3    0    0  0.93205244366E+02 -0.98330914688E+02 -0.71647162911E+03  0.72916924076E+03  0.00000000000E+00 0.  1.
          1    1    3    3  501    0 -0.10032109521E+03  0.10604337591E+03 -0.24768889296E+03  0.28750531719E+03  0.00000000000E+00 0.  1.
         21    1    1    2  502  501  0.71158508467E+01 -0.77124612194E+01 -0.67095705822E+01  0.12455349402E+02  0.00000000000E+00 0.  1.
<mgrwt>
<rscale>  1 0.30000000E+03</rscale>
<asrwt>0</asrwt>
<pdfrwt beam="1">  1        1 0.10592716E+00 0.30000000E+03</pdfrwt>
<pdfrwt beam="2">0</pdfrwt>
<totfact> 0.31438918E+01</totfact>
</mgrwt>
</event>
<event>
 6    1  0.1904828E-004  0.3000000E+03  0.7818608E-02  0.1093470E+00
          1   -1    0    0  502    0  0.00000000000E+00  0.00000000000E+00  0.60329684256E+02  0.60329684256E+02  0.00000000000E+00 0.  1.
         13   -1    0    0    0    0 -0.00000000000E+00 -0.00000000000E+00 -0.10000000000E+04  0.10000000000E+04  0.00000000000E+00 0.  1.
    9000005    2    1    2  501    0 -0.14812324705E+02  0.46369300053E+02 -0.97574367197E+03  0.99974252407E+03  0.21222602125E+03 0.  0.
         13    1    3    3    0    0 -0.45816180447E+02 -0.20619299498E+01 -0.91480911731E+03  0.91595802036E+03  0.00000000000E+00 0.  1.
          3    1    3    3  501    0  0.31003855742E+02  0.48431230003E+02 -0.60934554657E+02  0.83784503708E+02  0.00000000000E+00 0.  1.
         21    1    1    2  502  501  0.14812324705E+02 -0.46369300053E+02  0.36073356223E+02  0.60587160189E+02  0.00000000000E+00 0.  1.
<mgrwt>
<rscale>  1 0.30000000E+03</rscale>
<asrwt>0</asrwt>
<pdfrwt beam="1">  1        1 0.21938113E+00 0.30000000E+03</pdfrwt>
<pdfrwt beam="2">0</pdfrwt>
<totfact> 0.82985339E+00</totfact>
</mgrwt>
</event>
<event>
 6    1  0.1904828E-004  0.3000000E+03  0.7818608E-02  0.1093470E+00
          1   -1    0    0  502    0  0.00000000000E+00  0.00000000000E+00  0.30812693438E+02  0.30812693438E+02  0.00000000000E+00 0.  1.
         13   -1    0    0    0    0 -0.00000000000E+00 -0.00000000000E+00 -0.10000000000E+04  0.10000000000E+04  0.00000000000E+00 0.  1.
    9000005    2    1    2  501    0 -0.56696719957E+01 -0.76850783904E+01 -0.95745693875E+03  0.10156863211E+04  0.33882695841E+03 0.  0.
         13    1    3    3    0    0 -0.71805717946E+02  0.13053244861E+03 -0.24339638828E+03  0.28537095699E+03  0.00000000000E+00 0.  1.
          3    1    3    3  501    0  0.66136045951E+02 -0.13821752700E+03 -0.71406055047E+03  0.73031536413E+03  0.00000000000E+00 0.  1.
         21    1    1    2  502  501  0.56696719957E+01  0.76850783904E+01 -0.11730367814E+02  0.15126372317E+02  0.00000000000E+00 0. -1.
<mgrwt>
<rscale>  1 0.30000000E+03</rscale>
<asrwt>0</asrwt>
<pdfrwt beam="1">  1        1 0.11204639E+00 0.30000000E+03</pdfrwt>
<pdfrwt beam="2">0</pdfrwt>
<totfact> 0.28891552E+01</totfact>
</mgrwt>
</event>
<event>
 6    1  0.1904828E-004  0.3000000E+03  0.7818608E-02  0.1093470E+00
          1   -1    0    0  502    0  0.00000000000E+00  0.00000000000E+00  0.54537580941E+02  0.54537580941E+02  0.00000000000E+00 0.  1.
         13   -1    0    0    0    0 -0.00000000000E+00 -0.00000000000E+00 -0.10000000000E+04  0.10000000000E+04  0.00000000000E+00 0.  1.
    9000005    2    1    2  501    0 -0.75461176872E+02  0.88027569532E+02 -0.78930741842E+03  0.86004432543E+03  0.32128927577E+03 0.  0.
         13    1    3    3    0    0 -0.64089474778E+02 -0.50426193459E+02 -0.28085364926E+02  0.86249924563E+02  0.00000000000E+00 0.  1.
          3    1    3    3  501    0 -0.11371702094E+02  0.13845376299E+03 -0.76122205349E+03  0.77379440087E+03  0.00000000000E+00 0.  1.
         21    1    1    2  502  501  0.75461176872E+02 -0.88027569532E+02 -0.15615500064E+03  0.19449325551E+03  0.00000000000E+00 0. -1.
<mgrwt>
<rscale>  1 0.30000000E+03</rscale>
<asrwt>0</asrwt>
<pdfrwt beam="1">  1        1 0.19831889E+00 0.30000000E+03</pdfrwt>
<pdfrwt beam="2">0</pdfrwt>
<totfact> 0.10433743E+01</totfact>
</mgrwt>
</event>
<event>
 6    1  0.1904828E-004  0.3000000E+03  0.7818608E-02  0.1093470E+00
          1   -1    0    0  502    0  0.00000000000E+00  0.00000000000E+00  0.27088389971E+02  0.27088389971E+02  0.00000000000E+00 0.  1.
         13   -1    0    0    0    0 -0.00000000000E+00 -0.00000000000E+00 -0.10000000000E+04  0.10000000000E+04  0.00000000000E+00 0.  1.
    9000005    2    1    2  501    0  0.48044470476E+01  0.11643341816E+02 -0.96474486162E+03  0.10120768644E+04  0.30562768417E+03 0.  0.
         13    1    3    3    0    0  0.12091587014E+03  0.88323419146E+02 -0.33188742794E+03  0.36410292343E+03  0.00000000000E+00 0.  1.
          1    1    3    3  501    0 -0.11611142309E+03 -0.76680077330E+02 -0.63285743368E+03  0.64797394099E+03  0.00000000000E+00 0.  1.
         21    1    1    2  502  501 -0.48044470476E+01 -0.11643341816E+02 -0.81667484072E+01  0.15011525560E+02  0.00000000000E+00 0.  1.
<mgrwt>
<rscale>  1 0.30000000E+03</rscale>
<asrwt>0</asrwt>
<pdfrwt beam="1">  1        1 0.98503444E-01 0.30000000E+03</pdfrwt>
<pdfrwt beam="2">0</pdfrwt>
<totfact> 0.34988132E+01</totfact>
</mgrwt>
</event>
<event>
 6    1  0.1904828E-004  0.3000000E+03  0.7818608E-02  0.1093470E+00
          1   -1    0    0  502    0  0.00000000000E+00  0.00000000000E+00  0.27674040153E+02  0.27674040153E+02  0.00000000000E+00 0.  1.
         13   -1    0    0    0    0 -0.00000000000E+00 -0.00000000000E+00 -0.10000000000E+04  0.10000000000E+04  0.00000000000E+00 0.  1.
    9000005    2    1    2  501    0 -0.14931964301E+02  0.32491479893E+01 -0.93636070655E+03  0.98859693733E+03  0.31673176538E+03 0.  0.
         13    1    3    3    0    0 -0.30820357656E+01  0.90942941433E+02 -0.62791453468E+02  0.11055715341E+03  0.00000000000E+00 0.  1.
          1    1    3    3  501    0 -0.11849928535E+02 -0.87693793444E+02 -0.87356925308E+03  0.87803978392E+03  0.00000000000E+00 0.  1.
         21    1    1    2  502  501  0.14931964301E+02 -0.32491479893E+01 -0.35965253297E+02  0.39077102826E+02  0.00000000000E+00 0. -1.
<mgrwt>
<rscale>  1 0.30000000E+03</rscale>
<asrwt>0</asrwt>
<pdfrwt beam="1">  1        1 0.10063309E+00 0.30000000E+03</pdfrwt>
<pdfrwt beam="2">0</pdfrwt>
<totfact> 0.33912276E+01</totfact>
</mgrwt>
</event>
<event>
 6    1  0.1904828E-004  0.3000000E+03  0.7818608E-02  0.1093470E+00
          1   -1    0    0  502    0  0.00000000000E+00  0.00000000000E+00  0.38666682476E+02  0.38666682476E+02  0.00000000000E+00 0.  1.
         13   -1    0    0    0    0 -0.00000000000E+00 -0.00000000000E+00 -0.10000000000E+04  0.10000000000E+04  0.00000000000E+00 0.  1.
    9000005    2    1    2  501    0 -0.32671540497E+02 -0.44322119528E+02 -0.85966701231E+03  0.92304697199E+03  0.33159683442E+03 0.  0.
         13    1    3    3    0    0  0.11401593698E+03  0.66283733825E+01 -0.66149906255E+03  0.67128576551E+03  0.00000000000E+00 0.  1.
          3    1    3    3  501    0 -0.14668747747E+03 -0.50950492910E+02 -0.19816794976E+03  0.25176120648E+03  0.00000000000E+00 0.  1.
         21    1    1    2  502  501  0.32671540497E+02  0.44322119528E+02 -0.10166630521E+03  0.11561971049E+03  0.00000000000E+00 0.  1.
<mgrwt>
<rscale>  1 0.30000000E+03</rscale>
<asrwt>0</asrwt>
<pdfrwt beam="1">  1        1 0.14060641E+00 0.30000000E+03</pdfrwt>
<pdfrwt beam="2">0</pdfrwt>
<totfact> 0.20084783E+01</totfact>
</mgrwt>
</event>
<event>
 6    1  0.1904828E-004  0.3000000E+03  0.7818608E-02  0.1093470E+00
          1   -1    0    0  502    0  0.00000000000E+00  0.00000000000E+00  0.24947210797E+02  0.24947210797E+02  0.00000000000E+00 0.  1.
         13   -1    0    0    0    0 -0.00000000000E+00 -0.00000000000E+00 -0.10000000000E+04  0.10000000000E+04  0.00000000000E+00 0.  1.
    9000005    2    1    2  501    0 -0.15061723065E+02  0.96753857753E+01 -0.88984144268E+03  0.93787573345E+03  0.29575772127E+03 0.  0.
         13    1    3    3    0    0  0.10325257961E+03 -0.13181745968E+01 -0.11741022070E+03  0.15635853896E+03  0.00000000000E+00 0.  1.
          3    1    3    3  501    0 -0.11831430268E+03  0.10993560372E+02 -0.77243122199E+03  0.78151719449E+03  0.00000000000E+00 0.  1.
         21    1    1    2  502  501  0.15061723065E+02 -0.96753857753E+01 -0.85211346521E+02  0.87071477348E+02  0.00000000000E+00 0.  1.
<mgrwt>
<rscale>  1 0.30000000E+03</rscale>
<asrwt>0</asrwt>
<pdfrwt beam="1">  1        1 0.90717321E-01 0.30000000E+03</pdfrwt>
<pdfrwt beam="2">0</pdfrwt>
<totfact> 0.39385582E+01</totfact>
</mgrwt>
</event>
<event>
 6    1  0.1904828E-004  0.3000000E+03  0.7818608E-02  0.1093470E+00
          1   -1    0    0  502    0  0.00000000000E+00  0.00000000000E+00  0.32946899288E+02  0.32946899288E+02  0.00000000000E+00 0.  1.
         13   -1    0    0    0    0 -0.00000000000E+00 -0.00000000000E+00 -0.10000000000E+04  0.10000000000E+04  0.00000000000E+00 0.  1.
    9000005    2    1    2  501    0  0.43914426170E+01  0.10137344042E+02 -0.97017037488E+03  0.10214678788E+04  0.31944329804E+03 0.  0.
         13    1    3    3    0    0 -0.11357514420E+01  0.89235864520E+02 -0.92680676011E+03  0.93109349694E+03  0.00000000000E+00 0.  1.
          3    1    3    3  501    0  0.55271940590E+01 -0.79098520478E+02 -0.43363614770E+02  0.90374381890E+02  0.00000000000E+00 0.  1.
         21    1    1    2  502  501 -0.43914426170E+01 -0.10137344042E+02  0.31172741706E+01  0.11479020461E+02  0.00000000000E+00 0.  1.
<mgrwt>
<rscale>  1 0.30000000E+03</rscale>
<asrwt>0</asrwt>
<pdfrwt beam="1">  1        1 0.11980716E+00 0.30000000E+03</pdfrwt>
<pdfrwt beam="2">0</pdfrwt>
<totfact> 0.26061398E+01</totfact>
</mgrwt>
</event>
<event>
 6    1  0.1904828E-004  0.3000000E+03  0.7818608E-02  0.1093470E+00
          1   -1    0    0  502    0  0.00000000000E+00  0.00000000000E+00  0.17050180077E+02  0.17050180077E+02  0.00000000000E+00 0.  1.
         13   -1    0    0    0    0 -0.00000000000E+00 -0.00000000000E+00 -0.10000000000E+04  0.10000000000E+04  0.00000000000E+00 0.  1.
    9000005    2    1    2  501    0  0.16740458426E+02 -0.32910627113E+02 -0.95948553686E+03  0.97330175262E+03  0.15918685212E+03 0.  0.
         13    1    3    3    0    0  0.77202679810E+02  0.22737320673E+02 -0.52164263960E+03  0.52781462936E+03  0.00000000000E+00 0.  1.
          3    1    3    3  501    0 -0.60462221384E+02 -0.55647947786E+02 -0.43784289726E+03  0.44548712326E+03  0.00000000000E+00 0.  1.
         21    1    1    2  502  501 -0.16740458426E+02  0.32910627113E+02 -0.23464283064E+02  0.43748427457E+02  0.00000000000E+00 0. -1.
<mgrwt>
<rscale>  1 0.30000000E+03</rscale>
<asrwt>0</asrwt>
<pdfrwt beam="1">  1        1 0.62000786E-01 0.30000000E+03</pdfrwt>
<pdfrwt beam="2">0</pdfrwt>
<totfact> 0.66379654E+01</totfact>
</mgrwt>
</event>
<event>
 6    1  0.1904828E-004  0.3000000E+03  0.7818608E-02  0.1093470E+00
          1   -1    0    0  502    0  0.00000000000E+00  0.00000000000E+00  0.23647409219E+02  0.23647409219E+02  0.00000000000E+00 0.  1.
         13   -1    0    0    0    0 -0.00000000000E+00 -0.00000000000E+00 -0.10000000000E+04  0.10000000000E+04  0.00000000000E+00 0.  1.
    9000005    2    1    2  501    0 -0.13522728210E+01 -0.91054618266E+01 -0.95981723616E+03  0.10047223985E+04  0.29687241909E+03 0.  0.
         13    1    3    3    0    0  0.65373552376E+02  0.37053164520E+02 -0.47703378868E+02  0.89007026164E+02  0.00000000000E+00 0.  1.
          1    1    3    3  501    0 -0.66725825197E+02 -0.46158626347E+02 -0.91211385729E+03  0.91571537237E+03  0.00000000000E+00 0.  1.
         21    1    1    2  502  501  0.13522728210E+01  0.91054618266E+01 -0.16535354621E+02  0.18925010682E+02  0.00000000000E+00 0. -1.
<mgrwt>
<rscale>  1 0.30000000E+03</rscale>
<asrwt>0</asrwt>
<pdfrwt beam="1">  1        1 0.85990760E-01 0.30000000E+03</pdfrwt>
<pdfrwt beam="2">0</pdfrwt>
<totfact> 0.42474268E+01</totfact>
</mgrwt>
</event>
<event>
 6    1  0.1904828E-004  0.3000000E+03  0.7818608E-02  0.1093470E+00
          1   -1    0    0  502    0  0.00000000000E+00  0.00000000000E+00  0.48190107252E+02  0.48190107252E+02  0.00000000000E+00 0.  1.
         13   -1    0    0    0    0 -0.00000000000E+00 -0.00000000000E+00 -0.10000000000E+04  0.10000000000E+04  0.00000000000E+00 0.  1.
    9000005    2    1    2  501    0 -0.97691626173E+01 -0.12499601576E+02 -0.97404257332E+03  0.10208776804E+04  0.30525501967E+03 0.  0.
         13    1    3    3    0    0  0.19758008852E+02  0.14450692600E+03 -0.45504629920E+03  0.47784910274E+03  0.00000000000E+00 0.  1.
          3    1    3    3  501    0 -0.29527171469E+02 -0.15700652757E+03 -0.51899627412E+03  0.54302857761E+03  0.00000000000E+00 0.  1.
         21    1    1    2  502  501  0.97691626173E+01  0.12499601576E+02  0.22232680569E+02  0.27312426899E+02  0.00000000000E+00 0.  1.
<mgrwt>
<rscale>  1 0.30000000E+03</rscale>
<asrwt>0</asrwt>
<pdfrwt beam="1">  1        1 0.17523712E+00 0.30000000E+03</pdfrwt>
<pdfrwt beam="2">0</pdfrwt>
<totfact> 0.13472055E+01</totfact>
</mgrwt>
</event>
<event>
 6    1  0.1904828E-004  0.3000000E+03  0.7818608E-02  0.1093470E+00
          1   -1    0    0  502    0  0.00000000000E+00  0.00000000000E+00  0.33063305045E+02  0.33063305045E+02  0.00000000000E+00 0.  1.
         13   -1    0    0    0    0 -0.00000000000E+00 -0.00000000000E+00 -0.10000000000E+04  0.10000000000E+04  0.00000000000E+00 0.  1.
    9000005    2    1    2  501    0  0.13604395513E+02 -0.56213287171E+01 -0.96570892025E+03  0.10182921729E+04  0.32265856853E+03 0.  0.
         13    1    3    3    0    0 -0.12798126496E+03  0.85326225882E+02 -0.42340464954E+03  0.45047892987E+03  0.00000000000E+00 0.  1.
          1    1    3    3  501    0  0.14158566048E+03 -0.90947554599E+02 -0.54230427071E+03  0.56781324304E+03  0.00000000000E+00 0.  1.
         21    1    1    2  502  501 -0.13604395513E+02  0.56213287171E+01 -0.12277747045E+01  0.14771132135E+02  0.00000000000E+00 0.  1.
<mgrwt>
<rscale>  1 0.30000000E+03</rscale>
<asrwt>0</asrwt>
<pdfrwt beam="1">  1        1 0.12023045E+00 0.30000000E+03</pdfrwt>
<pdfrwt beam="2">0</pdfrwt>
<totfact> 0.25918181E+01</totfact>
</mgrwt>
</event>
<event>
 6    1  0.1904828E-004  0.3000000E+03  0.7818608E-02  0.1093470E+00
          1   -1    0    0  502    0  0.00000000000E+00  0.00000000000E+00  0.56772482430E+02  0.56772482430E+02  0.00000000000E+00 0.  1.
         13   -1    0    0    0    0 -0.00000000000E+00 -0.00000000000E+00 -0.10000000000E+04  0.10000000000E+04  0.00000000000E+00 0.  1.
    9000005    2    1    2  501    0 -0.63494489038E+01  0.64231607625E+02 -0.94001697995E+03  0.99214800973E+03  0.31074062449E+03 0.  0.
         13    1    3    3    0    0  0.14711317173E+03  0.50242142978E+02 -0.36253842279E+03  0.39446250294E+03  0.00000000000E+00 0.  1.
          1    1    3    3  501    0 -0.15346262063E+03  0.13989464648E+02 -0.57747855716E+03  0.59768550679E+03  0.00000000000E+00 0.  1.
         21    1    1    2  502  501  0.63494489038E+01 -0.64231607625E+02 -0.32105376227E+01  0.64624472697E+02  0.00000000000E+00 0. -1.
<mgrwt>
<rscale>  1 0.30000000E+03</rscale>
<asrwt>0</asrwt>
<pdfrwt beam="1">  1        1 0.20644583E+00 0.30000000E+03</pdfrwt>
<pdfrwt beam="2">0</pdfrwt>
<totfact> 0.95471400E+00</totfact>
</mgrwt>
</event>
<event>
 6    1  0.1904828E-004  0.3000000E+03  0.7818608E-02  0.1093470E+00
          1   -1    0    0  502    0  0.00000000000E+00  0.00000000000E+00  0.42188343997E+02  0.42188343997E+02  0.00000000000E+00 0.  1.
         13   -1    0    0    0    0 -0.00000000000E+00 -0.00000000000E+00 -0.10000000000E+04  0.10000000000E+04  0.00000000000E+00 0.  1.
    9000005    2    1    2  501    0 -0.17521535952E+02  0.59481087770E+02 -0.88160895731E+03  0.94394448763E+03  0.33158986430E+03 0.  0.
         13    1    3    3    0    0 -0.11223917819E+03  0.34285372335E+02 -0.94280125057E+02  0.15053857266E+03  0.00000000000E+00 0.  1.
          3    1    3    3  501    0  0.94717642241E+02  0.25195715435E+02 -0.78732883225E+03  0.79340591497E+03  0.00000000000E+00 0.  1.
         21    1    1    2  502  501  0.17521535952E+02 -0.59481087770E+02 -0.76202698697E+02  0.98243856363E+02  0.00000000000E+00 0.  1.
<mgrwt>
<rscale>  1 0.30000000E+03</rscale>
<asrwt>0</asrwt>
<pdfrwt beam="1">  1        1 0.15341248E+00 0.30000000E+03</pdfrwt>
<pdfrwt beam="2">0</pdfrwt>
<totfact> 0.17264469E+01</totfact>
</mgrwt>
</event>
<event>
 6    1  0.1904828E-004  0.3000000E+03  0.7818608E-02  0.1093470E+00
          1   -1    0    0  502    0  0.00000000000E+00  0.00000000000E+00  0.65363636858E+02  0.65363636858E+02  0.00000000000E+00 0.  1.
         13   -1    0    0    0    0 -0.00000000000E+00 -0.00000000000E+00 -0.10000000000E+04  0.10000000000E+04  0.00000000000E+00 0.  1.
    9000005    2    1    2  501    0 -0.38570978929E+02  0.39192073381E+02 -0.95206736183E+03  0.10076784677E+04  0.32551481331E+03 0.  0.
         13    1    3    3    0    0 -0.49179257791E+02 -0.12902752002E+03 -0.24935925591E+03  0.28503813574E+03  0.00000000000E+00 0.  1.
          3    1    3    3  501    0  0.10608278862E+02  0.16821959340E+03 -0.70270810592E+03  0.72264033191E+03  0.00000000000E+00 0.  1.
         21    1    1    2  502  501  0.38570978929E+02 -0.39192073381E+02  0.17430998684E+02  0.57685169208E+02  0.00000000000E+00 0. -1.
<mgrwt>
<rscale>  1 0.30000000E+03</rscale>
<asrwt>0</asrwt>
<pdfrwt beam="1">  1        1 0.23768645E+00 0.30000000E+03</pdfrwt>
<pdfrwt beam="2">0</pdfrwt>
<totfact> 0.68118803E+00</totfact>
</mgrwt>
</event>
<event>
 6    1  0.1904828E-004  0.3000000E+03  0.7818608E-02  0.1093470E+00
          1   -1    0    0  502    0  0.00000000000E+00  0.00000000000E+00  0.45874747652E+02  0.45874747652E+02  0.00000000000E+00 0.  1.
         13   -1    0    0    0    0 -0.00000000000E+00 -0.00000000000E+00 -0.10000000000E+04  0.10000000000E+04  0.00000000000E+00 0.  1.
    9000005    2    1    2  501    0 -0.13094841003E+02  0.14755102826E+01 -0.96176467420E+03  0.10306427827E+04  0.37021561949E+03 0.  0.
         13    1    3    3    0    0 -0.14124928212E+03 -0.10473741546E+03 -0.68915835917E+03  0.71123872920E+03  0.00000000000E+00 0.  1.
          3    1    3    3  501    0  0.12815444111E+03  0.10621292575E+03 -0.27260631503E+03  0.31940405346E+03  0.00000000000E+00 0.  1.
         21    1    1    2  502  501  0.13094841003E+02 -0.14755102826E+01  0.76394218488E+01  0.15231964997E+02  0.00000000000E+00 0.  1.
<mgrwt>
<rscale>  1 0.30000000E+03</rscale>
<asrwt>0</asrwt>
<pdfrwt beam="1">  1        1 0.16681762E+00 0.30000000E+03</pdfrwt>
<pdfrwt beam="2">0</pdfrwt>
<totfact> 0.14809368E+01</totfact>
</mgrwt>
</event>
<event>
 6    1  0.1904828E-004  0.3000000E+03  0.7818608E-02  0.1093470E+00
          1   -1    0    0  502    0  0.00000000000E+00  0.00000000000E+00  0.28365898843E+02  0.28365898843E+02  0.00000000000E+00 0.  1.
         13   -1    0    0    0    0 -0.00000000000E+00 -0.00000000000E+00 -0.10000000000E+04  0.10000000000E+04  0.00000000000E+00 0.  1.
    9000005    2    1    2  501    0  0.10848339703E+02 -0.14682050861E+01 -0.97215621569E+03  0.10174062134E+04  0.29984638292E+03 0.  0.
         13    1    3    3    0    0  0.91979200439E+02  0.72205792943E+02 -0.16157408547E+03  0.19944932926E+03  0.00000000000E+00 0.  1.
          1    1    3    3  501    0 -0.81130860736E+02 -0.73673998029E+02 -0.81058213022E+03  0.81795688418E+03  0.00000000000E+00 0.  1.
         21    1    1    2  502  501 -0.10848339703E+02  0.14682050861E+01  0.52211452962E+00  0.10959685400E+02  0.00000000000E+00 0. -1.
<mgrwt>
<rscale>  1 0.30000000E+03</rscale>
<asrwt>0</asrwt>
<pdfrwt beam="1">  1        1 0.10314894E+00 0.30000000E+03</pdfrwt>
<pdfrwt beam="2">0</pdfrwt>
<totfact> 0.32702831E+01</totfact>
</mgrwt>
</event>
<event>
 6    1  0.1904828E-004  0.3000000E+03  0.7818608E-02  0.1093470E+00
          1   -1    0    0  502    0  0.00000000000E+00  0.00000000000E+00  0.76604303176E+02  0.76604303176E+02  0.00000000000E+00 0.  1.
         13   -1    0    0    0    0 -0.00000000000E+00 -0.00000000000E+00 -0.10000000000E+04  0.10000000000E+04  0.00000000000E+00 0.  1.
    9000005    2    1    2  501    0 -0.83881688828E+01  0.14062459750E+02 -0.97107365256E+03  0.10261929789E+04  0.33139082232E+03 0.  0.
         13    1    3    3    0    0  0.11987366720E+03 -0.10211542363E+03 -0.50757651961E+03  0.53144254542E+03  0.00000000000E+00 0.  1.
          3    1    3    3  501    0 -0.12826183608E+03  0.11617788338E+03 -0.46349713295E+03  0.49475043348E+03  0.00000000000E+00 0.  1.
         21    1    1    2  502  501  0.83881688828E+01 -0.14062459750E+02  0.47677955733E+02  0.50411324267E+02  0.00000000000E+00 0.  1.
<mgrwt>
<rscale>  1 0.30000000E+03</rscale>
<asrwt>0</asrwt>
<pdfrwt beam="1">  1        1 0.27856169E+00 0.30000000E+03</pdfrwt>
<pdfrwt beam="2">0</pdfrwt>
<totfact> 0.43853227E+00</totfact>
</mgrwt>
</event>
<event>
 6    1  0.1904828E-004  0.3000000E+03  0.7818608E-02  0.1093470E+00
          1   -1    0    0  502    0  0.00000000000E+00  0.00000000000E+00  0.39800658552E+02  0.39800658552E+02  0.00000000000E+00 0.  1.
         13   -1    0    0    0    0 -0.00000000000E+00 -0.00000000000E+00 -0.10000000000E+04  0.10000000000E+04  0.00000000000E+00 0.  1.
    9000005    2    1    2  501    0  0.25706548508E+02  0.35867058749E+02 -0.92106989057E+03  0.98082281131E+03  0.33421007066E+03 0.  0.
         13    1    3    3    0    0  0.84305331497E+02 -0.10906813061E+02 -0.35562460744E+02  0.92146818198E+02  0.00000000000E+00 0.  1.
          3    1    3    3  501    0 -0.58598782989E+02  0.46773871809E+02 -0.88550742983E+03  0.88867599311E+03  0.00000000000E+00 0.  1.
         21    1    1    2  502  501 -0.25706548508E+02 -0.35867058749E+02 -0.39129450873E+02  0.58977847240E+02  0.00000000000E+00 0. -1.
<mgrwt>
<rscale>  1 0.30000000E+03</rscale>
<asrwt>0</asrwt>
<pdfrwt beam="1">  1        1 0.14472997E+00 0.30000000E+03</pdfrwt>
<pdfrwt beam="2">0</pdfrwt>
<totfact> 0.19117463E+01</totfact>
</mgrwt>
</event>
<event>
 6    1  0.1904828E-004  0.3000000E+03  0.7818608E-02  0.1093470E+00
          1   -1    0    0  502    0  0.00000000000E+00  0.00000000000E+00  0.25369987686E+02  0.25369987686E+02  0.00000000000E+00 0.  1.
         13   -1    0    0    0    0 -0.00000000000E+00 -0.00000000000E+00 -0.10000000000E+04  0.10000000000E+04  0.00000000000E+00 0.  1.
    9000005    2    1    2  501    0  0.63048629375E+01  0.74324869266E+01 -0.95287070440E+03  0.10015275751E+04  0.30822055603E+03 0.  0.
         13    1    3    3    0    0  0.84779900781E+02 -0.12693747788E+03 -0.45780612168E+03  0.48258387863E+03  0.00000000000E+00 0.  1.
          3    1    3    3  501    0 -0.78475037844E+02  0.13436996481E+03 -0.49506458272E+03  0.51894369643E+03  0.00000000000E+00 0.  1.
         21    1    1    2  502  501 -0.63048629375E+01 -0.74324869266E+01 -0.21759307912E+02  0.23842412617E+02  0.00000000000E+00 0.  1.
<mgrwt>
<rscale>  1 0.30000000E+03</rscale>
<asrwt>0</asrwt>
<pdfrwt beam="1">  1        1 0.92254695E-01 0.30000000E+03</pdfrwt>
<pdfrwt beam="2">0</pdfrwt>
<totfact> 0.38454130E+01</totfact>
</mgrwt>
</event>
<event>
 6    1  0.1904828E-004  0.3000000E+03  0.7818608E-02  0.1093470E+00
          1   -1    0    0  502    0  0.00000000000E+00  0.00000000000E+00  0.63184880918E+02  0.63184880918E+02  0.00000000000E+00 0.  1.
         13   -1    0    0    0    0 -0.00000000000E+00 -0.00000000000E+00 -0.10000000000E+04  0.10000000000E+04  0.00000000000E+00 0.  1.
    9000005    2    1    2  501    0  0.75573176925E+02  0.17641523503E+01 -0.93359889547E+03  0.98752272791E+03  0.31285751262E+03 0.  0.
         13    1    3    3    0    0 -0.10837863604E+03  0.54758112197E+01 -0.56759530443E+03  0.57787571577E+03  0.00000000000E+00 0.  1.
          3    1    3    3  501    0  0.18395181296E+03 -0.37116588694E+01 -0.36600359104E+03  0.40964701214E+03  0.00000000000E+00 0.  1.
         21    1    1    2  502  501 -0.75573176925E+02 -0.17641523503E+01 -0.32162236111E+01  0.75662153011E+02  0.00000000000E+00 0.  1.
<mgrwt>
<rscale>  1 0.30000000E+03</rscale>
<asrwt>0</asrwt>
<pdfrwt beam="1">  1        1 0.22976369E+00 0.30000000E+03</pdfrwt>
<pdfrwt beam="2">0</pdfrwt>
<totfact> 0.74192946E+00</totfact>
</mgrwt>
</event>
<event>
 6    1  0.1904828E-004  0.3000000E+03  0.7818608E-02  0.1093470E+00
          1   -1    0    0  502    0  0.00000000000E+00  0.00000000000E+00  0.28761064640E+02  0.28761064640E+02  0.00000000000E+00 0.  1.
         13   -1    0    0    0    0 -0.00000000000E+00 -0.00000000000E+00 -0.10000000000E+04  0.10000000000E+04  0.00000000000E+00 0.  1.
    9000005    2    1    2  501    0  0.69666467114E+01  0.69884065919E+01 -0.96596708452E+03  0.10175733748E+04  0.31979023234E+03 0.  0.
         13    1    3    3    0    0 -0.90149512210E+01  0.11749254925E+03 -0.84412291557E+03  0.85230819840E+03  0.00000000000E+00 0.  1.
          3    1    3    3  501    0  0.15981597932E+02 -0.11050414266E+03 -0.12184416894E+03  0.16526517637E+03  0.00000000000E+00 0.  1.
         21    1    1    2  502  501 -0.69666467114E+01 -0.69884065919E+01 -0.52718508438E+01  0.11187689860E+02  0.00000000000E+00 0.  1.
<mgrwt>
<rscale>  1 0.30000000E+03</rscale>
<asrwt>0</asrwt>
<pdfrwt beam="1">  1        1 0.10458591E+00 0.30000000E+03</pdfrwt>
<pdfrwt beam="2">0</pdfrwt>
<totfact> 0.32040091E+01</totfact>
</mgrwt>
</event>
<event>
 6    1  0.1904828E-004  0.3000000E+03  0.7818608E-02  0.1093470E+00
          1   -1    0    0  502    0  0.00000000000E+00  0.00000000000E+00  0.40325501752E+02  0.40325501752E+02  0.00000000000E+00 0.  1.
         13   -1    0    0    0    0 -0.00000000000E+00 -0.00000000000E+00 -0.10000000000E+04  0.10000000000E+04  0.00000000000E+00 0.  1.
    9000005    2    1    2  501    0 -0.36288190127E+02 -0.45415301349E+02 -0.85261157520E+03  0.91849836262E+03  0.33662050089E+03 0.  0.
         13    1    3    3    0    0 -0.17180396083E+03 -0.54281389396E+02 -0.30449487351E+03  0.35380813754E+03  0.00000000000E+00 0.  1.
          1    1    3    3  501    0  0.13551577070E+03  0.88660880470E+01 -0.54811670169E+03  0.56469022508E+03  0.00000000000E+00 0.  1.
         21    1    1    2  502  501  0.36288190127E+02  0.45415301349E+02 -0.10706292304E+03  0.12182713914E+03  0.00000000000E+00 0.  1.
<mgrwt>
<rscale>  1 0.30000000E+03</rscale>
<asrwt>0</asrwt>
<pdfrwt beam="1">  1        1 0.14663850E+00 0.30000000E+03</pdfrwt>
<pdfrwt beam="2">0</pdfrwt>
<totfact> 0.18689673E+01</totfact>
</mgrwt>
</event>
<event>
 6    1  0.1904828E-004  0.3000000E+03  0.7818608E-02  0.1093470E+00
          1   -1    0    0  502    0  0.00000000000E+00  0.00000000000E+00  0.31224827404E+02  0.31224827404E+02  0.00000000000E+00 0.  1.
         13   -1    0    0    0    0 -0.00000000000E+00 -0.00000000000E+00 -0.10000000000E+04  0.10000000000E+04  0.00000000000E+00 0.  1.
    9000005    2    1    2  501    0 -0.25863742383E+02 -0.56745345554E+01 -0.89861576120E+03  0.95623498463E+03  0.32584340723E+03 0.  0.
         13    1    3    3    0    0  0.11627968967E+03 -0.99451204746E+02 -0.35497391639E+03  0.38654623226E+03  0.00000000000E+00 0.  1.
          1    1    3    3  501    0 -0.14214343205E+03  0.93776670191E+02 -0.54364184481E+03  0.56968875237E+03  0.00000000000E+00 0.  1.
         21    1    1    2  502  501  0.25863742383E+02  0.56745345554E+01 -0.70159411391E+02  0.74989842774E+02  0.00000000000E+00 0.  1.
<mgrwt>
<rscale>  1 0.30000000E+03</rscale>
<asrwt>0</asrwt>
<pdfrwt beam="1">  1        1 0.11354507E+00 0.30000000E+03</pdfrwt>
<pdfrwt beam="2">0</pdfrwt>
<totfact> 0.28312568E+01</totfact>
</mgrwt>
</event>
<event>
 6    1  0.1904828E-004  0.3000000E+03  0.7818608E-02  0.1093470E+00
          3   -1    0    0  502    0  0.00000000000E+00  0.00000000000E+00  0.12432595910E+02  0.12432595910E+02  0.00000000000E+00 0.  1.
         13   -1    0    0    0    0 -0.00000000000E+00 -0.00000000000E+00 -0.10000000000E+04  0.10000000000E+04  0.00000000000E+00 0.  1.
    9000005    2    1    2  501    0  0.78669144501E+01  0.21839295558E+02 -0.95993977300E+03  0.97634756892E+03  0.17672397791E+03 0.  0.
         13    1    3    3    0    0 -0.10848848655E+02  0.89053124875E+02 -0.74464636926E+03  0.75003091391E+03  0.00000000000E+00 0.  1.
          1    1    3    3  501    0  0.18715763106E+02 -0.67213829317E+02 -0.21529340374E+03  0.22631665501E+03  0.00000000000E+00 0.  1.
         21    1    1    2  502  501 -0.78669144501E+01 -0.21839295558E+02 -0.27627631087E+02  0.36085026990E+02  0.00000000000E+00 0. -1.
<mgrwt>
<rscale>  1 0.30000000E+03</rscale>
<asrwt>0</asrwt>
<pdfrwt beam="1">  1        3 0.45209535E-01 0.30000000E+03</pdfrwt>
<pdfrwt beam="2">0</pdfrwt>
<totfact> 0.21231724E+01</totfact>
</mgrwt>
</event>
<event>
 6    1  0.1904828E-004  0.3000000E+03  0.7818608E-02  0.1093470E+00
          1   -1    0    0  502    0  0.00000000000E+00  0.00000000000E+00  0.29771804164E+02  0.29771804164E+02  0.00000000000E+00 0.  1.
         13   -1    0    0    0    0 -0.00000000000E+00 -0.00000000000E+00 -0.10000000000E+04  0.10000000000E+04  0.00000000000E+00 0.  1.
    9000005    2    1    2  501    0  0.12427168627E+02 -0.32924933453E+01 -0.95297106256E+03  0.10082524250E+04  0.32901949991E+03 0.  0.
         13    1    3    3    0    0  0.13340759819E+03 -0.10418215972E+03 -0.43168779197E+03  0.46368724308E+03  0.00000000000E+00 0.  1.
          3    1    3    3  501    0 -0.12098042956E+03  0.10088966638E+03 -0.52128327058E+03  0.54456518187E+03  0.00000000000E+00 0.  1.
         21    1    1    2  502  501 -0.12427168627E+02  0.32924933453E+01 -0.17257133281E+02  0.21519379210E+02  0.00000000000E+00 0. -1.
<mgrwt>
<rscale>  1 0.30000000E+03</rscale>
<asrwt>0</asrwt>
<pdfrwt beam="1">  1        1 0.10826133E+00 0.30000000E+03</pdfrwt>
<pdfrwt beam="2">0</pdfrwt>
<totfact> 0.30430785E+01</totfact>
</mgrwt>
</event>
<event>
 6    1  0.1904828E-004  0.3000000E+03  0.7818608E-02  0.1093470E+00
          1   -1    0    0  502    0  0.00000000000E+00  0.00000000000E+00  0.33461823696E+02  0.33461823696E+02  0.00000000000E+00 0.  1.
         13   -1    0    0    0    0 -0.00000000000E+00 -0.00000000000E+00 -0.10000000000E+04  0.10000000000E+04  0.00000000000E+00 0.  1.
    9000005    2    1    2  501    0 -0.26846841333E+02 -0.37731480959E+02 -0.94890264284E+03  0.98390953227E+03  0.25596352194E+03 0.  0.
         13    1    3    3    0    0 -0.73173239144E+02 -0.12636285768E+03 -0.71102847971E+03  0.72586733890E+03  0.00000000000E+00 0.  1.
          3    1    3    3  501    0  0.46326397811E+02  0.88631376724E+02 -0.23787416313E+03  0.25804219337E+03  0.00000000000E+00 0.  1.
         21    1    1    2  502  501  0.26846841333E+02  0.37731480959E+02 -0.17635533468E+02  0.49552291427E+02  0.00000000000E+00 0.  1.
<mgrwt>
<rscale>  1 0.30000000E+03</rscale>
<asrwt>0</asrwt>
<pdfrwt beam="1">  1        1 0.12167962E+00 0.30000000E+03</pdfrwt>
<pdfrwt beam="2">0</pdfrwt>
<totfact> 0.25435745E+01</totfact>
</mgrwt>
</event>
<event>
 6    1  0.1904828E-004  0.3000000E+03  0.7818608E-02  0.1093470E+00
          1   -1    0    0  502    0  0.00000000000E+00  0.00000000000E+00  0.38067546193E+02  0.38067546193E+02  0.00000000000E+00 0.  1.
         13   -1    0    0    0    0 -0.00000000000E+00 -0.00000000000E+00 -0.10000000000E+04  0.10000000000E+04  0.00000000000E+00 0.  1.
    9000005    2    1    2  501    0 -0.47084681512E+01 -0.38279679846E+02 -0.93335138397E+03  0.99006357642E+03  0.32801459696E+03 0.  0.
         13    1    3    3    0    0  0.79421627646E+02  0.96193966576E+02 -0.17265069152E+03  0.21300078739E+03  0.00000000000E+00 0.  1.
          1    1    3    3  501    0 -0.84130095797E+02 -0.13447364642E+03 -0.76070069245E+03  0.77706278903E+03  0.00000000000E+00 0.  1.
         21    1    1    2  502  501  0.47084681512E+01  0.38279679846E+02 -0.28581069833E+02  0.48003969776E+02  0.00000000000E+00 0.  1.
<mgrwt>
<rscale>  1 0.30000000E+03</rscale>
<asrwt>0</asrwt>
<pdfrwt beam="1">  1        1 0.13842773E+00 0.30000000E+03</pdfrwt>
<pdfrwt beam="2">0</pdfrwt>
<totfact> 0.20621008E+01</totfact>
</mgrwt>
</event>
<event>
 6    1  0.1904828E-004  0.3000000E+03  0.7818608E-02  0.1093470E+00
          1   -1    0    0  502    0  0.00000000000E+00  0.00000000000E+00  0.10462157955E+03  0.10462157955E+03  0.00000000000E+00 0.  1.
         13   -1    0    0    0    0 -0.00000000000E+00 -0.00000000000E+00 -0.10000000000E+04  0.10000000000E+04  0.00000000000E+00 0.  1.
    9000005    2    1    2  501    0  0.12278867161E+03  0.12069548844E+03 -0.84127761184E+03  0.92414621752E+03  0.34154612042E+03 0.  0.
         13    1    3    3    0    0 -0.60664315928E+02 -0.79134344109E+02 -0.33819255833E+03  0.35258560685E+03  0.00000000000E+00 0.  1.
          1    1    3    3  501    0  0.18345298754E+03  0.19982983255E+03 -0.50308505350E+03  0.57156061067E+03  0.00000000000E+00 0.  1.
         21    1    1    2  502  501 -0.12278867161E+03 -0.12069548844E+03 -0.54100808618E+02  0.18047536203E+03  0.00000000000E+00 0.  1.
<mgrwt>
<rscale>  1 0.30000000E+03</rscale>
<asrwt>0</asrwt>
<pdfrwt beam="1">  1        1 0.38044291E+00 0.30000000E+03</pdfrwt>
<pdfrwt beam="2">0</pdfrwt>
<totfact> 0.13547784E+00</totfact>
</mgrwt>
</event>
<event>
 6    1  0.1904828E-004  0.3000000E+03  0.7818608E-02  0.1093470E+00
          1   -1    0    0  502    0  0.00000000000E+00  0.00000000000E+00  0.32800843764E+02  0.32800843764E+02  0.00000000000E+00 0.  1.
         13   -1    0    0    0    0 -0.00000000000E+00 -0.00000000000E+00 -0.10000000000E+04  0.10000000000E+04  0.00000000000E+00 0.  1.
    9000005    2    1    2  501    0  0.30730189719E+02 -0.10000049148E+02 -0.91404927869E+03  0.97059750762E+03  0.32485241634E+03 0.  0.
         13    1    3    3    0    0  0.53367807269E+02 -0.16152985345E+03 -0.54738280159E+03  0.57320846808E+03  0.00000000000E+00 0.  1.
          1    1    3    3  501    0 -0.22637617550E+02  0.15152980430E+03 -0.36666647710E+03  0.39738903954E+03  0.00000000000E+00 0.  1.
         21    1    1    2  502  501 -0.30730189719E+02  0.10000049148E+02 -0.53149877551E+02  0.62203336139E+02  0.00000000000E+00 0.  1.
<mgrwt>
<rscale>  1 0.30000000E+03</rscale>
<asrwt>0</asrwt>
<pdfrwt beam="1">  1        1 0.11927605E+00 0.30000000E+03</pdfrwt>
<pdfrwt beam="2">0</pdfrwt>
<totfact> 0.26242601E+01</totfact>
</mgrwt>
</event>
<event>
 6    1  0.1904828E-004  0.3000000E+03  0.7818608E-02  0.1093470E+00
          1   -1    0    0  502    0  0.00000000000E+00  0.00000000000E+00  0.81482650268E+02  0.81482650268E+02  0.00000000000E+00 0.  1.
         13   -1    0    0    0    0 -0.00000000000E+00 -0.00000000000E+00 -0.10000000000E+04  0.10000000000E+04  0.00000000000E+00 0.  1.
    9000005    2    1    2  501    0  0.10124811569E+02 -0.30787927380E+02 -0.96945269572E+03  0.10211103242E+04  0.31902563647E+03 0.  0.
         13    1    3    3    0    0  0.98084330403E+02 -0.12218313344E+03 -0.28713457149E+03  0.32710169078E+03  0.00000000000E+00 0.  1.
          3    1    3    3  501    0 -0.87959518834E+02  0.91395206059E+02 -0.68231812422E+03  0.69400863344E+03  0.00000000000E+00 0.  1.
         21    1    1    2  502  501 -0.10124811569E+02  0.30787927380E+02  0.50935345984E+02  0.60372326045E+02  0.00000000000E+00 0.  1.
<mgrwt>
<rscale>  1 0.30000000E+03</rscale>
<asrwt>0</asrwt>
<pdfrwt beam="1">  1        1 0.29630117E+00 0.30000000E+03</pdfrwt>
<pdfrwt beam="2">0</pdfrwt>
<totfact> 0.36174891E+00</totfact>
</mgrwt>
</event>
<event>
 6    1  0.1904828E-004  0.3000000E+03  0.7818608E-02  0.1093470E+00
          1   -1    0    0  502    0  0.00000000000E+00  0.00000000000E+00  0.31439452738E+02  0.31439452738E+02  0.00000000000E+00 0.  1.
         13   -1    0    0    0    0 -0.00000000000E+00 -0.00000000000E+00 -0.10000000000E+04  0.10000000000E+04  0.00000000000E+00 0.  1.
    9000005    2    1    2  501    0 -0.74488764678E+01 -0.13203089697E+02 -0.95902221548E+03  0.10135289220E+04  0.32754764326E+03 0.  0.
         13    1    3    3    0    0 -0.99395458044E+02  0.10450826219E+03 -0.24714426580E+03  0.28614982451E+03  0.00000000000E+00 0.  1.
          1    1    3    3  501    0  0.91946581576E+02 -0.11771135189E+03 -0.71187794968E+03  0.72737909749E+03  0.00000000000E+00 0.  1.
         21    1    1    2  502  501  0.74488764678E+01  0.13203089697E+02 -0.95383317812E+01  0.17910530739E+02  0.00000000000E+00 0. -1.
<mgrwt>
<rscale>  1 0.30000000E+03</rscale>
<asrwt>0</asrwt>
<pdfrwt beam="1">  1        1 0.11432552E+00 0.30000000E+03</pdfrwt>
<pdfrwt beam="2">0</pdfrwt>
<totfact> 0.28017578E+01</totfact>
</mgrwt>
</event>
<event>
 6    1  0.1904828E-004  0.3000000E+03  0.7818608E-02  0.1093470E+00
          1   -1    0    0  502    0  0.00000000000E+00  0.00000000000E+00  0.24312746893E+02  0.24312746893E+02  0.00000000000E+00 0.  1.
         13   -1    0    0    0    0 -0.00000000000E+00 -0.00000000000E+00 -0.10000000000E+04  0.10000000000E+04  0.00000000000E+00 0.  1.
    9000005    2    1    2  501    0 -0.16719581916E+02 -0.11054487880E+02 -0.95036739251E+03  0.99201969094E+03  0.28373075329E+03 0.  0.
         13    1    3    3    0    0 -0.42674444764E+02 -0.11511686350E+03 -0.20481918152E+03  0.23879677053E+03  0.00000000000E+00 0.  1.
          1    1    3    3  501    0  0.25954862847E+02  0.10406237562E+03 -0.74554821099E+03  0.75322292041E+03  0.00000000000E+00 0.  1.
         21    1    1    2  502  501  0.16719581916E+02  0.11054487880E+02 -0.25319860601E+02  0.32293055950E+02  0.00000000000E+00 0.  1.
<mgrwt>
<rscale>  1 0.30000000E+03</rscale>
<asrwt>0</asrwt>
<pdfrwt beam="1">  1        1 0.88410175E-01 0.30000000E+03</pdfrwt>
<pdfrwt beam="2">0</pdfrwt>
<totfact> 0.40848646E+01</totfact>
</mgrwt>
</event>
<event>
 6    1  0.1904828E-004  0.3000000E+03  0.7818608E-02  0.1093470E+00
          1   -1    0    0  502    0  0.00000000000E+00  0.00000000000E+00  0.42176672066E+02  0.42176672066E+02  0.00000000000E+00 0.  1.
         13   -1    0    0    0    0 -0.00000000000E+00 -0.00000000000E+00 -0.10000000000E+04  0.10000000000E+04  0.00000000000E+00 0.  1.
    9000005    2    1    2  501    0  0.42177523197E+02  0.63287001439E+02 -0.78491882947E+03  0.85328476222E+03  0.32590355717E+03 0.  0.
         13    1    3    3    0    0  0.13435615751E+03  0.30912839020E+02 -0.12476105494E+03  0.18593682128E+03  0.00000000000E+00 0.  1.
          3    1    3    3  501    0 -0.92178634311E+02  0.32374162419E+02 -0.66015777453E+03  0.66734794095E+03  0.00000000000E+00 0.  1.
         21    1    1    2  502  501 -0.42177523197E+02 -0.63287001439E+02 -0.17290449846E+03  0.18889190984E+03  0.00000000000E+00 0.  1.
<mgrwt>
<rscale>  1 0.30000000E+03</rscale>
<asrwt>0</asrwt>
<pdfrwt beam="1">  1        1 0.15337004E+00 0.30000000E+03</pdfrwt>
<pdfrwt beam="2">0</pdfrwt>
<totfact> 0.17272974E+01</totfact>
</mgrwt>
</event>
<event>
 6    1  0.1904828E-004  0.3000000E+03  0.7818608E-02  0.1093470E+00
          1   -1    0    0  502    0  0.00000000000E+00  0.00000000000E+00  0.30621216659E+02  0.30621216659E+02  0.00000000000E+00 0.  1.
         13   -1    0    0    0    0 -0.00000000000E+00 -0.00000000000E+00 -0.10000000000E+04  0.10000000000E+04  0.00000000000E+00 0.  1.
    9000005    2    1    2  501    0 -0.81832746750E+01  0.96842404862E+01 -0.96524001304E+03  0.10172840536E+04  0.32096388034E+03 0.  0.
         13    1    3    3    0    0 -0.40119423191E+02  0.12684159583E+03 -0.18623166553E+03  0.22886806635E+03  0.00000000000E+00 0.  1.
          3    1    3    3  501    0  0.31936148516E+02 -0.11715735534E+03 -0.77900834751E+03  0.78841598727E+03  0.00000000000E+00 0.  1.
         21    1    1    2  502  501  0.81832746750E+01 -0.96842404862E+01 -0.41387702987E+01  0.13337163034E+02  0.00000000000E+00 0. -1.
<mgrwt>
<rscale>  1 0.30000000E+03</rscale>
<asrwt>0</asrwt>
<pdfrwt beam="1">  1        1 0.11135011E+00 0.30000000E+03</pdfrwt>
<pdfrwt beam="2">0</pdfrwt>
<totfact> 0.29166290E+01</totfact>
</mgrwt>
</event>
<event>
 6    1  0.1904828E-004  0.3000000E+03  0.7818608E-02  0.1093470E+00
          1   -1    0    0  502    0  0.00000000000E+00  0.00000000000E+00  0.30844694010E+02  0.30844694010E+02  0.00000000000E+00 0.  1.
         13   -1    0    0    0    0 -0.00000000000E+00 -0.00000000000E+00 -0.10000000000E+04  0.10000000000E+04  0.00000000000E+00 0.  1.
    9000005    2    1    2  501    0  0.12564209049E+02  0.92440287167E+01 -0.95263830313E+03  0.10081263578E+04  0.32947792842E+03 0.  0.
         13    1    3    3    0    0 -0.40221307637E+02 -0.49751992193E+02 -0.92044756598E+03  0.92266826976E+03  0.00000000000E+00 0.  1.
          1    1    3    3  501    0  0.52785516687E+02  0.58996020909E+02 -0.32190737150E+02  0.85458088051E+02  0.00000000000E+00 0.  1.
         21    1    1    2  502  501 -0.12564209049E+02 -0.92440287167E+01 -0.16517002862E+02  0.22718336196E+02  0.00000000000E+00 0. -1.
<mgrwt>
<rscale>  1 0.30000000E+03</rscale>
<asrwt>0</asrwt>
<pdfrwt beam="1">  1        1 0.11216276E+00 0.30000000E+03</pdfrwt>
<pdfrwt beam="2">0</pdfrwt>
<totfact> 0.28845992E+01</totfact>
</mgrwt>
</event>
<event>
 6    1  0.1904828E-004  0.3000000E+03  0.7818608E-02  0.1093470E+00
          1   -1    0    0  502    0  0.00000000000E+00  0.00000000000E+00  0.29753141531E+02  0.29753141531E+02  0.00000000000E+00 0.  1.
         13   -1    0    0    0    0 -0.00000000000E+00 -0.00000000000E+00 -0.10000000000E+04  0.10000000000E+04  0.00000000000E+00 0.  1.
    9000005    2    1    2  501    0  0.49032101763E+01 -0.85018461007E+01 -0.96292636199E+03  0.10175092645E+04  0.32863597152E+03 0.  0.
         13    1    3    3    0    0  0.12495493899E+03 -0.60660720261E+02 -0.78176567679E+03  0.79400946668E+03  0.00000000000E+00 0.  1.
          3    1    3    3  501    0 -0.12005172882E+03  0.52158874160E+02 -0.18116068520E+03  0.22349979778E+03  0.00000000000E+00 0.  1.
         21    1    1    2  502  501 -0.49032101763E+01  0.85018461007E+01 -0.73204964747E+01  0.12243877073E+02  0.00000000000E+00 0. -1.
<mgrwt>
<rscale>  1 0.30000000E+03</rscale>
<asrwt>0</asrwt>
<pdfrwt beam="1">  1        1 0.10819347E+00 0.30000000E+03</pdfrwt>
<pdfrwt beam="2">0</pdfrwt>
<totfact> 0.30459437E+01</totfact>
</mgrwt>
</event>
<event>
 6    1  0.1904828E-004  0.3000000E+03  0.7818608E-02  0.1093470E+00
          1   -1    0    0  502    0  0.00000000000E+00  0.00000000000E+00  0.11553389119E+02  0.11553389119E+02  0.00000000000E+00 0.  1.
         13   -1    0    0    0    0 -0.00000000000E+00 -0.00000000000E+00 -0.10000000000E+04  0.10000000000E+04  0.00000000000E+00 0.  1.
    9000005    2    1    2  501    0  0.89786759477E+01  0.78351309131E+00 -0.90445485567E+03  0.92707945551E+03  0.20336297693E+03 0.  0.
         13    1    3    3    0    0  0.61337637271E+02 -0.23587986651E+02 -0.94703712782E+02  0.11527138446E+03  0.00000000000E+00 0.  1.
          1    1    3    3  501    0 -0.52358961324E+02  0.24371499742E+02 -0.80975114288E+03  0.81180807106E+03  0.00000000000E+00 0.  1.
         21    1    1    2  502  501 -0.89786759477E+01 -0.78351309131E+00 -0.83991755216E+02  0.84473933605E+02  0.00000000000E+00 0.  1.
<mgrwt>
<rscale>  1 0.30000000E+03</rscale>
<asrwt>0</asrwt>
<pdfrwt beam="1">  1        1 0.42012413E-01 0.30000000E+03</pdfrwt>
<pdfrwt beam="2">0</pdfrwt>
<totfact> 0.11085515E+02</totfact>
</mgrwt>
</event>
<event>
 6    1  0.1904828E-004  0.3000000E+03  0.7818608E-02  0.1093470E+00
          1   -1    0    0  502    0  0.00000000000E+00  0.00000000000E+00  0.29477198779E+02  0.29477198779E+02  0.00000000000E+00 0.  1.
         13   -1    0    0    0    0 -0.00000000000E+00 -0.00000000000E+00 -0.10000000000E+04  0.10000000000E+04  0.00000000000E+00 0.  1.
    9000005    2    1    2  501    0  0.21132975329E+01  0.14821694990E+02 -0.95157383515E+03  0.10053274165E+04  0.32398503355E+03 0.  0.
         13    1    3    3    0    0 -0.52986045161E+02 -0.14186230639E+03 -0.35240449315E+03  0.38356402562E+03  0.00000000000E+00 0.  1.
          3    1    3    3  501    0  0.55099342694E+02  0.15668400138E+03 -0.59916934200E+03  0.62176339088E+03  0.00000000000E+00 0.  1.
         21    1    1    2  502  501 -0.21132975329E+01 -0.14821694990E+02 -0.18948966071E+02  0.24149782277E+02  0.00000000000E+00 0.  1.
<mgrwt>
<rscale>  1 0.30000000E+03</rscale>
<asrwt>0</asrwt>
<pdfrwt beam="1">  1        1 0.10719004E+00 0.30000000E+03</pdfrwt>
<pdfrwt beam="2">0</pdfrwt>
<totfact> 0.30887628E+01</totfact>
</mgrwt>
</event>
<event>
 6    1  0.1904828E-004  0.3000000E+03  0.7818608E-02  0.1093470E+00
          1   -1    0    0  502    0  0.00000000000E+00  0.00000000000E+00  0.29746076529E+02  0.29746076529E+02  0.00000000000E+00 0.  1.
         13   -1    0    0    0    0 -0.00000000000E+00 -0.00000000000E+00 -0.10000000000E+04  0.10000000000E+04  0.00000000000E+00 0.  1.
    9000005    2    1    2  501    0  0.86164759979E+00 -0.12921585922E+02 -0.95164814144E+03  0.10070770460E+04  0.32924501772E+03 0.  0.
         13    1    3    3    0    0 -0.30452499561E+02  0.10934121054E+03 -0.80769808516E+03  0.81563414092E+03  0.00000000000E+00 0.  1.
          1    1    3    3  501    0  0.31314147161E+02 -0.12226279646E+03 -0.14395005628E+03  0.19144290510E+03  0.00000000000E+00 0.  1.
         21    1    1    2  502  501 -0.86164759979E+00  0.12921585922E+02 -0.18605782028E+02  0.22669030509E+02  0.00000000000E+00 0. -1.
<mgrwt>
<rscale>  1 0.30000000E+03</rscale>
<asrwt>0</asrwt>
<pdfrwt beam="1">  1        1 0.10816778E+00 0.30000000E+03</pdfrwt>
<pdfrwt beam="2">0</pdfrwt>
<totfact> 0.30470294E+01</totfact>
</mgrwt>
</event>
<event>
 6    1  0.1904828E-004  0.3000000E+03  0.7818608E-02  0.1093470E+00
          1   -1    0    0  502    0  0.00000000000E+00  0.00000000000E+00  0.74804398679E+02  0.74804398679E+02  0.00000000000E+00 0.  1.
         13   -1    0    0    0    0 -0.00000000000E+00 -0.00000000000E+00 -0.10000000000E+04  0.10000000000E+04  0.00000000000E+00 0.  1.
    9000005    2    1    2  501    0  0.10832882310E+03  0.78548610589E+02 -0.85623393532E+03  0.92426958704E+03  0.32129845842E+03 0.  0.
         13    1    3    3    0    0  0.55150709257E+02  0.93208444194E+02 -0.86202762873E+03  0.86880437815E+03  0.00000000000E+00 0.  1.
          3    1    3    3  501    0  0.53178113840E+02 -0.14659833605E+02  0.57936934111E+01  0.55465208881E+02  0.00000000000E+00 0.  1.
         21    1    1    2  502  501 -0.10832882310E+03 -0.78548610589E+02 -0.68961665998E+02  0.15053481164E+03  0.00000000000E+00 0.  1.
<mgrwt>
<rscale>  1 0.30000000E+03</rscale>
<asrwt>0</asrwt>
<pdfrwt beam="1">  1        1 0.27201657E+00 0.30000000E+03</pdfrwt>
<pdfrwt beam="2">0</pdfrwt>
<totfact> 0.47047846E+00</totfact>
</mgrwt>
</event>
<event>
 6    1  0.1904828E-004  0.3000000E+03  0.7818608E-02  0.1093470E+00
          1   -1    0    0  502    0  0.00000000000E+00  0.00000000000E+00  0.32628291520E+02  0.32628291520E+02  0.00000000000E+00 0.  1.
         13   -1    0    0    0    0 -0.00000000000E+00 -0.00000000000E+00 -0.10000000000E+04  0.10000000000E+04  0.00000000000E+00 0.  1.
    9000005    2    1    2  501    0  0.89505727357E+01  0.36978686230E+02 -0.91723988025E+03  0.96969391149E+03  0.31229753134E+03 0.  0.
         13    1    3    3    0    0 -0.27406476903E+02  0.79178615782E+02 -0.43922722822E+02  0.94602186833E+02  0.00000000000E+00 0.  1.
          3    1    3    3  501    0  0.36357049639E+02 -0.42199929552E+02 -0.87331715742E+03  0.87509172466E+03  0.00000000000E+00 0.  1.
         21    1    1    2  502  501 -0.89505727357E+01 -0.36978686230E+02 -0.50131828235E+02  0.62934380030E+02  0.00000000000E+00 0.  1.
<mgrwt>
<rscale>  1 0.30000000E+03</rscale>
<asrwt>0</asrwt>
<pdfrwt beam="1">  1        1 0.11864858E+00 0.30000000E+03</pdfrwt>
<pdfrwt beam="2">0</pdfrwt>
<totfact> 0.26458875E+01</totfact>
</mgrwt>
</event>
<event>
 6    1  0.1904828E-004  0.3000000E+03  0.7818608E-02  0.1093470E+00
          1   -1    0    0  502    0  0.00000000000E+00  0.00000000000E+00  0.57815446953E+02  0.57815446953E+02  0.00000000000E+00 0.  1.
         13   -1    0    0    0    0 -0.00000000000E+00 -0.00000000000E+00 -0.10000000000E+04  0.10000000000E+04  0.00000000000E+00 0.  1.
    9000005    2    1    2  501    0 -0.19424389070E+02  0.23584988393E+02 -0.96414261377E+03  0.10201894586E+04  0.33208732768E+03 0.  0.
         13    1    3    3    0    0  0.13248049722E+03  0.85392320105E+02 -0.60806438846E+03  0.62816019532E+03  0.00000000000E+00 0.  1.
          1    1    3    3  501    0 -0.15190488629E+03 -0.61807331713E+02 -0.35607822531E+03  0.39202926328E+03  0.00000000000E+00 0.  1.
         21    1    1    2  502  501  0.19424389070E+02 -0.23584988393E+02  0.21958060722E+02  0.37625988344E+02  0.00000000000E+00 0. -1.
<mgrwt>
<rscale>  1 0.30000000E+03</rscale>
<asrwt>0</asrwt>
<pdfrwt beam="1">  1        1 0.21023843E+00 0.30000000E+03</pdfrwt>
<pdfrwt beam="2">0</pdfrwt>
<totfact> 0.91615822E+00</totfact>
</mgrwt>
</event>
<event>
 6    1  0.2046460E-004  0.3000000E+03  0.7818608E-02  0.1093470E+00
          1   -1    0    0  502    0  0.00000000000E+00  0.00000000000E+00  0.69555062262E+02  0.69555062262E+02  0.00000000000E+00 0.  1.
         13   -1    0    0    0    0 -0.00000000000E+00 -0.00000000000E+00 -0.10000000000E+04  0.10000000000E+04  0.00000000000E+00 0.  1.
    9000005    2    1    2  501    0  0.16336400485E+02 -0.11619993460E+02 -0.91964897455E+03  0.10467854542E+04  0.49960349134E+03 0.  0.
         13    1    3    3    0    0  0.22837769614E+03  0.11220103099E+03 -0.47090658100E+03  0.53525550112E+03  0.00000000000E+00 0.  1.
          3    1    3    3  501    0 -0.21204129565E+03 -0.12382102445E+03 -0.44874239355E+03  0.51152995311E+03  0.00000000000E+00 0.  1.
         21    1    1    2  502  501 -0.16336400485E+02  0.11619993460E+02 -0.10795963185E+02  0.22769608031E+02  0.00000000000E+00 0.  1.
<mgrwt>
<rscale>  1 0.30000000E+03</rscale>
<asrwt>0</asrwt>
<pdfrwt beam="1">  1        1 0.25292803E+00 0.30000000E+03</pdfrwt>
<pdfrwt beam="2">0</pdfrwt>
<totfact> 0.57817118E+00</totfact>
</mgrwt>
</event>
<event>
 6    1  0.1904828E-004  0.3000000E+03  0.7818608E-02  0.1093470E+00
          1   -1    0    0  502    0  0.00000000000E+00  0.00000000000E+00  0.38177820039E+02  0.38177820039E+02  0.00000000000E+00 0.  1.
         13   -1    0    0    0    0 -0.00000000000E+00 -0.00000000000E+00 -0.10000000000E+04  0.10000000000E+04  0.00000000000E+00 0.  1.
    9000005    2    1    2  501    0 -0.23451762597E+02  0.26739663926E+02 -0.94630474730E+03  0.99937336782E+03  0.31935788505E+03 0.  0.
         13    1    3    3    0    0 -0.12203026806E+03  0.97701793960E+02 -0.76721656512E+03  0.78298038587E+03  0.00000000000E+00 0.  1.
          1    1    3    3  501    0  0.98578505465E+02 -0.70962130034E+02 -0.17908818218E+03  0.21639298195E+03  0.00000000000E+00 0.  1.
         21    1    1    2  502  501  0.23451762597E+02 -0.26739663926E+02 -0.15517432658E+02  0.38804452220E+02  0.00000000000E+00 0.  1.
<mgrwt>
<rscale>  1 0.30000000E+03</rscale>
<asrwt>0</asrwt>
<pdfrwt beam="1">  1        1 0.13882873E+00 0.30000000E+03</pdfrwt>
<pdfrwt beam="2">0</pdfrwt>
<totfact> 0.20520954E+01</totfact>
</mgrwt>
</event>
<event>
 6    1  0.1904828E-004  0.3000000E+03  0.7818608E-02  0.1093470E+00
          1   -1    0    0  502    0  0.00000000000E+00  0.00000000000E+00  0.27769816534E+02  0.27769816534E+02  0.00000000000E+00 0.  1.
         13   -1    0    0    0    0 -0.00000000000E+00 -0.00000000000E+00 -0.10000000000E+04  0.10000000000E+04  0.00000000000E+00 0.  1.
    9000005    2    1    2  501    0 -0.95405589698E+01  0.17247407144E+01 -0.96636539838E+03  0.10164387663E+04  0.31494711523E+03 0.  0.
         13    1    3    3    0    0  0.14374470548E+03  0.49468052774E+01 -0.63845527950E+03  0.65445561740E+03  0.00000000000E+00 0.  1.
          3    1    3    3  501    0 -0.15328526445E+03 -0.32220645629E+01 -0.32791011889E+03  0.36198314887E+03  0.00000000000E+00 0.  1.
         21    1    1    2  502  501  0.95405589698E+01 -0.17247407144E+01 -0.58647850832E+01  0.11331050263E+02  0.00000000000E+00 0.  1.
<mgrwt>
<rscale>  1 0.30000000E+03</rscale>
<asrwt>0</asrwt>
<pdfrwt beam="1">  1        1 0.10098136E+00 0.30000000E+03</pdfrwt>
<pdfrwt beam="2">0</pdfrwt>
<totfact> 0.33740977E+01</totfact>
</mgrwt>
</event>
<event>
 6    1  0.1904828E-004  0.3000000E+03  0.7818608E-02  0.1093470E+00
          1   -1    0    0  502    0  0.00000000000E+00  0.00000000000E+00  0.22138495117E+02  0.22138495117E+02  0.00000000000E+00 0.  1.
         13   -1    0    0    0    0 -0.00000000000E+00 -0.00000000000E+00 -0.10000000000E+04  0.10000000000E+04  0.00000000000E+00 0.  1.
    9000005    2    1    2  501    0 -0.79287113200E+01  0.24855814506E+02 -0.93898693745E+03  0.97532067831E+03  0.26243719410E+03 0.  0.
         13    1    3    3    0    0  0.31173680291E+02 -0.10068974054E+03 -0.64103236490E+03  0.64964045059E+03  0.00000000000E+00 0.  1.
          1    1    3    3  501    0 -0.39102391611E+02  0.12554555505E+03 -0.29795457256E+03  0.32568022772E+03  0.00000000000E+00 0.  1.
         21    1    1    2  502  501  0.79287113200E+01 -0.24855814506E+02 -0.38874567428E+02  0.46817816808E+02  0.00000000000E+00 0. -1.
<mgrwt>
<rscale>  1 0.30000000E+03</rscale>
<asrwt>0</asrwt>
<pdfrwt beam="1">  1        1 0.80503788E-01 0.30000000E+03</pdfrwt>
<pdfrwt beam="2">0</pdfrwt>
<totfact> 0.46559710E+01</totfact>
</mgrwt>
</event>
<event>
 6    1  0.1904828E-004  0.3000000E+03  0.7818608E-02  0.1093470E+00
          1   -1    0    0  502    0  0.00000000000E+00  0.00000000000E+00  0.66961746201E+02  0.66961746201E+02  0.00000000000E+00 0.  1.
         13   -1    0    0    0    0 -0.00000000000E+00 -0.00000000000E+00 -0.10000000000E+04  0.10000000000E+04  0.00000000000E+00 0.  1.
    9000005    2    1    2  501    0  0.41817679454E+02  0.27527458397E+02 -0.95014055920E+03  0.10140564711E+04  0.35076625424E+03 0.  0.
         13    1    3    3    0    0  0.15325386539E+02  0.18609649967E+02 -0.97580855546E+03  0.97610630745E+03  0.00000000000E+00 0.  1.
          3    1    3    3  501    0  0.26492292915E+02  0.89178084306E+01  0.25667996256E+02  0.37950163674E+02  0.00000000000E+00 0.  1.
         21    1    1    2  502  501 -0.41817679454E+02 -0.27527458397E+02  0.17102305403E+02  0.52905275075E+02  0.00000000000E+00 0. -1.
<mgrwt>
<rscale>  1 0.30000000E+03</rscale>
<asrwt>0</asrwt>
<pdfrwt beam="1">  1        1 0.24349777E+00 0.30000000E+03</pdfrwt>
<pdfrwt beam="2">0</pdfrwt>
<totfact> 0.63978091E+00</totfact>
</mgrwt>
</event>
<event>
 6    1  0.1904828E-004  0.3000000E+03  0.7818608E-02  0.1093470E+00
          1   -1    0    0  502    0  0.00000000000E+00  0.00000000000E+00  0.67677092890E+02  0.67677092890E+02  0.00000000000E+00 0.  1.
         13   -1    0    0    0    0 -0.00000000000E+00 -0.00000000000E+00 -0.10000000000E+04  0.10000000000E+04  0.00000000000E+00 0.  1.
    9000005    2    1    2  501    0  0.14132311872E+02  0.28130456911E+01 -0.95392215075E+03  0.10417124479E+04  0.41831772483E+03 0.  0.
         13    1    3    3    0    0 -0.11569312000E+03  0.16879313354E+03 -0.53442344533E+03  0.57226256113E+03  0.00000000000E+00 0.  1.
          3    1    3    3  501    0  0.12982543187E+03 -0.16598008785E+03 -0.41949870541E+03  0.46944988675E+03  0.00000000000E+00 0.  1.
         21    1    1    2  502  501 -0.14132311872E+02 -0.28130456911E+01  0.21599243638E+02  0.25964645012E+02  0.00000000000E+00 0.  1.
<mgrwt>
<rscale>  1 0.30000000E+03</rscale>
<asrwt>0</asrwt>
<pdfrwt beam="1">  1        1 0.24609904E+00 0.30000000E+03</pdfrwt>
<pdfrwt beam="2">0</pdfrwt>
<totfact> 0.62211575E+00</totfact>
</mgrwt>
</event>
<event>
 6    1  0.1904828E-004  0.3000000E+03  0.7818608E-02  0.1093470E+00
          3   -1    0    0  502    0  0.00000000000E+00  0.00000000000E+00  0.29225182501E+02  0.29225182501E+02  0.00000000000E+00 0.  1.
         13   -1    0    0    0    0 -0.00000000000E+00 -0.00000000000E+00 -0.10000000000E+04  0.10000000000E+04  0.00000000000E+00 0.  1.
    9000005    2    1    2  501    0  0.82691873931E+01  0.17809384748E+02 -0.86152645142E+03  0.91822626748E+03  0.31705850903E+03 0.  0.
         13    1    3    3    0    0 -0.10674799035E+03 -0.94731628652E+02 -0.54188181241E+03  0.56036159177E+03  0.00000000000E+00 0.  1.
          3    1    3    3  501    0  0.11501717774E+03  0.11254101340E+03 -0.31964463902E+03  0.35786467572E+03  0.00000000000E+00 0.  1.
         21    1    1    2  502  501 -0.82691873931E+01 -0.17809384748E+02 -0.10924836607E+03  0.11099891502E+03  0.00000000000E+00 0. -1.
<mgrwt>
<rscale>  1 0.30000000E+03</rscale>
<asrwt>0</asrwt>
<pdfrwt beam="1">  1        3 0.10627362E+00 0.30000000E+03</pdfrwt>
<pdfrwt beam="2">0</pdfrwt>
<totfact> 0.33229997E+00</totfact>
</mgrwt>
</event>
<event>
 6    1  0.1904828E-004  0.3000000E+03  0.7818608E-02  0.1093470E+00
          1   -1    0    0  502    0  0.00000000000E+00  0.00000000000E+00  0.28314675496E+02  0.28314675496E+02  0.00000000000E+00 0.  1.
         13   -1    0    0    0    0 -0.00000000000E+00 -0.00000000000E+00 -0.10000000000E+04  0.10000000000E+04  0.00000000000E+00 0.  1.
    9000005    2    1    2  501    0 -0.66391910097E+01 -0.14674668503E+02 -0.94047692040E+03  0.99319503370E+03  0.31887319175E+03 0.  0.
         13    1    3    3    0    0 -0.52376195840E+01 -0.16511522514E+03 -0.41708158721E+03  0.44860619771E+03  0.00000000000E+00 0.  1.
          1    1    3    3  501    0 -0.14015714257E+01  0.15044055664E+03 -0.52339533319E+03  0.54458883599E+03  0.00000000000E+00 0.  1.
         21    1    1    2  502  501  0.66391910097E+01  0.14674668503E+02 -0.31208404106E+02  0.35119641795E+02  0.00000000000E+00 0.  1.
<mgrwt>
<rscale>  1 0.30000000E+03</rscale>
<asrwt>0</asrwt>
<pdfrwt beam="1">  1        1 0.10296267E+00 0.30000000E+03</pdfrwt>
<pdfrwt beam="2">0</pdfrwt>
<totfact> 0.32790196E+01</totfact>
</mgrwt>
</event>
<event>
 6    1  0.1904828E-004  0.3000000E+03  0.7818608E-02  0.1093470E+00
          1   -1    0    0  502    0  0.00000000000E+00  0.00000000000E+00  0.57039323163E+02  0.57039323163E+02  0.00000000000E+00 0.  1.
         13   -1    0    0    0    0 -0.00000000000E+00 -0.00000000000E+00 -0.10000000000E+04  0.10000000000E+04  0.00000000000E+00 0.  1.
    9000005    2    1    2  501    0 -0.53106320040E+02  0.33854811595E+02 -0.93635103567E+03  0.99371383972E+03  0.32672236497E+03 0.  0.
         13    1    3    3    0    0 -0.44994809006E+02 -0.10183726352E+03 -0.77401066763E+03  0.78197690163E+03  0.00000000000E+00 0.  1.
          3    1    3    3  501    0 -0.81115110340E+01  0.13569207511E+03 -0.16234036804E+03  0.21173693810E+03  0.00000000000E+00 0.  1.
         21    1    1    2  502  501  0.53106320040E+02 -0.33854811595E+02 -0.66096411692E+01  0.63325483438E+02  0.00000000000E+00 0.  1.
<mgrwt>
<rscale>  1 0.30000000E+03</rscale>
<asrwt>0</asrwt>
<pdfrwt beam="1">  1        1 0.20741616E+00 0.30000000E+03</pdfrwt>
<pdfrwt beam="2">0</pdfrwt>
<totfact> 0.94468289E+00</totfact>
</mgrwt>
</event>
<event>
 6    1  0.1904828E-004  0.3000000E+03  0.7818608E-02  0.1093470E+00
          1   -1    0    0  502    0  0.00000000000E+00  0.00000000000E+00  0.32203832223E+02  0.32203832223E+02  0.00000000000E+00 0.  1.
         13   -1    0    0    0    0 -0.00000000000E+00 -0.00000000000E+00 -0.10000000000E+04  0.10000000000E+04  0.00000000000E+00 0.  1.
    9000005    2    1    2  501    0  0.11986709188E+02  0.41907430441E+01 -0.96371458113E+03  0.10188658086E+04  0.33042472447E+03 0.  0.
         13    1    3    3    0    0  0.76316153630E+02  0.15163773325E+03 -0.50276415588E+03  0.53065050069E+03  0.00000000000E+00 0.  1.
          3    1    3    3  501    0 -0.64329444442E+02 -0.14744699020E+03 -0.46095042526E+03  0.48821530792E+03  0.00000000000E+00 0.  1.
         21    1    1    2  502  501 -0.11986709188E+02 -0.41907430441E+01 -0.40815866436E+01  0.13338023615E+02  0.00000000000E+00 0.  1.
<mgrwt>
<rscale>  1 0.30000000E+03</rscale>
<asrwt>0</asrwt>
<pdfrwt beam="1">  1        1 0.11710509E+00 0.30000000E+03</pdfrwt>
<pdfrwt beam="2">0</pdfrwt>
<totfact> 0.27001311E+01</totfact>
</mgrwt>
</event>
<event>
 6    1  0.1904828E-004  0.3000000E+03  0.7818608E-02  0.1093470E+00
          1   -1    0    0  502    0  0.00000000000E+00  0.00000000000E+00  0.30775421341E+02  0.30775421341E+02  0.00000000000E+00 0.  1.
         13   -1    0    0    0    0 -0.00000000000E+00 -0.00000000000E+00 -0.10000000000E+04  0.10000000000E+04  0.00000000000E+00 0.  1.
    9000005    2    1    2  501    0 -0.97063698795E+01  0.97351828361E+01 -0.96190787067E+03  0.10152023158E+04  0.32431466649E+03 0.  0.
         13    1    3    3    0    0 -0.80190626690E+02  0.13198502254E+03 -0.28919308748E+03  0.32784634302E+03  0.00000000000E+00 0.  1.
          3    1    3    3  501    0  0.70484256811E+02 -0.12224983970E+03 -0.67271478319E+03  0.68735597276E+03  0.00000000000E+00 0.  1.
         21    1    1    2  502  501  0.97063698795E+01 -0.97351828361E+01 -0.73167079890E+01  0.15573105563E+02  0.00000000000E+00 0. -1.
<mgrwt>
<rscale>  1 0.30000000E+03</rscale>
<asrwt>0</asrwt>
<pdfrwt beam="1">  1        1 0.11191086E+00 0.30000000E+03</pdfrwt>
<pdfrwt beam="2">0</pdfrwt>
<totfact> 0.28944745E+01</totfact>
</mgrwt>
</event>
<event>
 6    1  0.1904828E-004  0.3000000E+03  0.7818608E-02  0.1093470E+00
          1   -1    0    0  502    0  0.00000000000E+00  0.00000000000E+00  0.30140282677E+02  0.30140282677E+02  0.00000000000E+00 0.  1.
         13   -1    0    0    0    0 -0.00000000000E+00 -0.00000000000E+00 -0.10000000000E+04  0.10000000000E+04  0.00000000000E+00 0.  1.
    9000005    2    1    2  501    0 -0.19264016856E+02  0.67105196376E+01 -0.94776732821E+03  0.10000702465E+04  0.31853014941E+03 0.  0.
         13    1    3    3    0    0 -0.16432644258E+03 -0.34926429050E+02 -0.51959434987E+03  0.54607812957E+03  0.00000000000E+00 0.  1.
          3    1    3    3  501    0  0.14506242572E+03  0.41636948688E+02 -0.42817297834E+03  0.45399211693E+03  0.00000000000E+00 0.  1.
         21    1    1    2  502  501  0.19264016856E+02 -0.67105196376E+01 -0.22092389110E+02  0.30070036179E+02  0.00000000000E+00 0.  1.
<mgrwt>
<rscale>  1 0.30000000E+03</rscale>
<asrwt>0</asrwt>
<pdfrwt beam="1">  1        1 0.10960126E+00 0.30000000E+03</pdfrwt>
<pdfrwt beam="2">0</pdfrwt>
<totfact> 0.29872859E+01</totfact>
</mgrwt>
</event>
<event>
 6    1  0.1904828E-004  0.3000000E+03  0.7818608E-02  0.1093470E+00
          1   -1    0    0  502    0  0.00000000000E+00  0.00000000000E+00  0.30548483742E+02  0.30548483742E+02  0.00000000000E+00 0.  1.
         13   -1    0    0    0    0 -0.00000000000E+00 -0.00000000000E+00 -0.10000000000E+04  0.10000000000E+04  0.00000000000E+00 0.  1.
    9000005    2    1    2  501    0  0.16666599499E+02 -0.18823935971E+02 -0.88484284477E+03  0.94228329584E+03  0.32298426212E+03 0.  0.
         13    1    3    3    0    0 -0.78414933868E+02  0.74755306977E+02 -0.10417543042E+03  0.15029896233E+03  0.00000000000E+00 0.  1.
          3    1    3    3  501    0  0.95081533367E+02 -0.93579242947E+02 -0.78066741435E+03  0.79198433351E+03  0.00000000000E+00 0.  1.
         21    1    1    2  502  501 -0.16666599499E+02  0.18823935971E+02 -0.84608671483E+02  0.88265187897E+02  0.00000000000E+00 0.  1.
<mgrwt>
<rscale>  1 0.30000000E+03</rscale>
<asrwt>0</asrwt>
<pdfrwt beam="1">  1        1 0.11108563E+00 0.30000000E+03</pdfrwt>
<pdfrwt beam="2">0</pdfrwt>
<totfact> 0.29271617E+01</totfact>
</mgrwt>
</event>
<event>
 6    1  0.1904828E-004  0.3000000E+03  0.7818608E-02  0.1093470E+00
          1   -1    0    0  502    0  0.00000000000E+00  0.00000000000E+00  0.27948349966E+02  0.27948349966E+02  0.00000000000E+00 0.  1.
         13   -1    0    0    0    0 -0.00000000000E+00 -0.00000000000E+00 -0.10000000000E+04  0.10000000000E+04  0.00000000000E+00 0.  1.
    9000005    2    1    2  501    0  0.75659394225E+01 -0.13702289925E+01 -0.95350345684E+03  0.10078695941E+04  0.32645544185E+03 0.  0.
         13    1    3    3    0    0 -0.10690623434E+03  0.32640190309E+02 -0.82464059903E+03  0.83218173648E+03  0.00000000000E+00 0.  1.
          1    1    3    3  501    0  0.11447217376E+03 -0.34010419301E+02 -0.12886285781E+03  0.17568785761E+03  0.00000000000E+00 0.  1.
         21    1    1    2  502  501 -0.75659394225E+01  0.13702289925E+01 -0.18548193194E+02  0.20078755877E+02  0.00000000000E+00 0. -1.
<mgrwt>
<rscale>  1 0.30000000E+03</rscale>
<asrwt>0</asrwt>
<pdfrwt beam="1">  1        1 0.10163058E+00 0.30000000E+03</pdfrwt>
<pdfrwt beam="2">0</pdfrwt>
<totfact> 0.33425039E+01</totfact>
</mgrwt>
</event>
<event>
 6    1  0.1904828E-004  0.3000000E+03  0.7818608E-02  0.1093470E+00
          1   -1    0    0  502    0  0.00000000000E+00  0.00000000000E+00  0.51296438626E+02  0.51296438626E+02  0.00000000000E+00 0.  1.
         13   -1    0    0    0    0 -0.00000000000E+00 -0.00000000000E+00 -0.10000000000E+04  0.10000000000E+04  0.00000000000E+00 0.  1.
    9000005    2    1    2  501    0 -0.56436070218E+01  0.11196771771E+02 -0.96875345260E+03  0.10276486874E+04  0.34266799511E+03 0.  0.
         13    1    3    3    0    0  0.67818653441E+02 -0.11322023719E+03 -0.16637424492E+03  0.21236426544E+03  0.00000000000E+00 0.  1.
          3    1    3    3  501    0 -0.73462260463E+02  0.12441700896E+03 -0.80237920768E+03  0.81528442200E+03  0.00000000000E+00 0.  1.
         21    1    1    2  502  501  0.56436070218E+01 -0.11196771771E+02  0.20049891223E+02  0.23647751190E+02  0.00000000000E+00 0. -1.
<mgrwt>
<rscale>  1 0.30000000E+03</rscale>
<asrwt>0</asrwt>
<pdfrwt beam="1">  1        1 0.18653290E+00 0.30000000E+03</pdfrwt>
<pdfrwt beam="2">0</pdfrwt>
<totfact> 0.11881012E+01</totfact>
</mgrwt>
</event>
<event>
 6    1  0.1904828E-004  0.3000000E+03  0.7818608E-02  0.1093470E+00
          1   -1    0    0  502    0  0.00000000000E+00  0.00000000000E+00  0.33525079516E+02  0.33525079516E+02  0.00000000000E+00 0.  1.
         13   -1    0    0    0    0 -0.00000000000E+00 -0.00000000000E+00 -0.10000000000E+04  0.10000000000E+04  0.00000000000E+00 0.  1.
    9000005    2    1    2  501    0 -0.14574109486E+02 -0.19231711138E+02 -0.94927002741E+03  0.10038894299E+04  0.32572709314E+03 0.  0.
         13    1    3    3    0    0  0.12139915384E+03  0.20520258669E+02 -0.15938444121E+03  0.20140068438E+03  0.00000000000E+00 0.  1.
          1    1    3    3  501    0 -0.13597326333E+03 -0.39751969807E+02 -0.78988558621E+03  0.80248874555E+03  0.00000000000E+00 0.  1.
         21    1    1    2  502  501  0.14574109486E+02  0.19231711138E+02 -0.17204893070E+02  0.29635649582E+02  0.00000000000E+00 0. -1.
<mgrwt>
<rscale>  1 0.30000000E+03</rscale>
<asrwt>0</asrwt>
<pdfrwt beam="1">  1        1 0.12190964E+00 0.30000000E+03</pdfrwt>
<pdfrwt beam="2">0</pdfrwt>
<totfact> 0.25360266E+01</totfact>
</mgrwt>
</event>
<event>
 6    1  0.1904828E-004  0.3000000E+03  0.7818608E-02  0.1093470E+00
          1   -1    0    0  502    0  0.00000000000E+00  0.00000000000E+00  0.29546716781E+02  0.29546716781E+02  0.00000000000E+00 0.  1.
         13   -1    0    0    0    0 -0.00000000000E+00 -0.00000000000E+00 -0.10000000000E+04  0.10000000000E+04  0.00000000000E+00 0.  1.
    9000005    2    1    2  501    0 -0.24193908786E+02  0.11909618138E+02 -0.90691770345E+03  0.96052531341E+03  0.31524906446E+03 0.  0.
         13    1    3    3    0    0  0.60291352043E+02  0.14496903796E+03 -0.40174196861E+03  0.43133244539E+03  0.00000000000E+00 0.  1.
          3    1    3    3  501    0 -0.84485260830E+02 -0.13305941982E+03 -0.50517573484E+03  0.52919286802E+03  0.00000000000E+00 0.  1.
         21    1    1    2  502  501  0.24193908786E+02 -0.11909618138E+02 -0.63535579771E+02  0.69021403371E+02  0.00000000000E+00 0. -1.
<mgrwt>
<rscale>  1 0.30000000E+03</rscale>
<asrwt>0</asrwt>
<pdfrwt beam="1">  1        1 0.10744283E+00 0.30000000E+03</pdfrwt>
<pdfrwt beam="2">0</pdfrwt>
<totfact> 0.30778945E+01</totfact>
</mgrwt>
</event>
<event>
 6    1  0.1904828E-004  0.3000000E+03  0.7818608E-02  0.1093470E+00
          1   -1    0    0  502    0  0.00000000000E+00  0.00000000000E+00  0.40330493293E+02  0.40330493293E+02  0.00000000000E+00 0.  1.
         13   -1    0    0    0    0 -0.00000000000E+00 -0.00000000000E+00 -0.10000000000E+04  0.10000000000E+04  0.00000000000E+00 0.  1.
    9000005    2    1    2  501    0 -0.23134208579E+02  0.93836334999E+01 -0.92853120799E+03  0.10004201208E+04  0.37154672618E+03 0.  0.
         13    1    3    3    0    0 -0.34328817179E+02 -0.17311688676E+03 -0.32536083722E+03  0.37014537491E+03  0.00000000000E+00 0.  1.
          3    1    3    3  501    0  0.11194608600E+02  0.18250052026E+03 -0.60317037077E+03  0.63027474591E+03  0.00000000000E+00 0.  1.
         21    1    1    2  502  501  0.23134208579E+02 -0.93836334999E+01 -0.31138298714E+02  0.39910372474E+02  0.00000000000E+00 0. -1.
<mgrwt>
<rscale>  1 0.30000000E+03</rscale>
<asrwt>0</asrwt>
<pdfrwt beam="1">  1        1 0.14665665E+00 0.30000000E+03</pdfrwt>
<pdfrwt beam="2">0</pdfrwt>
<totfact> 0.18685663E+01</totfact>
</mgrwt>
</event>
<event>
 6    1  0.1904828E-004  0.3000000E+03  0.7818608E-02  0.1093470E+00
          1   -1    0    0  502    0  0.00000000000E+00  0.00000000000E+00  0.35633434222E+02  0.35633434222E+02  0.00000000000E+00 0.  1.
         13   -1    0    0    0    0 -0.00000000000E+00 -0.00000000000E+00 -0.10000000000E+04  0.10000000000E+04  0.00000000000E+00 0.  1.
    9000005    2    1    2  501    0  0.14226202508E+02  0.57045821893E+01 -0.96053574496E+03  0.10198346278E+04  0.34234313730E+03 0.  0.
         13    1    3    3    0    0 -0.43818904413E+02 -0.14393821522E+03 -0.25332413343E+03  0.29463778231E+03  0.00000000000E+00 0.  1.
          3    1    3    3  501    0  0.58045106921E+02  0.14964279741E+03 -0.70721161152E+03  0.72519684550E+03  0.00000000000E+00 0.  1.
         21    1    1    2  502  501 -0.14226202508E+02 -0.57045821893E+01 -0.38308208223E+01  0.15798806408E+02  0.00000000000E+00 0.  1.
<mgrwt>
<rscale>  1 0.30000000E+03</rscale>
<asrwt>0</asrwt>
<pdfrwt beam="1">  1        1 0.12957640E+00 0.30000000E+03</pdfrwt>
<pdfrwt beam="2">0</pdfrwt>
<totfact> 0.23001710E+01</totfact>
</mgrwt>
</event>
<event>
 6    1  0.1904828E-004  0.3000000E+03  0.7818608E-02  0.1093470E+00
          1   -1    0    0  502    0  0.00000000000E+00  0.00000000000E+00  0.30190722853E+02  0.30190722853E+02  0.00000000000E+00 0.  1.
         13   -1    0    0    0    0 -0.00000000000E+00 -0.00000000000E+00 -0.10000000000E+04  0.10000000000E+04  0.00000000000E+00 0.  1.
    9000005    2    1    2  501    0  0.18565112572E+02 -0.27280684145E+02 -0.93729356863E+03  0.98386394407E+03  0.29728795386E+03 0.  0.
         13    1    3    3    0    0  0.11416807579E+03  0.52354154376E+02 -0.74020591341E+03  0.75078632197E+03  0.00000000000E+00 0.  1.
          3    1    3    3  501    0 -0.95602963221E+02 -0.79634838521E+02 -0.19708765522E+03  0.23307762210E+03  0.00000000000E+00 0.  1.
         21    1    1    2  502  501 -0.18565112572E+02  0.27280684145E+02 -0.32515708517E+02  0.46326778785E+02  0.00000000000E+00 0. -1.
<mgrwt>
<rscale>  1 0.30000000E+03</rscale>
<asrwt>0</asrwt>
<pdfrwt beam="1">  1        1 0.10978468E+00 0.30000000E+03</pdfrwt>
<pdfrwt beam="2">0</pdfrwt>
<totfact> 0.29797622E+01</totfact>
</mgrwt>
</event>
<event>
 6    1  0.1904828E-004  0.3000000E+03  0.7818608E-02  0.1093470E+00
          1   -1    0    0  502    0  0.00000000000E+00  0.00000000000E+00  0.29985492442E+02  0.29985492442E+02  0.00000000000E+00 0.  1.
         13   -1    0    0    0    0 -0.00000000000E+00 -0.00000000000E+00 -0.10000000000E+04  0.10000000000E+04  0.00000000000E+00 0.  1.
    9000005    2    1    2  501    0 -0.13047918545E+02  0.20059810257E+01 -0.95968761443E+03  0.10132249179E+04  0.32473088053E+03 0.  0.
         13    1    3    3    0    0 -0.11993226648E+03 -0.26141722151E+02 -0.14030247942E+03  0.18641867908E+03  0.00000000000E+00 0.  1.
          3    1    3    3  501    0  0.10688434793E+03  0.28147703177E+02 -0.81938513501E+03  0.82680623879E+03  0.00000000000E+00 0.  1.
         21    1    1    2  502  501  0.13047918545E+02 -0.20059810257E+01 -0.10326893130E+02  0.16760574571E+02  0.00000000000E+00 0.  1.
<mgrwt>
<rscale>  1 0.30000000E+03</rscale>
<asrwt>0</asrwt>
<pdfrwt beam="1">  1        1 0.10903838E+00 0.30000000E+03</pdfrwt>
<pdfrwt beam="2">0</pdfrwt>
<totfact> 0.30105442E+01</totfact>
</mgrwt>
</event>
<event>
 6    1  0.1904828E-004  0.3000000E+03  0.7818608E-02  0.1093470E+00
          1   -1    0    0  502    0  0.00000000000E+00  0.00000000000E+00  0.31174058388E+02  0.31174058388E+02  0.00000000000E+00 0.  1.
         13   -1    0    0    0    0 -0.00000000000E+00 -0.00000000000E+00 -0.10000000000E+04  0.10000000000E+04  0.00000000000E+00 0.  1.
    9000005    2    1    2  501    0 -0.11991438915E+02  0.11933530616E+01 -0.96368035689E+03  0.10180707862E+04  0.32809004381E+03 0.  0.
         13    1    3    3    0    0 -0.12242312465E+03 -0.59473606731E+02 -0.18728073547E+03  0.23151372578E+03  0.00000000000E+00 0.  1.
          1    1    3    3  501    0  0.11043168573E+03  0.60666959793E+02 -0.77639962142E+03  0.78655706046E+03  0.00000000000E+00 0.  1.
         21    1    1    2  502  501  0.11991438915E+02 -0.11933530616E+01 -0.51455847230E+01  0.13103272145E+02  0.00000000000E+00 0.  1.
<mgrwt>
<rscale>  1 0.30000000E+03</rscale>
<asrwt>0</asrwt>
<pdfrwt beam="1">  1        1 0.11336045E+00 0.30000000E+03</pdfrwt>
<pdfrwt beam="2">0</pdfrwt>
<totfact> 0.28382991E+01</totfact>
</mgrwt>
</event>
<event>
 6    1  0.1904828E-004  0.3000000E+03  0.7818608E-02  0.1093470E+00
          1   -1    0    0  502    0  0.00000000000E+00  0.00000000000E+00  0.38320689059E+02  0.38320689059E+02  0.00000000000E+00 0.  1.
         13   -1    0    0    0    0 -0.00000000000E+00 -0.00000000000E+00 -0.10000000000E+04  0.10000000000E+04  0.00000000000E+00 0.  1.
    9000005    2    1    2  501    0  0.16034405973E+01 -0.15828889522E+02 -0.96841638880E+03  0.10210431608E+04  0.32318061407E+03 0.  0.
         13    1    3    3    0    0 -0.82783089263E+02 -0.14591111782E+03 -0.53803756379E+03  0.56358452270E+03  0.00000000000E+00 0.  1.
          3    1    3    3  501    0  0.84386529860E+02  0.13008222830E+03 -0.43037882501E+03  0.45745863808E+03  0.00000000000E+00 0.  1.
         21    1    1    2  502  501 -0.16034405973E+01  0.15828889522E+02  0.67370778612E+01  0.17277528277E+02  0.00000000000E+00 0. -1.
<mgrwt>
<rscale>  1 0.30000000E+03</rscale>
<asrwt>0</asrwt>
<pdfrwt beam="1">  1        1 0.13934825E+00 0.30000000E+03</pdfrwt>
<pdfrwt beam="2">0</pdfrwt>
<totfact> 0.20392245E+01</totfact>
</mgrwt>
</event>
<event>
 6    1  0.1904828E-004  0.3000000E+03  0.7818608E-02  0.1093470E+00
          1   -1    0    0  502    0  0.00000000000E+00  0.00000000000E+00  0.35522070025E+02  0.35522070025E+02  0.00000000000E+00 0.  1.
         13   -1    0    0    0    0 -0.00000000000E+00 -0.00000000000E+00 -0.10000000000E+04  0.10000000000E+04  0.00000000000E+00 0.  1.
    9000005    2    1    2  501    0  0.37875962135E+02 -0.23551847356E+02 -0.90378127998E+03  0.96020035110E+03  0.32120839681E+03 0.  0.
         13    1    3    3    0    0 -0.65015759477E+02 -0.12414944858E+03 -0.67894994552E+03  0.69326269414E+03  0.00000000000E+00 0.  1.
          1    1    3    3  501    0  0.10289172161E+03  0.10059760122E+03 -0.22483133446E+03  0.26693765696E+03  0.00000000000E+00 0.  1.
         21    1    1    2  502  501 -0.37875962135E+02  0.23551847356E+02 -0.60696649994E+02  0.75321718927E+02  0.00000000000E+00 0. -1.
<mgrwt>
<rscale>  1 0.30000000E+03</rscale>
<asrwt>0</asrwt>
<pdfrwt beam="1">  1        1 0.12917144E+00 0.30000000E+03</pdfrwt>
<pdfrwt beam="2">0</pdfrwt>
<totfact> 0.23119064E+01</totfact>
</mgrwt>
</event>
<event>
 6    1  0.1904828E-004  0.3000000E+03  0.7818608E-02  0.1093470E+00
          1   -1    0    0  502    0  0.00000000000E+00  0.00000000000E+00  0.52829350376E+02  0.52829350376E+02  0.00000000000E+00 0.  1.
         13   -1    0    0    0    0 -0.00000000000E+00 -0.00000000000E+00 -0.10000000000E+04  0.10000000000E+04  0.00000000000E+00 0.  1.
    9000005    2    1    2  501    0 -0.28805213100E+02  0.24140624427E+02 -0.95992958722E+03  0.10131392945E+04  0.32182900353E+03 0.  0.
         13    1    3    3    0    0 -0.42987986242E+02 -0.14616802390E+03 -0.48717519584E+03  0.51044365959E+03  0.00000000000E+00 0.  1.
          1    1    3    3  501    0  0.14182773142E+02  0.17030864833E+03 -0.47275439138E+03  0.50269563487E+03  0.00000000000E+00 0.  1.
         21    1    1    2  502  501  0.28805213100E+02 -0.24140624427E+02  0.12758937601E+02  0.39690055910E+02  0.00000000000E+00 0.  1.
<mgrwt>
<rscale>  1 0.30000000E+03</rscale>
<asrwt>0</asrwt>
<pdfrwt beam="1">  1        1 0.19210713E+00 0.30000000E+03</pdfrwt>
<pdfrwt beam="2">0</pdfrwt>
<totfact> 0.11171042E+01</totfact>
</mgrwt>
</event>
<event>
 6    1  0.1904828E-004  0.3000000E+03  0.7818608E-02  0.1093470E+00
          3   -1    0    0  502    0  0.00000000000E+00  0.00000000000E+00  0.33196169085E+02  0.33196169085E+02  0.00000000000E+00 0.  1.
         13   -1    0    0    0    0 -0.00000000000E+00 -0.00000000000E+00 -0.10000000000E+04  0.10000000000E+04  0.00000000000E+00 0.  1.
    9000005    2    1    2  501    0  0.26009935235E+01 -0.42084811500E+02 -0.85294588518E+03  0.91178147338E+03  0.31945402740E+03 0.  0.
         13    1    3    3    0    0 -0.42231344671E+02 -0.25897385347E+02 -0.86186618726E+03  0.86328876153E+03  0.00000000000E+00 0.  1.
          1    1    3    3  501    0  0.44832338194E+02 -0.16187426153E+02  0.89203020790E+01  0.48492711850E+02  0.00000000000E+00 0.  1.
         21    1    1    2  502  501 -0.26009935235E+01  0.42084811500E+02 -0.11385794574E+03  0.12141469571E+03  0.00000000000E+00 0.  1.
<mgrwt>
<rscale>  1 0.30000000E+03</rscale>
<asrwt>0</asrwt>
<pdfrwt beam="1">  1        3 0.12071360E+00 0.30000000E+03</pdfrwt>
<pdfrwt beam="2">0</pdfrwt>
<totfact> 0.22693274E+00</totfact>
</mgrwt>
</event>
<event>
 6    1  0.1904828E-004  0.3000000E+03  0.7818608E-02  0.1093470E+00
          1   -1    0    0  502    0  0.00000000000E+00  0.00000000000E+00  0.31483123166E+02  0.31483123166E+02  0.00000000000E+00 0.  1.
         13   -1    0    0    0    0 -0.00000000000E+00 -0.00000000000E+00 -0.10000000000E+04  0.10000000000E+04  0.00000000000E+00 0.  1.
    9000005    2    1    2  501    0  0.40238705337E+01  0.16766932940E+02 -0.94978170082E+03  0.10060208296E+04  0.33120282119E+03 0.  0.
         13    1    3    3    0    0  0.35582837562E+02  0.13645913129E+03 -0.19216250015E+03  0.23835616062E+03  0.00000000000E+00 0.  1.
          1    1    3    3  501    0 -0.31558967029E+02 -0.11969219835E+03 -0.75761920068E+03  0.76766466897E+03  0.00000000000E+00 0.  1.
         21    1    1    2  502  501 -0.40238705337E+01 -0.16766932940E+02 -0.18735176010E+02  0.25462293581E+02  0.00000000000E+00 0.  1.
<mgrwt>
<rscale>  1 0.30000000E+03</rscale>
<asrwt>0</asrwt>
<pdfrwt beam="1">  1        1 0.11448433E+00 0.30000000E+03</pdfrwt>
<pdfrwt beam="2">0</pdfrwt>
<totfact> 0.27958088E+01</totfact>
</mgrwt>
</event>
<event>
 6    1  0.1904828E-004  0.3000000E+03  0.7818608E-02  0.1093470E+00
          1   -1    0    0  502    0  0.00000000000E+00  0.00000000000E+00  0.30930362906E+02  0.30930362906E+02  0.00000000000E+00 0.  1.
         13   -1    0    0    0    0 -0.00000000000E+00 -0.00000000000E+00 -0.10000000000E+04  0.10000000000E+04  0.00000000000E+00 0.  1.
    9000005    2    1    2  501    0 -0.60909005397E+01 -0.85568121470E+01 -0.96383050605E+03  0.10191929613E+04  0.33117175267E+03 0.  0.
         13    1    3    3    0    0 -0.79500148366E+02  0.74508837332E+02 -0.98782183795E+02  0.14707059620E+03  0.00000000000E+00 0.  1.
          3    1    3    3  501    0  0.73409247826E+02 -0.83065649479E+02 -0.86504832226E+03  0.87212236505E+03  0.00000000000E+00 0.  1.
         21    1    1    2  502  501  0.60909005397E+01  0.85568121470E+01 -0.52391310422E+01  0.11737401654E+02  0.00000000000E+00 0.  1.
<mgrwt>
<rscale>  1 0.30000000E+03</rscale>
<asrwt>0</asrwt>
<pdfrwt beam="1">  1        1 0.11247428E+00 0.30000000E+03</pdfrwt>
<pdfrwt beam="2">0</pdfrwt>
<totfact> 0.28724529E+01</totfact>
</mgrwt>
</event>
<event>
 6    1  0.1904828E-004  0.3000000E+03  0.7818608E-02  0.1093470E+00
          1   -1    0    0  502    0  0.00000000000E+00  0.00000000000E+00  0.29227455063E+02  0.29227455063E+02  0.00000000000E+00 0.  1.
         13   -1    0    0    0    0 -0.00000000000E+00 -0.00000000000E+00 -0.10000000000E+04  0.10000000000E+04  0.00000000000E+00 0.  1.
    9000005    2    1    2  501    0  0.48557135882E+01 -0.11642200990E+02 -0.96118573730E+03  0.10133836651E+04  0.32079481354E+03 0.  0.
         13    1    3    3    0    0 -0.30441988588E+02 -0.88645366481E+01 -0.97489865457E+03  0.97541410762E+03  0.00000000000E+00 0.  1.
          1    1    3    3  501    0  0.35297702176E+02 -0.27776643420E+01  0.13712917268E+02  0.37969557518E+02  0.00000000000E+00 0.  1.
         21    1    1    2  502  501 -0.48557135882E+01  0.11642200990E+02 -0.95868076401E+01  0.15843789921E+02  0.00000000000E+00 0.  1.
<mgrwt>
<rscale>  1 0.30000000E+03</rscale>
<asrwt>0</asrwt>
<pdfrwt beam="1">  1        1 0.10628188E+00 0.30000000E+03</pdfrwt>
<pdfrwt beam="2">0</pdfrwt>
<totfact> 0.31282650E+01</totfact>
</mgrwt>
</event>
<event>
 6    1  0.1904828E-004  0.3000000E+03  0.7818608E-02  0.1093470E+00
          3   -1    0    0  502    0  0.00000000000E+00  0.00000000000E+00  0.27477293369E+02  0.27477293369E+02  0.00000000000E+00 0.  1.
         13   -1    0    0    0    0 -0.00000000000E+00 -0.00000000000E+00 -0.10000000000E+04  0.10000000000E+04  0.00000000000E+00 0.  1.
    9000005    2    1    2  501    0 -0.60460765915E+01 -0.71678296089E+01 -0.95496221183E+03  0.10075699128E+04  0.32117965429E+03 0.  0.
         13    1    3    3    0    0  0.16299069419E+01 -0.15063061135E+03 -0.28484372244E+03  0.32222381025E+03  0.00000000000E+00 0.  1.
          1    1    3    3  501    0 -0.76759835334E+01  0.14346278174E+03 -0.67011848939E+03  0.68534610256E+03  0.00000000000E+00 0.  1.
         21    1    1    2  502  501  0.60460765915E+01  0.71678296089E+01 -0.17560494799E+02  0.19907380567E+02  0.00000000000E+00 0.  1.
<mgrwt>
<rscale>  1 0.30000000E+03</rscale>
<asrwt>0</asrwt>
<pdfrwt beam="1">  1        3 0.99917641E-01 0.30000000E+03</pdfrwt>
<pdfrwt beam="2">0</pdfrwt>
<totfact> 0.39255317E+00</totfact>
</mgrwt>
</event>
<event>
 6    1  0.1904828E-004  0.3000000E+03  0.7818608E-02  0.1093470E+00
          1   -1    0    0  502    0  0.00000000000E+00  0.00000000000E+00  0.35947672518E+02  0.35947672518E+02  0.00000000000E+00 0.  1.
         13   -1    0    0    0    0 -0.00000000000E+00 -0.00000000000E+00 -0.10000000000E+04  0.10000000000E+04  0.00000000000E+00 0.  1.
    9000005    2    1    2  501    0 -0.13127750119E+02 -0.11359314549E+02 -0.96880574815E+03  0.10179485931E+04  0.31198299438E+03 0.  0.
         13    1    3    3    0    0  0.97380270028E+02  0.93381099817E+02 -0.25941764263E+03  0.29240461710E+03  0.00000000000E+00 0.  1.
          3    1    3    3  501    0 -0.11050802015E+03 -0.10474041437E+03 -0.70938810553E+03  0.72554397605E+03  0.00000000000E+00 0.  1.
         21    1    1    2  502  501  0.13127750119E+02  0.11359314549E+02  0.47534206708E+01  0.17999079373E+02  0.00000000000E+00 0.  1.
<mgrwt>
<rscale>  1 0.30000000E+03</rscale>
<asrwt>0</asrwt>
<pdfrwt beam="1">  1        1 0.13071908E+00 0.30000000E+03</pdfrwt>
<pdfrwt beam="2">0</pdfrwt>
<totfact> 0.22674715E+01</totfact>
</mgrwt>
</event>
<event>
 6    1  0.1904828E-004  0.3000000E+03  0.7818608E-02  0.1093470E+00
          1   -1    0    0  502    0  0.00000000000E+00  0.00000000000E+00  0.29630413570E+02  0.29630413570E+02  0.00000000000E+00 0.  1.
         13   -1    0    0    0    0 -0.00000000000E+00 -0.00000000000E+00 -0.10000000000E+04  0.10000000000E+04  0.00000000000E+00 0.  1.
    9000005    2    1    2  501    0  0.73614082838E+01 -0.93134854018E+01 -0.95772811260E+03  0.10122886085E+04  0.32763418306E+03 0.  0.
         13    1    3    3    0    0  0.60070212188E+02 -0.22552732096E+02 -0.12340486295E+02  0.65340215176E+02  0.00000000000E+00 0.  1.
          3    1    3    3  501    0 -0.52708803904E+02  0.13239246694E+02 -0.94538762630E+03  0.94694839333E+03  0.00000000000E+00 0.  1.
         21    1    1    2  502  501 -0.73614082838E+01  0.93134854018E+01 -0.12641473830E+02  0.17341805063E+02  0.00000000000E+00 0.  1.
<mgrwt>
<rscale>  1 0.30000000E+03</rscale>
<asrwt>0</asrwt>
<pdfrwt beam="1">  1        1 0.10774719E+00 0.30000000E+03</pdfrwt>
<pdfrwt beam="2">0</pdfrwt>
<totfact> 0.30648822E+01</totfact>
</mgrwt>
</event>
<event>
 6    1  0.1904828E-004  0.3000000E+03  0.7818608E-02  0.1093470E+00
          3   -1    0    0  502    0  0.00000000000E+00  0.00000000000E+00  0.33868284591E+02  0.33868284591E+02  0.00000000000E+00 0.  1.
         13   -1    0    0    0    0 -0.00000000000E+00 -0.00000000000E+00 -0.10000000000E+04  0.10000000000E+04  0.00000000000E+00 0.  1.
    9000005    2    1    2  501    0 -0.60963198699E+01 -0.25747241040E+02 -0.95131318135E+03  0.10035421492E+04  0.31843365187E+03 0.  0.
         13    1    3    3    0    0  0.32074740627E+02  0.80425158386E+02 -0.84202177943E+03  0.84646185509E+03  0.00000000000E+00 0.  1.
          1    1    3    3  501    0 -0.38171060497E+02 -0.10617239943E+03 -0.10929140192E+03  0.15708029409E+03  0.00000000000E+00 0.  1.
         21    1    1    2  502  501  0.60963198699E+01  0.25747241040E+02 -0.14818534064E+02  0.30326135410E+02  0.00000000000E+00 0.  1.
<mgrwt>
<rscale>  1 0.30000000E+03</rscale>
<asrwt>0</asrwt>
<pdfrwt beam="1">  1        3 0.12315766E+00 0.30000000E+03</pdfrwt>
<pdfrwt beam="2">0</pdfrwt>
<totfact> 0.21257420E+00</totfact>
</mgrwt>
</event>
<event>
 6    1  0.1904828E-004  0.3000000E+03  0.7818608E-02  0.1093470E+00
          1   -1    0    0  502    0  0.00000000000E+00  0.00000000000E+00  0.39402272983E+02  0.39402272983E+02  0.00000000000E+00 0.  1.
         13   -1    0    0    0    0 -0.00000000000E+00 -0.00000000000E+00 -0.10000000000E+04  0.10000000000E+04  0.00000000000E+00 0.  1.
    9000005    2    1    2  501    0  0.11889241152E+02 -0.14500702990E+01 -0.95441085838E+03  0.10259213938E+04  0.37612652523E+03 0.  0.
         13    1    3    3    0    0  0.14841253680E+03 -0.77393268438E+02 -0.22765833416E+03  0.28256736576E+03  0.00000000000E+00 0.  1.
          1    1    3    3  501    0 -0.13652329565E+03  0.75943198139E+02 -0.72675252422E+03  0.74335402808E+03  0.00000000000E+00 0.  1.
         21    1    1    2  502  501 -0.11889241152E+02  0.14500702990E+01 -0.61868686395E+01  0.13480879148E+02  0.00000000000E+00 0.  1.
<mgrwt>
<rscale>  1 0.30000000E+03</rscale>
<asrwt>0</asrwt>
<pdfrwt beam="1">  1        1 0.14328129E+00 0.30000000E+03</pdfrwt>
<pdfrwt beam="2">0</pdfrwt>
<totfact> 0.19450440E+01</totfact>
</mgrwt>
</event>
<event>
 6    1  0.1904828E-004  0.3000000E+03  0.7818608E-02  0.1093470E+00
          1   -1    0    0  502    0  0.00000000000E+00  0.00000000000E+00  0.30453869619E+02  0.30453869619E+02  0.00000000000E+00 0.  1.
         13   -1    0    0    0    0 -0.00000000000E+00 -0.00000000000E+00 -0.10000000000E+04  0.10000000000E+04  0.00000000000E+00 0.  1.
    9000005    2    1    2  501    0  0.10929320019E+02  0.12449707473E+02 -0.95709573306E+03  0.10097305097E+04  0.32132384717E+03 0.  0.
         13    1    3    3    0    0 -0.13346193617E+02  0.45268944402E+02 -0.96665350238E+03  0.96780493483E+03  0.00000000000E+00 0.  1.
          3    1    3    3  501    0  0.24275513636E+02 -0.32819236929E+02  0.95577693256E+01  0.41925574884E+02  0.00000000000E+00 0.  1.
         21    1    1    2  502  501 -0.10929320019E+02 -0.12449707473E+02 -0.12450397323E+02  0.20723359904E+02  0.00000000000E+00 0. -1.
<mgrwt>
<rscale>  1 0.30000000E+03</rscale>
<asrwt>0</asrwt>
<pdfrwt beam="1">  1        1 0.11074158E+00 0.30000000E+03</pdfrwt>
<pdfrwt beam="2">0</pdfrwt>
<totfact> 0.29409438E+01</totfact>
</mgrwt>
</event>
<event>
 6    1  0.1904828E-004  0.3000000E+03  0.7818608E-02  0.1093470E+00
          1   -1    0    0  502    0  0.00000000000E+00  0.00000000000E+00  0.32211133236E+02  0.32211133236E+02  0.00000000000E+00 0.  1.
         13   -1    0    0    0    0 -0.00000000000E+00 -0.00000000000E+00 -0.10000000000E+04  0.10000000000E+04  0.00000000000E+00 0.  1.
    9000005    2    1    2  501    0  0.23480208921E+02  0.72026743224E+01 -0.92608875327E+03  0.98381590420E+03  0.33113464888E+03 0.  0.
         13    1    3    3    0    0  0.12136191362E+03 -0.99617275160E+02 -0.68309444574E+03  0.70090679651E+03  0.00000000000E+00 0.  1.
          3    1    3    3  501    0 -0.97881704697E+02  0.10681994948E+03 -0.24299430753E+03  0.28290910769E+03  0.00000000000E+00 0.  1.
         21    1    1    2  502  501 -0.23480208921E+02 -0.72026743224E+01 -0.41700113493E+02  0.48395229039E+02  0.00000000000E+00 0.  1.
<mgrwt>
<rscale>  1 0.30000000E+03</rscale>
<asrwt>0</asrwt>
<pdfrwt beam="1">  1        1 0.11713164E+00 0.30000000E+03</pdfrwt>
<pdfrwt beam="2">0</pdfrwt>
<totfact> 0.26991852E+01</totfact>
</mgrwt>
</event>
<event>
 6    1  0.1904828E-004  0.3000000E+03  0.7818608E-02  0.1093470E+00
          1   -1    0    0  502    0  0.00000000000E+00  0.00000000000E+00  0.28274863839E+02  0.28274863839E+02  0.00000000000E+00 0.  1.
         13   -1    0    0    0    0 -0.00000000000E+00 -0.00000000000E+00 -0.10000000000E+04  0.10000000000E+04  0.00000000000E+00 0.  1.
    9000005    2    1    2  501    0 -0.29609105191E+01 -0.10986000922E+02 -0.93661976339E+03  0.99137166066E+03  0.32470252414E+03 0.  0.
         13    1    3    3    0    0  0.97388582854E+02 -0.13410791769E+03 -0.50044980629E+03  0.52718068845E+03  0.00000000000E+00 0.  1.
          1    1    3    3  501    0 -0.10034949337E+03  0.12312191677E+03 -0.43616995710E+03  0.46419097222E+03  0.00000000000E+00 0.  1.
         21    1    1    2  502  501  0.29609105191E+01  0.10986000922E+02 -0.35105372769E+02  0.36903203176E+02  0.00000000000E+00 0.  1.
<mgrwt>
<rscale>  1 0.30000000E+03</rscale>
<asrwt>0</asrwt>
<pdfrwt beam="1">  1        1 0.10281790E+00 0.30000000E+03</pdfrwt>
<pdfrwt beam="2">0</pdfrwt>
<totfact> 0.32858332E+01</totfact>
</mgrwt>
</event>
<event>
 6    1  0.1904828E-004  0.3000000E+03  0.7818608E-02  0.1093470E+00
          1   -1    0    0  502    0  0.00000000000E+00  0.00000000000E+00  0.28811178660E+02  0.28811178660E+02  0.00000000000E+00 0.  1.
         13   -1    0    0    0    0 -0.00000000000E+00 -0.00000000000E+00 -0.10000000000E+04  0.10000000000E+04  0.00000000000E+00 0.  1.
    9000005    2    1    2  501    0  0.86910576050E+01  0.57060485881E+01 -0.95859472260E+03  0.10124800796E+04  0.32573605259E+03 0.  0.
         13    1    3    3    0    0  0.87533869842E+02  0.10424501475E+03 -0.19078007433E+03  0.23436347461E+03  0.00000000000E+00 0.  1.
          1    1    3    3  501    0 -0.78842812237E+02 -0.98538966162E+02 -0.76781464827E+03  0.77811660501E+03  0.00000000000E+00 0.  1.
         21    1    1    2  502  501 -0.86910576050E+01 -0.57060485881E+01 -0.12594098740E+02  0.16331099040E+02  0.00000000000E+00 0.  1.
<mgrwt>
<rscale>  1 0.30000000E+03</rscale>
<asrwt>0</asrwt>
<pdfrwt beam="1">  1        1 0.10476814E+00 0.30000000E+03</pdfrwt>
<pdfrwt beam="2">0</pdfrwt>
<totfact> 0.31957439E+01</totfact>
</mgrwt>
</event>
<event>
 6    1  0.1904828E-004  0.3000000E+03  0.7818608E-02  0.1093470E+00
          1   -1    0    0  502    0  0.00000000000E+00  0.00000000000E+00  0.22865282630E+02  0.22865282630E+02  0.00000000000E+00 0.  1.
         13   -1    0    0    0    0 -0.00000000000E+00 -0.00000000000E+00 -0.10000000000E+04  0.10000000000E+04  0.00000000000E+00 0.  1.
    9000005    2    1    2  501    0 -0.80984781039E+01  0.11530723154E+01 -0.95310841878E+03  0.99748462174E+03  0.29409691894E+03 0.  0.
         13    1    3    3    0    0  0.11949204975E+03  0.45950849941E+02 -0.24347285149E+03  0.27507973386E+03  0.00000000000E+00 0.  1.
          3    1    3    3  501    0 -0.12759052785E+03 -0.44797777626E+02 -0.70963556728E+03  0.72240488788E+03  0.00000000000E+00 0.  1.
         21    1    1    2  502  501  0.80984781039E+01 -0.11530723154E+01 -0.24026298593E+02  0.25380660894E+02  0.00000000000E+00 0. -1.
<mgrwt>
<rscale>  1 0.30000000E+03</rscale>
<asrwt>0</asrwt>
<pdfrwt beam="1">  1        1 0.83146658E-01 0.30000000E+03</pdfrwt>
<pdfrwt beam="2">0</pdfrwt>
<totfact> 0.44517972E+01</totfact>
</mgrwt>
</event>
<event>
 6    1  0.1904828E-004  0.3000000E+03  0.7818608E-02  0.1093470E+00
          1   -1    0    0  502    0  0.00000000000E+00  0.00000000000E+00  0.31746406031E+02  0.31746406031E+02  0.00000000000E+00 0.  1.
         13   -1    0    0    0    0 -0.00000000000E+00 -0.00000000000E+00 -0.10000000000E+04  0.10000000000E+04  0.00000000000E+00 0.  1.
    9000005    2    1    2  501    0 -0.13319145998E+02 -0.73297791245E+00 -0.96854498436E+03  0.10184039244E+04  0.31446657957E+03 0.  0.
         13    1    3    3    0    0  0.49460824951E+02 -0.14398715790E+03 -0.37826197316E+03  0.40775089844E+03  0.00000000000E+00 0.  1.
          1    1    3    3  501    0 -0.62779970949E+02  0.14325417999E+03 -0.59028301121E+03  0.61065302599E+03  0.00000000000E+00 0.  1.
         21    1    1    2  502  501  0.13319145998E+02  0.73297791245E+00  0.29139039419E+00  0.13342481594E+02  0.00000000000E+00 0.  1.
<mgrwt>
<rscale>  1 0.30000000E+03</rscale>
<asrwt>0</asrwt>
<pdfrwt beam="1">  1        1 0.11544172E+00 0.30000000E+03</pdfrwt>
<pdfrwt beam="2">0</pdfrwt>
<totfact> 0.27603167E+01</totfact>
</mgrwt>
</event>
<event>
 6    1  0.1904828E-004  0.3000000E+03  0.7818608E-02  0.1093470E+00
          1   -1    0    0  502    0  0.00000000000E+00  0.00000000000E+00  0.45448351322E+02  0.45448351322E+02  0.00000000000E+00 0.  1.
         13   -1    0    0    0    0 -0.00000000000E+00 -0.00000000000E+00 -0.10000000000E+04  0.10000000000E+04  0.00000000000E+00 0.  1.
    9000005    2    1    2  501    0  0.23876764807E+02  0.12336432937E+02 -0.96131699643E+03  0.10177345027E+04  0.33306285125E+03 0.  0.
         13    1    3    3    0    0 -0.11306813649E+03 -0.40287729262E+02 -0.75553640606E+03  0.76501161135E+03  0.00000000000E+00 0.  1.
          3    1    3    3  501    0  0.13694490130E+03  0.52624162199E+02 -0.20578059037E+03  0.25272289135E+03  0.00000000000E+00 0.  1.
         21    1    1    2  502  501 -0.23876764807E+02 -0.12336432937E+02  0.67653477515E+01  0.27713848622E+02  0.00000000000E+00 0.  1.
<mgrwt>
<rscale>  1 0.30000000E+03</rscale>
<asrwt>0</asrwt>
<pdfrwt beam="1">  1        1 0.16526708E+00 0.30000000E+03</pdfrwt>
<pdfrwt beam="2">0</pdfrwt>
<totfact> 0.15071606E+01</totfact>
</mgrwt>
</event>
<event>
 6    1  0.1904828E-004  0.3000000E+03  0.7818608E-02  0.1093470E+00
          1   -1    0    0  502    0  0.00000000000E+00  0.00000000000E+00  0.42904925583E+02  0.42904925583E+02  0.00000000000E+00 0.  1.
         13   -1    0    0    0    0 -0.00000000000E+00 -0.00000000000E+00 -0.10000000000E+04  0.10000000000E+04  0.00000000000E+00 0.  1.
    9000005    2    1    2  501    0  0.11317114078E+02 -0.17606014485E+02 -0.96472201710E+03  0.10206289504E+04  0.33250088003E+03 0.  0.
         13    1    3    3    0    0 -0.21028291575E+02 -0.10437661874E+02 -0.98266940236E+03  0.98294978924E+03  0.00000000000E+00 0.  1.
          1    1    3    3  501    0  0.32345405653E+02 -0.71683526111E+01  0.17947385253E+02  0.37679161129E+02  0.00000000000E+00 0.  1.
         21    1    1    2  502  501 -0.11317114078E+02  0.17606014485E+02  0.76269426873E+01  0.22275975217E+02  0.00000000000E+00 0.  1.
<mgrwt>
<rscale>  1 0.30000000E+03</rscale>
<asrwt>0</asrwt>
<pdfrwt beam="1">  1        1 0.15601824E+00 0.30000000E+03</pdfrwt>
<pdfrwt beam="2">0</pdfrwt>
<totfact> 0.16751831E+01</totfact>
</mgrwt>
</event>
<event>
 6    1  0.1904828E-004  0.3000000E+03  0.7818608E-02  0.1093470E+00
          1   -1    0    0  502    0  0.00000000000E+00  0.00000000000E+00  0.29083896388E+02  0.29083896388E+02  0.00000000000E+00 0.  1.
         13   -1    0    0    0    0 -0.00000000000E+00 -0.00000000000E+00 -0.10000000000E+04  0.10000000000E+04  0.00000000000E+00 0.  1.
    9000005    2    1    2  501    0 -0.10065157130E+02  0.44478776234E+01 -0.95702671302E+03  0.10113636770E+04  0.32685664558E+03 0.  0.
         13    1    3    3    0    0  0.93683545202E+02  0.12574544537E+02 -0.87164047264E+03  0.87675072818E+03  0.00000000000E+00 0.  1.
          1    1    3    3  501    0 -0.10374870233E+03 -0.81266669138E+01 -0.85386240381E+02  0.13461294885E+03  0.00000000000E+00 0.  1.
         21    1    1    2  502  501  0.10065157130E+02 -0.44478776234E+01 -0.13889390591E+02  0.17720219366E+02  0.00000000000E+00 0.  1.
<mgrwt>
<rscale>  1 0.30000000E+03</rscale>
<asrwt>0</asrwt>
<pdfrwt beam="1">  1        1 0.10575985E+00 0.30000000E+03</pdfrwt>
<pdfrwt beam="2">0</pdfrwt>
<totfact> 0.31513017E+01</totfact>
</mgrwt>
</event>
<event>
 6    1  0.1904828E-004  0.3000000E+03  0.7818608E-02  0.1093470E+00
          1   -1    0    0  502    0  0.00000000000E+00  0.00000000000E+00  0.53723458055E+02  0.53723458055E+02  0.00000000000E+00 0.  1.
         13   -1    0    0    0    0 -0.00000000000E+00 -0.00000000000E+00 -0.10000000000E+04  0.10000000000E+04  0.00000000000E+00 0.  1.
    9000005    2    1    2  501    0 -0.91127458977E+01 -0.49303594440E+02 -0.95732772386E+03  0.10023813196E+04  0.29287890395E+03 0.  0.
         13    1    3    3    0    0 -0.33821284994E+02  0.11064936501E+03 -0.58600714268E+03  0.59732029312E+03  0.00000000000E+00 0.  1.
          1    1    3    3  501    0  0.24708539097E+02 -0.15995295945E+03 -0.37132058118E+03  0.40506102645E+03  0.00000000000E+00 0.  1.
         21    1    1    2  502  501  0.91127458977E+01  0.49303594440E+02  0.11051181919E+02  0.51342138486E+02  0.00000000000E+00 0. -1.
<mgrwt>
<rscale>  1 0.30000000E+03</rscale>
<asrwt>0</asrwt>
<pdfrwt beam="1">  1        1 0.19535844E+00 0.30000000E+03</pdfrwt>
<pdfrwt beam="2">0</pdfrwt>
<totfact> 0.10778150E+01</totfact>
</mgrwt>
</event>
<event>
 6    1  0.1904828E-004  0.3000000E+03  0.7818608E-02  0.1093470E+00
          1   -1    0    0  502    0  0.00000000000E+00  0.00000000000E+00  0.31333784175E+02  0.31333784175E+02  0.00000000000E+00 0.  1.
         13   -1    0    0    0    0 -0.00000000000E+00 -0.00000000000E+00 -0.10000000000E+04  0.10000000000E+04  0.00000000000E+00 0.  1.
    9000005    2    1    2  501    0 -0.89321575524E+00  0.17247500597E+02 -0.95331517278E+03  0.10082268884E+04  0.32773978346E+03 0.  0.
         13    1    3    3    0    0 -0.13690025507E+03 -0.81948737114E+02 -0.44226897908E+03  0.47016925166E+03  0.00000000000E+00 0.  1.
          1    1    3    3  501    0  0.13600703932E+03  0.99196237711E+02 -0.51104619370E+03  0.53805763671E+03  0.00000000000E+00 0.  1.
         21    1    1    2  502  501  0.89321575524E+00 -0.17247500597E+02 -0.15351043040E+02  0.23106895803E+02  0.00000000000E+00 0. -1.
<mgrwt>
<rscale>  1 0.30000000E+03</rscale>
<asrwt>0</asrwt>
<pdfrwt beam="1">  1        1 0.11394127E+00 0.30000000E+03</pdfrwt>
<pdfrwt beam="2">0</pdfrwt>
<totfact> 0.28162266E+01</totfact>
</mgrwt>
</event>
<event>
 6    1  0.1904828E-004  0.3000000E+03  0.7818608E-02  0.1093470E+00
          1   -1    0    0  502    0  0.00000000000E+00  0.00000000000E+00  0.41834204886E+02  0.41834204886E+02  0.00000000000E+00 0.  1.
         13   -1    0    0    0    0 -0.00000000000E+00 -0.00000000000E+00 -0.10000000000E+04  0.10000000000E+04  0.00000000000E+00 0.  1.
    9000005    2    1    2  501    0 -0.67707513693E+01  0.23444479288E+02 -0.96651605812E+03  0.10160424703E+04  0.31239962239E+03 0.  0.
         13    1    3    3    0    0  0.20146120658E+00  0.30235323428E+01  0.24552621112E+02  0.24738907371E+02  0.00000000000E+00 0.  1.
          3    1    3    3  501    0 -0.69722125758E+01  0.20420946945E+02 -0.99106867923E+03  0.99130356288E+03  0.00000000000E+00 0.  1.
         21    1    1    2  502  501  0.67707513693E+01 -0.23444479288E+02  0.83502630073E+01  0.25791734635E+02  0.00000000000E+00 0.  1.
<mgrwt>
<rscale>  1 0.30000000E+03</rscale>
<asrwt>0</asrwt>
<pdfrwt beam="1">  1        1 0.15212470E+00 0.30000000E+03</pdfrwt>
<pdfrwt beam="2">0</pdfrwt>
<totfact> 0.17524817E+01</totfact>
</mgrwt>
</event>
<event>
 6    1  0.1904828E-004  0.3000000E+03  0.7818608E-02  0.1093470E+00
          1   -1    0    0  502    0  0.00000000000E+00  0.00000000000E+00  0.86408941864E+02  0.86408941864E+02  0.00000000000E+00 0.  1.
         13   -1    0    0    0    0 -0.00000000000E+00 -0.00000000000E+00 -0.10000000000E+04  0.10000000000E+04  0.00000000000E+00 0.  1.
    9000005    2    1    2  501    0 -0.27376878361E+01  0.32383198448E+02 -0.96823159363E+03  0.10228341466E+04  0.32811751860E+03 0.  0.
         13    1    3    3    0    0 -0.78340374061E+02 -0.51441334734E+02 -0.86438488992E+03  0.86945078242E+03  0.00000000000E+00 0.  1.
          1    1    3    3  501    0  0.75602686225E+02  0.83824533182E+02 -0.10384670372E+03  0.15338336416E+03  0.00000000000E+00 0.  1.
         21    1    1    2  502  501  0.27376878361E+01 -0.32383198448E+02  0.54640535499E+02  0.63574795289E+02  0.00000000000E+00 0.  1.
<mgrwt>
<rscale>  1 0.30000000E+03</rscale>
<asrwt>0</asrwt>
<pdfrwt beam="1">  1        1 0.31421500E+00 0.30000000E+03</pdfrwt>
<pdfrwt beam="2">0</pdfrwt>
<totfact> 0.29705950E+00</totfact>
</mgrwt>
</event>
<event>
 6    1  0.1904828E-004  0.3000000E+03  0.7818608E-02  0.1093470E+00
          1   -1    0    0  502    0  0.00000000000E+00  0.00000000000E+00  0.34542293903E+02  0.34542293903E+02  0.00000000000E+00 0.  1.
         13   -1    0    0    0    0 -0.00000000000E+00 -0.00000000000E+00 -0.10000000000E+04  0.10000000000E+04  0.00000000000E+00 0.  1.
    9000005    2    1    2  501    0 -0.35929872464E+02 -0.17461648314E+02 -0.91735317310E+03  0.97201301282E+03  0.31886766536E+03 0.  0.
         13    1    3    3    0    0  0.35805748273E+02 -0.15883595947E+03 -0.46767857224E+03  0.49521122823E+03  0.00000000000E+00 0.  1.
          1    1    3    3  501    0 -0.71735620737E+02  0.14137431116E+03 -0.44967460086E+03  0.47680178460E+03  0.00000000000E+00 0.  1.
         21    1    1    2  502  501  0.35929872464E+02  0.17461648314E+02 -0.48104533000E+02  0.62529281079E+02  0.00000000000E+00 0.  1.
<mgrwt>
<rscale>  1 0.30000000E+03</rscale>
<asrwt>0</asrwt>
<pdfrwt beam="1">  1        1 0.12560861E+00 0.30000000E+03</pdfrwt>
<pdfrwt beam="2">0</pdfrwt>
<totfact> 0.24185527E+01</totfact>
</mgrwt>
</event>
<event>
 6    1  0.1904828E-004  0.3000000E+03  0.7818608E-02  0.1093470E+00
          1   -1    0    0  502    0  0.00000000000E+00  0.00000000000E+00  0.27983978684E+02  0.27983978684E+02  0.00000000000E+00 0.  1.
         13   -1    0    0    0    0 -0.00000000000E+00 -0.00000000000E+00 -0.10000000000E+04  0.10000000000E+04  0.00000000000E+00 0.  1.
    9000005    2    1    2  501    0 -0.29165787096E+01  0.89154424057E+01 -0.95127707409E+03  0.10052222679E+04  0.32473950283E+03 0.  0.
         13    1    3    3    0    0 -0.60243525751E+02  0.15273276274E+03 -0.58415977160E+03  0.60679421386E+03  0.00000000000E+00 0.  1.
          1    1    3    3  501    0  0.57326947042E+02 -0.14381732033E+03 -0.36711730248E+03  0.39842805407E+03  0.00000000000E+00 0.  1.
         21    1    1    2  502  501  0.29165787096E+01 -0.89154424057E+01 -0.20738947229E+02  0.22761710762E+02  0.00000000000E+00 0.  1.
<mgrwt>
<rscale>  1 0.30000000E+03</rscale>
<asrwt>0</asrwt>
<pdfrwt beam="1">  1        1 0.10176014E+00 0.30000000E+03</pdfrwt>
<pdfrwt beam="2">0</pdfrwt>
<totfact> 0.33362509E+01</totfact>
</mgrwt>
</event>
<event>
 6    1  0.1904828E-004  0.3000000E+03  0.7818608E-02  0.1093470E+00
          1   -1    0    0  502    0  0.00000000000E+00  0.00000000000E+00  0.31966343597E+02  0.31966343597E+02  0.00000000000E+00 0.  1.
         13   -1    0    0    0    0 -0.00000000000E+00 -0.00000000000E+00 -0.10000000000E+04  0.10000000000E+04  0.00000000000E+00 0.  1.
    9000005    2    1    2  501    0 -0.16975473183E+02  0.24904429340E+02 -0.90827217278E+03  0.96503479487E+03  0.32469280585E+03 0.  0.
         13    1    3    3    0    0  0.11287730895E+03  0.64158325113E+01 -0.75449356347E+03  0.76291741827E+03  0.00000000000E+00 0.  1.
          1    1    3    3  501    0 -0.12985278214E+03  0.18488596829E+02 -0.15377860931E+03  0.20211737660E+03  0.00000000000E+00 0.  1.
         21    1    1    2  502  501  0.16975473183E+02 -0.24904429340E+02 -0.59761483620E+02  0.66931548727E+02  0.00000000000E+00 0.  1.
<mgrwt>
<rscale>  1 0.30000000E+03</rscale>
<asrwt>0</asrwt>
<pdfrwt beam="1">  1        1 0.11624149E+00 0.30000000E+03</pdfrwt>
<pdfrwt beam="2">0</pdfrwt>
<totfact> 0.27311488E+01</totfact>
</mgrwt>
</event>
<event>
 6    1  0.1904828E-004  0.3000000E+03  0.7818608E-02  0.1093470E+00
          1   -1    0    0  502    0  0.00000000000E+00  0.00000000000E+00  0.31160268714E+02  0.31160268714E+02  0.00000000000E+00 0.  1.
         13   -1    0    0    0    0 -0.00000000000E+00 -0.00000000000E+00 -0.10000000000E+04  0.10000000000E+04  0.00000000000E+00 0.  1.
    9000005    2    1    2  501    0 -0.89417565468E+01 -0.58195319920E+01 -0.96833552173E+03  0.10204796231E+04  0.32185580099E+03 0.  0.
         13    1    3    3    0    0  0.79121466289E+02  0.12077271961E+03 -0.66148269781E+03  0.67705658237E+03  0.00000000000E+00 0.  1.
          1    1    3    3  501    0 -0.88063222836E+02 -0.12659225160E+03 -0.30685282392E+03  0.34342304077E+03  0.00000000000E+00 0.  1.
         21    1    1    2  502  501  0.89417565468E+01  0.58195319920E+01 -0.50420955990E+00  0.10680645581E+02  0.00000000000E+00 0.  1.
<mgrwt>
<rscale>  1 0.30000000E+03</rscale>
<asrwt>0</asrwt>
<pdfrwt beam="1">  1        1 0.11331031E+00 0.30000000E+03</pdfrwt>
<pdfrwt beam="2">0</pdfrwt>
<totfact> 0.28402162E+01</totfact>
</mgrwt>
</event>
<event>
 6    1  0.1904828E-004  0.3000000E+03  0.7818608E-02  0.1093470E+00
          1   -1    0    0  502    0  0.00000000000E+00  0.00000000000E+00  0.30631527113E+02  0.30631527113E+02  0.00000000000E+00 0.  1.
         13   -1    0    0    0    0 -0.00000000000E+00 -0.00000000000E+00 -0.10000000000E+04  0.10000000000E+04  0.00000000000E+00 0.  1.
    9000005    2    1    2  501    0 -0.14380116430E+02 -0.77392078511E+01 -0.96894119806E+03  0.10142955040E+04  0.29946893177E+03 0.  0.
         13    1    3    3    0    0  0.11701312262E+03 -0.74831728646E+02 -0.62145813862E+03  0.63679044947E+03  0.00000000000E+00 0.  1.
          1    1    3    3  501    0 -0.13139323905E+03  0.67092520795E+02 -0.34748305944E+03  0.37750505455E+03  0.00000000000E+00 0.  1.
         21    1    1    2  502  501  0.14380116430E+02  0.77392078511E+01 -0.42727482816E+00  0.16336023092E+02  0.00000000000E+00 0. -1.
<mgrwt>
<rscale>  1 0.30000000E+03</rscale>
<asrwt>0</asrwt>
<pdfrwt beam="1">  1        1 0.11138761E+00 0.30000000E+03</pdfrwt>
<pdfrwt beam="2">0</pdfrwt>
<totfact> 0.29151403E+01</totfact>
</mgrwt>
</event>
<event>
 6    1  0.1904828E-004  0.3000000E+03  0.7818608E-02  0.1093470E+00
          1   -1    0    0  502    0  0.00000000000E+00  0.00000000000E+00  0.62282920923E+02  0.62282920923E+02  0.00000000000E+00 0.  1.
         13   -1    0    0    0    0 -0.00000000000E+00 -0.00000000000E+00 -0.10000000000E+04  0.10000000000E+04  0.00000000000E+00 0.  1.
    9000005    2    1    2  501    0 -0.67942068169E+02 -0.33122981942E+02 -0.93111701298E+03  0.98640922698E+03  0.31671914160E+03 0.  0.
         13    1    3    3    0    0 -0.16116365243E+03 -0.11533506674E+03 -0.50365951485E+03  0.54124745485E+03  0.00000000000E+00 0.  1.
          3    1    3    3  501    0  0.93221584260E+02  0.82212084798E+02 -0.42745749813E+03  0.44516177214E+03  0.00000000000E+00 0.  1.
         21    1    1    2  502  501  0.67942068169E+02  0.33122981942E+02 -0.66000660963E+01  0.75873693941E+02  0.00000000000E+00 0.  1.
<mgrwt>
<rscale>  1 0.30000000E+03</rscale>
<asrwt>0</asrwt>
<pdfrwt beam="1">  1        1 0.22648383E+00 0.30000000E+03</pdfrwt>
<pdfrwt beam="2">0</pdfrwt>
<totfact> 0.76863732E+00</totfact>
</mgrwt>
</event>
<event>
 6    1  0.1904828E-004  0.3000000E+03  0.7818608E-02  0.1093470E+00
          1   -1    0    0  502    0  0.00000000000E+00  0.00000000000E+00  0.70572215597E+02  0.70572215597E+02  0.00000000000E+00 0.  1.
         13   -1    0    0    0    0 -0.00000000000E+00 -0.00000000000E+00 -0.10000000000E+04  0.10000000000E+04  0.00000000000E+00 0.  1.
    9000005    2    1    2  501    0 -0.24032654803E+02  0.10865803186E+03 -0.87906142811E+03  0.94842105420E+03  0.33818540074E+03 0.  0.
         13    1    3    3    0    0 -0.17870213720E+03  0.27165087170E+02 -0.42315430557E+03  0.46014341473E+03  0.00000000000E+00 0.  1.
          3    1    3    3  501    0  0.15466948240E+03  0.81492944689E+02 -0.45590712255E+03  0.48827763947E+03  0.00000000000E+00 0.  1.
         21    1    1    2  502  501  0.24032654803E+02 -0.10865803186E+03 -0.50366356293E+02  0.12215116140E+03  0.00000000000E+00 0.  1.
<mgrwt>
<rscale>  1 0.30000000E+03</rscale>
<asrwt>0</asrwt>
<pdfrwt beam="1">  1        1 0.25662678E+00 0.30000000E+03</pdfrwt>
<pdfrwt beam="2">0</pdfrwt>
<totfact> 0.55566758E+00</totfact>
</mgrwt>
</event>
<event>
 6    1  0.1904828E-004  0.3000000E+03  0.7818608E-02  0.1093470E+00
          1   -1    0    0  502    0  0.00000000000E+00  0.00000000000E+00  0.44203454584E+02  0.44203454584E+02  0.00000000000E+00 0.  1.
         13   -1    0    0    0    0 -0.00000000000E+00 -0.00000000000E+00 -0.10000000000E+04  0.10000000000E+04  0.00000000000E+00 0.  1.
    9000005    2    1    2  501    0  0.61333998079E+02  0.24535375138E+02 -0.91091437442E+03  0.96433948757E+03  0.30955097450E+03 0.  0.
         13    1    3    3    0    0  0.43443412472E+02  0.23282178027E+02 -0.93389175297E+03  0.93519152913E+03  0.00000000000E+00 0.  1.
          3    1    3    3  501    0  0.17890585607E+02  0.12531971119E+01  0.22977378547E+02  0.29147958441E+02  0.00000000000E+00 0.  1.
         21    1    1    2  502  501 -0.61333998079E+02 -0.24535375138E+02 -0.44882170997E+02  0.79863967012E+02  0.00000000000E+00 0. -1.
<mgrwt>
<rscale>  1 0.30000000E+03</rscale>
<asrwt>0</asrwt>
<pdfrwt beam="1">  1        1 0.16074017E+00 0.30000000E+03</pdfrwt>
<pdfrwt beam="2">0</pdfrwt>
<totfact> 0.15868219E+01</totfact>
</mgrwt>
</event>
<event>
 6    1  0.1904828E-004  0.3000000E+03  0.7818608E-02  0.1093470E+00
          1   -1    0    0  502    0  0.00000000000E+00  0.00000000000E+00  0.40525823351E+02  0.40525823351E+02  0.00000000000E+00 0.  1.
         13   -1    0    0    0    0 -0.00000000000E+00 -0.00000000000E+00 -0.10000000000E+04  0.10000000000E+04  0.00000000000E+00 0.  1.
    9000005    2    1    2  501    0  0.27927281136E+02  0.26621790615E+02 -0.94625502820E+03  0.99974103877E+03  0.32030440748E+03 0.  0.
         13    1    3    3    0    0 -0.18477686411E+02 -0.12279424512E+03 -0.18659863269E+03  0.22414036060E+03  0.00000000000E+00 0.  1.
          1    1    3    3  501    0  0.46404967547E+02  0.14941603573E+03 -0.75965639550E+03  0.77560067817E+03  0.00000000000E+00 0.  1.
         21    1    1    2  502  501 -0.27927281136E+02 -0.26621790615E+02 -0.13219148451E+02  0.40784784577E+02  0.00000000000E+00 0.  1.
<mgrwt>
<rscale>  1 0.30000000E+03</rscale>
<asrwt>0</asrwt>
<pdfrwt beam="1">  1        1 0.14736694E+00 0.30000000E+03</pdfrwt>
<pdfrwt beam="2">0</pdfrwt>
<totfact> 0.18529568E+01</totfact>
</mgrwt>
</event>
<event>
 6    1  0.1904828E-004  0.3000000E+03  0.7818608E-02  0.1093470E+00
          1   -1    0    0  502    0  0.00000000000E+00  0.00000000000E+00  0.32576821030E+02  0.32576821030E+02  0.00000000000E+00 0.  1.
         13   -1    0    0    0    0 -0.00000000000E+00 -0.00000000000E+00 -0.10000000000E+04  0.10000000000E+04  0.00000000000E+00 0.  1.
    9000005    2    1    2  501    0 -0.15106049249E+02 -0.20310327243E+02 -0.94861185758E+03  0.10010400500E+04  0.31870993580E+03 0.  0.
         13    1    3    3    0    0  0.68833539169E+02 -0.70202014955E+02 -0.79440710025E+02  0.12640097083E+03  0.00000000000E+00 0.  1.
          1    1    3    3  501    0 -0.83939588417E+02  0.49891687713E+02 -0.86917114755E+03  0.87463907913E+03  0.00000000000E+00 0.  1.
         21    1    1    2  502  501  0.15106049249E+02  0.20310327243E+02 -0.18811321391E+02  0.31536771063E+02  0.00000000000E+00 0.  1.
<mgrwt>
<rscale>  1 0.30000000E+03</rscale>
<asrwt>0</asrwt>
<pdfrwt beam="1">  1        1 0.11846142E+00 0.30000000E+03</pdfrwt>
<pdfrwt beam="2">0</pdfrwt>
<totfact> 0.26523855E+01</totfact>
</mgrwt>
</event>
<event>
 6    1  0.1904828E-004  0.3000000E+03  0.7818608E-02  0.1093470E+00
          1   -1    0    0  502    0  0.00000000000E+00  0.00000000000E+00  0.33004569833E+02  0.33004569833E+02  0.00000000000E+00 0.  1.
         13   -1    0    0    0    0 -0.00000000000E+00 -0.00000000000E+00 -0.10000000000E+04  0.10000000000E+04  0.00000000000E+00 0.  1.
    9000005    2    1    2  501    0  0.11583767859E+02 -0.10230510612E+02 -0.95899459623E+03  0.10156016859E+04  0.33397200751E+03 0.  0.
         13    1    3    3    0    0  0.14618802981E+03 -0.83556093671E+02 -0.63864581577E+03  0.66047031641E+03  0.00000000000E+00 0.  1.
          1    1    3    3  501    0 -0.13460426195E+03  0.73325583059E+02 -0.32034878045E+03  0.35513136950E+03  0.00000000000E+00 0.  1.
         21    1    1    2  502  501 -0.11583767859E+02  0.10230510612E+02 -0.80008339411E+01  0.17402883926E+02  0.00000000000E+00 0.  1.
<mgrwt>
<rscale>  1 0.30000000E+03</rscale>
<asrwt>0</asrwt>
<pdfrwt beam="1">  1        1 0.12001687E+00 0.30000000E+03</pdfrwt>
<pdfrwt beam="2">0</pdfrwt>
<totfact> 0.25990312E+01</totfact>
</mgrwt>
</event>
<event>
 6    1  0.1904828E-004  0.3000000E+03  0.7818608E-02  0.1093470E+00
          1   -1    0    0  502    0  0.00000000000E+00  0.00000000000E+00  0.34365780838E+02  0.34365780838E+02  0.00000000000E+00 0.  1.
         13   -1    0    0    0    0 -0.00000000000E+00 -0.00000000000E+00 -0.10000000000E+04  0.10000000000E+04  0.00000000000E+00 0.  1.
    9000005    2    1    2  501    0 -0.96241472798E+01  0.16365768106E+02 -0.96159186981E+03  0.10149543624E+04  0.32421130630E+03 0.  0.
         13    1    3    3    0    0 -0.20375701123E+01 -0.14850706224E+03 -0.32523108256E+03  0.35753846826E+03  0.00000000000E+00 0.  1.
          3    1    3    3  501    0 -0.75865771676E+01  0.16487283034E+03 -0.63636078726E+03  0.65741589416E+03  0.00000000000E+00 0.  1.
         21    1    1    2  502  501  0.96241472798E+01 -0.16365768106E+02 -0.40423493475E+01  0.19411418413E+02  0.00000000000E+00 0. -1.
<mgrwt>
<rscale>  1 0.30000000E+03</rscale>
<asrwt>0</asrwt>
<pdfrwt beam="1">  1        1 0.12496674E+00 0.30000000E+03</pdfrwt>
<pdfrwt beam="2">0</pdfrwt>
<totfact> 0.24384294E+01</totfact>
</mgrwt>
</event>
<event>
 6    1  0.1904828E-004  0.3000000E+03  0.7818608E-02  0.1093470E+00
          1   -1    0    0  502    0  0.00000000000E+00  0.00000000000E+00  0.30318546611E+02  0.30318546611E+02  0.00000000000E+00 0.  1.
         13   -1    0    0    0    0 -0.00000000000E+00 -0.00000000000E+00 -0.10000000000E+04  0.10000000000E+04  0.00000000000E+00 0.  1.
    9000005    2    1    2  501    0  0.91847134719E+01  0.20877373180E+01 -0.96172429393E+03  0.10179883400E+04  0.33361343680E+03 0.  0.
         13    1    3    3    0    0  0.16870784115E+03  0.30302071008E+02 -0.51735811201E+03  0.54501373124E+03  0.00000000000E+00 0.  1.
          3    1    3    3  501    0 -0.15952312768E+03 -0.28214333690E+02 -0.44436618192E+03  0.47297460875E+03  0.00000000000E+00 0.  1.
         21    1    1    2  502  501 -0.91847134719E+01 -0.20877373180E+01 -0.79571594624E+01  0.12330206624E+02  0.00000000000E+00 0.  1.
<mgrwt>
<rscale>  1 0.30000000E+03</rscale>
<asrwt>0</asrwt>
<pdfrwt beam="1">  1        1 0.11024949E+00 0.30000000E+03</pdfrwt>
<pdfrwt beam="2">0</pdfrwt>
<totfact> 0.29608159E+01</totfact>
</mgrwt>
</event>
<event>
 6    1  0.1904828E-004  0.3000000E+03  0.7818608E-02  0.1093470E+00
          1   -1    0    0  502    0  0.00000000000E+00  0.00000000000E+00  0.47486054668E+02  0.47486054668E+02  0.00000000000E+00 0.  1.
         13   -1    0    0    0    0 -0.00000000000E+00 -0.00000000000E+00 -0.10000000000E+04  0.10000000000E+04  0.00000000000E+00 0.  1.
    9000005    2    1    2  501    0 -0.10614383938E+01 -0.11677475100E+02 -0.97091943500E+03  0.10256628531E+04  0.33039710791E+03 0.  0.
         13    1    3    3    0    0 -0.10337413699E+03  0.10361998095E+03 -0.26136883386E+03  0.29956131253E+03  0.00000000000E+00 0.  1.
          3    1    3    3  501    0  0.10231269859E+03 -0.11529745605E+03 -0.70955060114E+03  0.72610154059E+03  0.00000000000E+00 0.  1.
         21    1    1    2  502  501  0.10614383938E+01  0.11677475100E+02  0.18405489669E+02  0.21823201555E+02  0.00000000000E+00 0.  1.
<mgrwt>
<rscale>  1 0.30000000E+03</rscale>
<asrwt>0</asrwt>
<pdfrwt beam="1">  1        1 0.17267693E+00 0.30000000E+03</pdfrwt>
<pdfrwt beam="2">0</pdfrwt>
<totfact> 0.13863962E+01</totfact>
</mgrwt>
</event>
<event>
 6    1  0.1904828E-004  0.3000000E+03  0.7818608E-02  0.1093470E+00
          1   -1    0    0  502    0  0.00000000000E+00  0.00000000000E+00  0.57198927652E+02  0.57198927652E+02  0.00000000000E+00 0.  1.
         13   -1    0    0    0    0 -0.00000000000E+00 -0.00000000000E+00 -0.10000000000E+04  0.10000000000E+04  0.00000000000E+00 0.  1.
    9000005    2    1    2  501    0  0.28012935227E+02  0.39674884254E+02 -0.95192662080E+03  0.10077813537E+04  0.32726158423E+03 0.  0.
         13    1    3    3    0    0 -0.14895668890E+03 -0.20604598276E+01 -0.43747266424E+03  0.46214139895E+03  0.00000000000E+00 0.  1.
          1    1    3    3  501    0  0.17696962413E+03  0.41735344081E+02 -0.51445395656E+03  0.54563995476E+03  0.00000000000E+00 0.  1.
         21    1    1    2  502  501 -0.28012935227E+02 -0.39674884254E+02  0.91255484481E+01  0.49417573950E+02  0.00000000000E+00 0. -1.
<mgrwt>
<rscale>  1 0.30000000E+03</rscale>
<asrwt>0</asrwt>
<pdfrwt beam="1">  1        1 0.20799654E+00 0.30000000E+03</pdfrwt>
<pdfrwt beam="2">0</pdfrwt>
<totfact> 0.93873824E+00</totfact>
</mgrwt>
</event>
<event>
 6    1  0.1904828E-004  0.3000000E+03  0.7818608E-02  0.1093470E+00
          1   -1    0    0  502    0  0.00000000000E+00  0.00000000000E+00  0.29014786517E+02  0.29014786517E+02  0.00000000000E+00 0.  1.
         13   -1    0    0    0    0 -0.00000000000E+00 -0.00000000000E+00 -0.10000000000E+04  0.10000000000E+04  0.00000000000E+00 0.  1.
    9000005    2    1    2  501    0 -0.88077544416E+01 -0.87399085516E+01 -0.95473606100E+03  0.10085697995E+04  0.32486632889E+03 0.  0.
         13    1    3    3    0    0  0.15292257576E+03  0.35243421368E+02 -0.43195410766E+03  0.45957781066E+03  0.00000000000E+00 0.  1.
          1    1    3    3  501    0 -0.16173033020E+03 -0.43983329920E+02 -0.52278195335E+03  0.54899198880E+03  0.00000000000E+00 0.  1.
         21    1    1    2  502  501  0.88077544416E+01  0.87399085516E+01 -0.16249152478E+02  0.20444987064E+02  0.00000000000E+00 0.  1.
<mgrwt>
<rscale>  1 0.30000000E+03</rscale>
<asrwt>0</asrwt>
<pdfrwt beam="1">  1        1 0.10550854E+00 0.30000000E+03</pdfrwt>
<pdfrwt beam="2">0</pdfrwt>
<totfact> 0.31624790E+01</totfact>
</mgrwt>
</event>
<event>
 6    1  0.1904828E-004  0.3000000E+03  0.7818608E-02  0.1093470E+00
          1   -1    0    0  502    0  0.00000000000E+00  0.00000000000E+00  0.32965732552E+02  0.32965732552E+02  0.00000000000E+00 0.  1.
         13   -1    0    0    0    0 -0.00000000000E+00 -0.00000000000E+00 -0.10000000000E+04  0.10000000000E+04  0.00000000000E+00 0.  1.
    9000005    2    1    2  501    0  0.14174464543E+02 -0.13282623354E+01 -0.96048108928E+03  0.10172933406E+04  0.33490168438E+03 0.  0.
         13    1    3    3    0    0 -0.13427942489E+03 -0.18683681448E+02 -0.19588056799E+03  0.23822099155E+03  0.00000000000E+00 0.  1.
          1    1    3    3  501    0  0.14845388943E+03  0.17355419113E+02 -0.76460052130E+03  0.77907234903E+03  0.00000000000E+00 0.  1.
         21    1    1    2  502  501 -0.14174464543E+02  0.13282623354E+01 -0.65531781662E+01  0.15672391967E+02  0.00000000000E+00 0.  1.
<mgrwt>
<rscale>  1 0.30000000E+03</rscale>
<asrwt>0</asrwt>
<pdfrwt beam="1">  1        1 0.11987564E+00 0.30000000E+03</pdfrwt>
<pdfrwt beam="2">0</pdfrwt>
<totfact> 0.26038155E+01</totfact>
</mgrwt>
</event>
<event>
 6    1  0.1904828E-004  0.3000000E+03  0.7818608E-02  0.1093470E+00
          1   -1    0    0  502    0  0.00000000000E+00  0.00000000000E+00  0.42419182089E+02  0.42419182089E+02  0.00000000000E+00 0.  1.
         13   -1    0    0    0    0 -0.00000000000E+00 -0.00000000000E+00 -0.10000000000E+04  0.10000000000E+04  0.00000000000E+00 0.  1.
    9000005    2    1    2  501    0  0.23610662383E+01  0.19419399689E+02 -0.96764001598E+03  0.10204220190E+04  0.32334379321E+03 0.  0.
         13    1    3    3    0    0 -0.69211493921E+02  0.14907804997E+03 -0.64165850011E+03  0.66237461201E+03  0.00000000000E+00 0.  1.
          1    1    3    3  501    0  0.71572560159E+02 -0.12965865028E+03 -0.32598151587E+03  0.35804740699E+03  0.00000000000E+00 0.  1.
         21    1    1    2  502  501 -0.23610662383E+01 -0.19419399689E+02  0.10059198073E+02  0.21997163089E+02  0.00000000000E+00 0. -1.
<mgrwt>
<rscale>  1 0.30000000E+03</rscale>
<asrwt>0</asrwt>
<pdfrwt beam="1">  1        1 0.15425190E+00 0.30000000E+03</pdfrwt>
<pdfrwt beam="2">0</pdfrwt>
<totfact> 0.17097291E+01</totfact>
</mgrwt>
</event>
<event>
 6    1  0.1904828E-004  0.3000000E+03  0.7818608E-02  0.1093470E+00
          1   -1    0    0  502    0  0.00000000000E+00  0.00000000000E+00  0.14372692106E+03  0.14372692106E+03  0.00000000000E+00 0.  1.
         13   -1    0    0    0    0 -0.00000000000E+00 -0.00000000000E+00 -0.10000000000E+04  0.10000000000E+04  0.00000000000E+00 0.  1.
    9000005    2    1    2  501    0 -0.13756860727E+03 -0.17222447336E+03 -0.82951725424E+03  0.92168578729E+03  0.33588602901E+03 0.  0.
         13    1    3    3    0    0 -0.85234440489E+02 -0.41633421999E+02 -0.75791072045E+03  0.76382387488E+03  0.00000000000E+00 0.  1.
          1    1    3    3  501    0 -0.52334166777E+02 -0.13059105136E+03 -0.71606533793E+02  0.15786191241E+03  0.00000000000E+00 0.  1.
         21    1    1    2  502  501  0.13756860727E+03  0.17222447336E+03 -0.26755824702E+02  0.22204113377E+03  0.00000000000E+00 0.  1.
<mgrwt>
<rscale>  1 0.30000000E+03</rscale>
<asrwt>0</asrwt>
<pdfrwt beam="1">  1        1 0.52264445E+00 0.30000000E+03</pdfrwt>
<pdfrwt beam="2">0</pdfrwt>
<totfact> 0.15527864E-01</totfact>
</mgrwt>
</event>
<event>
 6    1  0.1904828E-004  0.3000000E+03  0.7818608E-02  0.1093470E+00
          1   -1    0    0  502    0  0.00000000000E+00  0.00000000000E+00  0.38638757532E+02  0.38638757532E+02  0.00000000000E+00 0.  1.
         13   -1    0    0    0    0 -0.00000000000E+00 -0.00000000000E+00 -0.10000000000E+04  0.10000000000E+04  0.00000000000E+00 0.  1.
    9000005    2    1    2  501    0  0.28693247309E+01 -0.21064331242E+02 -0.96397417031E+03  0.10172199231E+04  0.32409602267E+03 0.  0.
         13    1    3    3    0    0 -0.34554205520E+02 -0.14707426166E+03 -0.25690064797E+03  0.29803149916E+03  0.00000000000E+00 0.  1.
          3    1    3    3  501    0  0.37423530251E+02  0.12600993042E+03 -0.70707352234E+03  0.71918842398E+03  0.00000000000E+00 0.  1.
         21    1    1    2  502  501 -0.28693247309E+01  0.21064331242E+02  0.26129278449E+01  0.21418834399E+02  0.00000000000E+00 0.  1.
<mgrwt>
<rscale>  1 0.30000000E+03</rscale>
<asrwt>0</asrwt>
<pdfrwt beam="1">  1        1 0.14050487E+00 0.30000000E+03</pdfrwt>
<pdfrwt beam="2">0</pdfrwt>
<totfact> 0.20109378E+01</totfact>
</mgrwt>
</event>
<event>
 6    1  0.1904828E-004  0.3000000E+03  0.7818608E-02  0.1093470E+00
          1   -1    0    0  502    0  0.00000000000E+00  0.00000000000E+00  0.27575490315E+02  0.27575490315E+02  0.00000000000E+00 0.  1.
         13   -1    0    0    0    0 -0.00000000000E+00 -0.00000000000E+00 -0.10000000000E+04  0.10000000000E+04  0.00000000000E+00 0.  1.
    9000005    2    1    2  501    0  0.24108710992E+01  0.88757023585E+01 -0.93167987641E+03  0.98580569821E+03  0.32202622894E+03 0.  0.
         13    1    3    3    0    0  0.12768188791E+03  0.98301037648E+02 -0.57897018685E+03  0.60097606922E+03  0.00000000000E+00 0.  1.
          1    1    3    3  501    0 -0.12527101681E+03 -0.89425335289E+02 -0.35270968955E+03  0.38482962899E+03  0.00000000000E+00 0.  1.
         21    1    1    2  502  501 -0.24108710992E+01 -0.88757023585E+01 -0.40744633276E+02  0.41769792107E+02  0.00000000000E+00 0. -1.
<mgrwt>
<rscale>  1 0.30000000E+03</rscale>
<asrwt>0</asrwt>
<pdfrwt beam="1">  1        1 0.10027472E+00 0.30000000E+03</pdfrwt>
<pdfrwt beam="2">0</pdfrwt>
<totfact> 0.34089874E+01</totfact>
</mgrwt>
</event>
<event>
 6    1  0.1904828E-004  0.3000000E+03  0.7818608E-02  0.1093470E+00
          1   -1    0    0  502    0  0.00000000000E+00  0.00000000000E+00  0.33067620833E+02  0.33067620833E+02  0.00000000000E+00 0.  1.
         13   -1    0    0    0    0 -0.00000000000E+00 -0.00000000000E+00 -0.10000000000E+04  0.10000000000E+04  0.00000000000E+00 0.  1.
    9000005    2    1    2  501    0  0.25133828517E+02  0.32652164903E+02 -0.77392912723E+03  0.83571481881E+03  0.31265810591E+03 0.  0.
         13    1    3    3    0    0  0.88293297039E+02  0.15430549630E+03 -0.41329174953E+03  0.44990661555E+03  0.00000000000E+00 0.  1.
          1    1    3    3  501    0 -0.63159468522E+02 -0.12165333140E+03 -0.36063737770E+03  0.38580820325E+03  0.00000000000E+00 0.  1.
         21    1    1    2  502  501 -0.25133828517E+02 -0.32652164903E+02 -0.19300325194E+03  0.19735280203E+03  0.00000000000E+00 0.  1.
<mgrwt>
<rscale>  1 0.30000000E+03</rscale>
<asrwt>0</asrwt>
<pdfrwt beam="1">  1        1 0.12024615E+00 0.30000000E+03</pdfrwt>
<pdfrwt beam="2">0</pdfrwt>
<totfact> 0.25912891E+01</totfact>
</mgrwt>
</event>
<event>
 6    1  0.1904828E-004  0.3000000E+03  0.7818608E-02  0.1093470E+00
          1   -1    0    0  502    0  0.00000000000E+00  0.00000000000E+00  0.35970704286E+02  0.35970704286E+02  0.00000000000E+00 0.  1.
         13   -1    0    0    0    0 -0.00000000000E+00 -0.00000000000E+00 -0.10000000000E+04  0.10000000000E+04  0.00000000000E+00 0.  1.
    9000005    2    1    2  501    0 -0.42181069600E+01 -0.40204174717E+02 -0.91471503145E+03  0.97220500229E+03  0.32687124319E+03 0.  0.
         13    1    3    3    0    0 -0.27358522857E+02 -0.31360131865E+02  0.13429572785E+02  0.43729853289E+02  0.00000000000E+00 0.  1.
          3    1    3    3  501    0  0.23140415897E+02 -0.88440428524E+01 -0.92814460424E+03  0.92847514900E+03  0.00000000000E+00 0.  1.
         21    1    1    2  502  501  0.42181069600E+01  0.40204174717E+02 -0.49314264261E+02  0.63765701992E+02  0.00000000000E+00 0. -1.
<mgrwt>
<rscale>  1 0.30000000E+03</rscale>
<asrwt>0</asrwt>
<pdfrwt beam="1">  1        1 0.13080284E+00 0.30000000E+03</pdfrwt>
<pdfrwt beam="2">0</pdfrwt>
<totfact> 0.22650987E+01</totfact>
</mgrwt>
</event>
<event>
 6    1  0.1904828E-004  0.3000000E+03  0.7818608E-02  0.1093470E+00
          1   -1    0    0  502    0  0.00000000000E+00  0.00000000000E+00  0.38256741401E+02  0.38256741401E+02  0.00000000000E+00 0.  1.
         13   -1    0    0    0    0 -0.00000000000E+00 -0.00000000000E+00 -0.10000000000E+04  0.10000000000E+04  0.00000000000E+00 0.  1.
    9000005    2    1    2  501    0 -0.45014163528E+01 -0.21990820338E+02 -0.97163024336E+03  0.10137289735E+04  0.28823123194E+03 0.  0.
         13    1    3    3    0    0 -0.17548345765E+02  0.11747580135E+03 -0.67887877436E+03  0.68919148182E+03  0.00000000000E+00 0.  1.
          1    1    3    3  501    0  0.13046929413E+02 -0.13946662168E+03 -0.29275146900E+03  0.32453749172E+03  0.00000000000E+00 0.  1.
         21    1    1    2  502  501  0.45014163528E+01  0.21990820338E+02  0.98869847619E+01  0.24527767856E+02  0.00000000000E+00 0.  1.
<mgrwt>
<rscale>  1 0.30000000E+03</rscale>
<asrwt>0</asrwt>
<pdfrwt beam="1">  1        1 0.13911572E+00 0.30000000E+03</pdfrwt>
<pdfrwt beam="2">0</pdfrwt>
<totfact> 0.20449727E+01</totfact>
</mgrwt>
</event>
<event>
 6    1  0.1904828E-004  0.3000000E+03  0.7818608E-02  0.1093470E+00
          1   -1    0    0  502    0  0.00000000000E+00  0.00000000000E+00  0.35908497428E+02  0.35908497428E+02  0.00000000000E+00 0.  1.
         13   -1    0    0    0    0 -0.00000000000E+00 -0.00000000000E+00 -0.10000000000E+04  0.10000000000E+04  0.00000000000E+00 0.  1.
    9000005    2    1    2  501    0 -0.22164945627E+02 -0.10187781062E+02 -0.95914913235E+03  0.10110186858E+04  0.31874229296E+03 0.  0.
         13    1    3    3    0    0 -0.42597907919E+02 -0.79418326540E+02 -0.58415748257E+02  0.10739763495E+03  0.00000000000E+00 0.  1.
          3    1    3    3  501    0  0.20432962293E+02  0.69230545478E+02 -0.90073338409E+03  0.90362105088E+03  0.00000000000E+00 0.  1.
         21    1    1    2  502  501  0.22164945627E+02  0.10187781062E+02 -0.49423702218E+01  0.24889811591E+02  0.00000000000E+00 0.  1.
<mgrwt>
<rscale>  1 0.30000000E+03</rscale>
<asrwt>0</asrwt>
<pdfrwt beam="1">  1        1 0.13057663E+00 0.30000000E+03</pdfrwt>
<pdfrwt beam="2">0</pdfrwt>
<totfact> 0.22715148E+01</totfact>
</mgrwt>
</event>
<event>
 6    1  0.1904828E-004  0.3000000E+03  0.7818608E-02  0.1093470E+00
          1   -1    0    0  502    0  0.00000000000E+00  0.00000000000E+00  0.51392658220E+02  0.51392658220E+02  0.00000000000E+00 0.  1.
         13   -1    0    0    0    0 -0.00000000000E+00 -0.00000000000E+00 -0.10000000000E+04  0.10000000000E+04  0.00000000000E+00 0.  1.
    9000005    2    1    2  501    0 -0.13744204785E+02  0.50533662656E+01 -0.97160354547E+03  0.10241297703E+04  0.32344071647E+03 0.  0.
         13    1    3    3    0    0 -0.13903042088E+03 -0.51985569117E+02 -0.26046398382E+03  0.29978899945E+03  0.00000000000E+00 0.  1.
          3    1    3    3  501    0  0.12528621610E+03  0.57038935383E+02 -0.71113956166E+03  0.72434077080E+03  0.00000000000E+00 0.  1.
         21    1    1    2  502  501  0.13744204785E+02 -0.50533662656E+01  0.22996203694E+02  0.27262887964E+02  0.00000000000E+00 0. -1.
<mgrwt>
<rscale>  1 0.30000000E+03</rscale>
<asrwt>0</asrwt>
<pdfrwt beam="1">  1        1 0.18688279E+00 0.30000000E+03</pdfrwt>
<pdfrwt beam="2">0</pdfrwt>
<totfact> 0.11835086E+01</totfact>
</mgrwt>
</event>
<event>
 6    1  0.1904828E-004  0.3000000E+03  0.7818608E-02  0.1093470E+00
          1   -1    0    0  502    0  0.00000000000E+00  0.00000000000E+00  0.42395803933E+02  0.42395803933E+02  0.00000000000E+00 0.  1.
         13   -1    0    0    0    0 -0.00000000000E+00 -0.00000000000E+00 -0.10000000000E+04  0.10000000000E+04  0.00000000000E+00 0.  1.
    9000005    2    1    2  501    0 -0.62881895518E+01 -0.48894757405E+02 -0.93541691373E+03  0.98833552159E+03  0.31523334550E+03 0.  0.
         13    1    3    3    0    0  0.12284660782E+03  0.44264602613E+02 -0.22368191619E+03  0.25900626194E+03  0.00000000000E+00 0.  1.
          3    1    3    3  501    0 -0.12913479737E+03 -0.93159360018E+02 -0.71173499754E+03  0.72932925964E+03  0.00000000000E+00 0.  1.
         21    1    1    2  502  501  0.62881895518E+01  0.48894757405E+02 -0.22187282338E+02  0.54060282343E+02  0.00000000000E+00 0. -1.
<mgrwt>
<rscale>  1 0.30000000E+03</rscale>
<asrwt>0</asrwt>
<pdfrwt beam="1">  1        1 0.15416688E+00 0.30000000E+03</pdfrwt>
<pdfrwt beam="2">0</pdfrwt>
<totfact> 0.17114133E+01</totfact>
</mgrwt>
</event>
<event>
 6    1  0.1904828E-004  0.3000000E+03  0.7818608E-02  0.1093470E+00
          1   -1    0    0  502    0  0.00000000000E+00  0.00000000000E+00  0.38492610877E+02  0.38492610877E+02  0.00000000000E+00 0.  1.
         13   -1    0    0    0    0 -0.00000000000E+00 -0.00000000000E+00 -0.10000000000E+04  0.10000000000E+04  0.00000000000E+00 0.  1.
    9000005    2    1    2  501    0  0.12005383044E+02  0.10585710343E+02 -0.96732332145E+03  0.10214628853E+04  0.32774354495E+03 0.  0.
         13    1    3    3    0    0  0.11842806913E+03 -0.80850245046E+02 -0.74421258616E+03  0.75790127528E+03  0.00000000000E+00 0.  1.
          3    1    3    3  501    0 -0.10642268609E+03  0.91435955389E+02 -0.22311073530E+03  0.26356160998E+03  0.00000000000E+00 0.  1.
         21    1    1    2  502  501 -0.12005383044E+02 -0.10585710343E+02  0.58159323318E+01  0.17029725611E+02  0.00000000000E+00 0.  1.
<mgrwt>
<rscale>  1 0.30000000E+03</rscale>
<asrwt>0</asrwt>
<pdfrwt beam="1">  1        1 0.13997343E+00 0.30000000E+03</pdfrwt>
<pdfrwt beam="2">0</pdfrwt>
<totfact> 0.20238725E+01</totfact>
</mgrwt>
</event>
<event>
 6    1  0.1904828E-004  0.3000000E+03  0.7818608E-02  0.1093470E+00
          1   -1    0    0  502    0  0.00000000000E+00  0.00000000000E+00  0.47740292723E+02  0.47740292723E+02  0.00000000000E+00 0.  1.
         13   -1    0    0    0    0 -0.00000000000E+00 -0.00000000000E+00 -0.10000000000E+04  0.10000000000E+04  0.00000000000E+00 0.  1.
    9000005    2    1    2  501    0 -0.44941414301E+01 -0.16000060410E+02 -0.96994764525E+03  0.10234696852E+04  0.32621398305E+03 0.  0.
         13    1    3    3    0    0  0.11251765192E+03  0.85858110170E+02 -0.25269639021E+03  0.28963304836E+03  0.00000000000E+00 0.  1.
          1    1    3    3  501    0 -0.11701179335E+03 -0.10185817058E+03 -0.71725125504E+03  0.73383663683E+03  0.00000000000E+00 0.  1.
         21    1    1    2  502  501  0.44941414301E+01  0.16000060410E+02  0.17687937973E+02  0.24270607534E+02  0.00000000000E+00 0.  1.
<mgrwt>
<rscale>  1 0.30000000E+03</rscale>
<asrwt>0</asrwt>
<pdfrwt beam="1">  1        1 0.17360143E+00 0.30000000E+03</pdfrwt>
<pdfrwt beam="2">0</pdfrwt>
<totfact> 0.13721046E+01</totfact>
</mgrwt>
</event>
<event>
 6    1  0.1904828E-004  0.3000000E+03  0.7818608E-02  0.1093470E+00
          1   -1    0    0  502    0  0.00000000000E+00  0.00000000000E+00  0.33942146341E+02  0.33942146341E+02  0.00000000000E+00 0.  1.
         13   -1    0    0    0    0 -0.00000000000E+00 -0.00000000000E+00 -0.10000000000E+04  0.10000000000E+04  0.00000000000E+00 0.  1.
    9000005    2    1    2  501    0 -0.87567212672E+01  0.85177064361E+01 -0.96128884392E+03  0.10208282246E+04  0.34331442025E+03 0.  0.
         13    1    3    3    0    0  0.15257925277E+03 -0.10304392838E+02 -0.26607823516E+03  0.30689450323E+03  0.00000000000E+00 0.  1.
          1    1    3    3  501    0 -0.16133597404E+03  0.18822099274E+02 -0.69521060876E+03  0.71393372134E+03  0.00000000000E+00 0.  1.
         21    1    1    2  502  501  0.87567212672E+01 -0.85177064361E+01 -0.47690097433E+01  0.13113921771E+02  0.00000000000E+00 0.  1.
<mgrwt>
<rscale>  1 0.30000000E+03</rscale>
<asrwt>0</asrwt>
<pdfrwt beam="1">  1        1 0.12342625E+00 0.30000000E+03</pdfrwt>
<pdfrwt beam="2">0</pdfrwt>
<totfact> 0.24869887E+01</totfact>
</mgrwt>
</event>
<event>
 6    1  0.1904828E-004  0.3000000E+03  0.7818608E-02  0.1093470E+00
          1   -1    0    0  502    0  0.00000000000E+00  0.00000000000E+00  0.64013592108E+02  0.64013592108E+02  0.00000000000E+00 0.  1.
         13   -1    0    0    0    0 -0.00000000000E+00 -0.00000000000E+00 -0.10000000000E+04  0.10000000000E+04  0.00000000000E+00 0.  1.
    9000005    2    1    2  501    0  0.12111710635E+03 -0.16393104554E+02 -0.82036163983E+03  0.89576623160E+03  0.33832799802E+03 0.  0.
         13    1    3    3    0    0 -0.11868032867E+03 -0.15629241255E+02 -0.28822171209E+03  0.31209141115E+03  0.00000000000E+00 0.  1.
          3    1    3    3  501    0  0.23979743502E+03 -0.76386329941E+00 -0.53213992774E+03  0.58367482045E+03  0.00000000000E+00 0.  1.
         21    1    1    2  502  501 -0.12111710635E+03  0.16393104554E+02 -0.11562476806E+03  0.16824736050E+03  0.00000000000E+00 0.  1.
<mgrwt>
<rscale>  1 0.30000000E+03</rscale>
<asrwt>0</asrwt>
<pdfrwt beam="1">  1        1 0.23277719E+00 0.30000000E+03</pdfrwt>
<pdfrwt beam="2">0</pdfrwt>
<totfact> 0.71822069E+00</totfact>
</mgrwt>
</event>
<event>
 6    1  0.1904828E-004  0.3000000E+03  0.7818608E-02  0.1093470E+00
          1   -1    0    0  502    0  0.00000000000E+00  0.00000000000E+00  0.34031993117E+02  0.34031993117E+02  0.00000000000E+00 0.  1.
         13   -1    0    0    0    0 -0.00000000000E+00 -0.00000000000E+00 -0.10000000000E+04  0.10000000000E+04  0.00000000000E+00 0.  1.
    9000005    2    1    2  501    0  0.12009138673E+02  0.41704919943E+01 -0.97505144640E+03  0.10184076119E+04  0.29371266301E+03 0.  0.
         13    1    3    3    0    0  0.93612490518E+02  0.10212972454E+03 -0.72064999784E+03  0.73384616808E+03  0.00000000000E+00 0.  1.
          3    1    3    3  501    0 -0.81603351845E+02 -0.97959232548E+02 -0.25440144856E+03  0.28456144381E+03  0.00000000000E+00 0.  1.
         21    1    1    2  502  501 -0.12009138673E+02 -0.41704919943E+01  0.90834395209E+01  0.15624381226E+02  0.00000000000E+00 0.  1.
<mgrwt>
<rscale>  1 0.30000000E+03</rscale>
<asrwt>0</asrwt>
<pdfrwt beam="1">  1        1 0.12375296E+00 0.30000000E+03</pdfrwt>
<pdfrwt beam="2">0</pdfrwt>
<totfact> 0.24765868E+01</totfact>
</mgrwt>
</event>
<event>
 6    1  0.1904828E-004  0.3000000E+03  0.7818608E-02  0.1093470E+00
          1   -1    0    0  502    0  0.00000000000E+00  0.00000000000E+00  0.31043567581E+02  0.31043567581E+02  0.00000000000E+00 0.  1.
         13   -1    0    0    0    0 -0.00000000000E+00 -0.00000000000E+00 -0.10000000000E+04  0.10000000000E+04  0.00000000000E+00 0.  1.
    9000005    2    1    2  501    0 -0.56222955806E+01 -0.83240896768E+01 -0.96325117193E+03  0.10194914823E+04  0.33378010970E+03 0.  0.
         13    1    3    3    0    0  0.23711005693E+02  0.12923030727E+03 -0.76626554949E+03  0.77744811817E+03  0.00000000000E+00 0.  1.
          3    1    3    3  501    0 -0.29333301273E+02 -0.13755439695E+03 -0.19698562244E+03  0.24204336415E+03  0.00000000000E+00 0.  1.
         21    1    1    2  502  501  0.56222955806E+01  0.83240896768E+01 -0.57052604906E+01  0.11552085258E+02  0.00000000000E+00 0. -1.
<mgrwt>
<rscale>  1 0.30000000E+03</rscale>
<asrwt>0</asrwt>
<pdfrwt beam="1">  1        1 0.11288594E+00 0.30000000E+03</pdfrwt>
<pdfrwt beam="2">0</pdfrwt>
<totfact> 0.28565147E+01</totfact>
</mgrwt>
</event>
<event>
 6    1  0.1904828E-004  0.3000000E+03  0.7818608E-02  0.1093470E+00
          1   -1    0    0  502    0  0.00000000000E+00  0.00000000000E+00  0.41346009490E+02  0.41346009490E+02  0.00000000000E+00 0.  1.
         13   -1    0    0    0    0 -0.00000000000E+00 -0.00000000000E+00 -0.10000000000E+04  0.10000000000E+04  0.00000000000E+00 0.  1.
    9000005    2    1    2  501    0 -0.50592309574E+01 -0.33484307308E+02 -0.95383345152E+03  0.10071402753E+04  0.32153769029E+03 0.  0.
         13    1    3    3    0    0 -0.10735692325E+03 -0.81915119768E+02 -0.17973720196E+03  0.22481338391E+03  0.00000000000E+00 0.  1.
          1    1    3    3  501    0  0.10229769229E+03  0.48430812460E+02 -0.77409624956E+03  0.78232689141E+03  0.00000000000E+00 0.  1.
         21    1    1    2  502  501  0.50592309574E+01  0.33484307308E+02 -0.48205389860E+01  0.34205734167E+02  0.00000000000E+00 0.  1.
<mgrwt>
<rscale>  1 0.30000000E+03</rscale>
<asrwt>0</asrwt>
<pdfrwt beam="1">  1        1 0.15034944E+00 0.30000000E+03</pdfrwt>
<pdfrwt beam="2">0</pdfrwt>
<totfact> 0.17891639E+01</totfact>
</mgrwt>
</event>
<event>
 6    1  0.1904828E-004  0.3000000E+03  0.7818608E-02  0.1093470E+00
          1   -1    0    0  502    0  0.00000000000E+00  0.00000000000E+00  0.37890863361E+02  0.37890863361E+02  0.00000000000E+00 0.  1.
         13   -1    0    0    0    0 -0.00000000000E+00 -0.00000000000E+00 -0.10000000000E+04  0.10000000000E+04  0.00000000000E+00 0.  1.
    9000005    2    1    2  501    0 -0.12078846413E+02  0.23301942209E+02 -0.95820464828E+03  0.10113555271E+04  0.32248251915E+03 0.  0.
         13    1    3    3    0    0  0.11605005127E+03  0.97180497657E+02 -0.67603161247E+03  0.69277009504E+03  0.00000000000E+00 0.  1.
          1    1    3    3  501    0 -0.12812889769E+03 -0.73878555447E+02 -0.28217303581E+03  0.31858543205E+03  0.00000000000E+00 0.  1.
         21    1    1    2  502  501  0.12078846413E+02 -0.23301942209E+02 -0.39044883578E+01  0.26535336266E+02  0.00000000000E+00 0.  1.
<mgrwt>
<rscale>  1 0.30000000E+03</rscale>
<asrwt>0</asrwt>
<pdfrwt beam="1">  1        1 0.13778525E+00 0.30000000E+03</pdfrwt>
<pdfrwt beam="2">0</pdfrwt>
<totfact> 0.20782621E+01</totfact>
</mgrwt>
</event>
<event>
 6    1  0.1904828E-004  0.3000000E+03  0.7818608E-02  0.1093470E+00
          1   -1    0    0  502    0  0.00000000000E+00  0.00000000000E+00  0.25179085658E+02  0.25179085658E+02  0.00000000000E+00 0.  1.
         13   -1    0    0    0    0 -0.00000000000E+00 -0.00000000000E+00 -0.10000000000E+04  0.10000000000E+04  0.00000000000E+00 0.  1.
    9000005    2    1    2  501    0 -0.47459897679E+01  0.61542533121E+01 -0.95450527290E+03  0.10034276595E+04  0.30939675597E+03 0.  0.
         13    1    3    3    0    0  0.86623398708E+02 -0.41920172277E+02 -0.85378535254E+03  0.85919167958E+03  0.00000000000E+00 0.  1.
          1    1    3    3  501    0 -0.91369388476E+02  0.48074425589E+02 -0.10071992036E+03  0.14423597992E+03  0.00000000000E+00 0.  1.
         21    1    1    2  502  501  0.47459897679E+01 -0.61542533121E+01 -0.20315641444E+02  0.21751426159E+02  0.00000000000E+00 0.  1.
<mgrwt>
<rscale>  1 0.30000000E+03</rscale>
<asrwt>0</asrwt>
<pdfrwt beam="1">  1        1 0.91560505E-01 0.30000000E+03</pdfrwt>
<pdfrwt beam="2">0</pdfrwt>
<totfact> 0.38870570E+01</totfact>
</mgrwt>
</event>
<event>
 6    1  0.1904828E-004  0.3000000E+03  0.7818608E-02  0.1093470E+00
          1   -1    0    0  502    0  0.00000000000E+00  0.00000000000E+00  0.37659171090E+02  0.37659171090E+02  0.00000000000E+00 0.  1.
         13   -1    0    0    0    0 -0.00000000000E+00 -0.00000000000E+00 -0.10000000000E+04  0.10000000000E+04  0.00000000000E+00 0.  1.
    9000005    2    1    2  501    0  0.51425509662E+02  0.34028566278E+02 -0.69372168987E+03  0.76205298787E+03  0.30930962961E+03 0.  0.
         13    1    3    3    0    0 -0.56657219499E+02 -0.11551707870E+03 -0.24147089543E+03  0.27360999494E+03  0.00000000000E+00 0.  1.
          1    1    3    3  501    0  0.10808272916E+03  0.14954564498E+03 -0.45225079444E+03  0.48844299293E+03  0.00000000000E+00 0.  1.
         21    1    1    2  502  501 -0.51425509662E+02 -0.34028566278E+02 -0.26861913904E+03  0.27560618322E+03  0.00000000000E+00 0.  1.
<mgrwt>
<rscale>  1 0.30000000E+03</rscale>
<asrwt>0</asrwt>
<pdfrwt beam="1">  1        1 0.13694273E+00 0.30000000E+03</pdfrwt>
<pdfrwt beam="2">0</pdfrwt>
<totfact> 0.20997019E+01</totfact>
</mgrwt>
</event>
<event>
 6    1  0.1904828E-004  0.3000000E+03  0.7818608E-02  0.1093470E+00
          1   -1    0    0  502    0  0.00000000000E+00  0.00000000000E+00  0.55780052084E+02  0.55780052084E+02  0.00000000000E+00 0.  1.
         13   -1    0    0    0    0 -0.00000000000E+00 -0.00000000000E+00 -0.10000000000E+04  0.10000000000E+04  0.00000000000E+00 0.  1.
    9000005    2    1    2  501    0  0.18187163266E+02  0.21609157880E+00 -0.96921237336E+03  0.10248698445E+04  0.33264809319E+03 0.  0.
         13    1    3    3    0    0  0.46699660977E+02  0.14586944525E+03 -0.70855204588E+03  0.72491706775E+03  0.00000000000E+00 0.  1.
          3    1    3    3  501    0 -0.28512497711E+02 -0.14565335368E+03 -0.26066032748E+03  0.29995277676E+03  0.00000000000E+00 0.  1.
         21    1    1    2  502  501 -0.18187163266E+02 -0.21609157880E+00  0.24992425440E+02  0.30910207580E+02  0.00000000000E+00 0. -1.
<mgrwt>
<rscale>  1 0.30000000E+03</rscale>
<asrwt>0</asrwt>
<pdfrwt beam="1">  1        1 0.20283698E+00 0.30000000E+03</pdfrwt>
<pdfrwt beam="2">0</pdfrwt>
<totfact> 0.99304886E+00</totfact>
</mgrwt>
</event>
<event>
 6    1  0.1904828E-004  0.3000000E+03  0.7818608E-02  0.1093470E+00
          1   -1    0    0  502    0  0.00000000000E+00  0.00000000000E+00  0.28939302476E+02  0.28939302476E+02  0.00000000000E+00 0.  1.
         13   -1    0    0    0    0 -0.00000000000E+00 -0.00000000000E+00 -0.10000000000E+04  0.10000000000E+04  0.00000000000E+00 0.  1.
    9000005    2    1    2  501    0  0.59936107260E+01  0.10944425823E+02 -0.95499940370E+03  0.10086004484E+04  0.32418405205E+03 0.  0.
         13    1    3    3    0    0 -0.21257876478E+02  0.22536122949E+02  0.17546257907E+02  0.35604007028E+02  0.00000000000E+00 0.  1.
          3    1    3    3  501    0  0.27251487204E+02 -0.11591697126E+02 -0.97254566160E+03  0.97299644136E+03  0.00000000000E+00 0.  1.
         21    1    1    2  502  501 -0.59936107260E+01 -0.10944425823E+02 -0.16061293827E+02  0.20338854086E+02  0.00000000000E+00 0. -1.
<mgrwt>
<rscale>  1 0.30000000E+03</rscale>
<asrwt>0</asrwt>
<pdfrwt beam="1">  1        1 0.10523405E+00 0.30000000E+03</pdfrwt>
<pdfrwt beam="2">0</pdfrwt>
<totfact> 0.31747527E+01</totfact>
</mgrwt>
</event>
<event>
 6    1  0.1904828E-004  0.3000000E+03  0.7818608E-02  0.1093470E+00
          1   -1    0    0  502    0  0.00000000000E+00  0.00000000000E+00  0.31821876185E+02  0.31821876185E+02  0.00000000000E+00 0.  1.
         13   -1    0    0    0    0 -0.00000000000E+00 -0.00000000000E+00 -0.10000000000E+04  0.10000000000E+04  0.00000000000E+00 0.  1.
    9000005    2    1    2  501    0 -0.19921466524E+02  0.20167322890E+02 -0.93001925615E+03  0.98428573286E+03  0.32105918669E+03 0.  0.
         13    1    3    3    0    0  0.13607997945E+03 -0.51153094293E+02 -0.51732100987E+03  0.53735968132E+03  0.00000000000E+00 0.  1.
          3    1    3    3  501    0 -0.15600144598E+03  0.71320417183E+02 -0.41269824628E+03  0.44692605153E+03  0.00000000000E+00 0.  1.
         21    1    1    2  502  501  0.19921466524E+02 -0.20167322890E+02 -0.38158867665E+02  0.47536143328E+02  0.00000000000E+00 0. -1.
<mgrwt>
<rscale>  1 0.30000000E+03</rscale>
<asrwt>0</asrwt>
<pdfrwt beam="1">  1        1 0.11571616E+00 0.30000000E+03</pdfrwt>
<pdfrwt beam="2">0</pdfrwt>
<totfact> 0.27502592E+01</totfact>
</mgrwt>
</event>
<event>
 6    1  0.1904828E-004  0.3000000E+03  0.7818608E-02  0.1093470E+00
          1   -1    0    0  502    0  0.00000000000E+00  0.00000000000E+00  0.32983538133E+02  0.32983538133E+02  0.00000000000E+00 0.  1.
         13   -1    0    0    0    0 -0.00000000000E+00 -0.00000000000E+00 -0.10000000000E+04  0.10000000000E+04  0.00000000000E+00 0.  1.
    9000005    2    1    2  501    0 -0.32155598518E+02 -0.19795997496E+02 -0.90537223865E+03  0.96069332933E+03  0.31907196440E+03 0.  0.
         13    1    3    3    0    0 -0.14086637810E+02  0.14638343119E+03 -0.52507854230E+03  0.54528342894E+03  0.00000000000E+00 0.  1.
          1    1    3    3  501    0 -0.18068960708E+02 -0.16617942869E+03 -0.38029369635E+03  0.41540990039E+03  0.00000000000E+00 0.  1.
         21    1    1    2  502  501  0.32155598518E+02  0.19795997496E+02 -0.61644223221E+02  0.72290208808E+02  0.00000000000E+00 0.  1.
<mgrwt>
<rscale>  1 0.30000000E+03</rscale>
<asrwt>0</asrwt>
<pdfrwt beam="1">  1        1 0.11994039E+00 0.30000000E+03</pdfrwt>
<pdfrwt beam="2">0</pdfrwt>
<totfact> 0.26016206E+01</totfact>
</mgrwt>
</event>
<event>
 6    1  0.1904828E-004  0.3000000E+03  0.7818608E-02  0.1093470E+00
          3   -1    0    0  502    0  0.00000000000E+00  0.00000000000E+00  0.29891211926E+02  0.29891211926E+02  0.00000000000E+00 0.  1.
         13   -1    0    0    0    0 -0.00000000000E+00 -0.00000000000E+00 -0.10000000000E+04  0.10000000000E+04  0.00000000000E+00 0.  1.
    9000005    2    1    2  501    0  0.82912850121E+01 -0.20855821844E+02 -0.93679892298E+03  0.98972583100E+03  0.31852988518E+03 0.  0.
         13    1    3    3    0    0  0.10683740915E+03 -0.27922081691E+02 -0.10598435766E+03  0.15305737065E+03  0.00000000000E+00 0.  1.
          1    1    3    3  501    0 -0.98546124143E+02  0.70662598469E+01 -0.83081456531E+03  0.83666846035E+03  0.00000000000E+00 0.  1.
         21    1    1    2  502  501 -0.82912850121E+01  0.20855821844E+02 -0.33309865097E+02  0.40165380923E+02  0.00000000000E+00 0.  1.
<mgrwt>
<rscale>  1 0.30000000E+03</rscale>
<asrwt>0</asrwt>
<pdfrwt beam="1">  1        3 0.10869555E+00 0.30000000E+03</pdfrwt>
<pdfrwt beam="2">0</pdfrwt>
<totfact> 0.31185481E+00</totfact>
</mgrwt>
</event>
<event>
 6    1  0.1904828E-004  0.3000000E+03  0.7818608E-02  0.1093470E+00
          1   -1    0    0  502    0  0.00000000000E+00  0.00000000000E+00  0.31112112270E+02  0.31112112270E+02  0.00000000000E+00 0.  1.
         13   -1    0    0    0    0 -0.00000000000E+00 -0.00000000000E+00 -0.10000000000E+04  0.10000000000E+04  0.00000000000E+00 0.  1.
    9000005    2    1    2  501    0  0.72983924582E+01  0.69708254596E+01 -0.96598050452E+03  0.10206091690E+04  0.32927630011E+03 0.  0.
         13    1    3    3    0    0 -0.49358829898E+02 -0.72883374288E+02 -0.53746492185E+02  0.10313566676E+03  0.00000000000E+00 0.  1.
          3    1    3    3  501    0  0.56657222356E+02  0.79854199747E+02 -0.91223401233E+03  0.91747350224E+03  0.00000000000E+00 0.  1.
         21    1    1    2  502  501 -0.72983924582E+01 -0.69708254596E+01 -0.29073832136E+01  0.10502943264E+02  0.00000000000E+00 0.  1.
<mgrwt>
<rscale>  1 0.30000000E+03</rscale>
<asrwt>0</asrwt>
<pdfrwt beam="1">  1        1 0.11313519E+00 0.30000000E+03</pdfrwt>
<pdfrwt beam="2">0</pdfrwt>
<totfact> 0.28469256E+01</totfact>
</mgrwt>
</event>
<event>
 6    1  0.1904828E-004  0.3000000E+03  0.7818608E-02  0.1093470E+00
          1   -1    0    0  502    0  0.00000000000E+00  0.00000000000E+00  0.37376894273E+02  0.37376894273E+02  0.00000000000E+00 0.  1.
         13   -1    0    0    0    0 -0.00000000000E+00 -0.00000000000E+00 -0.10000000000E+04  0.10000000000E+04  0.00000000000E+00 0.  1.
    9000005    2    1    2  501    0  0.42160111731E+01 -0.22235347980E+02 -0.95967109093E+03  0.10145536640E+04  0.32838749802E+03 0.  0.
         13    1    3    3    0    0 -0.13165547689E+03 -0.86628668845E+02 -0.66881021416E+03  0.68712793090E+03  0.00000000000E+00 0.  1.
          3    1    3    3  501    0  0.13587148806E+03  0.64393320865E+02 -0.29086087678E+03  0.32742573307E+03  0.00000000000E+00 0.  1.
         21    1    1    2  502  501 -0.42160111731E+01  0.22235347980E+02 -0.29520147936E+01  0.22823230301E+02  0.00000000000E+00 0.  1.
<mgrwt>
<rscale>  1 0.30000000E+03</rscale>
<asrwt>0</asrwt>
<pdfrwt beam="1">  1        1 0.13591627E+00 0.30000000E+03</pdfrwt>
<pdfrwt beam="2">0</pdfrwt>
<totfact> 0.21262105E+01</totfact>
</mgrwt>
</event>
<event>
 6    1  0.1904828E-004  0.3000000E+03  0.7818608E-02  0.1093470E+00
          1   -1    0    0  502    0  0.00000000000E+00  0.00000000000E+00  0.47798334654E+02  0.47798334654E+02  0.00000000000E+00 0.  1.
         13   -1    0    0    0    0 -0.00000000000E+00 -0.00000000000E+00 -0.10000000000E+04  0.10000000000E+04  0.00000000000E+00 0.  1.
    9000005    2    1    2  501    0 -0.47459311142E+02  0.18672414033E+02 -0.93188515892E+03  0.99290019540E+03  0.33888021978E+03 0.  0.
         13    1    3    3    0    0 -0.32177991908E+02 -0.16008040878E+03 -0.44764824630E+03  0.47649775745E+03  0.00000000000E+00 0.  1.
          1    1    3    3  501    0 -0.15281319234E+02  0.17875282281E+03 -0.48423691262E+03  0.51640243795E+03  0.00000000000E+00 0.  1.
         21    1    1    2  502  501  0.47459311142E+02 -0.18672414033E+02 -0.20316506427E+02  0.54898139252E+02  0.00000000000E+00 0.  1.
<mgrwt>
<rscale>  1 0.30000000E+03</rscale>
<asrwt>0</asrwt>
<pdfrwt beam="1">  1        1 0.17381249E+00 0.30000000E+03</pdfrwt>
<pdfrwt beam="2">0</pdfrwt>
<totfact> 0.13688642E+01</totfact>
</mgrwt>
</event>
<event>
 6    1  0.1904828E-004  0.3000000E+03  0.7818608E-02  0.1093470E+00
          1   -1    0    0  502    0  0.00000000000E+00  0.00000000000E+00  0.41138524855E+02  0.41138524855E+02  0.00000000000E+00 0.  1.
         13   -1    0    0    0    0 -0.00000000000E+00 -0.00000000000E+00 -0.10000000000E+04  0.10000000000E+04  0.00000000000E+00 0.  1.
    9000005    2    1    2  501    0  0.58340177280E+01  0.24651632409E+02 -0.96406449942E+03  0.10152771598E+04  0.31737298771E+03 0.  0.
         13    1    3    3    0    0 -0.13232950975E+03  0.67406531447E+02 -0.68553889974E+03  0.70144017756E+03  0.00000000000E+00 0.  1.
          3    1    3    3  501    0  0.13816352748E+03 -0.42754899039E+02 -0.27852559968E+03  0.31383698220E+03  0.00000000000E+00 0.  1.
         21    1    1    2  502  501 -0.58340177280E+01 -0.24651632409E+02  0.52030242778E+01  0.25861365101E+02  0.00000000000E+00 0. -1.
<mgrwt>
<rscale>  1 0.30000000E+03</rscale>
<asrwt>0</asrwt>
<pdfrwt beam="1">  1        1 0.14959495E+00 0.30000000E+03</pdfrwt>
<pdfrwt beam="2">0</pdfrwt>
<totfact> 0.18050403E+01</totfact>
</mgrwt>
</event>
<event>
 6    1  0.1904828E-004  0.3000000E+03  0.7818608E-02  0.1093470E+00
          3   -1    0    0  502    0  0.00000000000E+00  0.00000000000E+00  0.37362865586E+02  0.37362865586E+02  0.00000000000E+00 0.  1.
         13   -1    0    0    0    0 -0.00000000000E+00 -0.00000000000E+00 -0.10000000000E+04  0.10000000000E+04  0.00000000000E+00 0.  1.
    9000005    2    1    2  501    0  0.10686665093E+02 -0.92640485410E+00 -0.96777381368E+03  0.10254696528E+04  0.33894954095E+03 0.  0.
         13    1    3    3    0    0  0.10082540052E+03 -0.12085317447E+03 -0.27699022728E+03  0.31858254375E+03  0.00000000000E+00 0.  1.
          1    1    3    3  501    0 -0.90138735431E+02  0.11992676962E+03 -0.69078358640E+03  0.70688710904E+03  0.00000000000E+00 0.  1.
         21    1    1    2  502  501 -0.10686665093E+02  0.92640485410E+00  0.51366792653E+01  0.11893212797E+02  0.00000000000E+00 0.  1.
<mgrwt>
<rscale>  1 0.30000000E+03</rscale>
<asrwt>0</asrwt>
<pdfrwt beam="1">  1        3 0.13586525E+00 0.30000000E+03</pdfrwt>
<pdfrwt beam="2">0</pdfrwt>
<totfact> 0.15066402E+00</totfact>
</mgrwt>
</event>
<event>
 6    1  0.1904828E-004  0.3000000E+03  0.7818608E-02  0.1093470E+00
          1   -1    0    0  502    0  0.00000000000E+00  0.00000000000E+00  0.32669258001E+02  0.32669258001E+02  0.00000000000E+00 0.  1.
         13   -1    0    0    0    0 -0.00000000000E+00 -0.00000000000E+00 -0.10000000000E+04  0.10000000000E+04  0.00000000000E+00 0.  1.
    9000005    2    1    2  501    0  0.12495753063E+02 -0.17500805737E+02 -0.95619172459E+03  0.10084515010E+04  0.31970203881E+03 0.  0.
         13    1    3    3    0    0  0.33982760557E+02  0.94213457814E+02 -0.89476204645E+02  0.13430187953E+03  0.00000000000E+00 0.  1.
          3    1    3    3  501    0 -0.21487007494E+02 -0.11171426355E+03 -0.86671551995E+03  0.87414962145E+03  0.00000000000E+00 0.  1.
         21    1    1    2  502  501 -0.12495753063E+02  0.17500805737E+02 -0.11139017408E+02  0.24217757016E+02  0.00000000000E+00 0. -1.
<mgrwt>
<rscale>  1 0.30000000E+03</rscale>
<asrwt>0</asrwt>
<pdfrwt beam="1">  1        1 0.11879755E+00 0.30000000E+03</pdfrwt>
<pdfrwt beam="2">0</pdfrwt>
<totfact> 0.26407310E+01</totfact>
</mgrwt>
</event>
<event>
 6    1  0.1904828E-004  0.3000000E+03  0.7818608E-02  0.1093470E+00
          1   -1    0    0  502    0  0.00000000000E+00  0.00000000000E+00  0.43220628066E+02  0.43220628066E+02  0.00000000000E+00 0.  1.
         13   -1    0    0    0    0 -0.00000000000E+00 -0.00000000000E+00 -0.10000000000E+04  0.10000000000E+04  0.00000000000E+00 0.  1.
    9000005    2    1    2  501    0  0.14278309073E+02  0.60371984743E+01 -0.95599330581E+03  0.10276985220E+04  0.37682984699E+03 0.  0.
         13    1    3    3    0    0  0.12847191895E+03 -0.13760284745E+03 -0.57051814413E+03  0.60077494153E+03  0.00000000000E+00 0.  1.
          1    1    3    3  501    0 -0.11419360987E+03  0.14364004593E+03 -0.38547516168E+03  0.42692358052E+03  0.00000000000E+00 0.  1.
         21    1    1    2  502  501 -0.14278309073E+02 -0.60371984743E+01 -0.78606612381E+00  0.15522106022E+02  0.00000000000E+00 0.  1.
<mgrwt>
<rscale>  1 0.30000000E+03</rscale>
<asrwt>0</asrwt>
<pdfrwt beam="1">  1        1 0.15716625E+00 0.30000000E+03</pdfrwt>
<pdfrwt beam="2">0</pdfrwt>
<totfact> 0.16531774E+01</totfact>
</mgrwt>
</event>
<event>
 6    1  0.1904828E-004  0.3000000E+03  0.7818608E-02  0.1093470E+00
          1   -1    0    0  502    0  0.00000000000E+00  0.00000000000E+00  0.23052272549E+02  0.23052272549E+02  0.00000000000E+00 0.  1.
         13   -1    0    0    0    0 -0.00000000000E+00 -0.00000000000E+00 -0.10000000000E+04  0.10000000000E+04  0.00000000000E+00 0.  1.
    9000005    2    1    2  501    0 -0.16855550529E+02  0.29983384304E+01 -0.95653145964E+03  0.99640788087E+03  0.27853748787E+03 0.  0.
         13    1    3    3    0    0  0.24860483245E+02  0.52438007624E+02 -0.25932290131E+02  0.63563133515E+02  0.00000000000E+00 0.  1.
          1    1    3    3  501    0 -0.41716033774E+02 -0.49439669194E+02 -0.93059916951E+03  0.93284474735E+03  0.00000000000E+00 0.  1.
         21    1    1    2  502  501  0.16855550529E+02 -0.29983384304E+01 -0.20416267806E+02  0.26644391682E+02  0.00000000000E+00 0. -1.
<mgrwt>
<rscale>  1 0.30000000E+03</rscale>
<asrwt>0</asrwt>
<pdfrwt beam="1">  1        1 0.83826622E-01 0.30000000E+03</pdfrwt>
<pdfrwt beam="2">0</pdfrwt>
<totfact> 0.44015527E+01</totfact>
</mgrwt>
</event>
<event>
 6    1  0.1904828E-004  0.3000000E+03  0.7818608E-02  0.1093470E+00
          1   -1    0    0  502    0  0.00000000000E+00  0.00000000000E+00  0.40760265071E+02  0.40760265071E+02  0.00000000000E+00 0.  1.
         13   -1    0    0    0    0 -0.00000000000E+00 -0.00000000000E+00 -0.10000000000E+04  0.10000000000E+04  0.00000000000E+00 0.  1.
    9000005    2    1    2  501    0 -0.27611628604E+02 -0.77975509897E+01 -0.95654727346E+03  0.10119426804E+04  0.32897127272E+03 0.  0.
         13    1    3    3    0    0 -0.87736121344E+02 -0.88913146395E+02 -0.87010508094E+03  0.87902561195E+03  0.00000000000E+00 0.  1.
          1    1    3    3  501    0  0.60124492740E+02  0.81115595405E+02 -0.86442192522E+02  0.13291706848E+03  0.00000000000E+00 0.  1.
         21    1    1    2  502  501  0.27611628604E+02  0.77975509897E+01 -0.26924614658E+01  0.28817584637E+02  0.00000000000E+00 0.  1.
<mgrwt>
<rscale>  1 0.30000000E+03</rscale>
<asrwt>0</asrwt>
<pdfrwt beam="1">  1        1 0.14821946E+00 0.30000000E+03</pdfrwt>
<pdfrwt beam="2">0</pdfrwt>
<totfact> 0.18344368E+01</totfact>
</mgrwt>
</event>
<event>
 6    1  0.1904828E-004  0.3000000E+03  0.7818608E-02  0.1093470E+00
          1   -1    0    0  502    0  0.00000000000E+00  0.00000000000E+00  0.40318287298E+02  0.40318287298E+02  0.00000000000E+00 0.  1.
         13   -1    0    0    0    0 -0.00000000000E+00 -0.00000000000E+00 -0.10000000000E+04  0.10000000000E+04  0.00000000000E+00 0.  1.
    9000005    2    1    2  501    0  0.69987912512E+01  0.29766435491E+02 -0.96210238137E+03  0.10096444646E+04  0.30464065542E+03 0.  0.
         13    1    3    3    0    0 -0.81128441517E+02  0.62476726489E+01 -0.55566948389E+02  0.98531939948E+02  0.00000000000E+00 0.  1.
          3    1    3    3  501    0  0.88127232769E+02  0.23518762842E+02 -0.90653543298E+03  0.91111252467E+03  0.00000000000E+00 0.  1.
         21    1    1    2  502  501 -0.69987912512E+01 -0.29766435491E+02  0.24206686705E+01  0.30673822677E+02  0.00000000000E+00 0. -1.
<mgrwt>
<rscale>  1 0.30000000E+03</rscale>
<asrwt>0</asrwt>
<pdfrwt beam="1">  1        1 0.14661226E+00 0.30000000E+03</pdfrwt>
<pdfrwt beam="2">0</pdfrwt>
<totfact> 0.18695471E+01</totfact>
</mgrwt>
</event>
<event>
 6    1  0.1904828E-004  0.3000000E+03  0.7818608E-02  0.1093470E+00
          1   -1    0    0  502    0  0.00000000000E+00  0.00000000000E+00  0.31028752315E+02  0.31028752315E+02  0.00000000000E+00 0.  1.
         13   -1    0    0    0    0 -0.00000000000E+00 -0.00000000000E+00 -0.10000000000E+04  0.10000000000E+04  0.00000000000E+00 0.  1.
    9000005    2    1    2  501    0 -0.13748474129E+02 -0.77081145907E+01 -0.95726161090E+03  0.10113932955E+04  0.32606467283E+03 0.  0.
         13    1    3    3    0    0 -0.16246131089E+03  0.32326731940E+02 -0.59789173702E+03  0.62041375253E+03  0.00000000000E+00 0.  1.
          1    1    3    3  501    0  0.14871283676E+03 -0.40034846531E+02 -0.35936987389E+03  0.39097954296E+03  0.00000000000E+00 0.  1.
         21    1    1    2  502  501  0.13748474129E+02  0.77081145907E+01 -0.11709636782E+02  0.19635456832E+02  0.00000000000E+00 0.  1.
<mgrwt>
<rscale>  1 0.30000000E+03</rscale>
<asrwt>0</asrwt>
<pdfrwt beam="1">  1        1 0.11283206E+00 0.30000000E+03</pdfrwt>
<pdfrwt beam="2">0</pdfrwt>
<totfact> 0.28585933E+01</totfact>
</mgrwt>
</event>
<event>
 6    1  0.1904828E-004  0.3000000E+03  0.7818608E-02  0.1093470E+00
          1   -1    0    0  502    0  0.00000000000E+00  0.00000000000E+00  0.70894650736E+02  0.70894650736E+02  0.00000000000E+00 0.  1.
         13   -1    0    0    0    0 -0.00000000000E+00 -0.00000000000E+00 -0.10000000000E+04  0.10000000000E+04  0.00000000000E+00 0.  1.
    9000005    2    1    2  501    0 -0.72021316199E+02  0.97069149720E+01 -0.93224020442E+03  0.99815455517E+03  0.34922689343E+03 0.  0.
         13    1    3    3    0    0 -0.48114894004E+01 -0.58614793846E+02 -0.89244757264E+03  0.89438331514E+03  0.00000000000E+00 0.  1.
          3    1    3    3  501    0 -0.67209826799E+02  0.68321708818E+02 -0.39792631778E+02  0.10377124003E+03  0.00000000000E+00 0.  1.
         21    1    1    2  502  501  0.72021316199E+02 -0.97069149720E+01  0.31348551567E+01  0.72740095561E+02  0.00000000000E+00 0.  1.
<mgrwt>
<rscale>  1 0.30000000E+03</rscale>
<asrwt>0</asrwt>
<pdfrwt beam="1">  1        1 0.25779927E+00 0.30000000E+03</pdfrwt>
<pdfrwt beam="2">0</pdfrwt>
<totfact> 0.54870357E+00</totfact>
</mgrwt>
</event>
<event>
 6    1  0.1904828E-004  0.3000000E+03  0.7818608E-02  0.1093470E+00
          1   -1    0    0  502    0  0.00000000000E+00  0.00000000000E+00  0.34866613652E+02  0.34866613652E+02  0.00000000000E+00 0.  1.
         13   -1    0    0    0    0 -0.00000000000E+00 -0.00000000000E+00 -0.10000000000E+04  0.10000000000E+04  0.00000000000E+00 0.  1.
    9000005    2    1    2  501    0  0.25928764508E+02 -0.14340306430E+01 -0.95268028305E+03  0.10060666648E+04  0.32232910978E+03 0.  0.
         13    1    3    3    0    0  0.16601633711E+03 -0.38836814097E+02 -0.40296221651E+03  0.43754802051E+03  0.00000000000E+00 0.  1.
          3    1    3    3  501    0 -0.14008757261E+03  0.37402783453E+02 -0.54971806654E+03  0.56851864428E+03  0.00000000000E+00 0.  1.
         21    1    1    2  502  501 -0.25928764508E+02  0.14340306430E+01 -0.12453103296E+02  0.28799948863E+02  0.00000000000E+00 0. -1.
<mgrwt>
<rscale>  1 0.30000000E+03</rscale>
<asrwt>0</asrwt>
<pdfrwt beam="1">  1        1 0.12678795E+00 0.30000000E+03</pdfrwt>
<pdfrwt beam="2">0</pdfrwt>
<totfact> 0.23825661E+01</totfact>
</mgrwt>
</event>
<event>
 6    1  0.1904828E-004  0.3000000E+03  0.7818608E-02  0.1093470E+00
          1   -1    0    0  502    0  0.00000000000E+00  0.00000000000E+00  0.22540419979E+02  0.22540419979E+02  0.00000000000E+00 0.  1.
         13   -1    0    0    0    0 -0.00000000000E+00 -0.00000000000E+00 -0.10000000000E+04  0.10000000000E+04  0.00000000000E+00 0.  1.
    9000005    2    1    2  501    0 -0.86192439154E+01  0.14484676709E+02 -0.97313297761E+03  0.10051387904E+04  0.25106194165E+03 0.  0.
         13    1    3    3    0    0 -0.11464627878E+03 -0.25388545974E+02 -0.29328674131E+03  0.31592002173E+03  0.00000000000E+00 0.  1.
          3    1    3    3  501    0  0.10602703487E+03  0.39873222683E+02 -0.67984623630E+03  0.68921876862E+03  0.00000000000E+00 0.  1.
         21    1    1    2  502  501  0.86192439154E+01 -0.14484676709E+02 -0.43266024117E+01  0.17401629621E+02  0.00000000000E+00 0. -1.
<mgrwt>
<rscale>  1 0.30000000E+03</rscale>
<asrwt>0</asrwt>
<pdfrwt beam="1">  1        1 0.81965336E-01 0.30000000E+03</pdfrwt>
<pdfrwt beam="2">0</pdfrwt>
<totfact> 0.45412687E+01</totfact>
</mgrwt>
</event>
<event>
 6    1  0.1904828E-004  0.3000000E+03  0.7818608E-02  0.1093470E+00
          1   -1    0    0  502    0  0.00000000000E+00  0.00000000000E+00  0.30380488195E+02  0.30380488195E+02  0.00000000000E+00 0.  1.
         13   -1    0    0    0    0 -0.00000000000E+00 -0.00000000000E+00 -0.10000000000E+04  0.10000000000E+04  0.00000000000E+00 0.  1.
    9000005    2    1    2  501    0  0.21899576460E+01 -0.80203597218E+01 -0.94920068041E+03  0.10083339293E+04  0.34012682805E+03 0.  0.
         13    1    3    3    0    0  0.13451855426E+03 -0.10831927468E+03 -0.43696497485E+03  0.46985816578E+03  0.00000000000E+00 0.  1.
          1    1    3    3  501    0 -0.13232859661E+03  0.10029891496E+03 -0.51223570556E+03  0.53847576350E+03  0.00000000000E+00 0.  1.
         21    1    1    2  502  501 -0.21899576460E+01  0.80203597218E+01 -0.20418831392E+02  0.22046558914E+02  0.00000000000E+00 0. -1.
<mgrwt>
<rscale>  1 0.30000000E+03</rscale>
<asrwt>0</asrwt>
<pdfrwt beam="1">  1        1 0.11047474E+00 0.30000000E+03</pdfrwt>
<pdfrwt beam="2">0</pdfrwt>
<totfact> 0.29516963E+01</totfact>
</mgrwt>
</event>
<event>
 6    1  0.1904828E-004  0.3000000E+03  0.7818608E-02  0.1093470E+00
          1   -1    0    0  502    0  0.00000000000E+00  0.00000000000E+00  0.29603022429E+02  0.29603022429E+02  0.00000000000E+00 0.  1.
         13   -1    0    0    0    0 -0.00000000000E+00 -0.00000000000E+00 -0.10000000000E+04  0.10000000000E+04  0.00000000000E+00 0.  1.
    9000005    2    1    2  501    0 -0.61212041571E+01  0.14085249733E+02 -0.94481378128E+03  0.99976406580E+03  0.32652602127E+03 0.  0.
         13    1    3    3    0    0  0.56083398534E+02  0.10854764954E+02 -0.93495711957E+03  0.93670058661E+03  0.00000000000E+00 0.  1.
          1    1    3    3  501    0 -0.62204602691E+02  0.32304847792E+01 -0.98566617114E+01  0.63063479194E+02  0.00000000000E+00 0.  1.
         21    1    1    2  502  501  0.61212041571E+01 -0.14085249733E+02 -0.25583196287E+02  0.29838956628E+02  0.00000000000E+00 0.  1.
<mgrwt>
<rscale>  1 0.30000000E+03</rscale>
<asrwt>0</asrwt>
<pdfrwt beam="1">  1        1 0.10764758E+00 0.30000000E+03</pdfrwt>
<pdfrwt beam="2">0</pdfrwt>
<totfact> 0.30691320E+01</totfact>
</mgrwt>
</event>
<event>
 6    1  0.1904828E-004  0.3000000E+03  0.7818608E-02  0.1093470E+00
          1   -1    0    0  502    0  0.00000000000E+00  0.00000000000E+00  0.30249249599E+02  0.30249249599E+02  0.00000000000E+00 0.  1.
         13   -1    0    0    0    0 -0.00000000000E+00 -0.00000000000E+00 -0.10000000000E+04  0.10000000000E+04  0.00000000000E+00 0.  1.
    9000005    2    1    2  501    0 -0.40725390187E+01 -0.13044054728E+02 -0.96161774455E+03  0.10143470887E+04  0.32249743679E+03 0.  0.
         13    1    3    3    0    0 -0.72564620615E+02  0.11411028410E+03 -0.21576603207E+03  0.25464045574E+03  0.00000000000E+00 0.  1.
          1    1    3    3  501    0  0.68492081597E+02 -0.12715433883E+03 -0.74585171248E+03  0.75970663294E+03  0.00000000000E+00 0.  1.
         21    1    1    2  502  501  0.40725390187E+01  0.13044054728E+02 -0.81330058511E+01  0.15902160921E+02  0.00000000000E+00 0.  1.
<mgrwt>
<rscale>  1 0.30000000E+03</rscale>
<asrwt>0</asrwt>
<pdfrwt beam="1">  1        1 0.10999750E+00 0.30000000E+03</pdfrwt>
<pdfrwt beam="2">0</pdfrwt>
<totfact> 0.29710660E+01</totfact>
</mgrwt>
</event>
<event>
 6    1  0.1904828E-004  0.3000000E+03  0.7818608E-02  0.1093470E+00
          1   -1    0    0  502    0  0.00000000000E+00  0.00000000000E+00  0.61028024383E+02  0.61028024383E+02  0.00000000000E+00 0.  1.
         13   -1    0    0    0    0 -0.00000000000E+00 -0.00000000000E+00 -0.10000000000E+04  0.10000000000E+04  0.00000000000E+00 0.  1.
    9000005    2    1    2  501    0 -0.68525451792E+01  0.15692036324E+02 -0.97106375029E+03  0.10246538662E+04  0.32658466146E+03 0.  0.
         13    1    3    3    0    0  0.83314131767E+02  0.14098853896E+03 -0.61777125508E+03  0.63910901752E+03  0.00000000000E+00 0.  1.
          3    1    3    3  501    0 -0.90166676946E+02 -0.12529650264E+03 -0.35329249520E+03  0.38554484872E+03  0.00000000000E+00 0.  1.
         21    1    1    2  502  501  0.68525451792E+01 -0.15692036324E+02  0.32091774669E+02  0.36374158146E+02  0.00000000000E+00 0.  1.
<mgrwt>
<rscale>  1 0.30000000E+03</rscale>
<asrwt>0</asrwt>
<pdfrwt beam="1">  1        1 0.22192056E+00 0.30000000E+03</pdfrwt>
<pdfrwt beam="2">0</pdfrwt>
<totfact> 0.80741874E+00</totfact>
</mgrwt>
</event>
<event>
 6    1  0.1904828E-004  0.3000000E+03  0.7818608E-02  0.1093470E+00
          1   -1    0    0  502    0  0.00000000000E+00  0.00000000000E+00  0.37120104522E+02  0.37120104522E+02  0.00000000000E+00 0.  1.
         13   -1    0    0    0    0 -0.00000000000E+00 -0.00000000000E+00 -0.10000000000E+04  0.10000000000E+04  0.00000000000E+00 0.  1.
    9000005    2    1    2  501    0  0.24769527460E+01  0.15799863375E+02 -0.96119924057E+03  0.10210391973E+04  0.34403675863E+03 0.  0.
         13    1    3    3    0    0 -0.77227648175E+02  0.61591732715E+02 -0.91092836089E+03  0.91626859046E+03  0.00000000000E+00 0.  1.
          3    1    3    3  501    0  0.79704600921E+02 -0.45791869340E+02 -0.50270879675E+02  0.10477060680E+03  0.00000000000E+00 0.  1.
         21    1    1    2  502  501 -0.24769527460E+01 -0.15799863375E+02 -0.16806549122E+01  0.16080907267E+02  0.00000000000E+00 0. -1.
<mgrwt>
<rscale>  1 0.30000000E+03</rscale>
<asrwt>0</asrwt>
<pdfrwt beam="1">  1        1 0.13498248E+00 0.30000000E+03</pdfrwt>
<pdfrwt beam="2">0</pdfrwt>
<totfact> 0.21507141E+01</totfact>
</mgrwt>
</event>
<event>
 6    1  0.1904828E-004  0.3000000E+03  0.7818608E-02  0.1093470E+00
          1   -1    0    0  502    0  0.00000000000E+00  0.00000000000E+00  0.31276376220E+02  0.31276376220E+02  0.00000000000E+00 0.  1.
         13   -1    0    0    0    0 -0.00000000000E+00 -0.00000000000E+00 -0.10000000000E+04  0.10000000000E+04  0.00000000000E+00 0.  1.
    9000005    2    1    2  501    0  0.21690222841E+02 -0.63193524617E+01 -0.94439898782E+03  0.99807866700E+03  0.32211981832E+03 0.  0.
         13    1    3    3    0    0 -0.87385016549E+02 -0.96617997482E+02 -0.72734266219E+03  0.73891713121E+03  0.00000000000E+00 0.  1.
          3    1    3    3  501    0  0.10907523939E+03  0.90298645020E+02 -0.21705632563E+03  0.25916153580E+03  0.00000000000E+00 0.  1.
         21    1    1    2  502  501 -0.21690222841E+02  0.63193524617E+01 -0.24324635964E+02  0.33197709217E+02  0.00000000000E+00 0.  1.
<mgrwt>
<rscale>  1 0.30000000E+03</rscale>
<asrwt>0</asrwt>
<pdfrwt beam="1">  1        1 0.11373252E+00 0.30000000E+03</pdfrwt>
<pdfrwt beam="2">0</pdfrwt>
<totfact> 0.28241317E+01</totfact>
</mgrwt>
</event>
<event>
 6    1  0.1904828E-004  0.3000000E+03  0.7818608E-02  0.1093470E+00
          1   -1    0    0  502    0  0.00000000000E+00  0.00000000000E+00  0.32105134391E+02  0.32105134391E+02  0.00000000000E+00 0.  1.
         13   -1    0    0    0    0 -0.00000000000E+00 -0.00000000000E+00 -0.10000000000E+04  0.10000000000E+04  0.00000000000E+00 0.  1.
    9000005    2    1    2  501    0  0.18701996603E+02 -0.14383988569E+02 -0.93486547277E+03  0.99151443847E+03  0.32950078256E+03 0.  0.
         13    1    3    3    0    0 -0.10958361399E+03  0.67876988773E+02 -0.69840069302E+03  0.71019672069E+03  0.00000000000E+00 0.  1.
          3    1    3    3  501    0  0.12828561059E+03 -0.82260977342E+02 -0.23646477975E+03  0.28131771779E+03  0.00000000000E+00 0.  1.
         21    1    1    2  502  501 -0.18701996603E+02  0.14383988569E+02 -0.33029392834E+02  0.40590695918E+02  0.00000000000E+00 0.  1.
<mgrwt>
<rscale>  1 0.30000000E+03</rscale>
<asrwt>0</asrwt>
<pdfrwt beam="1">  1        1 0.11674619E+00 0.30000000E+03</pdfrwt>
<pdfrwt beam="2">0</pdfrwt>
<totfact> 0.27129623E+01</totfact>
</mgrwt>
</event>
<event>
 6    1  0.1904828E-004  0.3000000E+03  0.7818608E-02  0.1093470E+00
          1   -1    0    0  502    0  0.00000000000E+00  0.00000000000E+00  0.76153858285E+02  0.76153858285E+02  0.00000000000E+00 0.  1.
         13   -1    0    0    0    0 -0.00000000000E+00 -0.00000000000E+00 -0.10000000000E+04  0.10000000000E+04  0.00000000000E+00 0.  1.
    9000005    2    1    2  501    0 -0.53760367039E+01  0.96834299068E+01 -0.97221871754E+03  0.10265295026E+04  0.32928849722E+03 0.  0.
         13    1    3    3    0    0 -0.22203051262E+02 -0.11290440931E+03 -0.83033190736E+03  0.83826693690E+03  0.00000000000E+00 0.  1.
          1    1    3    3  501    0  0.16827014558E+02  0.12258783921E+03 -0.14188681018E+03  0.18826256570E+03  0.00000000000E+00 0.  1.
         21    1    1    2  502  501  0.53760367039E+01 -0.96834299068E+01  0.48372575821E+02  0.49624355683E+02  0.00000000000E+00 0.  1.
<mgrwt>
<rscale>  1 0.30000000E+03</rscale>
<asrwt>0</asrwt>
<pdfrwt beam="1">  1        1 0.27692370E+00 0.30000000E+03</pdfrwt>
<pdfrwt beam="2">0</pdfrwt>
<totfact> 0.44631703E+00</totfact>
</mgrwt>
</event>
<event>
 6    1  0.1904828E-004  0.3000000E+03  0.7818608E-02  0.1093470E+00
          1   -1    0    0  502    0  0.00000000000E+00  0.00000000000E+00  0.30557164675E+02  0.30557164675E+02  0.00000000000E+00 0.  1.
         13   -1    0    0    0    0 -0.00000000000E+00 -0.00000000000E+00 -0.10000000000E+04  0.10000000000E+04  0.00000000000E+00 0.  1.
    9000005    2    1    2  501    0  0.36174956175E+01  0.93617080750E+01 -0.96930499980E+03  0.10205198916E+04  0.31907356302E+03 0.  0.
         13    1    3    3    0    0 -0.12519942805E+03  0.88375309087E+02 -0.33385019225E+03  0.36734322221E+03  0.00000000000E+00 0.  1.
          1    1    3    3  501    0  0.12881692366E+03 -0.79013601012E+02 -0.63545480755E+03  0.65317666936E+03  0.00000000000E+00 0.  1.
         21    1    1    2  502  501 -0.36174956175E+01 -0.93617080750E+01 -0.13783552565E+00  0.10037273099E+02  0.00000000000E+00 0. -1.
<mgrwt>
<rscale>  1 0.30000000E+03</rscale>
<asrwt>0</asrwt>
<pdfrwt beam="1">  1        1 0.11111720E+00 0.30000000E+03</pdfrwt>
<pdfrwt beam="2">0</pdfrwt>
<totfact> 0.29259018E+01</totfact>
</mgrwt>
</event>
<event>
 6    1  0.1904828E-004  0.3000000E+03  0.7818608E-02  0.1093470E+00
          1   -1    0    0  502    0  0.00000000000E+00  0.00000000000E+00  0.32536243157E+02  0.32536243157E+02  0.00000000000E+00 0.  1.
         13   -1    0    0    0    0 -0.00000000000E+00 -0.00000000000E+00 -0.10000000000E+04  0.10000000000E+04  0.00000000000E+00 0.  1.
    9000005    2    1    2  501    0  0.26835921788E+02  0.97555711368E+01 -0.84887378804E+03  0.91055707048E+03  0.32819526613E+03 0.  0.
         13    1    3    3    0    0  0.10527033914E+03  0.95652415059E+01 -0.82029586748E+03  0.82707838102E+03  0.00000000000E+00 0.  1.
          3    1    3    3  501    0 -0.78434417348E+02  0.19032963099E+00 -0.28577920560E+02  0.83478689458E+02  0.00000000000E+00 0.  1.
         21    1    1    2  502  501 -0.26835921788E+02 -0.97555711368E+01 -0.11858996881E+03  0.12197917268E+03  0.00000000000E+00 0.  1.
<mgrwt>
<rscale>  1 0.30000000E+03</rscale>
<asrwt>0</asrwt>
<pdfrwt beam="1">  1        1 0.11831386E+00 0.30000000E+03</pdfrwt>
<pdfrwt beam="2">0</pdfrwt>
<totfact> 0.26575236E+01</totfact>
</mgrwt>
</event>
<event>
 6    1  0.1904828E-004  0.3000000E+03  0.7818608E-02  0.1093470E+00
          3   -1    0    0  502    0  0.00000000000E+00  0.00000000000E+00  0.68822549604E+01  0.68822549604E+01  0.00000000000E+00 0.  1.
         13   -1    0    0    0    0 -0.00000000000E+00 -0.00000000000E+00 -0.10000000000E+04  0.10000000000E+04  0.00000000000E+00 0.  1.
    9000005    2    1    2  501    0 -0.14090532051E+02  0.14102310973E+01 -0.94776622724E+03  0.95937128768E+03  0.14809427498E+03 0.  0.
         13    1    3    3    0    0 -0.64829855618E+02 -0.16755322562E+02 -0.22903838245E+03  0.23862571456E+03  0.00000000000E+00 0.  1.
          3    1    3    3  501    0  0.50739323567E+02  0.18165553660E+02 -0.71872784479E+03  0.72074557312E+03  0.00000000000E+00 0.  1.
         21    1    1    2  502  501  0.14090532051E+02 -0.14102310973E+01 -0.45351517797E+02  0.47510967278E+02  0.00000000000E+00 0. -1.
<mgrwt>
<rscale>  1 0.30000000E+03</rscale>
<asrwt>0</asrwt>
<pdfrwt beam="1">  1        3 0.25026434E-01 0.30000000E+03</pdfrwt>
<pdfrwt beam="2">0</pdfrwt>
<totfact> 0.65876205E+01</totfact>
</mgrwt>
</event>
<event>
 6    1  0.1904828E-004  0.3000000E+03  0.7818608E-02  0.1093470E+00
          1   -1    0    0  502    0  0.00000000000E+00  0.00000000000E+00  0.51790664308E+02  0.51790664308E+02  0.00000000000E+00 0.  1.
         13   -1    0    0    0    0 -0.00000000000E+00 -0.00000000000E+00 -0.10000000000E+04  0.10000000000E+04  0.00000000000E+00 0.  1.
    9000005    2    1    2  501    0 -0.83240070329E+02  0.51188710959E+02 -0.59113907472E+03  0.68159022575E+03  0.32491635345E+03 0.  0.
         13    1    3    3    0    0 -0.13963139856E+03 -0.50182637761E+02 -0.53017402246E+03  0.55054492886E+03  0.00000000000E+00 0.  1.
          3    1    3    3  501    0  0.56391328235E+02  0.10137134872E+03 -0.60965052262E+02  0.13104529690E+03  0.00000000000E+00 0.  1.
         21    1    1    2  502  501  0.83240070329E+02 -0.51188710959E+02 -0.35707026097E+03  0.37020043856E+03  0.00000000000E+00 0. -1.
<mgrwt>
<rscale>  1 0.30000000E+03</rscale>
<asrwt>0</asrwt>
<pdfrwt beam="1">  1        1 0.18833009E+00 0.30000000E+03</pdfrwt>
<pdfrwt beam="2">0</pdfrwt>
<totfact> 0.11647060E+01</totfact>
</mgrwt>
</event>
<event>
 6    1  0.1904828E-004  0.3000000E+03  0.7818608E-02  0.1093470E+00
          3   -1    0    0  502    0  0.00000000000E+00  0.00000000000E+00  0.47300237595E+02  0.47300237595E+02  0.00000000000E+00 0.  1.
         13   -1    0    0    0    0 -0.00000000000E+00 -0.00000000000E+00 -0.10000000000E+04  0.10000000000E+04  0.00000000000E+00 0.  1.
    9000005    2    1    2  501    0  0.23466110655E+02 -0.44231461048E+01 -0.97403768970E+03  0.10152763448E+04  0.28542321683E+03 0.  0.
         13    1    3    3    0    0 -0.43030333584E+01 -0.13539086311E+03 -0.31686014184E+03  0.34460056790E+03  0.00000000000E+00 0.  1.
          3    1    3    3  501    0  0.27769144014E+02  0.13096771701E+03 -0.65717754786E+03  0.67067577686E+03  0.00000000000E+00 0.  1.
         21    1    1    2  502  501 -0.23466110655E+02  0.44231461048E+01  0.21337927297E+02  0.32023892831E+02  0.00000000000E+00 0.  1.
<mgrwt>
<rscale>  1 0.30000000E+03</rscale>
<asrwt>0</asrwt>
<pdfrwt beam="1">  1        3 0.17200123E+00 0.30000000E+03</pdfrwt>
<pdfrwt beam="2">0</pdfrwt>
<totfact> 0.45266105E-01</totfact>
</mgrwt>
</event>
<event>
 6    1  0.1904828E-004  0.3000000E+03  0.7818608E-02  0.1093470E+00
          1   -1    0    0  502    0  0.00000000000E+00  0.00000000000E+00  0.52041781190E+02  0.52041781190E+02  0.00000000000E+00 0.  1.
         13   -1    0    0    0    0 -0.00000000000E+00 -0.00000000000E+00 -0.10000000000E+04  0.10000000000E+04  0.00000000000E+00 0.  1.
    9000005    2    1    2  501    0  0.18298993999E+02  0.86308182035E+01 -0.96915892349E+03  0.10227362513E+04  0.32605379390E+03 0.  0.
         13    1    3    3    0    0  0.12487471811E+03 -0.11078475994E+02 -0.85935665417E+03  0.86845281214E+03  0.00000000000E+00 0.  1.
          1    1    3    3  501    0 -0.10657572411E+03  0.19709294198E+02 -0.10980226932E+03  0.15428343914E+03  0.00000000000E+00 0.  1.
         21    1    1    2  502  501 -0.18298993999E+02 -0.86308182035E+01  0.21200704675E+02  0.29305529904E+02  0.00000000000E+00 0.  1.
<mgrwt>
<rscale>  1 0.30000000E+03</rscale>
<asrwt>0</asrwt>
<pdfrwt beam="1">  1        1 0.18924324E+00 0.30000000E+03</pdfrwt>
<pdfrwt beam="2">0</pdfrwt>
<totfact> 0.11530034E+01</totfact>
</mgrwt>
</event>
<event>
 6    1  0.1904828E-004  0.3000000E+03  0.7818608E-02  0.1093470E+00
          1   -1    0    0  502    0  0.00000000000E+00  0.00000000000E+00  0.28680267648E+02  0.28680267648E+02  0.00000000000E+00 0.  1.
         13   -1    0    0    0    0 -0.00000000000E+00 -0.00000000000E+00 -0.10000000000E+04  0.10000000000E+04  0.00000000000E+00 0.  1.
    9000005    2    1    2  501    0  0.13529602648E+02  0.98555712509E+01 -0.90198830403E+03  0.95735685365E+03  0.32042013385E+03 0.  0.
         13    1    3    3    0    0 -0.19824052608E+02  0.87183466760E+02 -0.85743360948E+03  0.86208256252E+03  0.00000000000E+00 0.  1.
          1    1    3    3  501    0  0.33353655256E+02 -0.77327895509E+02 -0.44554694558E+02  0.95274291128E+02  0.00000000000E+00 0.  1.
         21    1    1    2  502  501 -0.13529602648E+02 -0.98555712509E+01 -0.69331428317E+02  0.71323414003E+02  0.00000000000E+00 0. -1.
<mgrwt>
<rscale>  1 0.30000000E+03</rscale>
<asrwt>0</asrwt>
<pdfrwt beam="1">  1        1 0.10429210E+00 0.30000000E+03</pdfrwt>
<pdfrwt beam="2">0</pdfrwt>
<totfact> 0.32174000E+01</totfact>
</mgrwt>
</event>
<event>
 6    1  0.1904828E-004  0.3000000E+03  0.7818608E-02  0.1093470E+00
          1   -1    0    0  502    0  0.00000000000E+00  0.00000000000E+00  0.33952485983E+02  0.33952485983E+02  0.00000000000E+00 0.  1.
         13   -1    0    0    0    0 -0.00000000000E+00 -0.00000000000E+00 -0.10000000000E+04  0.10000000000E+04  0.00000000000E+00 0.  1.
    9000005    2    1    2  501    0 -0.10731607825E+02  0.92176611241E-01 -0.96958076640E+03  0.10226538234E+04  0.32499046772E+03 0.  0.
         13    1    3    3    0    0  0.94697057220E+02 -0.82260233738E+02 -0.78348280215E+03  0.79346050940E+03  0.00000000000E+00 0.  1.
          3    1    3    3  501    0 -0.10542866504E+03  0.82352410349E+02 -0.18609796424E+03  0.22919331404E+03  0.00000000000E+00 0.  1.
         21    1    1    2  502  501  0.10731607825E+02 -0.92176611241E-01  0.35332523812E+01  0.11298662550E+02  0.00000000000E+00 0.  1.
<mgrwt>
<rscale>  1 0.30000000E+03</rscale>
<asrwt>0</asrwt>
<pdfrwt beam="1">  1        1 0.12346385E+00 0.30000000E+03</pdfrwt>
<pdfrwt beam="2">0</pdfrwt>
<totfact> 0.24857888E+01</totfact>
</mgrwt>
</event>
<event>
 6    1  0.1904828E-004  0.3000000E+03  0.7818608E-02  0.1093470E+00
          1   -1    0    0  502    0  0.00000000000E+00  0.00000000000E+00  0.28713396610E+02  0.28713396610E+02  0.00000000000E+00 0.  1.
         13   -1    0    0    0    0 -0.00000000000E+00 -0.00000000000E+00 -0.10000000000E+04  0.10000000000E+04  0.00000000000E+00 0.  1.
    9000005    2    1    2  501    0 -0.17938757410E+02 -0.38113901484E+01 -0.95099315189E+03  0.10013610679E+04  0.31304901796E+03 0.  0.
         13    1    3    3    0    0  0.27289773444E+02  0.42008299957E+02 -0.19453379695E+01  0.50131959264E+02  0.00000000000E+00 0.  1.
          3    1    3    3  501    0 -0.45228530853E+02 -0.45819690105E+02 -0.94904781392E+03  0.95122910863E+03  0.00000000000E+00 0.  1.
         21    1    1    2  502  501  0.17938757410E+02  0.38113901484E+01 -0.20293451503E+02  0.27352328716E+02  0.00000000000E+00 0.  1.
<mgrwt>
<rscale>  1 0.30000000E+03</rscale>
<asrwt>0</asrwt>
<pdfrwt beam="1">  1        1 0.10441257E+00 0.30000000E+03</pdfrwt>
<pdfrwt beam="2">0</pdfrwt>
<totfact> 0.32118996E+01</totfact>
</mgrwt>
</event>
<event>
 6    1  0.1904828E-004  0.3000000E+03  0.7818608E-02  0.1093470E+00
          1   -1    0    0  502    0  0.00000000000E+00  0.00000000000E+00  0.49362707833E+02  0.49362707833E+02  0.00000000000E+00 0.  1.
         13   -1    0    0    0    0 -0.00000000000E+00 -0.00000000000E+00 -0.10000000000E+04  0.10000000000E+04  0.00000000000E+00 0.  1.
    9000005    2    1    2  501    0  0.11487817703E+02 -0.28854864495E+01 -0.97118592561E+03  0.10256447331E+04  0.32955230312E+03 0.  0.
         13    1    3    3    0    0 -0.52676867670E+02  0.13322993481E+03 -0.70912177944E+03  0.72344921453E+03  0.00000000000E+00 0.  1.
          1    1    3    3  501    0  0.64164685373E+02 -0.13611542126E+03 -0.26206414617E+03  0.30219551860E+03  0.00000000000E+00 0.  1.
         21    1    1    2  502  501 -0.11487817703E+02  0.28854864495E+01  0.20548633446E+02  0.23717974706E+02  0.00000000000E+00 0.  1.
<mgrwt>
<rscale>  1 0.30000000E+03</rscale>
<asrwt>0</asrwt>
<pdfrwt beam="1">  1        1 0.17950113E+00 0.30000000E+03</pdfrwt>
<pdfrwt beam="2">0</pdfrwt>
<totfact> 0.12845641E+01</totfact>
</mgrwt>
</event>
<event>
 6    1  0.1904828E-004  0.3000000E+03  0.7818608E-02  0.1093470E+00
          1   -1    0    0  502    0  0.00000000000E+00  0.00000000000E+00  0.36327126682E+02  0.36327126682E+02  0.00000000000E+00 0.  1.
         13   -1    0    0    0    0 -0.00000000000E+00 -0.00000000000E+00 -0.10000000000E+04  0.10000000000E+04  0.00000000000E+00 0.  1.
    9000005    2    1    2  501    0 -0.20569163133E+02 -0.40769089612E+02 -0.94200663266E+03  0.98578372826E+03  0.28689345371E+03 0.  0.
         13    1    3    3    0    0  0.11691340417E+03  0.15699299267E+02 -0.62012124548E+03  0.63124129394E+03  0.00000000000E+00 0.  1.
          1    1    3    3  501    0 -0.13748256731E+03 -0.56468388879E+02 -0.32188538718E+03  0.35454243432E+03  0.00000000000E+00 0.  1.
         21    1    1    2  502  501  0.20569163133E+02  0.40769089612E+02 -0.21666240656E+02  0.50543398421E+02  0.00000000000E+00 0.  1.
<mgrwt>
<rscale>  1 0.30000000E+03</rscale>
<asrwt>0</asrwt>
<pdfrwt beam="1">  1        1 0.13209892E+00 0.30000000E+03</pdfrwt>
<pdfrwt beam="2">0</pdfrwt>
<totfact> 0.22287894E+01</totfact>
</mgrwt>
</event>
<event>
 6    1  0.1904828E-004  0.3000000E+03  0.7818608E-02  0.1093470E+00
          1   -1    0    0  502    0  0.00000000000E+00  0.00000000000E+00  0.43032889933E+02  0.43032889933E+02  0.00000000000E+00 0.  1.
         13   -1    0    0    0    0 -0.00000000000E+00 -0.00000000000E+00 -0.10000000000E+04  0.10000000000E+04  0.00000000000E+00 0.  1.
    9000005    2    1    2  501    0 -0.23519358751E+02 -0.21028104069E+02 -0.95543745973E+03  0.10114467976E+04  0.33040663369E+03 0.  0.
         13    1    3    3    0    0  0.13573954912E+03 -0.38840291824E+02 -0.66411582540E+03  0.67895774759E+03  0.00000000000E+00 0.  1.
          3    1    3    3  501    0 -0.15925890787E+03  0.17812187755E+02 -0.29132163433E+03  0.33248905004E+03  0.00000000000E+00 0.  1.
         21    1    1    2  502  501  0.23519358751E+02  0.21028104069E+02 -0.15296503367E+01  0.31586092302E+02  0.00000000000E+00 0.  1.
<mgrwt>
<rscale>  1 0.30000000E+03</rscale>
<asrwt>0</asrwt>
<pdfrwt beam="1">  1        1 0.15648357E+00 0.30000000E+03</pdfrwt>
<pdfrwt beam="2">0</pdfrwt>
<totfact> 0.16662217E+01</totfact>
</mgrwt>
</event>
<event>
 6    1  0.1904828E-004  0.3000000E+03  0.7818608E-02  0.1093470E+00
          1   -1    0    0  502    0  0.00000000000E+00  0.00000000000E+00  0.30106892202E+02  0.30106892202E+02  0.00000000000E+00 0.  1.
         13   -1    0    0    0    0 -0.00000000000E+00 -0.00000000000E+00 -0.10000000000E+04  0.10000000000E+04  0.00000000000E+00 0.  1.
    9000005    2    1    2  501    0 -0.58958324020E+01  0.10933553677E+02 -0.96186261509E+03  0.10153152645E+04  0.32485549505E+03 0.  0.
         13    1    3    3    0    0 -0.49976871307E+01  0.16167782886E+03 -0.63642034690E+03  0.65665482194E+03  0.00000000000E+00 0.  1.
          3    1    3    3  501    0 -0.89814527123E+00 -0.15074427518E+03 -0.32544226819E+03  0.35866044260E+03  0.00000000000E+00 0.  1.
         21    1    1    2  502  501  0.58958324020E+01 -0.10933553677E+02 -0.80304927067E+01  0.14791627660E+02  0.00000000000E+00 0. -1.
<mgrwt>
<rscale>  1 0.30000000E+03</rscale>
<asrwt>0</asrwt>
<pdfrwt beam="1">  1        1 0.10947984E+00 0.30000000E+03</pdfrwt>
<pdfrwt beam="2">0</pdfrwt>
<totfact> 0.29922814E+01</totfact>
</mgrwt>
</event>
<event>
 6    1  0.1904828E-004  0.3000000E+03  0.7818608E-02  0.1093470E+00
          1   -1    0    0  502    0  0.00000000000E+00  0.00000000000E+00  0.31924022451E+02  0.31924022451E+02  0.00000000000E+00 0.  1.
         13   -1    0    0    0    0 -0.00000000000E+00 -0.00000000000E+00 -0.10000000000E+04  0.10000000000E+04  0.00000000000E+00 0.  1.
    9000005    2    1    2  501    0 -0.65141648451E+01 -0.11518933660E+02 -0.96183003784E+03  0.10172907747E+04  0.33104135460E+03 0.  0.
         13    1    3    3    0    0 -0.13056155866E+02  0.87190793665E+02 -0.89165287985E+03  0.89600086822E+03  0.00000000000E+00 0.  1.
          1    1    3    3  501    0  0.65419910212E+01 -0.98709727325E+02 -0.70177157995E+02  0.12128990650E+03  0.00000000000E+00 0.  1.
         21    1    1    2  502  501  0.65141648451E+01  0.11518933660E+02 -0.62459397056E+01  0.14633247729E+02  0.00000000000E+00 0.  1.
<mgrwt>
<rscale>  1 0.30000000E+03</rscale>
<asrwt>0</asrwt>
<pdfrwt beam="1">  1        1 0.11608760E+00 0.30000000E+03</pdfrwt>
<pdfrwt beam="2">0</pdfrwt>
<totfact> 0.27367279E+01</totfact>
</mgrwt>
</event>
<event>
 6    1  0.1904828E-004  0.3000000E+03  0.7818608E-02  0.1093470E+00
          1   -1    0    0  502    0  0.00000000000E+00  0.00000000000E+00  0.33520801682E+02  0.33520801682E+02  0.00000000000E+00 0.  1.
         13   -1    0    0    0    0 -0.00000000000E+00 -0.00000000000E+00 -0.10000000000E+04  0.10000000000E+04  0.00000000000E+00 0.  1.
    9000005    2    1    2  501    0  0.10322140692E+02 -0.68303759026E+01 -0.96866339966E+03  0.10209521359E+04  0.32230619197E+03 0.  0.
         13    1    3    3    0    0 -0.10116948780E+03  0.94892271176E+02 -0.24337149235E+03  0.28012406480E+03  0.00000000000E+00 0.  1.
          1    1    3    3  501    0  0.11149162850E+03 -0.10172264708E+03 -0.72529190731E+03  0.74082807112E+03  0.00000000000E+00 0.  1.
         21    1    1    2  502  501 -0.10322140692E+02  0.68303759026E+01  0.21842013431E+01  0.12568665758E+02  0.00000000000E+00 0.  1.
<mgrwt>
<rscale>  1 0.30000000E+03</rscale>
<asrwt>0</asrwt>
<pdfrwt beam="1">  1        1 0.12189408E+00 0.30000000E+03</pdfrwt>
<pdfrwt beam="2">0</pdfrwt>
<totfact> 0.25365362E+01</totfact>
</mgrwt>
</event>
<event>
 6    1  0.1904828E-004  0.3000000E+03  0.7818608E-02  0.1093470E+00
          1   -1    0    0  502    0  0.00000000000E+00  0.00000000000E+00  0.34396389554E+02  0.34396389554E+02  0.00000000000E+00 0.  1.
         13   -1    0    0    0    0 -0.00000000000E+00 -0.00000000000E+00 -0.10000000000E+04  0.10000000000E+04  0.00000000000E+00 0.  1.
    9000005    2    1    2  501    0  0.36198151537E+02  0.53750834310E+01 -0.83179784437E+03  0.89567659741E+03  0.33016619385E+03 0.  0.
         13    1    3    3    0    0 -0.65656279223E+02 -0.13826563128E+03 -0.44761372808E+03  0.47306044155E+03  0.00000000000E+00 0.  1.
          3    1    3    3  501    0  0.10185443076E+03  0.14364071471E+03 -0.38418411629E+03  0.42261615586E+03  0.00000000000E+00 0.  1.
         21    1    1    2  502  501 -0.36198151537E+02 -0.53750834310E+01 -0.13380576608E+03  0.13871979215E+03  0.00000000000E+00 0.  1.
<mgrwt>
<rscale>  1 0.30000000E+03</rscale>
<asrwt>0</asrwt>
<pdfrwt beam="1">  1        1 0.12507804E+00 0.30000000E+03</pdfrwt>
<pdfrwt beam="2">0</pdfrwt>
<totfact> 0.24349678E+01</totfact>
</mgrwt>
</event>
<event>
 6    1  0.1904828E-004  0.3000000E+03  0.7818608E-02  0.1093470E+00
          1   -1    0    0  502    0  0.00000000000E+00  0.00000000000E+00  0.30352374158E+02  0.30352374158E+02  0.00000000000E+00 0.  1.
         13   -1    0    0    0    0 -0.00000000000E+00 -0.00000000000E+00 -0.10000000000E+04  0.10000000000E+04  0.00000000000E+00 0.  1.
    9000005    2    1    2  501    0 -0.13231335152E+02 -0.13440357024E+02 -0.92982347408E+03  0.98628793850E+03  0.32838467267E+03 0.  0.
         13    1    3    3    0    0 -0.44390608802E+02 -0.10497925880E+03 -0.85874959172E+03  0.86628057361E+03  0.00000000000E+00 0.  1.
          3    1    3    3  501    0  0.31159273650E+02  0.91538901780E+02 -0.71073882360E+02  0.12000736489E+03  0.00000000000E+00 0.  1.
         21    1    1    2  502  501  0.13231335152E+02  0.13440357024E+02 -0.39824151760E+02  0.44064435662E+02  0.00000000000E+00 0.  1.
<mgrwt>
<rscale>  1 0.30000000E+03</rscale>
<asrwt>0</asrwt>
<pdfrwt beam="1">  1        1 0.11037250E+00 0.30000000E+03</pdfrwt>
<pdfrwt beam="2">0</pdfrwt>
<totfact> 0.29558306E+01</totfact>
</mgrwt>
</event>
<event>
 6    1  0.1904828E-004  0.3000000E+03  0.7818608E-02  0.1093470E+00
          1   -1    0    0  502    0  0.00000000000E+00  0.00000000000E+00  0.53894100136E+02  0.53894100136E+02  0.00000000000E+00 0.  1.
         13   -1    0    0    0    0 -0.00000000000E+00 -0.00000000000E+00 -0.10000000000E+04  0.10000000000E+04  0.00000000000E+00 0.  1.
    9000005    2    1    2  501    0 -0.24108465070E+02  0.78697603853E+02 -0.62463629552E+03  0.72205492605E+03  0.35272976004E+03 0.  0.
         13    1    3    3    0    0  0.52093289846E+02  0.15434253027E+03 -0.58555513136E+03  0.60779119717E+03  0.00000000000E+00 0.  1.
          3    1    3    3  501    0 -0.76201754916E+02 -0.75644926417E+02 -0.39081164157E+02  0.11426372888E+03  0.00000000000E+00 0.  1.
         21    1    1    2  502  501  0.24108465070E+02 -0.78697603853E+02 -0.32146960434E+03  0.33183917408E+03  0.00000000000E+00 0.  1.
<mgrwt>
<rscale>  1 0.30000000E+03</rscale>
<asrwt>0</asrwt>
<pdfrwt beam="1">  1        1 0.19597896E+00 0.30000000E+03</pdfrwt>
<pdfrwt beam="2">0</pdfrwt>
<totfact> 0.10704924E+01</totfact>
</mgrwt>
</event>
<event>
 6    1  0.1904828E-004  0.3000000E+03  0.7818608E-02  0.1093470E+00
          1   -1    0    0  502    0  0.00000000000E+00  0.00000000000E+00  0.48438881870E+02  0.48438881870E+02  0.00000000000E+00 0.  1.
         13   -1    0    0    0    0 -0.00000000000E+00 -0.00000000000E+00 -0.10000000000E+04  0.10000000000E+04  0.00000000000E+00 0.  1.
    9000005    2    1    2  501    0 -0.18792924122E+02 -0.61652046522E+02 -0.91512388480E+03  0.97439956252E+03  0.32840315782E+03 0.  0.
         13    1    3    3    0    0  0.87415619945E+02  0.10339139695E+03 -0.31096769391E+03  0.33916394005E+03  0.00000000000E+00 0.  1.
          3    1    3    3  501    0 -0.10620854407E+03 -0.16504344347E+03 -0.60415619088E+03  0.63523562246E+03  0.00000000000E+00 0.  1.
         21    1    1    2  502  501  0.18792924122E+02  0.61652046522E+02 -0.36437233333E+02  0.74039319354E+02  0.00000000000E+00 0.  1.
<mgrwt>
<rscale>  1 0.30000000E+03</rscale>
<asrwt>0</asrwt>
<pdfrwt beam="1">  1        1 0.17614176E+00 0.30000000E+03</pdfrwt>
<pdfrwt beam="2">0</pdfrwt>
<totfact> 0.13336442E+01</totfact>
</mgrwt>
</event>
<event>
 6    1  0.1904828E-004  0.3000000E+03  0.7818608E-02  0.1093470E+00
          1   -1    0    0  502    0  0.00000000000E+00  0.00000000000E+00  0.28190277674E+02  0.28190277674E+02  0.00000000000E+00 0.  1.
         13   -1    0    0    0    0 -0.00000000000E+00 -0.00000000000E+00 -0.10000000000E+04  0.10000000000E+04  0.00000000000E+00 0.  1.
    9000005    2    1    2  501    0  0.12266421537E+01  0.10121592182E+02 -0.95184221729E+03  0.10057703638E+04  0.32475601129E+03 0.  0.
         13    1    3    3    0    0  0.78831538939E+01 -0.14853875889E+03 -0.62412281864E+03  0.64160361576E+03  0.00000000000E+00 0.  1.
          1    1    3    3  501    0 -0.66565117402E+01  0.15866035107E+03 -0.32771939865E+03  0.36416674808E+03  0.00000000000E+00 0.  1.
         21    1    1    2  502  501 -0.12266421537E+01 -0.10121592182E+02 -0.19967505032E+02  0.22419913837E+02  0.00000000000E+00 0. -1.
<mgrwt>
<rscale>  1 0.30000000E+03</rscale>
<asrwt>0</asrwt>
<pdfrwt beam="1">  1        1 0.10251032E+00 0.30000000E+03</pdfrwt>
<pdfrwt beam="2">0</pdfrwt>
<totfact> 0.33003787E+01</totfact>
</mgrwt>
</event>
<event>
 6    1  0.1904828E-004  0.3000000E+03  0.7818608E-02  0.1093470E+00
          3   -1    0    0  502    0  0.00000000000E+00  0.00000000000E+00  0.31368497519E+02  0.31368497519E+02  0.00000000000E+00 0.  1.
         13   -1    0    0    0    0 -0.00000000000E+00 -0.00000000000E+00 -0.10000000000E+04  0.10000000000E+04  0.00000000000E+00 0.  1.
    9000005    2    1    2  501    0 -0.50038385827E+01 -0.92570671907E+01 -0.96506416118E+03  0.10202573492E+04  0.33085569612E+03 0.  0.
         13    1    3    3    0    0 -0.15475334853E+03 -0.21371931609E+02 -0.68341169284E+03  0.70103987066E+03  0.00000000000E+00 0.  1.
          3    1    3    3  501    0  0.14974950995E+03  0.12114864419E+02 -0.28165246834E+03  0.31921747852E+03  0.00000000000E+00 0.  1.
         21    1    1    2  502  501  0.50038385827E+01  0.92570671907E+01 -0.35673412991E+01  0.11111148342E+02  0.00000000000E+00 0.  1.
<mgrwt>
<rscale>  1 0.30000000E+03</rscale>
<asrwt>0</asrwt>
<pdfrwt beam="1">  1        3 0.11406750E+00 0.30000000E+03</pdfrwt>
<pdfrwt beam="2">0</pdfrwt>
<totfact> 0.27078374E+00</totfact>
</mgrwt>
</event>
<event>
 6    1  0.1904828E-004  0.3000000E+03  0.7818608E-02  0.1093470E+00
          1   -1    0    0  502    0  0.00000000000E+00  0.00000000000E+00  0.31171761363E+02  0.31171761363E+02  0.00000000000E+00 0.  1.
         13   -1    0    0    0    0 -0.00000000000E+00 -0.00000000000E+00 -0.10000000000E+04  0.10000000000E+04  0.00000000000E+00 0.  1.
    9000005    2    1    2  501    0 -0.25011566328E+02 -0.76353225458E+01 -0.90351969643E+03  0.96082204718E+03  0.32580252901E+03 0.  0.
         13    1    3    3    0    0 -0.14198656796E+03 -0.18911440764E+01 -0.18705038272E+03  0.23484379400E+03  0.00000000000E+00 0.  1.
          3    1    3    3  501    0  0.11697500163E+03 -0.57441784694E+01 -0.71646931371E+03  0.72597825317E+03  0.00000000000E+00 0.  1.
         21    1    1    2  502  501  0.25011566328E+02  0.76353225458E+01 -0.65308542211E+02  0.70349714188E+02  0.00000000000E+00 0.  1.
<mgrwt>
<rscale>  1 0.30000000E+03</rscale>
<asrwt>0</asrwt>
<pdfrwt beam="1">  1        1 0.11335210E+00 0.30000000E+03</pdfrwt>
<pdfrwt beam="2">0</pdfrwt>
<totfact> 0.28386183E+01</totfact>
</mgrwt>
</event>
<event>
 6    1  0.1904828E-004  0.3000000E+03  0.7818608E-02  0.1093470E+00
          1   -1    0    0  502    0  0.00000000000E+00  0.00000000000E+00  0.30108863603E+02  0.30108863603E+02  0.00000000000E+00 0.  1.
         13   -1    0    0    0    0 -0.00000000000E+00 -0.00000000000E+00 -0.10000000000E+04  0.10000000000E+04  0.00000000000E+00 0.  1.
    9000005    2    1    2  501    0  0.12371613678E+01  0.86935967585E+01 -0.95495154091E+03  0.10127796771E+04  0.33721375949E+03 0.  0.
         13    1    3    3    0    0 -0.11223153813E+03  0.12402794145E+03 -0.59643452420E+03  0.61944571196E+03  0.00000000000E+00 0.  1.
          1    1    3    3  501    0  0.11346869950E+03 -0.11533434469E+03 -0.35851701671E+03  0.39333396510E+03  0.00000000000E+00 0.  1.
         21    1    1    2  502  501 -0.12371613678E+01 -0.86935967585E+01 -0.14939595489E+02  0.17329186542E+02  0.00000000000E+00 0.  1.
<mgrwt>
<rscale>  1 0.30000000E+03</rscale>
<asrwt>0</asrwt>
<pdfrwt beam="1">  1        1 0.10948701E+00 0.30000000E+03</pdfrwt>
<pdfrwt beam="2">0</pdfrwt>
<totfact> 0.29919861E+01</totfact>
</mgrwt>
</event>
<event>
 6    1  0.1904828E-004  0.3000000E+03  0.7818608E-02  0.1093470E+00
          1   -1    0    0  502    0  0.00000000000E+00  0.00000000000E+00  0.29617085558E+02  0.29617085558E+02  0.00000000000E+00 0.  1.
         13   -1    0    0    0    0 -0.00000000000E+00 -0.00000000000E+00 -0.10000000000E+04  0.10000000000E+04  0.00000000000E+00 0.  1.
    9000005    2    1    2  501    0 -0.99734627112E+01 -0.23475252317E+02 -0.87563547139E+03  0.93149657092E+03  0.31669831928E+03 0.  0.
         13    1    3    3    0    0 -0.56802184701E+01 -0.11086011389E+02 -0.90198177991E+03  0.90206778893E+03  0.00000000000E+00 0.  1.
          1    1    3    3  501    0 -0.42932442411E+01 -0.12389240928E+02  0.26346308516E+02  0.29428781988E+02  0.00000000000E+00 0.  1.
         21    1    1    2  502  501  0.99734627112E+01  0.23475252317E+02 -0.94747443047E+02  0.98120514643E+02  0.00000000000E+00 0.  1.
<mgrwt>
<rscale>  1 0.30000000E+03</rscale>
<asrwt>0</asrwt>
<pdfrwt beam="1">  1        1 0.10769872E+00 0.30000000E+03</pdfrwt>
<pdfrwt beam="2">0</pdfrwt>
<totfact> 0.30669490E+01</totfact>
</mgrwt>
</event>
<event>
 6    1  0.1904828E-004  0.3000000E+03  0.7818608E-02  0.1093470E+00
          1   -1    0    0  502    0  0.00000000000E+00  0.00000000000E+00  0.51938683460E+02  0.51938683460E+02  0.00000000000E+00 0.  1.
         13   -1    0    0    0    0 -0.00000000000E+00 -0.00000000000E+00 -0.10000000000E+04  0.10000000000E+04  0.00000000000E+00 0.  1.
    9000005    2    1    2  501    0  0.51977915947E+02 -0.69812922506E+02 -0.89123378871E+03  0.94799198647E+03  0.31115204063E+03 0.  0.
         13    1    3    3    0    0  0.49798289604E+02 -0.19055500292E+03 -0.46524390777E+03  0.50521576826E+03  0.00000000000E+00 0.  1.
          3    1    3    3  501    0  0.21796263435E+01  0.12074208041E+03 -0.42598988094E+03  0.44277621821E+03  0.00000000000E+00 0.  1.
         21    1    1    2  502  501 -0.51977915947E+02  0.69812922506E+02 -0.56827527834E+02  0.10394669699E+03  0.00000000000E+00 0.  1.
<mgrwt>
<rscale>  1 0.30000000E+03</rscale>
<asrwt>0</asrwt>
<pdfrwt beam="1">  1        1 0.18886834E+00 0.30000000E+03</pdfrwt>
<pdfrwt beam="2">0</pdfrwt>
<totfact> 0.11577929E+01</totfact>
</mgrwt>
</event>
<event>
 6    1  0.1904828E-004  0.3000000E+03  0.7818608E-02  0.1093470E+00
          1   -1    0    0  502    0  0.00000000000E+00  0.00000000000E+00  0.30752926261E+02  0.30752926261E+02  0.00000000000E+00 0.  1.
         13   -1    0    0    0    0 -0.00000000000E+00 -0.00000000000E+00 -0.10000000000E+04  0.10000000000E+04  0.00000000000E+00 0.  1.
    9000005    2    1    2  501    0 -0.12645969027E+02  0.14748362036E+02 -0.94054143071E+03  0.99609100685E+03  0.32741667083E+03 0.  0.
         13    1    3    3    0    0  0.11749628485E+02 -0.59424008024E+02 -0.89487970134E+01  0.61231915430E+02  0.00000000000E+00 0.  1.
          3    1    3    3  501    0 -0.24395597512E+02  0.74172370060E+02 -0.93159263369E+03  0.93485909142E+03  0.00000000000E+00 0.  1.
         21    1    1    2  502  501  0.12645969027E+02 -0.14748362036E+02 -0.28705643032E+02  0.34661919411E+02  0.00000000000E+00 0. -1.
<mgrwt>
<rscale>  1 0.30000000E+03</rscale>
<asrwt>0</asrwt>
<pdfrwt beam="1">  1        1 0.11182906E+00 0.30000000E+03</pdfrwt>
<pdfrwt beam="2">0</pdfrwt>
<totfact> 0.28976915E+01</totfact>
</mgrwt>
</event>
<event>
 6    1  0.1904828E-004  0.3000000E+03  0.7818608E-02  0.1093470E+00
          1   -1    0    0  502    0  0.00000000000E+00  0.00000000000E+00  0.27210478313E+02  0.27210478313E+02  0.00000000000E+00 0.  1.
         13   -1    0    0    0    0 -0.00000000000E+00 -0.00000000000E+00 -0.10000000000E+04  0.10000000000E+04  0.00000000000E+00 0.  1.
    9000005    2    1    2  501    0  0.91184191245E+01 -0.50155707397E+00 -0.95906170502E+03  0.10107226016E+04  0.31886897983E+03 0.  0.
         13    1    3    3    0    0  0.14028251239E+03 -0.72476248360E+02 -0.35718760301E+03  0.39053165506E+03  0.00000000000E+00 0.  1.
          3    1    3    3  501    0 -0.13116409327E+03  0.71974691286E+02 -0.60187410201E+03  0.62019094658E+03  0.00000000000E+00 0.  1.
         21    1    1    2  502  501 -0.91184191245E+01  0.50155707397E+00 -0.13727816667E+02  0.16487876675E+02  0.00000000000E+00 0. -1.
<mgrwt>
<rscale>  1 0.30000000E+03</rscale>
<asrwt>0</asrwt>
<pdfrwt beam="1">  1        1 0.98947403E-01 0.30000000E+03</pdfrwt>
<pdfrwt beam="2">0</pdfrwt>
<totfact> 0.34759741E+01</totfact>
</mgrwt>
</event>
<event>
 6    1  0.1904828E-004  0.3000000E+03  0.7818608E-02  0.1093470E+00
          1   -1    0    0  502    0  0.00000000000E+00  0.00000000000E+00  0.35146040858E+02  0.35146040858E+02  0.00000000000E+00 0.  1.
         13   -1    0    0    0    0 -0.00000000000E+00 -0.00000000000E+00 -0.10000000000E+04  0.10000000000E+04  0.00000000000E+00 0.  1.
    9000005    2    1    2  501    0 -0.29762046171E+01  0.10650528257E+02 -0.96874134420E+03  0.10234241251E+04  0.32987096925E+03 0.  0.
         13    1    3    3    0    0 -0.14514235138E+03  0.14135462011E+02 -0.23916912651E+03  0.28012137463E+03  0.00000000000E+00 0.  1.
          3    1    3    3  501    0  0.14216614676E+03 -0.34849337536E+01 -0.72957221769E+03  0.74330275048E+03  0.00000000000E+00 0.  1.
         21    1    1    2  502  501  0.29762046171E+01 -0.10650528257E+02  0.38873850610E+01  0.11721915743E+02  0.00000000000E+00 0. -1.
<mgrwt>
<rscale>  1 0.30000000E+03</rscale>
<asrwt>0</asrwt>
<pdfrwt beam="1">  1        1 0.12780405E+00 0.30000000E+03</pdfrwt>
<pdfrwt beam="2">0</pdfrwt>
<totfact> 0.23521082E+01</totfact>
</mgrwt>
</event>
<event>
 6    1  0.1904828E-004  0.3000000E+03  0.7818608E-02  0.1093470E+00
          1   -1    0    0  502    0  0.00000000000E+00  0.00000000000E+00  0.33290210256E+02  0.33290210256E+02  0.00000000000E+00 0.  1.
         13   -1    0    0    0    0 -0.00000000000E+00 -0.00000000000E+00 -0.10000000000E+04  0.10000000000E+04  0.00000000000E+00 0.  1.
    9000005    2    1    2  501    0  0.42388185568E+02  0.52583001503E+01 -0.85069716462E+03  0.90966441528E+03  0.31934193982E+03 0.  0.
         13    1    3    3    0    0  0.15777808353E+03 -0.80907069906E+02 -0.43613640529E+03  0.47080233816E+03  0.00000000000E+00 0.  1.
          1    1    3    3  501    0 -0.11538989796E+03  0.86165370056E+02 -0.41456075933E+03  0.43886207711E+03  0.00000000000E+00 0.  1.
         21    1    1    2  502  501 -0.42388185568E+02 -0.52583001503E+01 -0.11601262512E+03  0.12362579498E+03  0.00000000000E+00 0.  1.
<mgrwt>
<rscale>  1 0.30000000E+03</rscale>
<asrwt>0</asrwt>
<pdfrwt beam="1">  1        1 0.12105557E+00 0.30000000E+03</pdfrwt>
<pdfrwt beam="2">0</pdfrwt>
<totfact> 0.25642021E+01</totfact>
</mgrwt>
</event>
<event>
 6    1  0.1904828E-004  0.3000000E+03  0.7818608E-02  0.1093470E+00
          1   -1    0    0  502    0  0.00000000000E+00  0.00000000000E+00  0.34428417849E+02  0.34428417849E+02  0.00000000000E+00 0.  1.
         13   -1    0    0    0    0 -0.00000000000E+00 -0.00000000000E+00 -0.10000000000E+04  0.10000000000E+04  0.00000000000E+00 0.  1.
    9000005    2    1    2  501    0 -0.48332099630E+01  0.29551884051E+02 -0.94282513885E+03  0.99682423653E+03  0.32224624486E+03 0.  0.
         13    1    3    3    0    0  0.63000855087E+02  0.38452988587E+02 -0.92250754223E+03  0.92545551246E+03  0.00000000000E+00 0.  1.
          3    1    3    3  501    0 -0.67834065050E+02 -0.89011045361E+01 -0.20317596617E+02  0.71368724071E+02  0.00000000000E+00 0.  1.
         21    1    1    2  502  501  0.48332099630E+01 -0.29551884051E+02 -0.22746443302E+02  0.37604181316E+02  0.00000000000E+00 0.  1.
<mgrwt>
<rscale>  1 0.30000000E+03</rscale>
<asrwt>0</asrwt>
<pdfrwt beam="1">  1        1 0.12519451E+00 0.30000000E+03</pdfrwt>
<pdfrwt beam="2">0</pdfrwt>
<totfact> 0.24313524E+01</totfact>
</mgrwt>
</event>
<event>
 6    1  0.1904828E-004  0.3000000E+03  0.7818608E-02  0.1093470E+00
          1   -1    0    0  502    0  0.00000000000E+00  0.00000000000E+00  0.37002297044E+02  0.37002297044E+02  0.00000000000E+00 0.  1.
         13   -1    0    0    0    0 -0.00000000000E+00 -0.00000000000E+00 -0.10000000000E+04  0.10000000000E+04  0.00000000000E+00 0.  1.
    9000005    2    1    2  501    0 -0.30878544652E+01 -0.10565089379E+02 -0.94607655802E+03  0.10168161358E+04  0.37246885035E+03 0.  0.
         13    1    3    3    0    0 -0.58928839727E+02  0.15366523611E+03 -0.24894807627E+03  0.29843049043E+03  0.00000000000E+00 0.  1.
          3    1    3    3  501    0  0.55840985262E+02 -0.16423032549E+03 -0.69712848176E+03  0.71838564540E+03  0.00000000000E+00 0.  1.
         21    1    1    2  502  501  0.30878544652E+01  0.10565089379E+02 -0.16921144933E+02  0.20186161216E+02  0.00000000000E+00 0. -1.
<mgrwt>
<rscale>  1 0.30000000E+03</rscale>
<asrwt>0</asrwt>
<pdfrwt beam="1">  1        1 0.13455409E+00 0.30000000E+03</pdfrwt>
<pdfrwt beam="2">0</pdfrwt>
<totfact> 0.21620816E+01</totfact>
</mgrwt>
</event>
<event>
 6    1  0.1904828E-004  0.3000000E+03  0.7818608E-02  0.1093470E+00
          1   -1    0    0  502    0  0.00000000000E+00  0.00000000000E+00  0.38430451044E+02  0.38430451044E+02  0.00000000000E+00 0.  1.
         13   -1    0    0    0    0 -0.00000000000E+00 -0.00000000000E+00 -0.10000000000E+04  0.10000000000E+04  0.00000000000E+00 0.  1.
    9000005    2    1    2  501    0  0.40359511323E+01  0.36157460297E+02 -0.93998029461E+03  0.99612505257E+03  0.32768661137E+03 0.  0.
         13    1    3    3    0    0  0.82994309549E+02  0.14340830645E+03 -0.72126144122E+03  0.74004869053E+03  0.00000000000E+00 0.  1.
          3    1    3    3  501    0 -0.78958358417E+02 -0.10725084615E+03 -0.21871885340E+03  0.25607636204E+03  0.00000000000E+00 0.  1.
         21    1    1    2  502  501 -0.40359511323E+01 -0.36157460297E+02 -0.21589254345E+02  0.42305398472E+02  0.00000000000E+00 0.  1.
<mgrwt>
<rscale>  1 0.30000000E+03</rscale>
<asrwt>0</asrwt>
<pdfrwt beam="1">  1        1 0.13974739E+00 0.30000000E+03</pdfrwt>
<pdfrwt beam="2">0</pdfrwt>
<totfact> 0.20294061E+01</totfact>
</mgrwt>
</event>
<event>
 6    1  0.1904828E-004  0.3000000E+03  0.7818608E-02  0.1093470E+00
          1   -1    0    0  502    0  0.00000000000E+00  0.00000000000E+00  0.44544556398E+02  0.44544556398E+02  0.00000000000E+00 0.  1.
         13   -1    0    0    0    0 -0.00000000000E+00 -0.00000000000E+00 -0.10000000000E+04  0.10000000000E+04  0.00000000000E+00 0.  1.
    9000005    2    1    2  501    0 -0.45815341588E+02  0.10112126631E+02 -0.93924859112E+03  0.99490623756E+03  0.32472943350E+03 0.  0.
         13    1    3    3    0    0 -0.77130123801E+02  0.21880128946E+02 -0.95469772127E+03  0.95805821067E+03  0.00000000000E+00 0.  1.
          3    1    3    3  501    0  0.31314782213E+02 -0.11768002316E+02  0.15449130143E+02  0.36848026891E+02  0.00000000000E+00 0.  1.
         21    1    1    2  502  501  0.45815341588E+02 -0.10112126631E+02 -0.16206852479E+02  0.49638318838E+02  0.00000000000E+00 0. -1.
<mgrwt>
<rscale>  1 0.30000000E+03</rscale>
<asrwt>0</asrwt>
<pdfrwt beam="1">  1        1 0.16198055E+00 0.30000000E+03</pdfrwt>
<pdfrwt beam="2">0</pdfrwt>
<totfact> 0.15645219E+01</totfact>
</mgrwt>
</event>
<event>
 6    1  0.1904828E-004  0.3000000E+03  0.7818608E-02  0.1093470E+00
          1   -1    0    0  502    0  0.00000000000E+00  0.00000000000E+00  0.30921705210E+02  0.30921705210E+02  0.00000000000E+00 0.  1.
         13   -1    0    0    0    0 -0.00000000000E+00 -0.00000000000E+00 -0.10000000000E+04  0.10000000000E+04  0.00000000000E+00 0.  1.
    9000005    2    1    2  501    0  0.95657568213E+01  0.83158631787E+01 -0.95994956055E+03  0.10153014916E+04  0.33041383565E+03 0.  0.
         13    1    3    3    0    0 -0.70943189142E+02  0.64426578236E+02 -0.88913810435E+03  0.89428758723E+03  0.00000000000E+00 0.  1.
          3    1    3    3  501    0  0.80508945963E+02 -0.56110715058E+02 -0.70811456193E+02  0.12101390438E+03  0.00000000000E+00 0.  1.
         21    1    1    2  502  501 -0.95657568213E+01 -0.83158631787E+01 -0.91287342431E+01  0.15620213598E+02  0.00000000000E+00 0. -1.
<mgrwt>
<rscale>  1 0.30000000E+03</rscale>
<asrwt>0</asrwt>
<pdfrwt beam="1">  1        1 0.11244280E+00 0.30000000E+03</pdfrwt>
<pdfrwt beam="2">0</pdfrwt>
<totfact> 0.28736771E+01</totfact>
</mgrwt>
</event>
<event>
 6    1  0.1904828E-004  0.3000000E+03  0.7818608E-02  0.1093470E+00
          3   -1    0    0  502    0  0.00000000000E+00  0.00000000000E+00  0.31673217896E+02  0.31673217896E+02  0.00000000000E+00 0.  1.
         13   -1    0    0    0    0 -0.00000000000E+00 -0.00000000000E+00 -0.10000000000E+04  0.10000000000E+04  0.00000000000E+00 0.  1.
    9000005    2    1    2  501    0  0.40737286079E-01  0.19788556154E+02 -0.94678794478E+03  0.10024241132E+04  0.32871735832E+03 0.  0.
         13    1    3    3    0    0 -0.14876420248E+03 -0.34941804362E+02 -0.62878279535E+03  0.64708540499E+03  0.00000000000E+00 0.  1.
          3    1    3    3  501    0  0.14880493976E+03  0.54730360515E+02 -0.31800514943E+03  0.35533870817E+03  0.00000000000E+00 0.  1.
         21    1    1    2  502  501 -0.40737286079E-01 -0.19788556154E+02 -0.21538837325E+02  0.29249104729E+02  0.00000000000E+00 0. -1.
<mgrwt>
<rscale>  1 0.30000000E+03</rscale>
<asrwt>0</asrwt>
<pdfrwt beam="1">  1        3 0.11517558E+00 0.30000000E+03</pdfrwt>
<pdfrwt beam="2">0</pdfrwt>
<totfact> 0.26296406E+00</totfact>
</mgrwt>
</event>
<event>
 6    1  0.1904828E-004  0.3000000E+03  0.7818608E-02  0.1093470E+00
          1   -1    0    0  502    0  0.00000000000E+00  0.00000000000E+00  0.34408455899E+02  0.34408455899E+02  0.00000000000E+00 0.  1.
         13   -1    0    0    0    0 -0.00000000000E+00 -0.00000000000E+00 -0.10000000000E+04  0.10000000000E+04  0.00000000000E+00 0.  1.
    9000005    2    1    2  501    0 -0.12889260118E+01  0.23170693035E+02 -0.95258374510E+03  0.10078049753E+04  0.32820197201E+03 0.  0.
         13    1    3    3    0    0  0.10724749276E+03 -0.98752418775E+02 -0.62533233836E+03  0.64210170403E+03  0.00000000000E+00 0.  1.
          1    1    3    3  501    0 -0.10853641877E+03  0.12192311181E+03 -0.32725140674E+03  0.36570327126E+03  0.00000000000E+00 0.  1.
         21    1    1    2  502  501  0.12889260118E+01 -0.23170693035E+02 -0.13007798997E+02  0.26603480613E+02  0.00000000000E+00 0. -1.
<mgrwt>
<rscale>  1 0.30000000E+03</rscale>
<asrwt>0</asrwt>
<pdfrwt beam="1">  1        1 0.12512192E+00 0.30000000E+03</pdfrwt>
<pdfrwt beam="2">0</pdfrwt>
<totfact> 0.24336050E+01</totfact>
</mgrwt>
</event>
<event>
 6    1  0.1904828E-004  0.3000000E+03  0.7818608E-02  0.1093470E+00
          1   -1    0    0  502    0  0.00000000000E+00  0.00000000000E+00  0.29675786733E+02  0.29675786733E+02  0.00000000000E+00 0.  1.
         13   -1    0    0    0    0 -0.00000000000E+00 -0.00000000000E+00 -0.10000000000E+04  0.10000000000E+04  0.00000000000E+00 0.  1.
    9000005    2    1    2  501    0  0.29274257004E+02 -0.95033255847E+01 -0.88634082606E+03  0.94023024661E+03  0.31222677878E+03 0.  0.
         13    1    3    3    0    0 -0.10922969660E+03  0.12467013936E+02 -0.69141487646E+03  0.70010076735E+03  0.00000000000E+00 0.  1.
          1    1    3    3  501    0  0.13850395361E+03 -0.21970339521E+02 -0.19492594960E+03  0.24012947926E+03  0.00000000000E+00 0.  1.
         21    1    1    2  502  501 -0.29274257004E+02  0.95033255847E+01 -0.83983387211E+02  0.89445540122E+02  0.00000000000E+00 0.  1.
<mgrwt>
<rscale>  1 0.30000000E+03</rscale>
<asrwt>0</asrwt>
<pdfrwt beam="1">  1        1 0.10791218E+00 0.30000000E+03</pdfrwt>
<pdfrwt beam="2">0</pdfrwt>
<totfact> 0.30578610E+01</totfact>
</mgrwt>
</event>
<event>
 6    1  0.1904828E-004  0.3000000E+03  0.7818608E-02  0.1093470E+00
          1   -1    0    0  502    0  0.00000000000E+00  0.00000000000E+00  0.34042034368E+02  0.34042034368E+02  0.00000000000E+00 0.  1.
         13   -1    0    0    0    0 -0.00000000000E+00 -0.00000000000E+00 -0.10000000000E+04  0.10000000000E+04  0.00000000000E+00 0.  1.
    9000005    2    1    2  501    0 -0.10842816906E+02  0.99404760968E+01 -0.96506968647E+03  0.10193053867E+04  0.32773097495E+03 0.  0.
         13    1    3    3    0    0  0.94004224555E+02 -0.11877416595E+03 -0.33360733299E+03  0.36638497425E+03  0.00000000000E+00 0.  1.
          3    1    3    3  501    0 -0.10484704146E+03  0.12871464204E+03 -0.63146235348E+03  0.65292041249E+03  0.00000000000E+00 0.  1.
         21    1    1    2  502  501  0.10842816906E+02 -0.99404760968E+01 -0.88827915902E+00  0.14736647629E+02  0.00000000000E+00 0.  1.
<mgrwt>
<rscale>  1 0.30000000E+03</rscale>
<asrwt>0</asrwt>
<pdfrwt beam="1">  1        1 0.12378948E+00 0.30000000E+03</pdfrwt>
<pdfrwt beam="2">0</pdfrwt>
<totfact> 0.24754278E+01</totfact>
</mgrwt>
</event>
<event>
 6    1  0.1904828E-004  0.3000000E+03  0.7818608E-02  0.1093470E+00
          1   -1    0    0  502    0  0.00000000000E+00  0.00000000000E+00  0.29869845696E+02  0.29869845696E+02  0.00000000000E+00 0.  1.
         13   -1    0    0    0    0 -0.00000000000E+00 -0.00000000000E+00 -0.10000000000E+04  0.10000000000E+04  0.00000000000E+00 0.  1.
    9000005    2    1    2  501    0  0.61792402724E+01 -0.10689993707E+02 -0.95738487034E+03  0.10121243888E+04  0.32811206858E+03 0.  0.
         13    1    3    3    0    0 -0.94692590277E+02 -0.11637035995E+03 -0.70247568620E+03  0.71831806119E+03  0.00000000000E+00 0.  1.
          3    1    3    3  501    0  0.10087183055E+03  0.10568036624E+03 -0.25490918414E+03  0.29380632765E+03  0.00000000000E+00 0.  1.
         21    1    1    2  502  501 -0.61792402724E+01  0.10689993707E+02 -0.12745283963E+02  0.17745456858E+02  0.00000000000E+00 0.  1.
<mgrwt>
<rscale>  1 0.30000000E+03</rscale>
<asrwt>0</asrwt>
<pdfrwt beam="1">  1        1 0.10861785E+00 0.30000000E+03</pdfrwt>
<pdfrwt beam="2">0</pdfrwt>
<totfact> 0.30280896E+01</totfact>
</mgrwt>
</event>
<event>
 6    1  0.1904828E-004  0.3000000E+03  0.7818608E-02  0.1093470E+00
          1   -1    0    0  502    0  0.00000000000E+00  0.00000000000E+00  0.33238034931E+02  0.33238034931E+02  0.00000000000E+00 0.  1.
         13   -1    0    0    0    0 -0.00000000000E+00 -0.00000000000E+00 -0.10000000000E+04  0.10000000000E+04  0.00000000000E+00 0.  1.
    9000005    2    1    2  501    0 -0.42345810512E+01  0.10115774156E+02 -0.96795973239E+03  0.10222064797E+04  0.32838968180E+03 0.  0.
         13    1    3    3    0    0  0.81427617407E+02 -0.17143165973E+01 -0.91945803357E+03  0.92305821661E+03  0.00000000000E+00 0.  1.
          1    1    3    3  501    0 -0.85662198458E+02  0.11830090754E+02 -0.48501698826E+02  0.99148263126E+02  0.00000000000E+00 0.  1.
         21    1    1    2  502  501  0.42345810512E+01 -0.10115774156E+02  0.11977673238E+01  0.11031555195E+02  0.00000000000E+00 0. -1.
<mgrwt>
<rscale>  1 0.30000000E+03</rscale>
<asrwt>0</asrwt>
<pdfrwt beam="1">  1        1 0.12086584E+00 0.30000000E+03</pdfrwt>
<pdfrwt beam="2">0</pdfrwt>
<totfact> 0.25705174E+01</totfact>
</mgrwt>
</event>
<event>
 6    1  0.1904828E-004  0.3000000E+03  0.7818608E-02  0.1093470E+00
          1   -1    0    0  502    0  0.00000000000E+00  0.00000000000E+00  0.49989123117E+02  0.49989123117E+02  0.00000000000E+00 0.  1.
         13   -1    0    0    0    0 -0.00000000000E+00 -0.00000000000E+00 -0.10000000000E+04  0.10000000000E+04  0.00000000000E+00 0.  1.
    9000005    2    1    2  501    0  0.68395832250E+02  0.50309847815E+02 -0.86616112499E+03  0.93065827401E+03  0.32966749594E+03 0.  0.
         13    1    3    3    0    0 -0.57311092506E+02  0.10186159676E+03 -0.72639144817E+03  0.73573424699E+03  0.00000000000E+00 0.  1.
          1    1    3    3  501    0  0.12570692476E+03 -0.51551748947E+02 -0.13976967682E+03  0.19492402702E+03  0.00000000000E+00 0.  1.
         21    1    1    2  502  501 -0.68395832250E+02 -0.50309847815E+02 -0.83849751890E+02  0.11933084911E+03  0.00000000000E+00 0.  1.
<mgrwt>
<rscale>  1 0.30000000E+03</rscale>
<asrwt>0</asrwt>
<pdfrwt beam="1">  1        1 0.18177901E+00 0.30000000E+03</pdfrwt>
<pdfrwt beam="2">0</pdfrwt>
<totfact> 0.12524070E+01</totfact>
</mgrwt>
</event>
<event>
 6    1  0.1904828E-004  0.3000000E+03  0.7818608E-02  0.1093470E+00
          1   -1    0    0  502    0  0.00000000000E+00  0.00000000000E+00  0.39856279167E+02  0.39856279167E+02  0.00000000000E+00 0.  1.
         13   -1    0    0    0    0 -0.00000000000E+00 -0.00000000000E+00 -0.10000000000E+04  0.10000000000E+04  0.00000000000E+00 0.  1.
    9000005    2    1    2  501    0  0.38362857400E+01  0.15373566835E+02 -0.96826715260E+03  0.10220502749E+04  0.32679415832E+03 0.  0.
         13    1    3    3    0    0 -0.36610591127E+02 -0.11485887141E+03 -0.78179226756E+03  0.79103226568E+03  0.00000000000E+00 0.  1.
          3    1    3    3  501    0  0.40446876867E+02  0.13023243825E+03 -0.18647488504E+03  0.23101800919E+03  0.00000000000E+00 0.  1.
         21    1    1    2  502  501 -0.38362857400E+01 -0.15373566835E+02  0.81234317627E+01  0.17806004300E+02  0.00000000000E+00 0.  1.
<mgrwt>
<rscale>  1 0.30000000E+03</rscale>
<asrwt>0</asrwt>
<pdfrwt beam="1">  1        1 0.14493223E+00 0.30000000E+03</pdfrwt>
<pdfrwt beam="2">0</pdfrwt>
<totfact> 0.19071548E+01</totfact>
</mgrwt>
</event>
<event>
 6    1  0.1904828E-004  0.3000000E+03  0.7818608E-02  0.1093470E+00
          1   -1    0    0  502    0  0.00000000000E+00  0.00000000000E+00  0.28536212552E+02  0.28536212552E+02  0.00000000000E+00 0.  1.
         13   -1    0    0    0    0 -0.00000000000E+00 -0.00000000000E+00 -0.10000000000E+04  0.10000000000E+04  0.00000000000E+00 0.  1.
    9000005    2    1    2  501    0 -0.10383650245E+02 -0.29928970312E+01 -0.94827742547E+03  0.10029552625E+04  0.32645429274E+03 0.  0.
         13    1    3    3    0    0 -0.17426348022E+02 -0.15554239704E+03 -0.31786030301E+03  0.35430535857E+03  0.00000000000E+00 0.  1.
          1    1    3    3  501    0  0.70426977767E+01  0.15254950001E+03 -0.63041712246E+03  0.64864990390E+03  0.00000000000E+00 0.  1.
         21    1    1    2  502  501  0.10383650245E+02  0.29928970312E+01 -0.23186361979E+02  0.25580950077E+02  0.00000000000E+00 0.  1.
<mgrwt>
<rscale>  1 0.30000000E+03</rscale>
<asrwt>0</asrwt>
<pdfrwt beam="1">  1        1 0.10376826E+00 0.30000000E+03</pdfrwt>
<pdfrwt beam="2">0</pdfrwt>
<totfact> 0.32414774E+01</totfact>
</mgrwt>
</event>
<event>
 6    1  0.1904828E-004  0.3000000E+03  0.7818608E-02  0.1093470E+00
          1   -1    0    0  502    0  0.00000000000E+00  0.00000000000E+00  0.32550920720E+02  0.32550920720E+02  0.00000000000E+00 0.  1.
         13   -1    0    0    0    0 -0.00000000000E+00 -0.00000000000E+00 -0.10000000000E+04  0.10000000000E+04  0.00000000000E+00 0.  1.
    9000005    2    1    2  501    0 -0.68340032263E+01  0.84268136957E+01 -0.96725924369E+03  0.10216996154E+04  0.32887983345E+03 0.  0.
         13    1    3    3    0    0  0.37389304556E+01 -0.33753733239E+02  0.15956964541E+02  0.37522244415E+02  0.00000000000E+00 0.  1.
          3    1    3    3  501    0 -0.10572933682E+02  0.42180546935E+02 -0.98321620823E+03  0.98417737101E+03  0.00000000000E+00 0.  1.
         21    1    1    2  502  501  0.68340032263E+01 -0.84268136957E+01 -0.18983558783E+00  0.10851305300E+02  0.00000000000E+00 0.  1.
<mgrwt>
<rscale>  1 0.30000000E+03</rscale>
<asrwt>0</asrwt>
<pdfrwt beam="1">  1        1 0.11836723E+00 0.30000000E+03</pdfrwt>
<pdfrwt beam="2">0</pdfrwt>
<totfact> 0.26556635E+01</totfact>
</mgrwt>
</event>
<event>
 6    1  0.1904828E-004  0.3000000E+03  0.7818608E-02  0.1093470E+00
          1   -1    0    0  502    0  0.00000000000E+00  0.00000000000E+00  0.19847922112E+02  0.19847922112E+02  0.00000000000E+00 0.  1.
         13   -1    0    0    0    0 -0.00000000000E+00 -0.00000000000E+00 -0.10000000000E+04  0.10000000000E+04  0.00000000000E+00 0.  1.
    9000005    2    1    2  501    0 -0.88530176512E+01 -0.91424237267E+01 -0.95228359467E+03  0.98921114373E+03  0.26745594470E+03 0.  0.
         13    1    3    3    0    0  0.17953458501E+02 -0.13636886394E+03 -0.47074030474E+03  0.49042351925E+03  0.00000000000E+00 0.  1.
          1    1    3    3  501    0 -0.26806476152E+02  0.12722644021E+03 -0.48154328993E+03  0.49878762448E+03  0.00000000000E+00 0.  1.
         21    1    1    2  502  501  0.88530176512E+01  0.91424237267E+01 -0.27868483215E+02  0.30636778386E+02  0.00000000000E+00 0.  1.
<mgrwt>
<rscale>  1 0.30000000E+03</rscale>
<asrwt>0</asrwt>
<pdfrwt beam="1">  1        1 0.72174414E-01 0.30000000E+03</pdfrwt>
<pdfrwt beam="2">0</pdfrwt>
<totfact> 0.54087671E+01</totfact>
</mgrwt>
</event>
<event>
 6    1  0.1904828E-004  0.3000000E+03  0.7818608E-02  0.1093470E+00
          1   -1    0    0  502    0  0.00000000000E+00  0.00000000000E+00  0.34958786001E+02  0.34958786001E+02  0.00000000000E+00 0.  1.
         13   -1    0    0    0    0 -0.00000000000E+00 -0.00000000000E+00 -0.10000000000E+04  0.10000000000E+04  0.00000000000E+00 0.  1.
    9000005    2    1    2  501    0  0.28357340291E+02 -0.10929248487E+02 -0.94037507660E+03  0.99581794346E+03  0.32622768828E+03 0.  0.
         13    1    3    3    0    0 -0.68911990410E+02 -0.14496572401E+03 -0.51076225137E+03  0.53538957871E+03  0.00000000000E+00 0.  1.
          1    1    3    3  501    0  0.97269330701E+02  0.13403647553E+03 -0.42961282523E+03  0.46042836475E+03  0.00000000000E+00 0.  1.
         21    1    1    2  502  501 -0.28357340291E+02  0.10929248487E+02 -0.24666137399E+02  0.39140842544E+02  0.00000000000E+00 0.  1.
<mgrwt>
<rscale>  1 0.30000000E+03</rscale>
<asrwt>0</asrwt>
<pdfrwt beam="1">  1        1 0.12712313E+00 0.30000000E+03</pdfrwt>
<pdfrwt beam="2">0</pdfrwt>
<totfact> 0.23724636E+01</totfact>
</mgrwt>
</event>
<event>
 6    1  0.1904828E-004  0.3000000E+03  0.7818608E-02  0.1093470E+00
          3   -1    0    0  502    0  0.00000000000E+00  0.00000000000E+00  0.34628822159E+02  0.34628822159E+02  0.00000000000E+00 0.  1.
         13   -1    0    0    0    0 -0.00000000000E+00 -0.00000000000E+00 -0.10000000000E+04  0.10000000000E+04  0.00000000000E+00 0.  1.
    9000005    2    1    2  501    0 -0.11752110755E+02  0.12885910729E+01 -0.96875145091E+03  0.10223325292E+04  0.32641178606E+03 0.  0.
         13    1    3    3    0    0 -0.12360718750E+03  0.97844510841E+02 -0.31694306266E+03  0.35398473141E+03  0.00000000000E+00 0.  1.
          3    1    3    3  501    0  0.11185507675E+03 -0.96555919769E+02 -0.65180838825E+03  0.66834779780E+03  0.00000000000E+00 0.  1.
         21    1    1    2  502  501  0.11752110755E+02 -0.12885910729E+01  0.33802730682E+01  0.12296292944E+02  0.00000000000E+00 0.  1.
<mgrwt>
<rscale>  1 0.30000000E+03</rscale>
<asrwt>0</asrwt>
<pdfrwt beam="1">  1        3 0.12592326E+00 0.30000000E+03</pdfrwt>
<pdfrwt beam="2">0</pdfrwt>
<totfact> 0.19740456E+00</totfact>
</mgrwt>
</event>
<event>
 6    1  0.1904828E-004  0.3000000E+03  0.7818608E-02  0.1093470E+00
          1   -1    0    0  502    0  0.00000000000E+00  0.00000000000E+00  0.32373118701E+02  0.32373118701E+02  0.00000000000E+00 0.  1.
         13   -1    0    0    0    0 -0.00000000000E+00 -0.00000000000E+00 -0.10000000000E+04  0.10000000000E+04  0.00000000000E+00 0.  1.
    9000005    2    1    2  501    0  0.32503806793E+01  0.21705390195E+02 -0.94829362376E+03  0.10031248062E+04  0.32636925557E+03 0.  0.
         13    1    3    3    0    0 -0.13932484208E+03  0.19014628465E+02 -0.72260683075E+03  0.73616139505E+03  0.00000000000E+00 0.  1.
          3    1    3    3  501    0  0.14257522276E+03  0.26907617294E+01 -0.22568679301E+03  0.26696341114E+03  0.00000000000E+00 0.  1.
         21    1    1    2  502  501 -0.32503806793E+01 -0.21705390195E+02 -0.19333257537E+02  0.29248312516E+02  0.00000000000E+00 0.  1.
<mgrwt>
<rscale>  1 0.30000000E+03</rscale>
<asrwt>0</asrwt>
<pdfrwt beam="1">  1        1 0.11772068E+00 0.30000000E+03</pdfrwt>
<pdfrwt beam="2">0</pdfrwt>
<totfact> 0.26783165E+01</totfact>
</mgrwt>
</event>
<event>
 6    1  0.1904828E-004  0.3000000E+03  0.7818608E-02  0.1093470E+00
          1   -1    0    0  502    0  0.00000000000E+00  0.00000000000E+00  0.33548328626E+02  0.33548328626E+02  0.00000000000E+00 0.  1.
         13   -1    0    0    0    0 -0.00000000000E+00 -0.00000000000E+00 -0.10000000000E+04  0.10000000000E+04  0.00000000000E+00 0.  1.
    9000005    2    1    2  501    0 -0.32113001469E+02  0.44868907132E+01 -0.93962973168E+03  0.99146753133E+03  0.31472600145E+03 0.  0.
         13    1    3    3    0    0 -0.10029115413E+03 -0.11529692947E+03 -0.29457612227E+03  0.33185356613E+03  0.00000000000E+00 0.  1.
          1    1    3    3  501    0  0.68178152664E+02  0.11978382019E+03 -0.64505360940E+03  0.65961396520E+03  0.00000000000E+00 0.  1.
         21    1    1    2  502  501  0.32113001469E+02 -0.44868907132E+01 -0.26821939698E+02  0.42080797293E+02  0.00000000000E+00 0.  1.
<mgrwt>
<rscale>  1 0.30000000E+03</rscale>
<asrwt>0</asrwt>
<pdfrwt beam="1">  1        1 0.12199418E+00 0.30000000E+03</pdfrwt>
<pdfrwt beam="2">0</pdfrwt>
<totfact> 0.25332599E+01</totfact>
</mgrwt>
</event>
<event>
 6    1  0.1904828E-004  0.3000000E+03  0.7818608E-02  0.1093470E+00
          1   -1    0    0  502    0  0.00000000000E+00  0.00000000000E+00  0.37314554771E+02  0.37314554771E+02  0.00000000000E+00 0.  1.
         13   -1    0    0    0    0 -0.00000000000E+00 -0.00000000000E+00 -0.10000000000E+04  0.10000000000E+04  0.00000000000E+00 0.  1.
    9000005    2    1    2  501    0 -0.12288537042E+02 -0.43647052404E+02 -0.90970743813E+03  0.96758118713E+03  0.32648071516E+03 0.  0.
         13    1    3    3    0    0 -0.16709599153E+02 -0.14513338621E+03 -0.81730605382E+03  0.83026025806E+03  0.00000000000E+00 0.  1.
          1    1    3    3  501    0  0.44210621114E+01  0.10148633381E+03 -0.92401384308E+02  0.13732092907E+03  0.00000000000E+00 0.  1.
         21    1    1    2  502  501  0.12288537042E+02  0.43647052404E+02 -0.52978007097E+02  0.69733367638E+02  0.00000000000E+00 0.  1.
<mgrwt>
<rscale>  1 0.30000000E+03</rscale>
<asrwt>0</asrwt>
<pdfrwt beam="1">  1        1 0.13568958E+00 0.30000000E+03</pdfrwt>
<pdfrwt beam="2">0</pdfrwt>
<totfact> 0.21321247E+01</totfact>
</mgrwt>
</event>
<event>
 6    1  0.1904828E-004  0.3000000E+03  0.7818608E-02  0.1093470E+00
          1   -1    0    0  502    0  0.00000000000E+00  0.00000000000E+00  0.32898939628E+02  0.32898939628E+02  0.00000000000E+00 0.  1.
         13   -1    0    0    0    0 -0.00000000000E+00 -0.00000000000E+00 -0.10000000000E+04  0.10000000000E+04  0.00000000000E+00 0.  1.
    9000005    2    1    2  501    0 -0.17395817402E+02 -0.16728622692E+01 -0.96202105683E+03  0.10146995065E+04  0.32221912065E+03 0.  0.
         13    1    3    3    0    0  0.11913459283E+03 -0.96327913297E+02 -0.38904504164E+03  0.41812457775E+03  0.00000000000E+00 0.  1.
          3    1    3    3  501    0 -0.13653041023E+03  0.94655051028E+02 -0.57297601519E+03  0.59657492873E+03  0.00000000000E+00 0.  1.
         21    1    1    2  502  501  0.17395817402E+02  0.16728622692E+01 -0.50800035396E+01  0.18199433156E+02  0.00000000000E+00 0.  1.
<mgrwt>
<rscale>  1 0.30000000E+03</rscale>
<asrwt>0</asrwt>
<pdfrwt beam="1">  1        1 0.11963276E+00 0.30000000E+03</pdfrwt>
<pdfrwt beam="2">0</pdfrwt>
<totfact> 0.26120712E+01</totfact>
</mgrwt>
</event>
<event>
 6    1  0.1904828E-004  0.3000000E+03  0.7818608E-02  0.1093470E+00
          1   -1    0    0  502    0  0.00000000000E+00  0.00000000000E+00  0.33521333068E+02  0.33521333068E+02  0.00000000000E+00 0.  1.
         13   -1    0    0    0    0 -0.00000000000E+00 -0.00000000000E+00 -0.10000000000E+04  0.10000000000E+04  0.00000000000E+00 0.  1.
    9000005    2    1    2  501    0 -0.99449500942E+01 -0.82433563169E+01 -0.96607985537E+03  0.10205979432E+04  0.32885106005E+03 0.  0.
         13    1    3    3    0    0  0.22308094427E+02 -0.16601875751E+03 -0.52215541282E+03  0.54836680613E+03  0.00000000000E+00 0.  1.
          3    1    3    3  501    0 -0.32253044521E+02  0.15777540119E+03 -0.44392444255E+03  0.47223113705E+03  0.00000000000E+00 0.  1.
         21    1    1    2  502  501  0.99449500942E+01  0.82433563169E+01 -0.39881156086E+00  0.12923389896E+02  0.00000000000E+00 0.  1.
<mgrwt>
<rscale>  1 0.30000000E+03</rscale>
<asrwt>0</asrwt>
<pdfrwt beam="1">  1        1 0.12189601E+00 0.30000000E+03</pdfrwt>
<pdfrwt beam="2">0</pdfrwt>
<totfact> 0.25364729E+01</totfact>
</mgrwt>
</event>
<event>
 6    1  0.1904828E-004  0.3000000E+03  0.7818608E-02  0.1093470E+00
          1   -1    0    0  502    0  0.00000000000E+00  0.00000000000E+00  0.42414859002E+02  0.42414859002E+02  0.00000000000E+00 0.  1.
         13   -1    0    0    0    0 -0.00000000000E+00 -0.00000000000E+00 -0.10000000000E+04  0.10000000000E+04  0.00000000000E+00 0.  1.
    9000005    2    1    2  501    0 -0.64049390588E+01 -0.21514569478E+02 -0.95613916457E+03  0.10199206199E+04  0.35430505073E+03 0.  0.
         13    1    3    3    0    0 -0.59589554243E+02 -0.17522771091E+03 -0.40512490938E+03  0.44540078339E+03  0.00000000000E+00 0.  1.
          1    1    3    3  501    0  0.53184615184E+02  0.15371314143E+03 -0.55101425519E+03  0.57451983653E+03  0.00000000000E+00 0.  1.
         21    1    1    2  502  501  0.64049390588E+01  0.21514569478E+02 -0.14459764314E+01  0.22494239085E+02  0.00000000000E+00 0. -1.
<mgrwt>
<rscale>  1 0.30000000E+03</rscale>
<asrwt>0</asrwt>
<pdfrwt beam="1">  1        1 0.15423618E+00 0.30000000E+03</pdfrwt>
<pdfrwt beam="2">0</pdfrwt>
<totfact> 0.17100404E+01</totfact>
</mgrwt>
</event>
<event>
 6    1  0.1904828E-004  0.3000000E+03  0.7818608E-02  0.1093470E+00
          1   -1    0    0  502    0  0.00000000000E+00  0.00000000000E+00  0.48017904291E+02  0.48017904291E+02  0.00000000000E+00 0.  1.
         13   -1    0    0    0    0 -0.00000000000E+00 -0.00000000000E+00 -0.10000000000E+04  0.10000000000E+04  0.00000000000E+00 0.  1.
    9000005    2    1    2  501    0  0.17076443673E+02  0.12033192126E+02 -0.96913864586E+03  0.10209855190E+04  0.32053909664E+03 0.  0.
         13    1    3    3    0    0  0.10924930971E+02  0.16020765222E+03 -0.64239775865E+03  0.66216367030E+03  0.00000000000E+00 0.  1.
          3    1    3    3  501    0  0.61515127020E+01 -0.14817446009E+03 -0.32674088721E+03  0.35882184870E+03  0.00000000000E+00 0.  1.
         21    1    1    2  502  501 -0.17076443673E+02 -0.12033192126E+02  0.17156550151E+02  0.27032385288E+02  0.00000000000E+00 0.  1.
<mgrwt>
<rscale>  1 0.30000000E+03</rscale>
<asrwt>0</asrwt>
<pdfrwt beam="1">  1        1 0.17461093E+00 0.30000000E+03</pdfrwt>
<pdfrwt beam="2">0</pdfrwt>
<totfact> 0.13566798E+01</totfact>
</mgrwt>
</event>
<event>
 6    1  0.1904828E-004  0.3000000E+03  0.7818608E-02  0.1093470E+00
          1   -1    0    0  502    0  0.00000000000E+00  0.00000000000E+00  0.90888703564E+02  0.90888703564E+02  0.00000000000E+00 0.  1.
         13   -1    0    0    0    0 -0.00000000000E+00 -0.00000000000E+00 -0.10000000000E+04  0.10000000000E+04  0.00000000000E+00 0.  1.
    9000005    2    1    2  501    0 -0.11029614129E+02  0.88772985577E+01 -0.97503446771E+03  0.10234622746E+04  0.31077701876E+03 0.  0.
         13    1    3    3    0    0 -0.40479613392E+02 -0.11506339958E+02  0.53516846042E+01  0.42422110835E+02  0.00000000000E+00 0.  1.
          3    1    3    3  501    0  0.29449999262E+02  0.20383638515E+02 -0.98038615232E+03  0.98104016372E+03  0.00000000000E+00 0.  1.
         21    1    1    2  502  501  0.11029614129E+02 -0.88772985577E+01  0.65923171278E+02  0.67426429009E+02  0.00000000000E+00 0.  1.
<mgrwt>
<rscale>  1 0.30000000E+03</rscale>
<asrwt>0</asrwt>
<pdfrwt beam="1">  1        1 0.33050507E+00 0.30000000E+03</pdfrwt>
<pdfrwt beam="2">0</pdfrwt>
<totfact> 0.24719574E+00</totfact>
</mgrwt>
</event>
<event>
 6    1  0.1904828E-004  0.3000000E+03  0.7818608E-02  0.1093470E+00
          1   -1    0    0  502    0  0.00000000000E+00  0.00000000000E+00  0.62562489492E+02  0.62562489492E+02  0.00000000000E+00 0.  1.
         13   -1    0    0    0    0 -0.00000000000E+00 -0.00000000000E+00 -0.10000000000E+04  0.10000000000E+04  0.00000000000E+00 0.  1.
    9000005    2    1    2  501    0  0.33340042038E+02  0.86940361297E+01 -0.96426492357E+03  0.10188949414E+04  0.32734219718E+03 0.  0.
         13    1    3    3    0    0 -0.95837583001E+02 -0.37650948009E+02 -0.79190381144E+03  0.79857002371E+03  0.00000000000E+00 0.  1.
          3    1    3    3  501    0  0.12917762504E+03  0.46344984139E+02 -0.17236111213E+03  0.22032491766E+03  0.00000000000E+00 0.  1.
         21    1    1    2  502  501 -0.33340042038E+02 -0.86940361297E+01  0.26827413063E+02  0.43667548122E+02  0.00000000000E+00 0.  1.
<mgrwt>
<rscale>  1 0.30000000E+03</rscale>
<asrwt>0</asrwt>
<pdfrwt beam="1">  1        1 0.22750044E+00 0.30000000E+03</pdfrwt>
<pdfrwt beam="2">0</pdfrwt>
<totfact> 0.76025659E+00</totfact>
</mgrwt>
</event>
<event>
 6    1  0.1904828E-004  0.3000000E+03  0.7818608E-02  0.1093470E+00
          1   -1    0    0  502    0  0.00000000000E+00  0.00000000000E+00  0.11644749162E+03  0.11644749162E+03  0.00000000000E+00 0.  1.
         13   -1    0    0    0    0 -0.00000000000E+00 -0.00000000000E+00 -0.10000000000E+04  0.10000000000E+04  0.00000000000E+00 0.  1.
    9000005    2    1    2  501    0 -0.14086385410E+02  0.37292573166E+01 -0.97268772599E+03  0.10261290515E+04  0.32650740320E+03 0.  0.
         13    1    3    3    0    0  0.74078741152E+02  0.92936054045E+02 -0.13822640703E+03  0.18229456830E+03  0.00000000000E+00 0.  1.
          1    1    3    3  501    0 -0.88165126563E+02 -0.89206796728E+02 -0.83446131896E+03  0.84383448316E+03  0.00000000000E+00 0.  1.
         21    1    1    2  502  501  0.14086385410E+02 -0.37292573166E+01  0.89135217610E+02  0.90318440157E+02  0.00000000000E+00 0.  1.
<mgrwt>
<rscale>  1 0.30000000E+03</rscale>
<asrwt>0</asrwt>
<pdfrwt beam="1">  1        1 0.42344632E+00 0.30000000E+03</pdfrwt>
<pdfrwt beam="2">0</pdfrwt>
<totfact> 0.76359577E-01</totfact>
</mgrwt>
</event>
<event>
 6    1  0.1904828E-004  0.3000000E+03  0.7818608E-02  0.1093470E+00
          1   -1    0    0  502    0  0.00000000000E+00  0.00000000000E+00  0.28883378049E+02  0.28883378049E+02  0.00000000000E+00 0.  1.
         13   -1    0    0    0    0 -0.00000000000E+00 -0.00000000000E+00 -0.10000000000E+04  0.10000000000E+04  0.00000000000E+00 0.  1.
    9000005    2    1    2  501    0  0.76634520149E+01 -0.59650579987E+01 -0.96360879802E+03  0.10166082881E+04  0.32381504805E+03 0.  0.
         13    1    3    3    0    0  0.37405418615E+02 -0.43632850637E+02 -0.59848793375E+01  0.57782434850E+02  0.00000000000E+00 0.  1.
          3    1    3    3  501    0 -0.29741966600E+02  0.37667792638E+02 -0.95762391868E+03  0.95882585322E+03  0.00000000000E+00 0.  1.
         21    1    1    2  502  501 -0.76634520149E+01  0.59650579987E+01 -0.75078239335E+01  0.12275089976E+02  0.00000000000E+00 0. -1.
<mgrwt>
<rscale>  1 0.30000000E+03</rscale>
<asrwt>0</asrwt>
<pdfrwt beam="1">  1        1 0.10503069E+00 0.30000000E+03</pdfrwt>
<pdfrwt beam="2">0</pdfrwt>
<totfact> 0.31838905E+01</totfact>
</mgrwt>
</event>
<event>
 6    1  0.1904828E-004  0.3000000E+03  0.7818608E-02  0.1093470E+00
          1   -1    0    0  502    0  0.00000000000E+00  0.00000000000E+00  0.37211583484E+02  0.37211583484E+02  0.00000000000E+00 0.  1.
         13   -1    0    0    0    0 -0.00000000000E+00 -0.00000000000E+00 -0.10000000000E+04  0.10000000000E+04  0.00000000000E+00 0.  1.
    9000005    2    1    2  501    0  0.36962813275E+02  0.31471519155E+02 -0.90257203935E+03  0.95986355079E+03  0.32302483469E+03 0.  0.
         13    1    3    3    0    0 -0.22123041260E+02 -0.92950778525E+02 -0.76533482667E+02  0.12241997448E+03  0.00000000000E+00 0.  1.
          3    1    3    3  501    0  0.59085854534E+02  0.12442229768E+03 -0.82603855669E+03  0.83744357631E+03  0.00000000000E+00 0.  1.
         21    1    1    2  502  501 -0.36962813275E+02 -0.31471519155E+02 -0.60216377162E+02  0.77348032694E+02  0.00000000000E+00 0.  1.
<mgrwt>
<rscale>  1 0.30000000E+03</rscale>
<asrwt>0</asrwt>
<pdfrwt beam="1">  1        1 0.13531513E+00 0.30000000E+03</pdfrwt>
<pdfrwt beam="2">0</pdfrwt>
<totfact> 0.21419419E+01</totfact>
</mgrwt>
</event>
<event>
 6    1  0.1904828E-004  0.3000000E+03  0.7818608E-02  0.1093470E+00
          1   -1    0    0  502    0  0.00000000000E+00  0.00000000000E+00  0.37857011104E+02  0.37857011104E+02  0.00000000000E+00 0.  1.
         13   -1    0    0    0    0 -0.00000000000E+00 -0.00000000000E+00 -0.10000000000E+04  0.10000000000E+04  0.00000000000E+00 0.  1.
    9000005    2    1    2  501    0  0.12209777335E+00 -0.25898848557E+02 -0.95873136754E+03  0.10117341394E+04  0.32213253251E+03 0.  0.
         13    1    3    3    0    0  0.13351507730E+02  0.86994963503E+02 -0.84964329007E+03  0.85418973700E+03  0.00000000000E+00 0.  1.
          1    1    3    3  501    0 -0.13229409957E+02 -0.11289381206E+03 -0.10908807748E+03  0.15754440243E+03  0.00000000000E+00 0.  1.
         21    1    1    2  502  501 -0.12209777335E+00  0.25898848557E+02 -0.34116213518E+01  0.26122871678E+02  0.00000000000E+00 0. -1.
<mgrwt>
<rscale>  1 0.30000000E+03</rscale>
<asrwt>0</asrwt>
<pdfrwt beam="1">  1        1 0.13766215E+00 0.30000000E+03</pdfrwt>
<pdfrwt beam="2">0</pdfrwt>
<totfact> 0.20813771E+01</totfact>
</mgrwt>
</event>
<event>
 6    1  0.1904828E-004  0.3000000E+03  0.7818608E-02  0.1093470E+00
          1   -1    0    0  502    0  0.00000000000E+00  0.00000000000E+00  0.32479928885E+02  0.32479928885E+02  0.00000000000E+00 0.  1.
         13   -1    0    0    0    0 -0.00000000000E+00 -0.00000000000E+00 -0.10000000000E+04  0.10000000000E+04  0.00000000000E+00 0.  1.
    9000005    2    1    2  501    0  0.23117573138E+02 -0.84496166126E+01 -0.95384844331E+03  0.10043244389E+04  0.31342448466E+03 0.  0.
         13    1    3    3    0    0  0.14249307875E+03  0.13309144914E+02 -0.23380372367E+03  0.27412696334E+03  0.00000000000E+00 0.  1.
          3    1    3    3  501    0 -0.11937550561E+03 -0.21758761526E+02 -0.72004471964E+03  0.73019747557E+03  0.00000000000E+00 0.  1.
         21    1    1    2  502  501 -0.23117573138E+02  0.84496166126E+01 -0.13671627802E+02  0.28155489970E+02  0.00000000000E+00 0.  1.
<mgrwt>
<rscale>  1 0.30000000E+03</rscale>
<asrwt>0</asrwt>
<pdfrwt beam="1">  1        1 0.11810908E+00 0.30000000E+03</pdfrwt>
<pdfrwt beam="2">0</pdfrwt>
<totfact> 0.26646768E+01</totfact>
</mgrwt>
</event>
<event>
 6    1  0.1904828E-004  0.3000000E+03  0.7818608E-02  0.1093470E+00
          1   -1    0    0  502    0  0.00000000000E+00  0.00000000000E+00  0.31009070644E+02  0.31009070644E+02  0.00000000000E+00 0.  1.
         13   -1    0    0    0    0 -0.00000000000E+00 -0.00000000000E+00 -0.10000000000E+04  0.10000000000E+04  0.00000000000E+00 0.  1.
    9000005    2    1    2  501    0 -0.14929790723E+01  0.15396784113E+02 -0.96109666118E+03  0.10136421648E+04  0.32175201047E+03 0.  0.
         13    1    3    3    0    0  0.14719902323E+03  0.42725404173E+02 -0.64903281560E+03  0.66688575358E+03  0.00000000000E+00 0.  1.
          3    1    3    3  501    0 -0.14869200231E+03 -0.27328620060E+02 -0.31206384559E+03  0.34675641125E+03  0.00000000000E+00 0.  1.
         21    1    1    2  502  501  0.14929790723E+01 -0.15396784113E+02 -0.78942681749E+01  0.17366905814E+02  0.00000000000E+00 0.  1.
<mgrwt>
<rscale>  1 0.30000000E+03</rscale>
<asrwt>0</asrwt>
<pdfrwt beam="1">  1        1 0.11276049E+00 0.30000000E+03</pdfrwt>
<pdfrwt beam="2">0</pdfrwt>
<totfact> 0.28613581E+01</totfact>
</mgrwt>
</event>
<event>
 6    1  0.1904828E-004  0.3000000E+03  0.7818608E-02  0.1093470E+00
          1   -1    0    0  502    0  0.00000000000E+00  0.00000000000E+00  0.46112931800E+02  0.46112931800E+02  0.00000000000E+00 0.  1.
         13   -1    0    0    0    0 -0.00000000000E+00 -0.00000000000E+00 -0.10000000000E+04  0.10000000000E+04  0.00000000000E+00 0.  1.
    9000005    2    1    2  501    0  0.64222242108E+02 -0.16021236716E+02 -0.90177808146E+03  0.96187206935E+03  0.32804419396E+03 0.  0.
         13    1    3    3    0    0 -0.12626507651E+03 -0.23827488207E+02 -0.22881163348E+03  0.26242214532E+03  0.00000000000E+00 0.  1.
          3    1    3    3  501    0  0.19048731862E+03  0.78062514914E+01 -0.67296644798E+03  0.69944992402E+03  0.00000000000E+00 0.  1.
         21    1    1    2  502  501 -0.64222242108E+02  0.16021236716E+02 -0.52108986744E+02  0.84240862453E+02  0.00000000000E+00 0.  1.
<mgrwt>
<rscale>  1 0.30000000E+03</rscale>
<asrwt>0</asrwt>
<pdfrwt beam="1">  1        1 0.16768374E+00 0.30000000E+03</pdfrwt>
<pdfrwt beam="2">0</pdfrwt>
<totfact> 0.14665144E+01</totfact>
</mgrwt>
</event>
<event>
 6    1  0.1904828E-004  0.3000000E+03  0.7818608E-02  0.1093470E+00
          1   -1    0    0  502    0  0.00000000000E+00  0.00000000000E+00  0.34637712814E+02  0.34637712814E+02  0.00000000000E+00 0.  1.
         13   -1    0    0    0    0 -0.00000000000E+00 -0.00000000000E+00 -0.10000000000E+04  0.10000000000E+04  0.00000000000E+00 0.  1.
    9000005    2    1    2  501    0 -0.17634715080E+02  0.96392737050E+01 -0.94621414852E+03  0.10068789306E+04  0.34362780349E+03 0.  0.
         13    1    3    3    0    0 -0.32395103413E+02 -0.14141621267E+03 -0.71996920137E+03  0.73444103838E+03  0.00000000000E+00 0.  1.
          3    1    3    3  501    0  0.14760388333E+02  0.15105548638E+03 -0.22624494715E+03  0.27243789226E+03  0.00000000000E+00 0.  1.
         21    1    1    2  502  501  0.17634715080E+02 -0.96392737050E+01 -0.19148138667E+02  0.27758782177E+02  0.00000000000E+00 0.  1.
<mgrwt>
<rscale>  1 0.30000000E+03</rscale>
<asrwt>0</asrwt>
<pdfrwt beam="1">  1        1 0.12595558E+00 0.30000000E+03</pdfrwt>
<pdfrwt beam="2">0</pdfrwt>
<totfact> 0.24078935E+01</totfact>
</mgrwt>
</event>
<event>
 6    1  0.1904828E-004  0.3000000E+03  0.7818608E-02  0.1093470E+00
          1   -1    0    0  502    0  0.00000000000E+00  0.00000000000E+00  0.46497415825E+02  0.46497415825E+02  0.00000000000E+00 0.  1.
         13   -1    0    0    0    0 -0.00000000000E+00 -0.00000000000E+00 -0.10000000000E+04  0.10000000000E+04  0.00000000000E+00 0.  1.
    9000005    2    1    2  501    0  0.88866292216E+01  0.16602713688E+02 -0.96877952231E+03  0.10222485577E+04  0.32573567292E+03 0.  0.
         13    1    3    3    0    0 -0.97572029827E+02 -0.10827424993E+03 -0.29862490776E+03  0.33229572633E+03  0.00000000000E+00 0.  1.
          3    1    3    3  501    0  0.10645865905E+03  0.12487696362E+03 -0.67015461456E+03  0.68995283139E+03  0.00000000000E+00 0.  1.
         21    1    1    2  502  501 -0.88866292216E+01 -0.16602713688E+02  0.15276938139E+02  0.24248858110E+02  0.00000000000E+00 0.  1.
<mgrwt>
<rscale>  1 0.30000000E+03</rscale>
<asrwt>0</asrwt>
<pdfrwt beam="1">  1        1 0.16908187E+00 0.30000000E+03</pdfrwt>
<pdfrwt beam="2">0</pdfrwt>
<totfact> 0.14435676E+01</totfact>
</mgrwt>
</event>
<event>
 6    1  0.1904828E-004  0.3000000E+03  0.7818608E-02  0.1093470E+00
          1   -1    0    0  502    0  0.00000000000E+00  0.00000000000E+00  0.36185514877E+02  0.36185514877E+02  0.00000000000E+00 0.  1.
         13   -1    0    0    0    0 -0.00000000000E+00 -0.00000000000E+00 -0.10000000000E+04  0.10000000000E+04  0.00000000000E+00 0.  1.
    9000005    2    1    2  501    0  0.12170956387E+02 -0.24303823673E+00 -0.96400011712E+03  0.10240107169E+04  0.34518622690E+03 0.  0.
         13    1    3    3    0    0 -0.72158454567E+02  0.57433182351E+02 -0.51147057837E+02  0.10545821223E+03  0.00000000000E+00 0.  1.
          3    1    3    3  501    0  0.84329410954E+02 -0.57676220588E+02 -0.91285305928E+03  0.91855250466E+03  0.00000000000E+00 0.  1.
         21    1    1    2  502  501 -0.12170956387E+02  0.24303823673E+00  0.18563199548E+00  0.12174797994E+02  0.00000000000E+00 0. -1.
<mgrwt>
<rscale>  1 0.30000000E+03</rscale>
<asrwt>0</asrwt>
<pdfrwt beam="1">  1        1 0.13158397E+00 0.30000000E+03</pdfrwt>
<pdfrwt beam="2">0</pdfrwt>
<totfact> 0.22431237E+01</totfact>
</mgrwt>
</event>
<event>
 6    1  0.1904828E-004  0.3000000E+03  0.7818608E-02  0.1093470E+00
          3   -1    0    0  502    0  0.00000000000E+00  0.00000000000E+00  0.30458391876E+02  0.30458391876E+02  0.00000000000E+00 0.  1.
         13   -1    0    0    0    0 -0.00000000000E+00 -0.00000000000E+00 -0.10000000000E+04  0.10000000000E+04  0.00000000000E+00 0.  1.
    9000005    2    1    2  501    0 -0.15994354769E+02 -0.11051071185E+02 -0.93115391752E+03  0.98742863068E+03  0.32800874533E+03 0.  0.
         13    1    3    3    0    0  0.48571048514E+02 -0.14643841956E+03 -0.28486435696E+03  0.32396150904E+03  0.00000000000E+00 0.  1.
          3    1    3    3  501    0 -0.64565403284E+02  0.13538734837E+03 -0.64628956056E+03  0.66346712163E+03  0.00000000000E+00 0.  1.
         21    1    1    2  502  501  0.15994354769E+02  0.11051071185E+02 -0.38387690607E+02  0.43029761200E+02  0.00000000000E+00 0. -1.
<mgrwt>
<rscale>  1 0.30000000E+03</rscale>
<asrwt>0</asrwt>
<pdfrwt beam="1">  1        3 0.11075802E+00 0.30000000E+03</pdfrwt>
<pdfrwt beam="2">0</pdfrwt>
<totfact> 0.29542437E+00</totfact>
</mgrwt>
</event>
<event>
 6    1  0.1904828E-004  0.3000000E+03  0.7818608E-02  0.1093470E+00
          1   -1    0    0  502    0  0.00000000000E+00  0.00000000000E+00  0.52733617799E+02  0.52733617799E+02  0.00000000000E+00 0.  1.
         13   -1    0    0    0    0 -0.00000000000E+00 -0.00000000000E+00 -0.10000000000E+04  0.10000000000E+04  0.00000000000E+00 0.  1.
    9000005    2    1    2  501    0 -0.17585788582E+02  0.45642996688E+02 -0.94785392496E+03  0.10038164601E+04  0.32684534489E+03 0.  0.
         13    1    3    3    0    0  0.69779740834E+02 -0.61204815908E+02 -0.72846919138E+02  0.11799116640E+03  0.00000000000E+00 0.  1.
          1    1    3    3  501    0 -0.87365529417E+02  0.10684781260E+03 -0.87500700582E+03  0.88582529374E+03  0.00000000000E+00 0.  1.
         21    1    1    2  502  501  0.17585788582E+02 -0.45642996688E+02  0.58754276137E+00  0.48917157657E+02  0.00000000000E+00 0.  1.
<mgrwt>
<rscale>  1 0.30000000E+03</rscale>
<asrwt>0</asrwt>
<pdfrwt beam="1">  1        1 0.19175901E+00 0.30000000E+03</pdfrwt>
<pdfrwt beam="2">0</pdfrwt>
<totfact> 0.11214031E+01</totfact>
</mgrwt>
</event>
<event>
 6    1  0.1904828E-004  0.3000000E+03  0.7818608E-02  0.1093470E+00
          1   -1    0    0  502    0  0.00000000000E+00  0.00000000000E+00  0.29386232364E+02  0.29386232364E+02  0.00000000000E+00 0.  1.
         13   -1    0    0    0    0 -0.00000000000E+00 -0.00000000000E+00 -0.10000000000E+04  0.10000000000E+04  0.00000000000E+00 0.  1.
    9000005    2    1    2  501    0  0.71433838025E+01  0.80039571250E+01 -0.96671868555E+03  0.10179729539E+04  0.31876139436E+03 0.  0.
         13    1    3    3    0    0 -0.12391989734E+03  0.51608558716E+02 -0.74315125215E+03  0.75517770615E+03  0.00000000000E+00 0.  1.
          1    1    3    3  501    0  0.13106328114E+03 -0.43604601591E+02 -0.22356743340E+03  0.26279524771E+03  0.00000000000E+00 0.  1.
         21    1    1    2  502  501 -0.71433838025E+01 -0.80039571250E+01 -0.38950820875E+01  0.11413278507E+02  0.00000000000E+00 0.  1.
<mgrwt>
<rscale>  1 0.30000000E+03</rscale>
<asrwt>0</asrwt>
<pdfrwt beam="1">  1        1 0.10685925E+00 0.30000000E+03</pdfrwt>
<pdfrwt beam="2">0</pdfrwt>
<totfact> 0.31030676E+01</totfact>
</mgrwt>
</event>
<event>
 6    1  0.1904828E-004  0.3000000E+03  0.7818608E-02  0.1093470E+00
          1   -1    0    0  502    0  0.00000000000E+00  0.00000000000E+00  0.33068988967E+02  0.33068988967E+02  0.00000000000E+00 0.  1.
         13   -1    0    0    0    0 -0.00000000000E+00 -0.00000000000E+00 -0.10000000000E+04  0.10000000000E+04  0.00000000000E+00 0.  1.
    9000005    2    1    2  501    0 -0.14452464666E+02  0.50257282950E+01 -0.95444305947E+03  0.10133185304E+04  0.34002758502E+03 0.  0.
         13    1    3    3    0    0 -0.91264979701E+02  0.14944122966E+03 -0.54375996416E+03  0.57125902729E+03  0.00000000000E+00 0.  1.
          3    1    3    3  501    0  0.76812515035E+02 -0.14441550137E+03 -0.41068309531E+03  0.44205950310E+03  0.00000000000E+00 0.  1.
         21    1    1    2  502  501  0.14452464666E+02 -0.50257282950E+01 -0.12487951560E+02  0.19750458577E+02  0.00000000000E+00 0. -1.
<mgrwt>
<rscale>  1 0.30000000E+03</rscale>
<asrwt>0</asrwt>
<pdfrwt beam="1">  1        1 0.12025112E+00 0.30000000E+03</pdfrwt>
<pdfrwt beam="2">0</pdfrwt>
<totfact> 0.25911215E+01</totfact>
</mgrwt>
</event>
<event>
 6    1  0.1904828E-004  0.3000000E+03  0.7818608E-02  0.1093470E+00
          1   -1    0    0  502    0  0.00000000000E+00  0.00000000000E+00  0.44611903917E+02  0.44611903917E+02  0.00000000000E+00 0.  1.
         13   -1    0    0    0    0 -0.00000000000E+00 -0.00000000000E+00 -0.10000000000E+04  0.10000000000E+04  0.00000000000E+00 0.  1.
    9000005    2    1    2  501    0 -0.15198989694E+02  0.30852906717E+01 -0.95916785570E+03  0.10286489816E+04  0.37131553108E+03 0.  0.
         13    1    3    3    0    0 -0.19376603613E+01  0.52307763061E+02  0.13970807415E+02  0.54176010041E+02  0.00000000000E+00 0.  1.
          3    1    3    3  501    0 -0.13261329332E+02 -0.49222472389E+02 -0.97313866312E+03  0.97447297156E+03  0.00000000000E+00 0.  1.
         21    1    1    2  502  501  0.15198989694E+02 -0.30852906717E+01  0.37797596175E+01  0.15962922320E+02  0.00000000000E+00 0.  1.
<mgrwt>
<rscale>  1 0.30000000E+03</rscale>
<asrwt>0</asrwt>
<pdfrwt beam="1">  1        1 0.16222545E+00 0.30000000E+03</pdfrwt>
<pdfrwt beam="2">0</pdfrwt>
<totfact> 0.15601620E+01</totfact>
</mgrwt>
</event>
<event>
 6    1  0.1904828E-004  0.3000000E+03  0.7818608E-02  0.1093470E+00
          1   -1    0    0  502    0  0.00000000000E+00  0.00000000000E+00  0.37948758966E+02  0.37948758966E+02  0.00000000000E+00 0.  1.
         13   -1    0    0    0    0 -0.00000000000E+00 -0.00000000000E+00 -0.10000000000E+04  0.10000000000E+04  0.00000000000E+00 0.  1.
    9000005    2    1    2  501    0 -0.23115108562E+02  0.79608303772E+01 -0.96015899037E+03  0.10134280804E+04  0.32331641516E+03 0.  0.
         13    1    3    3    0    0 -0.15145661611E+02  0.25072610720E+02 -0.98320321934E+03  0.98363946514E+03  0.00000000000E+00 0.  1.
          3    1    3    3  501    0 -0.79694469510E+01 -0.17111780343E+02  0.23044228963E+02  0.29788615270E+02  0.00000000000E+00 0.  1.
         21    1    1    2  502  501  0.23115108562E+02 -0.79608303772E+01 -0.18922506610E+01  0.24520678553E+02  0.00000000000E+00 0. -1.
<mgrwt>
<rscale>  1 0.30000000E+03</rscale>
<asrwt>0</asrwt>
<pdfrwt beam="1">  1        1 0.13799578E+00 0.30000000E+03</pdfrwt>
<pdfrwt beam="2">0</pdfrwt>
<totfact> 0.20729486E+01</totfact>
</mgrwt>
</event>
<event>
 6    1  0.1904828E-004  0.3000000E+03  0.7818608E-02  0.1093470E+00
          1   -1    0    0  502    0  0.00000000000E+00  0.00000000000E+00  0.41916914378E+02  0.41916914378E+02  0.00000000000E+00 0.  1.
         13   -1    0    0    0    0 -0.00000000000E+00 -0.00000000000E+00 -0.10000000000E+04  0.10000000000E+04  0.00000000000E+00 0.  1.
    9000005    2    1    2  501    0  0.13209292425E+02  0.33295389865E+02 -0.95135698920E+03  0.10054709439E+04  0.32343257364E+03 0.  0.
         13    1    3    3    0    0 -0.13562887851E+03  0.89825519432E+02 -0.40693727559E+03  0.43824851727E+03  0.00000000000E+00 0.  1.
          3    1    3    3  501    0  0.14883817094E+03 -0.56530129567E+02 -0.54441971361E+03  0.56722242661E+03  0.00000000000E+00 0.  1.
         21    1    1    2  502  501 -0.13209292425E+02 -0.33295389865E+02 -0.67260964209E+01  0.36445970500E+02  0.00000000000E+00 0.  1.
<mgrwt>
<rscale>  1 0.30000000E+03</rscale>
<asrwt>0</asrwt>
<pdfrwt beam="1">  1        1 0.15242546E+00 0.30000000E+03</pdfrwt>
<pdfrwt beam="2">0</pdfrwt>
<totfact> 0.17463587E+01</totfact>
</mgrwt>
</event>
<event>
 6    1  0.1904828E-004  0.3000000E+03  0.7818608E-02  0.1093470E+00
          1   -1    0    0  502    0  0.00000000000E+00  0.00000000000E+00  0.28401213706E+02  0.28401213706E+02  0.00000000000E+00 0.  1.
         13   -1    0    0    0    0 -0.00000000000E+00 -0.00000000000E+00 -0.10000000000E+04  0.10000000000E+04  0.00000000000E+00 0.  1.
    9000005    2    1    2  501    0 -0.76672348618E+01 -0.63834378422E+01 -0.95890240365E+03  0.10122539879E+04  0.32413697956E+03 0.  0.
         13    1    3    3    0    0 -0.83559935179E+02  0.12129218627E+03 -0.68516122571E+03  0.70081378584E+03  0.00000000000E+00 0.  1.
          3    1    3    3  501    0  0.75892700317E+02 -0.12767562411E+03 -0.27374117794E+03  0.31144020205E+03  0.00000000000E+00 0.  1.
         21    1    1    2  502  501  0.76672348618E+01  0.63834378422E+01 -0.12696382648E+02  0.16147225813E+02  0.00000000000E+00 0.  1.
<mgrwt>
<rscale>  1 0.30000000E+03</rscale>
<asrwt>0</asrwt>
<pdfrwt beam="1">  1        1 0.10327736E+00 0.30000000E+03</pdfrwt>
<pdfrwt beam="2">0</pdfrwt>
<totfact> 0.32642796E+01</totfact>
</mgrwt>
</event>
<event>
 6    1  0.1904828E-004  0.3000000E+03  0.7818608E-02  0.1093470E+00
          1   -1    0    0  502    0  0.00000000000E+00  0.00000000000E+00  0.28362503846E+02  0.28362503846E+02  0.00000000000E+00 0.  1.
         13   -1    0    0    0    0 -0.00000000000E+00 -0.00000000000E+00 -0.10000000000E+04  0.10000000000E+04  0.00000000000E+00 0.  1.
    9000005    2    1    2  501    0 -0.61042242608E+01 -0.71998829781E+01 -0.96285326638E+03  0.10154682198E+04  0.32249060908E+03 0.  0.
         13    1    3    3    0    0 -0.64681659349E+02  0.63216443017E+02 -0.89964548706E+03  0.90418031283E+03  0.00000000000E+00 0.  1.
          3    1    3    3  501    0  0.58577435088E+02 -0.70416325995E+02 -0.63207779327E+02  0.11128790696E+03  0.00000000000E+00 0.  1.
         21    1    1    2  502  501  0.61042242608E+01  0.71998829781E+01 -0.87842297694E+01  0.12894284058E+02  0.00000000000E+00 0.  1.
<mgrwt>
<rscale>  1 0.30000000E+03</rscale>
<asrwt>0</asrwt>
<pdfrwt beam="1">  1        1 0.10313660E+00 0.30000000E+03</pdfrwt>
<pdfrwt beam="2">0</pdfrwt>
<totfact> 0.32708611E+01</totfact>
</mgrwt>
</event>
<event>
 6    1  0.1904828E-004  0.3000000E+03  0.7818608E-02  0.1093470E+00
          1   -1    0    0  502    0  0.00000000000E+00  0.00000000000E+00  0.34448702545E+02  0.34448702545E+02  0.00000000000E+00 0.  1.
         13   -1    0    0    0    0 -0.00000000000E+00 -0.00000000000E+00 -0.10000000000E+04  0.10000000000E+04  0.00000000000E+00 0.  1.
    9000005    2    1    2  501    0  0.38090152503E+01  0.25553174642E+02 -0.91543053485E+03  0.97806107823E+03  0.34339909040E+03 0.  0.
         13    1    3    3    0    0  0.80664202632E+02  0.10895452298E+03 -0.14185400113E+03  0.19621508429E+03  0.00000000000E+00 0.  1.
          3    1    3    3  501    0 -0.76855187382E+02 -0.83401348338E+02 -0.77357653371E+03  0.78184599394E+03  0.00000000000E+00 0.  1.
         21    1    1    2  502  501 -0.38090152503E+01 -0.25553174642E+02 -0.50120762608E+02  0.56387624315E+02  0.00000000000E+00 0. -1.
<mgrwt>
<rscale>  1 0.30000000E+03</rscale>
<asrwt>0</asrwt>
<pdfrwt beam="1">  1        1 0.12526827E+00 0.30000000E+03</pdfrwt>
<pdfrwt beam="2">0</pdfrwt>
<totfact> 0.24290661E+01</totfact>
</mgrwt>
</event>
<event>
 6    1  0.1904828E-004  0.3000000E+03  0.7818608E-02  0.1093470E+00
          1   -1    0    0  502    0  0.00000000000E+00  0.00000000000E+00  0.25509822464E+02  0.25509822464E+02  0.00000000000E+00 0.  1.
         13   -1    0    0    0    0 -0.00000000000E+00 -0.00000000000E+00 -0.10000000000E+04  0.10000000000E+04  0.00000000000E+00 0.  1.
    9000005    2    1    2  501    0  0.12373670752E+02 -0.48402337035E+01 -0.96487530513E+03  0.10091091712E+04  0.29519557818E+03 0.  0.
         13    1    3    3    0    0  0.13717235094E+03 -0.22587297238E+02 -0.27866542142E+03  0.31141749622E+03  0.00000000000E+00 0.  1.
          1    1    3    3  501    0 -0.12479868019E+03  0.17747063534E+02 -0.68620988371E+03  0.69769167499E+03  0.00000000000E+00 0.  1.
         21    1    1    2  502  501 -0.12373670752E+02  0.48402337035E+01 -0.96148724056E+01  0.16400651254E+02  0.00000000000E+00 0.  1.
<mgrwt>
<rscale>  1 0.30000000E+03</rscale>
<asrwt>0</asrwt>
<pdfrwt beam="1">  1        1 0.92763186E-01 0.30000000E+03</pdfrwt>
<pdfrwt beam="2">0</pdfrwt>
<totfact> 0.38153329E+01</totfact>
</mgrwt>
</event>
<event>
 6    1  0.1904828E-004  0.3000000E+03  0.7818608E-02  0.1093470E+00
          1   -1    0    0  502    0  0.00000000000E+00  0.00000000000E+00  0.36691878034E+02  0.36691878034E+02  0.00000000000E+00 0.  1.
         13   -1    0    0    0    0 -0.00000000000E+00 -0.00000000000E+00 -0.10000000000E+04  0.10000000000E+04  0.00000000000E+00 0.  1.
    9000005    2    1    2  501    0  0.17126924785E+02  0.24206902635E+02 -0.93429638423E+03  0.99520710234E+03  0.34153790021E+03 0.  0.
         13    1    3    3    0    0 -0.59190081088E+02  0.12603634901E+03 -0.79267689750E+03  0.80481382369E+03  0.00000000000E+00 0.  1.
          3    1    3    3  501    0  0.76317005873E+02 -0.10182944637E+03 -0.14161948673E+03  0.19039327865E+03  0.00000000000E+00 0.  1.
         21    1    1    2  502  501 -0.17126924785E+02 -0.24206902635E+02 -0.29011737738E+02  0.41484775693E+02  0.00000000000E+00 0.  1.
<mgrwt>
<rscale>  1 0.30000000E+03</rscale>
<asrwt>0</asrwt>
<pdfrwt beam="1">  1        1 0.13342529E+00 0.30000000E+03</pdfrwt>
<pdfrwt beam="2">0</pdfrwt>
<totfact> 0.21924191E+01</totfact>
</mgrwt>
</event>
<event>
 6    1  0.1904828E-004  0.3000000E+03  0.7818608E-02  0.1093470E+00
          1   -1    0    0  502    0  0.00000000000E+00  0.00000000000E+00  0.29330208224E+02  0.29330208224E+02  0.00000000000E+00 0.  1.
         13   -1    0    0    0    0 -0.00000000000E+00 -0.00000000000E+00 -0.10000000000E+04  0.10000000000E+04  0.00000000000E+00 0.  1.
    9000005    2    1    2  501    0  0.45356792513E+00 -0.98231291010E+01 -0.94815393475E+03  0.10047606456E+04  0.33234225041E+03 0.  0.
         13    1    3    3    0    0  0.10285484141E+03 -0.11303833694E+03 -0.26151818482E+03  0.30290022286E+03  0.00000000000E+00 0.  1.
          3    1    3    3  501    0 -0.10240127349E+03  0.10321520784E+03 -0.68663574993E+03  0.70186042275E+03  0.00000000000E+00 0.  1.
         21    1    1    2  502  501 -0.45356792513E+00  0.98231291010E+01 -0.22515857028E+02  0.24569562611E+02  0.00000000000E+00 0. -1.
<mgrwt>
<rscale>  1 0.30000000E+03</rscale>
<asrwt>0</asrwt>
<pdfrwt beam="1">  1        1 0.10665553E+00 0.30000000E+03</pdfrwt>
<pdfrwt beam="2">0</pdfrwt>
<totfact> 0.31119250E+01</totfact>
</mgrwt>
</event>
<event>
 6    1  0.1904828E-004  0.3000000E+03  0.7818608E-02  0.1093470E+00
          1   -1    0    0  502    0  0.00000000000E+00  0.00000000000E+00  0.33042069420E+02  0.33042069420E+02  0.00000000000E+00 0.  1.
         13   -1    0    0    0    0 -0.00000000000E+00 -0.00000000000E+00 -0.10000000000E+04  0.10000000000E+04  0.00000000000E+00 0.  1.
    9000005    2    1    2  501    0 -0.11164287645E+02 -0.28692728115E+02 -0.90433486819E+03  0.96325982305E+03  0.33030291993E+03 0.  0.
         13    1    3    3    0    0  0.14655212308E+03  0.37067692542E+02 -0.31072972493E+03  0.34554956311E+03  0.00000000000E+00 0.  1.
          1    1    3    3  501    0 -0.15771641072E+03 -0.65760420658E+02 -0.59360514326E+03  0.61771025994E+03  0.00000000000E+00 0.  1.
         21    1    1    2  502  501  0.11164287645E+02  0.28692728115E+02 -0.62623062390E+02  0.69782246369E+02  0.00000000000E+00 0.  1.
<mgrwt>
<rscale>  1 0.30000000E+03</rscale>
<asrwt>0</asrwt>
<pdfrwt beam="1">  1        1 0.12015323E+00 0.30000000E+03</pdfrwt>
<pdfrwt beam="2">0</pdfrwt>
<totfact> 0.25944229E+01</totfact>
</mgrwt>
</event>
<event>
 6    1  0.1904828E-004  0.3000000E+03  0.7818608E-02  0.1093470E+00
          1   -1    0    0  502    0  0.00000000000E+00  0.00000000000E+00  0.36823147068E+02  0.36823147068E+02  0.00000000000E+00 0.  1.
         13   -1    0    0    0    0 -0.00000000000E+00 -0.00000000000E+00 -0.10000000000E+04  0.10000000000E+04  0.00000000000E+00 0.  1.
    9000005    2    1    2  501    0 -0.51788486832E+01 -0.23564707074E+02 -0.95519376502E+03  0.10114096549E+04  0.33162063467E+03 0.  0.
         13    1    3    3    0    0  0.47460520577E+02  0.65699412532E+02 -0.40026359924E+02  0.90393712775E+02  0.00000000000E+00 0.  1.
          1    1    3    3  501    0 -0.52639369260E+02 -0.89264119606E+02 -0.91516740509E+03  0.92101594209E+03  0.00000000000E+00 0.  1.
         21    1    1    2  502  501  0.51788486832E+01  0.23564707074E+02 -0.79830879159E+01  0.25413492200E+02  0.00000000000E+00 0.  1.
<mgrwt>
<rscale>  1 0.30000000E+03</rscale>
<asrwt>0</asrwt>
<pdfrwt beam="1">  1        1 0.13390264E+00 0.30000000E+03</pdfrwt>
<pdfrwt beam="2">0</pdfrwt>
<totfact> 0.21795217E+01</totfact>
</mgrwt>
</event>
<event>
 6    1  0.1904828E-004  0.3000000E+03  0.7818608E-02  0.1093470E+00
          1   -1    0    0  502    0  0.00000000000E+00  0.00000000000E+00  0.48654267146E+02  0.48654267146E+02  0.00000000000E+00 0.  1.
         13   -1    0    0    0    0 -0.00000000000E+00 -0.00000000000E+00 -0.10000000000E+04  0.10000000000E+04  0.00000000000E+00 0.  1.
    9000005    2    1    2  501    0  0.13438983781E+02 -0.10007482196E+02 -0.94853248545E+03  0.10316639656E+04  0.40538365288E+03 0.  0.
         13    1    3    3    0    0  0.69630249612E+02 -0.59207507457E+01  0.10771667235E+02  0.70706829694E+02  0.00000000000E+00 0.  1.
          3    1    3    3  501    0 -0.56191265830E+02 -0.40867314500E+01 -0.95930415268E+03  0.96095713593E+03  0.00000000000E+00 0.  1.
         21    1    1    2  502  501 -0.13438983781E+02  0.10007482196E+02 -0.28132474047E+01  0.16990301526E+02  0.00000000000E+00 0. -1.
<mgrwt>
<rscale>  1 0.30000000E+03</rscale>
<asrwt>0</asrwt>
<pdfrwt beam="1">  1        1 0.17692498E+00 0.30000000E+03</pdfrwt>
<pdfrwt beam="2">0</pdfrwt>
<totfact> 0.13220221E+01</totfact>
</mgrwt>
</event>
<event>
 6    1  0.1904828E-004  0.3000000E+03  0.7818608E-02  0.1093470E+00
          1   -1    0    0  502    0  0.00000000000E+00  0.00000000000E+00  0.31035233021E+02  0.31035233021E+02  0.00000000000E+00 0.  1.
         13   -1    0    0    0    0 -0.00000000000E+00 -0.00000000000E+00 -0.10000000000E+04  0.10000000000E+04  0.00000000000E+00 0.  1.
    9000005    2    1    2  501    0  0.73000792011E+01 -0.18331264596E+02 -0.94905136194E+03  0.10030018579E+04  0.32392115247E+03 0.  0.
         13    1    3    3    0    0 -0.89552716736E+02 -0.88272661751E+02 -0.80989552391E+03  0.81959899435E+03  0.00000000000E+00 0.  1.
          1    1    3    3  501    0  0.96852795937E+02  0.69941397155E+02 -0.13915583804E+03  0.18340286360E+03  0.00000000000E+00 0.  1.
         21    1    1    2  502  501 -0.73000792011E+01  0.18331264596E+02 -0.19913405035E+02  0.28033375075E+02  0.00000000000E+00 0. -1.
<mgrwt>
<rscale>  1 0.30000000E+03</rscale>
<asrwt>0</asrwt>
<pdfrwt beam="1">  1        1 0.11285563E+00 0.30000000E+03</pdfrwt>
<pdfrwt beam="2">0</pdfrwt>
<totfact> 0.28576838E+01</totfact>
</mgrwt>
</event>
<event>
 6    1  0.1904828E-004  0.3000000E+03  0.7818608E-02  0.1093470E+00
          1   -1    0    0  502    0  0.00000000000E+00  0.00000000000E+00  0.34628564269E+02  0.34628564269E+02  0.00000000000E+00 0.  1.
         13   -1    0    0    0    0 -0.00000000000E+00 -0.00000000000E+00 -0.10000000000E+04  0.10000000000E+04  0.00000000000E+00 0.  1.
    9000005    2    1    2  501    0  0.61269011311E+01 -0.12530972706E+02 -0.93930867730E+03  0.10050679220E+04  0.35730403354E+03 0.  0.
         13    1    3    3    0    0  0.14112695185E+03 -0.63872250730E+02 -0.20640887920E+03  0.25807190154E+03  0.00000000000E+00 0.  1.
          3    1    3    3  501    0 -0.13500005072E+03  0.51341278024E+02 -0.73289979809E+03  0.74699602045E+03  0.00000000000E+00 0.  1.
         21    1    1    2  502  501 -0.61269011311E+01  0.12530972706E+02 -0.26062758434E+02  0.29560642274E+02  0.00000000000E+00 0. -1.
<mgrwt>
<rscale>  1 0.30000000E+03</rscale>
<asrwt>0</asrwt>
<pdfrwt beam="1">  1        1 0.12592232E+00 0.30000000E+03</pdfrwt>
<pdfrwt beam="2">0</pdfrwt>
<totfact> 0.24089129E+01</totfact>
</mgrwt>
</event>
<event>
 6    1  0.1904828E-004  0.3000000E+03  0.7818608E-02  0.1093470E+00
          1   -1    0    0  502    0  0.00000000000E+00  0.00000000000E+00  0.28947824371E+02  0.28947824371E+02  0.00000000000E+00 0.  1.
         13   -1    0    0    0    0 -0.00000000000E+00 -0.00000000000E+00 -0.10000000000E+04  0.10000000000E+04  0.00000000000E+00 0.  1.
    9000005    2    1    2  501    0  0.28212425988E+02  0.21110720886E+01 -0.96453759736E+03  0.99991616346E+03  0.26210524531E+03 0.  0.
         13    1    3    3    0    0  0.80048558927E+02  0.76225332675E+02 -0.83290080433E+03  0.84020344142E+03  0.00000000000E+00 0.  1.
          1    1    3    3  501    0 -0.51836132940E+02 -0.74114260586E+02 -0.13163679303E+03  0.15971272204E+03  0.00000000000E+00 0.  1.
         21    1    1    2  502  501 -0.28212425988E+02 -0.21110720886E+01 -0.65145782719E+01  0.29031660916E+02  0.00000000000E+00 0.  1.
<mgrwt>
<rscale>  1 0.30000000E+03</rscale>
<asrwt>0</asrwt>
<pdfrwt beam="1">  1        1 0.10526504E+00 0.30000000E+03</pdfrwt>
<pdfrwt beam="2">0</pdfrwt>
<totfact> 0.31733636E+01</totfact>
</mgrwt>
</event>
<event>
 6    1  0.1904828E-004  0.3000000E+03  0.7818608E-02  0.1093470E+00
          1   -1    0    0  502    0  0.00000000000E+00  0.00000000000E+00  0.26805550643E+02  0.26805550643E+02  0.00000000000E+00 0.  1.
         13   -1    0    0    0    0 -0.00000000000E+00 -0.00000000000E+00 -0.10000000000E+04  0.10000000000E+04  0.00000000000E+00 0.  1.
    9000005    2    1    2  501    0 -0.31513806150E+02  0.69202699008E+01 -0.96785773189E+03  0.99410248249E+03  0.22461110033E+03 0.  0.
         13    1    3    3    0    0 -0.53678494906E+02  0.10013860801E+03 -0.70968812347E+03  0.71872550686E+03  0.00000000000E+00 0.  1.
          1    1    3    3  501    0  0.22164688756E+02 -0.93218338111E+02 -0.25816960843E+03  0.27537697562E+03  0.00000000000E+00 0.  1.
         21    1    1    2  502  501  0.31513806150E+02 -0.69202699008E+01 -0.53367174662E+01  0.32703068157E+02  0.00000000000E+00 0.  1.
<mgrwt>
<rscale>  1 0.30000000E+03</rscale>
<asrwt>0</asrwt>
<pdfrwt beam="1">  1        1 0.97474935E-01 0.30000000E+03</pdfrwt>
<pdfrwt beam="2">0</pdfrwt>
<totfact> 0.35525840E+01</totfact>
</mgrwt>
</event>
<event>
 6    1  0.1904828E-004  0.3000000E+03  0.7818608E-02  0.1093470E+00
          1   -1    0    0  502    0  0.00000000000E+00  0.00000000000E+00  0.48034504931E+02  0.48034504931E+02  0.00000000000E+00 0.  1.
         13   -1    0    0    0    0 -0.00000000000E+00 -0.00000000000E+00 -0.10000000000E+04  0.10000000000E+04  0.00000000000E+00 0.  1.
    9000005    2    1    2  501    0  0.13857032439E+02 -0.20497985940E+02 -0.96450317246E+03  0.10202968387E+04  0.33185401087E+03 0.  0.
         13    1    3    3    0    0 -0.79348187505E+02 -0.29458641884E+02 -0.90587731527E+03  0.90982287110E+03  0.00000000000E+00 0.  1.
          3    1    3    3  501    0  0.93205219944E+02  0.89606559434E+01 -0.58625857183E+02  0.11047396757E+03  0.00000000000E+00 0.  1.
         21    1    1    2  502  501 -0.13857032439E+02  0.20497985940E+02  0.12537677389E+02  0.27737666267E+02  0.00000000000E+00 0.  1.
<mgrwt>
<rscale>  1 0.30000000E+03</rscale>
<asrwt>0</asrwt>
<pdfrwt beam="1">  1        1 0.17467130E+00 0.30000000E+03</pdfrwt>
<pdfrwt beam="2">0</pdfrwt>
<totfact> 0.13557634E+01</totfact>
</mgrwt>
</event>
<event>
 6    1  0.1904828E-004  0.3000000E+03  0.7818608E-02  0.1093470E+00
          1   -1    0    0  502    0  0.00000000000E+00  0.00000000000E+00  0.29723727639E+02  0.29723727639E+02  0.00000000000E+00 0.  1.
         13   -1    0    0    0    0 -0.00000000000E+00 -0.00000000000E+00 -0.10000000000E+04  0.10000000000E+04  0.00000000000E+00 0.  1.
    9000005    2    1    2  501    0 -0.79785000339E+01 -0.55806721929E+01 -0.96628869254E+03  0.10192022659E+04  0.32398243943E+03 0.  0.
         13    1    3    3    0    0 -0.87851618016E+02  0.81162873323E+02 -0.13823749763E+03  0.18279749601E+03  0.00000000000E+00 0.  1.
          3    1    3    3  501    0  0.79873117982E+02 -0.86743545516E+02 -0.82805119491E+03  0.83640476987E+03  0.00000000000E+00 0.  1.
         21    1    1    2  502  501  0.79785000339E+01  0.55806721929E+01 -0.39875798182E+01  0.10521461767E+02  0.00000000000E+00 0.  1.
<mgrwt>
<rscale>  1 0.30000000E+03</rscale>
<asrwt>0</asrwt>
<pdfrwt beam="1">  1        1 0.10808651E+00 0.30000000E+03</pdfrwt>
<pdfrwt beam="2">0</pdfrwt>
<totfact> 0.30504674E+01</totfact>
</mgrwt>
</event>
<event>
 6    1  0.1904828E-004  0.3000000E+03  0.7818608E-02  0.1093470E+00
          1   -1    0    0  502    0  0.00000000000E+00  0.00000000000E+00  0.28068000821E+02  0.28068000821E+02  0.00000000000E+00 0.  1.
         13   -1    0    0    0    0 -0.00000000000E+00 -0.00000000000E+00 -0.10000000000E+04  0.10000000000E+04  0.00000000000E+00 0.  1.
    9000005    2    1    2  501    0 -0.66052835423E+01  0.11476354018E+02 -0.96507830135E+03  0.10131579490E+04  0.30811940113E+03 0.  0.
         13    1    3    3    0    0 -0.15580439922E+03  0.27631229081E+02 -0.48260578916E+03  0.50788467527E+03  0.00000000000E+00 0.  1.
          3    1    3    3  501    0  0.14919911567E+03 -0.16154875063E+02 -0.48247251219E+03  0.50527327371E+03  0.00000000000E+00 0.  1.
         21    1    1    2  502  501  0.66052835423E+01 -0.11476354018E+02 -0.68536978270E+01  0.14910051849E+02  0.00000000000E+00 0. -1.
<mgrwt>
<rscale>  1 0.30000000E+03</rscale>
<asrwt>0</asrwt>
<pdfrwt beam="1">  1        1 0.10206567E+00 0.30000000E+03</pdfrwt>
<pdfrwt beam="2">0</pdfrwt>
<totfact> 0.33215722E+01</totfact>
</mgrwt>
</event>
<event>
 6    1  0.1904828E-004  0.3000000E+03  0.7818608E-02  0.1093470E+00
          1   -1    0    0  502    0  0.00000000000E+00  0.00000000000E+00  0.11415171704E+03  0.11415171704E+03  0.00000000000E+00 0.  1.
         13   -1    0    0    0    0 -0.00000000000E+00 -0.00000000000E+00 -0.10000000000E+04  0.10000000000E+04  0.00000000000E+00 0.  1.
    9000005    2    1    2  501    0  0.14641856626E+03  0.56743531268E+02 -0.88660864683E+03  0.95712050027E+03  0.32457130881E+03 0.  0.
         13    1    3    3    0    0  0.12154146517E+03  0.11054955733E+03 -0.88253950495E+03  0.89770235055E+03  0.00000000000E+00 0.  1.
          1    1    3    3  501    0  0.24877101097E+02 -0.53806026064E+02 -0.40691418793E+01  0.59418149714E+02  0.00000000000E+00 0.  1.
         21    1    1    2  502  501 -0.14641856626E+03 -0.56743531268E+02  0.76036387098E+00  0.15703121677E+03  0.00000000000E+00 0.  1.
<mgrwt>
<rscale>  1 0.30000000E+03</rscale>
<asrwt>0</asrwt>
<pdfrwt beam="1">  1        1 0.41509803E+00 0.30000000E+03</pdfrwt>
<pdfrwt beam="2">0</pdfrwt>
<totfact> 0.85903205E-01</totfact>
</mgrwt>
</event>
<event>
 6    1  0.1904828E-004  0.3000000E+03  0.7818608E-02  0.1093470E+00
          1   -1    0    0  502    0  0.00000000000E+00  0.00000000000E+00  0.29820655517E+02  0.29820655517E+02  0.00000000000E+00 0.  1.
         13   -1    0    0    0    0 -0.00000000000E+00 -0.00000000000E+00 -0.10000000000E+04  0.10000000000E+04  0.00000000000E+00 0.  1.
    9000005    2    1    2  501    0 -0.21867642224E+01  0.11173816988E+02 -0.96296834769E+03  0.10163434674E+04  0.32483283243E+03 0.  0.
         13    1    3    3    0    0 -0.14002905615E+03  0.37679935420E+02 -0.73074115123E+03  0.74499029806E+03  0.00000000000E+00 0.  1.
          3    1    3    3  501    0  0.13784229192E+03 -0.26506118432E+02 -0.23222719646E+03  0.27135316938E+03  0.00000000000E+00 0.  1.
         21    1    1    2  502  501  0.21867642224E+01 -0.11173816988E+02 -0.72109967973E+01  0.13477188084E+02  0.00000000000E+00 0.  1.
<mgrwt>
<rscale>  1 0.30000000E+03</rscale>
<asrwt>0</asrwt>
<pdfrwt beam="1">  1        1 0.10843898E+00 0.30000000E+03</pdfrwt>
<pdfrwt beam="2">0</pdfrwt>
<totfact> 0.30355967E+01</totfact>
</mgrwt>
</event>
<event>
 6    1  0.1904828E-004  0.3000000E+03  0.7818608E-02  0.1093470E+00
          1   -1    0    0  502    0  0.00000000000E+00  0.00000000000E+00  0.43916689788E+02  0.43916689788E+02  0.00000000000E+00 0.  1.
         13   -1    0    0    0    0 -0.00000000000E+00 -0.00000000000E+00 -0.10000000000E+04  0.10000000000E+04  0.00000000000E+00 0.  1.
    9000005    2    1    2  501    0 -0.68675468704E+02 -0.43080121076E+02 -0.65904113966E+03  0.73601042496E+03  0.31749630715E+03 0.  0.
         13    1    3    3    0    0  0.15476607331E+02 -0.51932671367E+02  0.15357687078E+02  0.56323940578E+02  0.00000000000E+00 0.  1.
          1    1    3    3  501    0 -0.84152076035E+02  0.88525502919E+01 -0.67439882674E+03  0.67968648438E+03  0.00000000000E+00 0.  1.
         21    1    1    2  502  501  0.68675468704E+02  0.43080121076E+02 -0.29704217055E+03  0.30790626483E+03  0.00000000000E+00 0.  1.
<mgrwt>
<rscale>  1 0.30000000E+03</rscale>
<asrwt>0</asrwt>
<pdfrwt beam="1">  1        1 0.15969739E+00 0.30000000E+03</pdfrwt>
<pdfrwt beam="2">0</pdfrwt>
<totfact> 0.16058552E+01</totfact>
</mgrwt>
</event>
<event>
 6    1  0.1904828E-004  0.3000000E+03  0.7818608E-02  0.1093470E+00
          1   -1    0    0  502    0  0.00000000000E+00  0.00000000000E+00  0.41893226949E+02  0.41893226949E+02  0.00000000000E+00 0.  1.
         13   -1    0    0    0    0 -0.00000000000E+00 -0.00000000000E+00 -0.10000000000E+04  0.10000000000E+04  0.00000000000E+00 0.  1.
    9000005    2    1    2  501    0  0.30013854715E+02 -0.37241224956E+02 -0.93457129600E+03  0.98858601364E+03  0.31873352309E+03 0.  0.
         13    1    3    3    0    0  0.11421746595E+03 -0.23769772631E+02 -0.11238980312E+03  0.16199413405E+03  0.00000000000E+00 0.  1.
          3    1    3    3  501    0 -0.84203611239E+02 -0.13471452325E+02 -0.82218149288E+03  0.82659187959E+03  0.00000000000E+00 0.  1.
         21    1    1    2  502  501 -0.30013854715E+02  0.37241224956E+02 -0.23535477050E+02  0.53307213312E+02  0.00000000000E+00 0.  1.
<mgrwt>
<rscale>  1 0.30000000E+03</rscale>
<asrwt>0</asrwt>
<pdfrwt beam="1">  1        1 0.15233933E+00 0.30000000E+03</pdfrwt>
<pdfrwt beam="2">0</pdfrwt>
<totfact> 0.17481096E+01</totfact>
</mgrwt>
</event>
<event>
 6    1  0.1904828E-004  0.3000000E+03  0.7818608E-02  0.1093470E+00
          1   -1    0    0  502    0  0.00000000000E+00  0.00000000000E+00  0.64667832588E+02  0.64667832588E+02  0.00000000000E+00 0.  1.
         13   -1    0    0    0    0 -0.00000000000E+00 -0.00000000000E+00 -0.10000000000E+04  0.10000000000E+04  0.00000000000E+00 0.  1.
    9000005    2    1    2  501    0  0.28199381533E+02 -0.96012378660E+01 -0.96709942137E+03  0.10211184662E+04  0.32636519783E+03 0.  0.
         13    1    3    3    0    0 -0.19673857988E+02  0.26652126989E+02  0.15578644828E+02  0.36607249771E+02  0.00000000000E+00 0.  1.
          3    1    3    3  501    0  0.47873239521E+02 -0.36253364855E+02 -0.98267806620E+03  0.98451121645E+03  0.00000000000E+00 0.  1.
         21    1    1    2  502  501 -0.28199381533E+02  0.96012378660E+01  0.31767253955E+02  0.43549366371E+02  0.00000000000E+00 0.  1.
<mgrwt>
<rscale>  1 0.30000000E+03</rscale>
<asrwt>0</asrwt>
<pdfrwt beam="1">  1        1 0.23515625E+00 0.30000000E+03</pdfrwt>
<pdfrwt beam="2">0</pdfrwt>
<totfact> 0.70004188E+00</totfact>
</mgrwt>
</event>
<event>
 6    1  0.1904828E-004  0.3000000E+03  0.7818608E-02  0.1093470E+00
          1   -1    0    0  502    0  0.00000000000E+00  0.00000000000E+00  0.30246457097E+02  0.30246457097E+02  0.00000000000E+00 0.  1.
         13   -1    0    0    0    0 -0.00000000000E+00 -0.00000000000E+00 -0.10000000000E+04  0.10000000000E+04  0.00000000000E+00 0.  1.
    9000005    2    1    2  501    0  0.12195075505E+02  0.13238552928E+02 -0.93170719855E+03  0.98815722488E+03  0.32871327643E+03 0.  0.
         13    1    3    3    0    0 -0.12029035254E+03 -0.74022046321E+02 -0.64698384446E+03  0.66222135819E+03  0.00000000000E+00 0.  1.
          3    1    3    3  501    0  0.13248542805E+03  0.87260599250E+02 -0.28472335409E+03  0.32593586669E+03  0.00000000000E+00 0.  1.
         21    1    1    2  502  501 -0.12195075505E+02 -0.13238552928E+02 -0.38046344349E+02  0.42089232216E+02  0.00000000000E+00 0. -1.
<mgrwt>
<rscale>  1 0.30000000E+03</rscale>
<asrwt>0</asrwt>
<pdfrwt beam="1">  1        1 0.10998735E+00 0.30000000E+03</pdfrwt>
<pdfrwt beam="2">0</pdfrwt>
<totfact> 0.29714801E+01</totfact>
</mgrwt>
</event>
<event>
 6    1  0.1904828E-004  0.3000000E+03  0.7818608E-02  0.1093470E+00
          1   -1    0    0  502    0  0.00000000000E+00  0.00000000000E+00  0.33889970188E+02  0.33889970188E+02  0.00000000000E+00 0.  1.
         13   -1    0    0    0    0 -0.00000000000E+00 -0.00000000000E+00 -0.10000000000E+04  0.10000000000E+04  0.00000000000E+00 0.  1.
    9000005    2    1    2  501    0  0.19665473561E+02 -0.55506726862E+01 -0.95604941747E+03  0.10111137383E+04  0.32848586323E+03 0.  0.
         13    1    3    3    0    0  0.54195917578E+02  0.10101241796E+03 -0.84720198434E+03  0.85492216507E+03  0.00000000000E+00 0.  1.
          1    1    3    3  501    0 -0.34530444017E+02 -0.10656309065E+03 -0.10884743314E+03  0.15619157325E+03  0.00000000000E+00 0.  1.
         21    1    1    2  502  501 -0.19665473561E+02  0.55506726862E+01 -0.10060612339E+02  0.22776231872E+02  0.00000000000E+00 0.  1.
<mgrwt>
<rscale>  1 0.30000000E+03</rscale>
<asrwt>0</asrwt>
<pdfrwt beam="1">  1        1 0.12323652E+00 0.30000000E+03</pdfrwt>
<pdfrwt beam="2">0</pdfrwt>
<totfact> 0.24930554E+01</totfact>
</mgrwt>
</event>
<event>
 6    1  0.1904828E-004  0.3000000E+03  0.7818608E-02  0.1093470E+00
          1   -1    0    0  502    0  0.00000000000E+00  0.00000000000E+00  0.34903404657E+02  0.34903404657E+02  0.00000000000E+00 0.  1.
         13   -1    0    0    0    0 -0.00000000000E+00 -0.00000000000E+00 -0.10000000000E+04  0.10000000000E+04  0.00000000000E+00 0.  1.
    9000005    2    1    2  501    0  0.21516290493E+02 -0.35866320889E+02 -0.93460992458E+03  0.98314646478E+03  0.30221170785E+03 0.  0.
         13    1    3    3    0    0 -0.19032356804E+02 -0.14720283809E+03 -0.27048183717E+03  0.30853092290E+03  0.00000000000E+00 0.  1.
          1    1    3    3  501    0  0.40548647297E+02  0.11133651720E+03 -0.66412808741E+03  0.67461554188E+03  0.00000000000E+00 0.  1.
         21    1    1    2  502  501 -0.21516290493E+02  0.35866320889E+02 -0.30486670763E+02  0.51756939872E+02  0.00000000000E+00 0.  1.
<mgrwt>
<rscale>  1 0.30000000E+03</rscale>
<asrwt>0</asrwt>
<pdfrwt beam="1">  1        1 0.12692174E+00 0.30000000E+03</pdfrwt>
<pdfrwt beam="2">0</pdfrwt>
<totfact> 0.23785270E+01</totfact>
</mgrwt>
</event>
<event>
 6    1  0.1904828E-004  0.3000000E+03  0.7818608E-02  0.1093470E+00
          1   -1    0    0  502    0  0.00000000000E+00  0.00000000000E+00  0.47440947241E+02  0.47440947241E+02  0.00000000000E+00 0.  1.
         13   -1    0    0    0    0 -0.00000000000E+00 -0.00000000000E+00 -0.10000000000E+04  0.10000000000E+04  0.00000000000E+00 0.  1.
    9000005    2    1    2  501    0 -0.32370264211E+02  0.51640568864E+02 -0.91432234326E+03  0.97549215774E+03  0.33449218237E+03 0.  0.
         13    1    3    3    0    0  0.27162940294E+02  0.10291240523E+03 -0.88539190756E+03  0.89176657173E+03  0.00000000000E+00 0.  1.
          1    1    3    3  501    0 -0.59533204506E+02 -0.51271836363E+02 -0.28930435697E+02  0.83725586008E+02  0.00000000000E+00 0.  1.
         21    1    1    2  502  501  0.32370264211E+02 -0.51640568864E+02 -0.38236709498E+02  0.71948789503E+02  0.00000000000E+00 0.  1.
<mgrwt>
<rscale>  1 0.30000000E+03</rscale>
<asrwt>0</asrwt>
<pdfrwt beam="1">  1        1 0.17251290E+00 0.30000000E+03</pdfrwt>
<pdfrwt beam="2">0</pdfrwt>
<totfact> 0.13889488E+01</totfact>
</mgrwt>
</event>
<event>
 6    1  0.1904828E-004  0.3000000E+03  0.7818608E-02  0.1093470E+00
          1   -1    0    0  502    0  0.00000000000E+00  0.00000000000E+00  0.16129665442E+02  0.16129665442E+02  0.00000000000E+00 0.  1.
         13   -1    0    0    0    0 -0.00000000000E+00 -0.00000000000E+00 -0.10000000000E+04  0.10000000000E+04  0.00000000000E+00 0.  1.
    9000005    2    1    2  501    0 -0.22990185611E+02 -0.53345329564E+01 -0.95556303785E+03  0.97927442263E+03  0.21288651818E+03 0.  0.
         13    1    3    3    0    0  0.19145321791E+02  0.88227851556E+01  0.15429227045E+01  0.21136827928E+02  0.00000000000E+00 0.  1.
          1    1    3    3  501    0 -0.42135507402E+02 -0.14157318112E+02 -0.95710596056E+03  0.95813759470E+03  0.00000000000E+00 0.  1.
         21    1    1    2  502  501  0.22990185611E+02  0.53345329564E+01 -0.28307296704E+02  0.36855242815E+02  0.00000000000E+00 0. -1.
<mgrwt>
<rscale>  1 0.30000000E+03</rscale>
<asrwt>0</asrwt>
<pdfrwt beam="1">  1        1 0.58653453E-01 0.30000000E+03</pdfrwt>
<pdfrwt beam="2">0</pdfrwt>
<totfact> 0.71466478E+01</totfact>
</mgrwt>
</event>
<event>
 6    1  0.1904828E-004  0.3000000E+03  0.7818608E-02  0.1093470E+00
          1   -1    0    0  502    0  0.00000000000E+00  0.00000000000E+00  0.37527291836E+02  0.37527291836E+02  0.00000000000E+00 0.  1.
         13   -1    0    0    0    0 -0.00000000000E+00 -0.00000000000E+00 -0.10000000000E+04  0.10000000000E+04  0.00000000000E+00 0.  1.
    9000005    2    1    2  501    0  0.46795098232E+02  0.37513144209E+02 -0.84914327975E+03  0.90930648014E+03  0.31968257393E+03 0.  0.
         13    1    3    3    0    0 -0.78963598544E+02  0.60003844959E+02 -0.74088935145E+02  0.12379370588E+03  0.00000000000E+00 0.  1.
          3    1    3    3  501    0  0.12575869678E+03 -0.22490700750E+02 -0.77505434460E+03  0.78551277426E+03  0.00000000000E+00 0.  1.
         21    1    1    2  502  501 -0.46795098232E+02 -0.37513144209E+02 -0.11332942842E+03  0.12822081170E+03  0.00000000000E+00 0.  1.
<mgrwt>
<rscale>  1 0.30000000E+03</rscale>
<asrwt>0</asrwt>
<pdfrwt beam="1">  1        1 0.13646317E+00 0.30000000E+03</pdfrwt>
<pdfrwt beam="2">0</pdfrwt>
<totfact> 0.21120322E+01</totfact>
</mgrwt>
</event>
<event>
 6    1  0.1904828E-004  0.3000000E+03  0.7818608E-02  0.1093470E+00
          1   -1    0    0  502    0  0.00000000000E+00  0.00000000000E+00  0.29349841347E+02  0.29349841347E+02  0.00000000000E+00 0.  1.
         13   -1    0    0    0    0 -0.00000000000E+00 -0.00000000000E+00 -0.10000000000E+04  0.10000000000E+04  0.00000000000E+00 0.  1.
    9000005    2    1    2  501    0 -0.87773824967E+01  0.29704637285E+01 -0.95962257020E+03  0.10149458903E+04  0.33038434728E+03 0.  0.
         13    1    3    3    0    0 -0.30297490705E+02 -0.16118738677E+03 -0.43928282946E+03  0.46890160573E+03  0.00000000000E+00 0.  1.
          3    1    3    3  501    0  0.21520108209E+02  0.16415785049E+03 -0.52033974074E+03  0.54604428459E+03  0.00000000000E+00 0.  1.
         21    1    1    2  502  501  0.87773824967E+01 -0.29704637285E+01 -0.11027588450E+02  0.14403951030E+02  0.00000000000E+00 0. -1.
<mgrwt>
<rscale>  1 0.30000000E+03</rscale>
<asrwt>0</asrwt>
<pdfrwt beam="1">  1        1 0.10672692E+00 0.30000000E+03</pdfrwt>
<pdfrwt beam="2">0</pdfrwt>
<totfact> 0.31088169E+01</totfact>
</mgrwt>
</event>
<event>
 6    1  0.1904828E-004  0.3000000E+03  0.7818608E-02  0.1093470E+00
          3   -1    0    0  502    0  0.00000000000E+00  0.00000000000E+00  0.34237517954E+02  0.34237517954E+02  0.00000000000E+00 0.  1.
         13   -1    0    0    0    0 -0.00000000000E+00 -0.00000000000E+00 -0.10000000000E+04  0.10000000000E+04  0.00000000000E+00 0.  1.
    9000005    2    1    2  501    0 -0.83006977105E+01 -0.15022365903E+02 -0.95169109050E+03  0.10120434395E+04  0.34383341689E+03 0.  0.
         13    1    3    3    0    0  0.13051755387E+03 -0.10766897714E+03 -0.58853702585E+03  0.61237510670E+03  0.00000000000E+00 0.  1.
          3    1    3    3  501    0 -0.13881825158E+03  0.92646611240E+02 -0.36315406465E+03  0.39966833277E+03  0.00000000000E+00 0.  1.
         21    1    1    2  502  501  0.83006977105E+01  0.15022365903E+02 -0.14071391542E+02  0.22194078484E+02  0.00000000000E+00 0. -1.
<mgrwt>
<rscale>  1 0.30000000E+03</rscale>
<asrwt>0</asrwt>
<pdfrwt beam="1">  1        3 0.12450033E+00 0.30000000E+03</pdfrwt>
<pdfrwt beam="2">0</pdfrwt>
<totfact> 0.20506838E+00</totfact>
</mgrwt>
</event>
<event>
 6    1  0.1904828E-004  0.3000000E+03  0.7818608E-02  0.1093470E+00
          1   -1    0    0  502    0  0.00000000000E+00  0.00000000000E+00  0.35588309141E+02  0.35588309141E+02  0.00000000000E+00 0.  1.
         13   -1    0    0    0    0 -0.00000000000E+00 -0.00000000000E+00 -0.10000000000E+04  0.10000000000E+04  0.00000000000E+00 0.  1.
    9000005    2    1    2  501    0 -0.23358453368E+02  0.17326286556E+02 -0.94866122307E+03  0.10025142289E+04  0.32284802215E+03 0.  0.
         13    1    3    3    0    0  0.53857876431E+02 -0.23616292418E+02 -0.98305482364E+01  0.59624154500E+02  0.00000000000E+00 0.  1.
          3    1    3    3  501    0 -0.77216329799E+02  0.40942578974E+02 -0.93883067483E+03  0.94289007438E+03  0.00000000000E+00 0.  1.
         21    1    1    2  502  501  0.23358453368E+02 -0.17326286556E+02 -0.15750467793E+02  0.33074080264E+02  0.00000000000E+00 0.  1.
<mgrwt>
<rscale>  1 0.30000000E+03</rscale>
<asrwt>0</asrwt>
<pdfrwt beam="1">  1        1 0.12941231E+00 0.30000000E+03</pdfrwt>
<pdfrwt beam="2">0</pdfrwt>
<totfact> 0.23049169E+01</totfact>
</mgrwt>
</event>
<event>
 6    1  0.1904828E-004  0.3000000E+03  0.7818608E-02  0.1093470E+00
          1   -1    0    0  502    0  0.00000000000E+00  0.00000000000E+00  0.35848082946E+02  0.35848082946E+02  0.00000000000E+00 0.  1.
         13   -1    0    0    0    0 -0.00000000000E+00 -0.00000000000E+00 -0.10000000000E+04  0.10000000000E+04  0.00000000000E+00 0.  1.
    9000005    2    1    2  501    0 -0.10844194694E+02 -0.20240905068E+02 -0.96258860688E+03  0.10128321160E+04  0.31420499402E+03 0.  0.
         13    1    3    3    0    0 -0.15417543458E+03 -0.55841522210E+02 -0.57979755893E+03  0.60253925148E+03  0.00000000000E+00 0.  1.
          3    1    3    3  501    0  0.14333123989E+03  0.35600617142E+02 -0.38279104795E+03  0.41029286450E+03  0.00000000000E+00 0.  1.
         21    1    1    2  502  501  0.10844194694E+02  0.20240905068E+02 -0.15633101693E+01  0.23015966963E+02  0.00000000000E+00 0.  1.
<mgrwt>
<rscale>  1 0.30000000E+03</rscale>
<asrwt>0</asrwt>
<pdfrwt beam="1">  1        1 0.13035694E+00 0.30000000E+03</pdfrwt>
<pdfrwt beam="2">0</pdfrwt>
<totfact> 0.22777688E+01</totfact>
</mgrwt>
</event>
<event>
 6    1  0.1904828E-004  0.3000000E+03  0.7818608E-02  0.1093470E+00
          1   -1    0    0  502    0  0.00000000000E+00  0.00000000000E+00  0.32743580473E+02  0.32743580473E+02  0.00000000000E+00 0.  1.
         13   -1    0    0    0    0 -0.00000000000E+00 -0.00000000000E+00 -0.10000000000E+04  0.10000000000E+04  0.00000000000E+00 0.  1.
    9000005    2    1    2  501    0  0.46211038590E+01  0.11028611144E+02 -0.96797064083E+03  0.10207646416E+04  0.32380597147E+03 0.  0.
         13    1    3    3    0    0 -0.63720103462E+02  0.43387655299E+02 -0.34876179917E+02  0.84611394878E+02  0.00000000000E+00 0.  1.
          1    1    3    3  501    0  0.68341207321E+02 -0.32359044155E+02 -0.93309446091E+03  0.93615324671E+03  0.00000000000E+00 0.  1.
         21    1    1    2  502  501 -0.46211038590E+01 -0.11028611144E+02  0.71422129876E+00  0.11978938881E+02  0.00000000000E+00 0.  1.
<mgrwt>
<rscale>  1 0.30000000E+03</rscale>
<asrwt>0</asrwt>
<pdfrwt beam="1">  1        1 0.11906782E+00 0.30000000E+03</pdfrwt>
<pdfrwt beam="2">0</pdfrwt>
<totfact> 0.26314108E+01</totfact>
</mgrwt>
</event>
<event>
 6    1  0.1904828E-004  0.3000000E+03  0.7818608E-02  0.1093470E+00
          1   -1    0    0  502    0  0.00000000000E+00  0.00000000000E+00  0.43384243482E+02  0.43384243482E+02  0.00000000000E+00 0.  1.
         13   -1    0    0    0    0 -0.00000000000E+00 -0.00000000000E+00 -0.10000000000E+04  0.10000000000E+04  0.00000000000E+00 0.  1.
    9000005    2    1    2  501    0  0.14514459839E+01 -0.26601371933E+02 -0.96125165990E+03  0.10163429550E+04  0.32899621392E+03 0.  0.
         13    1    3    3    0    0  0.15238020664E+03 -0.39216335577E+02 -0.30919897710E+03  0.34693177398E+03  0.00000000000E+00 0.  1.
          3    1    3    3  501    0 -0.15092876066E+03  0.12614963645E+02 -0.65205268280E+03  0.66941118100E+03  0.00000000000E+00 0.  1.
         21    1    1    2  502  501 -0.14514459839E+01  0.26601371933E+02  0.46359033812E+01  0.27041288511E+02  0.00000000000E+00 0. -1.
<mgrwt>
<rscale>  1 0.30000000E+03</rscale>
<asrwt>0</asrwt>
<pdfrwt beam="1">  1        1 0.15776122E+00 0.30000000E+03</pdfrwt>
<pdfrwt beam="2">0</pdfrwt>
<totfact> 0.16419078E+01</totfact>
</mgrwt>
</event>
<event>
 6    1  0.1904828E-004  0.3000000E+03  0.7818608E-02  0.1093470E+00
          1   -1    0    0  502    0  0.00000000000E+00  0.00000000000E+00  0.26141857403E+02  0.26141857403E+02  0.00000000000E+00 0.  1.
         13   -1    0    0    0    0 -0.00000000000E+00 -0.00000000000E+00 -0.10000000000E+04  0.10000000000E+04  0.00000000000E+00 0.  1.
    9000005    2    1    2  501    0 -0.15480430259E+02  0.20672245983E+01 -0.94839260211E+03  0.99626861033E+03  0.30472725354E+03 0.  0.
         13    1    3    3    0    0  0.24040105505E+00 -0.11592963880E+03 -0.78824762502E+03  0.79672709085E+03  0.00000000000E+00 0.  1.
          3    1    3    3  501    0 -0.15720831314E+02  0.11799686340E+03 -0.16014497709E+03  0.19954151948E+03  0.00000000000E+00 0.  1.
         21    1    1    2  502  501  0.15480430259E+02 -0.20672245983E+01 -0.25465540487E+02  0.29873247076E+02  0.00000000000E+00 0. -1.
<mgrwt>
<rscale>  1 0.30000000E+03</rscale>
<asrwt>0</asrwt>
<pdfrwt beam="1">  1        1 0.95061500E-01 0.30000000E+03</pdfrwt>
<pdfrwt beam="2">0</pdfrwt>
<totfact> 0.36836752E+01</totfact>
</mgrwt>
</event>
<event>
 6    1  0.1904828E-004  0.3000000E+03  0.7818608E-02  0.1093470E+00
          1   -1    0    0  502    0  0.00000000000E+00  0.00000000000E+00  0.24273921386E+02  0.24273921386E+02  0.00000000000E+00 0.  1.
         13   -1    0    0    0    0 -0.00000000000E+00 -0.00000000000E+00 -0.10000000000E+04  0.10000000000E+04  0.00000000000E+00 0.  1.
    9000005    2    1    2  501    0 -0.51012077221E+01 -0.10673463683E+02 -0.95902609484E+03  0.10038084723E+04  0.29624390859E+03 0.  0.
         13    1    3    3    0    0  0.10781033529E+03 -0.29252469423E+02 -0.15158766887E+03  0.18830187656E+03  0.00000000000E+00 0.  1.
          1    1    3    3  501    0 -0.11291154301E+03  0.18579005740E+02 -0.80743842597E+03  0.81550659577E+03  0.00000000000E+00 0.  1.
         21    1    1    2  502  501  0.51012077221E+01  0.10673463683E+02 -0.16699983771E+02  0.20465449059E+02  0.00000000000E+00 0.  1.
<mgrwt>
<rscale>  1 0.30000000E+03</rscale>
<asrwt>0</asrwt>
<pdfrwt beam="1">  1        1 0.88268991E-01 0.30000000E+03</pdfrwt>
<pdfrwt beam="2">0</pdfrwt>
<totfact> 0.40940839E+01</totfact>
</mgrwt>
</event>
<event>
 6    1  0.1904828E-004  0.3000000E+03  0.7818608E-02  0.1093470E+00
          1   -1    0    0  502    0  0.00000000000E+00  0.00000000000E+00  0.40563169073E+02  0.40563169073E+02  0.00000000000E+00 0.  1.
         13   -1    0    0    0    0 -0.00000000000E+00 -0.00000000000E+00 -0.10000000000E+04  0.10000000000E+04  0.00000000000E+00 0.  1.
    9000005    2    1    2  501    0  0.43882928368E+01  0.10330501549E+02 -0.95720363942E+03  0.10291192397E+04  0.37778515817E+03 0.  0.
         13    1    3    3    0    0  0.49486649423E+01  0.49059594335E+02 -0.98192954000E+03  0.98316679897E+03  0.00000000000E+00 0.  1.
          1    1    3    3  501    0 -0.56037210549E+00 -0.38729092786E+02  0.24725900581E+02  0.45952440680E+02  0.00000000000E+00 0.  1.
         21    1    1    2  502  501 -0.43882928368E+01 -0.10330501549E+02 -0.22331915098E+01  0.11443929421E+02  0.00000000000E+00 0.  1.
<mgrwt>
<rscale>  1 0.30000000E+03</rscale>
<asrwt>0</asrwt>
<pdfrwt beam="1">  1        1 0.14750274E+00 0.30000000E+03</pdfrwt>
<pdfrwt beam="2">0</pdfrwt>
<totfact> 0.18499910E+01</totfact>
</mgrwt>
</event>
<event>
 6    1  0.1904828E-004  0.3000000E+03  0.7818608E-02  0.1093470E+00
          1   -1    0    0  502    0  0.00000000000E+00  0.00000000000E+00  0.35951827824E+02  0.35951827824E+02  0.00000000000E+00 0.  1.
         13   -1    0    0    0    0 -0.00000000000E+00 -0.00000000000E+00 -0.10000000000E+04  0.10000000000E+04  0.00000000000E+00 0.  1.
    9000005    2    1    2  501    0  0.36868536460E+02  0.29848892369E+02 -0.85998374904E+03  0.92158553244E+03  0.32786826568E+03 0.  0.
         13    1    3    3    0    0  0.36057528112E+02 -0.99945042514E+01 -0.87732630787E+03  0.87812384430E+03  0.00000000000E+00 0.  1.
          3    1    3    3  501    0  0.81100834713E+00  0.39843396620E+02  0.17342558836E+02  0.43461688137E+02  0.00000000000E+00 0.  1.
         21    1    1    2  502  501 -0.36868536460E+02 -0.29848892369E+02 -0.10406442314E+03  0.11436629538E+03  0.00000000000E+00 0. -1.
<mgrwt>
<rscale>  1 0.30000000E+03</rscale>
<asrwt>0</asrwt>
<pdfrwt beam="1">  1        1 0.13073420E+00 0.30000000E+03</pdfrwt>
<pdfrwt beam="2">0</pdfrwt>
<totfact> 0.22670431E+01</totfact>
</mgrwt>
</event>
<event>
 6    1  0.1904828E-004  0.3000000E+03  0.7818608E-02  0.1093470E+00
          1   -1    0    0  502    0  0.00000000000E+00  0.00000000000E+00  0.34044517578E+02  0.34044517578E+02  0.00000000000E+00 0.  1.
         13   -1    0    0    0    0 -0.00000000000E+00 -0.00000000000E+00 -0.10000000000E+04  0.10000000000E+04  0.00000000000E+00 0.  1.
    9000005    2    1    2  501    0  0.13376658987E+02 -0.35709830510E+02 -0.95280271701E+03  0.99370691429E+03  0.27958234381E+03 0.  0.
         13    1    3    3    0    0 -0.12797038242E+03 -0.45431169369E+02 -0.37639550401E+03  0.40014245634E+03  0.00000000000E+00 0.  1.
          3    1    3    3  501    0  0.14134704141E+03  0.97213388585E+01 -0.57640721301E+03  0.59356445796E+03  0.00000000000E+00 0.  1.
         21    1    1    2  502  501 -0.13376658987E+02  0.35709830510E+02 -0.13152765410E+02  0.40337603283E+02  0.00000000000E+00 0.  1.
<mgrwt>
<rscale>  1 0.30000000E+03</rscale>
<asrwt>0</asrwt>
<pdfrwt beam="1">  1        1 0.12379851E+00 0.30000000E+03</pdfrwt>
<pdfrwt beam="2">0</pdfrwt>
<totfact> 0.24751413E+01</totfact>
</mgrwt>
</event>
<event>
 6    1  0.1904828E-004  0.3000000E+03  0.7818608E-02  0.1093470E+00
          1   -1    0    0  502    0  0.00000000000E+00  0.00000000000E+00  0.32731793934E+02  0.32731793934E+02  0.00000000000E+00 0.  1.
         13   -1    0    0    0    0 -0.00000000000E+00 -0.00000000000E+00 -0.10000000000E+04  0.10000000000E+04  0.00000000000E+00 0.  1.
    9000005    2    1    2  501    0 -0.17928569925E+02 -0.10260378852E+02 -0.95257615298E+03  0.10073829198E+04  0.32709679144E+03 0.  0.
         13    1    3    3    0    0 -0.84495225274E+02  0.13272714532E+03 -0.33697739374E+03  0.37190012381E+03  0.00000000000E+00 0.  1.
          3    1    3    3  501    0  0.66566655349E+02 -0.14298752417E+03 -0.61559875924E+03  0.63548279603E+03  0.00000000000E+00 0.  1.
         21    1    1    2  502  501  0.17928569925E+02  0.10260378852E+02 -0.14692053082E+02  0.25348874088E+02  0.00000000000E+00 0.  1.
<mgrwt>
<rscale>  1 0.30000000E+03</rscale>
<asrwt>0</asrwt>
<pdfrwt beam="1">  1        1 0.11902496E+00 0.30000000E+03</pdfrwt>
<pdfrwt beam="2">0</pdfrwt>
<totfact> 0.26328859E+01</totfact>
</mgrwt>
</event>
<event>
 6    1  0.1904828E-004  0.3000000E+03  0.7818608E-02  0.1093470E+00
          1   -1    0    0  502    0  0.00000000000E+00  0.00000000000E+00  0.53759671670E+02  0.53759671670E+02  0.00000000000E+00 0.  1.
         13   -1    0    0    0    0 -0.00000000000E+00 -0.00000000000E+00 -0.10000000000E+04  0.10000000000E+04  0.00000000000E+00 0.  1.
    9000005    2    1    2  501    0 -0.99492025314E+01  0.99631780828E+01 -0.97104791826E+03  0.10252348042E+04  0.32859411523E+03 0.  0.
         13    1    3    3    0    0  0.24465899422E+02 -0.78397903930E+02 -0.43658795014E+02  0.93010225015E+02  0.00000000000E+00 0.  1.
          3    1    3    3  501    0 -0.34415101953E+02  0.88361082013E+02 -0.92738912324E+03  0.93222457915E+03  0.00000000000E+00 0.  1.
         21    1    1    2  502  501  0.99492025314E+01 -0.99631780828E+01  0.24807589925E+02  0.28524867509E+02  0.00000000000E+00 0. -1.
<mgrwt>
<rscale>  1 0.30000000E+03</rscale>
<asrwt>0</asrwt>
<pdfrwt beam="1">  1        1 0.19549013E+00 0.30000000E+03</pdfrwt>
<pdfrwt beam="2">0</pdfrwt>
<totfact> 0.10762563E+01</totfact>
</mgrwt>
</event>
<event>
 6    1  0.1904828E-004  0.3000000E+03  0.7818608E-02  0.1093470E+00
          3   -1    0    0  502    0  0.00000000000E+00  0.00000000000E+00  0.27423727590E+02  0.27423727590E+02  0.00000000000E+00 0.  1.
         13   -1    0    0    0    0 -0.00000000000E+00 -0.00000000000E+00 -0.10000000000E+04  0.10000000000E+04  0.00000000000E+00 0.  1.
    9000005    2    1    2  501    0 -0.49600531645E+01 -0.82639936661E+01 -0.96390386621E+03  0.10144581444E+04  0.31610404566E+03 0.  0.
         13    1    3    3    0    0 -0.12090018405E+02  0.12308737423E+03 -0.17284844824E+03  0.21254001105E+03  0.00000000000E+00 0.  1.
          1    1    3    3  501    0  0.71299652404E+01 -0.13135136790E+03 -0.79105541797E+03  0.80191813332E+03  0.00000000000E+00 0.  1.
         21    1    1    2  502  501  0.49600531645E+01  0.82639936661E+01 -0.86724062010E+01  0.12965583212E+02  0.00000000000E+00 0. -1.
<mgrwt>
<rscale>  1 0.30000000E+03</rscale>
<asrwt>0</asrwt>
<pdfrwt beam="1">  1        3 0.99722856E-01 0.30000000E+03</pdfrwt>
<pdfrwt beam="2">0</pdfrwt>
<totfact> 0.39456484E+00</totfact>
</mgrwt>
</event>
<event>
 6    1  0.1904828E-004  0.3000000E+03  0.7818608E-02  0.1093470E+00
          3   -1    0    0  502    0  0.00000000000E+00  0.00000000000E+00  0.32944322451E+02  0.32944322451E+02  0.00000000000E+00 0.  1.
         13   -1    0    0    0    0 -0.00000000000E+00 -0.00000000000E+00 -0.10000000000E+04  0.10000000000E+04  0.00000000000E+00 0.  1.
    9000005    2    1    2  501    0 -0.83639270458E+01 -0.32565031253E+02 -0.89162682964E+03  0.95036134822E+03  0.32719696258E+03 0.  0.
         13    1    3    3    0    0 -0.69928744714E+02  0.13406473562E+03 -0.42005483734E+03  0.44644086847E+03  0.00000000000E+00 0.  1.
          1    1    3    3  501    0  0.61564817668E+02 -0.16662976687E+03 -0.47157199231E+03  0.50392047975E+03  0.00000000000E+00 0.  1.
         21    1    1    2  502  501  0.83639270458E+01  0.32565031253E+02 -0.75428847906E+02  0.82582974230E+02  0.00000000000E+00 0.  1.
<mgrwt>
<rscale>  1 0.30000000E+03</rscale>
<asrwt>0</asrwt>
<pdfrwt beam="1">  1        3 0.11979779E+00 0.30000000E+03</pdfrwt>
<pdfrwt beam="2">0</pdfrwt>
<totfact> 0.23255037E+00</totfact>
</mgrwt>
</event>
<event>
 6    1  0.1904828E-004  0.3000000E+03  0.7818608E-02  0.1093470E+00
          1   -1    0    0  502    0  0.00000000000E+00  0.00000000000E+00  0.32138384690E+02  0.32138384690E+02  0.00000000000E+00 0.  1.
         13   -1    0    0    0    0 -0.00000000000E+00 -0.00000000000E+00 -0.10000000000E+04  0.10000000000E+04  0.00000000000E+00 0.  1.
    9000005    2    1    2  501    0 -0.13434280055E+02  0.70796402509E+00 -0.97030923945E+03  0.10184646157E+04  0.30917498643E+03 0.  0.
         13    1    3    3    0    0  0.93416303334E+02  0.11346586732E+03 -0.36353360107E+03  0.39211960915E+03  0.00000000000E+00 0.  1.
          3    1    3    3  501    0 -0.10685058339E+03 -0.11275790330E+03 -0.60677563838E+03  0.62634500657E+03  0.00000000000E+00 0.  1.
         21    1    1    2  502  501  0.13434280055E+02 -0.70796402509E+00  0.24476241425E+01  0.13673768961E+02  0.00000000000E+00 0.  1.
<mgrwt>
<rscale>  1 0.30000000E+03</rscale>
<asrwt>0</asrwt>
<pdfrwt beam="1">  1        1 0.11686710E+00 0.30000000E+03</pdfrwt>
<pdfrwt beam="2">0</pdfrwt>
<totfact> 0.27086302E+01</totfact>
</mgrwt>
</event>
<event>
 6    1  0.1904828E-004  0.3000000E+03  0.7818608E-02  0.1093470E+00
          1   -1    0    0  502    0  0.00000000000E+00  0.00000000000E+00  0.33532447548E+02  0.33532447548E+02  0.00000000000E+00 0.  1.
         13   -1    0    0    0    0 -0.00000000000E+00 -0.00000000000E+00 -0.10000000000E+04  0.10000000000E+04  0.00000000000E+00 0.  1.
    9000005    2    1    2  501    0 -0.23154053879E+02  0.23584238360E+02 -0.92288970243E+03  0.97883916165E+03  0.32451251904E+03 0.  0.
         13    1    3    3    0    0 -0.52812869448E+02  0.13053830914E+03 -0.18421212739E+03  0.23186969878E+03  0.00000000000E+00 0.  1.
          1    1    3    3  501    0  0.29658815569E+02 -0.10695407078E+03 -0.73867757504E+03  0.74696946287E+03  0.00000000000E+00 0.  1.
         21    1    1    2  502  501  0.23154053879E+02 -0.23584238360E+02 -0.43577850021E+02  0.54693285900E+02  0.00000000000E+00 0. -1.
<mgrwt>
<rscale>  1 0.30000000E+03</rscale>
<asrwt>0</asrwt>
<pdfrwt beam="1">  1        1 0.12193643E+00 0.30000000E+03</pdfrwt>
<pdfrwt beam="2">0</pdfrwt>
<totfact> 0.25351494E+01</totfact>
</mgrwt>
</event>
<event>
 6    1  0.1904828E-004  0.3000000E+03  0.7818608E-02  0.1093470E+00
          1   -1    0    0  502    0  0.00000000000E+00  0.00000000000E+00  0.26383366051E+02  0.26383366051E+02  0.00000000000E+00 0.  1.
         13   -1    0    0    0    0 -0.00000000000E+00 -0.00000000000E+00 -0.10000000000E+04  0.10000000000E+04  0.00000000000E+00 0.  1.
    9000005    2    1    2  501    0 -0.41170951897E+01  0.77926287110E+01 -0.95345469284E+03  0.10043792891E+04  0.31563306141E+03 0.  0.
         13    1    3    3    0    0 -0.68160169827E+02 -0.18457206211E+02 -0.27404566303E+02  0.75746204302E+02  0.00000000000E+00 0.  1.
          1    1    3    3  501    0  0.64043074637E+02  0.26249834922E+02 -0.92605012654E+03  0.92863308476E+03  0.00000000000E+00 0.  1.
         21    1    1    2  502  501  0.41170951897E+01 -0.77926287110E+01 -0.20161941105E+02  0.22004076989E+02  0.00000000000E+00 0.  1.
<mgrwt>
<rscale>  1 0.30000000E+03</rscale>
<asrwt>0</asrwt>
<pdfrwt beam="1">  1        1 0.95939715E-01 0.30000000E+03</pdfrwt>
<pdfrwt beam="2">0</pdfrwt>
<totfact> 0.36351530E+01</totfact>
</mgrwt>
</event>
<event>
 6    1  0.1904828E-004  0.3000000E+03  0.7818608E-02  0.1093470E+00
          1   -1    0    0  502    0  0.00000000000E+00  0.00000000000E+00  0.42286257491E+02  0.42286257491E+02  0.00000000000E+00 0.  1.
         13   -1    0    0    0    0 -0.00000000000E+00 -0.00000000000E+00 -0.10000000000E+04  0.10000000000E+04  0.00000000000E+00 0.  1.
    9000005    2    1    2  501    0  0.80260642343E+02  0.93931356620E+01 -0.79209758889E+03  0.85800736004E+03  0.31973119624E+03 0.  0.
         13    1    3    3    0    0  0.14590262221E+03 -0.11539702731E+03 -0.50454581280E+03  0.53774578222E+03  0.00000000000E+00 0.  1.
          1    1    3    3  501    0 -0.65641979867E+02  0.12479016297E+03 -0.28755177610E+03  0.32026157782E+03  0.00000000000E+00 0.  1.
         21    1    1    2  502  501 -0.80260642343E+02 -0.93931356620E+01 -0.16561615362E+03  0.18427889745E+03  0.00000000000E+00 0.  1.
<mgrwt>
<rscale>  1 0.30000000E+03</rscale>
<asrwt>0</asrwt>
<pdfrwt beam="1">  1        1 0.15376853E+00 0.30000000E+03</pdfrwt>
<pdfrwt beam="2">0</pdfrwt>
<totfact> 0.17193317E+01</totfact>
</mgrwt>
</event>
<event>
 6    1  0.1904828E-004  0.3000000E+03  0.7818608E-02  0.1093470E+00
          1   -1    0    0  502    0  0.00000000000E+00  0.00000000000E+00  0.79636169529E+02  0.79636169529E+02  0.00000000000E+00 0.  1.
         13   -1    0    0    0    0 -0.00000000000E+00 -0.00000000000E+00 -0.10000000000E+04  0.10000000000E+04  0.00000000000E+00 0.  1.
    9000005    2    1    2  501    0 -0.10008214793E+03 -0.13824318377E+03 -0.45511725983E+03  0.58407387709E+03  0.32385638717E+03 0.  0.
         13    1    3    3    0    0 -0.10405578326E+01 -0.12945873259E+02  0.51377805318E+02  0.52993936204E+02  0.00000000000E+00 0.  1.
          1    1    3    3  501    0 -0.99041590101E+02 -0.12529731051E+03 -0.50649506515E+03  0.53107994088E+03  0.00000000000E+00 0.  1.
         21    1    1    2  502  501  0.10008214793E+03  0.13824318377E+03 -0.46524657064E+03  0.49556229244E+03  0.00000000000E+00 0.  1.
<mgrwt>
<rscale>  1 0.30000000E+03</rscale>
<asrwt>0</asrwt>
<pdfrwt beam="1">  1        1 0.28958668E+00 0.30000000E+03</pdfrwt>
<pdfrwt beam="2">0</pdfrwt>
<totfact> 0.38920640E+00</totfact>
</mgrwt>
</event>
<event>
 6    1  0.1904828E-004  0.3000000E+03  0.7818608E-02  0.1093470E+00
          1   -1    0    0  502    0  0.00000000000E+00  0.00000000000E+00  0.40655207923E+02  0.40655207923E+02  0.00000000000E+00 0.  1.
         13   -1    0    0    0    0 -0.00000000000E+00 -0.00000000000E+00 -0.10000000000E+04  0.10000000000E+04  0.00000000000E+00 0.  1.
    9000005    2    1    2  501    0 -0.25061635158E+02 -0.72822345000E+02 -0.78836105068E+03  0.85312755846E+03  0.31683166714E+03 0.  0.
         13    1    3    3    0    0  0.58229762829E+02  0.83157766611E+02 -0.10030393068E+03  0.14271229077E+03  0.00000000000E+00 0.  1.
          3    1    3    3  501    0 -0.83291397987E+02 -0.15598011161E+03 -0.68805711999E+03  0.71041526769E+03  0.00000000000E+00 0.  1.
         21    1    1    2  502  501  0.25061635158E+02  0.72822345000E+02 -0.17098374140E+03  0.18752764946E+03  0.00000000000E+00 0. -1.
<mgrwt>
<rscale>  1 0.30000000E+03</rscale>
<asrwt>0</asrwt>
<pdfrwt beam="1">  1        1 0.14783743E+00 0.30000000E+03</pdfrwt>
<pdfrwt beam="2">0</pdfrwt>
<totfact> 0.18427072E+01</totfact>
</mgrwt>
</event>
<event>
 6    1  0.1904828E-004  0.3000000E+03  0.7818608E-02  0.1093470E+00
          1   -1    0    0  502    0  0.00000000000E+00  0.00000000000E+00  0.30226990555E+02  0.30226990555E+02  0.00000000000E+00 0.  1.
         13   -1    0    0    0    0 -0.00000000000E+00 -0.00000000000E+00 -0.10000000000E+04  0.10000000000E+04  0.00000000000E+00 0.  1.
    9000005    2    1    2  501    0  0.10318628943E+02  0.14659264599E+02 -0.95499571025E+03  0.10069947562E+04  0.31890478872E+03 0.  0.
         13    1    3    3    0    0  0.13465133231E+03 -0.47202554519E+02 -0.72025168308E+03  0.73424896964E+03  0.00000000000E+00 0.  1.
          3    1    3    3  501    0 -0.12433270336E+03  0.61861819118E+02 -0.23474402717E+03  0.27274578655E+03  0.00000000000E+00 0.  1.
         21    1    1    2  502  501 -0.10318628943E+02 -0.14659264599E+02 -0.14777299197E+02  0.23232234361E+02  0.00000000000E+00 0. -1.
<mgrwt>
<rscale>  1 0.30000000E+03</rscale>
<asrwt>0</asrwt>
<pdfrwt beam="1">  1        1 0.10991656E+00 0.30000000E+03</pdfrwt>
<pdfrwt beam="2">0</pdfrwt>
<totfact> 0.29743691E+01</totfact>
</mgrwt>
</event>
<event>
 6    1  0.1904828E-004  0.3000000E+03  0.7818608E-02  0.1093470E+00
          1   -1    0    0  502    0  0.00000000000E+00  0.00000000000E+00  0.28446512642E+02  0.28446512642E+02  0.00000000000E+00 0.  1.
         13   -1    0    0    0    0 -0.00000000000E+00 -0.00000000000E+00 -0.10000000000E+04  0.10000000000E+04  0.00000000000E+00 0.  1.
    9000005    2    1    2  501    0  0.83242719547E+01  0.44951013077E+01 -0.96266119182E+03  0.10154629708E+04  0.32304639814E+03 0.  0.
         13    1    3    3    0    0 -0.32652412227E+02  0.29739311259E+02 -0.96619588229E+03  0.96720478164E+03  0.00000000000E+00 0.  1.
          1    1    3    3  501    0  0.40976684182E+02 -0.25244209952E+02  0.35346904751E+01  0.48258189143E+02  0.00000000000E+00 0.  1.
         21    1    1    2  502  501 -0.83242719547E+01 -0.44951013077E+01 -0.88922955382E+01  0.12983541862E+02  0.00000000000E+00 0.  1.
<mgrwt>
<rscale>  1 0.30000000E+03</rscale>
<asrwt>0</asrwt>
<pdfrwt beam="1">  1        1 0.10344208E+00 0.30000000E+03</pdfrwt>
<pdfrwt beam="2">0</pdfrwt>
<totfact> 0.32566024E+01</totfact>
</mgrwt>
</event>
<event>
 6    1  0.1904828E-004  0.3000000E+03  0.7818608E-02  0.1093470E+00
          1   -1    0    0  502    0  0.00000000000E+00  0.00000000000E+00  0.33065632084E+02  0.33065632084E+02  0.00000000000E+00 0.  1.
         13   -1    0    0    0    0 -0.00000000000E+00 -0.00000000000E+00 -0.10000000000E+04  0.10000000000E+04  0.00000000000E+00 0.  1.
    9000005    2    1    2  501    0 -0.19054801027E+02 -0.33931376492E+01 -0.97677255006E+03  0.10113541454E+04  0.26149186236E+03 0.  0.
         13    1    3    3    0    0 -0.13093770059E+03  0.46955205852E+02 -0.49051896924E+03  0.50986109086E+03  0.00000000000E+00 0.  1.
          3    1    3    3  501    0  0.11188289956E+03 -0.50348343501E+02 -0.48625358082E+03  0.50149305456E+03  0.00000000000E+00 0.  1.
         21    1    1    2  502  501  0.19054801027E+02  0.33931376492E+01  0.98381821442E+01  0.21711486665E+02  0.00000000000E+00 0. -1.
<mgrwt>
<rscale>  1 0.30000000E+03</rscale>
<asrwt>0</asrwt>
<pdfrwt beam="1">  1        1 0.12023892E+00 0.30000000E+03</pdfrwt>
<pdfrwt beam="2">0</pdfrwt>
<totfact> 0.25915328E+01</totfact>
</mgrwt>
</event>
<event>
 6    1  0.1904828E-004  0.3000000E+03  0.7818608E-02  0.1093470E+00
          1   -1    0    0  502    0  0.00000000000E+00  0.00000000000E+00  0.34221740392E+02  0.34221740392E+02  0.00000000000E+00 0.  1.
         13   -1    0    0    0    0 -0.00000000000E+00 -0.00000000000E+00 -0.10000000000E+04  0.10000000000E+04  0.00000000000E+00 0.  1.
    9000005    2    1    2  501    0  0.27662127146E+02  0.18138094024E+02 -0.95042748303E+03  0.99775490512E+03  0.30184145915E+03 0.  0.
         13    1    3    3    0    0 -0.33119977893E+02  0.11896684304E+03 -0.78532388444E+03  0.79497399086E+03  0.00000000000E+00 0.  1.
          3    1    3    3  501    0  0.60782105038E+02 -0.10082874901E+03 -0.16510359859E+03  0.20278091426E+03  0.00000000000E+00 0.  1.
         21    1    1    2  502  501 -0.27662127146E+02 -0.18138094024E+02 -0.15350776578E+02  0.36466835270E+02  0.00000000000E+00 0. -1.
<mgrwt>
<rscale>  1 0.30000000E+03</rscale>
<asrwt>0</asrwt>
<pdfrwt beam="1">  1        1 0.12444295E+00 0.30000000E+03</pdfrwt>
<pdfrwt beam="2">0</pdfrwt>
<totfact> 0.24548031E+01</totfact>
</mgrwt>
</event>
<event>
 6    1  0.1904828E-004  0.3000000E+03  0.7818608E-02  0.1093470E+00
          1   -1    0    0  502    0  0.00000000000E+00  0.00000000000E+00  0.45868781744E+02  0.45868781744E+02  0.00000000000E+00 0.  1.
         13   -1    0    0    0    0 -0.00000000000E+00 -0.00000000000E+00 -0.10000000000E+04  0.10000000000E+04  0.00000000000E+00 0.  1.
    9000005    2    1    2  501    0 -0.43411878088E+00 -0.91559954556E+02 -0.73107405354E+03  0.80475073499E+03  0.32368358002E+03 0.  0.
         13    1    3    3    0    0 -0.81761333658E+02 -0.11803735998E+03 -0.11832286673E+03  0.18605922397E+03  0.00000000000E+00 0.  1.
          1    1    3    3  501    0  0.81327214877E+02  0.26477405428E+02 -0.61275118680E+03  0.61869151102E+03  0.00000000000E+00 0.  1.
         21    1    1    2  502  501  0.43411878088E+00  0.91559954556E+02 -0.22305716472E+03  0.24111804675E+03  0.00000000000E+00 0.  1.
<mgrwt>
<rscale>  1 0.30000000E+03</rscale>
<asrwt>0</asrwt>
<pdfrwt beam="1">  1        1 0.16679592E+00 0.30000000E+03</pdfrwt>
<pdfrwt beam="2">0</pdfrwt>
<totfact> 0.14813001E+01</totfact>
</mgrwt>
</event>
<event>
 6    1  0.1904828E-004  0.3000000E+03  0.7818608E-02  0.1093470E+00
          1   -1    0    0  502    0  0.00000000000E+00  0.00000000000E+00  0.32692171683E+02  0.32692171683E+02  0.00000000000E+00 0.  1.
         13   -1    0    0    0    0 -0.00000000000E+00 -0.00000000000E+00 -0.10000000000E+04  0.10000000000E+04  0.00000000000E+00 0.  1.
    9000005    2    1    2  501    0  0.18950020301E+02  0.13078429922E+01 -0.95751898611E+03  0.10113231484E+04  0.32491704801E+03 0.  0.
         13    1    3    3    0    0  0.66700473537E+01  0.60824785371E+02 -0.10172159758E+02  0.62029161540E+02  0.00000000000E+00 0.  1.
          1    1    3    3  501    0  0.12279972947E+02 -0.59516942379E+02 -0.94734682635E+03  0.94929398690E+03  0.00000000000E+00 0.  1.
         21    1    1    2  502  501 -0.18950020301E+02 -0.13078429922E+01 -0.97888422096E+01  0.21369023246E+02  0.00000000000E+00 0.  1.
<mgrwt>
<rscale>  1 0.30000000E+03</rscale>
<asrwt>0</asrwt>
<pdfrwt beam="1">  1        1 0.11888087E+00 0.30000000E+03</pdfrwt>
<pdfrwt beam="2">0</pdfrwt>
<totfact> 0.26378528E+01</totfact>
</mgrwt>
</event>
<event>
 6    1  0.1904828E-004  0.3000000E+03  0.7818608E-02  0.1093470E+00
          1   -1    0    0  502    0  0.00000000000E+00  0.00000000000E+00  0.74606132882E+02  0.74606132882E+02  0.00000000000E+00 0.  1.
         13   -1    0    0    0    0 -0.00000000000E+00 -0.00000000000E+00 -0.10000000000E+04  0.10000000000E+04  0.00000000000E+00 0.  1.
    9000005    2    1    2  501    0  0.21683091358E+02 -0.57202146988E+01 -0.97121371699E+03  0.10235930370E+04  0.32246510517E+03 0.  0.
         13    1    3    3    0    0 -0.13500430458E+03 -0.54175966291E+02 -0.60646519098E+03  0.62366756004E+03  0.00000000000E+00 0.  1.
          1    1    3    3  501    0  0.15668739594E+03  0.48455751592E+02 -0.36474852602E+03  0.39992547698E+03  0.00000000000E+00 0.  1.
         21    1    1    2  502  501 -0.21683091358E+02  0.57202146988E+01  0.45819849874E+02  0.51013095863E+02  0.00000000000E+00 0.  1.
<mgrwt>
<rscale>  1 0.30000000E+03</rscale>
<asrwt>0</asrwt>
<pdfrwt beam="1">  1        1 0.27129560E+00 0.30000000E+03</pdfrwt>
<pdfrwt beam="2">0</pdfrwt>
<totfact> 0.47414434E+00</totfact>
</mgrwt>
</event>
<event>
 6    1  0.1904828E-004  0.3000000E+03  0.7818608E-02  0.1093470E+00
          1   -1    0    0  502    0  0.00000000000E+00  0.00000000000E+00  0.42588535957E+02  0.42588535957E+02  0.00000000000E+00 0.  1.
         13   -1    0    0    0    0 -0.00000000000E+00 -0.00000000000E+00 -0.10000000000E+04  0.10000000000E+04  0.00000000000E+00 0.  1.
    9000005    2    1    2  501    0 -0.64867174471E+02  0.31949232307E+02 -0.84911274432E+03  0.91236904255E+03  0.32587775848E+03 0.  0.
         13    1    3    3    0    0 -0.12516828012E+03  0.12863385008E+03 -0.71107066456E+03  0.73337252180E+03  0.00000000000E+00 0.  1.
          1    1    3    3  501    0  0.60301105645E+02 -0.96684617777E+02 -0.13804207976E+03  0.17899652075E+03  0.00000000000E+00 0.  1.
         21    1    1    2  502  501  0.64867174471E+02 -0.31949232307E+02 -0.10829871973E+03  0.13021949341E+03  0.00000000000E+00 0.  1.
<mgrwt>
<rscale>  1 0.30000000E+03</rscale>
<asrwt>0</asrwt>
<pdfrwt beam="1">  1        1 0.15486773E+00 0.30000000E+03</pdfrwt>
<pdfrwt beam="2">0</pdfrwt>
<totfact> 0.16975884E+01</totfact>
</mgrwt>
</event>
<event>
 6    1  0.1904828E-004  0.3000000E+03  0.7818608E-02  0.1093470E+00
          1   -1    0    0  502    0  0.00000000000E+00  0.00000000000E+00  0.28721469757E+02  0.28721469757E+02  0.00000000000E+00 0.  1.
         13   -1    0    0    0    0 -0.00000000000E+00 -0.00000000000E+00 -0.10000000000E+04  0.10000000000E+04  0.00000000000E+00 0.  1.
    9000005    2    1    2  501    0  0.37546056074E+01  0.11436248291E+02 -0.93664521232E+03  0.99205606987E+03  0.32668961901E+03 0.  0.
         13    1    3    3    0    0  0.17406431155E+02  0.19201874336E+02  0.21565914042E+02  0.33716234547E+02  0.00000000000E+00 0.  1.
          1    1    3    3  501    0 -0.13651825548E+02 -0.77656260449E+01 -0.95821112636E+03  0.95833983532E+03  0.00000000000E+00 0.  1.
         21    1    1    2  502  501 -0.37546056074E+01 -0.11436248291E+02 -0.34633317926E+02  0.36665399886E+02  0.00000000000E+00 0. -1.
<mgrwt>
<rscale>  1 0.30000000E+03</rscale>
<asrwt>0</asrwt>
<pdfrwt beam="1">  1        1 0.10444193E+00 0.30000000E+03</pdfrwt>
<pdfrwt beam="2">0</pdfrwt>
<totfact> 0.32105612E+01</totfact>
</mgrwt>
</event>
<event>
 6    1  0.1904828E-004  0.3000000E+03  0.7818608E-02  0.1093470E+00
          1   -1    0    0  502    0  0.00000000000E+00  0.00000000000E+00  0.35910135069E+02  0.35910135069E+02  0.00000000000E+00 0.  1.
         13   -1    0    0    0    0 -0.00000000000E+00 -0.00000000000E+00 -0.10000000000E+04  0.10000000000E+04  0.00000000000E+00 0.  1.
    9000005    2    1    2  501    0  0.14876306179E+02  0.42704375434E+02 -0.88197794113E+03  0.94216934247E+03  0.32825754079E+03 0.  0.
         13    1    3    3    0    0 -0.50962050329E+02 -0.11319939758E+03 -0.60480955425E+03  0.61741868379E+03  0.00000000000E+00 0.  1.
          1    1    3    3  501    0  0.65838356507E+02  0.15590377301E+03 -0.27716838689E+03  0.32475065869E+03  0.00000000000E+00 0.  1.
         21    1    1    2  502  501 -0.14876306179E+02 -0.42704375434E+02 -0.82111923797E+02  0.93740792595E+02  0.00000000000E+00 0. -1.
<mgrwt>
<rscale>  1 0.30000000E+03</rscale>
<asrwt>0</asrwt>
<pdfrwt beam="1">  1        1 0.13058258E+00 0.30000000E+03</pdfrwt>
<pdfrwt beam="2">0</pdfrwt>
<totfact> 0.22713456E+01</totfact>
</mgrwt>
</event>
<event>
 6    1  0.1904828E-004  0.3000000E+03  0.7818608E-02  0.1093470E+00
          1   -1    0    0  502    0  0.00000000000E+00  0.00000000000E+00  0.44362031598E+02  0.44362031598E+02  0.00000000000E+00 0.  1.
         13   -1    0    0    0    0 -0.00000000000E+00 -0.00000000000E+00 -0.10000000000E+04  0.10000000000E+04  0.00000000000E+00 0.  1.
    9000005    2    1    2  501    0 -0.10581355184E+02  0.26283609127E+01 -0.97187065233E+03  0.10248076616E+04  0.32492969245E+03 0.  0.
         13    1    3    3    0    0 -0.29660534479E+02  0.13905722558E+03 -0.23110128313E+03  0.27133828030E+03  0.00000000000E+00 0.  1.
          3    1    3    3  501    0  0.19079179296E+02 -0.13642886467E+03 -0.74076936920E+03  0.75346938129E+03  0.00000000000E+00 0.  1.
         21    1    1    2  502  501  0.10581355184E+02 -0.26283609127E+01  0.16232683931E+02  0.19554370003E+02  0.00000000000E+00 0.  1.
<mgrwt>
<rscale>  1 0.30000000E+03</rscale>
<asrwt>0</asrwt>
<pdfrwt beam="1">  1        1 0.16131682E+00 0.30000000E+03</pdfrwt>
<pdfrwt beam="2">0</pdfrwt>
<totfact> 0.15764093E+01</totfact>
</mgrwt>
</event>
<event>
 6    1  0.1904828E-004  0.3000000E+03  0.7818608E-02  0.1093470E+00
          1   -1    0    0  502    0  0.00000000000E+00  0.00000000000E+00  0.40802316148E+02  0.40802316148E+02  0.00000000000E+00 0.  1.
         13   -1    0    0    0    0 -0.00000000000E+00 -0.00000000000E+00 -0.10000000000E+04  0.10000000000E+04  0.00000000000E+00 0.  1.
    9000005    2    1    2  501    0  0.30320194652E+01 -0.29363488143E+02 -0.95652887678E+03  0.10111623076E+04  0.32654297197E+03 0.  0.
         13    1    3    3    0    0 -0.91623042370E+02 -0.13677655316E+03 -0.68148086540E+03  0.70108400160E+03  0.00000000000E+00 0.  1.
          1    1    3    3  501    0  0.94655061835E+02  0.10741306502E+03 -0.27504801138E+03  0.31007830596E+03  0.00000000000E+00 0.  1.
         21    1    1    2  502  501 -0.30320194652E+01  0.29363488143E+02 -0.26688070763E+01  0.29640008589E+02  0.00000000000E+00 0.  1.
<mgrwt>
<rscale>  1 0.30000000E+03</rscale>
<asrwt>0</asrwt>
<pdfrwt beam="1">  1        1 0.14837237E+00 0.30000000E+03</pdfrwt>
<pdfrwt beam="2">0</pdfrwt>
<totfact> 0.18311395E+01</totfact>
</mgrwt>
</event>
<event>
 6    1  0.1904828E-004  0.3000000E+03  0.7818608E-02  0.1093470E+00
          1   -1    0    0  502    0  0.00000000000E+00  0.00000000000E+00  0.32619941698E+02  0.32619941698E+02  0.00000000000E+00 0.  1.
         13   -1    0    0    0    0 -0.00000000000E+00 -0.00000000000E+00 -0.10000000000E+04  0.10000000000E+04  0.00000000000E+00 0.  1.
    9000005    2    1    2  501    0 -0.84546204969E+01 -0.13675279739E+02 -0.94380073483E+03  0.10040808741E+04  0.34228654778E+03 0.  0.
         13    1    3    3    0    0  0.16288928354E+03  0.24474126832E+01 -0.35403307369E+03  0.38971569867E+03  0.00000000000E+00 0.  1.
          3    1    3    3  501    0 -0.17134390404E+03 -0.16122692422E+02 -0.58976766113E+03  0.61436517543E+03  0.00000000000E+00 0.  1.
         21    1    1    2  502  501  0.84546204969E+01  0.13675279739E+02 -0.23579323476E+02  0.28539067596E+02  0.00000000000E+00 0. -1.
<mgrwt>
<rscale>  1 0.30000000E+03</rscale>
<asrwt>0</asrwt>
<pdfrwt beam="1">  1        1 0.11861822E+00 0.30000000E+03</pdfrwt>
<pdfrwt beam="2">0</pdfrwt>
<totfact> 0.26469402E+01</totfact>
</mgrwt>
</event>
<event>
 6    1  0.1904828E-004  0.3000000E+03  0.7818608E-02  0.1093470E+00
          1   -1    0    0  502    0  0.00000000000E+00  0.00000000000E+00  0.48839419367E+02  0.48839419367E+02  0.00000000000E+00 0.  1.
         13   -1    0    0    0    0 -0.00000000000E+00 -0.00000000000E+00 -0.10000000000E+04  0.10000000000E+04  0.00000000000E+00 0.  1.
    9000005    2    1    2  501    0 -0.14626014493E+02 -0.14291710929E+02 -0.96822793511E+03  0.10222035809E+04  0.32713399884E+03 0.  0.
         13    1    3    3    0    0 -0.78553899172E+02 -0.15463424401E+03 -0.52588656424E+03  0.55375007264E+03  0.00000000000E+00 0.  1.
          1    1    3    3  501    0  0.63927884679E+02  0.14034253308E+03 -0.44234137087E+03  0.46845350828E+03  0.00000000000E+00 0.  1.
         21    1    1    2  502  501  0.14626014493E+02  0.14291710929E+02  0.17067354479E+02  0.26635838454E+02  0.00000000000E+00 0.  1.
<mgrwt>
<rscale>  1 0.30000000E+03</rscale>
<asrwt>0</asrwt>
<pdfrwt beam="1">  1        1 0.17759826E+00 0.30000000E+03</pdfrwt>
<pdfrwt beam="2">0</pdfrwt>
<totfact> 0.13121191E+01</totfact>
</mgrwt>
</event>
<event>
 6    1  0.1904828E-004  0.3000000E+03  0.7818608E-02  0.1093470E+00
          1   -1    0    0  502    0  0.00000000000E+00  0.00000000000E+00  0.32812788098E+02  0.32812788098E+02  0.00000000000E+00 0.  1.
         13   -1    0    0    0    0 -0.00000000000E+00 -0.00000000000E+00 -0.10000000000E+04  0.10000000000E+04  0.00000000000E+00 0.  1.
    9000005    2    1    2  501    0  0.84937869173E+01 -0.10588824785E+02 -0.95721310741E+03  0.10159678961E+04  0.34021987780E+03 0.  0.
         13    1    3    3    0    0 -0.21091927943E+02 -0.68126518075E+01 -0.97886235226E+03  0.97911326532E+03  0.00000000000E+00 0.  1.
          1    1    3    3  501    0  0.29585714860E+02 -0.37761729773E+01  0.21649244851E+02  0.36854630764E+02  0.00000000000E+00 0.  1.
         21    1    1    2  502  501 -0.84937869173E+01  0.10588824785E+02 -0.99741044888E+01  0.16844892011E+02  0.00000000000E+00 0. -1.
<mgrwt>
<rscale>  1 0.30000000E+03</rscale>
<asrwt>0</asrwt>
<pdfrwt beam="1">  1        1 0.11931948E+00 0.30000000E+03</pdfrwt>
<pdfrwt beam="2">0</pdfrwt>
<totfact> 0.26227719E+01</totfact>
</mgrwt>
</event>
<event>
 6    1  0.1904828E-004  0.3000000E+03  0.7818608E-02  0.1093470E+00
          1   -1    0    0  502    0  0.00000000000E+00  0.00000000000E+00  0.35309378769E+02  0.35309378769E+02  0.00000000000E+00 0.  1.
         13   -1    0    0    0    0 -0.00000000000E+00 -0.00000000000E+00 -0.10000000000E+04  0.10000000000E+04  0.00000000000E+00 0.  1.
    9000005    2    1    2  501    0 -0.11066312627E+02 -0.10816940445E+02 -0.97161323843E+03  0.10183567358E+04  0.30459594011E+03 0.  0.
         13    1    3    3    0    0 -0.68606065233E+02 -0.14038029074E+03 -0.40019534298E+03  0.42961579435E+03  0.00000000000E+00 0.  1.
          3    1    3    3  501    0  0.57539752606E+02  0.12956335029E+03 -0.57141789545E+03  0.58874094142E+03  0.00000000000E+00 0.  1.
         21    1    1    2  502  501  0.11066312627E+02  0.10816940445E+02  0.69226171948E+01  0.16952642997E+02  0.00000000000E+00 0.  1.
<mgrwt>
<rscale>  1 0.30000000E+03</rscale>
<asrwt>0</asrwt>
<pdfrwt beam="1">  1        1 0.12839801E+00 0.30000000E+03</pdfrwt>
<pdfrwt beam="2">0</pdfrwt>
<totfact> 0.23345356E+01</totfact>
</mgrwt>
</event>
<event>
 6    1  0.1904828E-004  0.3000000E+03  0.7818608E-02  0.1093470E+00
          1   -1    0    0  502    0  0.00000000000E+00  0.00000000000E+00  0.34506307248E+02  0.34506307248E+02  0.00000000000E+00 0.  1.
         13   -1    0    0    0    0 -0.00000000000E+00 -0.00000000000E+00 -0.10000000000E+04  0.10000000000E+04  0.00000000000E+00 0.  1.
    9000005    2    1    2  501    0 -0.10108886539E+02  0.92811964717E+01 -0.94894305113E+03  0.10130062158E+04  0.35426028387E+03 0.  0.
         13    1    3    3    0    0 -0.19912038328E+02  0.15071244770E+03 -0.76921508826E+03  0.78409347859E+03  0.00000000000E+00 0.  1.
          1    1    3    3  501    0  0.98031517886E+01 -0.14143125123E+03 -0.17972796288E+03  0.22891273720E+03  0.00000000000E+00 0.  1.
         21    1    1    2  502  501  0.10108886539E+02 -0.92811964717E+01 -0.16550641617E+02  0.21500091464E+02  0.00000000000E+00 0.  1.
<mgrwt>
<rscale>  1 0.30000000E+03</rscale>
<asrwt>0</asrwt>
<pdfrwt beam="1">  1        1 0.12547775E+00 0.30000000E+03</pdfrwt>
<pdfrwt beam="2">0</pdfrwt>
<totfact> 0.24225883E+01</totfact>
</mgrwt>
</event>
<event>
 6    1  0.1904828E-004  0.3000000E+03  0.7818608E-02  0.1093470E+00
          1   -1    0    0  502    0  0.00000000000E+00  0.00000000000E+00  0.39109257291E+02  0.39109257291E+02  0.00000000000E+00 0.  1.
         13   -1    0    0    0    0 -0.00000000000E+00 -0.00000000000E+00 -0.10000000000E+04  0.10000000000E+04  0.00000000000E+00 0.  1.
    9000005    2    1    2  501    0  0.31549435296E+02  0.58010633105E+02 -0.78214654522E+03  0.84855719470E+03  0.32239028221E+03 0.  0.
         13    1    3    3    0    0  0.22130742194E+02  0.11060895623E+02  0.27789345834E+02  0.37207000738E+02  0.00000000000E+00 0.  1.
          3    1    3    3  501    0  0.94186931022E+01  0.46949737482E+02 -0.80993589105E+03  0.81135019396E+03  0.00000000000E+00 0.  1.
         21    1    1    2  502  501 -0.31549435296E+02 -0.58010633105E+02 -0.17874419749E+03  0.19055206259E+03  0.00000000000E+00 0.  1.
<mgrwt>
<rscale>  1 0.30000000E+03</rscale>
<asrwt>0</asrwt>
<pdfrwt beam="1">  1        1 0.14221578E+00 0.30000000E+03</pdfrwt>
<pdfrwt beam="2">0</pdfrwt>
<totfact> 0.19700036E+01</totfact>
</mgrwt>
</event>
<event>
 6    1  0.1904828E-004  0.3000000E+03  0.7818608E-02  0.1093470E+00
          1   -1    0    0  502    0  0.00000000000E+00  0.00000000000E+00  0.29617611848E+02  0.29617611848E+02  0.00000000000E+00 0.  1.
         13   -1    0    0    0    0 -0.00000000000E+00 -0.00000000000E+00 -0.10000000000E+04  0.10000000000E+04  0.00000000000E+00 0.  1.
    9000005    2    1    2  501    0  0.10609953646E+02  0.21307714445E+02 -0.89671320014E+03  0.95219836957E+03  0.31940660906E+03 0.  0.
         13    1    3    3    0    0  0.82421666614E+02  0.11023072573E+03 -0.18085250375E+03  0.22727026232E+03  0.00000000000E+00 0.  1.
          1    1    3    3  501    0 -0.71811712968E+02 -0.88923011287E+02 -0.71586069638E+03  0.72492810725E+03  0.00000000000E+00 0.  1.
         21    1    1    2  502  501 -0.10609953646E+02 -0.21307714445E+02 -0.73669188017E+02  0.77419242274E+02  0.00000000000E+00 0. -1.
<mgrwt>
<rscale>  1 0.30000000E+03</rscale>
<asrwt>0</asrwt>
<pdfrwt beam="1">  1        1 0.10770063E+00 0.30000000E+03</pdfrwt>
<pdfrwt beam="2">0</pdfrwt>
<totfact> 0.30668674E+01</totfact>
</mgrwt>
</event>
<event>
 6    1  0.1904828E-004  0.3000000E+03  0.7818608E-02  0.1093470E+00
          1   -1    0    0  502    0  0.00000000000E+00  0.00000000000E+00  0.29187652643E+02  0.29187652643E+02  0.00000000000E+00 0.  1.
         13   -1    0    0    0    0 -0.00000000000E+00 -0.00000000000E+00 -0.10000000000E+04  0.10000000000E+04  0.00000000000E+00 0.  1.
    9000005    2    1    2  501    0  0.10614798647E+02  0.13983502532E+01 -0.97091818528E+03  0.10184806206E+04  0.30741831871E+03 0.  0.
         13    1    3    3    0    0  0.68086410369E+02  0.49510094277E+02 -0.57395724596E+02  0.10188855635E+03  0.00000000000E+00 0.  1.
          3    1    3    3  501    0 -0.57471611722E+02 -0.48111744024E+02 -0.91352246068E+03  0.91659206424E+03  0.00000000000E+00 0.  1.
         21    1    1    2  502  501 -0.10614798647E+02 -0.13983502532E+01  0.10583792015E+00  0.10707032054E+02  0.00000000000E+00 0. -1.
<mgrwt>
<rscale>  1 0.30000000E+03</rscale>
<asrwt>0</asrwt>
<pdfrwt beam="1">  1        1 0.10613714E+00 0.30000000E+03</pdfrwt>
<pdfrwt beam="2">0</pdfrwt>
<totfact> 0.31346277E+01</totfact>
</mgrwt>
</event>
<event>
 6    1  0.1904828E-004  0.3000000E+03  0.7818608E-02  0.1093470E+00
          1   -1    0    0  502    0  0.00000000000E+00  0.00000000000E+00  0.29311905251E+02  0.29311905251E+02  0.00000000000E+00 0.  1.
         13   -1    0    0    0    0 -0.00000000000E+00 -0.00000000000E+00 -0.10000000000E+04  0.10000000000E+04  0.00000000000E+00 0.  1.
    9000005    2    1    2  501    0 -0.38178557141E+01  0.13600831782E+02 -0.95585238877E+03  0.10088263782E+04  0.32230003653E+03 0.  0.
         13    1    3    3    0    0  0.55974087538E+02  0.11811858041E+02 -0.94656368639E+03  0.94829079446E+03  0.00000000000E+00 0.  1.
          1    1    3    3  501    0 -0.59791943252E+02  0.17889737412E+01 -0.92887023848E+01  0.60535583725E+02  0.00000000000E+00 0.  1.
         21    1    1    2  502  501  0.38178557141E+01 -0.13600831782E+02 -0.14835705976E+02  0.20485527067E+02  0.00000000000E+00 0.  1.
<mgrwt>
<rscale>  1 0.30000000E+03</rscale>
<asrwt>0</asrwt>
<pdfrwt beam="1">  1        1 0.10658897E+00 0.30000000E+03</pdfrwt>
<pdfrwt beam="2">0</pdfrwt>
<totfact> 0.31148266E+01</totfact>
</mgrwt>
</event>
<event>
 6    1  0.1904828E-004  0.3000000E+03  0.7818608E-02  0.1093470E+00
          1   -1    0    0  502    0  0.00000000000E+00  0.00000000000E+00  0.57626634779E+02  0.57626634779E+02  0.00000000000E+00 0.  1.
         13   -1    0    0    0    0 -0.00000000000E+00 -0.00000000000E+00 -0.10000000000E+04  0.10000000000E+04  0.00000000000E+00 0.  1.
    9000005    2    1    2  501    0  0.76675810667E+01  0.97219364491E+01 -0.97360231307E+03  0.10240326616E+04  0.31715630254E+03 0.  0.
         13    1    3    3    0    0  0.14626914052E+03 -0.64557973864E+02 -0.46993954082E+03  0.49639255181E+03  0.00000000000E+00 0.  1.
          1    1    3    3  501    0 -0.13860155945E+03  0.74279910313E+02 -0.50366277224E+03  0.52764010983E+03  0.00000000000E+00 0.  1.
         21    1    1    2  502  501 -0.76675810667E+01 -0.97219364491E+01  0.31228947847E+02  0.33593973141E+02  0.00000000000E+00 0.  1.
<mgrwt>
<rscale>  1 0.30000000E+03</rscale>
<asrwt>0</asrwt>
<pdfrwt beam="1">  1        1 0.20955184E+00 0.30000000E+03</pdfrwt>
<pdfrwt beam="2">0</pdfrwt>
<totfact> 0.92301003E+00</totfact>
</mgrwt>
</event>
<event>
 6    1  0.1904828E-004  0.3000000E+03  0.7818608E-02  0.1093470E+00
          3   -1    0    0  502    0  0.00000000000E+00  0.00000000000E+00  0.20729970814E+02  0.20729970814E+02  0.00000000000E+00 0.  1.
         13   -1    0    0    0    0 -0.00000000000E+00 -0.00000000000E+00 -0.10000000000E+04  0.10000000000E+04  0.00000000000E+00 0.  1.
    9000005    2    1    2  501    0  0.24525678436E+02 -0.38976661245E+01 -0.93110145825E+03  0.96653668774E+03  0.25812117793E+03 0.  0.
         13    1    3    3    0    0  0.13832231794E+03  0.22779754839E+02 -0.44381958128E+03  0.46543291847E+03  0.00000000000E+00 0.  1.
          3    1    3    3  501    0 -0.11379663951E+03 -0.26677420964E+02 -0.48728187698E+03  0.50110376927E+03  0.00000000000E+00 0.  1.
         21    1    1    2  502  501 -0.24525678436E+02  0.38976661245E+01 -0.48168570935E+02  0.54193283070E+02  0.00000000000E+00 0.  1.
<mgrwt>
<rscale>  1 0.30000000E+03</rscale>
<asrwt>0</asrwt>
<pdfrwt beam="1">  1        3 0.75381871E-01 0.30000000E+03</pdfrwt>
<pdfrwt beam="2">0</pdfrwt>
<totfact> 0.76242007E+00</totfact>
</mgrwt>
</event>
<event>
 6    1  0.1904828E-004  0.3000000E+03  0.7818608E-02  0.1093470E+00
          1   -1    0    0  502    0  0.00000000000E+00  0.00000000000E+00  0.59015376998E+02  0.59015376998E+02  0.00000000000E+00 0.  1.
         13   -1    0    0    0    0 -0.00000000000E+00 -0.00000000000E+00 -0.10000000000E+04  0.10000000000E+04  0.00000000000E+00 0.  1.
    9000005    2    1    2  501    0  0.60557430239E+02  0.27542312116E+02 -0.93673506950E+03  0.99235324368E+03  0.32072821592E+03 0.  0.
         13    1    3    3    0    0  0.56504261871E+02  0.89849640547E+02 -0.92214361061E+03  0.92823193659E+03  0.00000000000E+00 0.  1.
          3    1    3    3  501    0  0.40531683681E+01 -0.62307328432E+02 -0.14591458895E+02  0.64121307089E+02  0.00000000000E+00 0.  1.
         21    1    1    2  502  501 -0.60557430239E+02 -0.27542312116E+02 -0.42495534987E+01  0.66662133320E+02  0.00000000000E+00 0. -1.
<mgrwt>
<rscale>  1 0.30000000E+03</rscale>
<asrwt>0</asrwt>
<pdfrwt beam="1">  1        1 0.21460182E+00 0.30000000E+03</pdfrwt>
<pdfrwt beam="2">0</pdfrwt>
<totfact> 0.87385104E+00</totfact>
</mgrwt>
</event>
<event>
 6    1  0.1904828E-004  0.3000000E+03  0.7818608E-02  0.1093470E+00
          1   -1    0    0  502    0  0.00000000000E+00  0.00000000000E+00  0.44996222979E+02  0.44996222979E+02  0.00000000000E+00 0.  1.
         13   -1    0    0    0    0 -0.00000000000E+00 -0.00000000000E+00 -0.10000000000E+04  0.10000000000E+04  0.00000000000E+00 0.  1.
    9000005    2    1    2  501    0  0.17084093095E+02 -0.58144450026E+02 -0.91272752017E+03  0.97110491633E+03  0.32603771120E+03 0.  0.
         13    1    3    3    0    0 -0.14862590649E+02  0.90083282736E+02 -0.72054637708E+03  0.72630776944E+03  0.00000000000E+00 0.  1.
          1    1    3    3  501    0  0.31946683743E+02 -0.14822773276E+03 -0.19218114310E+03  0.24479714689E+03  0.00000000000E+00 0.  1.
         21    1    1    2  502  501 -0.17084093095E+02  0.58144450026E+02 -0.42276256848E+02  0.73891306652E+02  0.00000000000E+00 0.  1.
<mgrwt>
<rscale>  1 0.30000000E+03</rscale>
<asrwt>0</asrwt>
<pdfrwt beam="1">  1        1 0.16362297E+00 0.30000000E+03</pdfrwt>
<pdfrwt beam="2">0</pdfrwt>
<totfact> 0.15355482E+01</totfact>
</mgrwt>
</event>
<event>
 6    1  0.1904828E-004  0.3000000E+03  0.7818608E-02  0.1093470E+00
          1   -1    0    0  502    0  0.00000000000E+00  0.00000000000E+00  0.28704523894E+02  0.28704523894E+02  0.00000000000E+00 0.  1.
         13   -1    0    0    0    0 -0.00000000000E+00 -0.00000000000E+00 -0.10000000000E+04  0.10000000000E+04  0.00000000000E+00 0.  1.
    9000005    2    1    2  501    0  0.22184463468E+01 -0.13740660084E+02 -0.94155742904E+03  0.99587041530E+03  0.32408913072E+03 0.  0.
         13    1    3    3    0    0 -0.11384750182E+03  0.19084030718E+02 -0.12381310412E+03  0.16927828760E+03  0.00000000000E+00 0.  1.
          1    1    3    3  501    0  0.11606594817E+03 -0.32824690802E+02 -0.81774432491E+03  0.82659212770E+03  0.00000000000E+00 0.  1.
         21    1    1    2  502  501 -0.22184463468E+01  0.13740660084E+02 -0.29738047066E+02  0.32834108592E+02  0.00000000000E+00 0.  1.
<mgrwt>
<rscale>  1 0.30000000E+03</rscale>
<asrwt>0</asrwt>
<pdfrwt beam="1">  1        1 0.10438031E+00 0.30000000E+03</pdfrwt>
<pdfrwt beam="2">0</pdfrwt>
<totfact> 0.32133714E+01</totfact>
</mgrwt>
</event>
<event>
 6    1  0.1904828E-004  0.3000000E+03  0.7818608E-02  0.1093470E+00
          1   -1    0    0  502    0  0.00000000000E+00  0.00000000000E+00  0.30126245818E+02  0.30126245818E+02  0.00000000000E+00 0.  1.
         13   -1    0    0    0    0 -0.00000000000E+00 -0.00000000000E+00 -0.10000000000E+04  0.10000000000E+04  0.00000000000E+00 0.  1.
    9000005    2    1    2  501    0 -0.88088182196E+01 -0.16913019857E+02 -0.96445406714E+03  0.10103015509E+04  0.30028974460E+03 0.  0.
         13    1    3    3    0    0  0.21653402083E+01 -0.13961574833E+03 -0.75081260739E+03  0.76368633436E+03  0.00000000000E+00 0.  1.
          1    1    3    3  501    0 -0.10974158428E+02  0.12270272847E+03 -0.21364145975E+03  0.24661521658E+03  0.00000000000E+00 0.  1.
         21    1    1    2  502  501  0.88088182196E+01  0.16913019857E+02 -0.54196870468E+01  0.19824694873E+02  0.00000000000E+00 0.  1.
<mgrwt>
<rscale>  1 0.30000000E+03</rscale>
<asrwt>0</asrwt>
<pdfrwt beam="1">  1        1 0.10955022E+00 0.30000000E+03</pdfrwt>
<pdfrwt beam="2">0</pdfrwt>
<totfact> 0.29893845E+01</totfact>
</mgrwt>
</event>
<event>
 6    1  0.1904828E-004  0.3000000E+03  0.7818608E-02  0.1093470E+00
          1   -1    0    0  502    0  0.00000000000E+00  0.00000000000E+00  0.73034035896E+02  0.73034035896E+02  0.00000000000E+00 0.  1.
         13   -1    0    0    0    0 -0.00000000000E+00 -0.00000000000E+00 -0.10000000000E+04  0.10000000000E+04  0.00000000000E+00 0.  1.
    9000005    2    1    2  501    0  0.51889099285E+01  0.15088836590E+02 -0.97543930611E+03  0.10220020590E+04  0.30455175422E+03 0.  0.
         13    1    3    3    0    0 -0.99018665008E+02  0.58035799101E+02 -0.14984436803E+03  0.18874899901E+03  0.00000000000E+00 0.  1.
          3    1    3    3  501    0  0.10420757494E+03 -0.42946962512E+02 -0.82559493809E+03  0.83325306003E+03  0.00000000000E+00 0.  1.
         21    1    1    2  502  501 -0.51889099285E+01 -0.15088836590E+02  0.48473342010E+02  0.51031976853E+02  0.00000000000E+00 0.  1.
<mgrwt>
<rscale>  1 0.30000000E+03</rscale>
<asrwt>0</asrwt>
<pdfrwt beam="1">  1        1 0.26557887E+00 0.30000000E+03</pdfrwt>
<pdfrwt beam="2">0</pdfrwt>
<totfact> 0.50438919E+00</totfact>
</mgrwt>
</event>
<event>
 6    1  0.1904828E-004  0.3000000E+03  0.7818608E-02  0.1093470E+00
          1   -1    0    0  502    0  0.00000000000E+00  0.00000000000E+00  0.35082257973E+02  0.35082257973E+02  0.00000000000E+00 0.  1.
         13   -1    0    0    0    0 -0.00000000000E+00 -0.00000000000E+00 -0.10000000000E+04  0.10000000000E+04  0.00000000000E+00 0.  1.
    9000005    2    1    2  501    0  0.23860575000E+02 -0.15855960663E+02 -0.95408728493E+03  0.10044548629E+04  0.31277193899E+03 0.  0.
         13    1    3    3    0    0  0.11751527009E+03 -0.91143624994E+02 -0.77266038555E+03  0.78684246865E+03  0.00000000000E+00 0.  1.
          1    1    3    3  501    0 -0.93654695086E+02  0.75287664330E+02 -0.18142689938E+03  0.21761239425E+03  0.00000000000E+00 0.  1.
         21    1    1    2  502  501 -0.23860575000E+02  0.15855960663E+02 -0.10830457100E+02  0.30627395072E+02  0.00000000000E+00 0.  1.
<mgrwt>
<rscale>  1 0.30000000E+03</rscale>
<asrwt>0</asrwt>
<pdfrwt beam="1">  1        1 0.12757212E+00 0.30000000E+03</pdfrwt>
<pdfrwt beam="2">0</pdfrwt>
<totfact> 0.23590164E+01</totfact>
</mgrwt>
</event>
<event>
 6    1  0.1904828E-004  0.3000000E+03  0.7818608E-02  0.1093470E+00
          1   -1    0    0  502    0  0.00000000000E+00  0.00000000000E+00  0.32580195030E+02  0.32580195030E+02  0.00000000000E+00 0.  1.
         13   -1    0    0    0    0 -0.00000000000E+00 -0.00000000000E+00 -0.10000000000E+04  0.10000000000E+04  0.00000000000E+00 0.  1.
    9000005    2    1    2  501    0 -0.11206558831E+02 -0.19771384398E+02 -0.95221475413E+03  0.10052363077E+04  0.32135743618E+03 0.  0.
         13    1    3    3    0    0 -0.14118361963E+03 -0.14284441802E+02 -0.76000866898E+03  0.77314296004E+03  0.00000000000E+00 0.  1.
          1    1    3    3  501    0  0.12997706080E+03 -0.54869425963E+01 -0.19220608514E+03  0.23209334769E+03  0.00000000000E+00 0.  1.
         21    1    1    2  502  501  0.11206558831E+02  0.19771384398E+02 -0.15205050842E+02  0.27343887305E+02  0.00000000000E+00 0. -1.
<mgrwt>
<rscale>  1 0.30000000E+03</rscale>
<asrwt>0</asrwt>
<pdfrwt beam="1">  1        1 0.11847369E+00 0.30000000E+03</pdfrwt>
<pdfrwt beam="2">0</pdfrwt>
<totfact> 0.26519589E+01</totfact>
</mgrwt>
</event>
<event>
 6    1  0.1904828E-004  0.3000000E+03  0.7818608E-02  0.1093470E+00
          1   -1    0    0  502    0  0.00000000000E+00  0.00000000000E+00  0.31096261132E+02  0.31096261132E+02  0.00000000000E+00 0.  1.
         13   -1    0    0    0    0 -0.00000000000E+00 -0.00000000000E+00 -0.10000000000E+04  0.10000000000E+04  0.00000000000E+00 0.  1.
    9000005    2    1    2  501    0 -0.82101025055E+01 -0.11580867899E+02 -0.95004882635E+03  0.10074947779E+04  0.33503944958E+03 0.  0.
         13    1    3    3    0    0 -0.91917147799E+02  0.66873199175E+01 -0.90689059481E+03  0.91156131624E+03  0.00000000000E+00 0.  1.
          3    1    3    3  501    0  0.83707045294E+02 -0.18268187816E+02 -0.43158231539E+02  0.95933461667E+02  0.00000000000E+00 0.  1.
         21    1    1    2  502  501  0.82101025055E+01  0.11580867899E+02 -0.18854912519E+02  0.23601483228E+02  0.00000000000E+00 0. -1.
<mgrwt>
<rscale>  1 0.30000000E+03</rscale>
<asrwt>0</asrwt>
<pdfrwt beam="1">  1        1 0.11307755E+00 0.30000000E+03</pdfrwt>
<pdfrwt beam="2">0</pdfrwt>
<totfact> 0.28491390E+01</totfact>
</mgrwt>
</event>
<event>
 6    1  0.1904828E-004  0.3000000E+03  0.7818608E-02  0.1093470E+00
          1   -1    0    0  502    0  0.00000000000E+00  0.00000000000E+00  0.36705540628E+02  0.36705540628E+02  0.00000000000E+00 0.  1.
         13   -1    0    0    0    0 -0.00000000000E+00 -0.00000000000E+00 -0.10000000000E+04  0.10000000000E+04  0.00000000000E+00 0.  1.
    9000005    2    1    2  501    0  0.22180397578E+02 -0.12268518189E+02 -0.95880662976E+03  0.10109639946E+04  0.31952395623E+03 0.  0.
         13    1    3    3    0    0  0.10653497259E+02 -0.70929269750E+02 -0.94738988230E+03  0.95010107220E+03  0.00000000000E+00 0.  1.
          3    1    3    3  501    0  0.11526900319E+02  0.58660751562E+02 -0.11416747457E+02  0.60862922434E+02  0.00000000000E+00 0.  1.
         21    1    1    2  502  501 -0.22180397578E+02  0.12268518189E+02 -0.44878296105E+01  0.25741545988E+02  0.00000000000E+00 0. -1.
<mgrwt>
<rscale>  1 0.30000000E+03</rscale>
<asrwt>0</asrwt>
<pdfrwt beam="1">  1        1 0.13347497E+00 0.30000000E+03</pdfrwt>
<pdfrwt beam="2">0</pdfrwt>
<totfact> 0.21910720E+01</totfact>
</mgrwt>
</event>
<event>
 6    1  0.1904828E-004  0.3000000E+03  0.7818608E-02  0.1093470E+00
          1   -1    0    0  502    0  0.00000000000E+00  0.00000000000E+00  0.43512494653E+02  0.43512494653E+02  0.00000000000E+00 0.  1.
         13   -1    0    0    0    0 -0.00000000000E+00 -0.00000000000E+00 -0.10000000000E+04  0.10000000000E+04  0.00000000000E+00 0.  1.
    9000005    2    1    2  501    0  0.39924402879E+01 -0.55947209011E+02 -0.92019669293E+03  0.97670641079E+03  0.32256383773E+03 0.  0.
         13    1    3    3    0    0  0.55295596495E+02  0.10026207225E+03 -0.65309448481E+03  0.66305542168E+03  0.00000000000E+00 0.  1.
          1    1    3    3  501    0 -0.51303156207E+02 -0.15620928126E+03 -0.26710220812E+03  0.31365098911E+03  0.00000000000E+00 0.  1.
         21    1    1    2  502  501 -0.39924402879E+01  0.55947209011E+02 -0.36290812412E+02  0.66806083863E+02  0.00000000000E+00 0.  1.
<mgrwt>
<rscale>  1 0.30000000E+03</rscale>
<asrwt>0</asrwt>
<pdfrwt beam="1">  1        1 0.15822759E+00 0.30000000E+03</pdfrwt>
<pdfrwt beam="2">0</pdfrwt>
<totfact> 0.16331375E+01</totfact>
</mgrwt>
</event>
<event>
 6    1  0.1904828E-004  0.3000000E+03  0.7818608E-02  0.1093470E+00
          1   -1    0    0  502    0  0.00000000000E+00  0.00000000000E+00  0.39057500605E+02  0.39057500605E+02  0.00000000000E+00 0.  1.
         13   -1    0    0    0    0 -0.00000000000E+00 -0.00000000000E+00 -0.10000000000E+04  0.10000000000E+04  0.00000000000E+00 0.  1.
    9000005    2    1    2  501    0 -0.63675725427E+01 -0.14086436038E+02 -0.96147028067E+03  0.10235897208E+04  0.35081596624E+03 0.  0.
         13    1    3    3    0    0 -0.13537862377E+03 -0.97701127526E+02 -0.28888474193E+03  0.33365742343E+03  0.00000000000E+00 0.  1.
          1    1    3    3  501    0  0.12901105122E+03  0.83614691488E+02 -0.67258553874E+03  0.68993229732E+03  0.00000000000E+00 0.  1.
         21    1    1    2  502  501  0.63675725427E+01  0.14086436038E+02  0.52778127285E+00  0.15467779848E+02  0.00000000000E+00 0.  1.
<mgrwt>
<rscale>  1 0.30000000E+03</rscale>
<asrwt>0</asrwt>
<pdfrwt beam="1">  1        1 0.14202757E+00 0.30000000E+03</pdfrwt>
<pdfrwt beam="2">0</pdfrwt>
<totfact> 0.19744544E+01</totfact>
</mgrwt>
</event>
<event>
 6    1  0.1904828E-004  0.3000000E+03  0.7818608E-02  0.1093470E+00
          1   -1    0    0  502    0  0.00000000000E+00  0.00000000000E+00  0.28370074449E+02  0.28370074449E+02  0.00000000000E+00 0.  1.
         13   -1    0    0    0    0 -0.00000000000E+00 -0.00000000000E+00 -0.10000000000E+04  0.10000000000E+04  0.00000000000E+00 0.  1.
    9000005    2    1    2  501    0 -0.55788331328E+02 -0.26548561113E+01 -0.83632774486E+03  0.88199362050E+03  0.27449820326E+03 0.  0.
         13    1    3    3    0    0 -0.12737402356E+03 -0.53037026753E+02 -0.73610443304E+03  0.74892376409E+03  0.00000000000E+00 0.  1.
          1    1    3    3  501    0  0.71585692227E+02  0.50382170641E+02 -0.10022331183E+03  0.13306985641E+03  0.00000000000E+00 0.  1.
         21    1    1    2  502  501  0.55788331328E+02  0.26548561113E+01 -0.13530218069E+03  0.14637645395E+03  0.00000000000E+00 0.  1.
<mgrwt>
<rscale>  1 0.30000000E+03</rscale>
<asrwt>0</asrwt>
<pdfrwt beam="1">  1        1 0.10316412E+00 0.30000000E+03</pdfrwt>
<pdfrwt beam="2">0</pdfrwt>
<totfact> 0.32695724E+01</totfact>
</mgrwt>
</event>
<event>
 6    1  0.1904828E-004  0.3000000E+03  0.7818608E-02  0.1093470E+00
          1   -1    0    0  502    0  0.00000000000E+00  0.00000000000E+00  0.27575511978E+02  0.27575511978E+02  0.00000000000E+00 0.  1.
         13   -1    0    0    0    0 -0.00000000000E+00 -0.00000000000E+00 -0.10000000000E+04  0.10000000000E+04  0.00000000000E+00 0.  1.
    9000005    2    1    2  501    0 -0.11531752347E+02  0.26890398504E+00 -0.91217121197E+03  0.96622805159E+03  0.31844508805E+03 0.  0.
         13    1    3    3    0    0 -0.53910824377E+02  0.22786167069E+01 -0.89667421175E+00  0.53966407178E+02  0.00000000000E+00 0.  1.
          3    1    3    3  501    0  0.42379072030E+02 -0.20097127219E+01 -0.91127453776E+03  0.91226164441E+03  0.00000000000E+00 0.  1.
         21    1    1    2  502  501  0.11531752347E+02 -0.26890398504E+00 -0.60253276051E+02  0.61347460391E+02  0.00000000000E+00 0. -1.
<mgrwt>
<rscale>  1 0.30000000E+03</rscale>
<asrwt>0</asrwt>
<pdfrwt beam="1">  1        1 0.10027480E+00 0.30000000E+03</pdfrwt>
<pdfrwt beam="2">0</pdfrwt>
<totfact> 0.34089835E+01</totfact>
</mgrwt>
</event>
<event>
 6    1  0.1904828E-004  0.3000000E+03  0.7818608E-02  0.1093470E+00
          1   -1    0    0  502    0  0.00000000000E+00  0.00000000000E+00  0.45754960439E+02  0.45754960439E+02  0.00000000000E+00 0.  1.
         13   -1    0    0    0    0 -0.00000000000E+00 -0.00000000000E+00 -0.10000000000E+04  0.10000000000E+04  0.00000000000E+00 0.  1.
    9000005    2    1    2  501    0  0.15970432632E+02 -0.16105298922E+02 -0.96689823679E+03  0.10197830762E+04  0.32334329558E+03 0.  0.
         13    1    3    3    0    0  0.83919364633E+02  0.42732064920E+02 -0.67404191344E+02  0.11580938711E+03  0.00000000000E+00 0.  1.
          3    1    3    3  501    0 -0.67948932000E+02 -0.58837363842E+02 -0.89949404544E+03  0.90397368907E+03  0.00000000000E+00 0.  1.
         21    1    1    2  502  501 -0.15970432632E+02  0.16105298922E+02  0.12653197225E+02  0.25971884257E+02  0.00000000000E+00 0.  1.
<mgrwt>
<rscale>  1 0.30000000E+03</rscale>
<asrwt>0</asrwt>
<pdfrwt beam="1">  1        1 0.16638203E+00 0.30000000E+03</pdfrwt>
<pdfrwt beam="2">0</pdfrwt>
<totfact> 0.14882509E+01</totfact>
</mgrwt>
</event>
<event>
 6    1  0.1904828E-004  0.3000000E+03  0.7818608E-02  0.1093470E+00
          1   -1    0    0  502    0  0.00000000000E+00  0.00000000000E+00  0.60322972664E+02  0.60322972664E+02  0.00000000000E+00 0.  1.
         13   -1    0    0    0    0 -0.00000000000E+00 -0.00000000000E+00 -0.10000000000E+04  0.10000000000E+04  0.00000000000E+00 0.  1.
    9000005    2    1    2  501    0 -0.95197987729E+02 -0.35862108949E+02 -0.87913176488E+03  0.94194021830E+03  0.32253676860E+03 0.  0.
         13    1    3    3    0    0 -0.99338304507E+02  0.13227953643E+03 -0.51326331592E+03  0.53926357746E+03  0.00000000000E+00 0.  1.
          3    1    3    3  501    0  0.41403167788E+01 -0.16814164538E+03 -0.36586844896E+03  0.40267664084E+03  0.00000000000E+00 0.  1.
         21    1    1    2  502  501  0.95197987729E+02  0.35862108949E+02 -0.60545262458E+02  0.11838275437E+03  0.00000000000E+00 0.  1.
<mgrwt>
<rscale>  1 0.30000000E+03</rscale>
<asrwt>0</asrwt>
<pdfrwt beam="1">  1        1 0.21935673E+00 0.30000000E+03</pdfrwt>
<pdfrwt beam="2">0</pdfrwt>
<totfact> 0.83007211E+00</totfact>
</mgrwt>
</event>
<event>
 6    1  0.1904828E-004  0.3000000E+03  0.7818608E-02  0.1093470E+00
          1   -1    0    0  502    0  0.00000000000E+00  0.00000000000E+00  0.18674180029E+02  0.18674180029E+02  0.00000000000E+00 0.  1.
         13   -1    0    0    0    0 -0.00000000000E+00 -0.00000000000E+00 -0.10000000000E+04  0.10000000000E+04  0.00000000000E+00 0.  1.
    9000005    2    1    2  501    0 -0.15901249180E+02 -0.69987678315E+01 -0.86425927927E+03  0.90032551114E+03  0.25167457505E+03 0.  0.
         13    1    3    3    0    0 -0.13316265891E+03  0.60848544281E+01 -0.41863238375E+03  0.43934313686E+03  0.00000000000E+00 0.  1.
          3    1    3    3  501    0  0.11726140973E+03 -0.13083622260E+02 -0.44562689553E+03  0.46098237429E+03  0.00000000000E+00 0.  1.
         21    1    1    2  502  501  0.15901249180E+02  0.69987678315E+01 -0.11706654070E+03  0.11834866889E+03  0.00000000000E+00 0.  1.
<mgrwt>
<rscale>  1 0.30000000E+03</rscale>
<asrwt>0</asrwt>
<pdfrwt beam="1">  1        1 0.67906252E-01 0.30000000E+03</pdfrwt>
<pdfrwt beam="2">0</pdfrwt>
<totfact> 0.58751540E+01</totfact>
</mgrwt>
</event>
<event>
 6    1  0.1904828E-004  0.3000000E+03  0.7818608E-02  0.1093470E+00
          1   -1    0    0  502    0  0.00000000000E+00  0.00000000000E+00  0.28298072191E+02  0.28298072191E+02  0.00000000000E+00 0.  1.
         13   -1    0    0    0    0 -0.00000000000E+00 -0.00000000000E+00 -0.10000000000E+04  0.10000000000E+04  0.00000000000E+00 0.  1.
    9000005    2    1    2  501    0 -0.61869395857E+01  0.83717966834E+01 -0.96231880347E+03  0.10142835004E+04  0.32032042457E+03 0.  0.
         13    1    3    3    0    0  0.81460182705E+02 -0.10496478673E+03 -0.72496585074E+03  0.73704060441E+03  0.00000000000E+00 0.  1.
          1    1    3    3  501    0 -0.87647122291E+02  0.11333658341E+03 -0.23735295273E+03  0.27724289595E+03  0.00000000000E+00 0.  1.
         21    1    1    2  502  501  0.61869395857E+01 -0.83717966834E+01 -0.93831243427E+01  0.14014571830E+02  0.00000000000E+00 0.  1.
<mgrwt>
<rscale>  1 0.30000000E+03</rscale>
<asrwt>0</asrwt>
<pdfrwt beam="1">  1        1 0.10290230E+00 0.30000000E+03</pdfrwt>
<pdfrwt beam="2">0</pdfrwt>
<totfact> 0.32818587E+01</totfact>
</mgrwt>
</event>
<event>
 6    1  0.1904828E-004  0.3000000E+03  0.7818608E-02  0.1093470E+00
          1   -1    0    0  502    0  0.00000000000E+00  0.00000000000E+00  0.28695681689E+02  0.28695681689E+02  0.00000000000E+00 0.  1.
         13   -1    0    0    0    0 -0.00000000000E+00 -0.00000000000E+00 -0.10000000000E+04  0.10000000000E+04  0.00000000000E+00 0.  1.
    9000005    2    1    2  501    0 -0.86793183550E+01  0.18373249744E+02 -0.91983088709E+03  0.97335653646E+03  0.31768093954E+03 0.  0.
         13    1    3    3    0    0 -0.13052927089E+02  0.10283120691E+03 -0.84441973580E+02  0.13369772968E+03  0.00000000000E+00 0.  1.
          3    1    3    3  501    0  0.43736087337E+01 -0.84457957166E+02 -0.83538891351E+03  0.83965880677E+03  0.00000000000E+00 0.  1.
         21    1    1    2  502  501  0.86793183550E+01 -0.18373249744E+02 -0.51473431222E+02  0.55339145232E+02  0.00000000000E+00 0. -1.
<mgrwt>
<rscale>  1 0.30000000E+03</rscale>
<asrwt>0</asrwt>
<pdfrwt beam="1">  1        1 0.10434815E+00 0.30000000E+03</pdfrwt>
<pdfrwt beam="2">0</pdfrwt>
<totfact> 0.32148391E+01</totfact>
</mgrwt>
</event>
<event>
 6    1  0.1904828E-004  0.3000000E+03  0.7818608E-02  0.1093470E+00
          1   -1    0    0  502    0  0.00000000000E+00  0.00000000000E+00  0.43085787577E+02  0.43085787577E+02  0.00000000000E+00 0.  1.
         13   -1    0    0    0    0 -0.00000000000E+00 -0.00000000000E+00 -0.10000000000E+04  0.10000000000E+04  0.00000000000E+00 0.  1.
    9000005    2    1    2  501    0 -0.32075187881E+02  0.36444092404E+02 -0.92768423643E+03  0.98641673919E+03  0.33175736808E+03 0.  0.
         13    1    3    3    0    0 -0.12603335770E+03 -0.10031817116E+03 -0.56621820848E+03  0.58868599638E+03  0.00000000000E+00 0.  1.
          3    1    3    3  501    0  0.93958169818E+02  0.13676226357E+03 -0.36146602795E+03  0.39773074281E+03  0.00000000000E+00 0.  1.
         21    1    1    2  502  501  0.32075187881E+02 -0.36444092404E+02 -0.29229975989E+02  0.56669048387E+02  0.00000000000E+00 0.  1.
<mgrwt>
<rscale>  1 0.30000000E+03</rscale>
<asrwt>0</asrwt>
<pdfrwt beam="1">  1        1 0.15667592E+00 0.30000000E+03</pdfrwt>
<pdfrwt beam="2">0</pdfrwt>
<totfact> 0.16625340E+01</totfact>
</mgrwt>
</event>
<event>
 6    1  0.1904828E-004  0.3000000E+03  0.7818608E-02  0.1093470E+00
          1   -1    0    0  502    0  0.00000000000E+00  0.00000000000E+00  0.28910135397E+02  0.28910135397E+02  0.00000000000E+00 0.  1.
         13   -1    0    0    0    0 -0.00000000000E+00 -0.00000000000E+00 -0.10000000000E+04  0.10000000000E+04  0.00000000000E+00 0.  1.
    9000005    2    1    2  501    0  0.10529391548E+02 -0.62225809148E+01 -0.95807106381E+03  0.10110473872E+04  0.32274923272E+03 0.  0.
         13    1    3    3    0    0  0.49919528695E+02  0.63964944002E+02 -0.91719533238E+03  0.92077725381E+03  0.00000000000E+00 0.  1.
          1    1    3    3  501    0 -0.39390137147E+02 -0.70187524916E+02 -0.40875731429E+02  0.90270133367E+02  0.00000000000E+00 0.  1.
         21    1    1    2  502  501 -0.10529391548E+02  0.62225809148E+01 -0.13018800797E+02  0.17862748216E+02  0.00000000000E+00 0. -1.
<mgrwt>
<rscale>  1 0.30000000E+03</rscale>
<asrwt>0</asrwt>
<pdfrwt beam="1">  1        1 0.10512799E+00 0.30000000E+03</pdfrwt>
<pdfrwt beam="2">0</pdfrwt>
<totfact> 0.31795137E+01</totfact>
</mgrwt>
</event>
<event>
 6    1  0.1904828E-004  0.3000000E+03  0.7818608E-02  0.1093470E+00
          1   -1    0    0  502    0  0.00000000000E+00  0.00000000000E+00  0.35254858426E+02  0.35254858426E+02  0.00000000000E+00 0.  1.
         13   -1    0    0    0    0 -0.00000000000E+00 -0.00000000000E+00 -0.10000000000E+04  0.10000000000E+04  0.00000000000E+00 0.  1.
    9000005    2    1    2  501    0 -0.11576899899E+02  0.32882323757E+01 -0.96929376326E+03  0.10223891271E+04  0.32496813786E+03 0.  0.
         13    1    3    3    0    0 -0.28579832930E+02  0.56808189721E+02 -0.96387710052E+03  0.96597258873E+03  0.00000000000E+00 0.  1.
          3    1    3    3  501    0  0.17002933031E+02 -0.53519957345E+02 -0.54166627409E+01  0.56416538365E+02  0.00000000000E+00 0.  1.
         21    1    1    2  502  501  0.11576899899E+02 -0.32882323757E+01  0.45486216867E+01  0.12865731331E+02  0.00000000000E+00 0.  1.
<mgrwt>
<rscale>  1 0.30000000E+03</rscale>
<asrwt>0</asrwt>
<pdfrwt beam="1">  1        1 0.12819976E+00 0.30000000E+03</pdfrwt>
<pdfrwt beam="2">0</pdfrwt>
<totfact> 0.23403823E+01</totfact>
</mgrwt>
</event>
<event>
 6    1  0.1904828E-004  0.3000000E+03  0.7818608E-02  0.1093470E+00
          1   -1    0    0  502    0  0.00000000000E+00  0.00000000000E+00  0.52133510150E+02  0.52133510150E+02  0.00000000000E+00 0.  1.
         13   -1    0    0    0    0 -0.00000000000E+00 -0.00000000000E+00 -0.10000000000E+04  0.10000000000E+04  0.00000000000E+00 0.  1.
    9000005    2    1    2  501    0  0.20563827877E+02  0.28961418242E+00 -0.96965408851E+03  0.10221726298E+04  0.32277682527E+03 0.  0.
         13    1    3    3    0    0  0.72555711648E+02 -0.64233565541E+02 -0.72055036061E+02  0.12075682364E+03  0.00000000000E+00 0.  1.
          1    1    3    3  501    0 -0.51991883771E+02  0.64523179723E+02 -0.89759905245E+03  0.90141580620E+03  0.00000000000E+00 0.  1.
         21    1    1    2  502  501 -0.20563827877E+02 -0.28961418242E+00  0.21787598664E+02  0.29960880309E+02  0.00000000000E+00 0.  1.
<mgrwt>
<rscale>  1 0.30000000E+03</rscale>
<asrwt>0</asrwt>
<pdfrwt beam="1">  1        1 0.18957680E+00 0.30000000E+03</pdfrwt>
<pdfrwt beam="2">0</pdfrwt>
<totfact> 0.11487595E+01</totfact>
</mgrwt>
</event>
<event>
 6    1  0.1904828E-004  0.3000000E+03  0.7818608E-02  0.1093470E+00
          1   -1    0    0  502    0  0.00000000000E+00  0.00000000000E+00  0.46179093025E+02  0.46179093025E+02  0.00000000000E+00 0.  1.
         13   -1    0    0    0    0 -0.00000000000E+00 -0.00000000000E+00 -0.10000000000E+04  0.10000000000E+04  0.00000000000E+00 0.  1.
    9000005    2    1    2  501    0  0.29384866384E+02 -0.11063387006E+02 -0.96046457663E+03  0.10140853670E+04  0.32386889273E+03 0.  0.
         13    1    3    3    0    0 -0.96081828420E+02  0.51251357975E+02 -0.76993311303E+03  0.77759592205E+03  0.00000000000E+00 0.  1.
          1    1    3    3  501    0  0.12546669480E+03 -0.62314744981E+02 -0.19053146360E+03  0.23648944494E+03  0.00000000000E+00 0.  1.
         21    1    1    2  502  501 -0.29384866384E+02  0.11063387006E+02  0.66436696525E+01  0.32093726036E+02  0.00000000000E+00 0.  1.
<mgrwt>
<rscale>  1 0.30000000E+03</rscale>
<asrwt>0</asrwt>
<pdfrwt beam="1">  1        1 0.16792433E+00 0.30000000E+03</pdfrwt>
<pdfrwt beam="2">0</pdfrwt>
<totfact> 0.14625365E+01</totfact>
</mgrwt>
</event>
<event>
 6    1  0.1904828E-004  0.3000000E+03  0.7818608E-02  0.1093470E+00
          1   -1    0    0  502    0  0.00000000000E+00  0.00000000000E+00  0.41734695328E+02  0.41734695328E+02  0.00000000000E+00 0.  1.
         13   -1    0    0    0    0 -0.00000000000E+00 -0.00000000000E+00 -0.10000000000E+04  0.10000000000E+04  0.00000000000E+00 0.  1.
    9000005    2    1    2  501    0  0.29855178185E+02  0.43763969036E+02 -0.91958339830E+03  0.97613815174E+03  0.32311831920E+03 0.  0.
         13    1    3    3    0    0 -0.13215487813E+03  0.14470679302E+02 -0.21669957738E+03  0.25423024842E+03  0.00000000000E+00 0.  1.
          1    1    3    3  501    0  0.16201005631E+03  0.29293289733E+02 -0.70288382092E+03  0.72190790333E+03  0.00000000000E+00 0.  1.
         21    1    1    2  502  501 -0.29855178185E+02 -0.43763969036E+02 -0.38681906369E+02  0.65596543587E+02  0.00000000000E+00 0.  1.
<mgrwt>
<rscale>  1 0.30000000E+03</rscale>
<asrwt>0</asrwt>
<pdfrwt beam="1">  1        1 0.15176285E+00 0.30000000E+03</pdfrwt>
<pdfrwt beam="2">0</pdfrwt>
<totfact> 0.17598833E+01</totfact>
</mgrwt>
</event>
<event>
 6    1  0.1904828E-004  0.3000000E+03  0.7818608E-02  0.1093470E+00
          1   -1    0    0  502    0  0.00000000000E+00  0.00000000000E+00  0.34723984905E+02  0.34723984905E+02  0.00000000000E+00 0.  1.
         13   -1    0    0    0    0 -0.00000000000E+00 -0.00000000000E+00 -0.10000000000E+04  0.10000000000E+04  0.00000000000E+00 0.  1.
    9000005    2    1    2  501    0  0.75464786714E+00 -0.19137647371E+02 -0.96382679015E+03  0.10155167130E+04  0.31928873136E+03 0.  0.
         13    1    3    3    0    0  0.38985014197E+02 -0.15443507937E+03 -0.68468097035E+03  0.70296376595E+03  0.00000000000E+00 0.  1.
          1    1    3    3  501    0 -0.38230366330E+02  0.13529743200E+03 -0.27914581980E+03  0.31255294707E+03  0.00000000000E+00 0.  1.
         21    1    1    2  502  501 -0.75464786714E+00  0.19137647371E+02 -0.14492249463E+01  0.19207271885E+02  0.00000000000E+00 0.  1.
<mgrwt>
<rscale>  1 0.30000000E+03</rscale>
<asrwt>0</asrwt>
<pdfrwt beam="1">  1        1 0.12626930E+00 0.30000000E+03</pdfrwt>
<pdfrwt beam="2">0</pdfrwt>
<totfact> 0.23983075E+01</totfact>
</mgrwt>
</event>
<event>
 6    1  0.1904828E-004  0.3000000E+03  0.7818608E-02  0.1093470E+00
          3   -1    0    0  502    0  0.00000000000E+00  0.00000000000E+00  0.31007997009E+02  0.31007997009E+02  0.00000000000E+00 0.  1.
         13   -1    0    0    0    0 -0.00000000000E+00 -0.00000000000E+00 -0.10000000000E+04  0.10000000000E+04  0.00000000000E+00 0.  1.
    9000005    2    1    2  501    0  0.11180568888E+02  0.61822560572E+01 -0.96098536262E+03  0.10159304740E+04  0.32933058678E+03 0.  0.
         13    1    3    3    0    0  0.13731865875E+03  0.86864129022E+02 -0.66065762231E+03  0.68034570982E+03  0.00000000000E+00 0.  1.
          1    1    3    3  501    0 -0.12613808987E+03 -0.80681872965E+02 -0.30032774031E+03  0.33558476416E+03  0.00000000000E+00 0.  1.
         21    1    1    2  502  501 -0.11180568888E+02 -0.61822560572E+01 -0.80066403753E+01  0.15077523030E+02  0.00000000000E+00 0. -1.
<mgrwt>
<rscale>  1 0.30000000E+03</rscale>
<asrwt>0</asrwt>
<pdfrwt beam="1">  1        3 0.11275659E+00 0.30000000E+03</pdfrwt>
<pdfrwt beam="2">0</pdfrwt>
<totfact> 0.28030787E+00</totfact>
</mgrwt>
</event>
<event>
 6    1  0.1904828E-004  0.3000000E+03  0.7818608E-02  0.1093470E+00
          1   -1    0    0  502    0  0.00000000000E+00  0.00000000000E+00  0.35892832745E+02  0.35892832745E+02  0.00000000000E+00 0.  1.
         13   -1    0    0    0    0 -0.00000000000E+00 -0.00000000000E+00 -0.10000000000E+04  0.10000000000E+04  0.00000000000E+00 0.  1.
    9000005    2    1    2  501    0  0.24869297707E+02  0.45876717330E+01 -0.94871646633E+03  0.10062887389E+04  0.33453634145E+03 0.  0.
         13    1    3    3    0    0  0.11628066847E+03  0.12487607105E+03 -0.64333666074E+03  0.66558041290E+03  0.00000000000E+00 0.  1.
          3    1    3    3  501    0 -0.91411370760E+02 -0.12028839931E+03 -0.30537980559E+03  0.34070832595E+03  0.00000000000E+00 0.  1.
         21    1    1    2  502  501 -0.24869297707E+02 -0.45876717330E+01 -0.15390700926E+02  0.29604093895E+02  0.00000000000E+00 0.  1.
<mgrwt>
<rscale>  1 0.30000000E+03</rscale>
<asrwt>0</asrwt>
<pdfrwt beam="1">  1        1 0.13051967E+00 0.30000000E+03</pdfrwt>
<pdfrwt beam="2">0</pdfrwt>
<totfact> 0.22731343E+01</totfact>
</mgrwt>
</event>
<event>
 6    1  0.1904828E-004  0.3000000E+03  0.7818608E-02  0.1093470E+00
          1   -1    0    0  502    0  0.00000000000E+00  0.00000000000E+00  0.45883877074E+02  0.45883877074E+02  0.00000000000E+00 0.  1.
         13   -1    0    0    0    0 -0.00000000000E+00 -0.00000000000E+00 -0.10000000000E+04  0.10000000000E+04  0.00000000000E+00 0.  1.
    9000005    2    1    2  501    0 -0.28149783009E+02 -0.29723800393E+00 -0.94473789920E+03  0.10162115042E+04  0.37331437739E+03 0.  0.
         13    1    3    3    0    0  0.64497481682E+02 -0.14997663354E+03 -0.67239517024E+03  0.69193076295E+03  0.00000000000E+00 0.  1.
          1    1    3    3  501    0 -0.92647264691E+02  0.14967939554E+03 -0.27234272896E+03  0.32428074121E+03  0.00000000000E+00 0.  1.
         21    1    1    2  502  501  0.28149783009E+02  0.29723800393E+00 -0.93782237213E+01  0.29672372909E+02  0.00000000000E+00 0.  1.
<mgrwt>
<rscale>  1 0.30000000E+03</rscale>
<asrwt>0</asrwt>
<pdfrwt beam="1">  1        1 0.16685081E+00 0.30000000E+03</pdfrwt>
<pdfrwt beam="2">0</pdfrwt>
<totfact> 0.14803810E+01</totfact>
</mgrwt>
</event>
<event>
 6    1  0.1904828E-004  0.3000000E+03  0.7818608E-02  0.1093470E+00
          1   -1    0    0  502    0  0.00000000000E+00  0.00000000000E+00  0.35765208485E+02  0.35765208485E+02  0.00000000000E+00 0.  1.
         13   -1    0    0    0    0 -0.00000000000E+00 -0.00000000000E+00 -0.10000000000E+04  0.10000000000E+04  0.00000000000E+00 0.  1.
    9000005    2    1    2  501    0 -0.43593307601E+02 -0.56752584015E+01 -0.88379832498E+03  0.94409945602E+03  0.32907707092E+03 0.  0.
         13    1    3    3    0    0 -0.10955525257E+03  0.11772125334E+03 -0.66668149598E+03  0.68580235049E+03  0.00000000000E+00 0.  1.
          1    1    3    3  501    0  0.65961944973E+02 -0.12339651174E+03 -0.21711682900E+03  0.25829710554E+03  0.00000000000E+00 0.  1.
         21    1    1    2  502  501  0.43593307601E+02  0.56752584015E+01 -0.80436466540E+02  0.91665752464E+02  0.00000000000E+00 0. -1.
<mgrwt>
<rscale>  1 0.30000000E+03</rscale>
<asrwt>0</asrwt>
<pdfrwt beam="1">  1        1 0.13005558E+00 0.30000000E+03</pdfrwt>
<pdfrwt beam="2">0</pdfrwt>
<totfact> 0.22863844E+01</totfact>
</mgrwt>
</event>
<event>
 6    1  0.1904828E-004  0.3000000E+03  0.7818608E-02  0.1093470E+00
          1   -1    0    0  502    0  0.00000000000E+00  0.00000000000E+00  0.30682883801E+02  0.30682883801E+02  0.00000000000E+00 0.  1.
         13   -1    0    0    0    0 -0.00000000000E+00 -0.00000000000E+00 -0.10000000000E+04  0.10000000000E+04  0.00000000000E+00 0.  1.
    9000005    2    1    2  501    0 -0.15050878198E+02  0.78001632009E+01 -0.95080204363E+03  0.10055795097E+04  0.32692239540E+03 0.  0.
         13    1    3    3    0    0 -0.44374031692E+02  0.13127999617E+02  0.74439539398E+01  0.46870155886E+02  0.00000000000E+00 0.  1.
          3    1    3    3  501    0  0.29323153494E+02 -0.53278364162E+01 -0.95824599757E+03  0.95870935379E+03  0.00000000000E+00 0.  1.
         21    1    1    2  502  501  0.15050878198E+02 -0.78001632009E+01 -0.18515072566E+02  0.25103374129E+02  0.00000000000E+00 0. -1.
<mgrwt>
<rscale>  1 0.30000000E+03</rscale>
<asrwt>0</asrwt>
<pdfrwt beam="1">  1        1 0.11157436E+00 0.30000000E+03</pdfrwt>
<pdfrwt beam="2">0</pdfrwt>
<totfact> 0.29077407E+01</totfact>
</mgrwt>
</event>
<event>
 6    1  0.1904828E-004  0.3000000E+03  0.7818608E-02  0.1093470E+00
          1   -1    0    0  502    0  0.00000000000E+00  0.00000000000E+00  0.31387998356E+02  0.31387998356E+02  0.00000000000E+00 0.  1.
         13   -1    0    0    0    0 -0.00000000000E+00 -0.00000000000E+00 -0.10000000000E+04  0.10000000000E+04  0.00000000000E+00 0.  1.
    9000005    2    1    2  501    0  0.94176110290E+01 -0.49281731158E+02 -0.89465462122E+03  0.94201756397E+03  0.29064208080E+03 0.  0.
         13    1    3    3    0    0  0.19924389134E+02 -0.39955377759E+01  0.18619239797E+02  0.27561235370E+02  0.00000000000E+00 0.  1.
          3    1    3    3  501    0 -0.10506778105E+02 -0.45286193382E+02 -0.91327386102E+03  0.91445632860E+03  0.00000000000E+00 0.  1.
         21    1    1    2  502  501 -0.94176110290E+01  0.49281731158E+02 -0.73957380422E+02  0.89370434386E+02  0.00000000000E+00 0.  1.
<mgrwt>
<rscale>  1 0.30000000E+03</rscale>
<asrwt>0</asrwt>
<pdfrwt beam="1">  1        1 0.11413842E+00 0.30000000E+03</pdfrwt>
<pdfrwt beam="2">0</pdfrwt>
<totfact> 0.28087901E+01</totfact>
</mgrwt>
</event>
<event>
 6    1  0.1904828E-004  0.3000000E+03  0.7818608E-02  0.1093470E+00
          1   -1    0    0  502    0  0.00000000000E+00  0.00000000000E+00  0.57766732317E+02  0.57766732317E+02  0.00000000000E+00 0.  1.
         13   -1    0    0    0    0 -0.00000000000E+00 -0.00000000000E+00 -0.10000000000E+04  0.10000000000E+04  0.00000000000E+00 0.  1.
    9000005    2    1    2  501    0 -0.14910903916E+02 -0.26487420790E+01 -0.97155804944E+03  0.10247622824E+04  0.32555082719E+03 0.  0.
         13    1    3    3    0    0 -0.15460975464E+03 -0.16188691785E+02 -0.29138972239E+03  0.33026386464E+03  0.00000000000E+00 0.  1.
          3    1    3    3  501    0  0.13969885073E+03  0.13539949706E+02 -0.68016832704E+03  0.69449841774E+03  0.00000000000E+00 0.  1.
         21    1    1    2  502  501  0.14910903916E+02  0.26487420790E+01  0.29324781756E+02  0.33004449931E+02  0.00000000000E+00 0.  1.
<mgrwt>
<rscale>  1 0.30000000E+03</rscale>
<asrwt>0</asrwt>
<pdfrwt beam="1">  1        1 0.21006129E+00 0.30000000E+03</pdfrwt>
<pdfrwt beam="2">0</pdfrwt>
<totfact> 0.91792085E+00</totfact>
</mgrwt>
</event>
<event>
 6    1  0.1904828E-004  0.3000000E+03  0.7818608E-02  0.1093470E+00
          1   -1    0    0  502    0  0.00000000000E+00  0.00000000000E+00  0.36294649323E+02  0.36294649323E+02  0.00000000000E+00 0.  1.
         13   -1    0    0    0    0 -0.00000000000E+00 -0.00000000000E+00 -0.10000000000E+04  0.10000000000E+04  0.00000000000E+00 0.  1.
    9000005    2    1    2  501    0 -0.19424392085E+00 -0.55106394062E+02 -0.83065560667E+03  0.89228427894E+03  0.32116311301E+03 0.  0.
         13    1    3    3    0    0 -0.12830875999E+03  0.63207424288E+02 -0.47678190934E+03  0.49777435194E+03  0.00000000000E+00 0.  1.
          1    1    3    3  501    0  0.12811451607E+03 -0.11831381835E+03 -0.35387369734E+03  0.39450992701E+03  0.00000000000E+00 0.  1.
         21    1    1    2  502  501  0.19424392085E+00  0.55106394062E+02 -0.13304974400E+03  0.14401037038E+03  0.00000000000E+00 0.  1.
<mgrwt>
<rscale>  1 0.30000000E+03</rscale>
<asrwt>0</asrwt>
<pdfrwt beam="1">  1        1 0.13198082E+00 0.30000000E+03</pdfrwt>
<pdfrwt beam="2">0</pdfrwt>
<totfact> 0.22320662E+01</totfact>
</mgrwt>
</event>
<event>
 6    1  0.1904828E-004  0.3000000E+03  0.7818608E-02  0.1093470E+00
          1   -1    0    0  502    0  0.00000000000E+00  0.00000000000E+00  0.36288167570E+02  0.36288167570E+02  0.00000000000E+00 0.  1.
         13   -1    0    0    0    0 -0.00000000000E+00 -0.00000000000E+00 -0.10000000000E+04  0.10000000000E+04  0.00000000000E+00 0.  1.
    9000005    2    1    2  501    0 -0.26752146323E+01  0.55748734894E+02 -0.81981393391E+03  0.88194542102E+03  0.32034007117E+03 0.  0.
         13    1    3    3    0    0  0.74563455085E+02  0.10566485962E+03 -0.12099239752E+03  0.17709864949E+03  0.00000000000E+00 0.  1.
          3    1    3    3  501    0 -0.77238669717E+02 -0.49916124727E+02 -0.69882153640E+03  0.70484677153E+03  0.00000000000E+00 0.  1.
         21    1    1    2  502  501  0.26752146323E+01 -0.55748734894E+02 -0.14389789852E+03  0.15434274655E+03  0.00000000000E+00 0.  1.
<mgrwt>
<rscale>  1 0.30000000E+03</rscale>
<asrwt>0</asrwt>
<pdfrwt beam="1">  1        1 0.13195725E+00 0.30000000E+03</pdfrwt>
<pdfrwt beam="2">0</pdfrwt>
<totfact> 0.22327210E+01</totfact>
</mgrwt>
</event>
<event>
 6    1  0.1904828E-004  0.3000000E+03  0.7818608E-02  0.1093470E+00
          1   -1    0    0  502    0  0.00000000000E+00  0.00000000000E+00  0.27482689161E+02  0.27482689161E+02  0.00000000000E+00 0.  1.
         13   -1    0    0    0    0 -0.00000000000E+00 -0.00000000000E+00 -0.10000000000E+04  0.10000000000E+04  0.00000000000E+00 0.  1.
    9000005    2    1    2  501    0  0.81962679575E+01  0.78739836372E+01 -0.94280869983E+03  0.99567419981E+03  0.31992137982E+03 0.  0.
         13    1    3    3    0    0 -0.10035844664E+03 -0.99374016634E+02 -0.65349863548E+03  0.66858617961E+03  0.00000000000E+00 0.  1.
          3    1    3    3  501    0  0.10855471460E+03  0.10724800027E+03 -0.28931006435E+03  0.32708802020E+03  0.00000000000E+00 0.  1.
         21    1    1    2  502  501 -0.81962679575E+01 -0.78739836372E+01 -0.29708611006E+02  0.31808489349E+02  0.00000000000E+00 0.  1.
<mgrwt>
<rscale>  1 0.30000000E+03</rscale>
<asrwt>0</asrwt>
<pdfrwt beam="1">  1        1 0.99937262E-01 0.30000000E+03</pdfrwt>
<pdfrwt beam="2">0</pdfrwt>
<totfact> 0.34258367E+01</totfact>
</mgrwt>
</event>
<event>
 6    1  0.1904828E-004  0.3000000E+03  0.7818608E-02  0.1093470E+00
          1   -1    0    0  502    0  0.00000000000E+00  0.00000000000E+00  0.32833513368E+02  0.32833513368E+02  0.00000000000E+00 0.  1.
         13   -1    0    0    0    0 -0.00000000000E+00 -0.00000000000E+00 -0.10000000000E+04  0.10000000000E+04  0.00000000000E+00 0.  1.
    9000005    2    1    2  501    0 -0.49180636422E+01  0.23633236281E+02 -0.94343768796E+03  0.99898424316E+03  0.32758530159E+03 0.  0.
         13    1    3    3    0    0  0.67010074478E+02 -0.40224762634E+02 -0.35284768827E+02  0.85751947626E+02  0.00000000000E+00 0.  1.
          1    1    3    3  501    0 -0.71928138120E+02  0.63857998916E+02 -0.90815291913E+03  0.91323229553E+03  0.00000000000E+00 0.  1.
         21    1    1    2  502  501  0.49180636422E+01 -0.23633236281E+02 -0.23728798672E+02  0.33849270207E+02  0.00000000000E+00 0.  1.
<mgrwt>
<rscale>  1 0.30000000E+03</rscale>
<asrwt>0</asrwt>
<pdfrwt beam="1">  1        1 0.11939485E+00 0.30000000E+03</pdfrwt>
<pdfrwt beam="2">0</pdfrwt>
<totfact> 0.26201922E+01</totfact>
</mgrwt>
</event>
<event>
 6    1  0.1904828E-004  0.3000000E+03  0.7818608E-02  0.1093470E+00
          3   -1    0    0  502    0  0.00000000000E+00  0.00000000000E+00  0.39459874234E+02  0.39459874234E+02  0.00000000000E+00 0.  1.
         13   -1    0    0    0    0 -0.00000000000E+00 -0.00000000000E+00 -0.10000000000E+04  0.10000000000E+04  0.00000000000E+00 0.  1.
    9000005    2    1    2  501    0 -0.25716654043E+02  0.16998457502E+02 -0.93970419243E+03  0.10022519454E+04  0.34715227044E+03 0.  0.
         13    1    3    3    0    0 -0.17532500549E+03  0.42155525492E+02 -0.35480459817E+03  0.39799779995E+03  0.00000000000E+00 0.  1.
          3    1    3    3  501    0  0.14960835145E+03 -0.25157067989E+02 -0.58489959426E+03  0.60425414542E+03  0.00000000000E+00 0.  1.
         21    1    1    2  502  501  0.25716654043E+02 -0.16998457502E+02 -0.20835933339E+02  0.37207928870E+02  0.00000000000E+00 0. -1.
<mgrwt>
<rscale>  1 0.30000000E+03</rscale>
<asrwt>0</asrwt>
<pdfrwt beam="1">  1        3 0.14349075E+00 0.30000000E+03</pdfrwt>
<pdfrwt beam="2">0</pdfrwt>
<totfact> 0.12086690E+00</totfact>
</mgrwt>
</event>
<event>
 6    1  0.1904828E-004  0.3000000E+03  0.7818608E-02  0.1093470E+00
          1   -1    0    0  502    0  0.00000000000E+00  0.00000000000E+00  0.66224411245E+02  0.66224411245E+02  0.00000000000E+00 0.  1.
         13   -1    0    0    0    0 -0.00000000000E+00 -0.00000000000E+00 -0.10000000000E+04  0.10000000000E+04  0.00000000000E+00 0.  1.
    9000005    2    1    2  501    0 -0.29790565542E+02 -0.40997637229E+02 -0.95674130057E+03  0.10105853245E+04  0.32149727500E+03 0.  0.
         13    1    3    3    0    0 -0.12515494555E+03  0.47146389173E+02 -0.77934572782E+03  0.79073782373E+03  0.00000000000E+00 0.  1.
          1    1    3    3  501    0  0.95364380006E+02 -0.88144026403E+02 -0.17739557275E+03  0.21984750078E+03  0.00000000000E+00 0.  1.
         21    1    1    2  502  501  0.29790565542E+02  0.40997637229E+02  0.22965711819E+02  0.55639086739E+02  0.00000000000E+00 0.  1.
<mgrwt>
<rscale>  1 0.30000000E+03</rscale>
<asrwt>0</asrwt>
<pdfrwt beam="1">  1        1 0.24081655E+00 0.30000000E+03</pdfrwt>
<pdfrwt beam="2">0</pdfrwt>
<totfact> 0.65855393E+00</totfact>
</mgrwt>
</event>
<event>
 6    1  0.1904828E-004  0.3000000E+03  0.7818608E-02  0.1093470E+00
          1   -1    0    0  502    0  0.00000000000E+00  0.00000000000E+00  0.38967956002E+02  0.38967956002E+02  0.00000000000E+00 0.  1.
         13   -1    0    0    0    0 -0.00000000000E+00 -0.00000000000E+00 -0.10000000000E+04  0.10000000000E+04  0.00000000000E+00 0.  1.
    9000005    2    1    2  501    0  0.48360253193E+02 -0.30286321473E+02 -0.83840058260E+03  0.90371097584E+03  0.33244851571E+03 0.  0.
         13    1    3    3    0    0 -0.48268447793E+01 -0.14024537135E+03 -0.15339068393E+03  0.20789604261E+03  0.00000000000E+00 0.  1.
          3    1    3    3  501    0  0.53187097973E+02  0.10995904987E+03 -0.68500989867E+03  0.69581493324E+03  0.00000000000E+00 0.  1.
         21    1    1    2  502  501 -0.48360253193E+02  0.30286321473E+02 -0.12263146140E+03  0.13525698016E+03  0.00000000000E+00 0.  1.
<mgrwt>
<rscale>  1 0.30000000E+03</rscale>
<asrwt>0</asrwt>
<pdfrwt beam="1">  1        1 0.14170196E+00 0.30000000E+03</pdfrwt>
<pdfrwt beam="2">0</pdfrwt>
<totfact> 0.19821850E+01</totfact>
</mgrwt>
</event>
<event>
 6    1  0.1904828E-004  0.3000000E+03  0.7818608E-02  0.1093470E+00
          1   -1    0    0  502    0  0.00000000000E+00  0.00000000000E+00  0.49979269600E+02  0.49979269600E+02  0.00000000000E+00 0.  1.
         13   -1    0    0    0    0 -0.00000000000E+00 -0.00000000000E+00 -0.10000000000E+04  0.10000000000E+04  0.00000000000E+00 0.  1.
    9000005    2    1    2  501    0  0.91070848790E+02  0.22565839132E+02 -0.83717882691E+03  0.90322637601E+03  0.32580113795E+03 0.  0.
         13    1    3    3    0    0  0.69024218546E+02  0.11296071847E+03 -0.78593113813E+03  0.79700202041E+03  0.00000000000E+00 0.  1.
          1    1    3    3  501    0  0.22046630244E+02 -0.90394879338E+02 -0.51247688780E+02  0.10622435559E+03  0.00000000000E+00 0.  1.
         21    1    1    2  502  501 -0.91070848790E+02 -0.22565839132E+02 -0.11284190349E+03  0.14675289359E+03  0.00000000000E+00 0.  1.
<mgrwt>
<rscale>  1 0.30000000E+03</rscale>
<asrwt>0</asrwt>
<pdfrwt beam="1">  1        1 0.18174318E+00 0.30000000E+03</pdfrwt>
<pdfrwt beam="2">0</pdfrwt>
<totfact> 0.12529059E+01</totfact>
</mgrwt>
</event>
<event>
 6    1  0.1904828E-004  0.3000000E+03  0.7818608E-02  0.1093470E+00
          1   -1    0    0  502    0  0.00000000000E+00  0.00000000000E+00  0.30471443900E+02  0.30471443900E+02  0.00000000000E+00 0.  1.
         13   -1    0    0    0    0 -0.00000000000E+00 -0.00000000000E+00 -0.10000000000E+04  0.10000000000E+04  0.00000000000E+00 0.  1.
    9000005    2    1    2  501    0  0.60620589591E+00  0.20355467771E+02 -0.94108453051E+03  0.99548894620E+03  0.32394974283E+03 0.  0.
         13    1    3    3    0    0 -0.10963066636E+03  0.66337678117E+02 -0.80192865656E+03  0.81210168130E+03  0.00000000000E+00 0.  1.
          1    1    3    3  501    0  0.11023687226E+03 -0.45982210346E+02 -0.13915587395E+03  0.18338726490E+03  0.00000000000E+00 0.  1.
         21    1    1    2  502  501 -0.60620589591E+00 -0.20355467771E+02 -0.28444025588E+02  0.34982497701E+02  0.00000000000E+00 0.  1.
<mgrwt>
<rscale>  1 0.30000000E+03</rscale>
<asrwt>0</asrwt>
<pdfrwt beam="1">  1        1 0.11080548E+00 0.30000000E+03</pdfrwt>
<pdfrwt beam="2">0</pdfrwt>
<totfact> 0.29383769E+01</totfact>
</mgrwt>
</event>
<event>
 6    1  0.1904828E-004  0.3000000E+03  0.7818608E-02  0.1093470E+00
          1   -1    0    0  502    0  0.00000000000E+00  0.00000000000E+00  0.30447666486E+02  0.30447666486E+02  0.00000000000E+00 0.  1.
         13   -1    0    0    0    0 -0.00000000000E+00 -0.00000000000E+00 -0.10000000000E+04  0.10000000000E+04  0.00000000000E+00 0.  1.
    9000005    2    1    2  501    0 -0.14708810430E+02 -0.80738051590E+01 -0.95191437721E+03  0.10061036131E+04  0.32530287928E+03 0.  0.
         13    1    3    3    0    0 -0.39084150466E+02  0.15288209749E+03 -0.55782598244E+03  0.57971573485E+03  0.00000000000E+00 0.  1.
          3    1    3    3  501    0  0.24375340035E+02 -0.16095590265E+03 -0.39408839477E+03  0.42638787822E+03  0.00000000000E+00 0.  1.
         21    1    1    2  502  501  0.14708810430E+02  0.80738051590E+01 -0.17637956308E+02  0.24344053416E+02  0.00000000000E+00 0.  1.
<mgrwt>
<rscale>  1 0.30000000E+03</rscale>
<asrwt>0</asrwt>
<pdfrwt beam="1">  1        1 0.11071902E+00 0.30000000E+03</pdfrwt>
<pdfrwt beam="2">0</pdfrwt>
<totfact> 0.29418506E+01</totfact>
</mgrwt>
</event>
<event>
 6    1  0.1904828E-004  0.3000000E+03  0.7818608E-02  0.1093470E+00
          1   -1    0    0  502    0  0.00000000000E+00  0.00000000000E+00  0.30671187771E+02  0.30671187771E+02  0.00000000000E+00 0.  1.
         13   -1    0    0    0    0 -0.00000000000E+00 -0.00000000000E+00 -0.10000000000E+04  0.10000000000E+04  0.00000000000E+00 0.  1.
    9000005    2    1    2  501    0 -0.16527160532E+02 -0.33879603397E+00 -0.95425588964E+03  0.10083003404E+04  0.32525683953E+03 0.  0.
         13    1    3    3    0    0 -0.73181549860E+02 -0.78673970615E+02 -0.87964199572E+03  0.88618010219E+03  0.00000000000E+00 0.  1.
          3    1    3    3  501    0  0.56654389328E+02  0.78335174581E+02 -0.74613893927E+02  0.12212023818E+03  0.00000000000E+00 0.  1.
         21    1    1    2  502  501  0.16527160532E+02  0.33879603397E+00 -0.15072922586E+02  0.22370847397E+02  0.00000000000E+00 0. -1.
<mgrwt>
<rscale>  1 0.30000000E+03</rscale>
<asrwt>0</asrwt>
<pdfrwt beam="1">  1        1 0.11153183E+00 0.30000000E+03</pdfrwt>
<pdfrwt beam="2">0</pdfrwt>
<totfact> 0.29094236E+01</totfact>
</mgrwt>
</event>
<event>
 6    1  0.1904828E-004  0.3000000E+03  0.7818608E-02  0.1093470E+00
          1   -1    0    0  502    0  0.00000000000E+00  0.00000000000E+00  0.62423698240E+02  0.62423698240E+02  0.00000000000E+00 0.  1.
         13   -1    0    0    0    0 -0.00000000000E+00 -0.00000000000E+00 -0.10000000000E+04  0.10000000000E+04  0.00000000000E+00 0.  1.
    9000005    2    1    2  501    0  0.98045968102E+01 -0.59763357131E+01 -0.97276688711E+03  0.10254071613E+04  0.32411816232E+03 0.  0.
         13    1    3    3    0    0  0.13480210065E+03 -0.97803260035E+02 -0.56907783523E+03  0.59294743997E+03  0.00000000000E+00 0.  1.
          3    1    3    3  501    0 -0.12499750384E+03  0.91826924322E+02 -0.40368905188E+03  0.43245972136E+03  0.00000000000E+00 0.  1.
         21    1    1    2  502  501 -0.98045968102E+01  0.59763357131E+01  0.35190585352E+02  0.37016536907E+02  0.00000000000E+00 0.  1.
<mgrwt>
<rscale>  1 0.30000000E+03</rscale>
<asrwt>0</asrwt>
<pdfrwt beam="1">  1        1 0.22699575E+00 0.30000000E+03</pdfrwt>
<pdfrwt beam="2">0</pdfrwt>
<totfact> 0.76440558E+00</totfact>
</mgrwt>
</event>
<event>
 6    1  0.1904828E-004  0.3000000E+03  0.7818608E-02  0.1093470E+00
          1   -1    0    0  502    0  0.00000000000E+00  0.00000000000E+00  0.44643205641E+02  0.44643205641E+02  0.00000000000E+00 0.  1.
         13   -1    0    0    0    0 -0.00000000000E+00 -0.00000000000E+00 -0.10000000000E+04  0.10000000000E+04  0.00000000000E+00 0.  1.
    9000005    2    1    2  501    0  0.59071971772E+02 -0.34932203059E+02 -0.90398097171E+03  0.95891554492E+03  0.31245426612E+03 0.  0.
         13    1    3    3    0    0 -0.32276746094E+02 -0.15829622387E+03 -0.54629950554E+03  0.56968643356E+03  0.00000000000E+00 0.  1.
          3    1    3    3  501    0  0.91348717866E+02  0.12336402081E+03 -0.35768146618E+03  0.38922911136E+03  0.00000000000E+00 0.  1.
         21    1    1    2  502  501 -0.59071971772E+02  0.34932203059E+02 -0.51375822645E+02  0.85727660717E+02  0.00000000000E+00 0.  1.
<mgrwt>
<rscale>  1 0.30000000E+03</rscale>
<asrwt>0</asrwt>
<pdfrwt beam="1">  1        1 0.16233927E+00 0.30000000E+03</pdfrwt>
<pdfrwt beam="2">0</pdfrwt>
<totfact> 0.15581403E+01</totfact>
</mgrwt>
</event>
<event>
 6    1  0.1904828E-004  0.3000000E+03  0.7818608E-02  0.1093470E+00
          3   -1    0    0  502    0  0.00000000000E+00  0.00000000000E+00  0.43295084580E+02  0.43295084580E+02  0.00000000000E+00 0.  1.
         13   -1    0    0    0    0 -0.00000000000E+00 -0.00000000000E+00 -0.10000000000E+04  0.10000000000E+04  0.00000000000E+00 0.  1.
    9000005    2    1    2  501    0  0.11942086143E+02  0.76783523426E+01 -0.97037574340E+03  0.10235856439E+04  0.32541806403E+03 0.  0.
         13    1    3    3    0    0  0.63535558159E+02  0.58407987270E+02 -0.48742629478E+02  0.99116618465E+02  0.00000000000E+00 0.  1.
          3    1    3    3  501    0 -0.51593472015E+02 -0.50729634928E+02 -0.92163311392E+03  0.92446902539E+03  0.00000000000E+00 0.  1.
         21    1    1    2  502  501 -0.11942086143E+02 -0.76783523426E+01  0.13670827983E+02  0.19709440730E+02  0.00000000000E+00 0.  1.
<mgrwt>
<rscale>  1 0.30000000E+03</rscale>
<asrwt>0</asrwt>
<pdfrwt beam="1">  1        3 0.15743700E+00 0.30000000E+03</pdfrwt>
<pdfrwt beam="2">0</pdfrwt>
<totfact> 0.77399278E-01</totfact>
</mgrwt>
</event>
<event>
 6    1  0.1904828E-004  0.3000000E+03  0.7818608E-02  0.1093470E+00
          1   -1    0    0  502    0  0.00000000000E+00  0.00000000000E+00  0.32040853208E+02  0.32040853208E+02  0.00000000000E+00 0.  1.
         13   -1    0    0    0    0 -0.00000000000E+00 -0.00000000000E+00 -0.10000000000E+04  0.10000000000E+04  0.00000000000E+00 0.  1.
    9000005    2    1    2  501    0 -0.78281669382E+01 -0.79064119479E+01 -0.95066831189E+03  0.10114796149E+04  0.34524915736E+03 0.  0.
         13    1    3    3    0    0 -0.33128881488E+02 -0.58889339983E+02 -0.90834460190E+01  0.68176140577E+02  0.00000000000E+00 0.  1.
          3    1    3    3  501    0  0.25300714550E+02  0.50982928036E+02 -0.94158486587E+03  0.94330347436E+03  0.00000000000E+00 0.  1.
         21    1    1    2  502  501  0.78281669382E+01  0.79064119479E+01 -0.17290834901E+02  0.20561238267E+02  0.00000000000E+00 0.  1.
<mgrwt>
<rscale>  1 0.30000000E+03</rscale>
<asrwt>0</asrwt>
<pdfrwt beam="1">  1        1 0.11651244E+00 0.30000000E+03</pdfrwt>
<pdfrwt beam="2">0</pdfrwt>
<totfact> 0.27213645E+01</totfact>
</mgrwt>
</event>
<event>
 6    1  0.1904828E-004  0.3000000E+03  0.7818608E-02  0.1093470E+00
          1   -1    0    0  502    0  0.00000000000E+00  0.00000000000E+00  0.31073426691E+02  0.31073426691E+02  0.00000000000E+00 0.  1.
         13   -1    0    0    0    0 -0.00000000000E+00 -0.00000000000E+00 -0.10000000000E+04  0.10000000000E+04  0.00000000000E+00 0.  1.
    9000005    2    1    2  501    0 -0.11105440833E+02  0.69077643248E+01 -0.95748072077E+03  0.10136936809E+04  0.33261764834E+03 0.  0.
         13    1    3    3    0    0  0.12162172245E+03 -0.97266706251E+02 -0.57368200200E+03  0.59444402170E+03  0.00000000000E+00 0.  1.
          3    1    3    3  501    0 -0.13272716329E+03  0.10417447058E+03 -0.38379871877E+03  0.41924965918E+03  0.00000000000E+00 0.  1.
         21    1    1    2  502  501  0.11105440833E+02 -0.69077643248E+01 -0.11445852541E+02  0.17379745811E+02  0.00000000000E+00 0.  1.
<mgrwt>
<rscale>  1 0.30000000E+03</rscale>
<asrwt>0</asrwt>
<pdfrwt beam="1">  1        1 0.11299452E+00 0.30000000E+03</pdfrwt>
<pdfrwt beam="2">0</pdfrwt>
<totfact> 0.28523319E+01</totfact>
</mgrwt>
</event>
<event>
 6    1  0.1904828E-004  0.3000000E+03  0.7818608E-02  0.1093470E+00
          1   -1    0    0  502    0  0.00000000000E+00  0.00000000000E+00  0.40468525775E+02  0.40468525775E+02  0.00000000000E+00 0.  1.
         13   -1    0    0    0    0 -0.00000000000E+00 -0.00000000000E+00 -0.10000000000E+04  0.10000000000E+04  0.00000000000E+00 0.  1.
    9000005    2    1    2  501    0  0.41803275376E+02 -0.32710713010E+02 -0.78031505500E+03  0.85355670299E+03  0.34183322773E+03 0.  0.
         13    1    3    3    0    0 -0.11889883891E+03 -0.43294265985E+02 -0.59379893246E+03  0.60713136927E+03  0.00000000000E+00 0.  1.
          1    1    3    3  501    0  0.16070211429E+03  0.10583552975E+02 -0.18651612255E+03  0.24642533372E+03  0.00000000000E+00 0.  1.
         21    1    1    2  502  501 -0.41803275376E+02  0.32710713010E+02 -0.17921641922E+03  0.18691182278E+03  0.00000000000E+00 0.  1.
<mgrwt>
<rscale>  1 0.30000000E+03</rscale>
<asrwt>0</asrwt>
<pdfrwt beam="1">  1        1 0.14715859E+00 0.30000000E+03</pdfrwt>
<pdfrwt beam="2">0</pdfrwt>
<totfact> 0.18575187E+01</totfact>
</mgrwt>
</event>
<event>
 6    1  0.1904828E-004  0.3000000E+03  0.7818608E-02  0.1093470E+00
          3   -1    0    0  502    0  0.00000000000E+00  0.00000000000E+00  0.47077140980E+02  0.47077140980E+02  0.00000000000E+00 0.  1.
         13   -1    0    0    0    0 -0.00000000000E+00 -0.00000000000E+00 -0.10000000000E+04  0.10000000000E+04  0.00000000000E+00 0.  1.
    9000005    2    1    2  501    0  0.21133773971E+02  0.22951387031E+00 -0.96194029386E+03  0.10240988205E+04  0.35071723114E+03 0.  0.
         13    1    3    3    0    0 -0.14711783811E+03 -0.12066822092E+02 -0.67749302662E+03  0.69338738639E+03  0.00000000000E+00 0.  1.
          3    1    3    3  501    0  0.16825161208E+03  0.12296335962E+02 -0.28444726724E+03  0.33071143416E+03  0.00000000000E+00 0.  1.
         21    1    1    2  502  501 -0.21133773971E+02 -0.22951387031E+00  0.90174348365E+01  0.22978320433E+02  0.00000000000E+00 0. -1.
<mgrwt>
<rscale>  1 0.30000000E+03</rscale>
<asrwt>0</asrwt>
<pdfrwt beam="1">  1        3 0.17118996E+00 0.30000000E+03</pdfrwt>
<pdfrwt beam="2">0</pdfrwt>
<totfact> 0.46730232E-01</totfact>
</mgrwt>
</event>
<event>
 6    1  0.1904828E-004  0.3000000E+03  0.7818608E-02  0.1093470E+00
          1   -1    0    0  502    0  0.00000000000E+00  0.00000000000E+00  0.30269098648E+02  0.30269098648E+02  0.00000000000E+00 0.  1.
         13   -1    0    0    0    0 -0.00000000000E+00 -0.00000000000E+00 -0.10000000000E+04  0.10000000000E+04  0.00000000000E+00 0.  1.
    9000005    2    1    2  501    0 -0.10959127796E+02  0.33668396598E+01 -0.96866183843E+03  0.10187547169E+04  0.31531567976E+03 0.  0.
         13    1    3    3    0    0 -0.32280401091E+02  0.66959064810E+02 -0.94456596231E+03  0.94748635758E+03  0.00000000000E+00 0.  1.
          3    1    3    3  501    0  0.21321273295E+02 -0.63592225151E+02 -0.24095876118E+02  0.71268359322E+02  0.00000000000E+00 0.  1.
         21    1    1    2  502  501  0.10959127796E+02 -0.33668396598E+01 -0.10690629237E+01  0.11514381741E+02  0.00000000000E+00 0. -1.
<mgrwt>
<rscale>  1 0.30000000E+03</rscale>
<asrwt>0</asrwt>
<pdfrwt beam="1">  1        1 0.11006968E+00 0.30000000E+03</pdfrwt>
<pdfrwt beam="2">0</pdfrwt>
<totfact> 0.29681249E+01</totfact>
</mgrwt>
</event>
<event>
 6    1  0.1904828E-004  0.3000000E+03  0.7818608E-02  0.1093470E+00
          1   -1    0    0  502    0  0.00000000000E+00  0.00000000000E+00  0.59730371439E+02  0.59730371439E+02  0.00000000000E+00 0.  1.
         13   -1    0    0    0    0 -0.00000000000E+00 -0.00000000000E+00 -0.10000000000E+04  0.10000000000E+04  0.00000000000E+00 0.  1.
    9000005    2    1    2  501    0 -0.10426739949E+03 -0.62108349690E+02 -0.81150189948E+03  0.88278330096E+03  0.32564073132E+03 0.  0.
         13    1    3    3    0    0 -0.10639758691E+03 -0.14874360929E+03 -0.22516433649E+03  0.29007600078E+03  0.00000000000E+00 0.  1.
          1    1    3    3  501    0  0.21301874159E+01  0.86635259602E+02 -0.58633756299E+03  0.59270730017E+03  0.00000000000E+00 0.  1.
         21    1    1    2  502  501  0.10426739949E+03  0.62108349690E+02 -0.12876772908E+03  0.17694707048E+03  0.00000000000E+00 0.  1.
<mgrwt>
<rscale>  1 0.30000000E+03</rscale>
<asrwt>0</asrwt>
<pdfrwt beam="1">  1        1 0.21720181E+00 0.30000000E+03</pdfrwt>
<pdfrwt beam="2">0</pdfrwt>
<totfact> 0.84962208E+00</totfact>
</mgrwt>
</event>
<event>
 6    1  0.1904828E-004  0.3000000E+03  0.7818608E-02  0.1093470E+00
          1   -1    0    0  502    0  0.00000000000E+00  0.00000000000E+00  0.31711852834E+02  0.31711852834E+02  0.00000000000E+00 0.  1.
         13   -1    0    0    0    0 -0.00000000000E+00 -0.00000000000E+00 -0.10000000000E+04  0.10000000000E+04  0.00000000000E+00 0.  1.
    9000005    2    1    2  501    0  0.24804789529E+02 -0.20532631586E+02 -0.89170124598E+03  0.94863104894E+03  0.32207590468E+03 0.  0.
         13    1    3    3    0    0  0.33065881209E+02 -0.19380679786E+02  0.15535504122E+02  0.41355956492E+02  0.00000000000E+00 0.  1.
          3    1    3    3  501    0 -0.82610916795E+01 -0.11519517994E+01 -0.90723675011E+03  0.90727509245E+03  0.00000000000E+00 0.  1.
         21    1    1    2  502  501 -0.24804789529E+02  0.20532631586E+02 -0.76586901181E+02  0.83080803896E+02  0.00000000000E+00 0. -1.
<mgrwt>
<rscale>  1 0.30000000E+03</rscale>
<asrwt>0</asrwt>
<pdfrwt beam="1">  1        1 0.11531607E+00 0.30000000E+03</pdfrwt>
<pdfrwt beam="2">0</pdfrwt>
<totfact> 0.27649385E+01</totfact>
</mgrwt>
</event>
<event>
 6    1  0.1904828E-004  0.3000000E+03  0.7818608E-02  0.1093470E+00
          1   -1    0    0  502    0  0.00000000000E+00  0.00000000000E+00  0.28592713567E+02  0.28592713567E+02  0.00000000000E+00 0.  1.
         13   -1    0    0    0    0 -0.00000000000E+00 -0.00000000000E+00 -0.10000000000E+04  0.10000000000E+04  0.00000000000E+00 0.  1.
    9000005    2    1    2  501    0 -0.10494616522E+02  0.65557392942E+01 -0.94652816110E+03  0.10008062857E+04  0.32487620279E+03 0.  0.
         13    1    3    3    0    0 -0.12744554596E+02 -0.53129136461E+02 -0.22934512153E+01  0.54684446888E+02  0.00000000000E+00 0.  1.
          1    1    3    3  501    0  0.22499380735E+01  0.59684875755E+02 -0.94423470988E+03  0.94612183886E+03  0.00000000000E+00 0.  1.
         21    1    1    2  502  501  0.10494616522E+02 -0.65557392942E+01 -0.24879125334E+02  0.27786427821E+02  0.00000000000E+00 0. -1.
<mgrwt>
<rscale>  1 0.30000000E+03</rscale>
<asrwt>0</asrwt>
<pdfrwt beam="1">  1        1 0.10397372E+00 0.30000000E+03</pdfrwt>
<pdfrwt beam="2">0</pdfrwt>
<totfact> 0.32320027E+01</totfact>
</mgrwt>
</event>
<event>
 6    1  0.1904828E-004  0.3000000E+03  0.7818608E-02  0.1093470E+00
          1   -1    0    0  502    0  0.00000000000E+00  0.00000000000E+00  0.36391490746E+02  0.36391490746E+02  0.00000000000E+00 0.  1.
         13   -1    0    0    0    0 -0.00000000000E+00 -0.00000000000E+00 -0.10000000000E+04  0.10000000000E+04  0.00000000000E+00 0.  1.
    9000005    2    1    2  501    0 -0.10398414318E+02 -0.11880939218E+02 -0.96964761520E+03  0.10194872150E+04  0.31446526071E+03 0.  0.
         13    1    3    3    0    0  0.50451554874E+02  0.74975647567E+02 -0.86766088856E+03  0.87235435727E+03  0.00000000000E+00 0.  1.
          1    1    3    3  501    0 -0.60849969192E+02 -0.86856586785E+02 -0.10198672664E+03  0.14713285775E+03  0.00000000000E+00 0.  1.
         21    1    1    2  502  501  0.10398414318E+02  0.11880939218E+02  0.60391059484E+01  0.16904275722E+02  0.00000000000E+00 0.  1.
<mgrwt>
<rscale>  1 0.30000000E+03</rscale>
<asrwt>0</asrwt>
<pdfrwt beam="1">  1        1 0.13233297E+00 0.30000000E+03</pdfrwt>
<pdfrwt beam="2">0</pdfrwt>
<totfact> 0.22223141E+01</totfact>
</mgrwt>
</event>
<event>
 6    1  0.1904828E-004  0.3000000E+03  0.7818608E-02  0.1093470E+00
          1   -1    0    0  502    0  0.00000000000E+00  0.00000000000E+00  0.33035979083E+02  0.33035979083E+02  0.00000000000E+00 0.  1.
         13   -1    0    0    0    0 -0.00000000000E+00 -0.00000000000E+00 -0.10000000000E+04  0.10000000000E+04  0.00000000000E+00 0.  1.
    9000005    2    1    2  501    0 -0.55376508966E+01  0.37383287283E+02 -0.84815896764E+03  0.90836514677E+03  0.32299447322E+03 0.  0.
         13    1    3    3    0    0 -0.27832264495E+02  0.17904752503E+03 -0.44606008032E+03  0.48145845762E+03  0.00000000000E+00 0.  1.
          3    1    3    3  501    0  0.22294613599E+02 -0.14166423774E+03 -0.40209888732E+03  0.42690668915E+03  0.00000000000E+00 0.  1.
         21    1    1    2  502  501  0.55376508966E+01 -0.37383287283E+02 -0.11880505328E+03  0.12467083231E+03  0.00000000000E+00 0.  1.
<mgrwt>
<rscale>  1 0.30000000E+03</rscale>
<asrwt>0</asrwt>
<pdfrwt beam="1">  1        1 0.12013109E+00 0.30000000E+03</pdfrwt>
<pdfrwt beam="2">0</pdfrwt>
<totfact> 0.25951706E+01</totfact>
</mgrwt>
</event>
<event>
 6    1  0.1904828E-004  0.3000000E+03  0.7818608E-02  0.1093470E+00
          1   -1    0    0  502    0  0.00000000000E+00  0.00000000000E+00  0.48900664872E+02  0.48900664872E+02  0.00000000000E+00 0.  1.
         13   -1    0    0    0    0 -0.00000000000E+00 -0.00000000000E+00 -0.10000000000E+04  0.10000000000E+04  0.00000000000E+00 0.  1.
    9000005    2    1    2  501    0  0.26579889882E+02 -0.21545349771E+02 -0.96090484955E+03  0.10133079584E+04  0.31981900502E+03 0.  0.
         13    1    3    3    0    0  0.14164573088E+03  0.58655027525E+02 -0.70509948967E+03  0.72157412347E+03  0.00000000000E+00 0.  1.
          1    1    3    3  501    0 -0.11506584100E+03 -0.80200377296E+02 -0.25580535988E+03  0.29173383490E+03  0.00000000000E+00 0.  1.
         21    1    1    2  502  501 -0.26579889882E+02  0.21545349771E+02  0.98055144205E+01  0.35592706499E+02  0.00000000000E+00 0.  1.
<mgrwt>
<rscale>  1 0.30000000E+03</rscale>
<asrwt>0</asrwt>
<pdfrwt beam="1">  1        1 0.17782097E+00 0.30000000E+03</pdfrwt>
<pdfrwt beam="2">0</pdfrwt>
<totfact> 0.13088611E+01</totfact>
</mgrwt>
</event>
<event>
 6    1  0.1904828E-004  0.3000000E+03  0.7818608E-02  0.1093470E+00
          1   -1    0    0  502    0  0.00000000000E+00  0.00000000000E+00  0.28589451981E+02  0.28589451981E+02  0.00000000000E+00 0.  1.
         13   -1    0    0    0    0 -0.00000000000E+00 -0.00000000000E+00 -0.10000000000E+04  0.10000000000E+04  0.00000000000E+00 0.  1.
    9000005    2    1    2  501    0  0.49616637940E+01 -0.83085111843E+01 -0.96419130697E+03  0.10165160553E+04  0.32178620979E+03 0.  0.
         13    1    3    3    0    0 -0.11120424845E+03  0.99765358748E+02 -0.32129757196E+03  0.35433267056E+03  0.00000000000E+00 0.  1.
          3    1    3    3  501    0  0.11616591224E+03 -0.10807386993E+03 -0.64289373501E+03  0.66218338476E+03  0.00000000000E+00 0.  1.
         21    1    1    2  502  501 -0.49616637940E+01  0.83085111843E+01 -0.72192410460E+01  0.12073396663E+02  0.00000000000E+00 0.  1.
<mgrwt>
<rscale>  1 0.30000000E+03</rscale>
<asrwt>0</asrwt>
<pdfrwt beam="1">  1        1 0.10396186E+00 0.30000000E+03</pdfrwt>
<pdfrwt beam="2">0</pdfrwt>
<totfact> 0.32325486E+01</totfact>
</mgrwt>
</event>
<event>
 6    1  0.1904828E-004  0.3000000E+03  0.7818608E-02  0.1093470E+00
          1   -1    0    0  502    0  0.00000000000E+00  0.00000000000E+00  0.32722685882E+02  0.32722685882E+02  0.00000000000E+00 0.  1.
         13   -1    0    0    0    0 -0.00000000000E+00 -0.00000000000E+00 -0.10000000000E+04  0.10000000000E+04  0.00000000000E+00 0.  1.
    9000005    2    1    2  501    0  0.46541720347E+01  0.97072022886E+01 -0.94541508810E+03  0.10083536888E+04  0.35050189980E+03 0.  0.
         13    1    3    3    0    0 -0.11308898593E+02 -0.15505984794E+03 -0.66312440401E+03  0.68110602906E+03  0.00000000000E+00 0.  1.
          1    1    3    3  501    0  0.15963070627E+02  0.16476705022E+03 -0.28229068409E+03  0.32724765972E+03  0.00000000000E+00 0.  1.
         21    1    1    2  502  501 -0.46541720347E+01 -0.97072022886E+01 -0.21862226015E+02  0.24368997105E+02  0.00000000000E+00 0. -1.
<mgrwt>
<rscale>  1 0.30000000E+03</rscale>
<asrwt>0</asrwt>
<pdfrwt beam="1">  1        1 0.11899184E+00 0.30000000E+03</pdfrwt>
<pdfrwt beam="2">0</pdfrwt>
<totfact> 0.26340265E+01</totfact>
</mgrwt>
</event>
<event>
 6    1  0.1904828E-004  0.3000000E+03  0.7818608E-02  0.1093470E+00
          3   -1    0    0  502    0  0.00000000000E+00  0.00000000000E+00  0.33100036892E+02  0.33100036892E+02  0.00000000000E+00 0.  1.
         13   -1    0    0    0    0 -0.00000000000E+00 -0.00000000000E+00 -0.10000000000E+04  0.10000000000E+04  0.00000000000E+00 0.  1.
    9000005    2    1    2  501    0  0.10727785204E+02 -0.41995921027E+00 -0.96865977653E+03  0.10222207591E+04  0.32637134680E+03 0.  0.
         13    1    3    3    0    0  0.14211983474E+03  0.40882737833E+02 -0.74514665239E+03  0.75967952404E+03  0.00000000000E+00 0.  1.
          3    1    3    3  501    0 -0.13139204954E+03 -0.41302697044E+02 -0.22351312414E+03  0.26254123510E+03  0.00000000000E+00 0.  1.
         21    1    1    2  502  501 -0.10727785204E+02  0.41995921027E+00  0.17598134208E+01  0.10879277752E+02  0.00000000000E+00 0.  1.
<mgrwt>
<rscale>  1 0.30000000E+03</rscale>
<asrwt>0</asrwt>
<pdfrwt beam="1">  1        3 0.12036402E+00 0.30000000E+03</pdfrwt>
<pdfrwt beam="2">0</pdfrwt>
<totfact> 0.22906154E+00</totfact>
</mgrwt>
</event>
<event>
 6    1  0.1904828E-004  0.3000000E+03  0.7818608E-02  0.1093470E+00
          1   -1    0    0  502    0  0.00000000000E+00  0.00000000000E+00  0.43532892898E+02  0.43532892898E+02  0.00000000000E+00 0.  1.
         13   -1    0    0    0    0 -0.00000000000E+00 -0.00000000000E+00 -0.10000000000E+04  0.10000000000E+04  0.00000000000E+00 0.  1.
    9000005    2    1    2  501    0 -0.10996016741E+02  0.38814098946E+02 -0.94404865770E+03  0.10013231245E+04  0.33134979241E+03 0.  0.
         13    1    3    3    0    0  0.79625796788E+02 -0.11560887839E+03 -0.27535115895E+03  0.30906947603E+03  0.00000000000E+00 0.  1.
          3    1    3    3  501    0 -0.90621813529E+02  0.15442297733E+03 -0.66869749875E+03  0.69225364849E+03  0.00000000000E+00 0.  1.
         21    1    1    2  502  501  0.10996016741E+02 -0.38814098946E+02 -0.12418449401E+02  0.42209768380E+02  0.00000000000E+00 0.  1.
<mgrwt>
<rscale>  1 0.30000000E+03</rscale>
<asrwt>0</asrwt>
<pdfrwt beam="1">  1        1 0.15830176E+00 0.30000000E+03</pdfrwt>
<pdfrwt beam="2">0</pdfrwt>
<totfact> 0.16317477E+01</totfact>
</mgrwt>
</event>
<event>
 6    1  0.1904828E-004  0.3000000E+03  0.7818608E-02  0.1093470E+00
          1   -1    0    0  502    0  0.00000000000E+00  0.00000000000E+00  0.56260539282E+02  0.56260539282E+02  0.00000000000E+00 0.  1.
         13   -1    0    0    0    0 -0.00000000000E+00 -0.00000000000E+00 -0.10000000000E+04  0.10000000000E+04  0.00000000000E+00 0.  1.
    9000005    2    1    2  501    0  0.30738417199E+02  0.35519604252E+02 -0.95091172356E+03  0.10087428170E+04  0.33335037459E+03 0.  0.
         13    1    3    3    0    0  0.35052494069E+02  0.77363270578E+02 -0.96159765391E+03  0.96534128731E+03  0.00000000000E+00 0.  1.
          3    1    3    3  501    0 -0.43140768707E+01 -0.41843666325E+02  0.10685930352E+02  0.43401529677E+02  0.00000000000E+00 0.  1.
         21    1    1    2  502  501 -0.30738417199E+02 -0.35519604252E+02  0.71722628400E+01  0.47517722298E+02  0.00000000000E+00 0. -1.
<mgrwt>
<rscale>  1 0.30000000E+03</rscale>
<asrwt>0</asrwt>
<pdfrwt beam="1">  1        1 0.20458421E+00 0.30000000E+03</pdfrwt>
<pdfrwt beam="2">0</pdfrwt>
<totfact> 0.97428536E+00</totfact>
</mgrwt>
</event>
<event>
 6    1  0.1904828E-004  0.3000000E+03  0.7818608E-02  0.1093470E+00
          1   -1    0    0  502    0  0.00000000000E+00  0.00000000000E+00  0.42248639956E+02  0.42248639956E+02  0.00000000000E+00 0.  1.
         13   -1    0    0    0    0 -0.00000000000E+00 -0.00000000000E+00 -0.10000000000E+04  0.10000000000E+04  0.00000000000E+00 0.  1.
    9000005    2    1    2  501    0  0.13132120299E+02  0.30447041333E+02 -0.94231148354E+03  0.10056718072E+04  0.34975044937E+03 0.  0.
         13    1    3    3    0    0  0.66507858456E+02 -0.94798669019E+02 -0.80144017650E+03  0.80976319958E+03  0.00000000000E+00 0.  1.
          3    1    3    3  501    0 -0.53375738157E+02  0.12524571035E+03 -0.14087130704E+03  0.19590860760E+03  0.00000000000E+00 0.  1.
         21    1    1    2  502  501 -0.13132120299E+02 -0.30447041333E+02 -0.15439876505E+02  0.36576832776E+02  0.00000000000E+00 0. -1.
<mgrwt>
<rscale>  1 0.30000000E+03</rscale>
<asrwt>0</asrwt>
<pdfrwt beam="1">  1        1 0.15363174E+00 0.30000000E+03</pdfrwt>
<pdfrwt beam="2">0</pdfrwt>
<totfact> 0.17220611E+01</totfact>
</mgrwt>
</event>
<event>
 6    1  0.1904828E-004  0.3000000E+03  0.7818608E-02  0.1093470E+00
          1   -1    0    0  502    0  0.00000000000E+00  0.00000000000E+00  0.20464208643E+02  0.20464208643E+02  0.00000000000E+00 0.  1.
         13   -1    0    0    0    0 -0.00000000000E+00 -0.00000000000E+00 -0.10000000000E+04  0.10000000000E+04  0.00000000000E+00 0.  1.
    9000005    2    1    2  501    0  0.66497518568E+01  0.91078382806E+01 -0.94894823582E+03  0.98786404804E+03  0.27430904327E+03 0.  0.
         13    1    3    3    0    0  0.44499088299E+01 -0.95069557183E+02 -0.80252587760E+03  0.80814961895E+03  0.00000000000E+00 0.  1.
          1    1    3    3  501    0  0.21998430269E+01  0.10417739546E+03 -0.14642235822E+03  0.17971442909E+03  0.00000000000E+00 0.  1.
         21    1    1    2  502  501 -0.66497518568E+01 -0.91078382806E+01 -0.30587555533E+02  0.32600160604E+02  0.00000000000E+00 0. -1.
<mgrwt>
<rscale>  1 0.30000000E+03</rscale>
<asrwt>0</asrwt>
<pdfrwt beam="1">  1        1 0.74415461E-01 0.30000000E+03</pdfrwt>
<pdfrwt beam="2">0</pdfrwt>
<totfact> 0.51877527E+01</totfact>
</mgrwt>
</event>
<event>
 6    1  0.1904828E-004  0.3000000E+03  0.7818608E-02  0.1093470E+00
          1   -1    0    0  502    0  0.00000000000E+00  0.00000000000E+00  0.59040338029E+02  0.59040338029E+02  0.00000000000E+00 0.  1.
         13   -1    0    0    0    0 -0.00000000000E+00 -0.00000000000E+00 -0.10000000000E+04  0.10000000000E+04  0.00000000000E+00 0.  1.
    9000005    2    1    2  501    0 -0.34072067615E+02  0.30211933108E+01 -0.96176350495E+03  0.10190049377E+04  0.33498058167E+03 0.  0.
         13    1    3    3    0    0  0.14460804628E+03  0.25343006557E+02 -0.55645785660E+03  0.57549900192E+03  0.00000000000E+00 0.  1.
          3    1    3    3  501    0 -0.17868011389E+03 -0.22321813246E+02 -0.40530564835E+03  0.44350593573E+03  0.00000000000E+00 0.  1.
         21    1    1    2  502  501  0.34072067615E+02 -0.30211933108E+01  0.20803842982E+02  0.40035400378E+02  0.00000000000E+00 0.  1.
<mgrwt>
<rscale>  1 0.30000000E+03</rscale>
<asrwt>0</asrwt>
<pdfrwt beam="1">  1        1 0.21469259E+00 0.30000000E+03</pdfrwt>
<pdfrwt beam="2">0</pdfrwt>
<totfact> 0.87299312E+00</totfact>
</mgrwt>
</event>
<event>
 6    1  0.1904828E-004  0.3000000E+03  0.7818608E-02  0.1093470E+00
          1   -1    0    0  502    0  0.00000000000E+00  0.00000000000E+00  0.29770587399E+02  0.29770587399E+02  0.00000000000E+00 0.  1.
         13   -1    0    0    0    0 -0.00000000000E+00 -0.00000000000E+00 -0.10000000000E+04  0.10000000000E+04  0.00000000000E+00 0.  1.
    9000005    2    1    2  501    0 -0.22739106116E+02  0.13273362060E+02 -0.91218097870E+03  0.96602994286E+03  0.31693290066E+03 0.  0.
         13    1    3    3    0    0  0.48454694320E+02  0.95240343367E+02 -0.99115609302E+02  0.14574801684E+03  0.00000000000E+00 0.  1.
          3    1    3    3  501    0 -0.71193800436E+02 -0.81966981307E+02 -0.81306536939E+03  0.82028192602E+03  0.00000000000E+00 0.  1.
         21    1    1    2  502  501  0.22739106116E+02 -0.13273362060E+02 -0.58048433904E+02  0.63740644538E+02  0.00000000000E+00 0.  1.
<mgrwt>
<rscale>  1 0.30000000E+03</rscale>
<asrwt>0</asrwt>
<pdfrwt beam="1">  1        1 0.10825691E+00 0.30000000E+03</pdfrwt>
<pdfrwt beam="2">0</pdfrwt>
<totfact> 0.30432652E+01</totfact>
</mgrwt>
</event>
<event>
 6    1  0.1904828E-004  0.3000000E+03  0.7818608E-02  0.1093470E+00
          1   -1    0    0  502    0  0.00000000000E+00  0.00000000000E+00  0.45787056182E+02  0.45787056182E+02  0.00000000000E+00 0.  1.
         13   -1    0    0    0    0 -0.00000000000E+00 -0.00000000000E+00 -0.10000000000E+04  0.10000000000E+04  0.00000000000E+00 0.  1.
    9000005    2    1    2  501    0 -0.16764336301E+02 -0.23619102442E+02 -0.96171823929E+03  0.10158665877E+04  0.32595098916E+03 0.  0.
         13    1    3    3    0    0  0.28723004472E+02  0.11587424004E+03 -0.15360309824E+03  0.19453987324E+03  0.00000000000E+00 0.  1.
          1    1    3    3  501    0 -0.45487340774E+02 -0.13949334248E+03 -0.80811514104E+03  0.82132671450E+03  0.00000000000E+00 0.  1.
         21    1    1    2  502  501  0.16764336301E+02  0.23619102442E+02  0.75052954689E+01  0.29920468443E+02  0.00000000000E+00 0.  1.
<mgrwt>
<rscale>  1 0.30000000E+03</rscale>
<asrwt>0</asrwt>
<pdfrwt beam="1">  1        1 0.16649874E+00 0.30000000E+03</pdfrwt>
<pdfrwt beam="2">0</pdfrwt>
<totfact> 0.14862872E+01</totfact>
</mgrwt>
</event>
<event>
 6    1  0.1904828E-004  0.3000000E+03  0.7818608E-02  0.1093470E+00
          1   -1    0    0  502    0  0.00000000000E+00  0.00000000000E+00  0.33291490356E+02  0.33291490356E+02  0.00000000000E+00 0.  1.
         13   -1    0    0    0    0 -0.00000000000E+00 -0.00000000000E+00 -0.10000000000E+04  0.10000000000E+04  0.00000000000E+00 0.  1.
    9000005    2    1    2  501    0 -0.83885140017E+01 -0.13962035895E+02 -0.96310755102E+03  0.10166099881E+04  0.32504523920E+03 0.  0.
         13    1    3    3    0    0  0.96554475164E+01 -0.12449728382E+01 -0.98527654896E+03  0.98532464476E+03  0.00000000000E+00 0.  1.
          3    1    3    3  501    0 -0.18043961518E+02 -0.12717063057E+02  0.22168997947E+02  0.31285343374E+02  0.00000000000E+00 0.  1.
         21    1    1    2  502  501  0.83885140017E+01  0.13962035895E+02 -0.36009586271E+01  0.16681502226E+02  0.00000000000E+00 0. -1.
<mgrwt>
<rscale>  1 0.30000000E+03</rscale>
<asrwt>0</asrwt>
<pdfrwt beam="1">  1        1 0.12106022E+00 0.30000000E+03</pdfrwt>
<pdfrwt beam="2">0</pdfrwt>
<totfact> 0.25640474E+01</totfact>
</mgrwt>
</event>
<event>
 6    1  0.1904828E-004  0.3000000E+03  0.7818608E-02  0.1093470E+00
          1   -1    0    0  502    0  0.00000000000E+00  0.00000000000E+00  0.38344302104E+02  0.38344302104E+02  0.00000000000E+00 0.  1.
         13   -1    0    0    0    0 -0.00000000000E+00 -0.00000000000E+00 -0.10000000000E+04  0.10000000000E+04  0.00000000000E+00 0.  1.
    9000005    2    1    2  501    0  0.21676594140E+02  0.98881620519E+01 -0.95903442346E+03  0.10143751227E+04  0.32960918322E+03 0.  0.
         13    1    3    3    0    0 -0.10662008588E+03 -0.65607160000E+02 -0.73374217761E+03  0.74434516547E+03  0.00000000000E+00 0.  1.
          3    1    3    3  501    0  0.12829668002E+03  0.75495322052E+02 -0.22529224585E+03  0.27002995722E+03  0.00000000000E+00 0.  1.
         21    1    1    2  502  501 -0.21676594140E+02 -0.98881620519E+01 -0.26212744362E+01  0.23969179417E+02  0.00000000000E+00 0.  1.
<mgrwt>
<rscale>  1 0.30000000E+03</rscale>
<asrwt>0</asrwt>
<pdfrwt beam="1">  1        1 0.13943412E+00 0.30000000E+03</pdfrwt>
<pdfrwt beam="2">0</pdfrwt>
<totfact> 0.20371072E+01</totfact>
</mgrwt>
</event>
<event>
 6    1  0.1904828E-004  0.3000000E+03  0.7818608E-02  0.1093470E+00
          1   -1    0    0  502    0  0.00000000000E+00  0.00000000000E+00  0.46396790191E+02  0.46396790191E+02  0.00000000000E+00 0.  1.
         13   -1    0    0    0    0 -0.00000000000E+00 -0.00000000000E+00 -0.10000000000E+04  0.10000000000E+04  0.00000000000E+00 0.  1.
    9000005    2    1    2  501    0  0.25389281739E+02  0.22924795805E+02 -0.95701994282E+03  0.10120189492E+04  0.32729958844E+03 0.  0.
         13    1    3    3    0    0  0.13676177057E+03 -0.53630145483E+02 -0.75368725909E+03  0.76787007944E+03  0.00000000000E+00 0.  1.
          1    1    3    3  501    0 -0.11137248883E+03  0.76554941288E+02 -0.20333268374E+03  0.24414886971E+03  0.00000000000E+00 0.  1.
         21    1    1    2  502  501 -0.25389281739E+02 -0.22924795805E+02  0.34167330154E+01  0.34377841038E+02  0.00000000000E+00 0.  1.
<mgrwt>
<rscale>  1 0.30000000E+03</rscale>
<asrwt>0</asrwt>
<pdfrwt beam="1">  1        1 0.16871596E+00 0.30000000E+03</pdfrwt>
<pdfrwt beam="2">0</pdfrwt>
<totfact> 0.14495337E+01</totfact>
</mgrwt>
</event>
<event>
 6    1  0.1904828E-004  0.3000000E+03  0.7818608E-02  0.1093470E+00
          1   -1    0    0  502    0  0.00000000000E+00  0.00000000000E+00  0.31363886228E+02  0.31363886228E+02  0.00000000000E+00 0.  1.
         13   -1    0    0    0    0 -0.00000000000E+00 -0.00000000000E+00 -0.10000000000E+04  0.10000000000E+04  0.00000000000E+00 0.  1.
    9000005    2    1    2  501    0  0.12673379492E+02 -0.11849188317E+02 -0.95265408018E+03  0.10077748377E+04  0.32826713094E+03 0.  0.
         13    1    3    3    0    0 -0.12838045132E+03 -0.54221256441E+02 -0.21971750688E+03  0.26018698615E+03  0.00000000000E+00 0.  1.
          1    1    3    3  501    0  0.14105383081E+03  0.42372068124E+02 -0.73293657330E+03  0.74758785157E+03  0.00000000000E+00 0.  1.
         21    1    1    2  502  501 -0.12673379492E+02  0.11849188317E+02 -0.15982033595E+02  0.23589048505E+02  0.00000000000E+00 0. -1.
<mgrwt>
<rscale>  1 0.30000000E+03</rscale>
<asrwt>0</asrwt>
<pdfrwt beam="1">  1        1 0.11405074E+00 0.30000000E+03</pdfrwt>
<pdfrwt beam="2">0</pdfrwt>
<totfact> 0.28120941E+01</totfact>
</mgrwt>
</event>
<event>
 6    1  0.1904828E-004  0.3000000E+03  0.7818608E-02  0.1093470E+00
          1   -1    0    0  502    0  0.00000000000E+00  0.00000000000E+00  0.29272835009E+02  0.29272835009E+02  0.00000000000E+00 0.  1.
         13   -1    0    0    0    0 -0.00000000000E+00 -0.00000000000E+00 -0.10000000000E+04  0.10000000000E+04  0.00000000000E+00 0.  1.
    9000005    2    1    2  501    0 -0.10283530379E+02  0.41724128793E+01 -0.95791156236E+03  0.10123199681E+04  0.32722163199E+03 0.  0.
         13    1    3    3    0    0 -0.66431316390E+02  0.72458253751E+02 -0.90281512751E+03  0.90815112883E+03  0.00000000000E+00 0.  1.
          1    1    3    3  501    0  0.56147786011E+02 -0.68285840872E+02 -0.55096434850E+02  0.10416883925E+03  0.00000000000E+00 0.  1.
         21    1    1    2  502  501  0.10283530379E+02 -0.41724128793E+01 -0.12815602626E+02  0.16952866925E+02  0.00000000000E+00 0. -1.
<mgrwt>
<rscale>  1 0.30000000E+03</rscale>
<asrwt>0</asrwt>
<pdfrwt beam="1">  1        1 0.10644690E+00 0.30000000E+03</pdfrwt>
<pdfrwt beam="2">0</pdfrwt>
<totfact> 0.31210334E+01</totfact>
</mgrwt>
</event>
<event>
 6    1  0.1904828E-004  0.3000000E+03  0.7818608E-02  0.1093470E+00
          1   -1    0    0  502    0  0.00000000000E+00  0.00000000000E+00  0.30660256716E+02  0.30660256716E+02  0.00000000000E+00 0.  1.
         13   -1    0    0    0    0 -0.00000000000E+00 -0.00000000000E+00 -0.10000000000E+04  0.10000000000E+04  0.00000000000E+00 0.  1.
    9000005    2    1    2  501    0  0.84031175837E+01  0.13191079810E+02 -0.95457632007E+03  0.10091526851E+04  0.32699934869E+03 0.  0.
         13    1    3    3    0    0  0.18650828961E+02 -0.13118556565E+03 -0.73032263461E+03  0.74224568485E+03  0.00000000000E+00 0.  1.
          3    1    3    3  501    0 -0.10247711378E+02  0.14437664546E+03 -0.22425368546E+03  0.26690700026E+03  0.00000000000E+00 0.  1.
         21    1    1    2  502  501 -0.84031175837E+01 -0.13191079810E+02 -0.14763423210E+02  0.21507571610E+02  0.00000000000E+00 0.  1.
<mgrwt>
<rscale>  1 0.30000000E+03</rscale>
<asrwt>0</asrwt>
<pdfrwt beam="1">  1        1 0.11149208E+00 0.30000000E+03</pdfrwt>
<pdfrwt beam="2">0</pdfrwt>
<totfact> 0.29109976E+01</totfact>
</mgrwt>
</event>
<event>
 6    1  0.1904828E-004  0.3000000E+03  0.7818608E-02  0.1093470E+00
          1   -1    0    0  502    0  0.00000000000E+00  0.00000000000E+00  0.30253750920E+02  0.30253750920E+02  0.00000000000E+00 0.  1.
         13   -1    0    0    0    0 -0.00000000000E+00 -0.00000000000E+00 -0.10000000000E+04  0.10000000000E+04  0.00000000000E+00 0.  1.
    9000005    2    1    2  501    0  0.40549634237E+01 -0.13312527276E+02 -0.96157236059E+03  0.10141144026E+04  0.32188965628E+03 0.  0.
         13    1    3    3    0    0  0.18668856820E+02 -0.45246359243E+02 -0.97521218423E+03  0.97643973880E+03  0.00000000000E+00 0.  1.
          3    1    3    3  501    0 -0.14613893396E+02  0.31933831967E+02  0.13639823638E+02  0.37674663810E+02  0.00000000000E+00 0.  1.
         21    1    1    2  502  501 -0.40549634237E+01  0.13312527276E+02 -0.81738884875E+01  0.16139348309E+02  0.00000000000E+00 0.  1.
<mgrwt>
<rscale>  1 0.30000000E+03</rscale>
<asrwt>0</asrwt>
<pdfrwt beam="1">  1        1 0.11001387E+00 0.30000000E+03</pdfrwt>
<pdfrwt beam="2">0</pdfrwt>
<totfact> 0.29703986E+01</totfact>
</mgrwt>
</event>
<event>
 6    1  0.1904828E-004  0.3000000E+03  0.7818608E-02  0.1093470E+00
          1   -1    0    0  502    0  0.00000000000E+00  0.00000000000E+00  0.29565016089E+02  0.29565016089E+02  0.00000000000E+00 0.  1.
         13   -1    0    0    0    0 -0.00000000000E+00 -0.00000000000E+00 -0.10000000000E+04  0.10000000000E+04  0.00000000000E+00 0.  1.
    9000005    2    1    2  501    0  0.11082864915E+02 -0.12188318056E+01 -0.92416774100E+03  0.98197328139E+03  0.33175472325E+03 0.  0.
         13    1    3    3    0    0 -0.44324202761E+02 -0.31395689633E+02 -0.91685102153E+03  0.91845855647E+03  0.00000000000E+00 0.  1.
          1    1    3    3  501    0  0.55407067675E+02  0.30176857827E+02 -0.73167194705E+01  0.63514724911E+02  0.00000000000E+00 0.  1.
         21    1    1    2  502  501 -0.11082864915E+02  0.12188318056E+01 -0.46267242909E+02  0.47591734703E+02  0.00000000000E+00 0.  1.
<mgrwt>
<rscale>  1 0.30000000E+03</rscale>
<asrwt>0</asrwt>
<pdfrwt beam="1">  1        1 0.10750938E+00 0.30000000E+03</pdfrwt>
<pdfrwt beam="2">0</pdfrwt>
<totfact> 0.30750428E+01</totfact>
</mgrwt>
</event>
<event>
 6    1  0.1904828E-004  0.3000000E+03  0.7818608E-02  0.1093470E+00
          1   -1    0    0  502    0  0.00000000000E+00  0.00000000000E+00  0.39283423677E+02  0.39283423677E+02  0.00000000000E+00 0.  1.
         13   -1    0    0    0    0 -0.00000000000E+00 -0.00000000000E+00 -0.10000000000E+04  0.10000000000E+04  0.00000000000E+00 0.  1.
    9000005    2    1    2  501    0 -0.83380312046E+01 -0.29339230833E+02 -0.94556352617E+03  0.10052257056E+04  0.33979114760E+03 0.  0.
         13    1    3    3    0    0 -0.12674753513E+03  0.52838327046E+02 -0.18100156615E+03  0.22719681647E+03  0.00000000000E+00 0.  1.
          3    1    3    3  501    0  0.11840950393E+03 -0.82177557879E+02 -0.76456196002E+03  0.77802888915E+03  0.00000000000E+00 0.  1.
         21    1    1    2  502  501  0.83380312046E+01  0.29339230833E+02 -0.15153050156E+02  0.34057718058E+02  0.00000000000E+00 0.  1.
<mgrwt>
<rscale>  1 0.30000000E+03</rscale>
<asrwt>0</asrwt>
<pdfrwt beam="1">  1        1 0.14284911E+00 0.30000000E+03</pdfrwt>
<pdfrwt beam="2">0</pdfrwt>
<totfact> 0.19551193E+01</totfact>
</mgrwt>
</event>
<event>
 6    1  0.1904828E-004  0.3000000E+03  0.7818608E-02  0.1093470E+00
          1   -1    0    0  502    0  0.00000000000E+00  0.00000000000E+00  0.37213043894E+02  0.37213043894E+02  0.00000000000E+00 0.  1.
         13   -1    0    0    0    0 -0.00000000000E+00 -0.00000000000E+00 -0.10000000000E+04  0.10000000000E+04  0.00000000000E+00 0.  1.
    9000005    2    1    2  501    0  0.15951841517E+02  0.25495769971E+02 -0.94024515115E+03  0.99962809338E+03  0.33806934982E+03 0.  0.
         13    1    3    3    0    0 -0.10690661936E+03  0.11981425628E+03 -0.29307922050E+03  0.33418544367E+03  0.00000000000E+00 0.  1.
          3    1    3    3  501    0  0.12285846088E+03 -0.94318486309E+02 -0.64716593064E+03  0.66544264971E+03  0.00000000000E+00 0.  1.
         21    1    1    2  502  501 -0.15951841517E+02 -0.25495769971E+02 -0.22541804961E+02  0.37584950513E+02  0.00000000000E+00 0.  1.
<mgrwt>
<rscale>  1 0.30000000E+03</rscale>
<asrwt>0</asrwt>
<pdfrwt beam="1">  1        1 0.13532044E+00 0.30000000E+03</pdfrwt>
<pdfrwt beam="2">0</pdfrwt>
<totfact> 0.21418023E+01</totfact>
</mgrwt>
</event>
<event>
 6    1  0.1904828E-004  0.3000000E+03  0.7818608E-02  0.1093470E+00
          1   -1    0    0  502    0  0.00000000000E+00  0.00000000000E+00  0.40079456037E+02  0.40079456037E+02  0.00000000000E+00 0.  1.
         13   -1    0    0    0    0 -0.00000000000E+00 -0.00000000000E+00 -0.10000000000E+04  0.10000000000E+04  0.00000000000E+00 0.  1.
    9000005    2    1    2  501    0  0.40128664728E+02 -0.41299762910E+02 -0.88352245457E+03  0.94440998226E+03  0.32860661393E+03 0.  0.
         13    1    3    3    0    0 -0.11052471160E+03  0.59395762662E+02 -0.19065506259E+03  0.22823873770E+03  0.00000000000E+00 0.  1.
          3    1    3    3  501    0  0.15065337633E+03 -0.10069552557E+03 -0.69286739198E+03  0.71617124456E+03  0.00000000000E+00 0.  1.
         21    1    1    2  502  501 -0.40128664728E+02  0.41299762910E+02 -0.76398089391E+02  0.95669473773E+02  0.00000000000E+00 0. -1.
<mgrwt>
<rscale>  1 0.30000000E+03</rscale>
<asrwt>0</asrwt>
<pdfrwt beam="1">  1        1 0.14574378E+00 0.30000000E+03</pdfrwt>
<pdfrwt beam="2">0</pdfrwt>
<totfact> 0.18888705E+01</totfact>
</mgrwt>
</event>
<event>
 6    1  0.1904828E-004  0.3000000E+03  0.7818608E-02  0.1093470E+00
          1   -1    0    0  502    0  0.00000000000E+00  0.00000000000E+00  0.34685180827E+02  0.34685180827E+02  0.00000000000E+00 0.  1.
         13   -1    0    0    0    0 -0.00000000000E+00 -0.00000000000E+00 -0.10000000000E+04  0.10000000000E+04  0.00000000000E+00 0.  1.
    9000005    2    1    2  501    0  0.16894596146E+02 -0.11701891533E+02 -0.96034393196E+03  0.10135411187E+04  0.32339259417E+03 0.  0.
         13    1    3    3    0    0 -0.13286538789E+03  0.62944314995E+02 -0.57374515715E+03  0.59228262125E+03  0.00000000000E+00 0.  1.
          3    1    3    3  501    0  0.14975998404E+03 -0.74646206528E+02 -0.38659877481E+03  0.42125849743E+03  0.00000000000E+00 0.  1.
         21    1    1    2  502  501 -0.16894596146E+02  0.11701891533E+02 -0.49708872167E+01  0.21144062148E+02  0.00000000000E+00 0.  1.
<mgrwt>
<rscale>  1 0.30000000E+03</rscale>
<asrwt>0</asrwt>
<pdfrwt beam="1">  1        1 0.12612820E+00 0.30000000E+03</pdfrwt>
<pdfrwt beam="2">0</pdfrwt>
<totfact> 0.24026131E+01</totfact>
</mgrwt>
</event>
<event>
 6    1  0.1904828E-004  0.3000000E+03  0.7818608E-02  0.1093470E+00
          1   -1    0    0  502    0  0.00000000000E+00  0.00000000000E+00  0.63387257282E+02  0.63387257282E+02  0.00000000000E+00 0.  1.
         13   -1    0    0    0    0 -0.00000000000E+00 -0.00000000000E+00 -0.10000000000E+04  0.10000000000E+04  0.00000000000E+00 0.  1.
    9000005    2    1    2  501    0 -0.23582162015E+02  0.54768579438E+02 -0.94549318358E+03  0.10030997968E+04  0.32969095609E+03 0.  0.
         13    1    3    3    0    0 -0.17275205856E+03  0.47962718045E+02 -0.61159707334E+03  0.63733403814E+03  0.00000000000E+00 0.  1.
          1    1    3    3  501    0  0.14916989655E+03  0.68058613932E+01 -0.33389611024E+03  0.36576575868E+03  0.00000000000E+00 0.  1.
         21    1    1    2  502  501  0.23582162015E+02 -0.54768579438E+02  0.88804408627E+01  0.60287460462E+02  0.00000000000E+00 0.  1.
<mgrwt>
<rscale>  1 0.30000000E+03</rscale>
<asrwt>0</asrwt>
<pdfrwt beam="1">  1        1 0.23049960E+00 0.30000000E+03</pdfrwt>
<pdfrwt beam="2">0</pdfrwt>
<totfact> 0.73606723E+00</totfact>
</mgrwt>
</event>
<event>
 6    1  0.1904828E-004  0.3000000E+03  0.7818608E-02  0.1093470E+00
          1   -1    0    0  502    0  0.00000000000E+00  0.00000000000E+00  0.32080005100E+02  0.32080005100E+02  0.00000000000E+00 0.  1.
         13   -1    0    0    0    0 -0.00000000000E+00 -0.00000000000E+00 -0.10000000000E+04  0.10000000000E+04  0.00000000000E+00 0.  1.
    9000005    2    1    2  501    0 -0.10674604139E+02 -0.95782993612E+01 -0.96716375045E+03  0.10177181494E+04  0.31644718442E+03 0.  0.
         13    1    3    3    0    0  0.14992428249E+03 -0.34564856799E+02 -0.44532228713E+03  0.47115173693E+03  0.00000000000E+00 0.  1.
          1    1    3    3  501    0 -0.16059888663E+03  0.24986557437E+02 -0.52184146333E+03  0.54656641251E+03  0.00000000000E+00 0.  1.
         21    1    1    2  502  501  0.10674604139E+02  0.95782993612E+01 -0.75624444635E+00  0.14361855654E+02  0.00000000000E+00 0. -1.
<mgrwt>
<rscale>  1 0.30000000E+03</rscale>
<asrwt>0</asrwt>
<pdfrwt beam="1">  1        1 0.11665481E+00 0.30000000E+03</pdfrwt>
<pdfrwt beam="2">0</pdfrwt>
<totfact> 0.27162427E+01</totfact>
</mgrwt>
</event>
<event>
 6    1  0.1904828E-004  0.3000000E+03  0.7818608E-02  0.1093470E+00
          1   -1    0    0  502    0  0.00000000000E+00  0.00000000000E+00  0.47109616554E+02  0.47109616554E+02  0.00000000000E+00 0.  1.
         13   -1    0    0    0    0 -0.00000000000E+00 -0.00000000000E+00 -0.10000000000E+04  0.10000000000E+04  0.00000000000E+00 0.  1.
    9000005    2    1    2  501    0 -0.36791875663E+01 -0.13329869526E+02 -0.97099276290E+03  0.10243298452E+04  0.32593475456E+03 0.  0.
         13    1    3    3    0    0 -0.82595005034E+02 -0.14697030020E+03 -0.56771294088E+03  0.59221633483E+03  0.00000000000E+00 0.  1.
          1    1    3    3  501    0  0.78915817467E+02  0.13364043067E+03 -0.40327982203E+03  0.43211351033E+03  0.00000000000E+00 0.  1.
         21    1    1    2  502  501  0.36791875663E+01  0.13329869526E+02  0.18102379459E+02  0.22779771395E+02  0.00000000000E+00 0.  1.
<mgrwt>
<rscale>  1 0.30000000E+03</rscale>
<asrwt>0</asrwt>
<pdfrwt beam="1">  1        1 0.17130806E+00 0.30000000E+03</pdfrwt>
<pdfrwt beam="2">0</pdfrwt>
<totfact> 0.14078605E+01</totfact>
</mgrwt>
</event>
<event>
 6    1  0.1904828E-004  0.3000000E+03  0.7818608E-02  0.1093470E+00
          1   -1    0    0  502    0  0.00000000000E+00  0.00000000000E+00  0.30522303961E+02  0.30522303961E+02  0.00000000000E+00 0.  1.
         13   -1    0    0    0    0 -0.00000000000E+00 -0.00000000000E+00 -0.10000000000E+04  0.10000000000E+04  0.00000000000E+00 0.  1.
    9000005    2    1    2  501    0 -0.13836732245E+02  0.34474214510E+01 -0.96091785547E+03  0.10138906851E+04  0.32312204596E+03 0.  0.
         13    1    3    3    0    0 -0.78235453028E+02  0.14402823065E+03 -0.58192127103E+03  0.60456371295E+03  0.00000000000E+00 0.  1.
          3    1    3    3  501    0  0.64398720783E+02 -0.14058080919E+03 -0.37899658443E+03  0.40932697219E+03  0.00000000000E+00 0.  1.
         21    1    1    2  502  501  0.13836732245E+02 -0.34474214510E+01 -0.85598405697E+01  0.16631618816E+02  0.00000000000E+00 0.  1.
<mgrwt>
<rscale>  1 0.30000000E+03</rscale>
<asrwt>0</asrwt>
<pdfrwt beam="1">  1        1 0.11099043E+00 0.30000000E+03</pdfrwt>
<pdfrwt beam="2">0</pdfrwt>
<totfact> 0.29309661E+01</totfact>
</mgrwt>
</event>
<event>
 6    1  0.1904828E-004  0.3000000E+03  0.7818608E-02  0.1093470E+00
          1   -1    0    0  502    0  0.00000000000E+00  0.00000000000E+00  0.27739589965E+02  0.27739589965E+02  0.00000000000E+00 0.  1.
         13   -1    0    0    0    0 -0.00000000000E+00 -0.00000000000E+00 -0.10000000000E+04  0.10000000000E+04  0.00000000000E+00 0.  1.
    9000005    2    1    2  501    0  0.19852485814E+02 -0.37174826730E+01 -0.89898983705E+03  0.95173618388E+03  0.31178693963E+03 0.  0.
         13    1    3    3    0    0 -0.16231260961E+02 -0.10318343723E+03 -0.96196908746E+02  0.14200042536E+03  0.00000000000E+00 0.  1.
          3    1    3    3  501    0  0.36083746775E+02  0.99465954552E+02 -0.80279292830E+03  0.80973575852E+03  0.00000000000E+00 0.  1.
         21    1    1    2  502  501 -0.19852485814E+02  0.37174826730E+01 -0.73270572988E+02  0.76003406084E+02  0.00000000000E+00 0.  1.
<mgrwt>
<rscale>  1 0.30000000E+03</rscale>
<asrwt>0</asrwt>
<pdfrwt beam="1">  1        1 0.10087145E+00 0.30000000E+03</pdfrwt>
<pdfrwt beam="2">0</pdfrwt>
<totfact> 0.33794901E+01</totfact>
</mgrwt>
</event>
<event>
 6    1  0.1904828E-004  0.3000000E+03  0.7818608E-02  0.1093470E+00
          1   -1    0    0  502    0  0.00000000000E+00  0.00000000000E+00  0.33562537442E+02  0.33562537442E+02  0.00000000000E+00 0.  1.
         13   -1    0    0    0    0 -0.00000000000E+00 -0.00000000000E+00 -0.10000000000E+04  0.10000000000E+04  0.00000000000E+00 0.  1.
    9000005    2    1    2  501    0  0.70708309998E+01  0.12089186008E+02 -0.96667351274E+03  0.10195553682E+04  0.32378901094E+03 0.  0.
         13    1    3    3    0    0 -0.99985032663E+02  0.13014074914E+03 -0.45908848503E+03  0.48754062234E+03  0.00000000000E+00 0.  1.
          3    1    3    3  501    0  0.10705586366E+03 -0.11805156313E+03 -0.50758502771E+03  0.53201474590E+03  0.00000000000E+00 0.  1.
         21    1    1    2  502  501 -0.70708309998E+01 -0.12089186008E+02  0.23605018171E+00  0.14007169202E+02  0.00000000000E+00 0. -1.
<mgrwt>
<rscale>  1 0.30000000E+03</rscale>
<asrwt>0</asrwt>
<pdfrwt beam="1">  1        1 0.12204585E+00 0.30000000E+03</pdfrwt>
<pdfrwt beam="2">0</pdfrwt>
<totfact> 0.25315709E+01</totfact>
</mgrwt>
</event>
<event>
 6    1  0.1904828E-004  0.3000000E+03  0.7818608E-02  0.1093470E+00
          1   -1    0    0  502    0  0.00000000000E+00  0.00000000000E+00  0.14855536329E+02  0.14855536329E+02  0.00000000000E+00 0.  1.
         13   -1    0    0    0    0 -0.00000000000E+00 -0.00000000000E+00 -0.10000000000E+04  0.10000000000E+04  0.00000000000E+00 0.  1.
    9000005    2    1    2  501    0 -0.21911293682E+02 -0.33853741535E+02 -0.85518508626E+03  0.87878342168E+03  0.19822358553E+03 0.  0.
         13    1    3    3    0    0 -0.16547736263E+02 -0.90247936799E+02 -0.18797143352E+03  0.20916925561E+03  0.00000000000E+00 0.  1.
          1    1    3    3  501    0 -0.53635574180E+01  0.56394195264E+02 -0.66721365274E+03  0.66961416608E+03  0.00000000000E+00 0.  1.
         21    1    1    2  502  501  0.21911293682E+02  0.33853741535E+02 -0.12995937741E+03  0.13607211464E+03  0.00000000000E+00 0.  1.
<mgrwt>
<rscale>  1 0.30000000E+03</rscale>
<asrwt>0</asrwt>
<pdfrwt beam="1">  1        1 0.54020246E-01 0.30000000E+03</pdfrwt>
<pdfrwt beam="2">0</pdfrwt>
<totfact> 0.79696879E+01</totfact>
</mgrwt>
</event>
<event>
 6    1  0.1904828E-004  0.3000000E+03  0.7818608E-02  0.1093470E+00
          1   -1    0    0  502    0  0.00000000000E+00  0.00000000000E+00  0.31261523944E+02  0.31261523944E+02  0.00000000000E+00 0.  1.
         13   -1    0    0    0    0 -0.00000000000E+00 -0.00000000000E+00 -0.10000000000E+04  0.10000000000E+04  0.00000000000E+00 0.  1.
    9000005    2    1    2  501    0 -0.26544028927E+02  0.55822023610E+01 -0.92096247764E+03  0.97632253525E+03  0.32295210349E+03 0.  0.
         13    1    3    3    0    0 -0.42035692471E+02  0.94241721170E+02 -0.86327160477E+03  0.86941725601E+03  0.00000000000E+00 0.  1.
          3    1    3    3  501    0  0.15491663545E+02 -0.88659518809E+02 -0.57690872873E+02  0.10690527923E+03  0.00000000000E+00 0.  1.
         21    1    1    2  502  501  0.26544028927E+02 -0.55822023610E+01 -0.47775998413E+02  0.54938988699E+02  0.00000000000E+00 0.  1.
<mgrwt>
<rscale>  1 0.30000000E+03</rscale>
<asrwt>0</asrwt>
<pdfrwt beam="1">  1        1 0.11367851E+00 0.30000000E+03</pdfrwt>
<pdfrwt beam="2">0</pdfrwt>
<totfact> 0.28261820E+01</totfact>
</mgrwt>
</event>
<event>
 6    1  0.1904828E-004  0.3000000E+03  0.7818608E-02  0.1093470E+00
          1   -1    0    0  502    0  0.00000000000E+00  0.00000000000E+00  0.52594023963E+02  0.52594023963E+02  0.00000000000E+00 0.  1.
         13   -1    0    0    0    0 -0.00000000000E+00 -0.00000000000E+00 -0.10000000000E+04  0.10000000000E+04  0.00000000000E+00 0.  1.
    9000005    2    1    2  501    0  0.99626632255E+01  0.92521573541E+01 -0.97154674561E+03  0.10248878183E+04  0.32604770237E+03 0.  0.
         13    1    3    3    0    0  0.11224485889E+02 -0.15795410231E+03 -0.43750269632E+03  0.46527851531E+03  0.00000000000E+00 0.  1.
          1    1    3    3  501    0 -0.12618226637E+01  0.16720625966E+03 -0.53404404929E+03  0.55960930304E+03  0.00000000000E+00 0.  1.
         21    1    1    2  502  501 -0.99626632255E+01 -0.92521573541E+01  0.24140769570E+02  0.27706205617E+02  0.00000000000E+00 0.  1.
<mgrwt>
<rscale>  1 0.30000000E+03</rscale>
<asrwt>0</asrwt>
<pdfrwt beam="1">  1        1 0.19125140E+00 0.30000000E+03</pdfrwt>
<pdfrwt beam="2">0</pdfrwt>
<totfact> 0.11277036E+01</totfact>
</mgrwt>
</event>
<event>
 6    1  0.1904828E-004  0.3000000E+03  0.7818608E-02  0.1093470E+00
          1   -1    0    0  502    0  0.00000000000E+00  0.00000000000E+00  0.49943952604E+02  0.49943952604E+02  0.00000000000E+00 0.  1.
         13   -1    0    0    0    0 -0.00000000000E+00 -0.00000000000E+00 -0.10000000000E+04  0.10000000000E+04  0.00000000000E+00 0.  1.
    9000005    2    1    2  501    0 -0.12618296547E+02 -0.54837045253E+01 -0.96927420705E+03  0.10263085960E+04  0.33708686309E+03 0.  0.
         13    1    3    3    0    0 -0.17040824128E+03  0.27615489128E+02 -0.57466219148E+03  0.60003184769E+03  0.00000000000E+00 0.  1.
          3    1    3    3  501    0  0.15778994473E+03 -0.33099193653E+02 -0.39461201557E+03  0.42627674827E+03  0.00000000000E+00 0.  1.
         21    1    1    2  502  501  0.12618296547E+02  0.54837045253E+01  0.19218159655E+02  0.23635356642E+02  0.00000000000E+00 0.  1.
<mgrwt>
<rscale>  1 0.30000000E+03</rscale>
<asrwt>0</asrwt>
<pdfrwt beam="1">  1        1 0.18161476E+00 0.30000000E+03</pdfrwt>
<pdfrwt beam="2">0</pdfrwt>
<totfact> 0.12546960E+01</totfact>
</mgrwt>
</event>
<event>
 6    1  0.1904828E-004  0.3000000E+03  0.7818608E-02  0.1093470E+00
          1   -1    0    0  502    0  0.00000000000E+00  0.00000000000E+00  0.27733225486E+02  0.27733225486E+02  0.00000000000E+00 0.  1.
         13   -1    0    0    0    0 -0.00000000000E+00 -0.00000000000E+00 -0.10000000000E+04  0.10000000000E+04  0.00000000000E+00 0.  1.
    9000005    2    1    2  501    0 -0.11592392333E+02 -0.31698022783E-01 -0.97063571285E+03  0.10160266065E+04  0.30006998116E+03 0.  0.
         13    1    3    3    0    0  0.26037903544E+02 -0.27377274953E+02  0.60243699350E+01  0.38259386272E+02  0.00000000000E+00 0.  1.
          3    1    3    3  501    0 -0.37630295877E+02  0.27345576930E+02 -0.97666008278E+03  0.97776722028E+03  0.00000000000E+00 0.  1.
         21    1    1    2  502  501  0.11592392333E+02  0.31698022783E-01 -0.16310616650E+01  0.11706618936E+02  0.00000000000E+00 0.  1.
<mgrwt>
<rscale>  1 0.30000000E+03</rscale>
<asrwt>0</asrwt>
<pdfrwt beam="1">  1        1 0.10084831E+00 0.30000000E+03</pdfrwt>
<pdfrwt beam="2">0</pdfrwt>
<totfact> 0.33806271E+01</totfact>
</mgrwt>
</event>
<event>
 6    1  0.1904828E-004  0.3000000E+03  0.7818608E-02  0.1093470E+00
          3   -1    0    0  502    0  0.00000000000E+00  0.00000000000E+00  0.27505395397E+02  0.27505395397E+02  0.00000000000E+00 0.  1.
         13   -1    0    0    0    0 -0.00000000000E+00 -0.00000000000E+00 -0.10000000000E+04  0.10000000000E+04  0.00000000000E+00 0.  1.
    9000005    2    1    2  501    0 -0.10269619487E+02  0.23130177811E+01 -0.96564424713E+03  0.10149458360E+04  0.31230661662E+03 0.  0.
         13    1    3    3    0    0  0.11062075356E+03  0.37223076140E+02 -0.15206325397E+03  0.19169178836E+03  0.00000000000E+00 0.  1.
          3    1    3    3  501    0 -0.12089037304E+03 -0.34910058359E+02 -0.81358099316E+03  0.82325404761E+03  0.00000000000E+00 0.  1.
         21    1    1    2  502  501  0.10269619487E+02 -0.23130177811E+01 -0.68503574688E+01  0.12559559431E+02  0.00000000000E+00 0.  1.
<mgrwt>
<rscale>  1 0.30000000E+03</rscale>
<asrwt>0</asrwt>
<pdfrwt beam="1">  1        3 0.10001983E+00 0.30000000E+03</pdfrwt>
<pdfrwt beam="2">0</pdfrwt>
<totfact> 0.39150195E+00</totfact>
</mgrwt>
</event>
<event>
 6    1  0.1904828E-004  0.3000000E+03  0.7818608E-02  0.1093470E+00
          1   -1    0    0  502    0  0.00000000000E+00  0.00000000000E+00  0.22878563981E+02  0.22878563981E+02  0.00000000000E+00 0.  1.
         13   -1    0    0    0    0 -0.00000000000E+00 -0.00000000000E+00 -0.10000000000E+04  0.10000000000E+04  0.00000000000E+00 0.  1.
    9000005    2    1    2  501    0  0.68714786395E+01 -0.13146755293E+02 -0.97187927927E+03  0.10071453316E+04  0.26376567465E+03 0.  0.
         13    1    3    3    0    0 -0.51057941784E+02  0.70333585449E+02 -0.81887395129E+03  0.82347329936E+03  0.00000000000E+00 0.  1.
          1    1    3    3  501    0  0.57929420423E+02 -0.83480340742E+02 -0.15300532798E+03  0.18367203225E+03  0.00000000000E+00 0.  1.
         21    1    1    2  502  501 -0.68714786395E+01  0.13146755293E+02 -0.52421567535E+01  0.15733232371E+02  0.00000000000E+00 0.  1.
<mgrwt>
<rscale>  1 0.30000000E+03</rscale>
<asrwt>0</asrwt>
<pdfrwt beam="1">  1        1 0.83194954E-01 0.30000000E+03</pdfrwt>
<pdfrwt beam="2">0</pdfrwt>
<totfact> 0.44481987E+01</totfact>
</mgrwt>
</event>
<event>
 6    1  0.1904828E-004  0.3000000E+03  0.7818608E-02  0.1093470E+00
          1   -1    0    0  502    0  0.00000000000E+00  0.00000000000E+00  0.47864518007E+02  0.47864518007E+02  0.00000000000E+00 0.  1.
         13   -1    0    0    0    0 -0.00000000000E+00 -0.00000000000E+00 -0.10000000000E+04  0.10000000000E+04  0.00000000000E+00 0.  1.
    9000005    2    1    2  501    0 -0.10748024543E+02 -0.39507939647E+02 -0.95254462546E+03  0.10069186425E+04  0.32383250562E+03 0.  0.
         13    1    3    3    0    0  0.32817951960E+00  0.11175159790E+02  0.25320200452E+02  0.27678591890E+02  0.00000000000E+00 0.  1.
          3    1    3    3  501    0 -0.11076204063E+02 -0.50683099437E+02 -0.97786482591E+03  0.97924005056E+03  0.00000000000E+00 0.  1.
         21    1    1    2  502  501  0.10748024543E+02  0.39507939647E+02  0.40914346764E+00  0.40945875557E+02  0.00000000000E+00 0. -1.
<mgrwt>
<rscale>  1 0.30000000E+03</rscale>
<asrwt>0</asrwt>
<pdfrwt beam="1">  1        1 0.17405316E+00 0.30000000E+03</pdfrwt>
<pdfrwt beam="2">0</pdfrwt>
<totfact> 0.13651792E+01</totfact>
</mgrwt>
</event>
<event>
 6    1  0.1904828E-004  0.3000000E+03  0.7818608E-02  0.1093470E+00
          1   -1    0    0  502    0  0.00000000000E+00  0.00000000000E+00  0.36658332157E+02  0.36658332157E+02  0.00000000000E+00 0.  1.
         13   -1    0    0    0    0 -0.00000000000E+00 -0.00000000000E+00 -0.10000000000E+04  0.10000000000E+04  0.00000000000E+00 0.  1.
    9000005    2    1    2  501    0  0.13206011995E+02  0.91426270206E+01 -0.97076036544E+03  0.10189658633E+04  0.30928588232E+03 0.  0.
         13    1    3    3    0    0  0.12283504213E+03 -0.96962494974E+02 -0.52430244250E+03  0.54715923113E+03  0.00000000000E+00 0.  1.
          1    1    3    3  501    0 -0.10962903014E+03  0.10610512199E+03 -0.44645792294E+03  0.47180663213E+03  0.00000000000E+00 0.  1.
         21    1    1    2  502  501 -0.13206011995E+02 -0.91426270206E+01  0.74186975955E+01  0.17692468897E+02  0.00000000000E+00 0.  1.
<mgrwt>
<rscale>  1 0.30000000E+03</rscale>
<asrwt>0</asrwt>
<pdfrwt beam="1">  1        1 0.13330331E+00 0.30000000E+03</pdfrwt>
<pdfrwt beam="2">0</pdfrwt>
<totfact> 0.21957312E+01</totfact>
</mgrwt>
</event>
<event>
 6    1  0.1904828E-004  0.3000000E+03  0.7818608E-02  0.1093470E+00
          1   -1    0    0  502    0  0.00000000000E+00  0.00000000000E+00  0.32485280060E+02  0.32485280060E+02  0.00000000000E+00 0.  1.
         13   -1    0    0    0    0 -0.00000000000E+00 -0.00000000000E+00 -0.10000000000E+04  0.10000000000E+04  0.00000000000E+00 0.  1.
    9000005    2    1    2  501    0  0.19239743524E+02 -0.23442947778E+02 -0.82222128427E+03  0.88406047762E+03  0.32341204098E+03 0.  0.
         13    1    3    3    0    0 -0.10069922924E+02  0.14577270848E+03 -0.28855829765E+03  0.32344547768E+03  0.00000000000E+00 0.  1.
          3    1    3    3  501    0  0.29309666449E+02 -0.16921565626E+03 -0.53366298662E+03  0.56061499994E+03  0.00000000000E+00 0.  1.
         21    1    1    2  502  501 -0.19239743524E+02  0.23442947778E+02 -0.14529343567E+03  0.14842480244E+03  0.00000000000E+00 0. -1.
<mgrwt>
<rscale>  1 0.30000000E+03</rscale>
<asrwt>0</asrwt>
<pdfrwt beam="1">  1        1 0.11812854E+00 0.30000000E+03</pdfrwt>
<pdfrwt beam="2">0</pdfrwt>
<totfact> 0.26639960E+01</totfact>
</mgrwt>
</event>
<event>
 6    1  0.1904828E-004  0.3000000E+03  0.7818608E-02  0.1093470E+00
          1   -1    0    0  502    0  0.00000000000E+00  0.00000000000E+00  0.30203685696E+02  0.30203685696E+02  0.00000000000E+00 0.  1.
         13   -1    0    0    0    0 -0.00000000000E+00 -0.00000000000E+00 -0.10000000000E+04  0.10000000000E+04  0.00000000000E+00 0.  1.
    9000005    2    1    2  501    0  0.84520099314E+01  0.64741134750E+01 -0.96454523625E+03  0.10183325258E+04  0.32640506991E+03 0.  0.
         13    1    3    3    0    0  0.82043115487E+02  0.95171475017E+02 -0.15000356841E+03  0.19567767627E+03  0.00000000000E+00 0.  1.
          3    1    3    3  501    0 -0.73591105556E+02 -0.88697361542E+02 -0.81454166784E+03  0.82265484950E+03  0.00000000000E+00 0.  1.
         21    1    1    2  502  501 -0.84520099314E+01 -0.64741134750E+01 -0.52510780563E+01  0.11871159923E+02  0.00000000000E+00 0.  1.
<mgrwt>
<rscale>  1 0.30000000E+03</rscale>
<asrwt>0</asrwt>
<pdfrwt beam="1">  1        1 0.10983182E+00 0.30000000E+03</pdfrwt>
<pdfrwt beam="2">0</pdfrwt>
<totfact> 0.29778330E+01</totfact>
</mgrwt>
</event>
<event>
 6    1  0.1904828E-004  0.3000000E+03  0.7818608E-02  0.1093470E+00
          1   -1    0    0  502    0  0.00000000000E+00  0.00000000000E+00  0.47861457886E+02  0.47861457886E+02  0.00000000000E+00 0.  1.
         13   -1    0    0    0    0 -0.00000000000E+00 -0.00000000000E+00 -0.10000000000E+04  0.10000000000E+04  0.00000000000E+00 0.  1.
    9000005    2    1    2  501    0  0.17987357281E+02 -0.13447094280E+02 -0.96647061561E+03  0.10212198045E+04  0.32912014343E+03 0.  0.
         13    1    3    3    0    0  0.57997784126E+02 -0.39588185449E+02 -0.19273676890E+02  0.72817868765E+02  0.00000000000E+00 0.  1.
          3    1    3    3  501    0 -0.40010426845E+02  0.26141091169E+02 -0.94719693872E+03  0.94840193569E+03  0.00000000000E+00 0.  1.
         21    1    1    2  502  501 -0.17987357281E+02  0.13447094280E+02  0.14332073498E+02  0.26641653426E+02  0.00000000000E+00 0. -1.
<mgrwt>
<rscale>  1 0.30000000E+03</rscale>
<asrwt>0</asrwt>
<pdfrwt beam="1">  1        1 0.17404203E+00 0.30000000E+03</pdfrwt>
<pdfrwt beam="2">0</pdfrwt>
<totfact> 0.13653493E+01</totfact>
</mgrwt>
</event>
<event>
 6    1  0.1904828E-004  0.3000000E+03  0.7818608E-02  0.1093470E+00
          1   -1    0    0  502    0  0.00000000000E+00  0.00000000000E+00  0.28011005423E+02  0.28011005423E+02  0.00000000000E+00 0.  1.
         13   -1    0    0    0    0 -0.00000000000E+00 -0.00000000000E+00 -0.10000000000E+04  0.10000000000E+04  0.00000000000E+00 0.  1.
    9000005    2    1    2  501    0 -0.14140234428E+00  0.11878259559E+02 -0.95523452824E+03  0.10074726222E+04  0.31997963594E+03 0.  0.
         13    1    3    3    0    0 -0.14837714068E+03 -0.33139443759E+02 -0.33010377882E+03  0.36343156633E+03  0.00000000000E+00 0.  1.
          1    1    3    3  501    0  0.14823573834E+03  0.45017703318E+02 -0.62513074942E+03  0.64404105584E+03  0.00000000000E+00 0.  1.
         21    1    1    2  502  501  0.14140234428E+00 -0.11878259559E+02 -0.16754466334E+02  0.20538383260E+02  0.00000000000E+00 0.  1.
<mgrwt>
<rscale>  1 0.30000000E+03</rscale>
<asrwt>0</asrwt>
<pdfrwt beam="1">  1        1 0.10185842E+00 0.30000000E+03</pdfrwt>
<pdfrwt beam="2">0</pdfrwt>
<totfact> 0.33315190E+01</totfact>
</mgrwt>
</event>
<event>
 6    1  0.1904828E-004  0.3000000E+03  0.7818608E-02  0.1093470E+00
          1   -1    0    0  502    0  0.00000000000E+00  0.00000000000E+00  0.29789968300E+02  0.29789968300E+02  0.00000000000E+00 0.  1.
         13   -1    0    0    0    0 -0.00000000000E+00 -0.00000000000E+00 -0.10000000000E+04  0.10000000000E+04  0.00000000000E+00 0.  1.
    9000005    2    1    2  501    0 -0.15461783168E+02 -0.73222777518E+01 -0.91835577189E+03  0.97518642674E+03  0.32759511695E+03 0.  0.
         13    1    3    3    0    0  0.89759969549E+02  0.12153298763E+03 -0.31569731530E+03  0.34998844853E+03  0.00000000000E+00 0.  1.
          1    1    3    3  501    0 -0.10522175272E+03 -0.12885526539E+03 -0.60265845658E+03  0.62519797821E+03  0.00000000000E+00 0.  1.
         21    1    1    2  502  501  0.15461783168E+02  0.73222777518E+01 -0.51854259814E+02  0.54603541562E+02  0.00000000000E+00 0. -1.
<mgrwt>
<rscale>  1 0.30000000E+03</rscale>
<asrwt>0</asrwt>
<pdfrwt beam="1">  1        1 0.10832739E+00 0.30000000E+03</pdfrwt>
<pdfrwt beam="2">0</pdfrwt>
<totfact> 0.30402935E+01</totfact>
</mgrwt>
</event>
<event>
 6    1  0.1904828E-004  0.3000000E+03  0.7818608E-02  0.1093470E+00
          3   -1    0    0  502    0  0.00000000000E+00  0.00000000000E+00  0.38711379869E+02  0.38711379869E+02  0.00000000000E+00 0.  1.
         13   -1    0    0    0    0 -0.00000000000E+00 -0.00000000000E+00 -0.10000000000E+04  0.10000000000E+04  0.00000000000E+00 0.  1.
    9000005    2    1    2  501    0 -0.82004343647E+01  0.34087196335E+02 -0.94869466159E+03  0.10014583012E+04  0.31885417365E+03 0.  0.
         13    1    3    3    0    0 -0.11451899971E+03 -0.42197226124E+02 -0.15616558385E+03  0.19819913412E+03  0.00000000000E+00 0.  1.
          3    1    3    3  501    0  0.10631856535E+03  0.76284422459E+02 -0.79252907774E+03  0.80325916709E+03  0.00000000000E+00 0.  1.
         21    1    1    2  502  501  0.82004343647E+01 -0.34087196335E+02 -0.12593958540E+02  0.37253078658E+02  0.00000000000E+00 0. -1.
<mgrwt>
<rscale>  1 0.30000000E+03</rscale>
<asrwt>0</asrwt>
<pdfrwt beam="1">  1        3 0.14076895E+00 0.30000000E+03</pdfrwt>
<pdfrwt beam="2">0</pdfrwt>
<totfact> 0.13096758E+00</totfact>
</mgrwt>
</event>
<event>
 6    1  0.1904828E-004  0.3000000E+03  0.7818608E-02  0.1093470E+00
          3   -1    0    0  502    0  0.00000000000E+00  0.00000000000E+00  0.31190120213E+02  0.31190120213E+02  0.00000000000E+00 0.  1.
         13   -1    0    0    0    0 -0.00000000000E+00 -0.00000000000E+00 -0.10000000000E+04  0.10000000000E+04  0.00000000000E+00 0.  1.
    9000005    2    1    2  501    0 -0.44212091302E+01  0.12683821813E+02 -0.95941971790E+03  0.10148010517E+04  0.33038546130E+03 0.  0.
         13    1    3    3    0    0 -0.15809737950E+03 -0.31447283106E+02 -0.60278161919E+03  0.62396265390E+03  0.00000000000E+00 0.  1.
          1    1    3    3  501    0  0.15367617037E+03  0.44131104919E+02 -0.35663809871E+03  0.39083839782E+03  0.00000000000E+00 0.  1.
         21    1    1    2  502  501  0.44212091302E+01 -0.12683821813E+02 -0.93901618873E+01  0.16389068498E+02  0.00000000000E+00 0. -1.
<mgrwt>
<rscale>  1 0.30000000E+03</rscale>
<asrwt>0</asrwt>
<pdfrwt beam="1">  1        3 0.11341886E+00 0.30000000E+03</pdfrwt>
<pdfrwt beam="2">0</pdfrwt>
<totfact> 0.27545904E+00</totfact>
</mgrwt>
</event>
<event>
 6    1  0.1904828E-004  0.3000000E+03  0.7818608E-02  0.1093470E+00
          1   -1    0    0  502    0  0.00000000000E+00  0.00000000000E+00  0.29943405032E+02  0.29943405032E+02  0.00000000000E+00 0.  1.
         13   -1    0    0    0    0 -0.00000000000E+00 -0.00000000000E+00 -0.10000000000E+04  0.10000000000E+04  0.00000000000E+00 0.  1.
    9000005    2    1    2  501    0 -0.84480047782E+01  0.20184549406E+02 -0.95631877136E+03  0.10041071395E+04  0.30529783868E+03 0.  0.
         13    1    3    3    0    0 -0.14040709189E+03  0.37172699672E+02 -0.70433807315E+03  0.71915789806E+03  0.00000000000E+00 0.  1.
          3    1    3    3  501    0  0.13195908712E+03 -0.16988150266E+02 -0.25198069821E+03  0.28494924143E+03  0.00000000000E+00 0.  1.
         21    1    1    2  502  501  0.84480047782E+01 -0.20184549406E+02 -0.13737823605E+02  0.25836265536E+02  0.00000000000E+00 0.  1.
<mgrwt>
<rscale>  1 0.30000000E+03</rscale>
<asrwt>0</asrwt>
<pdfrwt beam="1">  1        1 0.10888534E+00 0.30000000E+03</pdfrwt>
<pdfrwt beam="2">0</pdfrwt>
<totfact> 0.30169126E+01</totfact>
</mgrwt>
</event>
<event>
 6    1  0.1904828E-004  0.3000000E+03  0.7818608E-02  0.1093470E+00
          1   -1    0    0  502    0  0.00000000000E+00  0.00000000000E+00  0.79008949740E+02  0.79008949740E+02  0.00000000000E+00 0.  1.
         13   -1    0    0    0    0 -0.00000000000E+00 -0.00000000000E+00 -0.10000000000E+04  0.10000000000E+04  0.00000000000E+00 0.  1.
    9000005    2    1    2  501    0 -0.72168150900E+02  0.70047291035E+02 -0.91618418210E+03  0.97832145813E+03  0.32803133221E+03 0.  0.
         13    1    3    3    0    0 -0.12849345955E+03 -0.10070003767E+03 -0.42737972476E+03  0.45749808291E+03  0.00000000000E+00 0.  1.
          1    1    3    3  501    0  0.56325308646E+02  0.17074732870E+03 -0.48880445734E+03  0.52082337522E+03  0.00000000000E+00 0.  1.
         21    1    1    2  502  501  0.72168150900E+02 -0.70047291035E+02 -0.48068681584E+01  0.10068749161E+03  0.00000000000E+00 0.  1.
<mgrwt>
<rscale>  1 0.30000000E+03</rscale>
<asrwt>0</asrwt>
<pdfrwt beam="1">  1        1 0.28730588E+00 0.30000000E+03</pdfrwt>
<pdfrwt beam="2">0</pdfrwt>
<totfact> 0.39898318E+00</totfact>
</mgrwt>
</event>
<event>
 6    1  0.1904828E-004  0.3000000E+03  0.7818608E-02  0.1093470E+00
          1   -1    0    0  502    0  0.00000000000E+00  0.00000000000E+00  0.37381373112E+02  0.37381373112E+02  0.00000000000E+00 0.  1.
         13   -1    0    0    0    0 -0.00000000000E+00 -0.00000000000E+00 -0.10000000000E+04  0.10000000000E+04  0.00000000000E+00 0.  1.
    9000005    2    1    2  501    0 -0.12361762066E+02 -0.59927587881E+01 -0.96154219902E+03  0.10236014959E+04  0.35072481459E+03 0.  0.
         13    1    3    3    0    0 -0.34341526375E+02  0.13249967356E+03 -0.16303536339E+03  0.21287562952E+03  0.00000000000E+00 0.  1.
          1    1    3    3  501    0  0.21979764309E+02 -0.13849243234E+03 -0.79850683563E+03  0.81072586637E+03  0.00000000000E+00 0.  1.
         21    1    1    2  502  501  0.12361762066E+02  0.59927587881E+01 -0.10764278641E+01  0.13779877220E+02  0.00000000000E+00 0. -1.
<mgrwt>
<rscale>  1 0.30000000E+03</rscale>
<asrwt>0</asrwt>
<pdfrwt beam="1">  1        1 0.13593255E+00 0.30000000E+03</pdfrwt>
<pdfrwt beam="2">0</pdfrwt>
<totfact> 0.21257864E+01</totfact>
</mgrwt>
</event>
<event>
 6    1  0.1904828E-004  0.3000000E+03  0.7818608E-02  0.1093470E+00
          3   -1    0    0  502    0  0.00000000000E+00  0.00000000000E+00  0.35806041440E+02  0.35806041440E+02  0.00000000000E+00 0.  1.
         13   -1    0    0    0    0 -0.00000000000E+00 -0.00000000000E+00 -0.10000000000E+04  0.10000000000E+04  0.00000000000E+00 0.  1.
    9000005    2    1    2  501    0 -0.26916079646E+02  0.66346576659E+01 -0.95183520356E+03  0.10054542235E+04  0.32276841052E+03 0.  0.
         13    1    3    3    0    0 -0.83605687001E+02 -0.13354005325E+03 -0.63696178587E+03  0.65615788754E+03  0.00000000000E+00 0.  1.
          3    1    3    3  501    0  0.56689607354E+02  0.14017471091E+03 -0.31487341769E+03  0.34929633598E+03  0.00000000000E+00 0.  1.
         21    1    1    2  502  501  0.26916079646E+02 -0.66346576659E+01 -0.12358754998E+02  0.30351817919E+02  0.00000000000E+00 0.  1.
<mgrwt>
<rscale>  1 0.30000000E+03</rscale>
<asrwt>0</asrwt>
<pdfrwt beam="1">  1        3 0.13020406E+00 0.30000000E+03</pdfrwt>
<pdfrwt beam="2">0</pdfrwt>
<totfact> 0.17596835E+00</totfact>
</mgrwt>
</event>
<event>
 6    1  0.1904828E-004  0.3000000E+03  0.7818608E-02  0.1093470E+00
          1   -1    0    0  502    0  0.00000000000E+00  0.00000000000E+00  0.22946288165E+02  0.22946288165E+02  0.00000000000E+00 0.  1.
         13   -1    0    0    0    0 -0.00000000000E+00 -0.00000000000E+00 -0.10000000000E+04  0.10000000000E+04  0.00000000000E+00 0.  1.
    9000005    2    1    2  501    0  0.96398331529E+01  0.30375168393E+01 -0.96066828925E+03  0.10036944061E+04  0.29054560032E+03 0.  0.
         13    1    3    3    0    0  0.29622997043E+02 -0.95530762428E+02 -0.84295199492E+03  0.84886495643E+03  0.00000000000E+00 0.  1.
          3    1    3    3  501    0 -0.19983163890E+02  0.98568279267E+02 -0.11771629434E+03  0.15482944962E+03  0.00000000000E+00 0.  1.
         21    1    1    2  502  501 -0.96398331529E+01 -0.30375168393E+01 -0.16385422582E+02  0.19251882114E+02  0.00000000000E+00 0. -1.
<mgrwt>
<rscale>  1 0.30000000E+03</rscale>
<asrwt>0</asrwt>
<pdfrwt beam="1">  1        1 0.83441224E-01 0.30000000E+03</pdfrwt>
<pdfrwt beam="2">0</pdfrwt>
<totfact> 0.44299205E+01</totfact>
</mgrwt>
</event>
<event>
 6    1  0.1904828E-004  0.3000000E+03  0.7818608E-02  0.1093470E+00
          1   -1    0    0  502    0  0.00000000000E+00  0.00000000000E+00  0.30472615206E+02  0.30472615206E+02  0.00000000000E+00 0.  1.
         13   -1    0    0    0    0 -0.00000000000E+00 -0.00000000000E+00 -0.10000000000E+04  0.10000000000E+04  0.00000000000E+00 0.  1.
    9000005    2    1    2  501    0 -0.21656296459E+02 -0.11220465985E+01 -0.89888491153E+03  0.95657665324E+03  0.32645758560E+03 0.  0.
         13    1    3    3    0    0 -0.56630490139E+02 -0.90124914483E+02 -0.82655151222E+02  0.13476418904E+03  0.00000000000E+00 0.  1.
          1    1    3    3  501    0  0.34974193680E+02  0.89002867884E+02 -0.81622976030E+03  0.82181246420E+03  0.00000000000E+00 0.  1.
         21    1    1    2  502  501  0.21656296459E+02  0.11220465985E+01 -0.70642473269E+02  0.73895961963E+02  0.00000000000E+00 0.  1.
<mgrwt>
<rscale>  1 0.30000000E+03</rscale>
<asrwt>0</asrwt>
<pdfrwt beam="1">  1        1 0.11080974E+00 0.30000000E+03</pdfrwt>
<pdfrwt beam="2">0</pdfrwt>
<totfact> 0.29382059E+01</totfact>
</mgrwt>
</event>
<event>
 6    1  0.1904828E-004  0.3000000E+03  0.7818608E-02  0.1093470E+00
          1   -1    0    0  502    0  0.00000000000E+00  0.00000000000E+00  0.30046115778E+02  0.30046115778E+02  0.00000000000E+00 0.  1.
         13   -1    0    0    0    0 -0.00000000000E+00 -0.00000000000E+00 -0.10000000000E+04  0.10000000000E+04  0.00000000000E+00 0.  1.
    9000005    2    1    2  501    0 -0.15478474617E+02  0.63857272099E+01 -0.96021904058E+03  0.10106778978E+04  0.31491085475E+03 0.  0.
         13    1    3    3    0    0  0.62770467010E+02 -0.13621544425E+03 -0.39487479154E+03  0.42239895807E+03  0.00000000000E+00 0.  1.
          3    1    3    3  501    0 -0.78248941627E+02  0.14260117146E+03 -0.56534424904E+03  0.58827893969E+03  0.00000000000E+00 0.  1.
         21    1    1    2  502  501  0.15478474617E+02 -0.63857272099E+01 -0.97348436442E+01  0.19368218019E+02  0.00000000000E+00 0.  1.
<mgrwt>
<rscale>  1 0.30000000E+03</rscale>
<asrwt>0</asrwt>
<pdfrwt beam="1">  1        1 0.10925883E+00 0.30000000E+03</pdfrwt>
<pdfrwt beam="2">0</pdfrwt>
<totfact> 0.30014045E+01</totfact>
</mgrwt>
</event>
<event>
 6    1  0.1904828E-004  0.3000000E+03  0.7818608E-02  0.1093470E+00
          1   -1    0    0  502    0  0.00000000000E+00  0.00000000000E+00  0.34965466113E+02  0.34965466113E+02  0.00000000000E+00 0.  1.
         13   -1    0    0    0    0 -0.00000000000E+00 -0.00000000000E+00 -0.10000000000E+04  0.10000000000E+04  0.00000000000E+00 0.  1.
    9000005    2    1    2  501    0 -0.43043226325E+02 -0.13369218664E+02 -0.91421344566E+03  0.96703728088E+03  0.31199907540E+03 0.  0.
         13    1    3    3    0    0  0.93891835692E+02 -0.33388961779E+02 -0.72927473502E+03  0.73605172286E+03  0.00000000000E+00 0.  1.
          3    1    3    3  501    0 -0.13693506202E+03  0.20019743115E+02 -0.18493871064E+03  0.23098555803E+03  0.00000000000E+00 0.  1.
         21    1    1    2  502  501  0.43043226325E+02  0.13369218664E+02 -0.50821088228E+02  0.67928185231E+02  0.00000000000E+00 0. -1.
<mgrwt>
<rscale>  1 0.30000000E+03</rscale>
<asrwt>0</asrwt>
<pdfrwt beam="1">  1        1 0.12714742E+00 0.30000000E+03</pdfrwt>
<pdfrwt beam="2">0</pdfrwt>
<totfact> 0.23717336E+01</totfact>
</mgrwt>
</event>
<event>
 6    1  0.1904828E-004  0.3000000E+03  0.7818608E-02  0.1093470E+00
          1   -1    0    0  502    0  0.00000000000E+00  0.00000000000E+00  0.24988055155E+02  0.24988055155E+02  0.00000000000E+00 0.  1.
         13   -1    0    0    0    0 -0.00000000000E+00 -0.00000000000E+00 -0.10000000000E+04  0.10000000000E+04  0.00000000000E+00 0.  1.
    9000005    2    1    2  501    0 -0.28961774486E+01 -0.10692905804E+02 -0.95986185107E+03  0.10062196929E+04  0.30169615720E+03 0.  0.
         13    1    3    3    0    0  0.34446472920E+02 -0.43811205944E+01 -0.96704834939E+03  0.96767156813E+03  0.00000000000E+00 0.  1.
          3    1    3    3  501    0 -0.37342650369E+02 -0.63117852099E+01  0.71864983200E+01  0.38548124821E+02  0.00000000000E+00 0.  1.
         21    1    1    2  502  501  0.28961774486E+01  0.10692905804E+02 -0.15150093779E+02  0.18768362205E+02  0.00000000000E+00 0. -1.
<mgrwt>
<rscale>  1 0.30000000E+03</rscale>
<asrwt>0</asrwt>
<pdfrwt beam="1">  1        1 0.90865847E-01 0.30000000E+03</pdfrwt>
<pdfrwt beam="2">0</pdfrwt>
<totfact> 0.39294120E+01</totfact>
</mgrwt>
</event>
<event>
 6    1  0.1904828E-004  0.3000000E+03  0.7818608E-02  0.1093470E+00
          1   -1    0    0  502    0  0.00000000000E+00  0.00000000000E+00  0.34751681736E+02  0.34751681736E+02  0.00000000000E+00 0.  1.
         13   -1    0    0    0    0 -0.00000000000E+00 -0.00000000000E+00 -0.10000000000E+04  0.10000000000E+04  0.00000000000E+00 0.  1.
    9000005    2    1    2  501    0  0.48761171512E+02 -0.17061688923E+02 -0.82879271137E+03  0.88884456838E+03  0.31698352518E+03 0.  0.
         13    1    3    3    0    0  0.81172321516E+02 -0.10048094201E+03 -0.12624225206E+03  0.18061691973E+03  0.00000000000E+00 0.  1.
          3    1    3    3  501    0 -0.32411150004E+02  0.83419253090E+02 -0.70255045931E+03  0.70822764864E+03  0.00000000000E+00 0.  1.
         21    1    1    2  502  501 -0.48761171512E+02  0.17061688923E+02 -0.13645560689E+03  0.14590711336E+03  0.00000000000E+00 0. -1.
<mgrwt>
<rscale>  1 0.30000000E+03</rscale>
<asrwt>0</asrwt>
<pdfrwt beam="1">  1        1 0.12637002E+00 0.30000000E+03</pdfrwt>
<pdfrwt beam="2">0</pdfrwt>
<totfact> 0.23952403E+01</totfact>
</mgrwt>
</event>
<event>
 6    1  0.1904828E-004  0.3000000E+03  0.7818608E-02  0.1093470E+00
          1   -1    0    0  502    0  0.00000000000E+00  0.00000000000E+00  0.33283655479E+02  0.33283655479E+02  0.00000000000E+00 0.  1.
         13   -1    0    0    0    0 -0.00000000000E+00 -0.00000000000E+00 -0.10000000000E+04  0.10000000000E+04  0.00000000000E+00 0.  1.
    9000005    2    1    2  501    0  0.17374029425E+02 -0.35783183289E+02 -0.88530212640E+03  0.94267147078E+03  0.32138349941E+03 0.  0.
         13    1    3    3    0    0 -0.61950070334E+02  0.41569975848E+02 -0.79835288116E+03  0.80183115240E+03  0.00000000000E+00 0.  1.
          3    1    3    3  501    0  0.79324099758E+02 -0.77353159137E+02 -0.86949245241E+02  0.14084031837E+03  0.00000000000E+00 0.  1.
         21    1    1    2  502  501 -0.17374029425E+02  0.35783183289E+02 -0.81414218118E+02  0.90612184702E+02  0.00000000000E+00 0.  1.
<mgrwt>
<rscale>  1 0.30000000E+03</rscale>
<asrwt>0</asrwt>
<pdfrwt beam="1">  1        1 0.12103173E+00 0.30000000E+03</pdfrwt>
<pdfrwt beam="2">0</pdfrwt>
<totfact> 0.25649944E+01</totfact>
</mgrwt>
</event>
<event>
 6    1  0.1904828E-004  0.3000000E+03  0.7818608E-02  0.1093470E+00
          1   -1    0    0  502    0  0.00000000000E+00  0.00000000000E+00  0.29281290083E+02  0.29281290083E+02  0.00000000000E+00 0.  1.
         13   -1    0    0    0    0 -0.00000000000E+00 -0.00000000000E+00 -0.10000000000E+04  0.10000000000E+04  0.00000000000E+00 0.  1.
    9000005    2    1    2  501    0  0.22259042642E+02  0.60636868196E+01 -0.95259446682E+03  0.99994323519E+03  0.30317985109E+03 0.  0.
         13    1    3    3    0    0 -0.77513105122E+02  0.86973232494E+02 -0.75717436590E+03  0.76608462001E+03  0.00000000000E+00 0.  1.
          1    1    3    3  501    0  0.99772147764E+02 -0.80909545675E+02 -0.19542010092E+03  0.23385861518E+03  0.00000000000E+00 0.  1.
         21    1    1    2  502  501 -0.22259042642E+02 -0.60636868196E+01 -0.18124243100E+02  0.29338054897E+02  0.00000000000E+00 0. -1.
<mgrwt>
<rscale>  1 0.30000000E+03</rscale>
<asrwt>0</asrwt>
<pdfrwt beam="1">  1        1 0.10647764E+00 0.30000000E+03</pdfrwt>
<pdfrwt beam="2">0</pdfrwt>
<totfact> 0.31196887E+01</totfact>
</mgrwt>
</event>
<event>
 6    1  0.1904828E-004  0.3000000E+03  0.7818608E-02  0.1093470E+00
          1   -1    0    0  502    0  0.00000000000E+00  0.00000000000E+00  0.29319081667E+02  0.29319081667E+02  0.00000000000E+00 0.  1.
         13   -1    0    0    0    0 -0.00000000000E+00 -0.00000000000E+00 -0.10000000000E+04  0.10000000000E+04  0.00000000000E+00 0.  1.
    9000005    2    1    2  501    0  0.15801229364E+02  0.12548805308E+01 -0.94405718499E+03  0.99833397635E+03  0.32430773384E+03 0.  0.
         13    1    3    3    0    0 -0.28628041180E+02 -0.62548042169E+02 -0.20878172301E+02  0.71886858323E+02  0.00000000000E+00 0.  1.
          3    1    3    3  501    0  0.44429270545E+02  0.63802922700E+02 -0.92317901269E+03  0.92644711802E+03  0.00000000000E+00 0.  1.
         21    1    1    2  502  501 -0.15801229364E+02 -0.12548805308E+01 -0.26623733343E+02  0.30985105320E+02  0.00000000000E+00 0.  1.
<mgrwt>
<rscale>  1 0.30000000E+03</rscale>
<asrwt>0</asrwt>
<pdfrwt beam="1">  1        1 0.10661507E+00 0.30000000E+03</pdfrwt>
<pdfrwt beam="2">0</pdfrwt>
<totfact> 0.31136884E+01</totfact>
</mgrwt>
</event>
<event>
 6    1  0.1904828E-004  0.3000000E+03  0.7818608E-02  0.1093470E+00
          1   -1    0    0  502    0  0.00000000000E+00  0.00000000000E+00  0.29544459068E+02  0.29544459068E+02  0.00000000000E+00 0.  1.
         13   -1    0    0    0    0 -0.00000000000E+00 -0.00000000000E+00 -0.10000000000E+04  0.10000000000E+04  0.00000000000E+00 0.  1.
    9000005    2    1    2  501    0 -0.14672289976E+02  0.63274102050E+00 -0.95733450141E+03  0.10098508527E+04  0.32108210885E+03 0.  0.
         13    1    3    3    0    0 -0.47117339394E+02 -0.11203073565E+01  0.46119768172E+01  0.47355771458E+02  0.00000000000E+00 0.  1.
          3    1    3    3  501    0  0.32445049418E+02  0.17530483770E+01 -0.96194647822E+03  0.96249508122E+03  0.00000000000E+00 0.  1.
         21    1    1    2  502  501  0.14672289976E+02 -0.63274102050E+00 -0.13121039525E+02  0.19693606388E+02  0.00000000000E+00 0.  1.
<mgrwt>
<rscale>  1 0.30000000E+03</rscale>
<asrwt>0</asrwt>
<pdfrwt beam="1">  1        1 0.10743462E+00 0.30000000E+03</pdfrwt>
<pdfrwt beam="2">0</pdfrwt>
<totfact> 0.30782466E+01</totfact>
</mgrwt>
</event>
<event>
 6    1  0.1904828E-004  0.3000000E+03  0.7818608E-02  0.1093470E+00
          1   -1    0    0  502    0  0.00000000000E+00  0.00000000000E+00  0.51425665386E+02  0.51425665386E+02  0.00000000000E+00 0.  1.
         13   -1    0    0    0    0 -0.00000000000E+00 -0.00000000000E+00 -0.10000000000E+04  0.10000000000E+04  0.00000000000E+00 0.  1.
    9000005    2    1    2  501    0 -0.67608928567E+02  0.57936895763E+02 -0.80463989676E+03  0.88217799623E+03  0.35052104426E+03 0.  0.
         13    1    3    3    0    0 -0.16217517196E+03  0.14854181043E+03 -0.60187174445E+03  0.64079251916E+03  0.00000000000E+00 0.  1.
          1    1    3    3  501    0  0.94566243392E+02 -0.90604914667E+02 -0.20276815231E+03  0.24138547707E+03  0.00000000000E+00 0.  1.
         21    1    1    2  502  501  0.67608928567E+02 -0.57936895763E+02 -0.14393443786E+03  0.16924766915E+03  0.00000000000E+00 0.  1.
<mgrwt>
<rscale>  1 0.30000000E+03</rscale>
<asrwt>0</asrwt>
<pdfrwt beam="1">  1        1 0.18700281E+00 0.30000000E+03</pdfrwt>
<pdfrwt beam="2">0</pdfrwt>
<totfact> 0.11819374E+01</totfact>
</mgrwt>
</event>
<event>
 6    1  0.1904828E-004  0.3000000E+03  0.7818608E-02  0.1093470E+00
          1   -1    0    0  502    0  0.00000000000E+00  0.00000000000E+00  0.31059186785E+02  0.31059186785E+02  0.00000000000E+00 0.  1.
         13   -1    0    0    0    0 -0.00000000000E+00 -0.00000000000E+00 -0.10000000000E+04  0.10000000000E+04  0.00000000000E+00 0.  1.
    9000005    2    1    2  501    0  0.35163693086E+01  0.10928464932E+02 -0.96775046934E+03  0.10195173881E+04  0.32053539195E+03 0.  0.
         13    1    3    3    0    0  0.14043312562E+03 -0.50220342433E+00 -0.23313901700E+03  0.27216817637E+03  0.00000000000E+00 0.  1.
          1    1    3    3  501    0 -0.13691675631E+03  0.11430668356E+02 -0.73461145234E+03  0.74734921171E+03  0.00000000000E+00 0.  1.
         21    1    1    2  502  501 -0.35163693086E+01 -0.10928464932E+02 -0.11903438796E+01  0.11541798709E+02  0.00000000000E+00 0. -1.
<mgrwt>
<rscale>  1 0.30000000E+03</rscale>
<asrwt>0</asrwt>
<pdfrwt beam="1">  1        1 0.11294274E+00 0.30000000E+03</pdfrwt>
<pdfrwt beam="2">0</pdfrwt>
<totfact> 0.28543256E+01</totfact>
</mgrwt>
</event>
<event>
 6    1  0.1904828E-004  0.3000000E+03  0.7818608E-02  0.1093470E+00
          1   -1    0    0  502    0  0.00000000000E+00  0.00000000000E+00  0.47054755529E+02  0.47054755529E+02  0.00000000000E+00 0.  1.
         13   -1    0    0    0    0 -0.00000000000E+00 -0.00000000000E+00 -0.10000000000E+04  0.10000000000E+04  0.00000000000E+00 0.  1.
    9000005    2    1    2  501    0 -0.68072928676E+02 -0.49108616207E+02 -0.86011861314E+03  0.92190539161E+03  0.32102950427E+03 0.  0.
         13    1    3    3    0    0 -0.16481704757E+03 -0.10903273269E+03 -0.37802670491E+03  0.42656416351E+03  0.00000000000E+00 0.  1.
          3    1    3    3  501    0  0.96744118893E+02  0.59924116483E+02 -0.48209190823E+03  0.49534122810E+03  0.00000000000E+00 0.  1.
         21    1    1    2  502  501  0.68072928676E+02  0.49108616207E+02 -0.92826631330E+02  0.12514936392E+03  0.00000000000E+00 0.  1.
<mgrwt>
<rscale>  1 0.30000000E+03</rscale>
<asrwt>0</asrwt>
<pdfrwt beam="1">  1        1 0.17110856E+00 0.30000000E+03</pdfrwt>
<pdfrwt beam="2">0</pdfrwt>
<totfact> 0.14110195E+01</totfact>
</mgrwt>
</event>
<event>
 6    1  0.1904828E-004  0.3000000E+03  0.7818608E-02  0.1093470E+00
          1   -1    0    0  502    0  0.00000000000E+00  0.00000000000E+00  0.35618413613E+02  0.35618413613E+02  0.00000000000E+00 0.  1.
         13   -1    0    0    0    0 -0.00000000000E+00 -0.00000000000E+00 -0.10000000000E+04  0.10000000000E+04  0.00000000000E+00 0.  1.
    9000005    2    1    2  501    0  0.10014016291E+02  0.11345688515E+02 -0.94248804665E+03  0.10090039015E+04  0.35996687361E+03 0.  0.
         13    1    3    3    0    0 -0.61297791352E+02 -0.16100206282E+03 -0.40688987234E+03  0.44185795417E+03  0.00000000000E+00 0.  1.
          3    1    3    3  501    0  0.71311807643E+02  0.17234775133E+03 -0.53559817431E+03  0.56714594738E+03  0.00000000000E+00 0.  1.
         21    1    1    2  502  501 -0.10014016291E+02 -0.11345688515E+02 -0.21893539740E+02  0.26614512066E+02  0.00000000000E+00 0.  1.
<mgrwt>
<rscale>  1 0.30000000E+03</rscale>
<asrwt>0</asrwt>
<pdfrwt beam="1">  1        1 0.12952178E+00 0.30000000E+03</pdfrwt>
<pdfrwt beam="2">0</pdfrwt>
<totfact> 0.23017493E+01</totfact>
</mgrwt>
</event>
<event>
 6    1  0.1904828E-004  0.3000000E+03  0.7818608E-02  0.1093470E+00
          1   -1    0    0  502    0  0.00000000000E+00  0.00000000000E+00  0.40756180529E+02  0.40756180529E+02  0.00000000000E+00 0.  1.
         13   -1    0    0    0    0 -0.00000000000E+00 -0.00000000000E+00 -0.10000000000E+04  0.10000000000E+04  0.00000000000E+00 0.  1.
    9000005    2    1    2  501    0  0.23867153776E+02 -0.43148581550E+01 -0.94522782993E+03  0.10127435585E+04  0.36277486927E+03 0.  0.
         13    1    3    3    0    0  0.14870399376E+03 -0.52846371106E+02 -0.19600004370E+03  0.25163790222E+03  0.00000000000E+00 0.  1.
          3    1    3    3  501    0 -0.12483683999E+03  0.48531512951E+02 -0.74922778623E+03  0.76110565628E+03  0.00000000000E+00 0.  1.
         21    1    1    2  502  501 -0.23867153776E+02  0.43148581550E+01 -0.14015989536E+02  0.28012622029E+02  0.00000000000E+00 0.  1.
<mgrwt>
<rscale>  1 0.30000000E+03</rscale>
<asrwt>0</asrwt>
<pdfrwt beam="1">  1        1 0.14820461E+00 0.30000000E+03</pdfrwt>
<pdfrwt beam="2">0</pdfrwt>
<totfact> 0.18347575E+01</totfact>
</mgrwt>
</event>
<event>
 6    1  0.1904828E-004  0.3000000E+03  0.7818608E-02  0.1093470E+00
          1   -1    0    0  502    0  0.00000000000E+00  0.00000000000E+00  0.65929296838E+02  0.65929296838E+02  0.00000000000E+00 0.  1.
         13   -1    0    0    0    0 -0.00000000000E+00 -0.00000000000E+00 -0.10000000000E+04  0.10000000000E+04  0.00000000000E+00 0.  1.
    9000005    2    1    2  501    0  0.48115663089E+01 -0.24633846081E+02 -0.96846914056E+03  0.10233472579E+04  0.32966218546E+03 0.  0.
         13    1    3    3    0    0 -0.15689541292E+03 -0.43984443516E+02 -0.39737919014E+03  0.42948925787E+03  0.00000000000E+00 0.  1.
          1    1    3    3  501    0  0.16170697922E+03  0.19350597435E+02 -0.57108995042E+03  0.59385800005E+03  0.00000000000E+00 0.  1.
         21    1    1    2  502  501 -0.48115663089E+01  0.24633846081E+02  0.34398437401E+02  0.42582038922E+02  0.00000000000E+00 0.  1.
<mgrwt>
<rscale>  1 0.30000000E+03</rscale>
<asrwt>0</asrwt>
<pdfrwt beam="1">  1        1 0.23974340E+00 0.30000000E+03</pdfrwt>
<pdfrwt beam="2">0</pdfrwt>
<totfact> 0.66622729E+00</totfact>
</mgrwt>
</event>
<event>
 6    1  0.1904828E-004  0.3000000E+03  0.7818608E-02  0.1093470E+00
          1   -1    0    0  502    0  0.00000000000E+00  0.00000000000E+00  0.33598487709E+02  0.33598487709E+02  0.00000000000E+00 0.  1.
         13   -1    0    0    0    0 -0.00000000000E+00 -0.00000000000E+00 -0.10000000000E+04  0.10000000000E+04  0.00000000000E+00 0.  1.
    9000005    2    1    2  501    0 -0.16968578044E+02 -0.14144793615E+02 -0.94495190461E+03  0.10028073608E+04  0.33496342039E+03 0.  0.
         13    1    3    3    0    0 -0.10598742400E+03 -0.38965171470E+02 -0.94212567168E+02  0.14706334161E+03  0.00000000000E+00 0.  1.
          3    1    3    3  501    0  0.89018845953E+02  0.24820377855E+02 -0.85073933744E+03  0.85574401918E+03  0.00000000000E+00 0.  1.
         21    1    1    2  502  501  0.16968578044E+02  0.14144793615E+02 -0.21449607682E+02  0.30791126919E+02  0.00000000000E+00 0. -1.
<mgrwt>
<rscale>  1 0.30000000E+03</rscale>
<asrwt>0</asrwt>
<pdfrwt beam="1">  1        1 0.12217658E+00 0.30000000E+03</pdfrwt>
<pdfrwt beam="2">0</pdfrwt>
<totfact> 0.25273042E+01</totfact>
</mgrwt>
</event>
<event>
 6    1  0.1904828E-004  0.3000000E+03  0.7818608E-02  0.1093470E+00
          1   -1    0    0  502    0  0.00000000000E+00  0.00000000000E+00  0.31807090437E+02  0.31807090437E+02  0.00000000000E+00 0.  1.
         13   -1    0    0    0    0 -0.00000000000E+00 -0.00000000000E+00 -0.10000000000E+04  0.10000000000E+04  0.00000000000E+00 0.  1.
    9000005    2    1    2  501    0 -0.16470482971E+02 -0.10518769801E+02 -0.80471943299E+03  0.86716961333E+03  0.32253348836E+03 0.  0.
         13    1    3    3    0    0  0.24664129542E+02 -0.10353244791E+03 -0.73777246045E+03  0.74540961253E+03  0.00000000000E+00 0.  1.
          3    1    3    3  501    0 -0.41134612514E+02  0.93013678105E+02 -0.66946972547E+02  0.12176000080E+03  0.00000000000E+00 0.  1.
         21    1    1    2  502  501  0.16470482971E+02  0.10518769801E+02 -0.16347347657E+03  0.16463747711E+03  0.00000000000E+00 0. -1.
<mgrwt>
<rscale>  1 0.30000000E+03</rscale>
<asrwt>0</asrwt>
<pdfrwt beam="1">  1        1 0.11566239E+00 0.30000000E+03</pdfrwt>
<pdfrwt beam="2">0</pdfrwt>
<totfact> 0.27522256E+01</totfact>
</mgrwt>
</event>
<event>
 6    1  0.1904828E-004  0.3000000E+03  0.7818608E-02  0.1093470E+00
          1   -1    0    0  502    0  0.00000000000E+00  0.00000000000E+00  0.35167730291E+02  0.35167730291E+02  0.00000000000E+00 0.  1.
         13   -1    0    0    0    0 -0.00000000000E+00 -0.00000000000E+00 -0.10000000000E+04  0.10000000000E+04  0.00000000000E+00 0.  1.
    9000005    2    1    2  501    0 -0.14451823631E+02  0.26372415406E+02 -0.95055651379E+03  0.10018787425E+04  0.31511738969E+03 0.  0.
         13    1    3    3    0    0  0.13602727448E+03 -0.32486061571E+02 -0.59680202740E+03  0.61296934956E+03  0.00000000000E+00 0.  1.
          1    1    3    3  501    0 -0.15047909811E+03  0.58858476977E+02 -0.35375448639E+03  0.38890939294E+03  0.00000000000E+00 0.  1.
         21    1    1    2  502  501  0.14451823631E+02 -0.26372415406E+02 -0.14275755922E+02  0.33288987786E+02  0.00000000000E+00 0.  1.
<mgrwt>
<rscale>  1 0.30000000E+03</rscale>
<asrwt>0</asrwt>
<pdfrwt beam="1">  1        1 0.12788293E+00 0.30000000E+03</pdfrwt>
<pdfrwt beam="2">0</pdfrwt>
<totfact> 0.23497649E+01</totfact>
</mgrwt>
</event>
<event>
 6    1  0.1904828E-004  0.3000000E+03  0.7818608E-02  0.1093470E+00
          1   -1    0    0  502    0  0.00000000000E+00  0.00000000000E+00  0.34173212292E+02  0.34173212292E+02  0.00000000000E+00 0.  1.
         13   -1    0    0    0    0 -0.00000000000E+00 -0.00000000000E+00 -0.10000000000E+04  0.10000000000E+04  0.00000000000E+00 0.  1.
    9000005    2    1    2  501    0  0.14642749719E+02  0.16990562487E+02 -0.95928043697E+03  0.10108077668E+04  0.31782116894E+03 0.  0.
         13    1    3    3    0    0  0.60233989480E+02 -0.11873143849E+03 -0.21501935573E+03  0.25290039801E+03  0.00000000000E+00 0.  1.
          3    1    3    3  501    0 -0.45591239760E+02  0.13572200097E+03 -0.74426108124E+03  0.75790736883E+03  0.00000000000E+00 0.  1.
         21    1    1    2  502  501 -0.14642749719E+02 -0.16990562487E+02 -0.65463507389E+01  0.23365445448E+02  0.00000000000E+00 0.  1.
<mgrwt>
<rscale>  1 0.30000000E+03</rscale>
<asrwt>0</asrwt>
<pdfrwt beam="1">  1        1 0.12426649E+00 0.30000000E+03</pdfrwt>
<pdfrwt beam="2">0</pdfrwt>
<totfact> 0.24603508E+01</totfact>
</mgrwt>
</event>
<event>
 6    1  0.1904828E-004  0.3000000E+03  0.7818608E-02  0.1093470E+00
          1   -1    0    0  502    0  0.00000000000E+00  0.00000000000E+00  0.28256714908E+02  0.28256714908E+02  0.00000000000E+00 0.  1.
         13   -1    0    0    0    0 -0.00000000000E+00 -0.00000000000E+00 -0.10000000000E+04  0.10000000000E+04  0.00000000000E+00 0.  1.
    9000005    2    1    2  501    0 -0.65048158616E+01  0.17902908282E+02 -0.86130208571E+03  0.91618492865E+03  0.31175425239E+03 0.  0.
         13    1    3    3    0    0 -0.14535014060E+03  0.82890859876E+01 -0.25056150949E+03  0.28978689128E+03  0.00000000000E+00 0.  1.
          1    1    3    3  501    0  0.13884532474E+03  0.96138222941E+01 -0.61074057622E+03  0.62639803737E+03  0.00000000000E+00 0.  1.
         21    1    1    2  502  501  0.65048158616E+01 -0.17902908282E+02 -0.11044119938E+03  0.11207178626E+03  0.00000000000E+00 0.  1.
<mgrwt>
<rscale>  1 0.30000000E+03</rscale>
<asrwt>0</asrwt>
<pdfrwt beam="1">  1        1 0.10275191E+00 0.30000000E+03</pdfrwt>
<pdfrwt beam="2">0</pdfrwt>
<totfact> 0.32889462E+01</totfact>
</mgrwt>
</event>
<event>
 6    1  0.1904828E-004  0.3000000E+03  0.7818608E-02  0.1093470E+00
          1   -1    0    0  502    0  0.00000000000E+00  0.00000000000E+00  0.65487058596E+02  0.65487058596E+02  0.00000000000E+00 0.  1.
         13   -1    0    0    0    0 -0.00000000000E+00 -0.00000000000E+00 -0.10000000000E+04  0.10000000000E+04  0.00000000000E+00 0.  1.
    9000005    2    1    2  501    0 -0.39913811478E+02  0.32713886060E+02 -0.96106824080E+03  0.10074483249E+04  0.29771908418E+03 0.  0.
         13    1    3    3    0    0  0.23872083798E+01  0.26273387237E+02 -0.96418556016E+03  0.96454641364E+03  0.00000000000E+00 0.  1.
          1    1    3    3  501    0 -0.42301019857E+02  0.64404988232E+01  0.31173193578E+01  0.42901911217E+02  0.00000000000E+00 0.  1.
         21    1    1    2  502  501  0.39913811478E+02 -0.32713886060E+02  0.26555299400E+02  0.58038733739E+02  0.00000000000E+00 0.  1.
<mgrwt>
<rscale>  1 0.30000000E+03</rscale>
<asrwt>0</asrwt>
<pdfrwt beam="1">  1        1 0.23813526E+00 0.30000000E+03</pdfrwt>
<pdfrwt beam="2">0</pdfrwt>
<totfact> 0.67789553E+00</totfact>
</mgrwt>
</event>
<event>
 6    1  0.1904828E-004  0.3000000E+03  0.7818608E-02  0.1093470E+00
          1   -1    0    0  502    0  0.00000000000E+00  0.00000000000E+00  0.33364997063E+02  0.33364997063E+02  0.00000000000E+00 0.  1.
         13   -1    0    0    0    0 -0.00000000000E+00 -0.00000000000E+00 -0.10000000000E+04  0.10000000000E+04  0.00000000000E+00 0.  1.
    9000005    2    1    2  501    0 -0.14995597119E+02 -0.94187160653E+00 -0.96601731577E+03  0.10183271584E+04  0.32183068849E+03 0.  0.
         13    1    3    3    0    0  0.10045620687E+03  0.58277362683E+02 -0.13872272762E+03  0.18091903067E+03  0.00000000000E+00 0.  1.
          3    1    3    3  501    0 -0.11545180399E+03 -0.59219234289E+02 -0.82729458815E+03  0.83740812770E+03  0.00000000000E+00 0.  1.
         21    1    1    2  502  501  0.14995597119E+02  0.94187160653E+00 -0.61768716747E+00  0.15037838692E+02  0.00000000000E+00 0. -1.
<mgrwt>
<rscale>  1 0.30000000E+03</rscale>
<asrwt>0</asrwt>
<pdfrwt beam="1">  1        1 0.12132752E+00 0.30000000E+03</pdfrwt>
<pdfrwt beam="2">0</pdfrwt>
<totfact> 0.25551858E+01</totfact>
</mgrwt>
</event>
<event>
 6    1  0.1904828E-004  0.3000000E+03  0.7818608E-02  0.1093470E+00
          3   -1    0    0  502    0  0.00000000000E+00  0.00000000000E+00  0.33638400805E+02  0.33638400805E+02  0.00000000000E+00 0.  1.
         13   -1    0    0    0    0 -0.00000000000E+00 -0.00000000000E+00 -0.10000000000E+04  0.10000000000E+04  0.00000000000E+00 0.  1.
    9000005    2    1    2  501    0 -0.20180116219E+01  0.20721710032E+02 -0.95747996946E+03  0.10110033619E+04  0.32392351613E+03 0.  0.
         13    1    3    3    0    0  0.70400521067E+02  0.51209742307E+02 -0.91971242390E+03  0.92382336718E+03  0.00000000000E+00 0.  1.
          3    1    3    3  501    0 -0.72418532689E+02 -0.30488032275E+02 -0.37767545559E+02  0.87179994760E+02  0.00000000000E+00 0.  1.
         21    1    1    2  502  501  0.20180116219E+01 -0.20721710032E+02 -0.88816297358E+01  0.22635038863E+02  0.00000000000E+00 0.  1.
<mgrwt>
<rscale>  1 0.30000000E+03</rscale>
<asrwt>0</asrwt>
<pdfrwt beam="1">  1        3 0.12232172E+00 0.30000000E+03</pdfrwt>
<pdfrwt beam="2">0</pdfrwt>
<totfact> 0.21738298E+00</totfact>
</mgrwt>
</event>
<event>
 6    1  0.1904828E-004  0.3000000E+03  0.7818608E-02  0.1093470E+00
          1   -1    0    0  502    0  0.00000000000E+00  0.00000000000E+00  0.31124411647E+02  0.31124411647E+02  0.00000000000E+00 0.  1.
         13   -1    0    0    0    0 -0.00000000000E+00 -0.00000000000E+00 -0.10000000000E+04  0.10000000000E+04  0.00000000000E+00 0.  1.
    9000005    2    1    2  501    0 -0.13016632584E+02 -0.66751042894E+01 -0.95500569467E+03  0.10109659471E+04  0.33136427033E+03 0.  0.
         13    1    3    3    0    0 -0.16220037337E+03  0.78358224839E+01 -0.66470604909E+03  0.68425469887E+03  0.00000000000E+00 0.  1.
          1    1    3    3  501    0  0.14918374078E+03 -0.14510926773E+02 -0.29029964558E+03  0.32671124825E+03  0.00000000000E+00 0.  1.
         21    1    1    2  502  501  0.13016632584E+02  0.66751042894E+01 -0.13869893685E+02  0.20158464523E+02  0.00000000000E+00 0.  1.
<mgrwt>
<rscale>  1 0.30000000E+03</rscale>
<asrwt>0</asrwt>
<pdfrwt beam="1">  1        1 0.11317992E+00 0.30000000E+03</pdfrwt>
<pdfrwt beam="2">0</pdfrwt>
<totfact> 0.28452098E+01</totfact>
</mgrwt>
</event>
<event>
 6    1  0.1904828E-004  0.3000000E+03  0.7818608E-02  0.1093470E+00
          1   -1    0    0  502    0  0.00000000000E+00  0.00000000000E+00  0.39100169371E+02  0.39100169371E+02  0.00000000000E+00 0.  1.
         13   -1    0    0    0    0 -0.00000000000E+00 -0.00000000000E+00 -0.10000000000E+04  0.10000000000E+04  0.00000000000E+00 0.  1.
    9000005    2    1    2  501    0 -0.10319565747E+02  0.10947019606E+02 -0.96991289357E+03  0.10215626103E+04  0.32036356680E+03 0.  0.
         13    1    3    3    0    0 -0.12144195433E+03  0.10161648361E+03 -0.67897980491E+03  0.69719985190E+03  0.00000000000E+00 0.  1.
          1    1    3    3  501    0  0.11112238859E+03 -0.90669464001E+02 -0.29093308866E+03  0.32436275838E+03  0.00000000000E+00 0.  1.
         21    1    1    2  502  501  0.10319565747E+02 -0.10947019606E+02  0.90130629380E+01  0.17537559094E+02  0.00000000000E+00 0.  1.
<mgrwt>
<rscale>  1 0.30000000E+03</rscale>
<asrwt>0</asrwt>
<pdfrwt beam="1">  1        1 0.14218273E+00 0.30000000E+03</pdfrwt>
<pdfrwt beam="2">0</pdfrwt>
<totfact> 0.19707842E+01</totfact>
</mgrwt>
</event>
<event>
 6    1  0.1904828E-004  0.3000000E+03  0.7818608E-02  0.1093470E+00
          1   -1    0    0  502    0  0.00000000000E+00  0.00000000000E+00  0.54269527044E+02  0.54269527044E+02  0.00000000000E+00 0.  1.
         13   -1    0    0    0    0 -0.00000000000E+00 -0.00000000000E+00 -0.10000000000E+04  0.10000000000E+04  0.00000000000E+00 0.  1.
    9000005    2    1    2  501    0 -0.58301304813E+02 -0.23814082059E+02 -0.93398089485E+03  0.99020545573E+03  0.32283181376E+03 0.  0.
         13    1    3    3    0    0 -0.85869814462E+02  0.27952007609E+02 -0.47968757271E+02  0.10225429790E+03  0.00000000000E+00 0.  1.
          1    1    3    3  501    0  0.27568509649E+02 -0.51766089668E+02 -0.88601213758E+03  0.88795115783E+03  0.00000000000E+00 0.  1.
         21    1    1    2  502  501  0.58301304813E+02  0.23814082059E+02 -0.11749578109E+02  0.64064071311E+02  0.00000000000E+00 0.  1.
<mgrwt>
<rscale>  1 0.30000000E+03</rscale>
<asrwt>0</asrwt>
<pdfrwt beam="1">  1        1 0.19734415E+00 0.30000000E+03</pdfrwt>
<pdfrwt beam="2">0</pdfrwt>
<totfact> 0.10545786E+01</totfact>
</mgrwt>
</event>
<event>
 6    1  0.1904828E-004  0.3000000E+03  0.7818608E-02  0.1093470E+00
          1   -1    0    0  502    0  0.00000000000E+00  0.00000000000E+00  0.44684978000E+02  0.44684978000E+02  0.00000000000E+00 0.  1.
         13   -1    0    0    0    0 -0.00000000000E+00 -0.00000000000E+00 -0.10000000000E+04  0.10000000000E+04  0.00000000000E+00 0.  1.
    9000005    2    1    2  501    0 -0.29267418481E+02 -0.54209856290E+02 -0.91116051031E+03  0.96888978550E+03  0.32363351278E+03 0.  0.
         13    1    3    3    0    0 -0.24702714233E+02 -0.56151394535E+02 -0.37433409409E+01  0.61459057917E+02  0.00000000000E+00 0.  1.
          1    1    3    3  501    0 -0.45647042476E+01  0.19415382443E+01 -0.90741716937E+03  0.90743072758E+03  0.00000000000E+00 0.  1.
         21    1    1    2  502  501  0.29267418481E+02  0.54209856290E+02 -0.44154511692E+02  0.75795192501E+02  0.00000000000E+00 0.  1.
<mgrwt>
<rscale>  1 0.30000000E+03</rscale>
<asrwt>0</asrwt>
<pdfrwt beam="1">  1        1 0.16249117E+00 0.30000000E+03</pdfrwt>
<pdfrwt beam="2">0</pdfrwt>
<totfact> 0.15554472E+01</totfact>
</mgrwt>
</event>
<event>
 6    1  0.1904828E-004  0.3000000E+03  0.7818608E-02  0.1093470E+00
          1   -1    0    0  502    0  0.00000000000E+00  0.00000000000E+00  0.55449159786E+02  0.55449159786E+02  0.00000000000E+00 0.  1.
         13   -1    0    0    0    0 -0.00000000000E+00 -0.00000000000E+00 -0.10000000000E+04  0.10000000000E+04  0.00000000000E+00 0.  1.
    9000005    2    1    2  501    0 -0.30753262676E+02 -0.35043292416E+01 -0.96574025161E+03  0.10179386993E+04  0.32029192704E+03 0.  0.
         13    1    3    3    0    0 -0.16226306377E+03 -0.41019451854E+02 -0.69182709080E+03  0.71178411114E+03  0.00000000000E+00 0.  1.
          3    1    3    3  501    0  0.13150980110E+03  0.37515122612E+02 -0.27391316080E+03  0.30615458819E+03  0.00000000000E+00 0.  1.
         21    1    1    2  502  501  0.30753262676E+02  0.35043292416E+01  0.21189411393E+02  0.37510460459E+02  0.00000000000E+00 0.  1.
<mgrwt>
<rscale>  1 0.30000000E+03</rscale>
<asrwt>0</asrwt>
<pdfrwt beam="1">  1        1 0.20163373E+00 0.30000000E+03</pdfrwt>
<pdfrwt beam="2">0</pdfrwt>
<totfact> 0.10061953E+01</totfact>
</mgrwt>
</event>
<event>
 6    1  0.1904828E-004  0.3000000E+03  0.7818608E-02  0.1093470E+00
          1   -1    0    0  502    0  0.00000000000E+00  0.00000000000E+00  0.30874062356E+02  0.30874062356E+02  0.00000000000E+00 0.  1.
         13   -1    0    0    0    0 -0.00000000000E+00 -0.00000000000E+00 -0.10000000000E+04  0.10000000000E+04  0.00000000000E+00 0.  1.
    9000005    2    1    2  501    0 -0.27600829890E+01 -0.12127927451E+02 -0.96552555581E+03  0.10179254164E+04  0.32214569650E+03 0.  0.
         13    1    3    3    0    0  0.74244162331E+02 -0.13083008897E+03 -0.71077527215E+03  0.72651923259E+03  0.00000000000E+00 0.  1.
          3    1    3    3  501    0 -0.77004245320E+02  0.11870216152E+03 -0.25475028366E+03  0.29140618383E+03  0.00000000000E+00 0.  1.
         21    1    1    2  502  501  0.27600829890E+01  0.12127927451E+02 -0.36003818288E+01  0.12948645939E+02  0.00000000000E+00 0. -1.
<mgrwt>
<rscale>  1 0.30000000E+03</rscale>
<asrwt>0</asrwt>
<pdfrwt beam="1">  1        1 0.11226955E+00 0.30000000E+03</pdfrwt>
<pdfrwt beam="2">0</pdfrwt>
<totfact> 0.28804270E+01</totfact>
</mgrwt>
</event>
<event>
 6    1  0.1904828E-004  0.3000000E+03  0.7818608E-02  0.1093470E+00
          1   -1    0    0  502    0  0.00000000000E+00  0.00000000000E+00  0.33724165535E+02  0.33724165535E+02  0.00000000000E+00 0.  1.
         13   -1    0    0    0    0 -0.00000000000E+00 -0.00000000000E+00 -0.10000000000E+04  0.10000000000E+04  0.00000000000E+00 0.  1.
    9000005    2    1    2  501    0  0.28338711837E+02  0.79909222205E+01 -0.94216282135E+03  0.99566664554E+03  0.32064676778E+03 0.  0.
         13    1    3    3    0    0 -0.39868450534E+02 -0.65673115739E+02 -0.37572879676E+02  0.85522937075E+02  0.00000000000E+00 0.  1.
          1    1    3    3  501    0  0.68207162370E+02  0.73664037959E+02 -0.90458994167E+03  0.91014370846E+03  0.00000000000E+00 0.  1.
         21    1    1    2  502  501 -0.28338711837E+02 -0.79909222205E+01 -0.24113013120E+02  0.38057519995E+02  0.00000000000E+00 0.  1.
<mgrwt>
<rscale>  1 0.30000000E+03</rscale>
<asrwt>0</asrwt>
<pdfrwt beam="1">  1        1 0.12263359E+00 0.30000000E+03</pdfrwt>
<pdfrwt beam="2">0</pdfrwt>
<totfact> 0.25124623E+01</totfact>
</mgrwt>
</event>
<event>
 6    1  0.1904828E-004  0.3000000E+03  0.7818608E-02  0.1093470E+00
          1   -1    0    0  502    0  0.00000000000E+00  0.00000000000E+00  0.27244365919E+02  0.27244365919E+02  0.00000000000E+00 0.  1.
         13   -1    0    0    0    0 -0.00000000000E+00 -0.00000000000E+00 -0.10000000000E+04  0.10000000000E+04  0.00000000000E+00 0.  1.
    9000005    2    1    2  501    0  0.96339923646E+01  0.29586088027E+01 -0.96591291574E+03  0.10150628238E+04  0.31187049913E+03 0.  0.
         13    1    3    3    0    0  0.66389324625E+02  0.14419072197E+03 -0.45077878809E+03  0.47791214937E+03  0.00000000000E+00 0.  1.
          3    1    3    3  501    0 -0.56755332260E+02 -0.14123211317E+03 -0.51513412765E+03  0.53715067439E+03  0.00000000000E+00 0.  1.
         21    1    1    2  502  501 -0.96339923646E+01 -0.29586088027E+01 -0.68427183450E+01  0.12181542155E+02  0.00000000000E+00 0.  1.
<mgrwt>
<rscale>  1 0.30000000E+03</rscale>
<asrwt>0</asrwt>
<pdfrwt beam="1">  1        1 0.99070630E-01 0.30000000E+03</pdfrwt>
<pdfrwt beam="2">0</pdfrwt>
<totfact> 0.34696737E+01</totfact>
</mgrwt>
</event>
<event>
 6    1  0.1904828E-004  0.3000000E+03  0.7818608E-02  0.1093470E+00
          1   -1    0    0  502    0  0.00000000000E+00  0.00000000000E+00  0.27397978345E+02  0.27397978345E+02  0.00000000000E+00 0.  1.
         13   -1    0    0    0    0 -0.00000000000E+00 -0.00000000000E+00 -0.10000000000E+04  0.10000000000E+04  0.00000000000E+00 0.  1.
    9000005    2    1    2  501    0  0.86862074981E+01 -0.31054946688E+01 -0.93823498136E+03  0.99181444625E+03  0.32144349619E+03 0.  0.
         13    1    3    3    0    0  0.24836199283E+02 -0.11744271535E+03 -0.13636489427E+03  0.18167281737E+03  0.00000000000E+00 0.  1.
          1    1    3    3  501    0 -0.16149991785E+02  0.11433722068E+03 -0.80187008709E+03  0.81014162888E+03  0.00000000000E+00 0.  1.
         21    1    1    2  502  501 -0.86862074981E+01  0.31054946688E+01 -0.34367040295E+02  0.35583532097E+02  0.00000000000E+00 0. -1.
<mgrwt>
<rscale>  1 0.30000000E+03</rscale>
<asrwt>0</asrwt>
<pdfrwt beam="1">  1        1 0.99629222E-01 0.30000000E+03</pdfrwt>
<pdfrwt beam="2">0</pdfrwt>
<totfact> 0.34413244E+01</totfact>
</mgrwt>
</event>
<event>
 6    1  0.1904828E-004  0.3000000E+03  0.7818608E-02  0.1093470E+00
          1   -1    0    0  502    0  0.00000000000E+00  0.00000000000E+00  0.29987165067E+02  0.29987165067E+02  0.00000000000E+00 0.  1.
         13   -1    0    0    0    0 -0.00000000000E+00 -0.00000000000E+00 -0.10000000000E+04  0.10000000000E+04  0.00000000000E+00 0.  1.
    9000005    2    1    2  501    0  0.11042404031E+02 -0.23637317169E+01 -0.95798842505E+03  0.10134914581E+04  0.33059883735E+03 0.  0.
         13    1    3    3    0    0 -0.53468905290E+01  0.13162243919E+03 -0.77492739840E+03  0.78604422810E+03  0.00000000000E+00 0.  1.
          3    1    3    3  501    0  0.16389294560E+02 -0.13398617090E+03 -0.18306102665E+03  0.22744723003E+03  0.00000000000E+00 0.  1.
         21    1    1    2  502  501 -0.11042404031E+02  0.23637317169E+01 -0.12024409885E+02  0.16495706941E+02  0.00000000000E+00 0.  1.
<mgrwt>
<rscale>  1 0.30000000E+03</rscale>
<asrwt>0</asrwt>
<pdfrwt beam="1">  1        1 0.10904447E+00 0.30000000E+03</pdfrwt>
<pdfrwt beam="2">0</pdfrwt>
<totfact> 0.30102915E+01</totfact>
</mgrwt>
</event>
<event>
 6    1  0.1904828E-004  0.3000000E+03  0.7818608E-02  0.1093470E+00
          1   -1    0    0  502    0  0.00000000000E+00  0.00000000000E+00  0.31705321068E+02  0.31705321068E+02  0.00000000000E+00 0.  1.
         13   -1    0    0    0    0 -0.00000000000E+00 -0.00000000000E+00 -0.10000000000E+04  0.10000000000E+04  0.00000000000E+00 0.  1.
    9000005    2    1    2  501    0 -0.19919671455E+02  0.94765279469E+00 -0.94951280989E+03  0.10043109793E+04  0.32660109557E+03 0.  0.
         13    1    3    3    0    0  0.11967269196E+03 -0.35345043376E+02 -0.16620009687E+03  0.20782997255E+03  0.00000000000E+00 0.  1.
          1    1    3    3  501    0 -0.13959236341E+03  0.36292696171E+02 -0.78331271301E+03  0.79648100673E+03  0.00000000000E+00 0.  1.
         21    1    1    2  502  501  0.19919671455E+02 -0.94765279469E+00 -0.18781869047E+02  0.27394341780E+02  0.00000000000E+00 0.  1.
<mgrwt>
<rscale>  1 0.30000000E+03</rscale>
<asrwt>0</asrwt>
<pdfrwt beam="1">  1        1 0.11529232E+00 0.30000000E+03</pdfrwt>
<pdfrwt beam="2">0</pdfrwt>
<totfact> 0.27658134E+01</totfact>
</mgrwt>
</event>
<event>
 6    1  0.1904828E-004  0.3000000E+03  0.7818608E-02  0.1093470E+00
          1   -1    0    0  502    0  0.00000000000E+00  0.00000000000E+00  0.34558965758E+02  0.34558965758E+02  0.00000000000E+00 0.  1.
         13   -1    0    0    0    0 -0.00000000000E+00 -0.00000000000E+00 -0.10000000000E+04  0.10000000000E+04  0.00000000000E+00 0.  1.
    9000005    2    1    2  501    0  0.31793343793E+01  0.13469836835E+02 -0.97316560679E+03  0.10187092436E+04  0.30087485784E+03 0.  0.
         13    1    3    3    0    0 -0.19981520393E+02  0.13340178243E+03 -0.23888245997E+03  0.27433579131E+03  0.00000000000E+00 0.  1.
          3    1    3    3  501    0  0.23160854773E+02 -0.11993194559E+03 -0.73428314682E+03  0.74437345229E+03  0.00000000000E+00 0.  1.
         21    1    1    2  502  501 -0.31793343793E+01 -0.13469836835E+02  0.77245725489E+01  0.15849722159E+02  0.00000000000E+00 0. -1.
<mgrwt>
<rscale>  1 0.30000000E+03</rscale>
<asrwt>0</asrwt>
<pdfrwt beam="1">  1        1 0.12566923E+00 0.30000000E+03</pdfrwt>
<pdfrwt beam="2">0</pdfrwt>
<totfact> 0.24166860E+01</totfact>
</mgrwt>
</event>
<event>
 6    1  0.1904828E-004  0.3000000E+03  0.7818608E-02  0.1093470E+00
          1   -1    0    0  502    0  0.00000000000E+00  0.00000000000E+00  0.33202479514E+02  0.33202479514E+02  0.00000000000E+00 0.  1.
         13   -1    0    0    0    0 -0.00000000000E+00 -0.00000000000E+00 -0.10000000000E+04  0.10000000000E+04  0.00000000000E+00 0.  1.
    9000005    2    1    2  501    0  0.19786622584E+02 -0.33435730146E+02 -0.90616475673E+03  0.96119004639E+03  0.31818592121E+03 0.  0.
         13    1    3    3    0    0 -0.45774056798E+02  0.38910078739E+02 -0.11442987197E+02  0.61157178313E+02  0.00000000000E+00 0.  1.
          1    1    3    3  501    0  0.65560679382E+02 -0.72345808886E+02 -0.89472176953E+03  0.90003286807E+03  0.00000000000E+00 0.  1.
         21    1    1    2  502  501 -0.19786622584E+02  0.33435730146E+02 -0.60632763760E+02  0.72012433127E+02  0.00000000000E+00 0.  1.
<mgrwt>
<rscale>  1 0.30000000E+03</rscale>
<asrwt>0</asrwt>
<pdfrwt beam="1">  1        1 0.12073654E+00 0.30000000E+03</pdfrwt>
<pdfrwt beam="2">0</pdfrwt>
<totfact> 0.25748329E+01</totfact>
</mgrwt>
</event>
<event>
 6    1  0.1904828E-004  0.3000000E+03  0.7818608E-02  0.1093470E+00
          1   -1    0    0  502    0  0.00000000000E+00  0.00000000000E+00  0.42050801373E+02  0.42050801373E+02  0.00000000000E+00 0.  1.
         13   -1    0    0    0    0 -0.00000000000E+00 -0.00000000000E+00 -0.10000000000E+04  0.10000000000E+04  0.00000000000E+00 0.  1.
    9000005    2    1    2  501    0  0.17886569116E+02  0.56159055556E+02 -0.89854927847E+03  0.95837213390E+03  0.32804355247E+03 0.  0.
         13    1    3    3    0    0 -0.10608924074E+03  0.82256593996E+02 -0.75529379185E+03  0.76713087949E+03  0.00000000000E+00 0.  1.
          3    1    3    3  501    0  0.12397580986E+03 -0.26097538440E+02 -0.14325548662E+03  0.19124125441E+03  0.00000000000E+00 0.  1.
         21    1    1    2  502  501 -0.17886569116E+02 -0.56159055556E+02 -0.59399920154E+02  0.83678667472E+02  0.00000000000E+00 0. -1.
<mgrwt>
<rscale>  1 0.30000000E+03</rscale>
<asrwt>0</asrwt>
<pdfrwt beam="1">  1        1 0.15291233E+00 0.30000000E+03</pdfrwt>
<pdfrwt beam="2">0</pdfrwt>
<totfact> 0.17365021E+01</totfact>
</mgrwt>
</event>
<event>
 6    1  0.1904828E-004  0.3000000E+03  0.7818608E-02  0.1093470E+00
          1   -1    0    0  502    0  0.00000000000E+00  0.00000000000E+00  0.30712980306E+02  0.30712980306E+02  0.00000000000E+00 0.  1.
         13   -1    0    0    0    0 -0.00000000000E+00 -0.00000000000E+00 -0.10000000000E+04  0.10000000000E+04  0.00000000000E+00 0.  1.
    9000005    2    1    2  501    0  0.13073173542E+01  0.13606163421E+02 -0.96095765343E+03  0.10147062597E+04  0.32558001330E+03 0.  0.
         13    1    3    3    0    0  0.92280715141E+02 -0.11467588967E+03 -0.64737225519E+03  0.66389541861E+03  0.00000000000E+00 0.  1.
          1    1    3    3  501    0 -0.90973397787E+02  0.12828205309E+03 -0.31358539824E+03  0.35081084111E+03  0.00000000000E+00 0.  1.
         21    1    1    2  502  501 -0.13073173542E+01 -0.13606163421E+02 -0.83293662668E+01  0.16006720592E+02  0.00000000000E+00 0. -1.
<mgrwt>
<rscale>  1 0.30000000E+03</rscale>
<asrwt>0</asrwt>
<pdfrwt beam="1">  1        1 0.11168380E+00 0.30000000E+03</pdfrwt>
<pdfrwt beam="2">0</pdfrwt>
<totfact> 0.29034166E+01</totfact>
</mgrwt>
</event>
<event>
 6    1  0.1904828E-004  0.3000000E+03  0.7818608E-02  0.1093470E+00
          1   -1    0    0  502    0  0.00000000000E+00  0.00000000000E+00  0.39833143928E+02  0.39833143928E+02  0.00000000000E+00 0.  1.
         13   -1    0    0    0    0 -0.00000000000E+00 -0.00000000000E+00 -0.10000000000E+04  0.10000000000E+04  0.00000000000E+00 0.  1.
    9000005    2    1    2  501    0 -0.44448291388E+02 -0.11642751347E+01 -0.92562818493E+03  0.98353104851E+03  0.32949777010E+03 0.  0.
         13    1    3    3    0    0 -0.80978560349E+02  0.74480543293E+01 -0.29330844648E+02  0.86448245773E+02  0.00000000000E+00 0.  1.
          3    1    3    3  501    0  0.36530268961E+02 -0.86123294640E+01 -0.89629734029E+03  0.89708280274E+03  0.00000000000E+00 0.  1.
         21    1    1    2  502  501  0.44448291388E+02  0.11642751347E+01 -0.34538671138E+02  0.56302095413E+02  0.00000000000E+00 0. -1.
<mgrwt>
<rscale>  1 0.30000000E+03</rscale>
<asrwt>0</asrwt>
<pdfrwt beam="1">  1        1 0.14484810E+00 0.30000000E+03</pdfrwt>
<pdfrwt beam="2">0</pdfrwt>
<totfact> 0.19090629E+01</totfact>
</mgrwt>
</event>
<event>
 6    1  0.1904828E-004  0.3000000E+03  0.7818608E-02  0.1093470E+00
          1   -1    0    0  502    0  0.00000000000E+00  0.00000000000E+00  0.36475715991E+02  0.36475715991E+02  0.00000000000E+00 0.  1.
         13   -1    0    0    0    0 -0.00000000000E+00 -0.00000000000E+00 -0.10000000000E+04  0.10000000000E+04  0.00000000000E+00 0.  1.
    9000005    2    1    2  501    0  0.43382222752E+02 -0.44318985159E+01 -0.92185682801E+03  0.97616124124E+03  0.31807090180E+03 0.  0.
         13    1    3    3    0    0  0.17414049034E+03  0.25052540106E+02 -0.64498574415E+03  0.66855003575E+03  0.00000000000E+00 0.  1.
          1    1    3    3  501    0 -0.13075826759E+03 -0.29484438622E+02 -0.27687108386E+03  0.30761120548E+03  0.00000000000E+00 0.  1.
         21    1    1    2  502  501 -0.43382222752E+02  0.44318985159E+01 -0.41667456000E+02  0.60314474754E+02  0.00000000000E+00 0. -1.
<mgrwt>
<rscale>  1 0.30000000E+03</rscale>
<asrwt>0</asrwt>
<pdfrwt beam="1">  1        1 0.13263925E+00 0.30000000E+03</pdfrwt>
<pdfrwt beam="2">0</pdfrwt>
<totfact> 0.22138780E+01</totfact>
</mgrwt>
</event>
<event>
 6    1  0.1904828E-004  0.3000000E+03  0.7818608E-02  0.1093470E+00
          1   -1    0    0  502    0  0.00000000000E+00  0.00000000000E+00  0.71866575478E+02  0.71866575478E+02  0.00000000000E+00 0.  1.
         13   -1    0    0    0    0 -0.00000000000E+00 -0.00000000000E+00 -0.10000000000E+04  0.10000000000E+04  0.00000000000E+00 0.  1.
    9000005    2    1    2  501    0 -0.76227956785E+02 -0.64796313928E+02 -0.90663789868E+03  0.96953710111E+03  0.32863451949E+03 0.  0.
         13    1    3    3    0    0  0.14107613865E+02  0.28615653280E+01  0.26201264715E+02  0.29895143381E+02  0.00000000000E+00 0.  1.
          1    1    3    3  501    0 -0.90335570650E+02 -0.67657879256E+02 -0.93283916340E+03  0.93964195772E+03  0.00000000000E+00 0.  1.
         21    1    1    2  502  501  0.76227956785E+02  0.64796313928E+02 -0.21495525840E+02  0.10232947437E+03  0.00000000000E+00 0.  1.
<mgrwt>
<rscale>  1 0.30000000E+03</rscale>
<asrwt>0</asrwt>
<pdfrwt beam="1">  1        1 0.26133355E+00 0.30000000E+03</pdfrwt>
<pdfrwt beam="2">0</pdfrwt>
<totfact> 0.52815523E+00</totfact>
</mgrwt>
</event>
<event>
 6    1  0.1904828E-004  0.3000000E+03  0.7818608E-02  0.1093470E+00
          1   -1    0    0  502    0  0.00000000000E+00  0.00000000000E+00  0.83389821383E+02  0.83389821383E+02  0.00000000000E+00 0.  1.
         13   -1    0    0    0    0 -0.00000000000E+00 -0.00000000000E+00 -0.10000000000E+04  0.10000000000E+04  0.00000000000E+00 0.  1.
    9000005    2    1    2  501    0  0.78164510961E+02 -0.89738494258E+02 -0.90477950133E+03  0.96379612151E+03  0.31002311152E+03 0.  0.
         13    1    3    3    0    0 -0.73451681014E+02 -0.13851580049E+03 -0.59705669015E+03  0.61729933394E+03  0.00000000000E+00 0.  1.
          1    1    3    3  501    0  0.15161619197E+03  0.48777306237E+02 -0.30772281118E+03  0.34649678757E+03  0.00000000000E+00 0.  1.
         21    1    1    2  502  501 -0.78164510961E+02  0.89738494258E+02 -0.11830677287E+02  0.11959369988E+03  0.00000000000E+00 0.  1.
<mgrwt>
<rscale>  1 0.30000000E+03</rscale>
<asrwt>0</asrwt>
<pdfrwt beam="1">  1        1 0.30323635E+00 0.30000000E+03</pdfrwt>
<pdfrwt beam="2">0</pdfrwt>
<totfact> 0.33535243E+00</totfact>
</mgrwt>
</event>
<event>
 6    1  0.1904828E-004  0.3000000E+03  0.7818608E-02  0.1093470E+00
          1   -1    0    0  502    0  0.00000000000E+00  0.00000000000E+00  0.27842066666E+02  0.27842066666E+02  0.00000000000E+00 0.  1.
         13   -1    0    0    0    0 -0.00000000000E+00 -0.00000000000E+00 -0.10000000000E+04  0.10000000000E+04  0.00000000000E+00 0.  1.
    9000005    2    1    2  501    0  0.99652151738E+01 -0.55207352739E+01 -0.93347899732E+03  0.98752030923E+03  0.32199928366E+03 0.  0.
         13    1    3    3    0    0 -0.56618915959E+02 -0.11793866007E+03 -0.75543267003E+03  0.76667708204E+03  0.00000000000E+00 0.  1.
          1    1    3    3  501    0  0.66584131133E+02  0.11241792479E+03 -0.17804632730E+03  0.22084322720E+03  0.00000000000E+00 0.  1.
         21    1    1    2  502  501 -0.99652151738E+01  0.55207352739E+01 -0.38678936011E+02  0.40321757431E+02  0.00000000000E+00 0. -1.
<mgrwt>
<rscale>  1 0.30000000E+03</rscale>
<asrwt>0</asrwt>
<pdfrwt beam="1">  1        1 0.10124409E+00 0.30000000E+03</pdfrwt>
<pdfrwt beam="2">0</pdfrwt>
<totfact> 0.33612596E+01</totfact>
</mgrwt>
</event>
<event>
 6    1  0.1904828E-004  0.3000000E+03  0.7818608E-02  0.1093470E+00
          1   -1    0    0  502    0  0.00000000000E+00  0.00000000000E+00  0.48720124360E+02  0.48720124360E+02  0.00000000000E+00 0.  1.
         13   -1    0    0    0    0 -0.00000000000E+00 -0.00000000000E+00 -0.10000000000E+04  0.10000000000E+04  0.00000000000E+00 0.  1.
    9000005    2    1    2  501    0 -0.14705823842E+02 -0.89883882703E+01 -0.96577330176E+03  0.10262009819E+04  0.34651599155E+03 0.  0.
         13    1    3    3    0    0 -0.11313720300E+03 -0.12911660986E+03 -0.33298651655E+03  0.37463468319E+03  0.00000000000E+00 0.  1.
          3    1    3    3  501    0  0.98431379155E+02  0.12012822159E+03 -0.63278678520E+03  0.65156629866E+03  0.00000000000E+00 0.  1.
         21    1    1    2  502  501  0.14705823842E+02  0.89883882703E+01  0.14493426116E+02  0.22519142505E+02  0.00000000000E+00 0.  1.
<mgrwt>
<rscale>  1 0.30000000E+03</rscale>
<asrwt>0</asrwt>
<pdfrwt beam="1">  1        1 0.17716446E+00 0.30000000E+03</pdfrwt>
<pdfrwt beam="2">0</pdfrwt>
<totfact> 0.13184905E+01</totfact>
</mgrwt>
</event>
<event>
 6    1  0.1904828E-004  0.3000000E+03  0.7818608E-02  0.1093470E+00
          1   -1    0    0  502    0  0.00000000000E+00  0.00000000000E+00  0.51404118863E+02  0.51404118863E+02  0.00000000000E+00 0.  1.
         13   -1    0    0    0    0 -0.00000000000E+00 -0.00000000000E+00 -0.10000000000E+04  0.10000000000E+04  0.00000000000E+00 0.  1.
    9000005    2    1    2  501    0 -0.61089749776E+02  0.17749510758E+02 -0.92585885878E+03  0.98384692202E+03  0.32663915400E+03 0.  0.
         13    1    3    3    0    0  0.52006147210E+02  0.14291766199E+03 -0.30992988184E+03  0.34523416562E+03  0.00000000000E+00 0.  1.
          3    1    3    3  501    0 -0.11309589699E+03 -0.12516815123E+03 -0.61592897694E+03  0.63861275639E+03  0.00000000000E+00 0.  1.
         21    1    1    2  502  501  0.61089749776E+02 -0.17749510758E+02 -0.22737022358E+02  0.67557196845E+02  0.00000000000E+00 0.  1.
<mgrwt>
<rscale>  1 0.30000000E+03</rscale>
<asrwt>0</asrwt>
<pdfrwt beam="1">  1        1 0.18692446E+00 0.30000000E+03</pdfrwt>
<pdfrwt beam="2">0</pdfrwt>
<totfact> 0.11829628E+01</totfact>
</mgrwt>
</event>
<event>
 6    1  0.1904828E-004  0.3000000E+03  0.7818608E-02  0.1093470E+00
          1   -1    0    0  502    0  0.00000000000E+00  0.00000000000E+00  0.66191260406E+02  0.66191260406E+02  0.00000000000E+00 0.  1.
         13   -1    0    0    0    0 -0.00000000000E+00 -0.00000000000E+00 -0.10000000000E+04  0.10000000000E+04  0.00000000000E+00 0.  1.
    9000005    2    1    2  501    0 -0.46203581475E+02 -0.27391811611E+01 -0.95855691525E+03  0.10137055838E+04  0.32653541420E+03 0.  0.
         13    1    3    3    0    0 -0.10413688147E+03  0.61135902052E+02 -0.11834075821E+03  0.16907579264E+03  0.00000000000E+00 0.  1.
          1    1    3    3  501    0  0.57933300000E+02 -0.63875083213E+02 -0.84021615704E+03  0.84462979113E+03  0.00000000000E+00 0.  1.
         21    1    1    2  502  501  0.46203581475E+02  0.27391811611E+01  0.24748175653E+02  0.52485676643E+02  0.00000000000E+00 0. -1.
<mgrwt>
<rscale>  1 0.30000000E+03</rscale>
<asrwt>0</asrwt>
<pdfrwt beam="1">  1        1 0.24069600E+00 0.30000000E+03</pdfrwt>
<pdfrwt beam="2">0</pdfrwt>
<totfact> 0.65941136E+00</totfact>
</mgrwt>
</event>
<event>
 6    1  0.1904828E-004  0.3000000E+03  0.7818608E-02  0.1093470E+00
          1   -1    0    0  502    0  0.00000000000E+00  0.00000000000E+00  0.29096359475E+02  0.29096359475E+02  0.00000000000E+00 0.  1.
         13   -1    0    0    0    0 -0.00000000000E+00 -0.00000000000E+00 -0.10000000000E+04  0.10000000000E+04  0.00000000000E+00 0.  1.
    9000005    2    1    2  501    0  0.54846533193E+01 -0.15739163459E+02 -0.90887210406E+03  0.96486463675E+03  0.32347714450E+03 0.  0.
         13    1    3    3    0    0 -0.10560870200E+02  0.15019199470E+03 -0.52930209864E+03  0.55029980817E+03  0.00000000000E+00 0.  1.
          3    1    3    3  501    0  0.16045523520E+02 -0.16593115816E+03 -0.37957000542E+03  0.41456482857E+03  0.00000000000E+00 0.  1.
         21    1    1    2  502  501 -0.54846533193E+01  0.15739163459E+02 -0.62031536466E+02  0.64231722729E+02  0.00000000000E+00 0.  1.
<mgrwt>
<rscale>  1 0.30000000E+03</rscale>
<asrwt>0</asrwt>
<pdfrwt beam="1">  1        1 0.10580517E+00 0.30000000E+03</pdfrwt>
<pdfrwt beam="2">0</pdfrwt>
<totfact> 0.31492921E+01</totfact>
</mgrwt>
</event>
<event>
 6    1  0.1904828E-004  0.3000000E+03  0.7818608E-02  0.1093470E+00
          1   -1    0    0  502    0  0.00000000000E+00  0.00000000000E+00  0.33273524712E+02  0.33273524712E+02  0.00000000000E+00 0.  1.
         13   -1    0    0    0    0 -0.00000000000E+00 -0.00000000000E+00 -0.10000000000E+04  0.10000000000E+04  0.00000000000E+00 0.  1.
    9000005    2    1    2  501    0 -0.27515165699E+02  0.19105224377E+02 -0.95572082063E+03  0.99801422273E+03  0.28549607324E+03 0.  0.
         13    1    3    3    0    0 -0.55821114418E+02 -0.98036346591E+02 -0.17612125859E+03  0.20915501379E+03  0.00000000000E+00 0.  1.
          3    1    3    3  501    0  0.28305948719E+02  0.11714157097E+03 -0.77959956205E+03  0.78885920894E+03  0.00000000000E+00 0.  1.
         21    1    1    2  502  501  0.27515165699E+02 -0.19105224377E+02 -0.11005654653E+02  0.35259301982E+02  0.00000000000E+00 0. -1.
<mgrwt>
<rscale>  1 0.30000000E+03</rscale>
<asrwt>0</asrwt>
<pdfrwt beam="1">  1        1 0.12099489E+00 0.30000000E+03</pdfrwt>
<pdfrwt beam="2">0</pdfrwt>
<totfact> 0.25662195E+01</totfact>
</mgrwt>
</event>
<event>
 6    1  0.1904828E-004  0.3000000E+03  0.7818608E-02  0.1093470E+00
          1   -1    0    0  502    0  0.00000000000E+00  0.00000000000E+00  0.37811744169E+02  0.37811744169E+02  0.00000000000E+00 0.  1.
         13   -1    0    0    0    0 -0.00000000000E+00 -0.00000000000E+00 -0.10000000000E+04  0.10000000000E+04  0.00000000000E+00 0.  1.
    9000005    2    1    2  501    0 -0.62918988394E+01 -0.40922696080E+02 -0.92954608937E+03  0.98508825721E+03  0.32346357939E+03 0.  0.
         13    1    3    3    0    0  0.74456178544E+02 -0.62008937294E+02 -0.65354201658E+02  0.11687601337E+03  0.00000000000E+00 0.  1.
          1    1    3    3  501    0 -0.80748077383E+02  0.21086241214E+02 -0.86419188771E+03  0.86821224384E+03  0.00000000000E+00 0.  1.
         21    1    1    2  502  501  0.62918988394E+01  0.40922696080E+02 -0.32642166466E+02  0.52723486958E+02  0.00000000000E+00 0.  1.
<mgrwt>
<rscale>  1 0.30000000E+03</rscale>
<asrwt>0</asrwt>
<pdfrwt beam="1">  1        1 0.13749754E+00 0.30000000E+03</pdfrwt>
<pdfrwt beam="2">0</pdfrwt>
<totfact> 0.20855518E+01</totfact>
</mgrwt>
</event>
<event>
 6    1  0.1904828E-004  0.3000000E+03  0.7818608E-02  0.1093470E+00
          1   -1    0    0  502    0  0.00000000000E+00  0.00000000000E+00  0.34474777641E+02  0.34474777641E+02  0.00000000000E+00 0.  1.
         13   -1    0    0    0    0 -0.00000000000E+00 -0.00000000000E+00 -0.10000000000E+04  0.10000000000E+04  0.00000000000E+00 0.  1.
    9000005    2    1    2  501    0 -0.24973228000E+02 -0.10054099378E+02 -0.94904915196E+03  0.10029120159E+04  0.32313073489E+03 0.  0.
         13    1    3    3    0    0  0.12711386610E+03 -0.64284814581E+02 -0.27392928391E+03  0.30875188246E+03  0.00000000000E+00 0.  1.
          3    1    3    3  501    0 -0.15208709410E+03  0.54230715203E+02 -0.67511986805E+03  0.69416013347E+03  0.00000000000E+00 0.  1.
         21    1    1    2  502  501  0.24973228000E+02  0.10054099378E+02 -0.16476070403E+02  0.31562761713E+02  0.00000000000E+00 0. -1.
<mgrwt>
<rscale>  1 0.30000000E+03</rscale>
<asrwt>0</asrwt>
<pdfrwt beam="1">  1        1 0.12536309E+00 0.30000000E+03</pdfrwt>
<pdfrwt beam="2">0</pdfrwt>
<totfact> 0.24261312E+01</totfact>
</mgrwt>
</event>
<event>
 6    1  0.1904828E-004  0.3000000E+03  0.7818608E-02  0.1093470E+00
          3   -1    0    0  502    0  0.00000000000E+00  0.00000000000E+00  0.31555724331E+02  0.31555724331E+02  0.00000000000E+00 0.  1.
         13   -1    0    0    0    0 -0.00000000000E+00 -0.00000000000E+00 -0.10000000000E+04  0.10000000000E+04  0.00000000000E+00 0.  1.
    9000005    2    1    2  501    0  0.95607464300E+01 -0.98573297144E+01 -0.96647376144E+03  0.10176828102E+04  0.31846223592E+03 0.  0.
         13    1    3    3    0    0  0.11651343425E+03  0.90916252044E+02 -0.29062592155E+03  0.32604381841E+03  0.00000000000E+00 0.  1.
          3    1    3    3  501    0 -0.10695268782E+03 -0.10077358176E+03 -0.67584783990E+03  0.69163899175E+03  0.00000000000E+00 0.  1.
         21    1    1    2  502  501 -0.95607464300E+01  0.98573297144E+01 -0.19705142254E+01  0.13872914175E+02  0.00000000000E+00 0.  1.
<mgrwt>
<rscale>  1 0.30000000E+03</rscale>
<asrwt>0</asrwt>
<pdfrwt beam="1">  1        3 0.11474833E+00 0.30000000E+03</pdfrwt>
<pdfrwt beam="2">0</pdfrwt>
<totfact> 0.26595434E+00</totfact>
</mgrwt>
</event>
<event>
 6    1  0.1904828E-004  0.3000000E+03  0.7818608E-02  0.1093470E+00
          1   -1    0    0  502    0  0.00000000000E+00  0.00000000000E+00  0.28674522071E+02  0.28674522071E+02  0.00000000000E+00 0.  1.
         13   -1    0    0    0    0 -0.00000000000E+00 -0.00000000000E+00 -0.10000000000E+04  0.10000000000E+04  0.00000000000E+00 0.  1.
    9000005    2    1    2  501    0  0.87741675726E+01 -0.10763779684E+02 -0.95008872585E+03  0.10033004288E+04  0.32210296258E+03 0.  0.
         13    1    3    3    0    0 -0.11375504348E+03 -0.10325677145E+03 -0.32272818153E+03  0.35742922365E+03  0.00000000000E+00 0.  1.
          1    1    3    3  501    0  0.12252921105E+03  0.92492991770E+02 -0.62736054432E+03  0.64587120516E+03  0.00000000000E+00 0.  1.
         21    1    1    2  502  501 -0.87741675726E+01  0.10763779684E+02 -0.21236752078E+02  0.25374093255E+02  0.00000000000E+00 0.  1.
<mgrwt>
<rscale>  1 0.30000000E+03</rscale>
<asrwt>0</asrwt>
<pdfrwt beam="1">  1        1 0.10427121E+00 0.30000000E+03</pdfrwt>
<pdfrwt beam="2">0</pdfrwt>
<totfact> 0.32183554E+01</totfact>
</mgrwt>
</event>
<event>
 6    1  0.1904828E-004  0.3000000E+03  0.7818608E-02  0.1093470E+00
          1   -1    0    0  502    0  0.00000000000E+00  0.00000000000E+00  0.36483908727E+02  0.36483908727E+02  0.00000000000E+00 0.  1.
         13   -1    0    0    0    0 -0.00000000000E+00 -0.00000000000E+00 -0.10000000000E+04  0.10000000000E+04  0.00000000000E+00 0.  1.
    9000005    2    1    2  501    0 -0.20471980084E+02 -0.55847288934E+01 -0.95806030790E+03  0.10145737116E+04  0.33321160177E+03 0.  0.
         13    1    3    3    0    0  0.15991419040E+02 -0.48402274646E+02  0.37567785062E+01  0.51113785406E+02  0.00000000000E+00 0.  1.
          1    1    3    3  501    0 -0.36463399124E+02  0.42817545753E+02 -0.96181708641E+03  0.96345992621E+03  0.00000000000E+00 0.  1.
         21    1    1    2  502  501  0.20471980084E+02  0.55847288934E+01 -0.54557833701E+01  0.21910197113E+02  0.00000000000E+00 0. -1.
<mgrwt>
<rscale>  1 0.30000000E+03</rscale>
<asrwt>0</asrwt>
<pdfrwt beam="1">  1        1 0.13266904E+00 0.30000000E+03</pdfrwt>
<pdfrwt beam="2">0</pdfrwt>
<totfact> 0.22130596E+01</totfact>
</mgrwt>
</event>
<event>
 6    1  0.1904828E-004  0.3000000E+03  0.7818608E-02  0.1093470E+00
          3   -1    0    0  502    0  0.00000000000E+00  0.00000000000E+00  0.32581232041E+02  0.32581232041E+02  0.00000000000E+00 0.  1.
         13   -1    0    0    0    0 -0.00000000000E+00 -0.00000000000E+00 -0.10000000000E+04  0.10000000000E+04  0.00000000000E+00 0.  1.
    9000005    2    1    2  501    0 -0.10323675732E+02 -0.11966669300E+01 -0.96694527330E+03  0.10221776514E+04  0.33129439964E+03 0.  0.
         13    1    3    3    0    0  0.69384950772E+02 -0.59909156386E+02 -0.59363753050E+02  0.10921279041E+03  0.00000000000E+00 0.  1.
          3    1    3    3  501    0 -0.79708626505E+02  0.58712489456E+02 -0.90758152025E+03  0.91296486102E+03  0.00000000000E+00 0.  1.
         21    1    1    2  502  501  0.10323675732E+02  0.11966669300E+01 -0.47349465957E+00  0.10403580613E+02  0.00000000000E+00 0.  1.
<mgrwt>
<rscale>  1 0.30000000E+03</rscale>
<asrwt>0</asrwt>
<pdfrwt beam="1">  1        3 0.11847746E+00 0.30000000E+03</pdfrwt>
<pdfrwt beam="2">0</pdfrwt>
<totfact> 0.24088298E+00</totfact>
</mgrwt>
</event>
<event>
 6    1  0.1904828E-004  0.3000000E+03  0.7818608E-02  0.1093470E+00
          1   -1    0    0  502    0  0.00000000000E+00  0.00000000000E+00  0.29768200727E+02  0.29768200727E+02  0.00000000000E+00 0.  1.
         13   -1    0    0    0    0 -0.00000000000E+00 -0.00000000000E+00 -0.10000000000E+04  0.10000000000E+04  0.00000000000E+00 0.  1.
    9000005    2    1    2  501    0  0.84245749296E+01 -0.12433964931E+02 -0.95503269200E+03  0.10084002385E+04  0.32335432783E+03 0.  0.
         13    1    3    3    0    0 -0.15549102838E+03  0.31839858166E+01 -0.39004997030E+03  0.41991258257E+03  0.00000000000E+00 0.  1.
          3    1    3    3  501    0  0.16391560331E+03 -0.15617950748E+02 -0.56498272170E+03  0.58848765596E+03  0.00000000000E+00 0.  1.
         21    1    1    2  502  501 -0.84245749296E+01  0.12433964931E+02 -0.15199107274E+02  0.21367962200E+02  0.00000000000E+00 0.  1.
<mgrwt>
<rscale>  1 0.30000000E+03</rscale>
<asrwt>0</asrwt>
<pdfrwt beam="1">  1        1 0.10824823E+00 0.30000000E+03</pdfrwt>
<pdfrwt beam="2">0</pdfrwt>
<totfact> 0.30436314E+01</totfact>
</mgrwt>
</event>
<event>
 6    1  0.1904828E-004  0.3000000E+03  0.7818608E-02  0.1093470E+00
          1   -1    0    0  502    0  0.00000000000E+00  0.00000000000E+00  0.34994869306E+02  0.34994869306E+02  0.00000000000E+00 0.  1.
         13   -1    0    0    0    0 -0.00000000000E+00 -0.00000000000E+00 -0.10000000000E+04  0.10000000000E+04  0.00000000000E+00 0.  1.
    9000005    2    1    2  501    0  0.15912999441E+02  0.36225504450E+00 -0.96632377700E+03  0.10190232192E+04  0.32306860640E+03 0.  0.
         13    1    3    3    0    0  0.12755855398E+03 -0.20968239933E+02 -0.16465900670E+03  0.20934048884E+03  0.00000000000E+00 0.  1.
          1    1    3    3  501    0 -0.11164555454E+03  0.21330494978E+02 -0.80166477030E+03  0.80968273033E+03  0.00000000000E+00 0.  1.
         21    1    1    2  502  501 -0.15912999441E+02 -0.36225504450E+00  0.13186463040E+01  0.15971650134E+02  0.00000000000E+00 0. -1.
<mgrwt>
<rscale>  1 0.30000000E+03</rscale>
<asrwt>0</asrwt>
<pdfrwt beam="1">  1        1 0.12725434E+00 0.30000000E+03</pdfrwt>
<pdfrwt beam="2">0</pdfrwt>
<totfact> 0.23685237E+01</totfact>
</mgrwt>
</event>
<event>
 6    1  0.1904828E-004  0.3000000E+03  0.7818608E-02  0.1093470E+00
          1   -1    0    0  502    0  0.00000000000E+00  0.00000000000E+00  0.39106789097E+02  0.39106789097E+02  0.00000000000E+00 0.  1.
         13   -1    0    0    0    0 -0.00000000000E+00 -0.00000000000E+00 -0.10000000000E+04  0.10000000000E+04  0.00000000000E+00 0.  1.
    9000005    2    1    2  501    0 -0.38528186604E+02  0.38394294631E+02 -0.88735485038E+03  0.94763857882E+03  0.32811842762E+03 0.  0.
         13    1    3    3    0    0 -0.19628337516E+02 -0.13692200560E+03 -0.54822406420E+03  0.56540475044E+03  0.00000000000E+00 0.  1.
          3    1    3    3  501    0 -0.18899849087E+02  0.17531630023E+03 -0.33913078618E+03  0.38223382838E+03  0.00000000000E+00 0.  1.
         21    1    1    2  502  501  0.38528186604E+02 -0.38394294631E+02 -0.73538360521E+02  0.91468210277E+02  0.00000000000E+00 0.  1.
<mgrwt>
<rscale>  1 0.30000000E+03</rscale>
<asrwt>0</asrwt>
<pdfrwt beam="1">  1        1 0.14220681E+00 0.30000000E+03</pdfrwt>
<pdfrwt beam="2">0</pdfrwt>
<totfact> 0.19702156E+01</totfact>
</mgrwt>
</event>
<event>
 6    1  0.1904828E-004  0.3000000E+03  0.7818608E-02  0.1093470E+00
          1   -1    0    0  502    0  0.00000000000E+00  0.00000000000E+00  0.30358597035E+02  0.30358597035E+02  0.00000000000E+00 0.  1.
         13   -1    0    0    0    0 -0.00000000000E+00 -0.00000000000E+00 -0.10000000000E+04  0.10000000000E+04  0.00000000000E+00 0.  1.
    9000005    2    1    2  501    0  0.20420507718E+02  0.93371699838E+01 -0.92622502364E+03  0.98147954352E+03  0.32389059890E+03 0.  0.
         13    1    3    3    0    0 -0.33383538334E+02  0.13321966657E+03 -0.73284751364E+03  0.74560540397E+03  0.00000000000E+00 0.  1.
          1    1    3    3  501    0  0.53804046052E+02 -0.12388249659E+03 -0.19337751001E+03  0.23587413955E+03  0.00000000000E+00 0.  1.
         21    1    1    2  502  501 -0.20420507718E+02 -0.93371699838E+01 -0.43416379321E+02  0.48879053511E+02  0.00000000000E+00 0. -1.
<mgrwt>
<rscale>  1 0.30000000E+03</rscale>
<asrwt>0</asrwt>
<pdfrwt beam="1">  1        1 0.11039513E+00 0.30000000E+03</pdfrwt>
<pdfrwt beam="2">0</pdfrwt>
<totfact> 0.29549148E+01</totfact>
</mgrwt>
</event>
<event>
 6    1  0.1904828E-004  0.3000000E+03  0.7818608E-02  0.1093470E+00
          1   -1    0    0  502    0  0.00000000000E+00  0.00000000000E+00  0.41802661959E+02  0.41802661959E+02  0.00000000000E+00 0.  1.
         13   -1    0    0    0    0 -0.00000000000E+00 -0.00000000000E+00 -0.10000000000E+04  0.10000000000E+04  0.00000000000E+00 0.  1.
    9000005    2    1    2  501    0  0.18548936869E+02  0.20790305545E+02 -0.96002953883E+03  0.10138803264E+04  0.32483888461E+03 0.  0.
         13    1    3    3    0    0 -0.96694280763E+02  0.12658056259E+03 -0.61053336487E+03  0.63097021513E+03  0.00000000000E+00 0.  1.
          1    1    3    3  501    0  0.11524321763E+03 -0.10579025705E+03 -0.34949617396E+03  0.38291011127E+03  0.00000000000E+00 0.  1.
         21    1    1    2  502  501 -0.18548936869E+02 -0.20790305545E+02  0.18322007916E+01  0.27922335564E+02  0.00000000000E+00 0.  1.
<mgrwt>
<rscale>  1 0.30000000E+03</rscale>
<asrwt>0</asrwt>
<pdfrwt beam="1">  1        1 0.15201000E+00 0.30000000E+03</pdfrwt>
<pdfrwt beam="2">0</pdfrwt>
<totfact> 0.17548237E+01</totfact>
</mgrwt>
</event>
<event>
 6    1  0.1904828E-004  0.3000000E+03  0.7818608E-02  0.1093470E+00
          1   -1    0    0  502    0  0.00000000000E+00  0.00000000000E+00  0.38200411009E+02  0.38200411009E+02  0.00000000000E+00 0.  1.
         13   -1    0    0    0    0 -0.00000000000E+00 -0.00000000000E+00 -0.10000000000E+04  0.10000000000E+04  0.00000000000E+00 0.  1.
    9000005    2    1    2  501    0 -0.36998200555E+02  0.48426509559E+00 -0.93721640664E+03  0.99377705891E+03  0.32840394119E+03 0.  0.
         13    1    3    3    0    0 -0.14598378416E+03  0.99230528683E+02 -0.61008895677E+03  0.63511140616E+03  0.00000000000E+00 0.  1.
          3    1    3    3  501    0  0.10898558361E+03 -0.98746263587E+02 -0.32712744987E+03  0.35866565275E+03  0.00000000000E+00 0.  1.
         21    1    1    2  502  501  0.36998200555E+02 -0.48426509559E+00 -0.24583182353E+02  0.44423352098E+02  0.00000000000E+00 0.  1.
<mgrwt>
<rscale>  1 0.30000000E+03</rscale>
<asrwt>0</asrwt>
<pdfrwt beam="1">  1        1 0.13891088E+00 0.30000000E+03</pdfrwt>
<pdfrwt beam="2">0</pdfrwt>
<totfact> 0.20500533E+01</totfact>
</mgrwt>
</event>
<event>
 6    1  0.1904828E-004  0.3000000E+03  0.7818608E-02  0.1093470E+00
          1   -1    0    0  502    0  0.00000000000E+00  0.00000000000E+00  0.31537218199E+02  0.31537218199E+02  0.00000000000E+00 0.  1.
         13   -1    0    0    0    0 -0.00000000000E+00 -0.00000000000E+00 -0.10000000000E+04  0.10000000000E+04  0.00000000000E+00 0.  1.
    9000005    2    1    2  501    0 -0.56601859325E+01 -0.16074076288E+02 -0.95025882815E+03  0.10066013492E+04  0.33160823593E+03 0.  0.
         13    1    3    3    0    0 -0.82724639213E+01  0.72487999993E+02 -0.25019076828E+02  0.77129099617E+02  0.00000000000E+00 0.  1.
          1    1    3    3  501    0  0.26122779888E+01 -0.88562076282E+02 -0.92523975132E+03  0.92947224960E+03  0.00000000000E+00 0.  1.
         21    1    1    2  502  501  0.56601859325E+01  0.16074076288E+02 -0.18203953649E+02  0.24935868980E+02  0.00000000000E+00 0.  1.
<mgrwt>
<rscale>  1 0.30000000E+03</rscale>
<asrwt>0</asrwt>
<pdfrwt beam="1">  1        1 0.11468104E+00 0.30000000E+03</pdfrwt>
<pdfrwt beam="2">0</pdfrwt>
<totfact> 0.27884644E+01</totfact>
</mgrwt>
</event>
<event>
 6    1  0.1904828E-004  0.3000000E+03  0.7818608E-02  0.1093470E+00
          1   -1    0    0  502    0  0.00000000000E+00  0.00000000000E+00  0.29070513096E+02  0.29070513096E+02  0.00000000000E+00 0.  1.
         13   -1    0    0    0    0 -0.00000000000E+00 -0.00000000000E+00 -0.10000000000E+04  0.10000000000E+04  0.00000000000E+00 0.  1.
    9000005    2    1    2  501    0 -0.11352436558E+02  0.64611725531E+01 -0.96908028691E+03  0.10158779354E+04  0.30450082514E+03 0.  0.
         13    1    3    3    0    0  0.13810335425E+03  0.99503608239E+01 -0.63427634973E+03  0.64921339632E+03  0.00000000000E+00 0.  1.
          1    1    3    3  501    0 -0.14945579080E+03 -0.34891882709E+01 -0.33480393718E+03  0.36666453904E+03  0.00000000000E+00 0.  1.
         21    1    1    2  502  501  0.11352436558E+02 -0.64611725531E+01 -0.18491999904E+01  0.13192577730E+02  0.00000000000E+00 0.  1.
<mgrwt>
<rscale>  1 0.30000000E+03</rscale>
<asrwt>0</asrwt>
<pdfrwt beam="1">  1        1 0.10571118E+00 0.30000000E+03</pdfrwt>
<pdfrwt beam="2">0</pdfrwt>
<totfact> 0.31534617E+01</totfact>
</mgrwt>
</event>
<event>
 6    1  0.1904828E-004  0.3000000E+03  0.7818608E-02  0.1093470E+00
          1   -1    0    0  502    0  0.00000000000E+00  0.00000000000E+00  0.41037216561E+02  0.41037216561E+02  0.00000000000E+00 0.  1.
         13   -1    0    0    0    0 -0.00000000000E+00 -0.00000000000E+00 -0.10000000000E+04  0.10000000000E+04  0.00000000000E+00 0.  1.
    9000005    2    1    2  501    0 -0.32752622406E+02  0.12873359305E+02 -0.94705729542E+03  0.10038861964E+04  0.33110650379E+03 0.  0.
         13    1    3    3    0    0 -0.30782074224E+02 -0.15145456778E+03 -0.31583577183E+03  0.35162232148E+03  0.00000000000E+00 0.  1.
          1    1    3    3  501    0 -0.19705481814E+01  0.16432792709E+03 -0.63122152359E+03  0.65226387492E+03  0.00000000000E+00 0.  1.
         21    1    1    2  502  501  0.32752622406E+02 -0.12873359305E+02 -0.11905488020E+02  0.37151020164E+02  0.00000000000E+00 0. -1.
<mgrwt>
<rscale>  1 0.30000000E+03</rscale>
<asrwt>0</asrwt>
<pdfrwt beam="1">  1        1 0.14922656E+00 0.30000000E+03</pdfrwt>
<pdfrwt beam="2">0</pdfrwt>
<totfact> 0.18128556E+01</totfact>
</mgrwt>
</event>
<event>
 6    1  0.1904828E-004  0.3000000E+03  0.7818608E-02  0.1093470E+00
          1   -1    0    0  502    0  0.00000000000E+00  0.00000000000E+00  0.67370371777E+02  0.67370371777E+02  0.00000000000E+00 0.  1.
         13   -1    0    0    0    0 -0.00000000000E+00 -0.00000000000E+00 -0.10000000000E+04  0.10000000000E+04  0.00000000000E+00 0.  1.
    9000005    2    1    2  501    0  0.29027414998E+02  0.17449011595E+02 -0.96532120520E+03  0.10202981078E+04  0.32865809107E+03 0.  0.
         13    1    3    3    0    0 -0.98822057230E+02  0.10450151852E+03 -0.68692160056E+03  0.70181739198E+03  0.00000000000E+00 0.  1.
          3    1    3    3  501    0  0.12784947223E+03 -0.87052506928E+02 -0.27839960463E+03  0.31848071586E+03  0.00000000000E+00 0.  1.
         21    1    1    2  502  501 -0.29027414998E+02 -0.17449011595E+02  0.32691576976E+02  0.47072263938E+02  0.00000000000E+00 0.  1.
<mgrwt>
<rscale>  1 0.30000000E+03</rscale>
<asrwt>0</asrwt>
<pdfrwt beam="1">  1        1 0.24498369E+00 0.30000000E+03</pdfrwt>
<pdfrwt beam="2">0</pdfrwt>
<totfact> 0.62962375E+00</totfact>
</mgrwt>
</event>
<event>
 6    1  0.1904828E-004  0.3000000E+03  0.7818608E-02  0.1093470E+00
          1   -1    0    0  502    0  0.00000000000E+00  0.00000000000E+00  0.32708447749E+02  0.32708447749E+02  0.00000000000E+00 0.  1.
         13   -1    0    0    0    0 -0.00000000000E+00 -0.00000000000E+00 -0.10000000000E+04  0.10000000000E+04  0.00000000000E+00 0.  1.
    9000005    2    1    2  501    0 -0.66985882347E+01  0.29351666657E+02 -0.85813874550E+03  0.91947980013E+03  0.32883826556E+03 0.  0.
         13    1    3    3    0    0  0.54950140127E+02 -0.13810298598E+03 -0.45367392102E+03  0.47740127696E+03  0.00000000000E+00 0.  1.
          3    1    3    3  501    0 -0.61648728361E+02  0.16745465264E+03 -0.40446482449E+03  0.44207852317E+03  0.00000000000E+00 0.  1.
         21    1    1    2  502  501  0.66985882347E+01 -0.29351666657E+02 -0.10915280675E+03  0.11322864762E+03  0.00000000000E+00 0.  1.
<mgrwt>
<rscale>  1 0.30000000E+03</rscale>
<asrwt>0</asrwt>
<pdfrwt beam="1">  1        1 0.11894006E+00 0.30000000E+03</pdfrwt>
<pdfrwt beam="2">0</pdfrwt>
<totfact> 0.26358110E+01</totfact>
</mgrwt>
</event>
<event>
 6    1  0.1904828E-004  0.3000000E+03  0.7818608E-02  0.1093470E+00
          1   -1    0    0  502    0  0.00000000000E+00  0.00000000000E+00  0.27720928672E+02  0.27720928672E+02  0.00000000000E+00 0.  1.
         13   -1    0    0    0    0 -0.00000000000E+00 -0.00000000000E+00 -0.10000000000E+04  0.10000000000E+04  0.00000000000E+00 0.  1.
    9000005    2    1    2  501    0  0.89960797722E+01  0.42891598204E+01 -0.95748649861E+03  0.10098842656E+04  0.32091511100E+03 0.  0.
         13    1    3    3    0    0 -0.88205070278E+02  0.11685939463E+03 -0.27677559597E+03  0.31311496779E+03  0.00000000000E+00 0.  1.
          1    1    3    3  501    0  0.97201150050E+02 -0.11257023481E+03 -0.68071090264E+03  0.69676929777E+03  0.00000000000E+00 0.  1.
         21    1    1    2  502  501 -0.89960797722E+01 -0.42891598204E+01 -0.14792572722E+02  0.17836663112E+02  0.00000000000E+00 0.  1.
<mgrwt>
<rscale>  1 0.30000000E+03</rscale>
<asrwt>0</asrwt>
<pdfrwt beam="1">  1        1 0.10080359E+00 0.30000000E+03</pdfrwt>
<pdfrwt beam="2">0</pdfrwt>
<totfact> 0.33828255E+01</totfact>
</mgrwt>
</event>
<event>
 6    1  0.1904828E-004  0.3000000E+03  0.7818608E-02  0.1093470E+00
          1   -1    0    0  502    0  0.00000000000E+00  0.00000000000E+00  0.56839595492E+02  0.56839595492E+02  0.00000000000E+00 0.  1.
         13   -1    0    0    0    0 -0.00000000000E+00 -0.00000000000E+00 -0.10000000000E+04  0.10000000000E+04  0.00000000000E+00 0.  1.
    9000005    2    1    2  501    0 -0.80988609635E+02  0.99239422798E+01 -0.91271375524E+03  0.96974976846E+03  0.31734929479E+03 0.  0.
         13    1    3    3    0    0 -0.12473636454E+03 -0.12283760153E+03 -0.63709766308E+03  0.66071300069E+03  0.00000000000E+00 0.  1.
          1    1    3    3  501    0  0.43747754908E+02  0.13276154380E+03 -0.27561609216E+03  0.30903676776E+03  0.00000000000E+00 0.  1.
         21    1    1    2  502  501  0.80988609635E+02 -0.99239422798E+01 -0.30446649272E+02  0.87089827034E+02  0.00000000000E+00 0.  1.
<mgrwt>
<rscale>  1 0.30000000E+03</rscale>
<asrwt>0</asrwt>
<pdfrwt beam="1">  1        1 0.20668987E+00 0.30000000E+03</pdfrwt>
<pdfrwt beam="2">0</pdfrwt>
<totfact> 0.95218017E+00</totfact>
</mgrwt>
</event>
<event>
 6    1  0.1904828E-004  0.3000000E+03  0.7818608E-02  0.1093470E+00
          1   -1    0    0  502    0  0.00000000000E+00  0.00000000000E+00  0.27751928075E+02  0.27751928075E+02  0.00000000000E+00 0.  1.
         13   -1    0    0    0    0 -0.00000000000E+00 -0.00000000000E+00 -0.10000000000E+04  0.10000000000E+04  0.00000000000E+00 0.  1.
    9000005    2    1    2  501    0 -0.30708469827E+01  0.13270317347E+02 -0.94891663167E+03  0.10007354974E+04  0.31755823153E+03 0.  0.
         13    1    3    3    0    0 -0.14141873425E+03 -0.14382303829E+02 -0.24879262877E+03  0.28653774828E+03  0.00000000000E+00 0.  1.
          1    1    3    3  501    0  0.13834788726E+03  0.27652621176E+02 -0.70012400290E+03  0.71419774909E+03  0.00000000000E+00 0.  1.
         21    1    1    2  502  501  0.30708469827E+01 -0.13270317347E+02 -0.23331440254E+02  0.27016430704E+02  0.00000000000E+00 0.  1.
<mgrwt>
<rscale>  1 0.30000000E+03</rscale>
<asrwt>0</asrwt>
<pdfrwt beam="1">  1        1 0.10091631E+00 0.30000000E+03</pdfrwt>
<pdfrwt beam="2">0</pdfrwt>
<totfact> 0.33772875E+01</totfact>
</mgrwt>
</event>
<event>
 6    1  0.1904828E-004  0.3000000E+03  0.7818608E-02  0.1093470E+00
          1   -1    0    0  502    0  0.00000000000E+00  0.00000000000E+00  0.25081425139E+02  0.25081425139E+02  0.00000000000E+00 0.  1.
         13   -1    0    0    0    0 -0.00000000000E+00 -0.00000000000E+00 -0.10000000000E+04  0.10000000000E+04  0.00000000000E+00 0.  1.
    9000005    2    1    2  501    0 -0.23461337510E+01 -0.10264983795E+02 -0.95967703470E+03  0.10065563399E+04  0.30342178607E+03 0.  0.
         13    1    3    3    0    0  0.14505053235E+03  0.30304516073E+02 -0.40747045990E+03  0.43357836238E+03  0.00000000000E+00 0.  1.
          3    1    3    3  501    0 -0.14739666610E+03 -0.40569499868E+02 -0.55220657480E+03  0.57297797754E+03  0.00000000000E+00 0.  1.
         21    1    1    2  502  501  0.23461337510E+01  0.10264983795E+02 -0.15241540160E+02  0.18525085219E+02  0.00000000000E+00 0.  1.
<mgrwt>
<rscale>  1 0.30000000E+03</rscale>
<asrwt>0</asrwt>
<pdfrwt beam="1">  1        1 0.91205375E-01 0.30000000E+03</pdfrwt>
<pdfrwt beam="2">0</pdfrwt>
<totfact> 0.39086238E+01</totfact>
</mgrwt>
</event>
<event>
 6    1  0.1904828E-004  0.3000000E+03  0.7818608E-02  0.1093470E+00
          1   -1    0    0  502    0  0.00000000000E+00  0.00000000000E+00  0.39059395241E+02  0.39059395241E+02  0.00000000000E+00 0.  1.
         13   -1    0    0    0    0 -0.00000000000E+00 -0.00000000000E+00 -0.10000000000E+04  0.10000000000E+04  0.00000000000E+00 0.  1.
    9000005    2    1    2  501    0  0.86030172582E-01  0.12327107139E+02 -0.96864274629E+03  0.10245236477E+04  0.33350857537E+03 0.  0.
         13    1    3    3    0    0  0.15516533232E+03  0.61681533005E+02 -0.56962400339E+03  0.59359278728E+03  0.00000000000E+00 0.  1.
          3    1    3    3  501    0 -0.15507930214E+03 -0.49354425866E+02 -0.39901874289E+03  0.43093086045E+03  0.00000000000E+00 0.  1.
         21    1    1    2  502  501 -0.86030172582E-01 -0.12327107139E+02  0.77021415302E+01  0.14535747513E+02  0.00000000000E+00 0.  1.
<mgrwt>
<rscale>  1 0.30000000E+03</rscale>
<asrwt>0</asrwt>
<pdfrwt beam="1">  1        1 0.14203446E+00 0.30000000E+03</pdfrwt>
<pdfrwt beam="2">0</pdfrwt>
<totfact> 0.19742913E+01</totfact>
</mgrwt>
</event>
<event>
 6    1  0.1904828E-004  0.3000000E+03  0.7818608E-02  0.1093470E+00
          1   -1    0    0  502    0  0.00000000000E+00  0.00000000000E+00  0.42736220575E+02  0.42736220575E+02  0.00000000000E+00 0.  1.
         13   -1    0    0    0    0 -0.00000000000E+00 -0.00000000000E+00 -0.10000000000E+04  0.10000000000E+04  0.00000000000E+00 0.  1.
    9000005    2    1    2  501    0 -0.32460781627E+02 -0.16109690364E+02 -0.94511157167E+03  0.10045144909E+04  0.33837886314E+03 0.  0.
         13    1    3    3    0    0  0.11097083065E+03  0.22070859626E+02 -0.75446725851E+03  0.76290398627E+03  0.00000000000E+00 0.  1.
          1    1    3    3  501    0 -0.14343161228E+03 -0.38180549990E+02 -0.19064431316E+03  0.24161050461E+03  0.00000000000E+00 0.  1.
         21    1    1    2  502  501  0.32460781627E+02  0.16109690364E+02 -0.12152207757E+02  0.38221729694E+02  0.00000000000E+00 0.  1.
<mgrwt>
<rscale>  1 0.30000000E+03</rscale>
<asrwt>0</asrwt>
<pdfrwt beam="1">  1        1 0.15540477E+00 0.30000000E+03</pdfrwt>
<pdfrwt beam="2">0</pdfrwt>
<totfact> 0.16870856E+01</totfact>
</mgrwt>
</event>
<event>
 6    1  0.1904828E-004  0.3000000E+03  0.7818608E-02  0.1093470E+00
          1   -1    0    0  502    0  0.00000000000E+00  0.00000000000E+00  0.49586871626E+02  0.49586871626E+02  0.00000000000E+00 0.  1.
         13   -1    0    0    0    0 -0.00000000000E+00 -0.00000000000E+00 -0.10000000000E+04  0.10000000000E+04  0.00000000000E+00 0.  1.
    9000005    2    1    2  501    0  0.12089760568E+02  0.31075927158E+01 -0.97153818233E+03  0.10250494034E+04  0.32662519834E+03 0.  0.
         13    1    3    3    0    0 -0.53209055942E+01 -0.73659886613E+02 -0.93561091222E+03  0.93852110791E+03  0.00000000000E+00 0.  1.
          1    1    3    3  501    0  0.17410666163E+02  0.76767479329E+02 -0.35927270116E+02  0.86528295469E+02  0.00000000000E+00 0.  1.
         21    1    1    2  502  501 -0.12089760568E+02 -0.31075927158E+01  0.21125053961E+02  0.24537468246E+02  0.00000000000E+00 0.  1.
<mgrwt>
<rscale>  1 0.30000000E+03</rscale>
<asrwt>0</asrwt>
<pdfrwt beam="1">  1        1 0.18031628E+00 0.30000000E+03</pdfrwt>
<pdfrwt beam="2">0</pdfrwt>
<totfact> 0.12729539E+01</totfact>
</mgrwt>
</event>
<event>
 6    1  0.1904828E-004  0.3000000E+03  0.7818608E-02  0.1093470E+00
          1   -1    0    0  502    0  0.00000000000E+00  0.00000000000E+00  0.74792819224E+02  0.74792819224E+02  0.00000000000E+00 0.  1.
         13   -1    0    0    0    0 -0.00000000000E+00 -0.00000000000E+00 -0.10000000000E+04  0.10000000000E+04  0.00000000000E+00 0.  1.
    9000005    2    1    2  501    0  0.19397865863E+01  0.26150787892E+02 -0.96713178966E+03  0.10253428515E+04  0.33955329191E+03 0.  0.
         13    1    3    3    0    0  0.13873072275E+02  0.36721442832E+02  0.15775751709E+02  0.42306037867E+02  0.00000000000E+00 0.  1.
          1    1    3    3  501    0 -0.11933285689E+02 -0.10570654940E+02 -0.98290754137E+03  0.98303681362E+03  0.00000000000E+00 0.  1.
         21    1    1    2  502  501 -0.19397865863E+01 -0.26150787892E+02  0.41924608882E+02  0.49449967738E+02  0.00000000000E+00 0.  1.
<mgrwt>
<rscale>  1 0.30000000E+03</rscale>
<asrwt>0</asrwt>
<pdfrwt beam="1">  1        1 0.27197446E+00 0.30000000E+03</pdfrwt>
<pdfrwt beam="2">0</pdfrwt>
<totfact> 0.47069170E+00</totfact>
</mgrwt>
</event>
<event>
 6    1  0.1904828E-004  0.3000000E+03  0.7818608E-02  0.1093470E+00
          1   -1    0    0  502    0  0.00000000000E+00  0.00000000000E+00  0.37245647909E+02  0.37245647909E+02  0.00000000000E+00 0.  1.
         13   -1    0    0    0    0 -0.00000000000E+00 -0.00000000000E+00 -0.10000000000E+04  0.10000000000E+04  0.00000000000E+00 0.  1.
    9000005    2    1    2  501    0  0.53864437425E+02  0.11195020403E+02 -0.82517912816E+03  0.88907801197E+03  0.32636239322E+03 0.  0.
         13    1    3    3    0    0  0.13670973882E+03  0.77533152732E+01 -0.12947490605E+03  0.18845004082E+03  0.00000000000E+00 0.  1.
          3    1    3    3  501    0 -0.82845301399E+02  0.34417051303E+01 -0.69570422211E+03  0.70062797115E+03  0.00000000000E+00 0.  1.
         21    1    1    2  502  501 -0.53864437425E+02 -0.11195020403E+02 -0.13757522393E+03  0.14816763594E+03  0.00000000000E+00 0.  1.
<mgrwt>
<rscale>  1 0.30000000E+03</rscale>
<asrwt>0</asrwt>
<pdfrwt beam="1">  1        1 0.13543901E+00 0.30000000E+03</pdfrwt>
<pdfrwt beam="2">0</pdfrwt>
<totfact> 0.21386876E+01</totfact>
</mgrwt>
</event>
<event>
 6    1  0.1904828E-004  0.3000000E+03  0.7818608E-02  0.1093470E+00
          1   -1    0    0  502    0  0.00000000000E+00  0.00000000000E+00  0.42352960115E+02  0.42352960115E+02  0.00000000000E+00 0.  1.
         13   -1    0    0    0    0 -0.00000000000E+00 -0.00000000000E+00 -0.10000000000E+04  0.10000000000E+04  0.00000000000E+00 0.  1.
    9000005    2    1    2  501    0  0.28306171598E+02 -0.28523621424E+02 -0.93961300850E+03  0.99830681820E+03  0.33485677714E+03 0.  0.
         13    1    3    3    0    0 -0.96087591773E+02  0.18909109904E+02 -0.79782879374E+03  0.80381662328E+03  0.00000000000E+00 0.  1.
          3    1    3    3  501    0  0.12439376337E+03 -0.47432731328E+02 -0.14178421475E+03  0.19449019492E+03  0.00000000000E+00 0.  1.
         21    1    1    2  502  501 -0.28306171598E+02  0.28523621424E+02 -0.18034031389E+02  0.44046141918E+02  0.00000000000E+00 0.  1.
<mgrwt>
<rscale>  1 0.30000000E+03</rscale>
<asrwt>0</asrwt>
<pdfrwt beam="1">  1        1 0.15401109E+00 0.30000000E+03</pdfrwt>
<pdfrwt beam="2">0</pdfrwt>
<totfact> 0.17145050E+01</totfact>
</mgrwt>
</event>
<event>
 6    1  0.1904828E-004  0.3000000E+03  0.7818608E-02  0.1093470E+00
          1   -1    0    0  502    0  0.00000000000E+00  0.00000000000E+00  0.74576021706E+02  0.74576021706E+02  0.00000000000E+00 0.  1.
         13   -1    0    0    0    0 -0.00000000000E+00 -0.00000000000E+00 -0.10000000000E+04  0.10000000000E+04  0.00000000000E+00 0.  1.
    9000005    2    1    2  501    0  0.13794734524E+03  0.32518303410E+02 -0.39649041275E+03  0.52698344791E+03  0.31689114354E+03 0.  0.
         13    1    3    3    0    0 -0.51467064686E+02 -0.73748557266E+00 -0.31321449096E+03  0.31741568956E+03  0.00000000000E+00 0.  1.
          3    1    3    3  501    0  0.18941440993E+03  0.33255788983E+02 -0.83275921788E+02  0.20956775835E+03  0.00000000000E+00 0.  1.
         21    1    1    2  502  501 -0.13794734524E+03 -0.32518303410E+02 -0.52893356555E+03  0.54759257380E+03  0.00000000000E+00 0. -1.
<mgrwt>
<rscale>  1 0.30000000E+03</rscale>
<asrwt>0</asrwt>
<pdfrwt beam="1">  1        1 0.27118611E+00 0.30000000E+03</pdfrwt>
<pdfrwt beam="2">0</pdfrwt>
<totfact> 0.47470387E+00</totfact>
</mgrwt>
</event>
<event>
 6    1  0.1904828E-004  0.3000000E+03  0.7818608E-02  0.1093470E+00
          1   -1    0    0  502    0  0.00000000000E+00  0.00000000000E+00  0.32921164305E+02  0.32921164305E+02  0.00000000000E+00 0.  1.
         13   -1    0    0    0    0 -0.00000000000E+00 -0.00000000000E+00 -0.10000000000E+04  0.10000000000E+04  0.00000000000E+00 0.  1.
    9000005    2    1    2  501    0  0.11200885624E+02  0.53466532770E+01 -0.96095463504E+03  0.10190809196E+04  0.33902516653E+03 0.  0.
         13    1    3    3    0    0 -0.64481631248E+02 -0.55051688189E+02 -0.41239847648E+02  0.94283053488E+02  0.00000000000E+00 0.  1.
          3    1    3    3  501    0  0.75682516872E+02  0.60398341466E+02 -0.91971478739E+03  0.92479786610E+03  0.00000000000E+00 0.  1.
         21    1    1    2  502  501 -0.11200885624E+02 -0.53466532770E+01 -0.61242006596E+01  0.13840244714E+02  0.00000000000E+00 0. -1.
<mgrwt>
<rscale>  1 0.30000000E+03</rscale>
<asrwt>0</asrwt>
<pdfrwt beam="1">  1        1 0.11971358E+00 0.30000000E+03</pdfrwt>
<pdfrwt beam="2">0</pdfrwt>
<totfact> 0.26093203E+01</totfact>
</mgrwt>
</event>
<event>
 6    1  0.1904828E-004  0.3000000E+03  0.7818608E-02  0.1093470E+00
          1   -1    0    0  502    0  0.00000000000E+00  0.00000000000E+00  0.30208236836E+02  0.30208236836E+02  0.00000000000E+00 0.  1.
         13   -1    0    0    0    0 -0.00000000000E+00 -0.00000000000E+00 -0.10000000000E+04  0.10000000000E+04  0.00000000000E+00 0.  1.
    9000005    2    1    2  501    0  0.15959613162E+02 -0.11129833754E+02 -0.94507058232E+03  0.99874843337E+03  0.32243052762E+03 0.  0.
         13    1    3    3    0    0  0.12651373431E+03 -0.11398939167E+03 -0.55198752877E+03  0.57765866937E+03  0.00000000000E+00 0.  1.
          3    1    3    3  501    0 -0.11055412115E+03  0.10285955791E+03 -0.39308305355E+03  0.42108976400E+03  0.00000000000E+00 0.  1.
         21    1    1    2  502  501 -0.15959613162E+02  0.11129833754E+02 -0.24721180846E+02  0.31459803465E+02  0.00000000000E+00 0.  1.
<mgrwt>
<rscale>  1 0.30000000E+03</rscale>
<asrwt>0</asrwt>
<pdfrwt beam="1">  1        1 0.10984837E+00 0.30000000E+03</pdfrwt>
<pdfrwt beam="2">0</pdfrwt>
<totfact> 0.29771561E+01</totfact>
</mgrwt>
</event>
<event>
 6    1  0.1904828E-004  0.3000000E+03  0.7818608E-02  0.1093470E+00
          1   -1    0    0  502    0  0.00000000000E+00  0.00000000000E+00  0.28971536890E+02  0.28971536890E+02  0.00000000000E+00 0.  1.
         13   -1    0    0    0    0 -0.00000000000E+00 -0.00000000000E+00 -0.10000000000E+04  0.10000000000E+04  0.00000000000E+00 0.  1.
    9000005    2    1    2  501    0 -0.44204174322E+01  0.15536150536E+02 -0.96354410860E+03  0.10111690757E+04  0.30624293995E+03 0.  0.
         13    1    3    3    0    0  0.13786379028E+02  0.12492794425E+03 -0.17837932943E+03  0.21821145862E+03  0.00000000000E+00 0.  1.
          3    1    3    3  501    0 -0.18206796460E+02 -0.10939179372E+03 -0.78516477917E+03  0.79295761704E+03  0.00000000000E+00 0.  1.
         21    1    1    2  502  501  0.44204174322E+01 -0.15536150536E+02 -0.74843545087E+01  0.17802461239E+02  0.00000000000E+00 0. -1.
<mgrwt>
<rscale>  1 0.30000000E+03</rscale>
<asrwt>0</asrwt>
<pdfrwt beam="1">  1        1 0.10535127E+00 0.30000000E+03</pdfrwt>
<pdfrwt beam="2">0</pdfrwt>
<totfact> 0.31695030E+01</totfact>
</mgrwt>
</event>
<event>
 6    1  0.1904828E-004  0.3000000E+03  0.7818608E-02  0.1093470E+00
          1   -1    0    0  502    0  0.00000000000E+00  0.00000000000E+00  0.34399413524E+02  0.34399413524E+02  0.00000000000E+00 0.  1.
         13   -1    0    0    0    0 -0.00000000000E+00 -0.00000000000E+00 -0.10000000000E+04  0.10000000000E+04  0.00000000000E+00 0.  1.
    9000005    2    1    2  501    0 -0.22267714017E+02  0.12415294520E+01 -0.95639441797E+03  0.10102717112E+04  0.32474798715E+03 0.  0.
         13    1    3    3    0    0 -0.18906766226E+02  0.77828951346E+02 -0.37941314428E+02  0.88624797982E+02  0.00000000000E+00 0.  1.
          1    1    3    3  501    0 -0.33609477912E+01 -0.76587421894E+02 -0.91845310354E+03  0.92164691317E+03  0.00000000000E+00 0.  1.
         21    1    1    2  502  501  0.22267714017E+02 -0.12415294520E+01 -0.92061685083E+01  0.24127702367E+02  0.00000000000E+00 0.  1.
<mgrwt>
<rscale>  1 0.30000000E+03</rscale>
<asrwt>0</asrwt>
<pdfrwt beam="1">  1        1 0.12508904E+00 0.30000000E+03</pdfrwt>
<pdfrwt beam="2">0</pdfrwt>
<totfact> 0.24346262E+01</totfact>
</mgrwt>
</event>
<event>
 6    1  0.1904828E-004  0.3000000E+03  0.7818608E-02  0.1093470E+00
          1   -1    0    0  502    0  0.00000000000E+00  0.00000000000E+00  0.32051640984E+02  0.32051640984E+02  0.00000000000E+00 0.  1.
         13   -1    0    0    0    0 -0.00000000000E+00 -0.00000000000E+00 -0.10000000000E+04  0.10000000000E+04  0.00000000000E+00 0.  1.
    9000005    2    1    2  501    0  0.20008984511E+02 -0.16455739077E+02 -0.91951405812E+03  0.97712412226E+03  0.32953648723E+03 0.  0.
         13    1    3    3    0    0 -0.28567467067E+02  0.22110860541E+02 -0.91415491174E+03  0.91486840201E+03  0.00000000000E+00 0.  1.
          1    1    3    3  501    0  0.48576451578E+02 -0.38566599617E+02 -0.53591463726E+01  0.62255720250E+02  0.00000000000E+00 0.  1.
         21    1    1    2  502  501 -0.20008984511E+02  0.16455739077E+02 -0.48434300899E+02  0.54927518725E+02  0.00000000000E+00 0. -1.
<mgrwt>
<rscale>  1 0.30000000E+03</rscale>
<asrwt>0</asrwt>
<pdfrwt beam="1">  1        1 0.11655167E+00 0.30000000E+03</pdfrwt>
<pdfrwt beam="2">0</pdfrwt>
<totfact> 0.27199519E+01</totfact>
</mgrwt>
</event>
<event>
 6    1  0.1904828E-004  0.3000000E+03  0.7818608E-02  0.1093470E+00
          1   -1    0    0  502    0  0.00000000000E+00  0.00000000000E+00  0.28815294845E+02  0.28815294845E+02  0.00000000000E+00 0.  1.
         13   -1    0    0    0    0 -0.00000000000E+00 -0.00000000000E+00 -0.10000000000E+04  0.10000000000E+04  0.00000000000E+00 0.  1.
    9000005    2    1    2  501    0 -0.48418075492E+01 -0.98848476140E+01 -0.93770488597E+03  0.99357254232E+03  0.32829071015E+03 0.  0.
         13    1    3    3    0    0 -0.48237665325E+02 -0.14569437520E+03 -0.26775926392E+03  0.30862395684E+03  0.00000000000E+00 0.  1.
          1    1    3    3  501    0  0.43395857776E+02  0.13580952758E+03 -0.66994562204E+03  0.68494858548E+03  0.00000000000E+00 0.  1.
         21    1    1    2  502  501  0.48418075492E+01  0.98848476140E+01 -0.33479819186E+02  0.35242752523E+02  0.00000000000E+00 0. -1.
<mgrwt>
<rscale>  1 0.30000000E+03</rscale>
<asrwt>0</asrwt>
<pdfrwt beam="1">  1        1 0.10478311E+00 0.30000000E+03</pdfrwt>
<pdfrwt beam="2">0</pdfrwt>
<totfact> 0.31950664E+01</totfact>
</mgrwt>
</event>
<event>
 6    1  0.1904828E-004  0.3000000E+03  0.7818608E-02  0.1093470E+00
          1   -1    0    0  502    0  0.00000000000E+00  0.00000000000E+00  0.34013321876E+02  0.34013321876E+02  0.00000000000E+00 0.  1.
         13   -1    0    0    0    0 -0.00000000000E+00 -0.00000000000E+00 -0.10000000000E+04  0.10000000000E+04  0.00000000000E+00 0.  1.
    9000005    2    1    2  501    0  0.29217026635E+02  0.20723095363E+02 -0.90712273772E+03  0.96510726404E+03  0.32753211825E+03 0.  0.
         13    1    3    3    0    0  0.11556906779E+03  0.13987268571E+03 -0.53596865737E+03  0.56584713423E+03  0.00000000000E+00 0.  1.
          3    1    3    3  501    0 -0.86352041160E+02 -0.11914959034E+03 -0.37115408035E+03  0.39926012981E+03  0.00000000000E+00 0.  1.
         21    1    1    2  502  501 -0.29217026635E+02 -0.20723095363E+02 -0.58863940405E+02  0.68906057838E+02  0.00000000000E+00 0.  1.
<mgrwt>
<rscale>  1 0.30000000E+03</rscale>
<asrwt>0</asrwt>
<pdfrwt beam="1">  1        1 0.12368507E+00 0.30000000E+03</pdfrwt>
<pdfrwt beam="2">0</pdfrwt>
<totfact> 0.24787438E+01</totfact>
</mgrwt>
</event>
<event>
 6    1  0.1904828E-004  0.3000000E+03  0.7818608E-02  0.1093470E+00
          1   -1    0    0  502    0  0.00000000000E+00  0.00000000000E+00  0.10296502553E+03  0.10296502553E+03  0.00000000000E+00 0.  1.
         13   -1    0    0    0    0 -0.00000000000E+00 -0.00000000000E+00 -0.10000000000E+04  0.10000000000E+04  0.00000000000E+00 0.  1.
    9000005    2    1    2  501    0  0.23825640736E+02  0.40480310033E+01 -0.97307741028E+03  0.10231746768E+04  0.31531369314E+03 0.  0.
         13    1    3    3    0    0 -0.46243995432E+02 -0.71404344072E+02 -0.88082543797E+03  0.88492403044E+03  0.00000000000E+00 0.  1.
          1    1    3    3  501    0  0.70069636168E+02  0.75452375075E+02 -0.92251972304E+02  0.13825064633E+03  0.00000000000E+00 0.  1.
         21    1    1    2  502  501 -0.23825640736E+02 -0.40480310033E+01  0.76042435806E+02  0.79790348757E+02  0.00000000000E+00 0.  1.
<mgrwt>
<rscale>  1 0.30000000E+03</rscale>
<asrwt>0</asrwt>
<pdfrwt beam="1">  1        1 0.37441906E+00 0.30000000E+03</pdfrwt>
<pdfrwt beam="2">0</pdfrwt>
<totfact> 0.14611677E+00</totfact>
</mgrwt>
</event>
<event>
 6    1  0.1904828E-004  0.3000000E+03  0.7818608E-02  0.1093470E+00
          1   -1    0    0  502    0  0.00000000000E+00  0.00000000000E+00  0.55651661933E+02  0.55651661933E+02  0.00000000000E+00 0.  1.
         13   -1    0    0    0    0 -0.00000000000E+00 -0.00000000000E+00 -0.10000000000E+04  0.10000000000E+04  0.00000000000E+00 0.  1.
    9000005    2    1    2  501    0  0.66412745194E+02 -0.77850625792E+02 -0.88223878366E+03  0.93594798860E+03  0.29526597046E+03 0.  0.
         13    1    3    3    0    0 -0.11048112391E+03 -0.23418314086E+02 -0.48100065863E+03  0.49408109636E+03  0.00000000000E+00 0.  1.
          3    1    3    3  501    0  0.17689386910E+03 -0.54432311707E+02 -0.40123812503E+03  0.44186689225E+03  0.00000000000E+00 0.  1.
         21    1    1    2  502  501 -0.66412745194E+02  0.77850625792E+02 -0.62109554406E+02  0.11970367333E+03  0.00000000000E+00 0.  1.
<mgrwt>
<rscale>  1 0.30000000E+03</rscale>
<asrwt>0</asrwt>
<pdfrwt beam="1">  1        1 0.20237011E+00 0.30000000E+03</pdfrwt>
<pdfrwt beam="2">0</pdfrwt>
<totfact> 0.99812795E+00</totfact>
</mgrwt>
</event>
<event>
 6    1  0.1904828E-004  0.3000000E+03  0.7818608E-02  0.1093470E+00
          1   -1    0    0  502    0  0.00000000000E+00  0.00000000000E+00  0.33631752885E+02  0.33631752885E+02  0.00000000000E+00 0.  1.
         13   -1    0    0    0    0 -0.00000000000E+00 -0.00000000000E+00 -0.10000000000E+04  0.10000000000E+04  0.00000000000E+00 0.  1.
    9000005    2    1    2  501    0  0.14247723570E+02  0.13649021733E+01 -0.96485499570E+03  0.10192390285E+04  0.32817399948E+03 0.  0.
         13    1    3    3    0    0  0.77018915164E+02 -0.53052969424E+02 -0.92016595891E+03  0.92490644002E+03  0.00000000000E+00 0.  1.
          1    1    3    3  501    0 -0.62771191594E+02  0.54417871597E+02 -0.44689036797E+02  0.94332588500E+02  0.00000000000E+00 0.  1.
         21    1    1    2  502  501 -0.14247723570E+02 -0.13649021733E+01 -0.15132514125E+01  0.14392724367E+02  0.00000000000E+00 0.  1.
<mgrwt>
<rscale>  1 0.30000000E+03</rscale>
<asrwt>0</asrwt>
<pdfrwt beam="1">  1        1 0.12229754E+00 0.30000000E+03</pdfrwt>
<pdfrwt beam="2">0</pdfrwt>
<totfact> 0.25233646E+01</totfact>
</mgrwt>
</event>
<event>
 6    1  0.1904828E-004  0.3000000E+03  0.7818608E-02  0.1093470E+00
          1   -1    0    0  502    0  0.00000000000E+00  0.00000000000E+00  0.45150034593E+02  0.45150034593E+02  0.00000000000E+00 0.  1.
         13   -1    0    0    0    0 -0.00000000000E+00 -0.00000000000E+00 -0.10000000000E+04  0.10000000000E+04  0.00000000000E+00 0.  1.
    9000005    2    1    2  501    0  0.35761717412E+02 -0.10343562794E+02 -0.95353147997E+03  0.10078991537E+04  0.32442646472E+03 0.  0.
         13    1    3    3    0    0  0.50964210440E+02  0.13243174282E+03 -0.71929512529E+03  0.73315823294E+03  0.00000000000E+00 0.  1.
          3    1    3    3  501    0 -0.15202493027E+02 -0.14277530562E+03 -0.23423635468E+03  0.27474092076E+03  0.00000000000E+00 0.  1.
         21    1    1    2  502  501 -0.35761717412E+02  0.10343562794E+02 -0.13184854360E+01  0.37250880894E+02  0.00000000000E+00 0.  1.
<mgrwt>
<rscale>  1 0.30000000E+03</rscale>
<asrwt>0</asrwt>
<pdfrwt beam="1">  1        1 0.16418229E+00 0.30000000E+03</pdfrwt>
<pdfrwt beam="2">0</pdfrwt>
<totfact> 0.15258227E+01</totfact>
</mgrwt>
</event>
<event>
 6    1  0.1904828E-004  0.3000000E+03  0.7818608E-02  0.1093470E+00
          1   -1    0    0  502    0  0.00000000000E+00  0.00000000000E+00  0.39202615491E+02  0.39202615491E+02  0.00000000000E+00 0.  1.
         13   -1    0    0    0    0 -0.00000000000E+00 -0.00000000000E+00 -0.10000000000E+04  0.10000000000E+04  0.00000000000E+00 0.  1.
    9000005    2    1    2  501    0  0.14757176455E+02 -0.32193087577E+02 -0.94613711267E+03  0.10008738702E+04  0.32452873362E+03 0.  0.
         13    1    3    3    0    0  0.75914168179E+02 -0.14087235935E+03 -0.27434586192E+03  0.31760609961E+03  0.00000000000E+00 0.  1.
          3    1    3    3  501    0 -0.61156991724E+02  0.10867927177E+03 -0.67179125075E+03  0.68326777060E+03  0.00000000000E+00 0.  1.
         21    1    1    2  502  501 -0.14757176455E+02  0.32193087577E+02 -0.14660271838E+02  0.38328745283E+02  0.00000000000E+00 0. -1.
<mgrwt>
<rscale>  1 0.30000000E+03</rscale>
<asrwt>0</asrwt>
<pdfrwt beam="1">  1        1 0.14255527E+00 0.30000000E+03</pdfrwt>
<pdfrwt beam="2">0</pdfrwt>
<totfact> 0.19620074E+01</totfact>
</mgrwt>
</event>
<event>
 6    1  0.1904828E-004  0.3000000E+03  0.7818608E-02  0.1093470E+00
          1   -1    0    0  502    0  0.00000000000E+00  0.00000000000E+00  0.29604742454E+02  0.29604742454E+02  0.00000000000E+00 0.  1.
         13   -1    0    0    0    0 -0.00000000000E+00 -0.00000000000E+00 -0.10000000000E+04  0.10000000000E+04  0.00000000000E+00 0.  1.
    9000005    2    1    2  501    0 -0.11667308363E+02 -0.56641531094E+01 -0.91260001907E+03  0.97037216438E+03  0.32956810204E+03 0.  0.
         13    1    3    3    0    0 -0.13884349345E+03  0.82451666937E+02 -0.32729014051E+03  0.36495839370E+03  0.00000000000E+00 0.  1.
          1    1    3    3  501    0  0.12717618508E+03 -0.88115820047E+02 -0.58530987856E+03  0.60541377069E+03  0.00000000000E+00 0.  1.
         21    1    1    2  502  501  0.11667308363E+02  0.56641531094E+01 -0.57795238471E+02  0.59232578070E+02  0.00000000000E+00 0.  1.
<mgrwt>
<rscale>  1 0.30000000E+03</rscale>
<asrwt>0</asrwt>
<pdfrwt beam="1">  1        1 0.10765384E+00 0.30000000E+03</pdfrwt>
<pdfrwt beam="2">0</pdfrwt>
<totfact> 0.30688649E+01</totfact>
</mgrwt>
</event>
<event>
 6    1  0.1904828E-004  0.3000000E+03  0.7818608E-02  0.1093470E+00
          1   -1    0    0  502    0  0.00000000000E+00  0.00000000000E+00  0.29952849314E+02  0.29952849314E+02  0.00000000000E+00 0.  1.
         13   -1    0    0    0    0 -0.00000000000E+00 -0.00000000000E+00 -0.10000000000E+04  0.10000000000E+04  0.00000000000E+00 0.  1.
    9000005    2    1    2  501    0  0.99153417357E+01 -0.19563516155E+01 -0.95746348600E+03  0.10138131489E+04  0.33313455614E+03 0.  0.
         13    1    3    3    0    0  0.12154174705E+03 -0.99843311292E+02 -0.28870622986E+03  0.32877404132E+03  0.00000000000E+00 0.  1.
          3    1    3    3  501    0 -0.11162640531E+03  0.97886959676E+02 -0.66875725615E+03  0.68503910756E+03  0.00000000000E+00 0.  1.
         21    1    1    2  502  501 -0.99153417357E+01  0.19563516155E+01 -0.12583664682E+02  0.16139700437E+02  0.00000000000E+00 0. -1.
<mgrwt>
<rscale>  1 0.30000000E+03</rscale>
<asrwt>0</asrwt>
<pdfrwt beam="1">  1        1 0.10891968E+00 0.30000000E+03</pdfrwt>
<pdfrwt beam="2">0</pdfrwt>
<totfact> 0.30154819E+01</totfact>
</mgrwt>
</event>
<event>
 6    1  0.1904828E-004  0.3000000E+03  0.7818608E-02  0.1093470E+00
          1   -1    0    0  502    0  0.00000000000E+00  0.00000000000E+00  0.37031668447E+02  0.37031668447E+02  0.00000000000E+00 0.  1.
         13   -1    0    0    0    0 -0.00000000000E+00 -0.00000000000E+00 -0.10000000000E+04  0.10000000000E+04  0.00000000000E+00 0.  1.
    9000005    2    1    2  501    0  0.70257242227E+01 -0.12271921119E+02 -0.97001297817E+03  0.10212333174E+04  0.31904913408E+03 0.  0.
         13    1    3    3    0    0  0.37400721375E+02 -0.11291850111E+03 -0.13625070875E+03  0.18086917229E+03  0.00000000000E+00 0.  1.
          1    1    3    3  501    0 -0.30374997152E+02  0.10064657999E+03 -0.83376226943E+03  0.84036414514E+03  0.00000000000E+00 0.  1.
         21    1    1    2  502  501 -0.70257242227E+01  0.12271921119E+02  0.70446466206E+01  0.15798351016E+02  0.00000000000E+00 0.  1.
<mgrwt>
<rscale>  1 0.30000000E+03</rscale>
<asrwt>0</asrwt>
<pdfrwt beam="1">  1        1 0.13466090E+00 0.30000000E+03</pdfrwt>
<pdfrwt beam="2">0</pdfrwt>
<totfact> 0.21592400E+01</totfact>
</mgrwt>
</event>
<event>
 6    1  0.1904828E-004  0.3000000E+03  0.7818608E-02  0.1093470E+00
          1   -1    0    0  502    0  0.00000000000E+00  0.00000000000E+00  0.28545601233E+02  0.28545601233E+02  0.00000000000E+00 0.  1.
         13   -1    0    0    0    0 -0.00000000000E+00 -0.00000000000E+00 -0.10000000000E+04  0.10000000000E+04  0.00000000000E+00 0.  1.
    9000005    2    1    2  501    0  0.94571780309E+01 -0.45914650095E+01 -0.95545819124E+03  0.10094040647E+04  0.32540081557E+03 0.  0.
         13    1    3    3    0    0  0.18805708220E+02 -0.22821918895E+02 -0.97828478532E+03  0.97873163627E+03  0.00000000000E+00 0.  1.
          3    1    3    3  501    0 -0.93485301886E+01  0.18230453885E+02  0.22826594084E+02  0.30672428385E+02  0.00000000000E+00 0.  1.
         21    1    1    2  502  501 -0.94571780309E+01  0.45914650095E+01 -0.15996207530E+02  0.19141536578E+02  0.00000000000E+00 0.  1.
<mgrwt>
<rscale>  1 0.30000000E+03</rscale>
<asrwt>0</asrwt>
<pdfrwt beam="1">  1        1 0.10380241E+00 0.30000000E+03</pdfrwt>
<pdfrwt beam="2">0</pdfrwt>
<totfact> 0.32399002E+01</totfact>
</mgrwt>
</event>
<event>
 6    1  0.1904828E-004  0.3000000E+03  0.7818608E-02  0.1093470E+00
          3   -1    0    0  502    0  0.00000000000E+00  0.00000000000E+00  0.27700982559E+02  0.27700982559E+02  0.00000000000E+00 0.  1.
         13   -1    0    0    0    0 -0.00000000000E+00 -0.00000000000E+00 -0.10000000000E+04  0.10000000000E+04  0.00000000000E+00 0.  1.
    9000005    2    1    2  501    0 -0.12858072937E+02  0.11010619880E+01 -0.96301689025E+03  0.10118044338E+04  0.31012922948E+03 0.  0.
         13    1    3    3    0    0 -0.44640027641E+02  0.11361962535E+03 -0.81042829228E+03  0.81957072194E+03  0.00000000000E+00 0.  1.
          3    1    3    3  501    0  0.31781954704E+02 -0.11251856336E+03 -0.15258859797E+03  0.19223371186E+03  0.00000000000E+00 0.  1.
         21    1    1    2  502  501  0.12858072937E+02 -0.11010619880E+01 -0.92821271875E+01  0.15896548754E+02  0.00000000000E+00 0.  1.
<mgrwt>
<rscale>  1 0.30000000E+03</rscale>
<asrwt>0</asrwt>
<pdfrwt beam="1">  1        3 0.10073106E+00 0.30000000E+03</pdfrwt>
<pdfrwt beam="2">0</pdfrwt>
<totfact> 0.38426452E+00</totfact>
</mgrwt>
</event>
<event>
 6    1  0.1904828E-004  0.3000000E+03  0.7818608E-02  0.1093470E+00
          1   -1    0    0  502    0  0.00000000000E+00  0.00000000000E+00  0.26393473024E+02  0.26393473024E+02  0.00000000000E+00 0.  1.
         13   -1    0    0    0    0 -0.00000000000E+00 -0.00000000000E+00 -0.10000000000E+04  0.10000000000E+04  0.00000000000E+00 0.  1.
    9000005    2    1    2  501    0 -0.49819119924E+01  0.91397056656E+01 -0.96235139095E+03  0.10110627277E+04  0.30986978864E+03 0.  0.
         13    1    3    3    0    0  0.15818380788E+02 -0.15834877273E+02 -0.97567798314E+03  0.97593467573E+03  0.00000000000E+00 0.  1.
          3    1    3    3  501    0 -0.20800292781E+02  0.24974582939E+02  0.13326592185E+02  0.35128051924E+02  0.00000000000E+00 0.  1.
         21    1    1    2  502  501  0.49819119924E+01 -0.91397056656E+01 -0.11255136026E+02  0.15330745374E+02  0.00000000000E+00 0. -1.
<mgrwt>
<rscale>  1 0.30000000E+03</rscale>
<asrwt>0</asrwt>
<pdfrwt beam="1">  1        1 0.95976468E-01 0.30000000E+03</pdfrwt>
<pdfrwt beam="2">0</pdfrwt>
<totfact> 0.36331431E+01</totfact>
</mgrwt>
</event>
<event>
 6    1  0.1904828E-004  0.3000000E+03  0.7818608E-02  0.1093470E+00
          1   -1    0    0  502    0  0.00000000000E+00  0.00000000000E+00  0.33286404069E+02  0.33286404069E+02  0.00000000000E+00 0.  1.
         13   -1    0    0    0    0 -0.00000000000E+00 -0.00000000000E+00 -0.10000000000E+04  0.10000000000E+04  0.00000000000E+00 0.  1.
    9000005    2    1    2  501    0 -0.31179037760E+02 -0.28697344134E+02 -0.89273640418E+03  0.94803210884E+03  0.31621341225E+03 0.  0.
         13    1    3    3    0    0 -0.14311020450E+03 -0.12138467647E+02 -0.76072775140E+03  0.77416702641E+03  0.00000000000E+00 0.  1.
          1    1    3    3  501    0  0.11193116674E+03 -0.16558876486E+02 -0.13200865278E+03  0.17386508243E+03  0.00000000000E+00 0.  1.
         21    1    1    2  502  501  0.31179037760E+02  0.28697344134E+02 -0.73977191751E+02  0.85254295231E+02  0.00000000000E+00 0.  1.
<mgrwt>
<rscale>  1 0.30000000E+03</rscale>
<asrwt>0</asrwt>
<pdfrwt beam="1">  1        1 0.12104172E+00 0.30000000E+03</pdfrwt>
<pdfrwt beam="2">0</pdfrwt>
<totfact> 0.25646621E+01</totfact>
</mgrwt>
</event>
<event>
 6    1  0.1904828E-004  0.3000000E+03  0.7818608E-02  0.1093470E+00
          1   -1    0    0  502    0  0.00000000000E+00  0.00000000000E+00  0.33291257603E+02  0.33291257603E+02  0.00000000000E+00 0.  1.
         13   -1    0    0    0    0 -0.00000000000E+00 -0.00000000000E+00 -0.10000000000E+04  0.10000000000E+04  0.00000000000E+00 0.  1.
    9000005    2    1    2  501    0  0.25378938502E+02 -0.15502875022E+01 -0.91916208246E+03  0.97937299742E+03  0.33714394599E+03 0.  0.
         13    1    3    3    0    0  0.11779007368E+03  0.62469014005E+02 -0.81590951876E+03  0.82673165052E+03  0.00000000000E+00 0.  1.
          1    1    3    3  501    0 -0.92411135177E+02 -0.64019301507E+02 -0.10325256370E+03  0.15264134689E+03  0.00000000000E+00 0.  1.
         21    1    1    2  502  501 -0.25378938502E+02  0.15502875022E+01 -0.47546659933E+02  0.53918260187E+02  0.00000000000E+00 0. -1.
<mgrwt>
<rscale>  1 0.30000000E+03</rscale>
<asrwt>0</asrwt>
<pdfrwt beam="1">  1        1 0.12105937E+00 0.30000000E+03</pdfrwt>
<pdfrwt beam="2">0</pdfrwt>
<totfact> 0.25640756E+01</totfact>
</mgrwt>
</event>
<event>
 6    1  0.1904828E-004  0.3000000E+03  0.7818608E-02  0.1093470E+00
          1   -1    0    0  502    0  0.00000000000E+00  0.00000000000E+00  0.78715648210E+02  0.78715648210E+02  0.00000000000E+00 0.  1.
         13   -1    0    0    0    0 -0.00000000000E+00 -0.00000000000E+00 -0.10000000000E+04  0.10000000000E+04  0.00000000000E+00 0.  1.
    9000005    2    1    2  501    0  0.56527098700E+02  0.68778757918E+01 -0.96191904411E+03  0.10087599745E+04  0.29843897313E+03 0.  0.
         13    1    3    3    0    0  0.10195867656E+03 -0.11379023910E+03 -0.32770588258E+03  0.36157286363E+03  0.00000000000E+00 0.  1.
          3    1    3    3  501    0 -0.45431577863E+02  0.12066811489E+03 -0.63421316154E+03  0.64718711088E+03  0.00000000000E+00 0.  1.
         21    1    1    2  502  501 -0.56527098700E+02 -0.68778757918E+01  0.40634692321E+02  0.69955673701E+02  0.00000000000E+00 0.  1.
<mgrwt>
<rscale>  1 0.30000000E+03</rscale>
<asrwt>0</asrwt>
<pdfrwt beam="1">  1        1 0.28623932E+00 0.30000000E+03</pdfrwt>
<pdfrwt beam="2">0</pdfrwt>
<totfact> 0.40363242E+00</totfact>
</mgrwt>
</event>
<event>
 6    1  0.1904828E-004  0.3000000E+03  0.7818608E-02  0.1093470E+00
          1   -1    0    0  502    0  0.00000000000E+00  0.00000000000E+00  0.50739529620E+02  0.50739529620E+02  0.00000000000E+00 0.  1.
         13   -1    0    0    0    0 -0.00000000000E+00 -0.00000000000E+00 -0.10000000000E+04  0.10000000000E+04  0.00000000000E+00 0.  1.
    9000005    2    1    2  501    0  0.36963097689E+02 -0.25230731269E+02 -0.92668177840E+03  0.10006131122E+04  0.37481278194E+03 0.  0.
         13    1    3    3    0    0  0.44227762516E+02  0.16006663799E+03 -0.25906685547E+03  0.30772237354E+03  0.00000000000E+00 0.  1.
          3    1    3    3  501    0 -0.72646648264E+01 -0.18529736926E+03 -0.66761492293E+03  0.69289073866E+03  0.00000000000E+00 0.  1.
         21    1    1    2  502  501 -0.36963097689E+02  0.25230731269E+02 -0.22578691977E+02  0.50126417412E+02  0.00000000000E+00 0. -1.
<mgrwt>
<rscale>  1 0.30000000E+03</rscale>
<asrwt>0</asrwt>
<pdfrwt beam="1">  1        1 0.18450777E+00 0.30000000E+03</pdfrwt>
<pdfrwt beam="2">0</pdfrwt>
<totfact> 0.12150450E+01</totfact>
</mgrwt>
</event>
<event>
 6    1  0.1904828E-004  0.3000000E+03  0.7818608E-02  0.1093470E+00
          1   -1    0    0  502    0  0.00000000000E+00  0.00000000000E+00  0.31518143036E+02  0.31518143036E+02  0.00000000000E+00 0.  1.
         13   -1    0    0    0    0 -0.00000000000E+00 -0.00000000000E+00 -0.10000000000E+04  0.10000000000E+04  0.00000000000E+00 0.  1.
    9000005    2    1    2  501    0 -0.12513184506E+02 -0.97629999822E+01 -0.97615286756E+03  0.10138903139E+04  0.27358225803E+03 0.  0.
         13    1    3    3    0    0 -0.97836122744E+01  0.12155641615E+03 -0.27923486568E+03  0.30470279222E+03  0.00000000000E+00 0.  1.
          1    1    3    3  501    0 -0.27295722311E+01 -0.13131941613E+03 -0.69691800188E+03  0.70918752172E+03  0.00000000000E+00 0.  1.
         21    1    1    2  502  501  0.12513184506E+02  0.97629999822E+01  0.76710105934E+01  0.17627829096E+02  0.00000000000E+00 0. -1.
<mgrwt>
<rscale>  1 0.30000000E+03</rscale>
<asrwt>0</asrwt>
<pdfrwt beam="1">  1        1 0.11461167E+00 0.30000000E+03</pdfrwt>
<pdfrwt beam="2">0</pdfrwt>
<totfact> 0.27910511E+01</totfact>
</mgrwt>
</event>
<event>
 6    1  0.1904828E-004  0.3000000E+03  0.7818608E-02  0.1093470E+00
          1   -1    0    0  502    0  0.00000000000E+00  0.00000000000E+00  0.28026057520E+02  0.28026057520E+02  0.00000000000E+00 0.  1.
         13   -1    0    0    0    0 -0.00000000000E+00 -0.00000000000E+00 -0.10000000000E+04  0.10000000000E+04  0.00000000000E+00 0.  1.
    9000005    2    1    2  501    0 -0.12617185759E+02  0.40724118160E+01 -0.93713342850E+03  0.99074819105E+03  0.32122754759E+03 0.  0.
         13    1    3    3    0    0 -0.15735282974E+03 -0.12248449637E+01 -0.65469369512E+03  0.67333888028E+03  0.00000000000E+00 0.  1.
          1    1    3    3  501    0  0.14473564398E+03  0.52972567798E+01 -0.28243973339E+03  0.31740931077E+03  0.00000000000E+00 0.  1.
         21    1    1    2  502  501  0.12617185759E+02 -0.40724118160E+01 -0.34840513979E+02  0.37277866473E+02  0.00000000000E+00 0.  1.
<mgrwt>
<rscale>  1 0.30000000E+03</rscale>
<asrwt>0</asrwt>
<pdfrwt beam="1">  1        1 0.10191315E+00 0.30000000E+03</pdfrwt>
<pdfrwt beam="2">0</pdfrwt>
<totfact> 0.33288879E+01</totfact>
</mgrwt>
</event>
<event>
 6    1  0.1904828E-004  0.3000000E+03  0.7818608E-02  0.1093470E+00
          1   -1    0    0  502    0  0.00000000000E+00  0.00000000000E+00  0.35370591838E+02  0.35370591838E+02  0.00000000000E+00 0.  1.
         13   -1    0    0    0    0 -0.00000000000E+00 -0.00000000000E+00 -0.10000000000E+04  0.10000000000E+04  0.00000000000E+00 0.  1.
    9000005    2    1    2  501    0 -0.49969627858E+02 -0.60771246586E+01 -0.86182573990E+03  0.92090448611E+03  0.32060500843E+03 0.  0.
         13    1    3    3    0    0  0.10471674821E+03  0.79823037109E+02 -0.23268599885E+03  0.26735760447E+03  0.00000000000E+00 0.  1.
          1    1    3    3  501    0 -0.15468637606E+03 -0.85900161768E+02 -0.62913974104E+03  0.65354688163E+03  0.00000000000E+00 0.  1.
         21    1    1    2  502  501  0.49969627858E+02  0.60771246586E+01 -0.10280366827E+03  0.11446610573E+03  0.00000000000E+00 0. -1.
<mgrwt>
<rscale>  1 0.30000000E+03</rscale>
<asrwt>0</asrwt>
<pdfrwt beam="1">  1        1 0.12862061E+00 0.30000000E+03</pdfrwt>
<pdfrwt beam="2">0</pdfrwt>
<totfact> 0.23279936E+01</totfact>
</mgrwt>
</event>
<event>
 6    1  0.1904828E-004  0.3000000E+03  0.7818608E-02  0.1093470E+00
          1   -1    0    0  502    0  0.00000000000E+00  0.00000000000E+00  0.28717529589E+02  0.28717529589E+02  0.00000000000E+00 0.  1.
         13   -1    0    0    0    0 -0.00000000000E+00 -0.00000000000E+00 -0.10000000000E+04  0.10000000000E+04  0.00000000000E+00 0.  1.
    9000005    2    1    2  501    0  0.34880069932E+01  0.28879399362E+02 -0.94658304775E+03  0.99055672011E+03  0.29040827049E+03 0.  0.
         13    1    3    3    0    0 -0.73293781032E+02  0.13229991335E+03 -0.36916164233E+03  0.39894305806E+03  0.00000000000E+00 0.  1.
          3    1    3    3  501    0  0.76781788025E+02 -0.10342051398E+03 -0.57742140542E+03  0.59161366204E+03  0.00000000000E+00 0.  1.
         21    1    1    2  502  501 -0.34880069932E+01 -0.28879399362E+02 -0.24699422664E+02  0.38160809481E+02  0.00000000000E+00 0. -1.
<mgrwt>
<rscale>  1 0.30000000E+03</rscale>
<asrwt>0</asrwt>
<pdfrwt beam="1">  1        1 0.10442760E+00 0.30000000E+03</pdfrwt>
<pdfrwt beam="2">0</pdfrwt>
<totfact> 0.32112143E+01</totfact>
</mgrwt>
</event>
<event>
 6    1  0.1904828E-004  0.3000000E+03  0.7818608E-02  0.1093470E+00
          1   -1    0    0  502    0  0.00000000000E+00  0.00000000000E+00  0.31347644984E+02  0.31347644984E+02  0.00000000000E+00 0.  1.
         13   -1    0    0    0    0 -0.00000000000E+00 -0.00000000000E+00 -0.10000000000E+04  0.10000000000E+04  0.00000000000E+00 0.  1.
    9000005    2    1    2  501    0  0.54155206878E+01 -0.88856532092E+01 -0.95823835262E+03  0.10166257517E+04  0.33940962833E+03 0.  0.
         13    1    3    3    0    0  0.14788549838E+03  0.83051785526E+02 -0.50385138402E+03  0.53163327293E+03  0.00000000000E+00 0.  1.
          3    1    3    3  501    0 -0.14246997769E+03 -0.91937438735E+02 -0.45438696860E+03  0.48499247872E+03  0.00000000000E+00 0.  1.
         21    1    1    2  502  501 -0.54155206878E+01  0.88856532092E+01 -0.10414002396E+02  0.14721893328E+02  0.00000000000E+00 0. -1.
<mgrwt>
<rscale>  1 0.30000000E+03</rscale>
<asrwt>0</asrwt>
<pdfrwt beam="1">  1        1 0.11399168E+00 0.30000000E+03</pdfrwt>
<pdfrwt beam="2">0</pdfrwt>
<totfact> 0.28143227E+01</totfact>
</mgrwt>
</event>
<event>
 6    1  0.1904828E-004  0.3000000E+03  0.7818608E-02  0.1093470E+00
          1   -1    0    0  502    0  0.00000000000E+00  0.00000000000E+00  0.56305073155E+02  0.56305073155E+02  0.00000000000E+00 0.  1.
         13   -1    0    0    0    0 -0.00000000000E+00 -0.00000000000E+00 -0.10000000000E+04  0.10000000000E+04  0.00000000000E+00 0.  1.
    9000005    2    1    2  501    0 -0.70759683319E+02  0.76591193310E+02 -0.83829227196E+03  0.90803888236E+03  0.33305785529E+03 0.  0.
         13    1    3    3    0    0 -0.13916761267E+03 -0.92024910478E+02 -0.38589970059E+03  0.42042215389E+03  0.00000000000E+00 0.  1.
          3    1    3    3  501    0  0.68407929350E+02  0.16861610379E+03 -0.45239257137E+03  0.48761672847E+03  0.00000000000E+00 0.  1.
         21    1    1    2  502  501  0.70759683319E+02 -0.76591193310E+02 -0.10540265489E+03  0.14826619080E+03  0.00000000000E+00 0. -1.
<mgrwt>
<rscale>  1 0.30000000E+03</rscale>
<asrwt>0</asrwt>
<pdfrwt beam="1">  1        1 0.20474615E+00 0.30000000E+03</pdfrwt>
<pdfrwt beam="2">0</pdfrwt>
<totfact> 0.97256570E+00</totfact>
</mgrwt>
</event>
<event>
 6    1  0.1904828E-004  0.3000000E+03  0.7818608E-02  0.1093470E+00
          1   -1    0    0  502    0  0.00000000000E+00  0.00000000000E+00  0.33274334552E+02  0.33274334552E+02  0.00000000000E+00 0.  1.
         13   -1    0    0    0    0 -0.00000000000E+00 -0.00000000000E+00 -0.10000000000E+04  0.10000000000E+04  0.00000000000E+00 0.  1.
    9000005    2    1    2  501    0 -0.34170656069E+02 -0.51352613657E+01 -0.90855624980E+03  0.96561573893E+03  0.32518501128E+03 0.  0.
         13    1    3    3    0    0 -0.16461683606E+03  0.38826027380E+02 -0.66169485447E+03  0.68296869880E+03  0.00000000000E+00 0.  1.
          3    1    3    3  501    0  0.13044617999E+03 -0.43961288746E+02 -0.24686139534E+03  0.28264704013E+03  0.00000000000E+00 0.  1.
         21    1    1    2  502  501  0.34170656069E+02  0.51352613657E+01 -0.58169415643E+02  0.67658595623E+02  0.00000000000E+00 0. -1.
<mgrwt>
<rscale>  1 0.30000000E+03</rscale>
<asrwt>0</asrwt>
<pdfrwt beam="1">  1        1 0.12099784E+00 0.30000000E+03</pdfrwt>
<pdfrwt beam="2">0</pdfrwt>
<totfact> 0.25661215E+01</totfact>
</mgrwt>
</event>
<event>
 6    1  0.1904828E-004  0.3000000E+03  0.7818608E-02  0.1093470E+00
          1   -1    0    0  502    0  0.00000000000E+00  0.00000000000E+00  0.58107639470E+02  0.58107639470E+02  0.00000000000E+00 0.  1.
         13   -1    0    0    0    0 -0.00000000000E+00 -0.00000000000E+00 -0.10000000000E+04  0.10000000000E+04  0.00000000000E+00 0.  1.
    9000005    2    1    2  501    0  0.34641213955E+02 -0.63670097085E+02 -0.92253727441E+03  0.98308421429E+03  0.33185185661E+03 0.  0.
         13    1    3    3    0    0 -0.67662267542E+02 -0.87183835286E+02 -0.84601373197E+03  0.85318136306E+03  0.00000000000E+00 0.  1.
          1    1    3    3  501    0  0.10230348150E+03  0.23513738201E+02 -0.76523542445E+02  0.12990285123E+03  0.00000000000E+00 0.  1.
         21    1    1    2  502  501 -0.34641213955E+02  0.63670097085E+02 -0.19355086117E+02  0.75023425180E+02  0.00000000000E+00 0. -1.
<mgrwt>
<rscale>  1 0.30000000E+03</rscale>
<asrwt>0</asrwt>
<pdfrwt beam="1">  1        1 0.21130095E+00 0.30000000E+03</pdfrwt>
<pdfrwt beam="2">0</pdfrwt>
<totfact> 0.90566082E+00</totfact>
</mgrwt>
</event>
<event>
 6    1  0.1904828E-004  0.3000000E+03  0.7818608E-02  0.1093470E+00
          1   -1    0    0  502    0  0.00000000000E+00  0.00000000000E+00  0.32664987220E+02  0.32664987220E+02  0.00000000000E+00 0.  1.
         13   -1    0    0    0    0 -0.00000000000E+00 -0.00000000000E+00 -0.10000000000E+04  0.10000000000E+04  0.00000000000E+00 0.  1.
    9000005    2    1    2  501    0  0.32302310630E+02 -0.13716872438E+01 -0.91215374745E+03  0.96870958994E+03  0.32454350996E+03 0.  0.
         13    1    3    3    0    0  0.64195865176E+02 -0.14535299163E+03 -0.30507615949E+03  0.34397683696E+03  0.00000000000E+00 0.  1.
          1    1    3    3  501    0 -0.31893554546E+02  0.14398130438E+03 -0.60707758796E+03  0.62473275297E+03  0.00000000000E+00 0.  1.
         21    1    1    2  502  501 -0.32302310630E+02  0.13716872438E+01 -0.55181265335E+02  0.63955397285E+02  0.00000000000E+00 0.  1.
<mgrwt>
<rscale>  1 0.30000000E+03</rscale>
<asrwt>0</asrwt>
<pdfrwt beam="1">  1        1 0.11878202E+00 0.30000000E+03</pdfrwt>
<pdfrwt beam="2">0</pdfrwt>
<totfact> 0.26412680E+01</totfact>
</mgrwt>
</event>
<event>
 6    1  0.1904828E-004  0.3000000E+03  0.7818608E-02  0.1093470E+00
          1   -1    0    0  502    0  0.00000000000E+00  0.00000000000E+00  0.44240962088E+02  0.44240962088E+02  0.00000000000E+00 0.  1.
         13   -1    0    0    0    0 -0.00000000000E+00 -0.00000000000E+00 -0.10000000000E+04  0.10000000000E+04  0.00000000000E+00 0.  1.
    9000005    2    1    2  501    0 -0.10162396874E+02  0.19554088542E+01 -0.97039633616E+03  0.10263147680E+04  0.33398481386E+03 0.  0.
         13    1    3    3    0    0  0.94629898945E+02 -0.12989772278E+03 -0.38566785519E+03  0.41781327251E+03  0.00000000000E+00 0.  1.
          1    1    3    3  501    0 -0.10479229582E+03  0.13185313163E+03 -0.58472848097E+03  0.60850149551E+03  0.00000000000E+00 0.  1.
         21    1    1    2  502  501  0.10162396874E+02 -0.19554088542E+01  0.14637298244E+02  0.17926194072E+02  0.00000000000E+00 0.  1.
<mgrwt>
<rscale>  1 0.30000000E+03</rscale>
<asrwt>0</asrwt>
<pdfrwt beam="1">  1        1 0.16087657E+00 0.30000000E+03</pdfrwt>
<pdfrwt beam="2">0</pdfrwt>
<totfact> 0.15843518E+01</totfact>
</mgrwt>
</event>
<event>
 6    1  0.1904828E-004  0.3000000E+03  0.7818608E-02  0.1093470E+00
          1   -1    0    0  502    0  0.00000000000E+00  0.00000000000E+00  0.91270578402E+02  0.91270578402E+02  0.00000000000E+00 0.  1.
         13   -1    0    0    0    0 -0.00000000000E+00 -0.00000000000E+00 -0.10000000000E+04  0.10000000000E+04  0.00000000000E+00 0.  1.
    9000005    2    1    2  501    0  0.72270855633E+02 -0.10700529852E+03 -0.90252825294E+03  0.96199697329E+03  0.30693275937E+03 0.  0.
         13    1    3    3    0    0  0.19748483342E+02 -0.20681841434E+03 -0.69999574313E+03  0.73017662213E+03  0.00000000000E+00 0.  1.
          3    1    3    3  501    0  0.52522372291E+02  0.99813115822E+02 -0.20253250982E+03  0.23182035117E+03  0.00000000000E+00 0.  1.
         21    1    1    2  502  501 -0.72270855633E+02  0.10700529852E+03 -0.62011686541E+01  0.12927360511E+03  0.00000000000E+00 0.  1.
<mgrwt>
<rscale>  1 0.30000000E+03</rscale>
<asrwt>0</asrwt>
<pdfrwt beam="1">  1        1 0.33189371E+00 0.30000000E+03</pdfrwt>
<pdfrwt beam="2">0</pdfrwt>
<totfact> 0.24328756E+00</totfact>
</mgrwt>
</event>
<event>
 6    1  0.1904828E-004  0.3000000E+03  0.7818608E-02  0.1093470E+00
          3   -1    0    0  502    0  0.00000000000E+00  0.00000000000E+00  0.35757271738E+02  0.35757271738E+02  0.00000000000E+00 0.  1.
         13   -1    0    0    0    0 -0.00000000000E+00 -0.00000000000E+00 -0.10000000000E+04  0.10000000000E+04  0.00000000000E+00 0.  1.
    9000005    2    1    2  501    0  0.34545786408E+02  0.38938203614E+02 -0.80257646414E+03  0.86591741772E+03  0.32089624250E+03 0.  0.
         13    1    3    3    0    0  0.16901862035E+03  0.74995517830E+02 -0.42463487135E+03  0.46314835170E+03  0.00000000000E+00 0.  1.
          1    1    3    3  501    0 -0.13447283394E+03 -0.36057314216E+02 -0.37794159280E+03  0.40276906602E+03  0.00000000000E+00 0.  1.
         21    1    1    2  502  501 -0.34545786408E+02 -0.38938203614E+02 -0.16166626412E+03  0.16983985402E+03  0.00000000000E+00 0.  1.
<mgrwt>
<rscale>  1 0.30000000E+03</rscale>
<asrwt>0</asrwt>
<pdfrwt beam="1">  1        3 0.13002672E+00 0.30000000E+03</pdfrwt>
<pdfrwt beam="2">0</pdfrwt>
<totfact> 0.17681281E+00</totfact>
</mgrwt>
</event>
<event>
 6    1  0.1904828E-004  0.3000000E+03  0.7818608E-02  0.1093470E+00
          1   -1    0    0  502    0  0.00000000000E+00  0.00000000000E+00  0.38326524592E+02  0.38326524592E+02  0.00000000000E+00 0.  1.
         13   -1    0    0    0    0 -0.00000000000E+00 -0.00000000000E+00 -0.10000000000E+04  0.10000000000E+04  0.00000000000E+00 0.  1.
    9000005    2    1    2  501    0 -0.27329192589E+02 -0.15349912085E+02 -0.94940897924E+03  0.10046676114E+04  0.32710410428E+03 0.  0.
         13    1    3    3    0    0  0.21091273259E+02 -0.12580072214E+03 -0.15308207817E+03  0.19926059860E+03  0.00000000000E+00 0.  1.
          3    1    3    3  501    0 -0.48420465848E+02  0.11045081005E+03 -0.79632690107E+03  0.80540701284E+03  0.00000000000E+00 0.  1.
         21    1    1    2  502  501  0.27329192589E+02  0.15349912085E+02 -0.12264496167E+02  0.33658913156E+02  0.00000000000E+00 0.  1.
<mgrwt>
<rscale>  1 0.30000000E+03</rscale>
<asrwt>0</asrwt>
<pdfrwt beam="1">  1        1 0.13936947E+00 0.30000000E+03</pdfrwt>
<pdfrwt beam="2">0</pdfrwt>
<totfact> 0.20387010E+01</totfact>
</mgrwt>
</event>
<event>
 6    1  0.1904828E-004  0.3000000E+03  0.7818608E-02  0.1093470E+00
          1   -1    0    0  502    0  0.00000000000E+00  0.00000000000E+00  0.33531812698E+02  0.33531812698E+02  0.00000000000E+00 0.  1.
         13   -1    0    0    0    0 -0.00000000000E+00 -0.00000000000E+00 -0.10000000000E+04  0.10000000000E+04  0.00000000000E+00 0.  1.
    9000005    2    1    2  501    0  0.60905157144E+01 -0.90387362952E+01 -0.96769049518E+03  0.10225642618E+04  0.33029378132E+03 0.  0.
         13    1    3    3    0    0 -0.13039098841E+03 -0.83111575158E+02 -0.66046342052E+03  0.67832239653E+03  0.00000000000E+00 0.  1.
          3    1    3    3  501    0  0.13648150412E+03  0.74072838862E+02 -0.30722707466E+03  0.34424186530E+03  0.00000000000E+00 0.  1.
         21    1    1    2  502  501 -0.60905157144E+01  0.90387362952E+01  0.12223078768E+01  0.10967550867E+02  0.00000000000E+00 0. -1.
<mgrwt>
<rscale>  1 0.30000000E+03</rscale>
<asrwt>0</asrwt>
<pdfrwt beam="1">  1        1 0.12193412E+00 0.30000000E+03</pdfrwt>
<pdfrwt beam="2">0</pdfrwt>
<totfact> 0.25352249E+01</totfact>
</mgrwt>
</event>
<event>
 6    1  0.1904828E-004  0.3000000E+03  0.7818608E-02  0.1093470E+00
          1   -1    0    0  502    0  0.00000000000E+00  0.00000000000E+00  0.40398088125E+02  0.40398088125E+02  0.00000000000E+00 0.  1.
         13   -1    0    0    0    0 -0.00000000000E+00 -0.00000000000E+00 -0.10000000000E+04  0.10000000000E+04  0.00000000000E+00 0.  1.
    9000005    2    1    2  501    0 -0.58851414710E+01  0.17028459492E+02 -0.93429795671E+03  0.10093353537E+04  0.38147159920E+03 0.  0.
         13    1    3    3    0    0 -0.98552841192E+02 -0.50799150508E+02 -0.87135054727E+03  0.87837633872E+03  0.00000000000E+00 0.  1.
          3    1    3    3  501    0  0.92667699721E+02  0.67827610000E+02 -0.62947409444E+02  0.13095901498E+03  0.00000000000E+00 0.  1.
         21    1    1    2  502  501  0.58851414710E+01 -0.17028459492E+02 -0.25303955160E+02  0.31062734418E+02  0.00000000000E+00 0.  1.
<mgrwt>
<rscale>  1 0.30000000E+03</rscale>
<asrwt>0</asrwt>
<pdfrwt beam="1">  1        1 0.14690245E+00 0.30000000E+03</pdfrwt>
<pdfrwt beam="2">0</pdfrwt>
<totfact> 0.18631460E+01</totfact>
</mgrwt>
</event>
<event>
 6    1  0.1904828E-004  0.3000000E+03  0.7818608E-02  0.1093470E+00
          1   -1    0    0  502    0  0.00000000000E+00  0.00000000000E+00  0.31376468720E+02  0.31376468720E+02  0.00000000000E+00 0.  1.
         13   -1    0    0    0    0 -0.00000000000E+00 -0.00000000000E+00 -0.10000000000E+04  0.10000000000E+04  0.00000000000E+00 0.  1.
    9000005    2    1    2  501    0 -0.16160333083E+01 -0.17775311321E+02 -0.96027961586E+03  0.10116738247E+04  0.31784967158E+03 0.  0.
         13    1    3    3    0    0  0.96484113664E+02 -0.85199091249E+01 -0.79244789979E+02  0.12514595391E+03  0.00000000000E+00 0.  1.
          3    1    3    3  501    0 -0.98100146972E+02 -0.92554021961E+01 -0.88103482588E+03  0.88652787081E+03  0.00000000000E+00 0.  1.
         21    1    1    2  502  501  0.16160333083E+01  0.17775311321E+02 -0.83439154231E+01  0.19702644005E+02  0.00000000000E+00 0.  1.
<mgrwt>
<rscale>  1 0.30000000E+03</rscale>
<asrwt>0</asrwt>
<pdfrwt beam="1">  1        1 0.11409649E+00 0.30000000E+03</pdfrwt>
<pdfrwt beam="2">0</pdfrwt>
<totfact> 0.28103693E+01</totfact>
</mgrwt>
</event>
<event>
 6    1  0.1904828E-004  0.3000000E+03  0.7818608E-02  0.1093470E+00
          1   -1    0    0  502    0  0.00000000000E+00  0.00000000000E+00  0.34478623124E+02  0.34478623124E+02  0.00000000000E+00 0.  1.
         13   -1    0    0    0    0 -0.00000000000E+00 -0.00000000000E+00 -0.10000000000E+04  0.10000000000E+04  0.00000000000E+00 0.  1.
    9000005    2    1    2  501    0 -0.24423748651E+02  0.27820762091E+01 -0.95340547267E+03  0.10070732481E+04  0.32343511289E+03 0.  0.
         13    1    3    3    0    0  0.70242262098E+02 -0.13549025765E+03 -0.37452604366E+03  0.40442717847E+03  0.00000000000E+00 0.  1.
          3    1    3    3  501    0 -0.94666010750E+02  0.13827233386E+03 -0.57887942900E+03  0.60264606962E+03  0.00000000000E+00 0.  1.
         21    1    1    2  502  501  0.24423748651E+02 -0.27820762091E+01 -0.12115904209E+02  0.27405375039E+02  0.00000000000E+00 0.  1.
<mgrwt>
<rscale>  1 0.30000000E+03</rscale>
<asrwt>0</asrwt>
<pdfrwt beam="1">  1        1 0.12537708E+00 0.30000000E+03</pdfrwt>
<pdfrwt beam="2">0</pdfrwt>
<totfact> 0.24256987E+01</totfact>
</mgrwt>
</event>
<event>
 6    1  0.1904828E-004  0.3000000E+03  0.7818608E-02  0.1093470E+00
          1   -1    0    0  502    0  0.00000000000E+00  0.00000000000E+00  0.32128359013E+02  0.32128359013E+02  0.00000000000E+00 0.  1.
         13   -1    0    0    0    0 -0.00000000000E+00 -0.00000000000E+00 -0.10000000000E+04  0.10000000000E+04  0.00000000000E+00 0.  1.
    9000005    2    1    2  501    0 -0.59872198020E+01 -0.10069521331E+02 -0.95892640482E+03  0.10173886402E+04  0.33970951307E+03 0.  0.
         13    1    3    3    0    0 -0.80858706988E+02  0.71052540694E+02 -0.86730814345E+02  0.13823468520E+03  0.00000000000E+00 0.  1.
          1    1    3    3  501    0  0.74871487186E+02 -0.81122062025E+02 -0.87219559047E+03  0.87915395499E+03  0.00000000000E+00 0.  1.
         21    1    1    2  502  501  0.59872198020E+01  0.10069521331E+02 -0.89452361694E+01  0.14739718821E+02  0.00000000000E+00 0. -1.
<mgrwt>
<rscale>  1 0.30000000E+03</rscale>
<asrwt>0</asrwt>
<pdfrwt beam="1">  1        1 0.11683064E+00 0.30000000E+03</pdfrwt>
<pdfrwt beam="2">0</pdfrwt>
<totfact> 0.27099354E+01</totfact>
</mgrwt>
</event>
<event>
 6    1  0.1904828E-004  0.3000000E+03  0.7818608E-02  0.1093470E+00
          1   -1    0    0  502    0  0.00000000000E+00  0.00000000000E+00  0.30978180908E+02  0.30978180908E+02  0.00000000000E+00 0.  1.
         13   -1    0    0    0    0 -0.00000000000E+00 -0.00000000000E+00 -0.10000000000E+04  0.10000000000E+04  0.00000000000E+00 0.  1.
    9000005    2    1    2  501    0  0.20716322990E+02  0.54469947872E+01 -0.93487546203E+03  0.99066925521E+03  0.32706972945E+03 0.  0.
         13    1    3    3    0    0  0.68184171469E+02 -0.14628659743E+03 -0.36622132529E+03  0.40020858177E+03  0.00000000000E+00 0.  1.
          1    1    3    3  501    0 -0.47467848478E+02  0.15173359221E+03 -0.56865413674E+03  0.59046067344E+03  0.00000000000E+00 0.  1.
         21    1    1    2  502  501 -0.20716322990E+02 -0.54469947872E+01 -0.34146357063E+02  0.40308925700E+02  0.00000000000E+00 0.  1.
<mgrwt>
<rscale>  1 0.30000000E+03</rscale>
<asrwt>0</asrwt>
<pdfrwt beam="1">  1        1 0.11264817E+00 0.30000000E+03</pdfrwt>
<pdfrwt beam="2">0</pdfrwt>
<totfact> 0.28657051E+01</totfact>
</mgrwt>
</event>
<event>
 6    1  0.1904828E-004  0.3000000E+03  0.7818608E-02  0.1093470E+00
          1   -1    0    0  502    0  0.00000000000E+00  0.00000000000E+00  0.45393480157E+02  0.45393480157E+02  0.00000000000E+00 0.  1.
         13   -1    0    0    0    0 -0.00000000000E+00 -0.00000000000E+00 -0.10000000000E+04  0.10000000000E+04  0.00000000000E+00 0.  1.
    9000005    2    1    2  501    0  0.16632964092E+02  0.20460514414E+02 -0.94394698436E+03  0.10169520695E+04  0.37743915297E+03 0.  0.
         13    1    3    3    0    0  0.16567853027E+03 -0.91411284212E+02 -0.53700366107E+03  0.56936660446E+03  0.00000000000E+00 0.  1.
          1    1    3    3  501    0 -0.14904556618E+03  0.11187179863E+03 -0.40694332330E+03  0.44758546502E+03  0.00000000000E+00 0.  1.
         21    1    1    2  502  501 -0.16632964092E+02 -0.20460514414E+02 -0.10659535481E+02  0.28441410676E+02  0.00000000000E+00 0.  1.
<mgrwt>
<rscale>  1 0.30000000E+03</rscale>
<asrwt>0</asrwt>
<pdfrwt beam="1">  1        1 0.16506755E+00 0.30000000E+03</pdfrwt>
<pdfrwt beam="2">0</pdfrwt>
<totfact> 0.15105735E+01</totfact>
</mgrwt>
</event>
<event>
 6    1  0.1904828E-004  0.3000000E+03  0.7818608E-02  0.1093470E+00
          1   -1    0    0  502    0  0.00000000000E+00  0.00000000000E+00  0.29279111412E+02  0.29279111412E+02  0.00000000000E+00 0.  1.
         13   -1    0    0    0    0 -0.00000000000E+00 -0.00000000000E+00 -0.10000000000E+04  0.10000000000E+04  0.00000000000E+00 0.  1.
    9000005    2    1    2  501    0  0.16465151566E+00  0.91476048207E+01 -0.95831906778E+03  0.10138677214E+04  0.33086041612E+03 0.  0.
         13    1    3    3    0    0  0.61942441025E+01  0.16925898001E+03 -0.44595846567E+03  0.47703870291E+03  0.00000000000E+00 0.  1.
          3    1    3    3  501    0 -0.60295925869E+01 -0.16011137518E+03 -0.51236060211E+03  0.53682901845E+03  0.00000000000E+00 0.  1.
         21    1    1    2  502  501 -0.16465151566E+00 -0.91476048207E+01 -0.12401820804E+02  0.15411390052E+02  0.00000000000E+00 0.  1.
<mgrwt>
<rscale>  1 0.30000000E+03</rscale>
<asrwt>0</asrwt>
<pdfrwt beam="1">  1        1 0.10646972E+00 0.30000000E+03</pdfrwt>
<pdfrwt beam="2">0</pdfrwt>
<totfact> 0.31200351E+01</totfact>
</mgrwt>
</event>
<event>
 6    1  0.1904828E-004  0.3000000E+03  0.7818608E-02  0.1093470E+00
          1   -1    0    0  502    0  0.00000000000E+00  0.00000000000E+00  0.21295421047E+02  0.21295421047E+02  0.00000000000E+00 0.  1.
         13   -1    0    0    0    0 -0.00000000000E+00 -0.00000000000E+00 -0.10000000000E+04  0.10000000000E+04  0.00000000000E+00 0.  1.
    9000005    2    1    2  501    0  0.13274011840E+02 -0.19821717334E+01 -0.96562480994E+03  0.10025548567E+04  0.26926722545E+03 0.  0.
         13    1    3    3    0    0 -0.46354314673E+02 -0.12436915643E+03 -0.51369387800E+03  0.53056367182E+03  0.00000000000E+00 0.  1.
          1    1    3    3  501    0  0.59628326513E+02  0.12238698470E+03 -0.45193093194E+03  0.47199118487E+03  0.00000000000E+00 0.  1.
         21    1    1    2  502  501 -0.13274011840E+02  0.19821717334E+01 -0.13079769013E+02  0.18740564360E+02  0.00000000000E+00 0.  1.
<mgrwt>
<rscale>  1 0.30000000E+03</rscale>
<asrwt>0</asrwt>
<pdfrwt beam="1">  1        1 0.77438058E-01 0.30000000E+03</pdfrwt>
<pdfrwt beam="2">0</pdfrwt>
<totfact> 0.49121541E+01</totfact>
</mgrwt>
</event>
<event>
 6    1  0.1904828E-004  0.3000000E+03  0.7818608E-02  0.1093470E+00
          1   -1    0    0  502    0  0.00000000000E+00  0.00000000000E+00  0.24603244556E+02  0.24603244556E+02  0.00000000000E+00 0.  1.
         13   -1    0    0    0    0 -0.00000000000E+00 -0.00000000000E+00 -0.10000000000E+04  0.10000000000E+04  0.00000000000E+00 0.  1.
    9000005    2    1    2  501    0  0.24171042430E+02  0.10984352023E+02 -0.89324631726E+03  0.93826906954E+03  0.28592825723E+03 0.  0.
         13    1    3    3    0    0  0.17602710597E+02  0.17335463108E+02 -0.91465688956E+03  0.91499049138E+03  0.00000000000E+00 0.  1.
          1    1    3    3  501    0  0.65683318332E+01 -0.63511110849E+01  0.21410572298E+02  0.23278578161E+02  0.00000000000E+00 0.  1.
         21    1    1    2  502  501 -0.24171042430E+02 -0.10984352023E+02 -0.82150438185E+02  0.86334175015E+02  0.00000000000E+00 0. -1.
<mgrwt>
<rscale>  1 0.30000000E+03</rscale>
<asrwt>0</asrwt>
<pdfrwt beam="1">  1        1 0.89466533E-01 0.30000000E+03</pdfrwt>
<pdfrwt beam="2">0</pdfrwt>
<totfact> 0.40168733E+01</totfact>
</mgrwt>
</event>
<event>
 6    1  0.1904828E-004  0.3000000E+03  0.7818608E-02  0.1093470E+00
          1   -1    0    0  502    0  0.00000000000E+00  0.00000000000E+00  0.19945878288E+02  0.19945878288E+02  0.00000000000E+00 0.  1.
         13   -1    0    0    0    0 -0.00000000000E+00 -0.00000000000E+00 -0.10000000000E+04  0.10000000000E+04  0.00000000000E+00 0.  1.
    9000005    2    1    2  501    0  0.10330547232E+02 -0.35840197322E+01 -0.96219503966E+03  0.99900519503E+03  0.26846325624E+03 0.  0.
         13    1    3    3    0    0 -0.43799551755E+02 -0.12657208778E+03 -0.45387950268E+03  0.47322879994E+03  0.00000000000E+00 0.  1.
          3    1    3    3  501    0  0.54130098987E+02  0.12298806805E+03 -0.50831553698E+03  0.52577639509E+03  0.00000000000E+00 0.  1.
         21    1    1    2  502  501 -0.10330547232E+02  0.35840197322E+01 -0.17859082052E+02  0.20940683258E+02  0.00000000000E+00 0. -1.
<mgrwt>
<rscale>  1 0.30000000E+03</rscale>
<asrwt>0</asrwt>
<pdfrwt beam="1">  1        1 0.72530619E-01 0.30000000E+03</pdfrwt>
<pdfrwt beam="2">0</pdfrwt>
<totfact> 0.53726162E+01</totfact>
</mgrwt>
</event>
<event>
 6    1  0.1904828E-004  0.3000000E+03  0.7818608E-02  0.1093470E+00
          1   -1    0    0  502    0  0.00000000000E+00  0.00000000000E+00  0.29916189431E+02  0.29916189431E+02  0.00000000000E+00 0.  1.
         13   -1    0    0    0    0 -0.00000000000E+00 -0.00000000000E+00 -0.10000000000E+04  0.10000000000E+04  0.00000000000E+00 0.  1.
    9000005    2    1    2  501    0  0.11031114737E+02 -0.93372104856E+01 -0.93997491856E+03  0.99651836959E+03  0.33058606205E+03 0.  0.
         13    1    3    3    0    0  0.86458891942E+02  0.12048659212E+03 -0.68283043176E+03  0.69874856523E+03  0.00000000000E+00 0.  1.
          1    1    3    3  501    0 -0.75427777205E+02 -0.12982380260E+03 -0.25714448681E+03  0.29776980436E+03  0.00000000000E+00 0.  1.
         21    1    1    2  502  501 -0.11031114737E+02  0.93372104856E+01 -0.30108892006E+02  0.33397819836E+02  0.00000000000E+00 0.  1.
<mgrwt>
<rscale>  1 0.30000000E+03</rscale>
<asrwt>0</asrwt>
<pdfrwt beam="1">  1        1 0.10878637E+00 0.30000000E+03</pdfrwt>
<pdfrwt beam="2">0</pdfrwt>
<totfact> 0.30210410E+01</totfact>
</mgrwt>
</event>
<event>
 6    1  0.1904828E-004  0.3000000E+03  0.7818608E-02  0.1093470E+00
          1   -1    0    0  502    0  0.00000000000E+00  0.00000000000E+00  0.38979535763E+02  0.38979535763E+02  0.00000000000E+00 0.  1.
         13   -1    0    0    0    0 -0.00000000000E+00 -0.00000000000E+00 -0.10000000000E+04  0.10000000000E+04  0.00000000000E+00 0.  1.
    9000005    2    1    2  501    0  0.10203784006E+02  0.46951162860E+00 -0.97159465480E+03  0.10242774558E+04  0.32410460591E+03 0.  0.
         13    1    3    3    0    0 -0.48684538479E+02 -0.14285066427E+01 -0.96358669365E+03  0.96481684329E+03  0.00000000000E+00 0.  1.
          3    1    3    3  501    0  0.58888322486E+02  0.18980182713E+01 -0.80079611547E+01  0.59460612513E+02  0.00000000000E+00 0.  1.
         21    1    1    2  502  501 -0.10203784006E+02 -0.46951162860E+00  0.10574190563E+02  0.14702079964E+02  0.00000000000E+00 0.  1.
<mgrwt>
<rscale>  1 0.30000000E+03</rscale>
<asrwt>0</asrwt>
<pdfrwt beam="1">  1        1 0.14174407E+00 0.30000000E+03</pdfrwt>
<pdfrwt beam="2">0</pdfrwt>
<totfact> 0.19811831E+01</totfact>
</mgrwt>
</event>
<event>
 6    1  0.1904828E-004  0.3000000E+03  0.7818608E-02  0.1093470E+00
          1   -1    0    0  502    0  0.00000000000E+00  0.00000000000E+00  0.44482730028E+02  0.44482730028E+02  0.00000000000E+00 0.  1.
         13   -1    0    0    0    0 -0.00000000000E+00 -0.00000000000E+00 -0.10000000000E+04  0.10000000000E+04  0.00000000000E+00 0.  1.
    9000005    2    1    2  501    0 -0.43836889584E+01  0.15425789032E+02 -0.96809994397E+03  0.10240990262E+04  0.33362275443E+03 0.  0.
         13    1    3    3    0    0  0.93647094747E+02  0.40484397027E+01 -0.61422581600E+02  0.11206650592E+03  0.00000000000E+00 0.  1.
          1    1    3    3  501    0 -0.98030783706E+02  0.11377349329E+02 -0.90667736237E+03  0.91203252029E+03  0.00000000000E+00 0.  1.
         21    1    1    2  502  501  0.43836889584E+01 -0.15425789032E+02  0.12582674003E+02  0.20383703815E+02  0.00000000000E+00 0.  1.
<mgrwt>
<rscale>  1 0.30000000E+03</rscale>
<asrwt>0</asrwt>
<pdfrwt beam="1">  1        1 0.16175572E+00 0.30000000E+03</pdfrwt>
<pdfrwt beam="2">0</pdfrwt>
<totfact> 0.15685369E+01</totfact>
</mgrwt>
</event>
<event>
 6    1  0.1904828E-004  0.3000000E+03  0.7818608E-02  0.1093470E+00
          1   -1    0    0  502    0  0.00000000000E+00  0.00000000000E+00  0.37041969612E+02  0.37041969612E+02  0.00000000000E+00 0.  1.
         13   -1    0    0    0    0 -0.00000000000E+00 -0.00000000000E+00 -0.10000000000E+04  0.10000000000E+04  0.00000000000E+00 0.  1.
    9000005    2    1    2  501    0 -0.66388450549E+01 -0.23918346620E+02 -0.95905990032E+03  0.10119151515E+04  0.32180773754E+03 0.  0.
         13    1    3    3    0    0  0.14220829591E+03 -0.24455274231E+02 -0.26168018451E+03  0.29882733949E+03  0.00000000000E+00 0.  1.
          1    1    3    3  501    0 -0.14884714096E+03  0.53692761143E+00 -0.69737971581E+03  0.71308781204E+03  0.00000000000E+00 0.  1.
         21    1    1    2  502  501  0.66388450549E+01  0.23918346620E+02 -0.38981300714E+01  0.25126818078E+02  0.00000000000E+00 0. -1.
<mgrwt>
<rscale>  1 0.30000000E+03</rscale>
<asrwt>0</asrwt>
<pdfrwt beam="1">  1        1 0.13469836E+00 0.30000000E+03</pdfrwt>
<pdfrwt beam="2">0</pdfrwt>
<totfact> 0.21582446E+01</totfact>
</mgrwt>
</event>
<event>
 6    1  0.1904828E-004  0.3000000E+03  0.7818608E-02  0.1093470E+00
          1   -1    0    0  502    0  0.00000000000E+00  0.00000000000E+00  0.28290008118E+02  0.28290008118E+02  0.00000000000E+00 0.  1.
         13   -1    0    0    0    0 -0.00000000000E+00 -0.00000000000E+00 -0.10000000000E+04  0.10000000000E+04  0.00000000000E+00 0.  1.
    9000005    2    1    2  501    0  0.19500877244E+01  0.21513318322E+02 -0.95237369500E+03  0.99929831820E+03  0.30185236146E+03 0.  0.
         13    1    3    3    0    0 -0.38823114795E+02 -0.11837190100E+03 -0.22229570795E+03  0.25482253229E+03  0.00000000000E+00 0.  1.
          3    1    3    3  501    0  0.40773202520E+02  0.13988521932E+03 -0.73007798705E+03  0.74447578591E+03  0.00000000000E+00 0.  1.
         21    1    1    2  502  501 -0.19500877244E+01 -0.21513318322E+02 -0.19336296882E+02  0.28991689921E+02  0.00000000000E+00 0. -1.
<mgrwt>
<rscale>  1 0.30000000E+03</rscale>
<asrwt>0</asrwt>
<pdfrwt beam="1">  1        1 0.10287297E+00 0.30000000E+03</pdfrwt>
<pdfrwt beam="2">0</pdfrwt>
<totfact> 0.32832389E+01</totfact>
</mgrwt>
</event>
<event>
 6    1  0.1904828E-004  0.3000000E+03  0.7818608E-02  0.1093470E+00
          1   -1    0    0  502    0  0.00000000000E+00  0.00000000000E+00  0.47631945774E+02  0.47631945774E+02  0.00000000000E+00 0.  1.
         13   -1    0    0    0    0 -0.00000000000E+00 -0.00000000000E+00 -0.10000000000E+04  0.10000000000E+04  0.00000000000E+00 0.  1.
    9000005    2    1    2  501    0 -0.44133267290E+02 -0.30380613374E+01 -0.95512148930E+03  0.10033086279E+04  0.30399698766E+03 0.  0.
         13    1    3    3    0    0 -0.16900371922E+00  0.42065462317E+02 -0.93675614184E+03  0.93770016581E+03  0.00000000000E+00 0.  1.
          1    1    3    3  501    0 -0.43964263571E+02 -0.45103523654E+02 -0.18365347456E+02  0.65608462141E+02  0.00000000000E+00 0.  1.
         21    1    1    2  502  501  0.44133267290E+02  0.30380613374E+01  0.27534350692E+01  0.44323317825E+02  0.00000000000E+00 0.  1.
<mgrwt>
<rscale>  1 0.30000000E+03</rscale>
<asrwt>0</asrwt>
<pdfrwt beam="1">  1        1 0.17320744E+00 0.30000000E+03</pdfrwt>
<pdfrwt beam="2">0</pdfrwt>
<totfact> 0.13781756E+01</totfact>
</mgrwt>
</event>
<event>
 6    1  0.1904828E-004  0.3000000E+03  0.7818608E-02  0.1093470E+00
          1   -1    0    0  502    0  0.00000000000E+00  0.00000000000E+00  0.41400159352E+02  0.41400159352E+02  0.00000000000E+00 0.  1.
         13   -1    0    0    0    0 -0.00000000000E+00 -0.00000000000E+00 -0.10000000000E+04  0.10000000000E+04  0.00000000000E+00 0.  1.
    9000005    2    1    2  501    0 -0.97283707726E+01  0.38720945105E+02 -0.94254298079E+03  0.99836789778E+03  0.32673725819E+03 0.  0.
         13    1    3    3    0    0 -0.11411185676E+03  0.11437733440E+03 -0.74615341467E+03  0.76344522312E+03  0.00000000000E+00 0.  1.
          1    1    3    3  501    0  0.10438348599E+03 -0.75656389292E+02 -0.19638956612E+03  0.23492267466E+03  0.00000000000E+00 0.  1.
         21    1    1    2  502  501  0.97283707726E+01 -0.38720945105E+02 -0.16056859856E+02  0.43032261574E+02  0.00000000000E+00 0.  1.
<mgrwt>
<rscale>  1 0.30000000E+03</rscale>
<asrwt>0</asrwt>
<pdfrwt beam="1">  1        1 0.15054635E+00 0.30000000E+03</pdfrwt>
<pdfrwt beam="2">0</pdfrwt>
<totfact> 0.17850489E+01</totfact>
</mgrwt>
</event>
<event>
 6    1  0.1904828E-004  0.3000000E+03  0.7818608E-02  0.1093470E+00
          1   -1    0    0  502    0  0.00000000000E+00  0.00000000000E+00  0.31597623224E+02  0.31597623224E+02  0.00000000000E+00 0.  1.
         13   -1    0    0    0    0 -0.00000000000E+00 -0.00000000000E+00 -0.10000000000E+04  0.10000000000E+04  0.00000000000E+00 0.  1.
    9000005    2    1    2  501    0  0.84890553780E+01  0.28964062806E+02 -0.94240230947E+03  0.99176064925E+03  0.30749974230E+03 0.  0.
         13    1    3    3    0    0  0.14003573457E+03  0.69169598490E+02 -0.34469835627E+03  0.37843281719E+03  0.00000000000E+00 0.  1.
          1    1    3    3  501    0 -0.13154667919E+03 -0.40205535685E+02 -0.59770395320E+03  0.61332783206E+03  0.00000000000E+00 0.  1.
         21    1    1    2  502  501 -0.84890553780E+01 -0.28964062806E+02 -0.26000067305E+02  0.39836973972E+02  0.00000000000E+00 0.  1.
<mgrwt>
<rscale>  1 0.30000000E+03</rscale>
<asrwt>0</asrwt>
<pdfrwt beam="1">  1        1 0.11490069E+00 0.30000000E+03</pdfrwt>
<pdfrwt beam="2">0</pdfrwt>
<totfact> 0.27802953E+01</totfact>
</mgrwt>
</event>
<event>
 6    1  0.1904828E-004  0.3000000E+03  0.7818608E-02  0.1093470E+00
          1   -1    0    0  502    0  0.00000000000E+00  0.00000000000E+00  0.31023942238E+02  0.31023942238E+02  0.00000000000E+00 0.  1.
         13   -1    0    0    0    0 -0.00000000000E+00 -0.00000000000E+00 -0.10000000000E+04  0.10000000000E+04  0.00000000000E+00 0.  1.
    9000005    2    1    2  501    0  0.12773953999E+02 -0.22358852506E+02 -0.92531065900E+03  0.98033114950E+03  0.32277895663E+03 0.  0.
         13    1    3    3    0    0  0.13972780290E+03 -0.92369802389E+02 -0.36551026857E+03  0.40206193022E+03  0.00000000000E+00 0.  1.
          1    1    3    3  501    0 -0.12695384890E+03  0.70010949883E+02 -0.55980039042E+03  0.57826921929E+03  0.00000000000E+00 0.  1.
         21    1    1    2  502  501 -0.12773953999E+02  0.22358852506E+02 -0.43665398765E+02  0.50692792737E+02  0.00000000000E+00 0.  1.
<mgrwt>
<rscale>  1 0.30000000E+03</rscale>
<asrwt>0</asrwt>
<pdfrwt beam="1">  1        1 0.11281457E+00 0.30000000E+03</pdfrwt>
<pdfrwt beam="2">0</pdfrwt>
<totfact> 0.28592687E+01</totfact>
</mgrwt>
</event>
<event>
 6    1  0.1904828E-004  0.3000000E+03  0.7818608E-02  0.1093470E+00
          1   -1    0    0  502    0  0.00000000000E+00  0.00000000000E+00  0.35080336008E+02  0.35080336008E+02  0.00000000000E+00 0.  1.
         13   -1    0    0    0    0 -0.00000000000E+00 -0.00000000000E+00 -0.10000000000E+04  0.10000000000E+04  0.00000000000E+00 0.  1.
    9000005    2    1    2  501    0  0.31333062520E+02 -0.13208270414E+02 -0.93159655971E+03  0.98747100401E+03  0.32568483920E+03 0.  0.
         13    1    3    3    0    0 -0.20308802811E+02 -0.16485477792E+03 -0.51560179295E+03  0.54169618253E+03  0.00000000000E+00 0.  1.
          3    1    3    3  501    0  0.51641865331E+02  0.15164650751E+03 -0.41599476676E+03  0.44577482148E+03  0.00000000000E+00 0.  1.
         21    1    1    2  502  501 -0.31333062520E+02  0.13208270414E+02 -0.33323104278E+02  0.47609331994E+02  0.00000000000E+00 0.  1.
<mgrwt>
<rscale>  1 0.30000000E+03</rscale>
<asrwt>0</asrwt>
<pdfrwt beam="1">  1        1 0.12756513E+00 0.30000000E+03</pdfrwt>
<pdfrwt beam="2">0</pdfrwt>
<totfact> 0.23592249E+01</totfact>
</mgrwt>
</event>
<event>
 6    1  0.1904828E-004  0.3000000E+03  0.7818608E-02  0.1093470E+00
          1   -1    0    0  502    0  0.00000000000E+00  0.00000000000E+00  0.75147783242E+02  0.75147783242E+02  0.00000000000E+00 0.  1.
         13   -1    0    0    0    0 -0.00000000000E+00 -0.00000000000E+00 -0.10000000000E+04  0.10000000000E+04  0.00000000000E+00 0.  1.
    9000005    2    1    2  501    0 -0.10413043101E+02 -0.78166534845E+01 -0.95946052266E+03  0.10381712180E+04  0.39631483931E+03 0.  0.
         13    1    3    3    0    0  0.40544065633E+02  0.33039216020E+02  0.20398162992E+02  0.56138187597E+02  0.00000000000E+00 0.  1.
          1    1    3    3  501    0 -0.50957108734E+02 -0.40855869504E+02 -0.97985868565E+03  0.98203303042E+03  0.00000000000E+00 0.  1.
         21    1    1    2  502  501  0.10413043101E+02  0.78166534845E+01  0.34608305899E+02  0.36976565220E+02  0.00000000000E+00 0.  1.
<mgrwt>
<rscale>  1 0.30000000E+03</rscale>
<asrwt>0</asrwt>
<pdfrwt beam="1">  1        1 0.27326524E+00 0.30000000E+03</pdfrwt>
<pdfrwt beam="2">0</pdfrwt>
<totfact> 0.46420286E+00</totfact>
</mgrwt>
</event>
<event>
 6    1  0.1904828E-004  0.3000000E+03  0.7818608E-02  0.1093470E+00
          1   -1    0    0  502    0  0.00000000000E+00  0.00000000000E+00  0.25334101757E+02  0.25334101757E+02  0.00000000000E+00 0.  1.
         13   -1    0    0    0    0 -0.00000000000E+00 -0.00000000000E+00 -0.10000000000E+04  0.10000000000E+04  0.00000000000E+00 0.  1.
    9000005    2    1    2  501    0 -0.19535718790E+01 -0.10664782956E+02 -0.95026744257E+03  0.99863506287E+03  0.30683256401E+03 0.  0.
         13    1    3    3    0    0  0.10348819596E+03  0.90061659369E+02 -0.26931167398E+03  0.30224110729E+03  0.00000000000E+00 0.  1.
          1    1    3    3  501    0 -0.10544176784E+03 -0.10072644232E+03 -0.68095576859E+03  0.69639395558E+03  0.00000000000E+00 0.  1.
         21    1    1    2  502  501  0.19535718790E+01  0.10664782956E+02 -0.24398455672E+02  0.26699038892E+02  0.00000000000E+00 0.  1.
<mgrwt>
<rscale>  1 0.30000000E+03</rscale>
<asrwt>0</asrwt>
<pdfrwt beam="1">  1        1 0.92124201E-01 0.30000000E+03</pdfrwt>
<pdfrwt beam="2">0</pdfrwt>
<totfact> 0.38531900E+01</totfact>
</mgrwt>
</event>
<event>
 6    1  0.1904828E-004  0.3000000E+03  0.7818608E-02  0.1093470E+00
          1   -1    0    0  502    0  0.00000000000E+00  0.00000000000E+00  0.30259852473E+02  0.30259852473E+02  0.00000000000E+00 0.  1.
         13   -1    0    0    0    0 -0.00000000000E+00 -0.00000000000E+00 -0.10000000000E+04  0.10000000000E+04  0.00000000000E+00 0.  1.
    9000005    2    1    2  501    0 -0.65478980882E+01 -0.93015351521E+01 -0.95897721188E+03  0.10145998937E+04  0.33112876322E+03 0.  0.
         13    1    3    3    0    0 -0.76439235022E+02 -0.61175002479E+02 -0.67580908084E+02  0.11896435061E+03  0.00000000000E+00 0.  1.
          1    1    3    3  501    0  0.69891336934E+02  0.51873467327E+02 -0.89139630380E+03  0.89563554307E+03  0.00000000000E+00 0.  1.
         21    1    1    2  502  501  0.65478980882E+01  0.93015351521E+01 -0.10762935648E+02  0.15659958791E+02  0.00000000000E+00 0.  1.
<mgrwt>
<rscale>  1 0.30000000E+03</rscale>
<asrwt>0</asrwt>
<pdfrwt beam="1">  1        1 0.11003606E+00 0.30000000E+03</pdfrwt>
<pdfrwt beam="2">0</pdfrwt>
<totfact> 0.29694944E+01</totfact>
</mgrwt>
</event>
<event>
 6    1  0.1904828E-004  0.3000000E+03  0.7818608E-02  0.1093470E+00
          1   -1    0    0  502    0  0.00000000000E+00  0.00000000000E+00  0.36445946773E+02  0.36445946773E+02  0.00000000000E+00 0.  1.
         13   -1    0    0    0    0 -0.00000000000E+00 -0.00000000000E+00 -0.10000000000E+04  0.10000000000E+04  0.00000000000E+00 0.  1.
    9000005    2    1    2  501    0  0.47319578527E+01 -0.30020349060E+02 -0.94725191951E+03  0.10019586687E+04  0.32513283755E+03 0.  0.
         13    1    3    3    0    0  0.50433967103E+02  0.34171118191E+02 -0.10403214934E+02  0.61801919365E+02  0.00000000000E+00 0.  1.
          3    1    3    3  501    0 -0.45702009251E+02 -0.64191467251E+02 -0.93684870458E+03  0.94015674937E+03  0.00000000000E+00 0.  1.
         21    1    1    2  502  501 -0.47319578527E+01  0.30020349060E+02 -0.16302133714E+02  0.34487278037E+02  0.00000000000E+00 0.  1.
<mgrwt>
<rscale>  1 0.30000000E+03</rscale>
<asrwt>0</asrwt>
<pdfrwt beam="1">  1        1 0.13253100E+00 0.30000000E+03</pdfrwt>
<pdfrwt beam="2">0</pdfrwt>
<totfact> 0.22168549E+01</totfact>
</mgrwt>
</event>
<event>
 6    1  0.1904828E-004  0.3000000E+03  0.7818608E-02  0.1093470E+00
          1   -1    0    0  502    0  0.00000000000E+00  0.00000000000E+00  0.40816926937E+02  0.40816926937E+02  0.00000000000E+00 0.  1.
         13   -1    0    0    0    0 -0.00000000000E+00 -0.00000000000E+00 -0.10000000000E+04  0.10000000000E+04  0.00000000000E+00 0.  1.
    9000005    2    1    2  501    0 -0.13587730046E+02 -0.20132958133E+02 -0.96071287190E+03  0.10164796573E+04  0.33116719188E+03 0.  0.
         13    1    3    3    0    0  0.33859570758E+02 -0.37714544201E+02  0.36266934369E+01  0.50813485233E+02  0.00000000000E+00 0.  1.
          1    1    3    3  501    0 -0.47447300804E+02  0.17581586068E+02 -0.96433956533E+03  0.96566617202E+03  0.00000000000E+00 0.  1.
         21    1    1    2  502  501  0.13587730046E+02  0.20132958133E+02  0.15297988348E+01  0.24337269680E+02  0.00000000000E+00 0. -1.
<mgrwt>
<rscale>  1 0.30000000E+03</rscale>
<asrwt>0</asrwt>
<pdfrwt beam="1">  1        1 0.14842550E+00 0.30000000E+03</pdfrwt>
<pdfrwt beam="2">0</pdfrwt>
<totfact> 0.18299955E+01</totfact>
</mgrwt>
</event>
<event>
 6    1  0.1904828E-004  0.3000000E+03  0.7818608E-02  0.1093470E+00
          1   -1    0    0  502    0  0.00000000000E+00  0.00000000000E+00  0.27906712680E+02  0.27906712680E+02  0.00000000000E+00 0.  1.
         13   -1    0    0    0    0 -0.00000000000E+00 -0.00000000000E+00 -0.10000000000E+04  0.10000000000E+04  0.00000000000E+00 0.  1.
    9000005    2    1    2  501    0 -0.98241856100E+01  0.37979294379E+01 -0.93706562468E+03  0.99132972482E+03  0.32331362400E+03 0.  0.
         13    1    3    3    0    0 -0.10897460466E+03  0.36417865028E+02 -0.84307783509E+03  0.85087129542E+03  0.00000000000E+00 0.  1.
          1    1    3    3  501    0  0.99150419053E+02 -0.32619935590E+02 -0.93987789587E+02  0.14045842939E+03  0.00000000000E+00 0.  1.
         21    1    1    2  502  501  0.98241856100E+01 -0.37979294379E+01 -0.35027662642E+02  0.36576987863E+02  0.00000000000E+00 0.  1.
<mgrwt>
<rscale>  1 0.30000000E+03</rscale>
<asrwt>0</asrwt>
<pdfrwt beam="1">  1        1 0.10147917E+00 0.30000000E+03</pdfrwt>
<pdfrwt beam="2">0</pdfrwt>
<totfact> 0.33498332E+01</totfact>
</mgrwt>
</event>
<event>
 6    1  0.1904828E-004  0.3000000E+03  0.7818608E-02  0.1093470E+00
          1   -1    0    0  502    0  0.00000000000E+00  0.00000000000E+00  0.44990339897E+02  0.44990339897E+02  0.00000000000E+00 0.  1.
         13   -1    0    0    0    0 -0.00000000000E+00 -0.00000000000E+00 -0.10000000000E+04  0.10000000000E+04  0.00000000000E+00 0.  1.
    9000005    2    1    2  501    0  0.57145286760E+01  0.11570935197E+02 -0.96967667828E+03  0.10254541222E+04  0.33334179754E+03 0.  0.
         13    1    3    3    0    0 -0.12757495102E+03  0.46909354668E+02 -0.77534376260E+03  0.78716821956E+03  0.00000000000E+00 0.  1.
          1    1    3    3  501    0  0.13328947969E+03 -0.35338419472E+02 -0.19433291568E+03  0.23828590265E+03  0.00000000000E+00 0.  1.
         21    1    1    2  502  501 -0.57145286760E+01 -0.11570935197E+02  0.14667018175E+02  0.19536217685E+02  0.00000000000E+00 0.  1.
<mgrwt>
<rscale>  1 0.30000000E+03</rscale>
<asrwt>0</asrwt>
<pdfrwt beam="1">  1        1 0.16360158E+00 0.30000000E+03</pdfrwt>
<pdfrwt beam="2">0</pdfrwt>
<totfact> 0.15359216E+01</totfact>
</mgrwt>
</event>
<event>
 6    1  0.1904828E-004  0.3000000E+03  0.7818608E-02  0.1093470E+00
          1   -1    0    0  502    0  0.00000000000E+00  0.00000000000E+00  0.29808294814E+02  0.29808294814E+02  0.00000000000E+00 0.  1.
         13   -1    0    0    0    0 -0.00000000000E+00 -0.00000000000E+00 -0.10000000000E+04  0.10000000000E+04  0.00000000000E+00 0.  1.
    9000005    2    1    2  501    0 -0.77149685922E+01 -0.32421619211E+02 -0.81684260988E+03  0.87287956206E+03  0.30590226938E+03 0.  0.
         13    1    3    3    0    0  0.65381657016E+02  0.83718681298E+02 -0.11029683999E+03  0.15313057038E+03  0.00000000000E+00 0.  1.
          3    1    3    3  501    0 -0.73096625608E+02 -0.11614030051E+03 -0.70654576990E+03  0.71974899169E+03  0.00000000000E+00 0.  1.
         21    1    1    2  502  501  0.77149685922E+01  0.32421619211E+02 -0.15334909530E+03  0.15692873275E+03  0.00000000000E+00 0. -1.
<mgrwt>
<rscale>  1 0.30000000E+03</rscale>
<asrwt>0</asrwt>
<pdfrwt beam="1">  1        1 0.10839403E+00 0.30000000E+03</pdfrwt>
<pdfrwt beam="2">0</pdfrwt>
<totfact> 0.30374873E+01</totfact>
</mgrwt>
</event>
<event>
 6    1  0.1904828E-004  0.3000000E+03  0.7818608E-02  0.1093470E+00
          1   -1    0    0  502    0  0.00000000000E+00  0.00000000000E+00  0.30952982915E+02  0.30952982915E+02  0.00000000000E+00 0.  1.
         13   -1    0    0    0    0 -0.00000000000E+00 -0.00000000000E+00 -0.10000000000E+04  0.10000000000E+04  0.00000000000E+00 0.  1.
    9000005    2    1    2  501    0 -0.11950922854E+02 -0.11872737934E+02 -0.95464445308E+03  0.10087894924E+04  0.32561698614E+03 0.  0.
         13    1    3    3    0    0 -0.16514874444E+02 -0.16576817774E+03 -0.58768289403E+03  0.61083796031E+03  0.00000000000E+00 0.  1.
          3    1    3    3  501    0  0.45639515900E+01  0.15389543980E+03 -0.36696155905E+03  0.39795153206E+03  0.00000000000E+00 0.  1.
         21    1    1    2  502  501  0.11950922854E+02  0.11872737934E+02 -0.14402564008E+02  0.22163490544E+02  0.00000000000E+00 0. -1.
<mgrwt>
<rscale>  1 0.30000000E+03</rscale>
<asrwt>0</asrwt>
<pdfrwt beam="1">  1        1 0.11255654E+00 0.30000000E+03</pdfrwt>
<pdfrwt beam="2">0</pdfrwt>
<totfact> 0.28692580E+01</totfact>
</mgrwt>
</event>
<event>
 6    1  0.1904828E-004  0.3000000E+03  0.7818608E-02  0.1093470E+00
          1   -1    0    0  502    0  0.00000000000E+00  0.00000000000E+00  0.46701893211E+02  0.46701893211E+02  0.00000000000E+00 0.  1.
         13   -1    0    0    0    0 -0.00000000000E+00 -0.00000000000E+00 -0.10000000000E+04  0.10000000000E+04  0.00000000000E+00 0.  1.
    9000005    2    1    2  501    0  0.68260804112E+02 -0.46109707737E+02 -0.87098797948E+03  0.93025190573E+03  0.31616910855E+03 0.  0.
         13    1    3    3    0    0 -0.86704780442E+02  0.64291595202E+02 -0.15143102817E+03  0.18596366434E+03  0.00000000000E+00 0.  1.
          1    1    3    3  501    0  0.15496558455E+03 -0.11040130294E+03 -0.71955695131E+03  0.74428824139E+03  0.00000000000E+00 0.  1.
         21    1    1    2  502  501 -0.68260804112E+02  0.46109707737E+02 -0.82310127311E+02  0.11644998748E+03  0.00000000000E+00 0.  1.
<mgrwt>
<rscale>  1 0.30000000E+03</rscale>
<asrwt>0</asrwt>
<pdfrwt beam="1">  1        1 0.16982542E+00 0.30000000E+03</pdfrwt>
<pdfrwt beam="2">0</pdfrwt>
<totfact> 0.14315293E+01</totfact>
</mgrwt>
</event>
<event>
 6    1  0.1904828E-004  0.3000000E+03  0.7818608E-02  0.1093470E+00
          1   -1    0    0  502    0  0.00000000000E+00  0.00000000000E+00  0.28792502520E+02  0.28792502520E+02  0.00000000000E+00 0.  1.
         13   -1    0    0    0    0 -0.00000000000E+00 -0.00000000000E+00 -0.10000000000E+04  0.10000000000E+04  0.00000000000E+00 0.  1.
    9000005    2    1    2  501    0 -0.14531484979E+02  0.23404710151E+01 -0.93446445206E+03  0.98921102646E+03  0.32418821824E+03 0.  0.
         13    1    3    3    0    0  0.70886731232E+02 -0.79145357155E+02 -0.98277857294E+02  0.14473235111E+03  0.00000000000E+00 0.  1.
          3    1    3    3  501    0 -0.85418216211E+02  0.81485828170E+02 -0.83618659477E+03  0.84447867535E+03  0.00000000000E+00 0.  1.
         21    1    1    2  502  501  0.14531484979E+02 -0.23404710151E+01 -0.36743045419E+02  0.39581476058E+02  0.00000000000E+00 0. -1.
<mgrwt>
<rscale>  1 0.30000000E+03</rscale>
<asrwt>0</asrwt>
<pdfrwt beam="1">  1        1 0.10470023E+00 0.30000000E+03</pdfrwt>
<pdfrwt beam="2">0</pdfrwt>
<totfact> 0.31988205E+01</totfact>
</mgrwt>
</event>
<event>
 6    1  0.1904828E-004  0.3000000E+03  0.7818608E-02  0.1093470E+00
          1   -1    0    0  502    0  0.00000000000E+00  0.00000000000E+00  0.47315582421E+02  0.47315582421E+02  0.00000000000E+00 0.  1.
         13   -1    0    0    0    0 -0.00000000000E+00 -0.00000000000E+00 -0.10000000000E+04  0.10000000000E+04  0.00000000000E+00 0.  1.
    9000005    2    1    2  501    0  0.17043079351E+02 -0.23351658588E+01 -0.96930701808E+03  0.10233942447E+04  0.32784716736E+03 0.  0.
         13    1    3    3    0    0 -0.10367452155E+03 -0.12016612477E+03 -0.50776515507E+03  0.53199037272E+03  0.00000000000E+00 0.  1.
          1    1    3    3  501    0  0.12071760090E+03  0.11783095891E+03 -0.46154186300E+03  0.49140387193E+03  0.00000000000E+00 0.  1.
         21    1    1    2  502  501 -0.17043079351E+02  0.23351658588E+01  0.16622600496E+02  0.23921337768E+02  0.00000000000E+00 0.  1.
<mgrwt>
<rscale>  1 0.30000000E+03</rscale>
<asrwt>0</asrwt>
<pdfrwt beam="1">  1        1 0.17205703E+00 0.30000000E+03</pdfrwt>
<pdfrwt beam="2">0</pdfrwt>
<totfact> 0.13960708E+01</totfact>
</mgrwt>
</event>
<event>
 6    1  0.1904828E-004  0.3000000E+03  0.7818608E-02  0.1093470E+00
          1   -1    0    0  502    0  0.00000000000E+00  0.00000000000E+00  0.42085800024E+02  0.42085800024E+02  0.00000000000E+00 0.  1.
         13   -1    0    0    0    0 -0.00000000000E+00 -0.00000000000E+00 -0.10000000000E+04  0.10000000000E+04  0.00000000000E+00 0.  1.
    9000005    2    1    2  501    0 -0.38194545146E+02  0.45491551329E+02 -0.86810458268E+03  0.93441002801E+03  0.34057044711E+03 0.  0.
         13    1    3    3    0    0  0.86350821999E+02  0.12407417428E+03 -0.67411350635E+03  0.69085445981E+03  0.00000000000E+00 0.  1.
          1    1    3    3  501    0 -0.12454536714E+03 -0.78582622950E+02 -0.19399107633E+03  0.24355556820E+03  0.00000000000E+00 0.  1.
         21    1    1    2  502  501  0.38194545146E+02 -0.45491551329E+02 -0.89809617294E+02  0.10767577202E+03  0.00000000000E+00 0. -1.
<mgrwt>
<rscale>  1 0.30000000E+03</rscale>
<asrwt>0</asrwt>
<pdfrwt beam="1">  1        1 0.15303960E+00 0.30000000E+03</pdfrwt>
<pdfrwt beam="2">0</pdfrwt>
<totfact> 0.17339368E+01</totfact>
</mgrwt>
</event>
<event>
 6    1  0.1904828E-004  0.3000000E+03  0.7818608E-02  0.1093470E+00
          1   -1    0    0  502    0  0.00000000000E+00  0.00000000000E+00  0.51937856420E+02  0.51937856420E+02  0.00000000000E+00 0.  1.
         13   -1    0    0    0    0 -0.00000000000E+00 -0.00000000000E+00 -0.10000000000E+04  0.10000000000E+04  0.00000000000E+00 0.  1.
    9000005    2    1    2  501    0 -0.62073233436E+02  0.94566164266E+02 -0.69589766457E+03  0.77556352656E+03  0.32315534722E+03 0.  0.
         13    1    3    3    0    0 -0.57626382325E+02  0.57976419230E+02 -0.31172919068E+01  0.81803316775E+02  0.00000000000E+00 0.  1.
          1    1    3    3  501    0 -0.44468511109E+01  0.36589745036E+02 -0.69278037267E+03  0.69376020978E+03  0.00000000000E+00 0.  1.
         21    1    1    2  502  501  0.62073233436E+02 -0.94566164266E+02 -0.25216447901E+03  0.27637432986E+03  0.00000000000E+00 0. -1.
<mgrwt>
<rscale>  1 0.30000000E+03</rscale>
<asrwt>0</asrwt>
<pdfrwt beam="1">  1        1 0.18886533E+00 0.30000000E+03</pdfrwt>
<pdfrwt beam="2">0</pdfrwt>
<totfact> 0.11578314E+01</totfact>
</mgrwt>
</event>
<event>
 6    1  0.1904828E-004  0.3000000E+03  0.7818608E-02  0.1093470E+00
          1   -1    0    0  502    0  0.00000000000E+00  0.00000000000E+00  0.36647569619E+02  0.36647569619E+02  0.00000000000E+00 0.  1.
         13   -1    0    0    0    0 -0.00000000000E+00 -0.00000000000E+00 -0.10000000000E+04  0.10000000000E+04  0.00000000000E+00 0.  1.
    9000005    2    1    2  501    0 -0.39682941731E+02  0.10820615588E+02 -0.94182062003E+03  0.99022084840E+03  0.30301720530E+03 0.  0.
         13    1    3    3    0    0 -0.20323694463E+02  0.15423312047E+03 -0.39376245386E+03  0.42337900051E+03  0.00000000000E+00 0.  1.
          1    1    3    3  501    0 -0.19359247267E+02 -0.14341250488E+03 -0.54805816617E+03  0.56684184788E+03  0.00000000000E+00 0.  1.
         21    1    1    2  502  501  0.39682941731E+02 -0.10820615588E+02 -0.21531810355E+02  0.46426721220E+02  0.00000000000E+00 0.  1.
<mgrwt>
<rscale>  1 0.30000000E+03</rscale>
<asrwt>0</asrwt>
<pdfrwt beam="1">  1        1 0.13326417E+00 0.30000000E+03</pdfrwt>
<pdfrwt beam="2">0</pdfrwt>
<totfact> 0.21967952E+01</totfact>
</mgrwt>
</event>
<event>
 6    1  0.1904828E-004  0.3000000E+03  0.7818608E-02  0.1093470E+00
          1   -1    0    0  502    0  0.00000000000E+00  0.00000000000E+00  0.30770179014E+02  0.30770179014E+02  0.00000000000E+00 0.  1.
         13   -1    0    0    0    0 -0.00000000000E+00 -0.00000000000E+00 -0.10000000000E+04  0.10000000000E+04  0.00000000000E+00 0.  1.
    9000005    2    1    2  501    0 -0.30101131889E+02  0.73512962082E+01 -0.91568151333E+03  0.96890305568E+03  0.31518308609E+03 0.  0.
         13    1    3    3    0    0  0.16141568713E+01 -0.47306510324E+02 -0.90326195916E+03  0.90450134233E+03  0.00000000000E+00 0.  1.
          3    1    3    3  501    0 -0.31715288760E+02  0.54657806532E+02 -0.12419554171E+02  0.64401713345E+02  0.00000000000E+00 0.  1.
         21    1    1    2  502  501  0.30101131889E+02 -0.73512962082E+01 -0.53548307659E+02  0.61867123338E+02  0.00000000000E+00 0.  1.
<mgrwt>
<rscale>  1 0.30000000E+03</rscale>
<asrwt>0</asrwt>
<pdfrwt beam="1">  1        1 0.11189180E+00 0.30000000E+03</pdfrwt>
<pdfrwt beam="2">0</pdfrwt>
<totfact> 0.28952237E+01</totfact>
</mgrwt>
</event>
<event>
 6    1  0.1904828E-004  0.3000000E+03  0.7818608E-02  0.1093470E+00
          1   -1    0    0  502    0  0.00000000000E+00  0.00000000000E+00  0.32391070531E+02  0.32391070531E+02  0.00000000000E+00 0.  1.
         13   -1    0    0    0    0 -0.00000000000E+00 -0.00000000000E+00 -0.10000000000E+04  0.10000000000E+04  0.00000000000E+00 0.  1.
    9000005    2    1    2  501    0  0.59517011810E+01  0.21192402985E+02 -0.95360958608E+03  0.10063042481E+04  0.32061262656E+03 0.  0.
         13    1    3    3    0    0 -0.56332271945E+02 -0.56933458811E+02 -0.87635198128E+03  0.88000428334E+03  0.00000000000E+00 0.  1.
          3    1    3    3  501    0  0.62283973126E+02  0.78125861797E+02 -0.77257604797E+02  0.12629996472E+03  0.00000000000E+00 0.  1.
         21    1    1    2  502  501 -0.59517011810E+01 -0.21192402985E+02 -0.13999343389E+02  0.26086822470E+02  0.00000000000E+00 0.  1.
<mgrwt>
<rscale>  1 0.30000000E+03</rscale>
<asrwt>0</asrwt>
<pdfrwt beam="1">  1        1 0.11778596E+00 0.30000000E+03</pdfrwt>
<pdfrwt beam="2">0</pdfrwt>
<totfact> 0.26760174E+01</totfact>
</mgrwt>
</event>
<event>
 6    1  0.1904828E-004  0.3000000E+03  0.7818608E-02  0.1093470E+00
          1   -1    0    0  502    0  0.00000000000E+00  0.00000000000E+00  0.34027282178E+02  0.34027282178E+02  0.00000000000E+00 0.  1.
         13   -1    0    0    0    0 -0.00000000000E+00 -0.00000000000E+00 -0.10000000000E+04  0.10000000000E+04  0.00000000000E+00 0.  1.
    9000005    2    1    2  501    0  0.13590009554E+02 -0.13508597109E+01 -0.96705873682E+03  0.10203271866E+04  0.32508222662E+03 0.  0.
         13    1    3    3    0    0  0.10065212382E+03  0.10888494692E+03 -0.72889643008E+03  0.74382577763E+03  0.00000000000E+00 0.  1.
          3    1    3    3  501    0 -0.87062114265E+02 -0.11023580663E+03 -0.23816230675E+03  0.27650140896E+03  0.00000000000E+00 0.  1.
         21    1    1    2  502  501 -0.13590009554E+02  0.13508597109E+01  0.10860190016E+01  0.13700095580E+02  0.00000000000E+00 0. -1.
<mgrwt>
<rscale>  1 0.30000000E+03</rscale>
<asrwt>0</asrwt>
<pdfrwt beam="1">  1        1 0.12373583E+00 0.30000000E+03</pdfrwt>
<pdfrwt beam="2">0</pdfrwt>
<totfact> 0.24771308E+01</totfact>
</mgrwt>
</event>
<event>
 6    1  0.1904828E-004  0.3000000E+03  0.7818608E-02  0.1093470E+00
          1   -1    0    0  502    0  0.00000000000E+00  0.00000000000E+00  0.31785213750E+02  0.31785213750E+02  0.00000000000E+00 0.  1.
         13   -1    0    0    0    0 -0.00000000000E+00 -0.00000000000E+00 -0.10000000000E+04  0.10000000000E+04  0.00000000000E+00 0.  1.
    9000005    2    1    2  501    0 -0.13377836773E+01 -0.29595165222E+02 -0.92019514732E+03  0.97536226458E+03  0.32201673024E+03 0.  0.
         13    1    3    3    0    0  0.11907238711E+03  0.65393588674E+02 -0.21996004402E+03  0.25852848156E+03  0.00000000000E+00 0.  1.
          1    1    3    3  501    0 -0.12041017078E+03 -0.94988753896E+02 -0.70023510330E+03  0.71683378303E+03  0.00000000000E+00 0.  1.
         21    1    1    2  502  501  0.13377836773E+01  0.29595165222E+02 -0.48019638930E+02  0.56422949166E+02  0.00000000000E+00 0. -1.
<mgrwt>
<rscale>  1 0.30000000E+03</rscale>
<asrwt>0</asrwt>
<pdfrwt beam="1">  1        1 0.11558284E+00 0.30000000E+03</pdfrwt>
<pdfrwt beam="2">0</pdfrwt>
<totfact> 0.27551386E+01</totfact>
</mgrwt>
</event>
<event>
 6    1  0.1904828E-004  0.3000000E+03  0.7818608E-02  0.1093470E+00
          3   -1    0    0  502    0  0.00000000000E+00  0.00000000000E+00  0.37427610223E+02  0.37427610223E+02  0.00000000000E+00 0.  1.
         13   -1    0    0    0    0 -0.00000000000E+00 -0.00000000000E+00 -0.10000000000E+04  0.10000000000E+04  0.00000000000E+00 0.  1.
    9000005    2    1    2  501    0  0.15386948476E+02  0.27220552187E+01 -0.96874648829E+03  0.10206262037E+04  0.32087991740E+03 0.  0.
         13    1    3    3    0    0 -0.60489487686E+01 -0.14436407929E+03 -0.26985731708E+03  0.30610545365E+03  0.00000000000E+00 0.  1.
          1    1    3    3  501    0  0.21435897245E+02  0.14708613451E+03 -0.69888917120E+03  0.71452075007E+03  0.00000000000E+00 0.  1.
         21    1    1    2  502  501 -0.15386948476E+02 -0.27220552187E+01  0.61740985085E+01  0.16801406501E+02  0.00000000000E+00 0.  1.
<mgrwt>
<rscale>  1 0.30000000E+03</rscale>
<asrwt>0</asrwt>
<pdfrwt beam="1">  1        3 0.13610069E+00 0.30000000E+03</pdfrwt>
<pdfrwt beam="2">0</pdfrwt>
<totfact> 0.14967377E+00</totfact>
</mgrwt>
</event>
<event>
 6    1  0.1904828E-004  0.3000000E+03  0.7818608E-02  0.1093470E+00
          1   -1    0    0  502    0  0.00000000000E+00  0.00000000000E+00  0.33407792384E+02  0.33407792384E+02  0.00000000000E+00 0.  1.
         13   -1    0    0    0    0 -0.00000000000E+00 -0.00000000000E+00 -0.10000000000E+04  0.10000000000E+04  0.00000000000E+00 0.  1.
    9000005    2    1    2  501    0  0.31347523920E+02 -0.95030429901E+00 -0.92542886788E+03  0.98165848445E+03  0.32596199202E+03 0.  0.
         13    1    3    3    0    0  0.15953972769E+03  0.39835971840E+02 -0.30185054428E+03  0.34373475303E+03  0.00000000000E+00 0.  1.
          1    1    3    3  501    0 -0.12819220377E+03 -0.40786276139E+02 -0.62357832361E+03  0.63792373141E+03  0.00000000000E+00 0.  1.
         21    1    1    2  502  501 -0.31347523920E+02  0.95030429901E+00 -0.41163339731E+02  0.51749307937E+02  0.00000000000E+00 0.  1.
<mgrwt>
<rscale>  1 0.30000000E+03</rscale>
<asrwt>0</asrwt>
<pdfrwt beam="1">  1        1 0.12148314E+00 0.30000000E+03</pdfrwt>
<pdfrwt beam="2">0</pdfrwt>
<totfact> 0.25500452E+01</totfact>
</mgrwt>
</event>
<event>
 6    1  0.1904828E-004  0.3000000E+03  0.7818608E-02  0.1093470E+00
          1   -1    0    0  502    0  0.00000000000E+00  0.00000000000E+00  0.28886742699E+02  0.28886742699E+02  0.00000000000E+00 0.  1.
         13   -1    0    0    0    0 -0.00000000000E+00 -0.00000000000E+00 -0.10000000000E+04  0.10000000000E+04  0.00000000000E+00 0.  1.
    9000005    2    1    2  501    0  0.85063307162E+01  0.52056630882E+01 -0.93167290716E+03  0.98820507841E+03  0.32929533015E+03 0.  0.
         13    1    3    3    0    0 -0.16652806819E+02 -0.70512673052E+01 -0.95290495381E+03  0.95307653803E+03  0.00000000000E+00 0.  1.
          3    1    3    3  501    0  0.25159137535E+02  0.12256930393E+02  0.21232046649E+02  0.35128540378E+02  0.00000000000E+00 0.  1.
         21    1    1    2  502  501 -0.85063307162E+01 -0.52056630882E+01 -0.39440350140E+02  0.40681664292E+02  0.00000000000E+00 0. -1.
<mgrwt>
<rscale>  1 0.30000000E+03</rscale>
<asrwt>0</asrwt>
<pdfrwt beam="1">  1        1 0.10504292E+00 0.30000000E+03</pdfrwt>
<pdfrwt beam="2">0</pdfrwt>
<totfact> 0.31833397E+01</totfact>
</mgrwt>
</event>
<event>
 6    1  0.1904828E-004  0.3000000E+03  0.7818608E-02  0.1093470E+00
          1   -1    0    0  502    0  0.00000000000E+00  0.00000000000E+00  0.44536223868E+02  0.44536223868E+02  0.00000000000E+00 0.  1.
         13   -1    0    0    0    0 -0.00000000000E+00 -0.00000000000E+00 -0.10000000000E+04  0.10000000000E+04  0.00000000000E+00 0.  1.
    9000005    2    1    2  501    0  0.29669391284E+02  0.62251408671E+01 -0.96108325532E+03  0.10137043620E+04  0.32093065418E+03 0.  0.
         13    1    3    3    0    0 -0.96347382532E+02 -0.56551812273E+02 -0.76039217628E+03  0.76855525978E+03  0.00000000000E+00 0.  1.
          1    1    3    3  501    0  0.12601677382E+03  0.62776953140E+02 -0.20069107904E+03  0.24514910225E+03  0.00000000000E+00 0.  1.
         21    1    1    2  502  501 -0.29669391284E+02 -0.62251408671E+01  0.56194791857E+01  0.30831861836E+02  0.00000000000E+00 0.  1.
<mgrwt>
<rscale>  1 0.30000000E+03</rscale>
<asrwt>0</asrwt>
<pdfrwt beam="1">  1        1 0.16195025E+00 0.30000000E+03</pdfrwt>
<pdfrwt beam="2">0</pdfrwt>
<totfact> 0.15650624E+01</totfact>
</mgrwt>
</event>
<event>
 6    1  0.1904828E-004  0.3000000E+03  0.7818608E-02  0.1093470E+00
          1   -1    0    0  502    0  0.00000000000E+00  0.00000000000E+00  0.40458780600E+02  0.40458780600E+02  0.00000000000E+00 0.  1.
         13   -1    0    0    0    0 -0.00000000000E+00 -0.00000000000E+00 -0.10000000000E+04  0.10000000000E+04  0.00000000000E+00 0.  1.
    9000005    2    1    2  501    0 -0.14084120476E+02 -0.19954275886E+02 -0.94988941478E+03  0.10141967756E+04  0.35455417596E+03 0.  0.
         13    1    3    3    0    0  0.15969728796E+03 -0.64080898571E+02 -0.38932637903E+03  0.42565786114E+03  0.00000000000E+00 0.  1.
          3    1    3    3  501    0 -0.17378140844E+03  0.44126622685E+02 -0.56056303575E+03  0.58853891443E+03  0.00000000000E+00 0.  1.
         21    1    1    2  502  501  0.14084120476E+02  0.19954275886E+02 -0.96518046195E+01  0.26262005029E+02  0.00000000000E+00 0. -1.
<mgrwt>
<rscale>  1 0.30000000E+03</rscale>
<asrwt>0</asrwt>
<pdfrwt beam="1">  1        1 0.14712315E+00 0.30000000E+03</pdfrwt>
<pdfrwt beam="2">0</pdfrwt>
<totfact> 0.18582959E+01</totfact>
</mgrwt>
</event>
<event>
 6    1  0.1904828E-004  0.3000000E+03  0.7818608E-02  0.1093470E+00
          1   -1    0    0  502    0  0.00000000000E+00  0.00000000000E+00  0.39833062376E+02  0.39833062376E+02  0.00000000000E+00 0.  1.
         13   -1    0    0    0    0 -0.00000000000E+00 -0.00000000000E+00 -0.10000000000E+04  0.10000000000E+04  0.00000000000E+00 0.  1.
    9000005    2    1    2  501    0 -0.22519486763E+01  0.13655215540E+02 -0.96743400222E+03  0.10242014786E+04  0.33595919972E+03 0.  0.
         13    1    3    3    0    0  0.41969970956E+02 -0.13860932776E+03 -0.68652053077E+03  0.70162986209E+03  0.00000000000E+00 0.  1.
          1    1    3    3  501    0 -0.44221919633E+02  0.15226454330E+03 -0.28091347145E+03  0.32257161648E+03  0.00000000000E+00 0.  1.
         21    1    1    2  502  501  0.22519486763E+01 -0.13655215540E+02  0.72670645965E+01  0.15631583802E+02  0.00000000000E+00 0. -1.
<mgrwt>
<rscale>  1 0.30000000E+03</rscale>
<asrwt>0</asrwt>
<pdfrwt beam="1">  1        1 0.14484780E+00 0.30000000E+03</pdfrwt>
<pdfrwt beam="2">0</pdfrwt>
<totfact> 0.19090696E+01</totfact>
</mgrwt>
</event>
<event>
 6    1  0.1904828E-004  0.3000000E+03  0.7818608E-02  0.1093470E+00
          3   -1    0    0  502    0  0.00000000000E+00  0.00000000000E+00  0.36651935855E+02  0.36651935855E+02  0.00000000000E+00 0.  1.
         13   -1    0    0    0    0 -0.00000000000E+00 -0.00000000000E+00 -0.10000000000E+04  0.10000000000E+04  0.00000000000E+00 0.  1.
    9000005    2    1    2  501    0 -0.35942475379E+02  0.12288546620E+02 -0.93681826653E+03  0.99031944104E+03  0.31884363077E+03 0.  0.
         13    1    3    3    0    0 -0.10609020763E+03  0.12478465753E+03 -0.70011096197E+03  0.71901439623E+03  0.00000000000E+00 0.  1.
          3    1    3    3  501    0  0.70147732252E+02 -0.11249611091E+03 -0.23670730455E+03  0.27130504481E+03  0.00000000000E+00 0.  1.
         21    1    1    2  502  501  0.35942475379E+02 -0.12288546620E+02 -0.26529797617E+02  0.46332494818E+02  0.00000000000E+00 0.  1.
<mgrwt>
<rscale>  1 0.30000000E+03</rscale>
<asrwt>0</asrwt>
<pdfrwt beam="1">  1        3 0.13328005E+00 0.30000000E+03</pdfrwt>
<pdfrwt beam="2">0</pdfrwt>
<totfact> 0.16184506E+00</totfact>
</mgrwt>
</event>
<event>
 6    1  0.1904828E-004  0.3000000E+03  0.7818608E-02  0.1093470E+00
          1   -1    0    0  502    0  0.00000000000E+00  0.00000000000E+00  0.17409661919E+02  0.17409661919E+02  0.00000000000E+00 0.  1.
         13   -1    0    0    0    0 -0.00000000000E+00 -0.00000000000E+00 -0.10000000000E+04  0.10000000000E+04  0.00000000000E+00 0.  1.
    9000005    2    1    2  501    0 -0.11180102235E+02 -0.33500508193E+01 -0.98204509035E+03  0.10057257062E+04  0.21664583791E+03 0.  0.
         13    1    3    3    0    0 -0.28645111502E+02 -0.10676874649E+03 -0.56338518527E+03  0.57412801240E+03  0.00000000000E+00 0.  1.
          3    1    3    3  501    0  0.17465009268E+02  0.10341869567E+03 -0.41865990508E+03  0.43159769379E+03  0.00000000000E+00 0.  1.
         21    1    1    2  502  501  0.11180102235E+02  0.33500508193E+01 -0.54524773224E+00  0.11683955732E+02  0.00000000000E+00 0. -1.
<mgrwt>
<rscale>  1 0.30000000E+03</rscale>
<asrwt>0</asrwt>
<pdfrwt beam="1">  1        1 0.63307995E-01 0.30000000E+03</pdfrwt>
<pdfrwt beam="2">0</pdfrwt>
<totfact> 0.64555632E+01</totfact>
</mgrwt>
</event>
<event>
 6    1  0.1904828E-004  0.3000000E+03  0.7818608E-02  0.1093470E+00
          3   -1    0    0  502    0  0.00000000000E+00  0.00000000000E+00  0.36095074643E+02  0.36095074643E+02  0.00000000000E+00 0.  1.
         13   -1    0    0    0    0 -0.00000000000E+00 -0.00000000000E+00 -0.10000000000E+04  0.10000000000E+04  0.00000000000E+00 0.  1.
    9000005    2    1    2  501    0  0.10574988857E+02 -0.10593975167E+01 -0.97110268972E+03  0.10232591670E+04  0.32234443723E+03 0.  0.
         13    1    3    3    0    0  0.31310714603E+02 -0.74171988018E+02 -0.41539380412E+02  0.90594507452E+02  0.00000000000E+00 0.  1.
          3    1    3    3  501    0 -0.20735725746E+02  0.73112590501E+02 -0.92956330931E+03  0.93266465958E+03  0.00000000000E+00 0.  1.
         21    1    1    2  502  501 -0.10574988857E+02  0.10593975167E+01  0.71977643638E+01  0.12835907613E+02  0.00000000000E+00 0. -1.
<mgrwt>
<rscale>  1 0.30000000E+03</rscale>
<asrwt>0</asrwt>
<pdfrwt beam="1">  1        3 0.13125509E+00 0.30000000E+03</pdfrwt>
<pdfrwt beam="2">0</pdfrwt>
<totfact> 0.17103372E+00</totfact>
</mgrwt>
</event>
<event>
 6    1  0.1904828E-004  0.3000000E+03  0.7818608E-02  0.1093470E+00
          1   -1    0    0  502    0  0.00000000000E+00  0.00000000000E+00  0.47629570305E+02  0.47629570305E+02  0.00000000000E+00 0.  1.
         13   -1    0    0    0    0 -0.00000000000E+00 -0.00000000000E+00 -0.10000000000E+04  0.10000000000E+04  0.00000000000E+00 0.  1.
    9000005    2    1    2  501    0 -0.17530376337E+02  0.17018044058E+02 -0.96574331552E+03  0.10197770660E+04  0.32663157388E+03 0.  0.
         13    1    3    3    0    0 -0.71228701598E+02 -0.83452228835E+02 -0.85115223081E+03  0.85819457144E+03  0.00000000000E+00 0.  1.
          3    1    3    3  501    0  0.53698325260E+02  0.10047027289E+03 -0.11459108470E+03  0.16158249461E+03  0.00000000000E+00 0.  1.
         21    1    1    2  502  501  0.17530376337E+02 -0.17018044058E+02  0.13372885822E+02  0.27852504256E+02  0.00000000000E+00 0.  1.
<mgrwt>
<rscale>  1 0.30000000E+03</rscale>
<asrwt>0</asrwt>
<pdfrwt beam="1">  1        1 0.17319880E+00 0.30000000E+03</pdfrwt>
<pdfrwt beam="2">0</pdfrwt>
<totfact> 0.13783091E+01</totfact>
</mgrwt>
</event>
<event>
 6    1  0.1904828E-004  0.3000000E+03  0.7818608E-02  0.1093470E+00
          1   -1    0    0  502    0  0.00000000000E+00  0.00000000000E+00  0.41942369912E+02  0.41942369912E+02  0.00000000000E+00 0.  1.
         13   -1    0    0    0    0 -0.00000000000E+00 -0.00000000000E+00 -0.10000000000E+04  0.10000000000E+04  0.00000000000E+00 0.  1.
    9000005    2    1    2  501    0  0.85399936858E+01 -0.78741288252E+01 -0.96186709900E+03  0.10297175816E+04  0.36741672287E+03 0.  0.
         13    1    3    3    0    0 -0.40909928720E+02  0.30529172134E+02  0.13134031202E+02  0.52708209937E+02  0.00000000000E+00 0.  1.
          3    1    3    3  501    0  0.49449922406E+02 -0.38403300959E+02 -0.97500113020E+03  0.97700937162E+03  0.00000000000E+00 0.  1.
         21    1    1    2  502  501 -0.85399936858E+01  0.78741288252E+01  0.38094689083E+01  0.12224788353E+02  0.00000000000E+00 0.  1.
<mgrwt>
<rscale>  1 0.30000000E+03</rscale>
<asrwt>0</asrwt>
<pdfrwt beam="1">  1        1 0.15251803E+00 0.30000000E+03</pdfrwt>
<pdfrwt beam="2">0</pdfrwt>
<totfact> 0.17444794E+01</totfact>
</mgrwt>
</event>
<event>
 6    1  0.1904828E-004  0.3000000E+03  0.7818608E-02  0.1093470E+00
          1   -1    0    0  502    0  0.00000000000E+00  0.00000000000E+00  0.31077062934E+02  0.31077062934E+02  0.00000000000E+00 0.  1.
         13   -1    0    0    0    0 -0.00000000000E+00 -0.00000000000E+00 -0.10000000000E+04  0.10000000000E+04  0.00000000000E+00 0.  1.
    9000005    2    1    2  501    0  0.17860463639E+02  0.18410147035E+01 -0.96925770529E+03  0.10131188457E+04  0.29432449906E+03 0.  0.
         13    1    3    3    0    0  0.13478291921E+03  0.18837660360E+02 -0.76616742402E+03  0.77816053253E+03  0.00000000000E+00 0.  1.
          1    1    3    3  501    0 -0.11692245557E+03 -0.16996645656E+02 -0.20309028127E+03  0.23495831317E+03  0.00000000000E+00 0.  1.
         21    1    1    2  502  501 -0.17860463639E+02 -0.18410147035E+01  0.33476822467E+00  0.17958217236E+02  0.00000000000E+00 0.  1.
<mgrwt>
<rscale>  1 0.30000000E+03</rscale>
<asrwt>0</asrwt>
<pdfrwt beam="1">  1        1 0.11300774E+00 0.30000000E+03</pdfrwt>
<pdfrwt beam="2">0</pdfrwt>
<totfact> 0.28518231E+01</totfact>
</mgrwt>
</event>
<event>
 6    1  0.1904828E-004  0.3000000E+03  0.7818608E-02  0.1093470E+00
          1   -1    0    0  502    0  0.00000000000E+00  0.00000000000E+00  0.27314079849E+02  0.27314079849E+02  0.00000000000E+00 0.  1.
         13   -1    0    0    0    0 -0.00000000000E+00 -0.00000000000E+00 -0.10000000000E+04  0.10000000000E+04  0.00000000000E+00 0.  1.
    9000005    2    1    2  501    0 -0.80584345445E+01  0.66237344189E+01 -0.95640751365E+03  0.10079802043E+04  0.31811939253E+03 0.  0.
         13    1    3    3    0    0  0.99818224916E+02 -0.55771840985E+02 -0.79935052969E+03  0.80748711791E+03  0.00000000000E+00 0.  1.
          3    1    3    3  501    0 -0.10787665946E+03  0.62395575404E+02 -0.15705698396E+03  0.20049308641E+03  0.00000000000E+00 0.  1.
         21    1    1    2  502  501  0.80584345445E+01 -0.66237344189E+01 -0.16278406505E+02  0.19333875537E+02  0.00000000000E+00 0. -1.
<mgrwt>
<rscale>  1 0.30000000E+03</rscale>
<asrwt>0</asrwt>
<pdfrwt beam="1">  1        1 0.99324136E-01 0.30000000E+03</pdfrwt>
<pdfrwt beam="2">0</pdfrwt>
<totfact> 0.34567655E+01</totfact>
</mgrwt>
</event>
<event>
 6    1  0.1904828E-004  0.3000000E+03  0.7818608E-02  0.1093470E+00
          1   -1    0    0  502    0  0.00000000000E+00  0.00000000000E+00  0.33572017350E+02  0.33572017350E+02  0.00000000000E+00 0.  1.
         13   -1    0    0    0    0 -0.00000000000E+00 -0.00000000000E+00 -0.10000000000E+04  0.10000000000E+04  0.00000000000E+00 0.  1.
    9000005    2    1    2  501    0 -0.25033575064E+02 -0.28009892880E+01 -0.94173577444E+03  0.99829836475E+03  0.33030112137E+03 0.  0.
         13    1    3    3    0    0 -0.44878276733E+02 -0.14723516253E+03 -0.26880099199E+03  0.30975187829E+03  0.00000000000E+00 0.  1.
          3    1    3    3  501    0  0.19844701669E+02  0.14443417325E+03 -0.67293478245E+03  0.68854648646E+03  0.00000000000E+00 0.  1.
         21    1    1    2  502  501  0.25033575064E+02  0.28009892880E+01 -0.24692208206E+02  0.35273652597E+02  0.00000000000E+00 0.  1.
<mgrwt>
<rscale>  1 0.30000000E+03</rscale>
<asrwt>0</asrwt>
<pdfrwt beam="1">  1        1 0.12208032E+00 0.30000000E+03</pdfrwt>
<pdfrwt beam="2">0</pdfrwt>
<totfact> 0.25304449E+01</totfact>
</mgrwt>
</event>
<event>
 6    1  0.1904828E-004  0.3000000E+03  0.7818608E-02  0.1093470E+00
          1   -1    0    0  502    0  0.00000000000E+00  0.00000000000E+00  0.37900495897E+02  0.37900495897E+02  0.00000000000E+00 0.  1.
         13   -1    0    0    0    0 -0.00000000000E+00 -0.00000000000E+00 -0.10000000000E+04  0.10000000000E+04  0.00000000000E+00 0.  1.
    9000005    2    1    2  501    0  0.12447548017E+02 -0.15163620256E+02 -0.94834461162E+03  0.10139406566E+04  0.35823634089E+03 0.  0.
         13    1    3    3    0    0 -0.80789936506E+02  0.11736341038E+02 -0.24814040738E+02  0.85325800080E+02  0.00000000000E+00 0.  1.
          3    1    3    3  501    0  0.93237484523E+02 -0.26899961294E+02 -0.92353057088E+03  0.92861485654E+03  0.00000000000E+00 0.  1.
         21    1    1    2  502  501 -0.12447548017E+02  0.15163620256E+02 -0.13754892486E+02  0.23959839277E+02  0.00000000000E+00 0.  1.
<mgrwt>
<rscale>  1 0.30000000E+03</rscale>
<asrwt>0</asrwt>
<pdfrwt beam="1">  1        1 0.13782028E+00 0.30000000E+03</pdfrwt>
<pdfrwt beam="2">0</pdfrwt>
<totfact> 0.20773769E+01</totfact>
</mgrwt>
</event>
<event>
 6    1  0.1904828E-004  0.3000000E+03  0.7818608E-02  0.1093470E+00
          1   -1    0    0  502    0  0.00000000000E+00  0.00000000000E+00  0.33654810113E+02  0.33654810113E+02  0.00000000000E+00 0.  1.
         13   -1    0    0    0    0 -0.00000000000E+00 -0.00000000000E+00 -0.10000000000E+04  0.10000000000E+04  0.00000000000E+00 0.  1.
    9000005    2    1    2  501    0 -0.13288306280E+02 -0.15254602745E+02 -0.95625642687E+03  0.10110480605E+04  0.32769275965E+03 0.  0.
         13    1    3    3    0    0 -0.74227684372E+02 -0.12190514315E+03 -0.79827051575E+03  0.81092936151E+03  0.00000000000E+00 0.  1.
          1    1    3    3  501    0  0.60939378092E+02  0.10665054041E+03 -0.15798591113E+03  0.20011869899E+03  0.00000000000E+00 0.  1.
         21    1    1    2  502  501  0.13288306280E+02  0.15254602745E+02 -0.10088763014E+02  0.22606749608E+02  0.00000000000E+00 0. -1.
<mgrwt>
<rscale>  1 0.30000000E+03</rscale>
<asrwt>0</asrwt>
<pdfrwt beam="1">  1        1 0.12238139E+00 0.30000000E+03</pdfrwt>
<pdfrwt beam="2">0</pdfrwt>
<totfact> 0.25206387E+01</totfact>
</mgrwt>
</event>
<event>
 6    1  0.1904828E-004  0.3000000E+03  0.7818608E-02  0.1093470E+00
          1   -1    0    0  502    0  0.00000000000E+00  0.00000000000E+00  0.28971539615E+02  0.28971539615E+02  0.00000000000E+00 0.  1.
         13   -1    0    0    0    0 -0.00000000000E+00 -0.00000000000E+00 -0.10000000000E+04  0.10000000000E+04  0.00000000000E+00 0.  1.
    9000005    2    1    2  501    0  0.12241387969E+02  0.19800091339E+02 -0.94405860008E+03  0.99334474407E+03  0.30813186297E+03 0.  0.
         13    1    3    3    0    0 -0.15551878210E+02 -0.13864658974E+03 -0.55659558514E+03  0.57381476381E+03  0.00000000000E+00 0.  1.
          1    1    3    3  501    0  0.27793266179E+02  0.15844668108E+03 -0.38746301494E+03  0.41952998026E+03  0.00000000000E+00 0.  1.
         21    1    1    2  502  501 -0.12241387969E+02 -0.19800091339E+02 -0.26969860301E+02  0.35626795549E+02  0.00000000000E+00 0. -1.
<mgrwt>
<rscale>  1 0.30000000E+03</rscale>
<asrwt>0</asrwt>
<pdfrwt beam="1">  1        1 0.10535128E+00 0.30000000E+03</pdfrwt>
<pdfrwt beam="2">0</pdfrwt>
<totfact> 0.31695025E+01</totfact>
</mgrwt>
</event>
<event>
 6    1  0.1904828E-004  0.3000000E+03  0.7818608E-02  0.1093470E+00
          1   -1    0    0  502    0  0.00000000000E+00  0.00000000000E+00  0.28719603782E+02  0.28719603782E+02  0.00000000000E+00 0.  1.
         13   -1    0    0    0    0 -0.00000000000E+00 -0.00000000000E+00 -0.10000000000E+04  0.10000000000E+04  0.00000000000E+00 0.  1.
    9000005    2    1    2  501    0  0.44251328356E+01 -0.97966790190E+01 -0.96885575316E+03  0.10176998209E+04  0.31131318369E+03 0.  0.
         13    1    3    3    0    0  0.15759229619E+03 -0.13909682737E+02 -0.50306634122E+03  0.52735619344E+03  0.00000000000E+00 0.  1.
          1    1    3    3  501    0 -0.15316716336E+03  0.41130037180E+01 -0.46578941194E+03  0.49034362747E+03  0.00000000000E+00 0.  1.
         21    1    1    2  502  501 -0.44251328356E+01  0.97966790190E+01 -0.24246430551E+01  0.11019782864E+02  0.00000000000E+00 0.  1.
<mgrwt>
<rscale>  1 0.30000000E+03</rscale>
<asrwt>0</asrwt>
<pdfrwt beam="1">  1        1 0.10443514E+00 0.30000000E+03</pdfrwt>
<pdfrwt beam="2">0</pdfrwt>
<totfact> 0.32108705E+01</totfact>
</mgrwt>
</event>
<event>
 6    1  0.1904828E-004  0.3000000E+03  0.7818608E-02  0.1093470E+00
          1   -1    0    0  502    0  0.00000000000E+00  0.00000000000E+00  0.50578278216E+02  0.50578278216E+02  0.00000000000E+00 0.  1.
         13   -1    0    0    0    0 -0.00000000000E+00 -0.00000000000E+00 -0.10000000000E+04  0.10000000000E+04  0.00000000000E+00 0.  1.
    9000005    2    1    2  501    0 -0.76976553832E+02  0.38929783776E+02 -0.88119040462E+03  0.94059450420E+03  0.31745956315E+03 0.  0.
         13    1    3    3    0    0 -0.17286576547E+03  0.11336085707E+03 -0.58746997415E+03  0.62277943713E+03  0.00000000000E+00 0.  1.
          1    1    3    3  501    0  0.95889211637E+02 -0.74431073298E+02 -0.29372043047E+03  0.31781506707E+03  0.00000000000E+00 0.  1.
         21    1    1    2  502  501  0.76976553832E+02 -0.38929783776E+02 -0.68231317166E+02  0.10998377402E+03  0.00000000000E+00 0.  1.
<mgrwt>
<rscale>  1 0.30000000E+03</rscale>
<asrwt>0</asrwt>
<pdfrwt beam="1">  1        1 0.18392140E+00 0.30000000E+03</pdfrwt>
<pdfrwt beam="2">0</pdfrwt>
<totfact> 0.12229685E+01</totfact>
</mgrwt>
</event>
<event>
 6    1  0.1904828E-004  0.3000000E+03  0.7818608E-02  0.1093470E+00
          1   -1    0    0  502    0  0.00000000000E+00  0.00000000000E+00  0.35655251741E+02  0.35655251741E+02  0.00000000000E+00 0.  1.
         13   -1    0    0    0    0 -0.00000000000E+00 -0.00000000000E+00 -0.10000000000E+04  0.10000000000E+04  0.00000000000E+00 0.  1.
    9000005    2    1    2  501    0 -0.23719877333E+02 -0.30462038282E+02 -0.92124475365E+03  0.97779180998E+03  0.32541413488E+03 0.  0.
         13    1    3    3    0    0  0.12758976739E+03 -0.88913688847E+02 -0.57118090917E+03  0.59197333031E+03  0.00000000000E+00 0.  1.
          3    1    3    3  501    0 -0.15130964472E+03  0.58451650565E+02 -0.35006384448E+03  0.38581847967E+03  0.00000000000E+00 0.  1.
         21    1    1    2  502  501  0.23719877333E+02  0.30462038282E+02 -0.43099994608E+02  0.57863441759E+02  0.00000000000E+00 0.  1.
<mgrwt>
<rscale>  1 0.30000000E+03</rscale>
<asrwt>0</asrwt>
<pdfrwt beam="1">  1        1 0.12965573E+00 0.30000000E+03</pdfrwt>
<pdfrwt beam="2">0</pdfrwt>
<totfact> 0.22978809E+01</totfact>
</mgrwt>
</event>
<event>
 6    1  0.1904828E-004  0.3000000E+03  0.7818608E-02  0.1093470E+00
          1   -1    0    0  502    0  0.00000000000E+00  0.00000000000E+00  0.53216493293E+02  0.53216493293E+02  0.00000000000E+00 0.  1.
         13   -1    0    0    0    0 -0.00000000000E+00 -0.00000000000E+00 -0.10000000000E+04  0.10000000000E+04  0.00000000000E+00 0.  1.
    9000005    2    1    2  501    0 -0.50985378367E+02  0.30139309678E+02 -0.92802437654E+03  0.99108927092E+03  0.34281308710E+03 0.  0.
         13    1    3    3    0    0 -0.11190734324E+03  0.77768822243E+02 -0.12680635098E+03  0.18614804279E+03  0.00000000000E+00 0.  1.
          1    1    3    3  501    0  0.60921964873E+02 -0.47629512565E+02 -0.80121802556E+03  0.80494122813E+03  0.00000000000E+00 0.  1.
         21    1    1    2  502  501  0.50985378367E+02 -0.30139309678E+02 -0.18759130168E+02  0.62127222373E+02  0.00000000000E+00 0. -1.
<mgrwt>
<rscale>  1 0.30000000E+03</rscale>
<asrwt>0</asrwt>
<pdfrwt beam="1">  1        1 0.19351493E+00 0.30000000E+03</pdfrwt>
<pdfrwt beam="2">0</pdfrwt>
<totfact> 0.10999018E+01</totfact>
</mgrwt>
</event>
<event>
 6    1  0.1904828E-004  0.3000000E+03  0.7818608E-02  0.1093470E+00
          1   -1    0    0  502    0  0.00000000000E+00  0.00000000000E+00  0.30744045433E+02  0.30744045433E+02  0.00000000000E+00 0.  1.
         13   -1    0    0    0    0 -0.00000000000E+00 -0.00000000000E+00 -0.10000000000E+04  0.10000000000E+04  0.00000000000E+00 0.  1.
    9000005    2    1    2  501    0  0.36432347180E+01  0.16167645298E+02 -0.95314875372E+03  0.10076332723E+04  0.32643161443E+03 0.  0.
         13    1    3    3    0    0  0.76882552577E+02 -0.48496258023E+02 -0.88224527476E+03  0.88691574503E+03  0.00000000000E+00 0.  1.
          3    1    3    3  501    0 -0.73239317859E+02  0.64663903321E+02 -0.70903478960E+02  0.12071752732E+03  0.00000000000E+00 0.  1.
         21    1    1    2  502  501 -0.36432347180E+01 -0.16167645298E+02 -0.16107200842E+02  0.23110773087E+02  0.00000000000E+00 0.  1.
<mgrwt>
<rscale>  1 0.30000000E+03</rscale>
<asrwt>0</asrwt>
<pdfrwt beam="1">  1        1 0.11179676E+00 0.30000000E+03</pdfrwt>
<pdfrwt beam="2">0</pdfrwt>
<totfact> 0.28989629E+01</totfact>
</mgrwt>
</event>
<event>
 6    1  0.1904828E-004  0.3000000E+03  0.7818608E-02  0.1093470E+00
          1   -1    0    0  502    0  0.00000000000E+00  0.00000000000E+00  0.34981071343E+02  0.34981071343E+02  0.00000000000E+00 0.  1.
         13   -1    0    0    0    0 -0.00000000000E+00 -0.00000000000E+00 -0.10000000000E+04  0.10000000000E+04  0.00000000000E+00 0.  1.
    9000005    2    1    2  501    0 -0.15187097294E+02 -0.12181042029E+02 -0.96307809170E+03  0.10154159862E+04  0.32120272194E+03 0.  0.
         13    1    3    3    0    0  0.16730655843E+02  0.14919956348E+03 -0.35417932112E+03  0.38468612673E+03  0.00000000000E+00 0.  1.
          3    1    3    3  501    0 -0.31917753137E+02 -0.16138060551E+03 -0.60889877057E+03  0.63072985945E+03  0.00000000000E+00 0.  1.
         21    1    1    2  502  501  0.15187097294E+02  0.12181042029E+02 -0.19408369593E+01  0.19565085158E+02  0.00000000000E+00 0. -1.
<mgrwt>
<rscale>  1 0.30000000E+03</rscale>
<asrwt>0</asrwt>
<pdfrwt beam="1">  1        1 0.12720416E+00 0.30000000E+03</pdfrwt>
<pdfrwt beam="2">0</pdfrwt>
<totfact> 0.23700293E+01</totfact>
</mgrwt>
</event>
<event>
 6    1  0.1904828E-004  0.3000000E+03  0.7818608E-02  0.1093470E+00
          1   -1    0    0  502    0  0.00000000000E+00  0.00000000000E+00  0.72184203093E+02  0.72184203093E+02  0.00000000000E+00 0.  1.
         13   -1    0    0    0    0 -0.00000000000E+00 -0.00000000000E+00 -0.10000000000E+04  0.10000000000E+04  0.00000000000E+00 0.  1.
    9000005    2    1    2  501    0  0.84598189382E+02 -0.12935878968E+03 -0.75789804399E+03  0.84248310847E+03  0.33388290292E+03 0.  0.
         13    1    3    3    0    0 -0.83412556398E+02 -0.16520525840E+03 -0.28975585485E+03  0.34381519365E+03  0.00000000000E+00 0.  1.
          3    1    3    3  501    0  0.16801074578E+03  0.35846468720E+02 -0.46814218914E+03  0.49866791482E+03  0.00000000000E+00 0.  1.
         21    1    1    2  502  501 -0.84598189382E+02  0.12935878968E+03 -0.16991775292E+03  0.22970109462E+03  0.00000000000E+00 0.  1.
<mgrwt>
<rscale>  1 0.30000000E+03</rscale>
<asrwt>0</asrwt>
<pdfrwt beam="1">  1        1 0.26248856E+00 0.30000000E+03</pdfrwt>
<pdfrwt beam="2">0</pdfrwt>
<totfact> 0.52158591E+00</totfact>
</mgrwt>
</event>
<event>
 6    1  0.1904828E-004  0.3000000E+03  0.7818608E-02  0.1093470E+00
          1   -1    0    0  502    0  0.00000000000E+00  0.00000000000E+00  0.26324062838E+02  0.26324062838E+02  0.00000000000E+00 0.  1.
         13   -1    0    0    0    0 -0.00000000000E+00 -0.00000000000E+00 -0.10000000000E+04  0.10000000000E+04  0.00000000000E+00 0.  1.
    9000005    2    1    2  501    0  0.71065858782E+01 -0.22895787578E+02 -0.97241056655E+03  0.10023173593E+04  0.24183270702E+03 0.  0.
         13    1    3    3    0    0 -0.76046199286E+02 -0.69147450293E+02 -0.20801945792E+03  0.23202691478E+03  0.00000000000E+00 0.  1.
          3    1    3    3  501    0  0.83152785164E+02  0.46251662715E+02 -0.76439110863E+03  0.77029044453E+03  0.00000000000E+00 0.  1.
         21    1    1    2  502  501 -0.71065858782E+01  0.22895787578E+02 -0.12653706143E+01  0.24006703532E+02  0.00000000000E+00 0. -1.
<mgrwt>
<rscale>  1 0.30000000E+03</rscale>
<asrwt>0</asrwt>
<pdfrwt beam="1">  1        1 0.95724067E-01 0.30000000E+03</pdfrwt>
<pdfrwt beam="2">0</pdfrwt>
<totfact> 0.36469792E+01</totfact>
</mgrwt>
</event>
<event>
 6    1  0.1904828E-004  0.3000000E+03  0.7818608E-02  0.1093470E+00
          1   -1    0    0  502    0  0.00000000000E+00  0.00000000000E+00  0.30318622900E+02  0.30318622900E+02  0.00000000000E+00 0.  1.
         13   -1    0    0    0    0 -0.00000000000E+00 -0.00000000000E+00 -0.10000000000E+04  0.10000000000E+04  0.00000000000E+00 0.  1.
    9000005    2    1    2  501    0  0.12553950485E+02 -0.75196828941E+01 -0.95416152486E+03  0.10089875864E+04  0.32774622306E+03 0.  0.
         13    1    3    3    0    0  0.46430262259E+02 -0.14891058158E+03 -0.29198101290E+03  0.33103329509E+03  0.00000000000E+00 0.  1.
          3    1    3    3  501    0 -0.33876311774E+02  0.14139089868E+03 -0.66218051195E+03  0.67795429134E+03  0.00000000000E+00 0.  1.
         21    1    1    2  502  501 -0.12553950485E+02  0.75196828941E+01 -0.15519852242E+02  0.21331036478E+02  0.00000000000E+00 0. -1.
<mgrwt>
<rscale>  1 0.30000000E+03</rscale>
<asrwt>0</asrwt>
<pdfrwt beam="1">  1        1 0.11024977E+00 0.30000000E+03</pdfrwt>
<pdfrwt beam="2">0</pdfrwt>
<totfact> 0.29608047E+01</totfact>
</mgrwt>
</event>
<event>
 6    1  0.1904828E-004  0.3000000E+03  0.7818608E-02  0.1093470E+00
          1   -1    0    0  502    0  0.00000000000E+00  0.00000000000E+00  0.29926675698E+02  0.29926675698E+02  0.00000000000E+00 0.  1.
         13   -1    0    0    0    0 -0.00000000000E+00 -0.00000000000E+00 -0.10000000000E+04  0.10000000000E+04  0.00000000000E+00 0.  1.
    9000005    2    1    2  501    0  0.26388935873E+01  0.11757590044E+02 -0.96271265605E+03  0.10158063315E+04  0.32388522708E+03 0.  0.
         13    1    3    3    0    0 -0.89995891101E+02  0.13426374566E+03 -0.61106654356E+03  0.63208253770E+03  0.00000000000E+00 0.  1.
          3    1    3    3  501    0  0.92634784688E+02 -0.12250615562E+03 -0.35164611249E+03  0.38372379380E+03  0.00000000000E+00 0.  1.
         21    1    1    2  502  501 -0.26388935873E+01 -0.11757590044E+02 -0.73606682516E+01  0.14120344193E+02  0.00000000000E+00 0.  1.
<mgrwt>
<rscale>  1 0.30000000E+03</rscale>
<asrwt>0</asrwt>
<pdfrwt beam="1">  1        1 0.10882450E+00 0.30000000E+03</pdfrwt>
<pdfrwt beam="2">0</pdfrwt>
<totfact> 0.30194494E+01</totfact>
</mgrwt>
</event>
<event>
 6    1  0.1904828E-004  0.3000000E+03  0.7818608E-02  0.1093470E+00
          3   -1    0    0  502    0  0.00000000000E+00  0.00000000000E+00  0.40834356207E+02  0.40834356207E+02  0.00000000000E+00 0.  1.
         13   -1    0    0    0    0 -0.00000000000E+00 -0.00000000000E+00 -0.10000000000E+04  0.10000000000E+04  0.00000000000E+00 0.  1.
    9000005    2    1    2  501    0 -0.77856977955E+01  0.25349302015E+02 -0.95644574630E+03  0.10141772362E+04  0.33624960473E+03 0.  0.
         13    1    3    3    0    0  0.15028733504E+03  0.25152639798E+02 -0.27257819478E+03  0.31227841845E+03  0.00000000000E+00 0.  1.
          1    1    3    3  501    0 -0.15807303283E+03  0.19666221685E+00 -0.68386755152E+03  0.70189881778E+03  0.00000000000E+00 0.  1.
         21    1    1    2  502  501  0.77856977955E+01 -0.25349302015E+02 -0.27198974946E+01  0.26657119972E+02  0.00000000000E+00 0. -1.
<mgrwt>
<rscale>  1 0.30000000E+03</rscale>
<asrwt>0</asrwt>
<pdfrwt beam="1">  1        3 0.14848888E+00 0.30000000E+03</pdfrwt>
<pdfrwt beam="2">0</pdfrwt>
<totfact> 0.10380533E+00</totfact>
</mgrwt>
</event>
<event>
 6    1  0.1904828E-004  0.3000000E+03  0.7818608E-02  0.1093470E+00
          1   -1    0    0  502    0  0.00000000000E+00  0.00000000000E+00  0.57695229996E+02  0.57695229996E+02  0.00000000000E+00 0.  1.
         13   -1    0    0    0    0 -0.00000000000E+00 -0.00000000000E+00 -0.10000000000E+04  0.10000000000E+04  0.00000000000E+00 0.  1.
    9000005    2    1    2  501    0 -0.68578857151E+02 -0.18573991269E+02 -0.92546837211E+03  0.98467799166E+03  0.32871109913E+03 0.  0.
         13    1    3    3    0    0 -0.44080992180E+02 -0.15761420056E+03 -0.69821861117E+03  0.71714336020E+03  0.00000000000E+00 0.  1.
          1    1    3    3  501    0 -0.24497864971E+02  0.13904020929E+03 -0.22724976093E+03  0.26753463146E+03  0.00000000000E+00 0.  1.
         21    1    1    2  502  501  0.68578857151E+02  0.18573991269E+02 -0.16836397898E+02  0.73017238334E+02  0.00000000000E+00 0.  1.
<mgrwt>
<rscale>  1 0.30000000E+03</rscale>
<asrwt>0</asrwt>
<pdfrwt beam="1">  1        1 0.20980128E+00 0.30000000E+03</pdfrwt>
<pdfrwt beam="2">0</pdfrwt>
<totfact> 0.92051451E+00</totfact>
</mgrwt>
</event>
<event>
 6    1  0.1904828E-004  0.3000000E+03  0.7818608E-02  0.1093470E+00
          1   -1    0    0  502    0  0.00000000000E+00  0.00000000000E+00  0.47088893553E+02  0.47088893553E+02  0.00000000000E+00 0.  1.
         13   -1    0    0    0    0 -0.00000000000E+00 -0.00000000000E+00 -0.10000000000E+04  0.10000000000E+04  0.00000000000E+00 0.  1.
    9000005    2    1    2  501    0  0.21301859463E+02  0.11669163364E+02 -0.96486919487E+03  0.10200161311E+04  0.32995515728E+03 0.  0.
         13    1    3    3    0    0 -0.47945347906E+02  0.14789246035E+03 -0.30092921324E+03  0.33871717937E+03  0.00000000000E+00 0.  1.
          1    1    3    3  501    0  0.69247207370E+02 -0.13622329699E+03 -0.66393998163E+03  0.68129895169E+03  0.00000000000E+00 0.  1.
         21    1    1    2  502  501 -0.21301859463E+02 -0.11669163364E+02  0.11958088427E+02  0.27072762494E+02  0.00000000000E+00 0. -1.
<mgrwt>
<rscale>  1 0.30000000E+03</rscale>
<asrwt>0</asrwt>
<pdfrwt beam="1">  1        1 0.17123270E+00 0.30000000E+03</pdfrwt>
<pdfrwt beam="2">0</pdfrwt>
<totfact> 0.14090528E+01</totfact>
</mgrwt>
</event>
<event>
 6    1  0.1904828E-004  0.3000000E+03  0.7818608E-02  0.1093470E+00
          1   -1    0    0  502    0  0.00000000000E+00  0.00000000000E+00  0.11634977429E+03  0.11634977429E+03  0.00000000000E+00 0.  1.
         13   -1    0    0    0    0 -0.00000000000E+00 -0.00000000000E+00 -0.10000000000E+04  0.10000000000E+04  0.00000000000E+00 0.  1.
    9000005    2    1    2  501    0 -0.11502823898E+02  0.17739739117E+03 -0.85874099573E+03  0.93684317528E+03  0.32960110431E+03 0.  0.
         13    1    3    3    0    0 -0.91521051794E+02  0.24074712060E+03 -0.48169199938E+03  0.54622565050E+03  0.00000000000E+00 0.  1.
          1    1    3    3  501    0  0.80018227897E+02 -0.63349729429E+02 -0.37704899635E+03  0.39061752478E+03  0.00000000000E+00 0.  1.
         21    1    1    2  502  501  0.11502823898E+02 -0.17739739117E+03 -0.24909229980E+02  0.17950659901E+03  0.00000000000E+00 0. -1.
<mgrwt>
<rscale>  1 0.30000000E+03</rscale>
<asrwt>0</asrwt>
<pdfrwt beam="1">  1        1 0.42309098E+00 0.30000000E+03</pdfrwt>
<pdfrwt beam="2">0</pdfrwt>
<totfact> 0.76749166E-01</totfact>
</mgrwt>
</event>
<event>
 6    1  0.1904828E-004  0.3000000E+03  0.7818608E-02  0.1093470E+00
          1   -1    0    0  502    0  0.00000000000E+00  0.00000000000E+00  0.36973885918E+02  0.36973885918E+02  0.00000000000E+00 0.  1.
         13   -1    0    0    0    0 -0.00000000000E+00 -0.00000000000E+00 -0.10000000000E+04  0.10000000000E+04  0.00000000000E+00 0.  1.
    9000005    2    1    2  501    0 -0.79282379261E+01 -0.28411908405E+02 -0.74200582014E+03  0.81399392307E+03  0.33338172743E+03 0.  0.
         13    1    3    3    0    0 -0.16553884927E+03 -0.97765638905E+01 -0.27921271530E+03  0.32474364074E+03  0.00000000000E+00 0.  1.
          3    1    3    3  501    0  0.15761061134E+03 -0.18635344515E+02 -0.46279310484E+03  0.48925028233E+03  0.00000000000E+00 0.  1.
         21    1    1    2  502  501  0.79282379261E+01  0.28411908405E+02 -0.22102029394E+03  0.22297996284E+03  0.00000000000E+00 0.  1.
<mgrwt>
<rscale>  1 0.30000000E+03</rscale>
<asrwt>0</asrwt>
<pdfrwt beam="1">  1        1 0.13445078E+00 0.30000000E+03</pdfrwt>
<pdfrwt beam="2">0</pdfrwt>
<totfact> 0.21648350E+01</totfact>
</mgrwt>
</event>
<event>
 6    1  0.1904828E-004  0.3000000E+03  0.7818608E-02  0.1093470E+00
          1   -1    0    0  502    0  0.00000000000E+00  0.00000000000E+00  0.34413048698E+02  0.34413048698E+02  0.00000000000E+00 0.  1.
         13   -1    0    0    0    0 -0.00000000000E+00 -0.00000000000E+00 -0.10000000000E+04  0.10000000000E+04  0.00000000000E+00 0.  1.
    9000005    2    1    2  501    0 -0.80356691615E+01 -0.26770718037E+02 -0.93116696754E+03  0.99007369141E+03  0.33525027912E+03 0.  0.
         13    1    3    3    0    0  0.14536869367E+03 -0.86179446394E+02 -0.40673885204E+03  0.44044914331E+03  0.00000000000E+00 0.  1.
          3    1    3    3  501    0 -0.15340436284E+03  0.59408728357E+02 -0.52442811550E+03  0.54962454810E+03  0.00000000000E+00 0.  1.
         21    1    1    2  502  501  0.80356691615E+01  0.26770718037E+02 -0.34419983758E+02  0.44339357291E+02  0.00000000000E+00 0.  1.
<mgrwt>
<rscale>  1 0.30000000E+03</rscale>
<asrwt>0</asrwt>
<pdfrwt beam="1">  1        1 0.12513862E+00 0.30000000E+03</pdfrwt>
<pdfrwt beam="2">0</pdfrwt>
<totfact> 0.24330865E+01</totfact>
</mgrwt>
</event>
<event>
 6    1  0.1904828E-004  0.3000000E+03  0.7818608E-02  0.1093470E+00
          3   -1    0    0  502    0  0.00000000000E+00  0.00000000000E+00  0.31302557079E+02  0.31302557079E+02  0.00000000000E+00 0.  1.
         13   -1    0    0    0    0 -0.00000000000E+00 -0.00000000000E+00 -0.10000000000E+04  0.10000000000E+04  0.00000000000E+00 0.  1.
    9000005    2    1    2  501    0  0.12451971071E+02  0.25598215668E+01 -0.95762181646E+03  0.10144421368E+04  0.33450216937E+03 0.  0.
         13    1    3    3    0    0 -0.33136409847E+02 -0.16064890726E+03 -0.42717513394E+03  0.45758571669E+03  0.00000000000E+00 0.  1.
          3    1    3    3  501    0  0.45588380918E+02  0.16320872882E+03 -0.53044668252E+03  0.55685642012E+03  0.00000000000E+00 0.  1.
         21    1    1    2  502  501 -0.12451971071E+02 -0.25598215668E+01 -0.11075626461E+02  0.16860420265E+02  0.00000000000E+00 0.  1.
<mgrwt>
<rscale>  1 0.30000000E+03</rscale>
<asrwt>0</asrwt>
<pdfrwt beam="1">  1        3 0.11382772E+00 0.30000000E+03</pdfrwt>
<pdfrwt beam="2">0</pdfrwt>
<totfact> 0.27250359E+00</totfact>
</mgrwt>
</event>
<event>
 6    1  0.1904828E-004  0.3000000E+03  0.7818608E-02  0.1093470E+00
          1   -1    0    0  502    0  0.00000000000E+00  0.00000000000E+00  0.52919627297E+02  0.52919627297E+02  0.00000000000E+00 0.  1.
         13   -1    0    0    0    0 -0.00000000000E+00 -0.00000000000E+00 -0.10000000000E+04  0.10000000000E+04  0.00000000000E+00 0.  1.
    9000005    2    1    2  501    0  0.14292095615E+02 -0.27654789307E+01 -0.97698362138E+03  0.10196613027E+04  0.29154804749E+03 0.  0.
         13    1    3    3    0    0 -0.13523974623E+02  0.93834514955E+01 -0.98742500499E+03  0.98756219426E+03  0.00000000000E+00 0.  1.
          1    1    3    3  501    0  0.27816070238E+02 -0.12148930426E+02  0.10441383608E+02  0.32099108487E+02  0.00000000000E+00 0.  1.
         21    1    1    2  502  501 -0.14292095615E+02  0.27654789307E+01  0.29903248676E+02  0.33258324554E+02  0.00000000000E+00 0.  1.
<mgrwt>
<rscale>  1 0.30000000E+03</rscale>
<asrwt>0</asrwt>
<pdfrwt beam="1">  1        1 0.19243541E+00 0.30000000E+03</pdfrwt>
<pdfrwt beam="2">0</pdfrwt>
<totfact> 0.11130667E+01</totfact>
</mgrwt>
</event>
<event>
 6    1  0.1904828E-004  0.3000000E+03  0.7818608E-02  0.1093470E+00
          1   -1    0    0  502    0  0.00000000000E+00  0.00000000000E+00  0.31833333976E+02  0.31833333976E+02  0.00000000000E+00 0.  1.
         13   -1    0    0    0    0 -0.00000000000E+00 -0.00000000000E+00 -0.10000000000E+04  0.10000000000E+04  0.00000000000E+00 0.  1.
    9000005    2    1    2  501    0 -0.12047784159E+02 -0.40302143893E+01 -0.94010162656E+03  0.10010268708E+04  0.34366020448E+03 0.  0.
         13    1    3    3    0    0  0.44764616559E+01  0.67781077739E+02 -0.92284968882E+03  0.92534634670E+03  0.00000000000E+00 0.  1.
          3    1    3    3  501    0 -0.16524245815E+02 -0.71811292128E+02 -0.17251937742E+02  0.75680524131E+02  0.00000000000E+00 0.  1.
         21    1    1    2  502  501  0.12047784159E+02  0.40302143893E+01 -0.28065039466E+02  0.30806463143E+02  0.00000000000E+00 0.  1.
<mgrwt>
<rscale>  1 0.30000000E+03</rscale>
<asrwt>0</asrwt>
<pdfrwt beam="1">  1        1 0.11575782E+00 0.30000000E+03</pdfrwt>
<pdfrwt beam="2">0</pdfrwt>
<totfact> 0.27487368E+01</totfact>
</mgrwt>
</event>
<event>
 6    1  0.1904828E-004  0.3000000E+03  0.7818608E-02  0.1093470E+00
          1   -1    0    0  502    0  0.00000000000E+00  0.00000000000E+00  0.27650591550E+02  0.27650591550E+02  0.00000000000E+00 0.  1.
         13   -1    0    0    0    0 -0.00000000000E+00 -0.00000000000E+00 -0.10000000000E+04  0.10000000000E+04  0.00000000000E+00 0.  1.
    9000005    2    1    2  501    0  0.14609555324E+02  0.94778037133E+01 -0.94469660599E+03  0.99497115836E+03  0.31178944934E+03 0.  0.
         13    1    3    3    0    0 -0.19579090960E+02  0.15805196442E+03 -0.51234871107E+03  0.53653048934E+03  0.00000000000E+00 0.  1.
          1    1    3    3  501    0  0.34188646283E+02 -0.14857416070E+03 -0.43234789492E+03  0.45844066902E+03  0.00000000000E+00 0.  1.
         21    1    1    2  502  501 -0.14609555324E+02 -0.94778037133E+01 -0.27652802457E+02  0.32679433191E+02  0.00000000000E+00 0.  1.
<mgrwt>
<rscale>  1 0.30000000E+03</rscale>
<asrwt>0</asrwt>
<pdfrwt beam="1">  1        1 0.10054782E+00 0.30000000E+03</pdfrwt>
<pdfrwt beam="2">0</pdfrwt>
<totfact> 0.33954410E+01</totfact>
</mgrwt>
</event>
