<event>
 6    1  0.2885140E-003  0.6334691E+03  0.7818608E-02  0.9838302E-01
          1   -1    0    0  502    0  0.00000000000E+00  0.00000000000E+00  0.10036925043E+03  0.10036925043E+03  0.00000000000E+00 0.  1.
         13   -1    0    0    0    0 -0.00000000000E+00 -0.00000000000E+00 -0.10000000000E+04  0.10000000000E+04  0.00000000000E+00 0.  1.
    9000005    2    1    2  501    0 -0.26802573682E-02 -0.26180524723E-02 -0.89967915605E+03  0.11003206992E+04  0.63346906568E+03 0.  0.
         13    1    3    3    0    0 -0.29460831871E+03  0.56917685705E+02 -0.27366229456E+03  0.40610926591E+03  0.00000000000E+00 0.  1.
          1    1    3    3  501    0  0.29460563845E+03 -0.56920303757E+02 -0.62601686149E+03  0.69421143325E+03  0.00000000000E+00 0.  1.
         21    1    1    2  502  501  0.26802573682E-02  0.26180524723E-02  0.48406473709E-01  0.48551258225E-01  0.00000000000E+00 0.  1.
<mgrwt>
<rscale>  1 0.63346907E+03</rscale>
<asrwt>0</asrwt>
<pdfrwt beam="1">  1        1 0.36497986E+00 0.63346907E+03</pdfrwt>
<pdfrwt beam="2">0</pdfrwt>
<totfact> 0.19162670E+00</totfact>
</mgrwt>
</event>
<event>
 6    1  0.2885140E-003  0.6444954E+03  0.7818608E-02  0.9817163E-01
          1   -1    0    0  502    0  0.00000000000E+00  0.00000000000E+00  0.10387008845E+03  0.10387008845E+03  0.00000000000E+00 0.  1.
         13   -1    0    0    0    0 -0.00000000000E+00 -0.00000000000E+00 -0.10000000000E+04  0.10000000000E+04  0.00000000000E+00 0.  1.
    9000005    2    1    2  501    0  0.55018837473E-01 -0.22225835531E-01 -0.89611309418E+03  0.11038084128E+04  0.64449540813E+03 0.  0.
         13    1    3    3    0    0  0.25434511159E+03  0.42580071349E+02 -0.77908741311E+03  0.82065930540E+03  0.00000000000E+00 0.  1.
          1    1    3    3  501    0 -0.25429009275E+03 -0.42602297185E+02 -0.11702568107E+03  0.28314910741E+03  0.00000000000E+00 0.  1.
         21    1    1    2  502  501 -0.55018837473E-01  0.22225835531E-01 -0.16817370384E-01  0.61675636912E-01  0.00000000000E+00 0. -1.
<mgrwt>
<rscale>  1 0.64449541E+03</rscale>
<asrwt>0</asrwt>
<pdfrwt beam="1">  1        1 0.37771021E+00 0.64449541E+03</pdfrwt>
<pdfrwt beam="2">0</pdfrwt>
<totfact> 0.16812721E+00</totfact>
</mgrwt>
</event>
<event>
 6    1  0.2885140E-003  0.6473803E+03  0.7818608E-02  0.9811707E-01
          1   -1    0    0  502    0  0.00000000000E+00  0.00000000000E+00  0.10555043466E+03  0.10555043466E+03  0.00000000000E+00 0.  1.
         13   -1    0    0    0    0 -0.00000000000E+00 -0.00000000000E+00 -0.10000000000E+04  0.10000000000E+04  0.00000000000E+00 0.  1.
    9000005    2    1    2  501    0 -0.12515273527E+00  0.82823825946E-01 -0.89521665346E+03  0.11047688036E+04  0.64738028249E+03 0.  0.
         13    1    3    3    0    0  0.97129292809E+02  0.17921664072E+03 -0.18515221103E+02  0.20468394476E+03  0.00000000000E+00 0.  1.
          1    1    3    3  501    0 -0.97254445545E+02 -0.17913381689E+03 -0.87670143236E+03  0.90008485880E+03  0.00000000000E+00 0.  1.
         21    1    1    2  502  501  0.12515273527E+00 -0.82823825946E-01  0.76708812579E+00  0.78163110610E+00  0.00000000000E+00 0. -1.
<mgrwt>
<rscale>  1 0.64738030E+03</rscale>
<asrwt>0</asrwt>
<pdfrwt beam="1">  1        1 0.38382057E+00 0.64738030E+03</pdfrwt>
<pdfrwt beam="2">0</pdfrwt>
<totfact> 0.15792018E+00</totfact>
</mgrwt>
</event>
<event>
 6    1  0.2885140E-003  0.6503028E+03  0.7818608E-02  0.9806211E-01
          1   -1    0    0  502    0  0.00000000000E+00  0.00000000000E+00  0.10575142301E+03  0.10575142301E+03  0.00000000000E+00 0.  1.
         13   -1    0    0    0    0 -0.00000000000E+00 -0.00000000000E+00 -0.10000000000E+04  0.10000000000E+04  0.00000000000E+00 0.  1.
    9000005    2    1    2  501    0  0.11707743798E-01  0.34235763825E-02 -0.89427510718E+03  0.11057222230E+04  0.65030275017E+03 0.  0.
         13    1    3    3    0    0 -0.98856166618E+02  0.12701194246E+03 -0.92751190402E+03  0.94137288431E+03  0.00000000000E+00 0.  1.
          3    1    3    3  501    0  0.98867874362E+02 -0.12700851889E+03  0.33236796844E+02  0.16434933865E+03  0.00000000000E+00 0.  1.
         21    1    1    2  502  501 -0.11707743798E-01 -0.34235763825E-02  0.26530192088E-01  0.29200055348E-01  0.00000000000E+00 0.  1.
<mgrwt>
<rscale>  1 0.65030275E+03</rscale>
<asrwt>0</asrwt>
<pdfrwt beam="1">  1        1 0.38455144E+00 0.65030275E+03</pdfrwt>
<pdfrwt beam="2">0</pdfrwt>
<totfact> 0.15666494E+00</totfact>
</mgrwt>
</event>
<event>
 6    1  0.2885140E-003  0.6003016E+03  0.7818608E-02  0.9904780E-01
          1   -1    0    0  502    0  0.00000000000E+00  0.00000000000E+00  0.90090662381E+02  0.90090662381E+02  0.00000000000E+00 0.  1.
         13   -1    0    0    0    0 -0.00000000000E+00 -0.00000000000E+00 -0.10000000000E+04  0.10000000000E+04  0.00000000000E+00 0.  1.
    9000005    2    1    2  501    0 -0.55507193608E-04 -0.40043744889E-05 -0.90990947962E+03  0.10900905099E+04  0.60030163969E+03 0.  0.
         13    1    3    3    0    0 -0.39340226144E+02  0.24428190967E+03 -0.14641544485E+03  0.28750441262E+03  0.00000000000E+00 0.  1.
          1    1    3    3  501    0  0.39340170637E+02 -0.24428191367E+03 -0.76349403477E+03  0.80258609725E+03  0.00000000000E+00 0.  1.
         21    1    1    2  502  501  0.55507193610E-04  0.40043745125E-05  0.14199654248E-03  0.15251262779E-03  0.00000000000E+00 0. -1.
<mgrwt>
<rscale>  1 0.60030164E+03</rscale>
<asrwt>0</asrwt>
<pdfrwt beam="1">  1        1 0.32760310E+00 0.60030164E+03</pdfrwt>
<pdfrwt beam="2">0</pdfrwt>
<totfact> 0.28037115E+00</totfact>
</mgrwt>
</event>
<event>
 6    1  0.2885140E-003  0.6385775E+03  0.7818608E-02  0.9828452E-01
          1   -1    0    0  502    0  0.00000000000E+00  0.00000000000E+00  0.10311846308E+03  0.10311846308E+03  0.00000000000E+00 0.  1.
         13   -1    0    0    0    0 -0.00000000000E+00 -0.00000000000E+00 -0.10000000000E+04  0.10000000000E+04  0.00000000000E+00 0.  1.
    9000005    2    1    2  501    0  0.28421140834E-01  0.15824255817E+00 -0.89804863138E+03  0.11019403468E+04  0.63857744851E+03 0.  0.
         13    1    3    3    0    0  0.37377810600E+02 -0.50543516669E+02 -0.98917574913E+03  0.99117123166E+03  0.00000000000E+00 0.  1.
          1    1    3    3  501    0 -0.37349389459E+02  0.50701759227E+02  0.91127117748E+02  0.11076911515E+03  0.00000000000E+00 0.  1.
         21    1    1    2  502  501 -0.28421140834E-01 -0.15824255817E+00  0.11670944667E+01  0.11781162772E+01  0.00000000000E+00 0.  1.
<mgrwt>
<rscale>  1 0.63857747E+03</rscale>
<asrwt>0</asrwt>
<pdfrwt beam="1">  1        1 0.37497702E+00 0.63857747E+03</pdfrwt>
<pdfrwt beam="2">0</pdfrwt>
<totfact> 0.17304043E+00</totfact>
</mgrwt>
</event>
<event>
 6    1  0.2885140E-003  0.6721497E+03  0.7818608E-02  0.9766082E-01
          1   -1    0    0  502    0  0.00000000000E+00  0.00000000000E+00  0.11359080647E+03  0.11359080647E+03  0.00000000000E+00 0.  1.
         13   -1    0    0    0    0 -0.00000000000E+00 -0.00000000000E+00 -0.10000000000E+04  0.10000000000E+04  0.00000000000E+00 0.  1.
    9000005    2    1    2  501    0 -0.14530680047E-01 -0.14123538617E-01 -0.88705353241E+03  0.11129461490E+04  0.67214965662E+03 0.  0.
         13    1    3    3    0    0 -0.28626468768E+03  0.17437815800E+02 -0.73364788457E+03  0.78771236334E+03  0.00000000000E+00 0.  1.
          3    1    3    3  501    0  0.28625015700E+03 -0.17451939338E+02 -0.15340564784E+03  0.32523378570E+03  0.00000000000E+00 0.  1.
         21    1    1    2  502  501  0.14530680047E-01  0.14123538617E-01  0.64433887941E+00  0.64465743346E+00  0.00000000000E+00 0. -1.
<mgrwt>
<rscale>  1 0.67214966E+03</rscale>
<asrwt>0</asrwt>
<pdfrwt beam="1">  1        1 0.41305835E+00 0.67214966E+03</pdfrwt>
<pdfrwt beam="2">0</pdfrwt>
<totfact> 0.11645180E+00</totfact>
</mgrwt>
</event>
<event>
 6    1  0.2885140E-003  0.6508782E+03  0.7818608E-02  0.9805133E-01
          1   -1    0    0  502    0  0.00000000000E+00  0.00000000000E+00  0.10591065704E+03  0.10591065704E+03  0.00000000000E+00 0.  1.
         13   -1    0    0    0    0 -0.00000000000E+00 -0.00000000000E+00 -0.10000000000E+04  0.10000000000E+04  0.00000000000E+00 0.  1.
    9000005    2    1    2  501    0 -0.16045492345E-04  0.47266124568E-04 -0.89408937026E+03  0.11059106001E+04  0.65087821711E+03 0.  0.
         13    1    3    3    0    0 -0.15020716491E+03 -0.78792418810E+02 -0.91895621599E+03  0.93447898026E+03  0.00000000000E+00 0.  1.
          3    1    3    3  501    0  0.15020714886E+03  0.78792466076E+02  0.24866845726E+02  0.17143161989E+03  0.00000000000E+00 0.  1.
         21    1    1    2  502  501  0.16045492357E-04 -0.47266124569E-04  0.27302130339E-04  0.56894206013E-04  0.00000000000E+00 0.  1.
<mgrwt>
<rscale>  1 0.65087822E+03</rscale>
<asrwt>0</asrwt>
<pdfrwt beam="1">  1        1 0.38513047E+00 0.65087822E+03</pdfrwt>
<pdfrwt beam="2">0</pdfrwt>
<totfact> 0.15572727E+00</totfact>
</mgrwt>
</event>
<event>
 6    1  0.2885140E-003  0.6713269E+03  0.7818608E-02  0.9767564E-01
          1   -1    0    0  502    0  0.00000000000E+00  0.00000000000E+00  0.11281290212E+03  0.11281290212E+03  0.00000000000E+00 0.  1.
         13   -1    0    0    0    0 -0.00000000000E+00 -0.00000000000E+00 -0.10000000000E+04  0.10000000000E+04  0.00000000000E+00 0.  1.
    9000005    2    1    2  501    0 -0.39824106805E-03 -0.51867051257E-02 -0.88732998417E+03  0.11126699212E+04  0.67132693424E+03 0.  0.
         13    1    3    3    0    0 -0.96076119315E+02  0.16557120839E+03  0.13329704374E+02  0.19189092414E+03  0.00000000000E+00 0.  1.
          1    1    3    3  501    0  0.96075721074E+02 -0.16557639509E+03 -0.90065968855E+03  0.92077899703E+03  0.00000000000E+00 0.  1.
         21    1    1    2  502  501  0.39824106805E-03  0.51867051257E-02  0.14288628761E+00  0.14298094870E+00  0.00000000000E+00 0. -1.
<mgrwt>
<rscale>  1 0.67132693E+03</rscale>
<asrwt>0</asrwt>
<pdfrwt beam="1">  1        1 0.41022960E+00 0.67132693E+03</pdfrwt>
<pdfrwt beam="2">0</pdfrwt>
<totfact> 0.11992670E+00</totfact>
</mgrwt>
</event>
<event>
 6    1  0.2885140E-003  0.6543292E+03  0.7818608E-02  0.9798690E-01
          1   -1    0    0  502    0  0.00000000000E+00  0.00000000000E+00  0.13592497481E+03  0.13592497481E+03  0.00000000000E+00 0.  1.
         13   -1    0    0    0    0 -0.00000000000E+00 -0.00000000000E+00 -0.10000000000E+04  0.10000000000E+04  0.00000000000E+00 0.  1.
    9000005    2    1    2  501    0  0.12913377795E+01 -0.13873355933E+01 -0.89292892012E+03  0.11070088979E+04  0.65432641036E+03 0.  0.
         13    1    3    3    0    0 -0.26632309681E+03 -0.10102474156E+03 -0.71724087520E+03  0.77173082313E+03  0.00000000000E+00 0.  1.
          1    1    3    3  501    0  0.26761443459E+03  0.99637405964E+02 -0.17568804492E+03  0.33527807474E+03  0.00000000000E+00 0.  1.
         21    1    1    2  502  501 -0.12913377795E+01  0.13873355933E+01  0.28853894938E+02  0.28916076953E+02  0.00000000000E+00 0. -1.
<mgrwt>
<rscale>  1 0.65432916E+03</rscale>
<asrwt>0</asrwt>
<pdfrwt beam="1">  1        1 0.49427368E+00 0.65432916E+03</pdfrwt>
<pdfrwt beam="2">0</pdfrwt>
<totfact> 0.49207060E-01</totfact>
</mgrwt>
</event>
<event>
 6    1  0.2885140E-003  0.6505993E+03  0.7818608E-02  0.9805655E-01
          1   -1    0    0  502    0  0.00000000000E+00  0.00000000000E+00  0.10689631687E+03  0.10689631687E+03  0.00000000000E+00 0.  1.
         13   -1    0    0    0    0 -0.00000000000E+00 -0.00000000000E+00 -0.10000000000E+04  0.10000000000E+04  0.00000000000E+00 0.  1.
    9000005    2    1    2  501    0 -0.10212218659E+01  0.56688221600E+00 -0.89381810196E+03  0.11055271405E+04  0.65059825918E+03 0.  0.
         13    1    3    3    0    0  0.23682941426E+03  0.18734245827E+03 -0.65122458986E+03  0.71782925168E+03  0.00000000000E+00 0.  1.
          3    1    3    3  501    0 -0.23785063613E+03 -0.18677557606E+03 -0.24259351210E+03  0.38769788887E+03  0.00000000000E+00 0.  1.
         21    1    1    2  502  501  0.10212218659E+01 -0.56688221600E+00  0.71441883338E+00  0.13691763275E+01  0.00000000000E+00 0.  1.
<mgrwt>
<rscale>  1 0.65059931E+03</rscale>
<asrwt>0</asrwt>
<pdfrwt beam="1">  1        1 0.38871470E+00 0.65059931E+03</pdfrwt>
<pdfrwt beam="2">0</pdfrwt>
<totfact> 0.15014757E+00</totfact>
</mgrwt>
</event>
<event>
 6    1  0.2885140E-003  0.6554680E+03  0.7818608E-02  0.9796573E-01
          1   -1    0    0  502    0  0.00000000000E+00  0.00000000000E+00  0.10740969590E+03  0.10740969590E+03  0.00000000000E+00 0.  1.
         13   -1    0    0    0    0 -0.00000000000E+00 -0.00000000000E+00 -0.10000000000E+04  0.10000000000E+04  0.00000000000E+00 0.  1.
    9000005    2    1    2  501    0  0.66571026878E-05  0.94627870908E-05 -0.89259040900E+03  0.11074095904E+04  0.65546804850E+03 0.  0.
         13    1    3    3    0    0 -0.19800492597E+03  0.25783765568E+03 -0.51643231087E+03  0.61023646163E+03  0.00000000000E+00 0.  1.
          3    1    3    3  501    0  0.19800493263E+03 -0.25783764621E+03 -0.37615809812E+03  0.49717312873E+03  0.00000000000E+00 0.  1.
         21    1    1    2  502  501 -0.66571027012E-05 -0.94627871028E-05  0.10489702468E-03  0.10553315660E-03  0.00000000000E+00 0.  1.
<mgrwt>
<rscale>  1 0.65546805E+03</rscale>
<asrwt>0</asrwt>
<pdfrwt beam="1">  1        1 0.39058154E+00 0.65546805E+03</pdfrwt>
<pdfrwt beam="2">0</pdfrwt>
<totfact> 0.14717993E+00</totfact>
</mgrwt>
</event>
<event>
 6    1  0.2885140E-003  0.6511367E+03  0.7818608E-02  0.9804649E-01
          1   -1    0    0  502    0  0.00000000000E+00  0.00000000000E+00  0.10602984237E+03  0.10602984237E+03  0.00000000000E+00 0.  1.
         13   -1    0    0    0    0 -0.00000000000E+00 -0.00000000000E+00 -0.10000000000E+04  0.10000000000E+04  0.00000000000E+00 0.  1.
    9000005    2    1    2  501    0  0.33265910000E-02  0.12991911137E-02 -0.89400514304E+03  0.11059946752E+04  0.65113671811E+03 0.  0.
         13    1    3    3    0    0 -0.98543954941E+02  0.28912875319E+03 -0.63833363662E+03  0.70765540952E+03  0.00000000000E+00 0.  1.
          1    1    3    3  501    0  0.98547281532E+02 -0.28912745400E+03 -0.25567150642E+03  0.39833926564E+03  0.00000000000E+00 0.  1.
         21    1    1    2  502  501 -0.33265910000E-02 -0.12991911137E-02  0.34985412382E-01  0.35167217472E-01  0.00000000000E+00 0. -1.
<mgrwt>
<rscale>  1 0.65113672E+03</rscale>
<asrwt>0</asrwt>
<pdfrwt beam="1">  1        1 0.38556388E+00 0.65113672E+03</pdfrwt>
<pdfrwt beam="2">0</pdfrwt>
<totfact> 0.15503386E+00</totfact>
</mgrwt>
</event>
<event>
 6    1  0.2885140E-003  0.6361108E+03  0.7818608E-02  0.9833196E-01
          1   -1    0    0  502    0  0.00000000000E+00  0.00000000000E+00  0.10275031088E+03  0.10275031088E+03  0.00000000000E+00 0.  1.
         13   -1    0    0    0    0 -0.00000000000E+00 -0.00000000000E+00 -0.10000000000E+04  0.10000000000E+04  0.00000000000E+00 0.  1.
    9000005    2    1    2  501    0  0.60804756904E-01 -0.13213522386E+00 -0.89883710032E+03  0.11011562496E+04  0.63611078598E+03 0.  0.
         13    1    3    3    0    0  0.14575188334E+03  0.27499470068E+03 -0.33629213314E+03  0.45821184589E+03  0.00000000000E+00 0.  1.
          3    1    3    3  501    0 -0.14569107859E+03 -0.27512683590E+03 -0.56254496718E+03  0.64294440375E+03  0.00000000000E+00 0.  1.
         21    1    1    2  502  501 -0.60804756904E-01  0.13213522386E+00  0.15874112031E+01  0.15940612483E+01  0.00000000000E+00 0.  1.
<mgrwt>
<rscale>  1 0.63611080E+03</rscale>
<asrwt>0</asrwt>
<pdfrwt beam="1">  1        1 0.37363828E+00 0.63611080E+03</pdfrwt>
<pdfrwt beam="2">0</pdfrwt>
<totfact> 0.17548285E+00</totfact>
</mgrwt>
</event>
<event>
 6    1  0.2885140E-003  0.6574338E+03  0.7818608E-02  0.9792929E-01
          1   -1    0    0  502    0  0.00000000000E+00  0.00000000000E+00  0.10805488580E+03  0.10805488580E+03  0.00000000000E+00 0.  1.
         13   -1    0    0    0    0 -0.00000000000E+00 -0.00000000000E+00 -0.10000000000E+04  0.10000000000E+04  0.00000000000E+00 0.  1.
    9000005    2    1    2  501    0 -0.77827440634E-04 -0.16845478854E-04 -0.89194515893E+03  0.11080547945E+04  0.65743384534E+03 0.  0.
         13    1    3    3    0    0 -0.17020311753E+03  0.26245740504E+03 -0.61620737716E+03  0.69106043320E+03  0.00000000000E+00 0.  1.
          3    1    3    3  501    0  0.17020303970E+03 -0.26245742189E+03 -0.27573778177E+03  0.41699436126E+03  0.00000000000E+00 0.  1.
         21    1    1    2  502  501  0.77827440647E-04  0.16845478897E-04  0.44730758509E-04  0.91333024880E-04  0.00000000000E+00 0.  1.
<mgrwt>
<rscale>  1 0.65743385E+03</rscale>
<asrwt>0</asrwt>
<pdfrwt beam="1">  1        1 0.39292769E+00 0.65743385E+03</pdfrwt>
<pdfrwt beam="2">0</pdfrwt>
<totfact> 0.14364006E+00</totfact>
</mgrwt>
</event>
<event>
 6    1  0.2885140E-003  0.6442972E+03  0.7818608E-02  0.9817539E-01
          1   -1    0    0  502    0  0.00000000000E+00  0.00000000000E+00  0.10379311700E+03  0.10379311700E+03  0.00000000000E+00 0.  1.
         13   -1    0    0    0    0 -0.00000000000E+00 -0.00000000000E+00 -0.10000000000E+04  0.10000000000E+04  0.00000000000E+00 0.  1.
    9000005    2    1    2  501    0 -0.81542813855E-02 -0.60070483106E-02 -0.89621812026E+03  0.11037779891E+04  0.64429723734E+03 0.  0.
         13    1    3    3    0    0  0.21507620825E+01  0.67849165978E+02 -0.98760408583E+03  0.98993432381E+03  0.00000000000E+00 0.  1.
          3    1    3    3  501    0 -0.21589163639E+01 -0.67855173026E+02  0.91385965568E+02  0.11384366530E+03  0.00000000000E+00 0.  1.
         21    1    1    2  502  501  0.81542813855E-02  0.60070483105E-02  0.11237260815E-01  0.15127886995E-01  0.00000000000E+00 0. -1.
<mgrwt>
<rscale>  1 0.64429724E+03</rscale>
<asrwt>0</asrwt>
<pdfrwt beam="1">  1        1 0.37743031E+00 0.64429724E+03</pdfrwt>
<pdfrwt beam="2">0</pdfrwt>
<totfact> 0.16861155E+00</totfact>
</mgrwt>
</event>
<event>
 6    1  0.2885140E-003  0.6334005E+03  0.7818608E-02  0.9838435E-01
          1   -1    0    0  502    0  0.00000000000E+00  0.00000000000E+00  0.10049200128E+03  0.10049200128E+03  0.00000000000E+00 0.  1.
         13   -1    0    0    0    0 -0.00000000000E+00 -0.00000000000E+00 -0.10000000000E+04  0.10000000000E+04  0.00000000000E+00 0.  1.
    9000005    2    1    2  501    0 -0.55013917069E-01 -0.22889183010E-01 -0.89969586938E+03  0.11002949078E+04  0.63340052355E+03 0.  0.
         13    1    3    3    0    0  0.80789434794E+02  0.30602325720E+03 -0.46807770891E+03  0.56504328002E+03  0.00000000000E+00 0.  1.
          3    1    3    3  501    0 -0.80844448711E+02 -0.30604614639E+03 -0.43161816048E+03  0.53525162779E+03  0.00000000000E+00 0.  1.
         21    1    1    2  502  501  0.55013917069E-01  0.22889183010E-01  0.18787066512E+00  0.19709346154E+00  0.00000000000E+00 0. -1.
<mgrwt>
<rscale>  1 0.63340053E+03</rscale>
<asrwt>0</asrwt>
<pdfrwt beam="1">  1        1 0.36542623E+00 0.63340053E+03</pdfrwt>
<pdfrwt beam="2">0</pdfrwt>
<totfact> 0.19076782E+00</totfact>
</mgrwt>
</event>
<event>
 6    1  0.2885140E-003  0.6484767E+03  0.7818608E-02  0.9809642E-01
          1   -1    0    0  502    0  0.00000000000E+00  0.00000000000E+00  0.10521172524E+03  0.10521172524E+03  0.00000000000E+00 0.  1.
         13   -1    0    0    0    0 -0.00000000000E+00 -0.00000000000E+00 -0.10000000000E+04  0.10000000000E+04  0.00000000000E+00 0.  1.
    9000005    2    1    2  501    0  0.24050225823E+00 -0.69257066094E-01 -0.89442724340E+03  0.11047724286E+04  0.64847664773E+03 0.  0.
         13    1    3    3    0    0  0.18723615313E+03  0.21991104734E+03 -0.19607180226E+03  0.34908795084E+03  0.00000000000E+00 0.  1.
          1    1    3    3  501    0 -0.18699565087E+03 -0.21998030441E+03 -0.69835544115E+03  0.75568447778E+03  0.00000000000E+00 0.  1.
         21    1    1    2  502  501 -0.24050225823E+00  0.69257066094E-01 -0.36103135903E+00  0.43929661917E+00  0.00000000000E+00 0. -1.
<mgrwt>
<rscale>  1 0.64847670E+03</rscale>
<asrwt>0</asrwt>
<pdfrwt beam="1">  1        1 0.38258890E+00 0.64847670E+03</pdfrwt>
<pdfrwt beam="2">0</pdfrwt>
<totfact> 0.15987943E+00</totfact>
</mgrwt>
</event>
<event>
 6    1  0.2885140E-003  0.6766551E+03  0.7818608E-02  0.9758009E-01
          1   -1    0    0  502    0  0.00000000000E+00  0.00000000000E+00  0.11446752023E+03  0.11446752023E+03  0.00000000000E+00 0.  1.
         13   -1    0    0    0    0 -0.00000000000E+00 -0.00000000000E+00 -0.10000000000E+04  0.10000000000E+04  0.00000000000E+00 0.  1.
    9000005    2    1    2  501    0 -0.25153339590E-03  0.14609437100E-02 -0.88553414308E+03  0.11144652922E+04  0.67665513291E+03 0.  0.
         13    1    3    3    0    0 -0.56053937546E+02 -0.27544625500E+03 -0.13265157274E+03  0.31082008149E+03  0.00000000000E+00 0.  1.
          1    1    3    3  501    0  0.56053686012E+02  0.27544771594E+03 -0.75288257034E+03  0.80364521069E+03  0.00000000000E+00 0.  1.
         21    1    1    2  502  501  0.25153339590E-03 -0.14609437100E-02  0.16633069278E-02  0.22280519538E-02  0.00000000000E+00 0. -1.
<mgrwt>
<rscale>  1 0.67665513E+03</rscale>
<asrwt>0</asrwt>
<pdfrwt beam="1">  1        1 0.41624641E+00 0.67665513E+03</pdfrwt>
<pdfrwt beam="2">0</pdfrwt>
<totfact> 0.11257253E+00</totfact>
</mgrwt>
</event>
<event>
 6    1  0.2885140E-003  0.6545999E+03  0.7818608E-02  0.9798186E-01
          1   -1    0    0  502    0  0.00000000000E+00  0.00000000000E+00  0.10764571292E+03  0.10764571292E+03  0.00000000000E+00 0.  1.
         13   -1    0    0    0    0 -0.00000000000E+00 -0.00000000000E+00 -0.10000000000E+04  0.10000000000E+04  0.00000000000E+00 0.  1.
    9000005    2    1    2  501    0  0.53580139670E-02  0.58826184673E-02 -0.89287470035E+03  0.11071252388E+04  0.65459992655E+03 0.  0.
         13    1    3    3    0    0 -0.11973952296E+03  0.79298812574E+02  0.50987242560E+02  0.15239932394E+03  0.00000000000E+00 0.  1.
          1    1    3    3  501    0  0.11974488097E+03 -0.79292929955E+02 -0.94386194291E+03  0.95472591488E+03  0.00000000000E+00 0.  1.
         21    1    1    2  502  501 -0.53580139670E-02 -0.58826184673E-02  0.52041327315E+00  0.52047409963E+00  0.00000000000E+00 0.  1.
<mgrwt>
<rscale>  1 0.65459993E+03</rscale>
<asrwt>0</asrwt>
<pdfrwt beam="1">  1        1 0.39143978E+00 0.65459993E+03</pdfrwt>
<pdfrwt beam="2">0</pdfrwt>
<totfact> 0.14591855E+00</totfact>
</mgrwt>
</event>
<event>
 6    1  0.2885140E-003  0.6503078E+03  0.7818608E-02  0.9806202E-01
          1   -1    0    0  502    0  0.00000000000E+00  0.00000000000E+00  0.10695761055E+03  0.10695761055E+03  0.00000000000E+00 0.  1.
         13   -1    0    0    0    0 -0.00000000000E+00 -0.00000000000E+00 -0.10000000000E+04  0.10000000000E+04  0.00000000000E+00 0.  1.
    9000005    2    1    2  501    0 -0.28000957454E+00 -0.86744705807E-01 -0.89425562801E+03  0.11057094608E+04  0.65030777139E+03 0.  0.
         13    1    3    3    0    0  0.28033783244E+03 -0.11452476833E+03 -0.24615271331E+03  0.39025168947E+03  0.00000000000E+00 0.  1.
          1    1    3    3  501    0 -0.28061784202E+03  0.11443802363E+03 -0.64810291470E+03  0.71545777133E+03  0.00000000000E+00 0.  1.
         21    1    1    2  502  501  0.28000957454E+00  0.86744705807E-01  0.12132385591E+01  0.12481497535E+01  0.00000000000E+00 0.  1.
<mgrwt>
<rscale>  1 0.65030784E+03</rscale>
<asrwt>0</asrwt>
<pdfrwt beam="1">  1        1 0.38893759E+00 0.65030784E+03</pdfrwt>
<pdfrwt beam="2">0</pdfrwt>
<totfact> 0.14981460E+00</totfact>
</mgrwt>
</event>
<event>
 6    1  0.2885140E-003  0.6507949E+03  0.7818608E-02  0.9805289E-01
          1   -1    0    0  502    0  0.00000000000E+00  0.00000000000E+00  0.10699724587E+03  0.10699724587E+03  0.00000000000E+00 0.  1.
         13   -1    0    0    0    0 -0.00000000000E+00 -0.00000000000E+00 -0.10000000000E+04  0.10000000000E+04  0.00000000000E+00 0.  1.
    9000005    2    1    2  501    0 -0.12951438454E-02 -0.29179549491E-01 -0.89411627241E+03  0.11058833446E+04  0.65079494649E+03 0.  0.
         13    1    3    3    0    0  0.23934983666E+03 -0.14511065063E+03 -0.16505750444E+03  0.32494526463E+03  0.00000000000E+00 0.  1.
          1    1    3    3  501    0 -0.23935113181E+03  0.14508147108E+03 -0.72905876797E+03  0.78093807994E+03  0.00000000000E+00 0.  1.
         21    1    1    2  502  501  0.12951438454E-02  0.29179549491E-01  0.11135182819E+01  0.11139012916E+01  0.00000000000E+00 0.  1.
<mgrwt>
<rscale>  1 0.65079495E+03</rscale>
<asrwt>0</asrwt>
<pdfrwt beam="1">  1        1 0.38908171E+00 0.65079495E+03</pdfrwt>
<pdfrwt beam="2">0</pdfrwt>
<totfact> 0.14958085E+00</totfact>
</mgrwt>
</event>
<event>
 6    1  0.2885140E-003  0.5783612E+03  0.7818608E-02  0.9951345E-01
          1   -1    0    0  502    0  0.00000000000E+00  0.00000000000E+00  0.83629237325E+02  0.83629237325E+02  0.00000000000E+00 0.  1.
         13   -1    0    0    0    0 -0.00000000000E+00 -0.00000000000E+00 -0.10000000000E+04  0.10000000000E+04  0.00000000000E+00 0.  1.
    9000005    2    1    2  501    0  0.12963318557E-03 -0.15902973461E-03 -0.91637457552E+03  0.10836254190E+04  0.57836120718E+03 0.  0.
         13    1    3    3    0    0 -0.19157229114E+03  0.76839780121E+01 -0.52575147975E+02  0.19880425659E+03  0.00000000000E+00 0.  1.
          3    1    3    3  501    0  0.19157242078E+03 -0.76841370418E+01 -0.86379942754E+03  0.88482116238E+03  0.00000000000E+00 0.  1.
         21    1    1    2  502  501 -0.12963318557E-03  0.15902973461E-03  0.38128444897E-02  0.38183606852E-02  0.00000000000E+00 0. -1.
<mgrwt>
<rscale>  1 0.57836121E+03</rscale>
<asrwt>0</asrwt>
<pdfrwt beam="1">  1        1 0.30410696E+00 0.57836121E+03</pdfrwt>
<pdfrwt beam="2">0</pdfrwt>
<totfact> 0.35559401E+00</totfact>
</mgrwt>
</event>
<event>
 6    1  0.2885140E-003  0.6521353E+03  0.7818608E-02  0.9802781E-01
          1   -1    0    0  502    0  0.00000000000E+00  0.00000000000E+00  0.10632017966E+03  0.10632017966E+03  0.00000000000E+00 0.  1.
         13   -1    0    0    0    0 -0.00000000000E+00 -0.00000000000E+00 -0.10000000000E+04  0.10000000000E+04  0.00000000000E+00 0.  1.
    9000005    2    1    2  501    0 -0.71236300045E-04 -0.30300682937E-04 -0.89367984042E+03  0.11063200997E+04  0.65213534317E+03 0.  0.
         13    1    3    3    0    0  0.19100277222E+03 -0.22784608406E+03 -0.21971580014E+03  0.36969031615E+03  0.00000000000E+00 0.  1.
          1    1    3    3  501    0 -0.19100284346E+03  0.22784605376E+03 -0.67396404027E+03  0.73662978354E+03  0.00000000000E+00 0.  1.
         21    1    1    2  502  501  0.71236300055E-04  0.30300682928E-04  0.20078030405E-04  0.79974177935E-04  0.00000000000E+00 0.  1.
<mgrwt>
<rscale>  1 0.65213534E+03</rscale>
<asrwt>0</asrwt>
<pdfrwt beam="1">  1        1 0.38661965E+00 0.65213534E+03</pdfrwt>
<pdfrwt beam="2">0</pdfrwt>
<totfact> 0.15334649E+00</totfact>
</mgrwt>
</event>
<event>
 6    1  0.2885140E-003  0.6513268E+03  0.7818608E-02  0.9804293E-01
          3   -1    0    0  502    0  0.00000000000E+00  0.00000000000E+00  0.10606639539E+03  0.10606639539E+03  0.00000000000E+00 0.  1.
         13   -1    0    0    0    0 -0.00000000000E+00 -0.00000000000E+00 -0.10000000000E+04  0.10000000000E+04  0.00000000000E+00 0.  1.
    9000005    2    1    2  501    0  0.15695498776E-03  0.60963751991E-04 -0.89394333628E+03  0.11060566623E+04  0.65132683935E+03 0.  0.
         13    1    3    3    0    0  0.77387524115E+02 -0.31633495469E+03 -0.44723103757E+03  0.55323795370E+03  0.00000000000E+00 0.  1.
          3    1    3    3  501    0 -0.77387367160E+02  0.31633501565E+03 -0.44671229871E+03  0.55281870857E+03  0.00000000000E+00 0.  1.
         21    1    1    2  502  501 -0.15695498775E-03 -0.60963752000E-04  0.97316693601E-02  0.97331259101E-02  0.00000000000E+00 0.  1.
<mgrwt>
<rscale>  1 0.65132684E+03</rscale>
<asrwt>0</asrwt>
<pdfrwt beam="1">  1        3 0.38569680E+00 0.65132684E+03</pdfrwt>
<pdfrwt beam="2">0</pdfrwt>
<totfact> 0.70416029E-02</totfact>
</mgrwt>
</event>
<event>
 6    1  0.2885140E-003  0.6011082E+03  0.7818608E-02  0.9903110E-01
          1   -1    0    0  502    0  0.00000000000E+00  0.00000000000E+00  0.90414955404E+02  0.90414955404E+02  0.00000000000E+00 0.  1.
         13   -1    0    0    0    0 -0.00000000000E+00 -0.00000000000E+00 -0.10000000000E+04  0.10000000000E+04  0.00000000000E+00 0.  1.
    9000005    2    1    2  501    0  0.67884964630E-02  0.36122602939E-02 -0.90966703631E+03  0.10903326039E+04  0.60110820165E+03 0.  0.
         13    1    3    3    0    0  0.16150650172E+02 -0.21119933319E+03 -0.68064121806E+02  0.22248309266E+03  0.00000000000E+00 0.  1.
          1    1    3    3  501    0 -0.16143861676E+02  0.21120294545E+03 -0.84160291450E+03  0.86784951123E+03  0.00000000000E+00 0.  1.
         21    1    1    2  502  501 -0.67884964630E-02 -0.36122602939E-02  0.81991710828E-01  0.82351519434E-01  0.00000000000E+00 0.  1.
<mgrwt>
<rscale>  1 0.60110820E+03</rscale>
<asrwt>0</asrwt>
<pdfrwt beam="1">  1        1 0.32878235E+00 0.60110820E+03</pdfrwt>
<pdfrwt beam="2">0</pdfrwt>
<totfact> 0.27705476E+00</totfact>
</mgrwt>
</event>
<event>
 6    1  0.2885140E-003  0.6406015E+03  0.7818608E-02  0.9824576E-01
          1   -1    0    0  502    0  0.00000000000E+00  0.00000000000E+00  0.10261462151E+03  0.10261462151E+03  0.00000000000E+00 0.  1.
         13   -1    0    0    0    0 -0.00000000000E+00 -0.00000000000E+00 -0.10000000000E+04  0.10000000000E+04  0.00000000000E+00 0.  1.
    9000005    2    1    2  501    0 -0.36408351787E-03 -0.89472185564E-03 -0.89740742795E+03  0.11025925509E+04  0.64060146860E+03 0.  0.
         13    1    3    3    0    0 -0.30339302864E+03  0.90022928994E+02 -0.53374369516E+03  0.62051091021E+03  0.00000000000E+00 0.  1.
          3    1    3    3  501    0  0.30339266456E+03 -0.90023823716E+02 -0.36366373279E+03  0.48208164069E+03  0.00000000000E+00 0.  1.
         21    1    1    2  502  501  0.36408351789E-03  0.89472185564E-03  0.22049451517E-01  0.22070600269E-01  0.00000000000E+00 0. -1.
<mgrwt>
<rscale>  1 0.64060147E+03</rscale>
<asrwt>0</asrwt>
<pdfrwt beam="1">  1        1 0.37314487E+00 0.64060147E+03</pdfrwt>
<pdfrwt beam="2">0</pdfrwt>
<totfact> 0.17621680E+00</totfact>
</mgrwt>
</event>
<event>
 6    1  0.2885140E-003  0.6591584E+03  0.7818608E-02  0.9789744E-01
          1   -1    0    0  502    0  0.00000000000E+00  0.00000000000E+00  0.10998206061E+03  0.10998206061E+03  0.00000000000E+00 0.  1.
         13   -1    0    0    0    0 -0.00000000000E+00 -0.00000000000E+00 -0.10000000000E+04  0.10000000000E+04  0.00000000000E+00 0.  1.
    9000005    2    1    2  501    0 -0.64307159222E+00  0.50909306202E+00 -0.89123903655E+03  0.11085110762E+04  0.65915788176E+03 0.  0.
         13    1    3    3    0    0 -0.32667613443E+03 -0.44869336494E+02 -0.43106787401E+03  0.54272466884E+03  0.00000000000E+00 0.  1.
          1    1    3    3  501    0  0.32603306284E+03  0.45378429556E+02 -0.46017116255E+03  0.56578640737E+03  0.00000000000E+00 0.  1.
         21    1    1    2  502  501  0.64307159222E+00 -0.50909306202E+00  0.12210971598E+01  0.14709843957E+01  0.00000000000E+00 0. -1.
<mgrwt>
<rscale>  1 0.65915839E+03</rscale>
<asrwt>0</asrwt>
<pdfrwt beam="1">  1        1 0.39993561E+00 0.65915839E+03</pdfrwt>
<pdfrwt beam="2">0</pdfrwt>
<totfact> 0.13364405E+00</totfact>
</mgrwt>
</event>
<event>
 6    1  0.2885140E-003  0.6497575E+03  0.7818608E-02  0.9807234E-01
          1   -1    0    0  502    0  0.00000000000E+00  0.00000000000E+00  0.10579713826E+03  0.10579713826E+03  0.00000000000E+00 0.  1.
         13   -1    0    0    0    0 -0.00000000000E+00 -0.00000000000E+00 -0.10000000000E+04  0.10000000000E+04  0.00000000000E+00 0.  1.
    9000005    2    1    2  501    0  0.10616282467E+00 -0.61560556792E-01 -0.89443711827E+03  0.11055326834E+04  0.64975744742E+03 0.  0.
         13    1    3    3    0    0  0.60143642732E+02 -0.11211719698E+03  0.61405496013E+02  0.14127334695E+03  0.00000000000E+00 0.  1.
          3    1    3    3  501    0 -0.60037479907E+02  0.11205563642E+03 -0.95584261429E+03  0.96425933645E+03  0.00000000000E+00 0.  1.
         21    1    1    2  502  501 -0.10616282467E+00  0.61560556792E-01  0.23425653192E+00  0.26445485483E+00  0.00000000000E+00 0.  1.
<mgrwt>
<rscale>  1 0.64975746E+03</rscale>
<asrwt>0</asrwt>
<pdfrwt beam="1">  1        1 0.38471768E+00 0.64975746E+03</pdfrwt>
<pdfrwt beam="2">0</pdfrwt>
<totfact> 0.15641571E+00</totfact>
</mgrwt>
</event>
<event>
 6    1  0.2885140E-003  0.6644250E+03  0.7818608E-02  0.9780082E-01
          1   -1    0    0  502    0  0.00000000000E+00  0.00000000000E+00  0.11359958480E+03  0.11359958480E+03  0.00000000000E+00 0.  1.
         13   -1    0    0    0    0 -0.00000000000E+00 -0.00000000000E+00 -0.10000000000E+04  0.10000000000E+04  0.00000000000E+00 0.  1.
    9000005    2    1    2  501    0 -0.17970525740E+01  0.20308716749E+01 -0.88899094974E+03  0.11098492906E+04  0.66441943469E+03 0.  0.
         13    1    3    3    0    0 -0.19860690506E+03 -0.20303602789E+03 -0.15680859728E+03  0.32443376449E+03  0.00000000000E+00 0.  1.
          1    1    3    3  501    0  0.19680985249E+03  0.20506689957E+03 -0.73218235246E+03  0.78541552607E+03  0.00000000000E+00 0.  1.
         21    1    1    2  502  501  0.17970525740E+01 -0.20308716749E+01  0.25905345434E+01  0.37502942464E+01  0.00000000000E+00 0.  1.
<mgrwt>
<rscale>  1 0.66442497E+03</rscale>
<asrwt>0</asrwt>
<pdfrwt beam="1">  1        1 0.41309027E+00 0.66442497E+03</pdfrwt>
<pdfrwt beam="2">0</pdfrwt>
<totfact> 0.11658474E+00</totfact>
</mgrwt>
</event>
<event>
 6    1  0.2885140E-003  0.6049033E+03  0.7818608E-02  0.9895285E-01
          1   -1    0    0  502    0  0.00000000000E+00  0.00000000000E+00  0.91586237398E+02  0.91586237398E+02  0.00000000000E+00 0.  1.
         13   -1    0    0    0    0 -0.00000000000E+00 -0.00000000000E+00 -0.10000000000E+04  0.10000000000E+04  0.00000000000E+00 0.  1.
    9000005    2    1    2  501    0 -0.12511097735E-02 -0.26961577279E-01 -0.90852118325E+03  0.10914754778E+04  0.60490327948E+03 0.  0.
         13    1    3    3    0    0  0.44541793033E+02  0.24495113964E+03 -0.14440879808E+03  0.28781753439E+03  0.00000000000E+00 0.  1.
          3    1    3    3  501    0 -0.44543044142E+02 -0.24497810122E+03 -0.76411238517E+03  0.80365794342E+03  0.00000000000E+00 0.  1.
         21    1    1    2  502  501  0.12511097735E-02  0.26961577279E-01  0.10742064371E+00  0.11075958929E+00  0.00000000000E+00 0.  1.
<mgrwt>
<rscale>  1 0.60490328E+03</rscale>
<asrwt>0</asrwt>
<pdfrwt beam="1">  1        1 0.33304157E+00 0.60490328E+03</pdfrwt>
<pdfrwt beam="2">0</pdfrwt>
<totfact> 0.26535131E+00</totfact>
</mgrwt>
</event>
<event>
 6    1  0.2885140E-003  0.6506168E+03  0.7818608E-02  0.9805622E-01
          1   -1    0    0  502    0  0.00000000000E+00  0.00000000000E+00  0.10617670956E+03  0.10617670956E+03  0.00000000000E+00 0.  1.
         13   -1    0    0    0    0 -0.00000000000E+00 -0.00000000000E+00 -0.10000000000E+04  0.10000000000E+04  0.00000000000E+00 0.  1.
    9000005    2    1    2  501    0 -0.91077871502E-04 -0.49528849250E-02 -0.89417441419E+03  0.11058255509E+04  0.65061683496E+03 0.  0.
         13    1    3    3    0    0  0.31451380673E+01  0.17069034920E+03  0.23568128721E+02  0.17233845739E+03  0.00000000000E+00 0.  1.
          3    1    3    3  501    0 -0.31452291452E+01 -0.17069530208E+03 -0.91774254291E+03  0.93348709348E+03  0.00000000000E+00 0.  1.
         21    1    1    2  502  501  0.91077871502E-04  0.49528849251E-02  0.35112374778E+00  0.35115869008E+00  0.00000000000E+00 0.  1.
<mgrwt>
<rscale>  1 0.65061683E+03</rscale>
<asrwt>0</asrwt>
<pdfrwt beam="1">  1        1 0.38609794E+00 0.65061683E+03</pdfrwt>
<pdfrwt beam="2">0</pdfrwt>
<totfact> 0.15420733E+00</totfact>
</mgrwt>
</event>
<event>
 6    1  0.2885140E-003  0.6804037E+03  0.7818608E-02  0.9751344E-01
          1   -1    0    0  502    0  0.00000000000E+00  0.00000000000E+00  0.11584511237E+03  0.11584511237E+03  0.00000000000E+00 0.  1.
         13   -1    0    0    0    0 -0.00000000000E+00 -0.00000000000E+00 -0.10000000000E+04  0.10000000000E+04  0.00000000000E+00 0.  1.
    9000005    2    1    2  501    0 -0.47720761203E-02  0.11249468820E-02 -0.88426262232E+03  0.11157372662E+04  0.68040374916E+03 0.  0.
         13    1    3    3    0    0  0.15775125193E+03  0.30133385377E+03 -0.43061056430E+03  0.54873764861E+03  0.00000000000E+00 0.  1.
          1    1    3    3  501    0 -0.15775602401E+03 -0.30133272883E+03 -0.45365205802E+03  0.56699961757E+03  0.00000000000E+00 0.  1.
         21    1    1    2  502  501  0.47720761203E-02 -0.11249468820E-02  0.10773468849E+00  0.10784619288E+00  0.00000000000E+00 0. -1.
<mgrwt>
<rscale>  1 0.68040375E+03</rscale>
<asrwt>0</asrwt>
<pdfrwt beam="1">  1        1 0.42125584E+00 0.68040375E+03</pdfrwt>
<pdfrwt beam="2">0</pdfrwt>
<totfact> 0.10678882E+00</totfact>
</mgrwt>
</event>
<event>
 6    1  0.2885140E-003  0.6532366E+03  0.7818608E-02  0.9800725E-01
          1   -1    0    0  502    0  0.00000000000E+00  0.00000000000E+00  0.10682282738E+03  0.10682282738E+03  0.00000000000E+00 0.  1.
         13   -1    0    0    0    0 -0.00000000000E+00 -0.00000000000E+00 -0.10000000000E+04  0.10000000000E+04  0.00000000000E+00 0.  1.
    9000005    2    1    2  501    0  0.46331319226E-01  0.48212455926E-01 -0.89331181533E+03  0.11066724954E+04  0.65323656381E+03 0.  0.
         13    1    3    3    0    0  0.27530902930E+02  0.32337204293E+02 -0.99530788589E+03  0.99621354795E+03  0.00000000000E+00 0.  1.
          3    1    3    3  501    0 -0.27484571611E+02 -0.32288991837E+02  0.10199607057E+03  0.11045894749E+03  0.00000000000E+00 0.  1.
         21    1    1    2  502  501 -0.46331319226E-01 -0.48212455926E-01  0.13464270608E+00  0.15033193390E+00  0.00000000000E+00 0.  1.
<mgrwt>
<rscale>  1 0.65323657E+03</rscale>
<asrwt>0</asrwt>
<pdfrwt beam="1">  1        1 0.38844746E+00 0.65323657E+03</pdfrwt>
<pdfrwt beam="2">0</pdfrwt>
<totfact> 0.15048385E+00</totfact>
</mgrwt>
</event>
<event>
 6    1  0.2885140E-003  0.5516747E+03  0.7818608E-02  0.1001107E+00
          1   -1    0    0  502    0  0.00000000000E+00  0.00000000000E+00  0.76087612275E+02  0.76087612275E+02  0.00000000000E+00 0.  1.
         13   -1    0    0    0    0 -0.00000000000E+00 -0.00000000000E+00 -0.10000000000E+04  0.10000000000E+04  0.00000000000E+00 0.  1.
    9000005    2    1    2  501    0  0.23669746355E-04  0.85044944569E-04 -0.92391375974E+03  0.10760862374E+04  0.55167468215E+03 0.  0.
         13    1    3    3    0    0 -0.17872296038E+03 -0.20327335232E+03 -0.56561813500E+03  0.62704531493E+03  0.00000000000E+00 0.  1.
          1    1    3    3  501    0  0.17872298404E+03  0.20327343737E+03 -0.35829562474E+03  0.44904092249E+03  0.00000000000E+00 0.  1.
         21    1    1    2  502  501 -0.23669746365E-04 -0.85044944547E-04  0.13720183837E-02  0.13748553905E-02  0.00000000000E+00 0. -1.
<mgrwt>
<rscale>  1 0.55167468E+03</rscale>
<asrwt>0</asrwt>
<pdfrwt beam="1">  1        1 0.27668281E+00 0.55167468E+03</pdfrwt>
<pdfrwt beam="2">0</pdfrwt>
<totfact> 0.46913991E+00</totfact>
</mgrwt>
</event>
<event>
 6    1  0.2885140E-003  0.6435266E+03  0.7818608E-02  0.9819002E-01
          1   -1    0    0  502    0  0.00000000000E+00  0.00000000000E+00  0.10378362902E+03  0.10378362902E+03  0.00000000000E+00 0.  1.
         13   -1    0    0    0    0 -0.00000000000E+00 -0.00000000000E+00 -0.10000000000E+04  0.10000000000E+04  0.00000000000E+00 0.  1.
    9000005    2    1    2  501    0  0.94073387956E-01 -0.29831314140E+00 -0.89635660825E+03  0.11034408360E+04  0.64352654307E+03 0.  0.
         13    1    3    3    0    0 -0.83258057205E+02  0.21842078135E+03 -0.69161536232E+02  0.24376804530E+03  0.00000000000E+00 0.  1.
          3    1    3    3  501    0  0.83352130593E+02 -0.21871909449E+03 -0.82719507202E+03  0.85967279074E+03  0.00000000000E+00 0.  1.
         21    1    1    2  502  501 -0.94073387956E-01  0.29831314140E+00  0.14023727111E+00  0.34279297668E+00  0.00000000000E+00 0.  1.
<mgrwt>
<rscale>  1 0.64352662E+03</rscale>
<asrwt>0</asrwt>
<pdfrwt beam="1">  1        1 0.37739581E+00 0.64352662E+03</pdfrwt>
<pdfrwt beam="2">0</pdfrwt>
<totfact> 0.16869443E+00</totfact>
</mgrwt>
</event>
<event>
 6    1  0.2885140E-003  0.6572706E+03  0.7818608E-02  0.9793231E-01
          1   -1    0    0  502    0  0.00000000000E+00  0.00000000000E+00  0.10800357168E+03  0.10800357168E+03  0.00000000000E+00 0.  1.
         13   -1    0    0    0    0 -0.00000000000E+00 -0.00000000000E+00 -0.10000000000E+04  0.10000000000E+04  0.00000000000E+00 0.  1.
    9000005    2    1    2  501    0 -0.32823242080E-03  0.35197035169E-03 -0.89199881869E+03  0.11080011333E+04  0.65727058275E+03 0.  0.
         13    1    3    3    0    0 -0.16709890017E+03  0.27261413989E+03 -0.57394880316E+03  0.65700665168E+03  0.00000000000E+00 0.  1.
          3    1    3    3  501    0  0.16709857194E+03 -0.27261378792E+03 -0.31805001553E+03  0.45099448166E+03  0.00000000000E+00 0.  1.
         21    1    1    2  502  501  0.32823242081E-03 -0.35197035174E-03  0.23903744136E-02  0.24383415446E-02  0.00000000000E+00 0.  1.
<mgrwt>
<rscale>  1 0.65727058E+03</rscale>
<asrwt>0</asrwt>
<pdfrwt beam="1">  1        1 0.39274109E+00 0.65727058E+03</pdfrwt>
<pdfrwt beam="2">0</pdfrwt>
<totfact> 0.14391880E+00</totfact>
</mgrwt>
</event>
<event>
 6    1  0.2885140E-003  0.6514476E+03  0.7818608E-02  0.9804067E-01
          1   -1    0    0  502    0  0.00000000000E+00  0.00000000000E+00  0.10609745409E+03  0.10609745409E+03  0.00000000000E+00 0.  1.
         13   -1    0    0    0    0 -0.00000000000E+00 -0.00000000000E+00 -0.10000000000E+04  0.10000000000E+04  0.00000000000E+00 0.  1.
    9000005    2    1    2  501    0  0.14188517647E-02 -0.19464437867E-03 -0.89390361952E+03  0.11060956642E+04  0.65144757070E+03 0.  0.
         13    1    3    3    0    0 -0.18664482074E+03  0.25317703057E+03 -0.59063010089E+03  0.66916277093E+03  0.00000000000E+00 0.  1.
          1    1    3    3  501    0  0.18664623959E+03 -0.25317722522E+03 -0.30327351864E+03  0.43693289328E+03  0.00000000000E+00 0.  1.
         21    1    1    2  502  501 -0.14188517647E-02  0.19464437865E-03  0.10736120994E-02  0.17898798016E-02  0.00000000000E+00 0.  1.
<mgrwt>
<rscale>  1 0.65144757E+03</rscale>
<asrwt>0</asrwt>
<pdfrwt beam="1">  1        1 0.38580974E+00 0.65144757E+03</pdfrwt>
<pdfrwt beam="2">0</pdfrwt>
<totfact> 0.15463711E+00</totfact>
</mgrwt>
</event>
<event>
 6    1  0.2885140E-003  0.6300671E+03  0.7818608E-02  0.9844918E-01
          1   -1    0    0  502    0  0.00000000000E+00  0.00000000000E+00  0.99279279930E+02  0.99279279930E+02  0.00000000000E+00 0.  1.
         13   -1    0    0    0    0 -0.00000000000E+00 -0.00000000000E+00 -0.10000000000E+04  0.10000000000E+04  0.00000000000E+00 0.  1.
    9000005    2    1    2  501    0 -0.13645118906E-02 -0.81852851392E-03 -0.90075382924E+03  0.10992461325E+04  0.63006713852E+03 0.  0.
         13    1    3    3    0    0  0.18552770221E+03 -0.13638637848E+03 -0.75280115305E+02  0.24225785494E+03  0.00000000000E+00 0.  1.
          3    1    3    3  501    0 -0.18552906672E+03  0.13638555995E+03 -0.82547371393E+03  0.85698827761E+03  0.00000000000E+00 0.  1.
         21    1    1    2  502  501  0.13645118906E-02  0.81852851394E-03  0.33109166251E-01  0.33147379557E-01  0.00000000000E+00 0.  1.
<mgrwt>
<rscale>  1 0.63006714E+03</rscale>
<asrwt>0</asrwt>
<pdfrwt beam="1">  1        1 0.36101632E+00 0.63006714E+03</pdfrwt>
<pdfrwt beam="2">0</pdfrwt>
<totfact> 0.19956238E+00</totfact>
</mgrwt>
</event>
<event>
 6    1  0.2885140E-003  0.6493974E+03  0.7818608E-02  0.9807911E-01
          1   -1    0    0  502    0  0.00000000000E+00  0.00000000000E+00  0.10669039545E+03  0.10669039545E+03  0.00000000000E+00 0.  1.
         13   -1    0    0    0    0 -0.00000000000E+00 -0.00000000000E+00 -0.10000000000E+04  0.10000000000E+04  0.00000000000E+00 0.  1.
    9000005    2    1    2  501    0 -0.10375662084E+01  0.58658004322E+00 -0.89425176581E+03  0.11051710905E+04  0.64939625650E+03 0.  0.
         13    1    3    3    0    0 -0.12213806016E+03 -0.73430217400E+01  0.64808985693E+02  0.13846237877E+03  0.00000000000E+00 0.  1.
          3    1    3    3  501    0  0.12110049395E+03  0.79296017832E+01 -0.95906075150E+03  0.96670871170E+03  0.00000000000E+00 0.  1.
         21    1    1    2  502  501  0.10375662084E+01 -0.58658004322E+00  0.94216125696E+00  0.15193049786E+01  0.00000000000E+00 0. -1.
<mgrwt>
<rscale>  1 0.64939735E+03</rscale>
<asrwt>0</asrwt>
<pdfrwt beam="1">  1        1 0.38796589E+00 0.64939735E+03</pdfrwt>
<pdfrwt beam="2">0</pdfrwt>
<totfact> 0.15133273E+00</totfact>
</mgrwt>
</event>
<event>
 6    1  0.2885140E-003  0.6641089E+03  0.7818608E-02  0.9780659E-01
          1   -1    0    0  502    0  0.00000000000E+00  0.00000000000E+00  0.11026020679E+03  0.11026020679E+03  0.00000000000E+00 0.  1.
         13   -1    0    0    0    0 -0.00000000000E+00 -0.00000000000E+00 -0.10000000000E+04  0.10000000000E+04  0.00000000000E+00 0.  1.
    9000005    2    1    2  501    0 -0.41718622015E-05 -0.41102092680E-05 -0.88973982849E+03  0.11102601710E+04  0.66410894057E+03 0.  0.
         13    1    3    3    0    0 -0.31416382434E+03  0.15215411019E+02 -0.26692085720E+03  0.41252534621E+03  0.00000000000E+00 0.  1.
          3    1    3    3  501    0  0.31416382016E+03 -0.15215415129E+02 -0.62281897129E+03  0.69773482482E+03  0.00000000000E+00 0.  1.
         21    1    1    2  502  501  0.41718621720E-05  0.41102092682E-05  0.35283171819E-04  0.35765912092E-04  0.00000000000E+00 0. -1.
<mgrwt>
<rscale>  1 0.66410894E+03</rscale>
<asrwt>0</asrwt>
<pdfrwt beam="1">  1        1 0.40094705E+00 0.66410894E+03</pdfrwt>
<pdfrwt beam="2">0</pdfrwt>
<totfact> 0.13214027E+00</totfact>
</mgrwt>
</event>
<event>
 6    1  0.2885140E-003  0.6293151E+03  0.7818608E-02  0.9846386E-01
          1   -1    0    0  502    0  0.00000000000E+00  0.00000000000E+00  0.99009409332E+02  0.99009409332E+02  0.00000000000E+00 0.  1.
         13   -1    0    0    0    0 -0.00000000000E+00 -0.00000000000E+00 -0.10000000000E+04  0.10000000000E+04  0.00000000000E+00 0.  1.
    9000005    2    1    2  501    0 -0.59607207277E-05  0.49427226116E-05 -0.90099062797E+03  0.10990093712E+04  0.62931509306E+03 0.  0.
         13    1    3    3    0    0 -0.17874756936E+03  0.10891074323E+03 -0.40204785715E+02  0.21314002050E+03  0.00000000000E+00 0.  1.
          3    1    3    3  501    0  0.17874756340E+03 -0.10891073829E+03 -0.86078584226E+03  0.88586935073E+03  0.00000000000E+00 0.  1.
         21    1    1    2  502  501  0.59607207170E-05 -0.49427226115E-05  0.37305026282E-04  0.38100205828E-04  0.00000000000E+00 0.  1.
<mgrwt>
<rscale>  1 0.62931509E+03</rscale>
<asrwt>0</asrwt>
<pdfrwt beam="1">  1        1 0.36003497E+00 0.62931509E+03</pdfrwt>
<pdfrwt beam="2">0</pdfrwt>
<totfact> 0.20157210E+00</totfact>
</mgrwt>
</event>
<event>
 6    1  0.2885140E-003  0.6029778E+03  0.7818608E-02  0.9899247E-01
          1   -1    0    0  502    0  0.00000000000E+00  0.00000000000E+00  0.92065122726E+02  0.92065122726E+02  0.00000000000E+00 0.  1.
         13   -1    0    0    0    0 -0.00000000000E+00 -0.00000000000E+00 -0.10000000000E+04  0.10000000000E+04  0.00000000000E+00 0.  1.
    9000005    2    1    2  501    0 -0.50457474033E+00 -0.49597335399E+00 -0.90898673504E+03  0.10907974516E+04  0.60297735897E+03 0.  0.
         13    1    3    3    0    0  0.16644115106E+02  0.29362255289E+03 -0.33617265393E+03  0.44665790420E+03  0.00000000000E+00 0.  1.
          3    1    3    3  501    0 -0.17148689846E+02 -0.29411852625E+03 -0.57281408111E+03  0.64413954743E+03  0.00000000000E+00 0.  1.
         21    1    1    2  502  501  0.50457474033E+00  0.49597335399E+00  0.10518577675E+01  0.12676710928E+01  0.00000000000E+00 0. -1.
<mgrwt>
<rscale>  1 0.60297777E+03</rscale>
<asrwt>0</asrwt>
<pdfrwt beam="1">  1        1 0.33478297E+00 0.60297777E+03</pdfrwt>
<pdfrwt beam="2">0</pdfrwt>
<totfact> 0.26086650E+00</totfact>
</mgrwt>
</event>
<event>
 6    1  0.2885140E-003  0.6365257E+03  0.7818608E-02  0.9832397E-01
          1   -1    0    0  502    0  0.00000000000E+00  0.00000000000E+00  0.10518943391E+03  0.10518943391E+03  0.00000000000E+00 0.  1.
         13   -1    0    0    0    0 -0.00000000000E+00 -0.00000000000E+00 -0.10000000000E+04  0.10000000000E+04  0.00000000000E+00 0.  1.
    9000005    2    1    2  501    0 -0.59240894810E+00  0.14902711589E+01 -0.89852633824E+03  0.11011423585E+04  0.63652363771E+03 0.  0.
         13    1    3    3    0    0 -0.16542173823E+03  0.24897604763E+03 -0.25761671776E+03  0.39461347803E+03  0.00000000000E+00 0.  1.
          1    1    3    3  501    0  0.16482932929E+03 -0.24748577647E+03 -0.64090962048E+03  0.70652888049E+03  0.00000000000E+00 0.  1.
         21    1    1    2  502  501  0.59240894810E+00 -0.14902711589E+01  0.37157721542E+01  0.40470753874E+01  0.00000000000E+00 0. -1.
<mgrwt>
<rscale>  1 0.63652566E+03</rscale>
<asrwt>0</asrwt>
<pdfrwt beam="1">  1        1 0.38250784E+00 0.63652566E+03</pdfrwt>
<pdfrwt beam="2">0</pdfrwt>
<totfact> 0.16036684E+00</totfact>
</mgrwt>
</event>
<event>
 6    1  0.2885140E-003  0.6489270E+03  0.7818608E-02  0.9808795E-01
          3   -1    0    0  502    0  0.00000000000E+00  0.00000000000E+00  0.12969868222E+03  0.12969868222E+03  0.00000000000E+00 0.  1.
         13   -1    0    0    0    0 -0.00000000000E+00 -0.00000000000E+00 -0.10000000000E+04  0.10000000000E+04  0.00000000000E+00 0.  1.
    9000005    2    1    2  501    0  0.16243968733E+00 -0.42366993886E+01 -0.89451989402E+03  0.11051117865E+04  0.64891312497E+03 0.  0.
         13    1    3    3    0    0 -0.21747743035E+03 -0.14024580612E+03 -0.78414390113E+03  0.82574025972E+03  0.00000000000E+00 0.  1.
          1    1    3    3  501    0  0.21763987003E+03  0.13600910673E+03 -0.11037599288E+03  0.27937152673E+03  0.00000000000E+00 0.  1.
         21    1    1    2  502  501 -0.16243968733E+00  0.42366993886E+01  0.24218576242E+02  0.24586895769E+02  0.00000000000E+00 0. -1.
<mgrwt>
<rscale>  1 0.64892698E+03</rscale>
<asrwt>0</asrwt>
<pdfrwt beam="1">  1        3 0.47163257E+00 0.64892698E+03</pdfrwt>
<pdfrwt beam="2">0</pdfrwt>
<totfact> 0.25460161E-02</totfact>
</mgrwt>
</event>
<event>
 6    1  0.2885140E-003  0.6514969E+03  0.7818608E-02  0.9803974E-01
          1   -1    0    0  502    0  0.00000000000E+00  0.00000000000E+00  0.10613592663E+03  0.10613592663E+03  0.00000000000E+00 0.  1.
         13   -1    0    0    0    0 -0.00000000000E+00 -0.00000000000E+00 -0.10000000000E+04  0.10000000000E+04  0.00000000000E+00 0.  1.
    9000005    2    1    2  501    0  0.20405454152E-03 -0.15132894358E-01 -0.89388527658E+03  0.11061098763E+04  0.65149686909E+03 0.  0.
         13    1    3    3    0    0 -0.60004508852E+02 -0.31644961171E+03 -0.52970916881E+03  0.61994572453E+03  0.00000000000E+00 0.  1.
          1    1    3    3  501    0  0.60004712906E+02  0.31643447882E+03 -0.36417610777E+03  0.48616415173E+03  0.00000000000E+00 0.  1.
         21    1    1    2  502  501 -0.20405454152E-03  0.15132894358E-01  0.21203212440E-01  0.26050380951E-01  0.00000000000E+00 0. -1.
<mgrwt>
<rscale>  1 0.65149687E+03</rscale>
<asrwt>0</asrwt>
<pdfrwt beam="1">  1        1 0.38594964E+00 0.65149687E+03</pdfrwt>
<pdfrwt beam="2">0</pdfrwt>
<totfact> 0.15441542E+00</totfact>
</mgrwt>
</event>
<event>
 6    1  0.3035490E-003  0.6449613E+03  0.7818608E-02  0.9816280E-01
          1   -1    0    0  502    0  0.00000000000E+00  0.00000000000E+00  0.10399378935E+03  0.10399378935E+03  0.00000000000E+00 0.  1.
         13   -1    0    0    0    0 -0.00000000000E+00 -0.00000000000E+00 -0.10000000000E+04  0.10000000000E+04  0.00000000000E+00 0.  1.
    9000005    2    1    2  501    0 -0.71151294364E-04  0.77963189966E-05 -0.89600610606E+03  0.11039936626E+04  0.64496128954E+03 0.  0.
         13    1    3    3    0    0 -0.12795047594E+03 -0.12588603658E+03  0.10582096565E+02  0.17980711684E+03  0.00000000000E+00 0.  1.
          3    1    3    3  501    0  0.12795040479E+03  0.12588604438E+03 -0.90658820263E+03  0.92418654578E+03  0.00000000000E+00 0.  1.
         21    1    1    2  502  501  0.71151294372E-04 -0.77963189950E-05 -0.10458530725E-03  0.12673348324E-03  0.00000000000E+00 0. -1.
<mgrwt>
<rscale>  1 0.64496129E+03</rscale>
<asrwt>0</asrwt>
<pdfrwt beam="1">  1        1 0.37816003E+00 0.64496129E+03</pdfrwt>
<pdfrwt beam="2">0</pdfrwt>
<totfact> 0.16734708E+00</totfact>
</mgrwt>
</event>
<event>
 6    1  0.2885140E-003  0.6507562E+03  0.7818608E-02  0.9805361E-01
          1   -1    0    0  502    0  0.00000000000E+00  0.00000000000E+00  0.10725256427E+03  0.10725256427E+03  0.00000000000E+00 0.  1.
         13   -1    0    0    0    0 -0.00000000000E+00 -0.00000000000E+00 -0.10000000000E+04  0.10000000000E+04  0.00000000000E+00 0.  1.
    9000005    2    1    2  501    0 -0.84333285504E-01 -0.22245281375E+00 -0.89411774669E+03  0.11058617553E+04  0.65075619118E+03 0.  0.
         13    1    3    3    0    0  0.17183208907E+03 -0.19731292656E+03 -0.77594216951E+03  0.81886806523E+03  0.00000000000E+00 0.  1.
          3    1    3    3  501    0 -0.17191642236E+03  0.19709047375E+03 -0.11817557718E+03  0.28699369011E+03  0.00000000000E+00 0.  1.
         21    1    1    2  502  501  0.84333285504E-01  0.22245281375E+00  0.13703109645E+01  0.13908089361E+01  0.00000000000E+00 0. -1.
<mgrwt>
<rscale>  1 0.65075623E+03</rscale>
<asrwt>0</asrwt>
<pdfrwt beam="1">  1        1 0.39001015E+00 0.65075623E+03</pdfrwt>
<pdfrwt beam="2">0</pdfrwt>
<totfact> 0.14817102E+00</totfact>
</mgrwt>
</event>
<event>
 6    1  0.2885140E-003  0.5942840E+03  0.7818608E-02  0.9917336E-01
          1   -1    0    0  502    0  0.00000000000E+00  0.00000000000E+00  0.91688377659E+02  0.91688377659E+02  0.00000000000E+00 0.  1.
         13   -1    0    0    0    0 -0.00000000000E+00 -0.00000000000E+00 -0.10000000000E+04  0.10000000000E+04  0.00000000000E+00 0.  1.
    9000005    2    1    2  501    0 -0.36453700447E+01 -0.21004402994E+01 -0.91023622734E+03  0.10870618588E+04  0.59426912653E+03 0.  0.
         13    1    3    3    0    0  0.29520825724E+03  0.20265136590E+01 -0.43868834750E+03  0.52877167864E+03  0.00000000000E+00 0.  1.
          3    1    3    3  501    0 -0.29885362729E+03 -0.41269539584E+01 -0.47154787984E+03  0.55829018017E+03  0.00000000000E+00 0.  1.
         21    1    1    2  502  501  0.36453700447E+01  0.21004402994E+01  0.19246050008E+01  0.46265188450E+01  0.00000000000E+00 0. -1.
<mgrwt>
<rscale>  1 0.59428402E+03</rscale>
<asrwt>0</asrwt>
<pdfrwt beam="1">  1        1 0.33341299E+00 0.59428402E+03</pdfrwt>
<pdfrwt beam="2">0</pdfrwt>
<totfact> 0.26487186E+00</totfact>
</mgrwt>
</event>
<event>
 6    1  0.2885140E-003  0.6415980E+03  0.7818608E-02  0.9822674E-01
          1   -1    0    0  502    0  0.00000000000E+00  0.00000000000E+00  0.11305553573E+03  0.11305553573E+03  0.00000000000E+00 0.  1.
         13   -1    0    0    0    0 -0.00000000000E+00 -0.00000000000E+00 -0.10000000000E+04  0.10000000000E+04  0.00000000000E+00 0.  1.
    9000005    2    1    2  501    0 -0.75288878095E+01 -0.33965890440E+01 -0.89520045136E+03  0.11013772528E+04  0.64154484173E+03 0.  0.
         13    1    3    3    0    0 -0.75528202981E+02  0.10079897987E+03 -0.95504290804E+03  0.96331298132E+03  0.00000000000E+00 0.  1.
          3    1    3    3  501    0  0.67999315171E+02 -0.10419556891E+03  0.59842456674E+02  0.13806427150E+03  0.00000000000E+00 0.  1.
         21    1    1    2  502  501  0.75288878095E+01  0.33965890440E+01  0.82559870947E+01  0.11678282908E+02  0.00000000000E+00 0. -1.
<mgrwt>
<rscale>  1 0.64159801E+03</rscale>
<asrwt>0</asrwt>
<pdfrwt beam="1">  1        1 0.41111191E+00 0.64159801E+03</pdfrwt>
<pdfrwt beam="2">0</pdfrwt>
<totfact> 0.11952126E+00</totfact>
</mgrwt>
</event>
<event>
 6    1  0.2885140E-003  0.6480498E+03  0.7818608E-02  0.9810445E-01
          1   -1    0    0  502    0  0.00000000000E+00  0.00000000000E+00  0.10645696226E+03  0.10645696226E+03  0.00000000000E+00 0.  1.
         13   -1    0    0    0    0 -0.00000000000E+00 -0.00000000000E+00 -0.10000000000E+04  0.10000000000E+04  0.00000000000E+00 0.  1.
    9000005    2    1    2  501    0  0.13054770385E-01 -0.59509669363E-01 -0.89500715024E+03  0.11049915827E+04  0.64804984002E+03 0.  0.
         13    1    3    3    0    0 -0.11005519782E+02  0.31749243783E+02 -0.99701071338E+03  0.99757681335E+03  0.00000000000E+00 0.  1.
          1    1    3    3  501    0  0.11018574553E+02 -0.31808753453E+02  0.10200356314E+03  0.10741476935E+03  0.00000000000E+00 0.  1.
         21    1    1    2  502  501 -0.13054770385E-01  0.59509669363E-01  0.14641125057E+01  0.14653795608E+01  0.00000000000E+00 0. -1.
<mgrwt>
<rscale>  1 0.64804984E+03</rscale>
<asrwt>0</asrwt>
<pdfrwt beam="1">  1        1 0.38711704E+00 0.64804984E+03</pdfrwt>
<pdfrwt beam="2">0</pdfrwt>
<totfact> 0.15268655E+00</totfact>
</mgrwt>
</event>
<event>
 6    1  0.2885140E-003  0.6595586E+03  0.7818608E-02  0.9789007E-01
          1   -1    0    0  502    0  0.00000000000E+00  0.00000000000E+00  0.10982711420E+03  0.10982711420E+03  0.00000000000E+00 0.  1.
         13   -1    0    0    0    0 -0.00000000000E+00 -0.00000000000E+00 -0.10000000000E+04  0.10000000000E+04  0.00000000000E+00 0.  1.
    9000005    2    1    2  501    0  0.42858582986E-01  0.28241276509E-01 -0.89124494783E+03  0.11087538242E+04  0.65955855162E+03 0.  0.
         13    1    3    3    0    0  0.80950600472E+01  0.14358374216E+03 -0.94453080740E+03  0.95541627950E+03  0.00000000000E+00 0.  1.
          3    1    3    3  501    0 -0.80522014642E+01 -0.14355550089E+03  0.53285859570E+02  0.15333754470E+03  0.00000000000E+00 0.  1.
         21    1    1    2  502  501 -0.42858582986E-01 -0.28241276509E-01  0.10720620313E+01  0.10732900013E+01  0.00000000000E+00 0.  1.
<mgrwt>
<rscale>  1 0.65955855E+03</rscale>
<asrwt>0</asrwt>
<pdfrwt beam="1">  1        1 0.39937217E+00 0.65955855E+03</pdfrwt>
<pdfrwt beam="2">0</pdfrwt>
<totfact> 0.13440913E+00</totfact>
</mgrwt>
</event>
<event>
 6    1  0.2885140E-003  0.6463617E+03  0.7818608E-02  0.9813630E-01
          1   -1    0    0  502    0  0.00000000000E+00  0.00000000000E+00  0.10719250338E+03  0.10719250338E+03  0.00000000000E+00 0.  1.
         13   -1    0    0    0    0 -0.00000000000E+00 -0.00000000000E+00 -0.10000000000E+04  0.10000000000E+04  0.00000000000E+00 0.  1.
    9000005    2    1    2  501    0  0.52393100050E-01  0.38309235214E-01 -0.89555370159E+03  0.11044455315E+04  0.64636173732E+03 0.  0.
         13    1    3    3    0    0 -0.10364518289E+02 -0.29487601128E+03 -0.67298234157E+03  0.73482277954E+03  0.00000000000E+00 0.  1.
          1    1    3    3  501    0  0.10416911390E+02  0.29491432051E+03 -0.22257136002E+03  0.36962275199E+03  0.00000000000E+00 0.  1.
         21    1    1    2  502  501 -0.52393100050E-01 -0.38309235214E-01  0.27462049690E+01  0.27469718539E+01  0.00000000000E+00 0. -1.
<mgrwt>
<rscale>  1 0.64636174E+03</rscale>
<asrwt>0</asrwt>
<pdfrwt beam="1">  1        1 0.38979174E+00 0.64636174E+03</pdfrwt>
<pdfrwt beam="2">0</pdfrwt>
<totfact> 0.14862379E+00</totfact>
</mgrwt>
</event>
<event>
 6    1  0.2885140E-003  0.6494975E+03  0.7818608E-02  0.9807723E-01
          1   -1    0    0  502    0  0.00000000000E+00  0.00000000000E+00  0.10967243752E+03  0.10967243752E+03  0.00000000000E+00 0.  1.
         13   -1    0    0    0    0 -0.00000000000E+00 -0.00000000000E+00 -0.10000000000E+04  0.10000000000E+04  0.00000000000E+00 0.  1.
    9000005    2    1    2  501    0  0.25661166430E+00  0.58311004145E+00 -0.89451159075E+03  0.11054401852E+04  0.64949719883E+03 0.  0.
         13    1    3    3    0    0  0.64722468008E+01 -0.29927787864E+03 -0.66000957218E+03  0.72472185975E+03  0.00000000000E+00 0.  1.
          3    1    3    3  501    0 -0.62156351365E+01  0.29986098868E+03 -0.23450201857E+03  0.38071832549E+03  0.00000000000E+00 0.  1.
         21    1    1    2  502  501 -0.25661166430E+00 -0.58311004145E+00  0.41840282697E+01  0.42322522879E+01  0.00000000000E+00 0.  1.
<mgrwt>
<rscale>  1 0.64949751E+03</rscale>
<asrwt>0</asrwt>
<pdfrwt beam="1">  1        1 0.39880970E+00 0.64949751E+03</pdfrwt>
<pdfrwt beam="2">0</pdfrwt>
<totfact> 0.13544409E+00</totfact>
</mgrwt>
</event>
<event>
 6    1  0.2885140E-003  0.6536834E+03  0.7818608E-02  0.9799892E-01
          1   -1    0    0  502    0  0.00000000000E+00  0.00000000000E+00  0.10704679919E+03  0.10704679919E+03  0.00000000000E+00 0.  1.
         13   -1    0    0    0    0 -0.00000000000E+00 -0.00000000000E+00 -0.10000000000E+04  0.10000000000E+04  0.00000000000E+00 0.  1.
    9000005    2    1    2  501    0  0.97152113798E-02  0.30759056971E-01 -0.89317318848E+03  0.11068244592E+04  0.65368343852E+03 0.  0.
         13    1    3    3    0    0 -0.45330273241E+02  0.25540101319E+03 -0.78332743269E+03  0.82515839571E+03  0.00000000000E+00 0.  1.
          3    1    3    3  501    0  0.45339988452E+02 -0.25537025413E+03 -0.10984575578E+03  0.28166606347E+03  0.00000000000E+00 0.  1.
         21    1    1    2  502  501 -0.97152113798E-02 -0.30759056971E-01  0.21998766184E+00  0.22234000153E+00  0.00000000000E+00 0. -1.
<mgrwt>
<rscale>  1 0.65368344E+03</rscale>
<asrwt>0</asrwt>
<pdfrwt beam="1">  1        1 0.38926191E+00 0.65368344E+03</pdfrwt>
<pdfrwt beam="2">0</pdfrwt>
<totfact> 0.14922593E+00</totfact>
</mgrwt>
</event>
<event>
 6    1  0.2885140E-003  0.6523783E+03  0.7818608E-02  0.9802327E-01
          1   -1    0    0  502    0  0.00000000000E+00  0.00000000000E+00  0.10642073254E+03  0.10642073254E+03  0.00000000000E+00 0.  1.
         13   -1    0    0    0    0 -0.00000000000E+00 -0.00000000000E+00 -0.10000000000E+04  0.10000000000E+04  0.00000000000E+00 0.  1.
    9000005    2    1    2  501    0  0.17988970392E-01  0.36810906777E-02 -0.89359620504E+03  0.11063957518E+04  0.65237825048E+03 0.  0.
         13    1    3    3    0    0 -0.15158486513E+03  0.18583752871E+03 -0.82176099339E+03  0.85604012094E+03  0.00000000000E+00 0.  1.
          1    1    3    3  501    0  0.15160285410E+03 -0.18583384761E+03 -0.71835211652E+02  0.25035563090E+03  0.00000000000E+00 0.  1.
         21    1    1    2  502  501 -0.17988970392E-01 -0.36810906777E-02  0.16937577921E-01  0.24980693148E-01  0.00000000000E+00 0.  1.
<mgrwt>
<rscale>  1 0.65237825E+03</rscale>
<asrwt>0</asrwt>
<pdfrwt beam="1">  1        1 0.38698530E+00 0.65237825E+03</pdfrwt>
<pdfrwt beam="2">0</pdfrwt>
<totfact> 0.15276908E+00</totfact>
</mgrwt>
</event>
<event>
 6    1  0.2885140E-003  0.6468948E+03  0.7818608E-02  0.9812623E-01
          1   -1    0    0  502    0  0.00000000000E+00  0.00000000000E+00  0.10474688942E+03  0.10474688942E+03  0.00000000000E+00 0.  1.
         13   -1    0    0    0    0 -0.00000000000E+00 -0.00000000000E+00 -0.10000000000E+04  0.10000000000E+04  0.00000000000E+00 0.  1.
    9000005    2    1    2  501    0 -0.18214593474E+00  0.79070553379E-01 -0.89529107916E+03  0.11045447239E+04  0.64689480690E+03 0.  0.
         13    1    3    3    0    0 -0.31420624060E+03 -0.21437738937E+02 -0.57426157807E+03  0.65495152365E+03  0.00000000000E+00 0.  1.
          1    1    3    3  501    0  0.31402409467E+03  0.21516809490E+02 -0.32102950109E+03  0.44959320023E+03  0.00000000000E+00 0.  1.
         21    1    1    2  502  501  0.18214593474E+00 -0.79070553379E-01  0.37968586016E-01  0.20216554473E+00  0.00000000000E+00 0. -1.
<mgrwt>
<rscale>  1 0.64689484E+03</rscale>
<asrwt>0</asrwt>
<pdfrwt beam="1">  1        1 0.38089858E+00 0.64689484E+03</pdfrwt>
<pdfrwt beam="2">0</pdfrwt>
<totfact> 0.16269848E+00</totfact>
</mgrwt>
</event>
<event>
 6    1  0.2885140E-003  0.6530383E+03  0.7818608E-02  0.9801095E-01
          1   -1    0    0  502    0  0.00000000000E+00  0.00000000000E+00  0.10661474655E+03  0.10661474655E+03  0.00000000000E+00 0.  1.
         13   -1    0    0    0    0 -0.00000000000E+00 -0.00000000000E+00 -0.10000000000E+04  0.10000000000E+04  0.00000000000E+00 0.  1.
    9000005    2    1    2  501    0 -0.12644488720E-04  0.13987646525E-05 -0.89338524662E+03  0.11066147321E+04  0.65303825802E+03 0.  0.
         13    1    3    3    0    0 -0.14946665314E+03  0.12816895612E+03 -0.53013675495E+01  0.19696615499E+03  0.00000000000E+00 0.  1.
          1    1    3    3  501    0  0.14946664049E+03 -0.12816895473E+03 -0.88808387907E+03  0.90964857711E+03  0.00000000000E+00 0.  1.
         21    1    1    2  502  501  0.12644488734E-04 -0.13987646420E-05 -0.68324780049E-05  0.14440304483E-04  0.00000000000E+00 0.  1.
<mgrwt>
<rscale>  1 0.65303826E+03</rscale>
<asrwt>0</asrwt>
<pdfrwt beam="1">  1        1 0.38769080E+00 0.65303826E+03</pdfrwt>
<pdfrwt beam="2">0</pdfrwt>
<totfact> 0.15165546E+00</totfact>
</mgrwt>
</event>
<event>
 6    1  0.2885140E-003  0.6561379E+03  0.7818608E-02  0.9795330E-01
          1   -1    0    0  502    0  0.00000000000E+00  0.00000000000E+00  0.10762959523E+03  0.10762959523E+03  0.00000000000E+00 0.  1.
         13   -1    0    0    0    0 -0.00000000000E+00 -0.00000000000E+00 -0.10000000000E+04  0.10000000000E+04  0.00000000000E+00 0.  1.
    9000005    2    1    2  501    0 -0.45735784499E-03 -0.26252871825E-03 -0.89236719856E+03  0.11076263459E+04  0.65613787056E+03 0.  0.
         13    1    3    3    0    0  0.26578516813E+03 -0.16240818924E+03 -0.62007389458E+03  0.69390907925E+03  0.00000000000E+00 0.  1.
          3    1    3    3  501    0 -0.26578562548E+03  0.16240792671E+03 -0.27229330398E+03  0.41371726670E+03  0.00000000000E+00 0.  1.
         21    1    1    2  502  501  0.45735784499E-03  0.26252871825E-03 -0.32062062553E-02  0.32492854719E-02  0.00000000000E+00 0.  1.
<mgrwt>
<rscale>  1 0.65613787E+03</rscale>
<asrwt>0</asrwt>
<pdfrwt beam="1">  1        1 0.39138117E+00 0.65613787E+03</pdfrwt>
<pdfrwt beam="2">0</pdfrwt>
<totfact> 0.14596426E+00</totfact>
</mgrwt>
</event>
<event>
 6    1  0.2885140E-003  0.6522481E+03  0.7818608E-02  0.9802570E-01
          1   -1    0    0  502    0  0.00000000000E+00  0.00000000000E+00  0.10635696097E+03  0.10635696097E+03  0.00000000000E+00 0.  1.
         13   -1    0    0    0    0 -0.00000000000E+00 -0.00000000000E+00 -0.10000000000E+04  0.10000000000E+04  0.00000000000E+00 0.  1.
    9000005    2    1    2  501    0 -0.13600929776E-04 -0.51674360662E-04 -0.89364309551E+03  0.11063568832E+04  0.65224808998E+03 0.  0.
         13    1    3    3    0    0 -0.27641887161E+03  0.14427146810E+03 -0.28469937105E+03  0.42222669381E+03  0.00000000000E+00 0.  1.
          1    1    3    3  501    0  0.27641885801E+03 -0.14427151978E+03 -0.60894372447E+03  0.68413018940E+03  0.00000000000E+00 0.  1.
         21    1    1    2  502  501  0.13600929773E-04  0.51674360666E-04  0.56481300794E-04  0.77751927181E-04  0.00000000000E+00 0.  1.
<mgrwt>
<rscale>  1 0.65224809E+03</rscale>
<asrwt>0</asrwt>
<pdfrwt beam="1">  1        1 0.38675340E+00 0.65224809E+03</pdfrwt>
<pdfrwt beam="2">0</pdfrwt>
<totfact> 0.15313436E+00</totfact>
</mgrwt>
</event>
<event>
 6    1  0.2885140E-003  0.6564917E+03  0.7818608E-02  0.9794674E-01
          1   -1    0    0  502    0  0.00000000000E+00  0.00000000000E+00  0.11149336412E+03  0.11149336412E+03  0.00000000000E+00 0.  1.
         13   -1    0    0    0    0 -0.00000000000E+00 -0.00000000000E+00 -0.10000000000E+04  0.10000000000E+04  0.00000000000E+00 0.  1.
    9000005    2    1    2  501    0 -0.20347007497E+00  0.10650721029E+00 -0.89225074967E+03  0.11077422134E+04  0.65649170465E+03 0.  0.
         13    1    3    3    0    0  0.55257168965E+02 -0.23656642700E+03 -0.81838810598E+03  0.85368385314E+03  0.00000000000E+00 0.  1.
          3    1    3    3  501    0 -0.55460639040E+02  0.23667293421E+03 -0.73862643685E+02  0.25405836023E+03  0.00000000000E+00 0.  1.
         21    1    1    2  502  501  0.20347007497E+00 -0.10650721029E+00  0.37441137816E+01  0.37511507390E+01  0.00000000000E+00 0.  1.
<mgrwt>
<rscale>  1 0.65649174E+03</rscale>
<asrwt>0</asrwt>
<pdfrwt beam="1">  1        1 0.40543127E+00 0.65649174E+03</pdfrwt>
<pdfrwt beam="2">0</pdfrwt>
<totfact> 0.12636596E+00</totfact>
</mgrwt>
</event>
<event>
 6    1  0.2885140E-003  0.6685827E+03  0.7818608E-02  0.9772522E-01
          1   -1    0    0  502    0  0.00000000000E+00  0.00000000000E+00  0.11175072536E+03  0.11175072536E+03  0.00000000000E+00 0.  1.
         13   -1    0    0    0    0 -0.00000000000E+00 -0.00000000000E+00 -0.10000000000E+04  0.10000000000E+04  0.00000000000E+00 0.  1.
    9000005    2    1    2  501    0  0.16482291358E-04 -0.76044252069E-05 -0.88824930069E+03  0.11117506936E+04  0.66858266845E+03 0.  0.
         13    1    3    3    0    0  0.27207133916E+03  0.17701660861E+03 -0.31116960301E+03  0.44964899106E+03  0.00000000000E+00 0.  1.
          1    1    3    3  501    0 -0.27207132268E+03 -0.17701661622E+03 -0.57707969768E+03  0.66210170255E+03  0.00000000000E+00 0.  1.
         21    1    1    2  502  501 -0.16482291363E-04  0.76044252106E-05  0.26052272052E-04  0.31752387161E-04  0.00000000000E+00 0. -1.
<mgrwt>
<rscale>  1 0.66858267E+03</rscale>
<asrwt>0</asrwt>
<pdfrwt beam="1">  1        1 0.40636713E+00 0.66858267E+03</pdfrwt>
<pdfrwt beam="2">0</pdfrwt>
<totfact> 0.12486741E+00</totfact>
</mgrwt>
</event>
<event>
 6    1  0.2885140E-003  0.6547291E+03  0.7818608E-02  0.9797946E-01
          1   -1    0    0  502    0  0.00000000000E+00  0.00000000000E+00  0.10738476685E+03  0.10738476685E+03  0.00000000000E+00 0.  1.
         13   -1    0    0    0    0 -0.00000000000E+00 -0.00000000000E+00 -0.10000000000E+04  0.10000000000E+04  0.00000000000E+00 0.  1.
    9000005    2    1    2  501    0 -0.37254256799E-01 -0.30590202205E-01 -0.89282949107E+03  0.11071651533E+04  0.65472908468E+03 0.  0.
         13    1    3    3    0    0  0.12430662300E+03  0.13069217843E+03 -0.90834873975E+03  0.92608315773E+03  0.00000000000E+00 0.  1.
          3    1    3    3  501    0 -0.12434387726E+03 -0.13072276864E+03  0.15519248688E+02  0.18108199560E+03  0.00000000000E+00 0.  1.
         21    1    1    2  502  501  0.37254256799E-01  0.30590202205E-01  0.21425791723E+00  0.21961351329E+00  0.00000000000E+00 0.  1.
<mgrwt>
<rscale>  1 0.65472909E+03</rscale>
<asrwt>0</asrwt>
<pdfrwt beam="1">  1        1 0.39049088E+00 0.65472909E+03</pdfrwt>
<pdfrwt beam="2">0</pdfrwt>
<totfact> 0.14733647E+00</totfact>
</mgrwt>
</event>
<event>
 6    1  0.2885140E-003  0.6558054E+03  0.7818608E-02  0.9795946E-01
          1   -1    0    0  502    0  0.00000000000E+00  0.00000000000E+00  0.11360914355E+03  0.11360914355E+03  0.00000000000E+00 0.  1.
         13   -1    0    0    0    0 -0.00000000000E+00 -0.00000000000E+00 -0.10000000000E+04  0.10000000000E+04  0.00000000000E+00 0.  1.
    9000005    2    1    2  501    0 -0.74243381110E+00  0.75270563198E+00 -0.89242893489E+03  0.11074792035E+04  0.65580459328E+03 0.  0.
         13    1    3    3    0    0 -0.17798686617E+03  0.27080365638E+03 -0.35688458149E+03  0.48205865758E+03  0.00000000000E+00 0.  1.
          1    1    3    3  501    0  0.17724443236E+03 -0.27005095075E+03 -0.53554435340E+03  0.62542054592E+03  0.00000000000E+00 0.  1.
         21    1    1    2  502  501  0.74243381110E+00 -0.75270563198E+00  0.60380784438E+01  0.61299400508E+01  0.00000000000E+00 0.  1.
<mgrwt>
<rscale>  1 0.65580545E+03</rscale>
<asrwt>0</asrwt>
<pdfrwt beam="1">  1        1 0.41312503E+00 0.65580545E+03</pdfrwt>
<pdfrwt beam="2">0</pdfrwt>
<totfact> 0.11673640E+00</totfact>
</mgrwt>
</event>
<event>
 6    1  0.2885140E-003  0.6553797E+03  0.7818608E-02  0.9796737E-01
          1   -1    0    0  502    0  0.00000000000E+00  0.00000000000E+00  0.10777098347E+03  0.10777098347E+03  0.00000000000E+00 0.  1.
         13   -1    0    0    0    0 -0.00000000000E+00 -0.00000000000E+00 -0.10000000000E+04  0.10000000000E+04  0.00000000000E+00 0.  1.
    9000005    2    1    2  501    0  0.81434990096E+00 -0.31733398060E+00 -0.89197411079E+03  0.11068605750E+04  0.65537909208E+03 0.  0.
         13    1    3    3    0    0  0.29770742106E+03 -0.10563617283E+03 -0.29675542774E+03  0.43341953515E+03  0.00000000000E+00 0.  1.
          1    1    3    3  501    0 -0.29689307116E+03  0.10531883884E+03 -0.59521868305E+03  0.67344103986E+03  0.00000000000E+00 0.  1.
         21    1    1    2  502  501 -0.81434990096E+00  0.31733398060E+00 -0.25490574317E+00  0.91040845468E+00  0.00000000000E+00 0. -1.
<mgrwt>
<rscale>  1 0.65537967E+03</rscale>
<asrwt>0</asrwt>
<pdfrwt beam="1">  1        1 0.39189531E+00 0.65537967E+03</pdfrwt>
<pdfrwt beam="2">0</pdfrwt>
<totfact> 0.14521973E+00</totfact>
</mgrwt>
</event>
<event>
 6    1  0.2885140E-003  0.6552291E+03  0.7818608E-02  0.9797016E-01
          1   -1    0    0  502    0  0.00000000000E+00  0.00000000000E+00  0.10733680022E+03  0.10733680022E+03  0.00000000000E+00 0.  1.
         13   -1    0    0    0    0 -0.00000000000E+00 -0.00000000000E+00 -0.10000000000E+04  0.10000000000E+04  0.00000000000E+00 0.  1.
    9000005    2    1    2  501    0  0.69958469446E-02 -0.10771076303E-02 -0.89266606207E+03  0.11073291651E+04  0.65522910612E+03 0.  0.
         13    1    3    3    0    0 -0.28935702848E+03  0.21814445887E+02 -0.70332855977E+03  0.76083797418E+03  0.00000000000E+00 0.  1.
          3    1    3    3  501    0  0.28936402433E+03 -0.21815522994E+02 -0.18933750230E+03  0.34649119093E+03  0.00000000000E+00 0.  1.
         21    1    1    2  502  501 -0.69958469447E-02  0.10771076303E-02  0.28622821017E-02  0.76350962109E-02  0.00000000000E+00 0.  1.
<mgrwt>
<rscale>  1 0.65522911E+03</rscale>
<asrwt>0</asrwt>
<pdfrwt beam="1">  1        1 0.39031646E+00 0.65522911E+03</pdfrwt>
<pdfrwt beam="2">0</pdfrwt>
<totfact> 0.14758549E+00</totfact>
</mgrwt>
</event>
<event>
 6    1  0.2885140E-003  0.6298484E+03  0.7818608E-02  0.9845345E-01
          1   -1    0    0  502    0  0.00000000000E+00  0.00000000000E+00  0.99191150061E+02  0.99191150061E+02  0.00000000000E+00 0.  1.
         13   -1    0    0    0    0 -0.00000000000E+00 -0.00000000000E+00 -0.10000000000E+04  0.10000000000E+04  0.00000000000E+00 0.  1.
    9000005    2    1    2  501    0  0.56106694804E-02 -0.14731793522E-01 -0.90081767809E+03  0.10991730824E+04  0.62984837508E+03 0.  0.
         13    1    3    3    0    0  0.21632696610E+03 -0.14080477681E+02 -0.51759286751E+02  0.22287808299E+03  0.00000000000E+00 0.  1.
          1    1    3    3  501    0 -0.21632135543E+03  0.14065745888E+02 -0.84905839134E+03  0.87629499937E+03  0.00000000000E+00 0.  1.
         21    1    1    2  502  501 -0.56106694804E-02  0.14731793522E-01  0.88281515475E-02  0.18067695263E-01  0.00000000000E+00 0. -1.
<mgrwt>
<rscale>  1 0.62984838E+03</rscale>
<asrwt>0</asrwt>
<pdfrwt beam="1">  1        1 0.36069585E+00 0.62984838E+03</pdfrwt>
<pdfrwt beam="2">0</pdfrwt>
<totfact> 0.20021559E+00</totfact>
</mgrwt>
</event>
<event>
 6    1  0.2885140E-003  0.6554061E+03  0.7818608E-02  0.9796688E-01
          1   -1    0    0  502    0  0.00000000000E+00  0.00000000000E+00  0.10738929854E+03  0.10738929854E+03  0.00000000000E+00 0.  1.
         13   -1    0    0    0    0 -0.00000000000E+00 -0.00000000000E+00 -0.10000000000E+04  0.10000000000E+04  0.00000000000E+00 0.  1.
    9000005    2    1    2  501    0 -0.50007317043E-05 -0.14048032710E-05 -0.89261071257E+03  0.11073892863E+04  0.65540609332E+03 0.  0.
         13    1    3    3    0    0 -0.24675091556E+03 -0.14741297143E+03 -0.71224092605E+03  0.76805190920E+03  0.00000000000E+00 0.  1.
          3    1    3    3  501    0  0.24675091056E+03  0.14741297002E+03 -0.18036978652E+03  0.33933737708E+03  0.00000000000E+00 0.  1.
         21    1    1    2  502  501  0.50007316926E-05  0.14048032511E-05  0.11117062395E-04  0.12270691339E-04  0.00000000000E+00 0. -1.
<mgrwt>
<rscale>  1 0.65540609E+03</rscale>
<asrwt>0</asrwt>
<pdfrwt beam="1">  1        1 0.39050736E+00 0.65540609E+03</pdfrwt>
<pdfrwt beam="2">0</pdfrwt>
<totfact> 0.14729317E+00</totfact>
</mgrwt>
</event>
<event>
 6    1  0.2885140E-003  0.6572124E+03  0.7818608E-02  0.9793339E-01
          1   -1    0    0  502    0  0.00000000000E+00  0.00000000000E+00  0.10800726752E+03  0.10800726752E+03  0.00000000000E+00 0.  1.
         13   -1    0    0    0    0 -0.00000000000E+00 -0.00000000000E+00 -0.10000000000E+04  0.10000000000E+04  0.00000000000E+00 0.  1.
    9000005    2    1    2  501    0 -0.26987303729E-01 -0.18577276854E-01 -0.89200561153E+03  0.11079720638E+04  0.65721235698E+03 0.  0.
         13    1    3    3    0    0  0.15210674613E+02 -0.87067819100E+02  0.87568161542E+02  0.12442006535E+03  0.00000000000E+00 0.  1.
          1    1    3    3  501    0 -0.15237661916E+02  0.87049241823E+02 -0.97957377307E+03  0.98355199849E+03  0.00000000000E+00 0.  1.
         21    1    1    2  502  501  0.26987303729E-01  0.18577276854E-01  0.12879044090E-01  0.35203686661E-01  0.00000000000E+00 0. -1.
<mgrwt>
<rscale>  1 0.65721236E+03</rscale>
<asrwt>0</asrwt>
<pdfrwt beam="1">  1        1 0.39275453E+00 0.65721236E+03</pdfrwt>
<pdfrwt beam="2">0</pdfrwt>
<totfact> 0.14390058E+00</totfact>
</mgrwt>
</event>
<event>
 6    1  0.2885140E-003  0.6463256E+03  0.7818608E-02  0.9813699E-01
          1   -1    0    0  502    0  0.00000000000E+00  0.00000000000E+00  0.10508231767E+03  0.10508231767E+03  0.00000000000E+00 0.  1.
         13   -1    0    0    0    0 -0.00000000000E+00 -0.00000000000E+00 -0.10000000000E+04  0.10000000000E+04  0.00000000000E+00 0.  1.
    9000005    2    1    2  501    0  0.15659376748E+00  0.38761045239E-01 -0.89555470967E+03  0.11044251816E+04  0.64632555083E+03 0.  0.
         13    1    3    3    0    0 -0.69119189946E+02 -0.31557253980E+03 -0.43593508094E+03  0.54258905729E+03  0.00000000000E+00 0.  1.
          3    1    3    3  501    0  0.69275783713E+02  0.31561130085E+03 -0.45961962873E+03  0.56183612428E+03  0.00000000000E+00 0.  1.
         21    1    1    2  502  501 -0.15659376748E+00 -0.38761045239E-01  0.63702733525E+00  0.65713609891E+00  0.00000000000E+00 0. -1.
<mgrwt>
<rscale>  1 0.64632557E+03</rscale>
<asrwt>0</asrwt>
<pdfrwt beam="1">  1        1 0.38211832E+00 0.64632557E+03</pdfrwt>
<pdfrwt beam="2">0</pdfrwt>
<totfact> 0.16071021E+00</totfact>
</mgrwt>
</event>
<event>
 6    1  0.2885140E-003  0.6380313E+03  0.7818608E-02  0.9829500E-01
          1   -1    0    0  502    0  0.00000000000E+00  0.00000000000E+00  0.10177643268E+03  0.10177643268E+03  0.00000000000E+00 0.  1.
         13   -1    0    0    0    0 -0.00000000000E+00 -0.00000000000E+00 -0.10000000000E+04  0.10000000000E+04  0.00000000000E+00 0.  1.
    9000005    2    1    2  501    0 -0.62366420719E-02  0.38843576830E-02 -0.89822614696E+03  0.11017686456E+04  0.63803129805E+03 0.  0.
         13    1    3    3    0    0 -0.28816818638E+03 -0.60506759980E+02 -0.66110552453E+03  0.72371436784E+03  0.00000000000E+00 0.  1.
          3    1    3    3  501    0  0.28816194974E+03  0.60510644337E+02 -0.23712062243E+03  0.37805427777E+03  0.00000000000E+00 0.  1.
         21    1    1    2  502  501  0.62366420718E-02 -0.38843576830E-02  0.25796438392E-02  0.77870727028E-02  0.00000000000E+00 0.  1.
<mgrwt>
<rscale>  1 0.63803130E+03</rscale>
<asrwt>0</asrwt>
<pdfrwt beam="1">  1        1 0.37009690E+00 0.63803130E+03</pdfrwt>
<pdfrwt beam="2">0</pdfrwt>
<totfact> 0.18182216E+00</totfact>
</mgrwt>
</event>
<event>
 6    1  0.3450532E-003  0.6609194E+03  0.7818608E-02  0.9786503E-01
          1   -1    0    0  502    0  0.00000000000E+00  0.00000000000E+00  0.10920363419E+03  0.10920363419E+03  0.00000000000E+00 0.  1.
         13   -1    0    0    0    0 -0.00000000000E+00 -0.00000000000E+00 -0.10000000000E+04  0.10000000000E+04  0.00000000000E+00 0.  1.
    9000005    2    1    2  501    0 -0.35639988097E-04 -0.36665252239E-05 -0.89079637694E+03  0.11092035967E+04  0.66091938516E+03 0.  0.
         13    1    3    3    0    0 -0.41156141938E+01 -0.42335781716E+02  0.10459017322E+03  0.11290864018E+03  0.00000000000E+00 0.  1.
          3    1    3    3  501    0  0.41155785539E+01  0.42335778049E+02 -0.99538655016E+03  0.99629495649E+03  0.00000000000E+00 0.  1.
         21    1    1    2  502  501  0.35639988097E-04  0.36665252191E-05  0.11130297194E-04  0.37517138408E-04  0.00000000000E+00 0. -1.
<mgrwt>
<rscale>  1 0.66091939E+03</rscale>
<asrwt>0</asrwt>
<pdfrwt beam="1">  1        1 0.39710496E+00 0.66091939E+03</pdfrwt>
<pdfrwt beam="2">0</pdfrwt>
<totfact> 0.13753645E+00</totfact>
</mgrwt>
</event>
<event>
 6    1  0.2885140E-003  0.6572652E+03  0.7818608E-02  0.9793241E-01
          1   -1    0    0  502    0  0.00000000000E+00  0.00000000000E+00  0.10799953895E+03  0.10799953895E+03  0.00000000000E+00 0.  1.
         13   -1    0    0    0    0 -0.00000000000E+00 -0.00000000000E+00 -0.10000000000E+04  0.10000000000E+04  0.00000000000E+00 0.  1.
    9000005    2    1    2  501    0 -0.11706667436E-03 -0.65620468575E-04 -0.89200059533E+03  0.11079993491E+04  0.65726516379E+03 0.  0.
         13    1    3    3    0    0  0.23529037844E+03  0.18046395437E+03 -0.20717600684E+03  0.36173291090E+03  0.00000000000E+00 0.  1.
          3    1    3    3  501    0 -0.23529049551E+03 -0.18046401999E+03 -0.68482458849E+03  0.74626643821E+03  0.00000000000E+00 0.  1.
         21    1    1    2  502  501  0.11706667437E-03  0.65620468584E-04  0.13428233024E-03  0.18984835095E-03  0.00000000000E+00 0. -1.
<mgrwt>
<rscale>  1 0.65726516E+03</rscale>
<asrwt>0</asrwt>
<pdfrwt beam="1">  1        1 0.39272642E+00 0.65726516E+03</pdfrwt>
<pdfrwt beam="2">0</pdfrwt>
<totfact> 0.14394053E+00</totfact>
</mgrwt>
</event>
<event>
 6    1  0.2885140E-003  0.6541280E+03  0.7818608E-02  0.9799064E-01
          1   -1    0    0  502    0  0.00000000000E+00  0.00000000000E+00  0.10697102084E+03  0.10697102084E+03  0.00000000000E+00 0.  1.
         13   -1    0    0    0    0 -0.00000000000E+00 -0.00000000000E+00 -0.10000000000E+04  0.10000000000E+04  0.00000000000E+00 0.  1.
    9000005    2    1    2  501    0 -0.26150891870E-04 -0.23139959481E-04 -0.89302912707E+03  0.11069708689E+04  0.65412803235E+03 0.  0.
         13    1    3    3    0    0 -0.27407760308E+03  0.25432674785E+02 -0.14757103969E+03  0.31231805137E+03  0.00000000000E+00 0.  1.
          1    1    3    3  501    0  0.27407757693E+03 -0.25432697925E+02 -0.74545808739E+03  0.79465281749E+03  0.00000000000E+00 0.  1.
         21    1    1    2  502  501  0.26150891874E-04  0.23139959480E-04  0.14790964613E-03  0.15197562399E-03  0.00000000000E+00 0.  1.
<mgrwt>
<rscale>  1 0.65412803E+03</rscale>
<asrwt>0</asrwt>
<pdfrwt beam="1">  1        1 0.38898635E+00 0.65412803E+03</pdfrwt>
<pdfrwt beam="2">0</pdfrwt>
<totfact> 0.14963389E+00</totfact>
</mgrwt>
</event>
<event>
 6    1  0.2885140E-003  0.6490438E+03  0.7818608E-02  0.9808575E-01
          1   -1    0    0  502    0  0.00000000000E+00  0.00000000000E+00  0.10539354972E+03  0.10539354972E+03  0.00000000000E+00 0.  1.
         13   -1    0    0    0    0 -0.00000000000E+00 -0.00000000000E+00 -0.10000000000E+04  0.10000000000E+04  0.00000000000E+00 0.  1.
    9000005    2    1    2  501    0 -0.61532311986E-03  0.16404517731E-02 -0.89468551296E+03  0.11053144676E+04  0.64904383924E+03 0.  0.
         13    1    3    3    0    0  0.15259010789E+03 -0.17948673367E+03 -0.67247701529E+02  0.24499282020E+03  0.00000000000E+00 0.  1.
          3    1    3    3  501    0 -0.15259072322E+03  0.17948837412E+03 -0.82743781143E+03  0.86032164743E+03  0.00000000000E+00 0.  1.
         21    1    1    2  502  501  0.61532311984E-03 -0.16404517731E-02  0.79062679911E-01  0.79082090635E-01  0.00000000000E+00 0.  1.
<mgrwt>
<rscale>  1 0.64904384E+03</rscale>
<asrwt>0</asrwt>
<pdfrwt beam="1">  1        1 0.38325008E+00 0.64904384E+03</pdfrwt>
<pdfrwt beam="2">0</pdfrwt>
<totfact> 0.15879093E+00</totfact>
</mgrwt>
</event>
<event>
 6    1  0.2885140E-003  0.6478814E+03  0.7818608E-02  0.9810763E-01
          1   -1    0    0  502    0  0.00000000000E+00  0.00000000000E+00  0.10703184734E+03  0.10703184734E+03  0.00000000000E+00 0.  1.
         13   -1    0    0    0    0 -0.00000000000E+00 -0.00000000000E+00 -0.10000000000E+04  0.10000000000E+04  0.00000000000E+00 0.  1.
    9000005    2    1    2  501    0  0.20580261868E+00  0.34352263718E+00 -0.89504125439E+03  0.11049204229E+04  0.64788126494E+03 0.  0.
         13    1    3    3    0    0 -0.20044231138E+03  0.50078655198E+02 -0.87290103060E+03  0.89701794917E+03  0.00000000000E+00 0.  1.
          1    1    3    3  501    0  0.20064811400E+03 -0.49735132561E+02 -0.22140223785E+02  0.20790247371E+03  0.00000000000E+00 0.  1.
         21    1    1    2  502  501 -0.20580261868E+00 -0.34352263718E+00  0.20731017217E+01  0.21114244644E+01  0.00000000000E+00 0. -1.
<mgrwt>
<rscale>  1 0.64788139E+03</rscale>
<asrwt>0</asrwt>
<pdfrwt beam="1">  1        1 0.38920754E+00 0.64788139E+03</pdfrwt>
<pdfrwt beam="2">0</pdfrwt>
<totfact> 0.14947009E+00</totfact>
</mgrwt>
</event>
<event>
 6    1  0.2885140E-003  0.6459125E+03  0.7818608E-02  0.9814479E-01
          1   -1    0    0  502    0  0.00000000000E+00  0.00000000000E+00  0.10467464795E+03  0.10467464795E+03  0.00000000000E+00 0.  1.
         13   -1    0    0    0    0 -0.00000000000E+00 -0.00000000000E+00 -0.10000000000E+04  0.10000000000E+04  0.00000000000E+00 0.  1.
    9000005    2    1    2  501    0  0.50121403336E-01 -0.23663454009E-01 -0.89569698066E+03  0.11042989088E+04  0.64591252941E+03 0.  0.
         13    1    3    3    0    0 -0.29871165091E+03  0.55176641977E+02 -0.26043967916E+03  0.40012740308E+03  0.00000000000E+00 0.  1.
          1    1    3    3  501    0  0.29876177231E+03 -0.55200305431E+02 -0.63525730150E+03  0.70417150569E+03  0.00000000000E+00 0.  1.
         21    1    1    2  502  501 -0.50121403336E-01  0.23663454009E-01  0.37162861082E+00  0.37573918947E+00  0.00000000000E+00 0. -1.
<mgrwt>
<rscale>  1 0.64591253E+03</rscale>
<asrwt>0</asrwt>
<pdfrwt beam="1">  1        1 0.38063589E+00 0.64591253E+03</pdfrwt>
<pdfrwt beam="2">0</pdfrwt>
<totfact> 0.16316293E+00</totfact>
</mgrwt>
</event>
<event>
 6    1  0.6604712E-003  0.4750147E+03  0.7818608E-02  0.1020514E+00
          3   -1    0    0  502    0  0.00000000000E+00  0.00000000000E+00  0.56409742774E+02  0.56409742774E+02  0.00000000000E+00 0.  1.
         13   -1    0    0    0    0 -0.00000000000E+00 -0.00000000000E+00 -0.10000000000E+04  0.10000000000E+04  0.00000000000E+00 0.  1.
    9000005    2    1    2  501    0  0.34564391456E-05 -0.20002861447E-05 -0.94359025580E+03  0.10564097385E+04  0.47501469959E+03 0.  0.
         13    1    3    3    0    0  0.22783286283E+03  0.61567054697E+02 -0.41247661250E+03  0.47522128684E+03  0.00000000000E+00 0.  1.
          3    1    3    3  501    0 -0.22783285937E+03 -0.61567056697E+02 -0.53111364330E+03  0.58118845169E+03  0.00000000000E+00 0.  1.
         21    1    1    2  502  501 -0.34564391358E-05  0.20002861457E-05 -0.14231865331E-05  0.42395254537E-05  0.00000000000E+00 0.  1.
<mgrwt>
<rscale>  1 0.47501470E+03</rscale>
<asrwt>0</asrwt>
<pdfrwt beam="1">  1        3 0.20512677E+00 0.47501470E+03</pdfrwt>
<pdfrwt beam="2">0</pdfrwt>
<totfact> 0.71317821E-01</totfact>
</mgrwt>
</event>
<event>
 6    1  0.2885140E-003  0.6504391E+03  0.7818608E-02  0.9805956E-01
          1   -1    0    0  502    0  0.00000000000E+00  0.00000000000E+00  0.10576786165E+03  0.10576786165E+03  0.00000000000E+00 0.  1.
         13   -1    0    0    0    0 -0.00000000000E+00 -0.00000000000E+00 -0.10000000000E+04  0.10000000000E+04  0.00000000000E+00 0.  1.
    9000005    2    1    2  501    0 -0.33418105900E-04  0.26832943149E-04 -0.89423224502E+03  0.11057677467E+04  0.65043908370E+03 0.  0.
         13    1    3    3    0    0  0.43761007442E+02 -0.31506292046E+03 -0.33196387300E+03  0.45976046220E+03  0.00000000000E+00 0.  1.
          1    1    3    3  501    0 -0.43761040860E+02  0.31506294730E+03 -0.56226837202E+03  0.64600728450E+03  0.00000000000E+00 0.  1.
         21    1    1    2  502  501  0.33418105901E-04 -0.26832943161E-04  0.10666200181E-03  0.11495024694E-03  0.00000000000E+00 0.  1.
<mgrwt>
<rscale>  1 0.65043908E+03</rscale>
<asrwt>0</asrwt>
<pdfrwt beam="1">  1        1 0.38461122E+00 0.65043908E+03</pdfrwt>
<pdfrwt beam="2">0</pdfrwt>
<totfact> 0.15656567E+00</totfact>
</mgrwt>
</event>
<event>
 6    1  0.2885140E-003  0.6383879E+03  0.7818608E-02  0.9828816E-01
          1   -1    0    0  502    0  0.00000000000E+00  0.00000000000E+00  0.10188948965E+03  0.10188948965E+03  0.00000000000E+00 0.  1.
         13   -1    0    0    0    0 -0.00000000000E+00 -0.00000000000E+00 -0.10000000000E+04  0.10000000000E+04  0.00000000000E+00 0.  1.
    9000005    2    1    2  501    0  0.52480809707E-02  0.48629538998E-02 -0.89811203934E+03  0.11018821733E+04  0.63838788261E+03 0.  0.
         13    1    3    3    0    0  0.45420265048E+02 -0.23451518498E+03 -0.83624709029E+02  0.25308785910E+03  0.00000000000E+00 0.  1.
          1    1    3    3  501    0 -0.45415016967E+02  0.23452004794E+03 -0.81448733031E+03  0.84879431424E+03  0.00000000000E+00 0.  1.
         21    1    1    2  502  501 -0.52480809707E-02 -0.48629538998E-02  0.15289884605E-02  0.73163160279E-02  0.00000000000E+00 0.  1.
<mgrwt>
<rscale>  1 0.63838788E+03</rscale>
<asrwt>0</asrwt>
<pdfrwt beam="1">  1        1 0.37050802E+00 0.63838788E+03</pdfrwt>
<pdfrwt beam="2">0</pdfrwt>
<totfact> 0.18105595E+00</totfact>
</mgrwt>
</event>
<event>
 6    1  0.2885140E-003  0.6470178E+03  0.7818608E-02  0.9812391E-01
          1   -1    0    0  502    0  0.00000000000E+00  0.00000000000E+00  0.11571201946E+03  0.11571201946E+03  0.00000000000E+00 0.  1.
         13   -1    0    0    0    0 -0.00000000000E+00 -0.00000000000E+00 -0.10000000000E+04  0.10000000000E+04  0.00000000000E+00 0.  1.
    9000005    2    1    2  501    0  0.26905881439E+00 -0.16846648036E+01 -0.89526923722E+03  0.11045990322E+04  0.64701553634E+03 0.  0.
         13    1    3    3    0    0  0.85869814286E+02 -0.25382212690E+03 -0.76017252687E+03  0.80601586071E+03  0.00000000000E+00 0.  1.
          3    1    3    3  501    0 -0.85600755472E+02  0.25213746210E+03 -0.13509671036E+03  0.29858317146E+03  0.00000000000E+00 0.  1.
         21    1    1    2  502  501 -0.26905881439E+00  0.16846648036E+01  0.10981256683E+02  0.11112987289E+02  0.00000000000E+00 0.  1.
<mgrwt>
<rscale>  1 0.64701779E+03</rscale>
<asrwt>0</asrwt>
<pdfrwt beam="1">  1        1 0.42077187E+00 0.64701779E+03</pdfrwt>
<pdfrwt beam="2">0</pdfrwt>
<totfact> 0.10802673E+00</totfact>
</mgrwt>
</event>
<event>
 6    1  0.2885140E-003  0.6560196E+03  0.7818608E-02  0.9795549E-01
          1   -1    0    0  502    0  0.00000000000E+00  0.00000000000E+00  0.10759051670E+03  0.10759051670E+03  0.00000000000E+00 0.  1.
         13   -1    0    0    0    0 -0.00000000000E+00 -0.00000000000E+00 -0.10000000000E+04  0.10000000000E+04  0.00000000000E+00 0.  1.
    9000005    2    1    2  501    0  0.19993546977E-03  0.48317743676E-04 -0.89240936395E+03  0.11075902789E+04  0.65601962853E+03 0.  0.
         13    1    3    3    0    0 -0.17450221033E+03 -0.27599293718E+03 -0.49871379895E+03  0.59610282339E+03  0.00000000000E+00 0.  1.
          1    1    3    3  501    0  0.17450241027E+03  0.27599298550E+03 -0.39369556500E+03  0.51148745550E+03  0.00000000000E+00 0.  1.
         21    1    1    2  502  501 -0.19993546976E-03 -0.48317743648E-04 -0.11934953912E-03  0.23780897567E-03  0.00000000000E+00 0.  1.
<mgrwt>
<rscale>  1 0.65601963E+03</rscale>
<asrwt>0</asrwt>
<pdfrwt beam="1">  1        1 0.39123907E+00 0.65601963E+03</pdfrwt>
<pdfrwt beam="2">0</pdfrwt>
<totfact> 0.14617958E+00</totfact>
</mgrwt>
</event>
<event>
 6    1  0.2885140E-003  0.6599046E+03  0.7818608E-02  0.9788369E-01
          1   -1    0    0  502    0  0.00000000000E+00  0.00000000000E+00  0.10886855335E+03  0.10886855335E+03  0.00000000000E+00 0.  1.
         13   -1    0    0    0    0 -0.00000000000E+00 -0.00000000000E+00 -0.10000000000E+04  0.10000000000E+04  0.00000000000E+00 0.  1.
    9000005    2    1    2  501    0 -0.23280241948E-04  0.92166726517E-06 -0.89113146280E+03  0.11088685250E+04  0.65990463079E+03 0.  0.
         13    1    3    3    0    0 -0.38982449313E+02 -0.31146626836E+03 -0.61641380120E+03  0.69173466155E+03  0.00000000000E+00 0.  1.
          3    1    3    3  501    0  0.38982426033E+02  0.31146626928E+03 -0.27471766160E+03  0.41713386345E+03  0.00000000000E+00 0.  1.
         21    1    1    2  502  501  0.23280241946E-04 -0.92166729300E-06  0.16156761737E-04  0.28352426448E-04  0.00000000000E+00 0.  1.
<mgrwt>
<rscale>  1 0.65990463E+03</rscale>
<asrwt>0</asrwt>
<pdfrwt beam="1">  1        1 0.39588648E+00 0.65990463E+03</pdfrwt>
<pdfrwt beam="2">0</pdfrwt>
<totfact> 0.13929094E+00</totfact>
</mgrwt>
</event>
<event>
 6    1  0.2885140E-003  0.6513437E+03  0.7818608E-02  0.9804261E-01
          1   -1    0    0  502    0  0.00000000000E+00  0.00000000000E+00  0.10615135730E+03  0.10615135730E+03  0.00000000000E+00 0.  1.
         13   -1    0    0    0    0 -0.00000000000E+00 -0.00000000000E+00 -0.10000000000E+04  0.10000000000E+04  0.00000000000E+00 0.  1.
    9000005    2    1    2  501    0 -0.13119595565E-02 -0.16047545669E-02 -0.89393782728E+03  0.11060621486E+04  0.65134371694E+03 0.  0.
         13    1    3    3    0    0  0.50185977417E+02 -0.26407137026E+03 -0.13472635295E+03  0.30067176638E+03  0.00000000000E+00 0.  1.
          3    1    3    3  501    0 -0.50187289376E+02  0.26406976551E+03 -0.75921147433E+03  0.80539038225E+03  0.00000000000E+00 0.  1.
         21    1    1    2  502  501  0.13119595565E-02  0.16047545670E-02  0.89184580810E-01  0.89208665103E-01  0.00000000000E+00 0. -1.
<mgrwt>
<rscale>  1 0.65134372E+03</rscale>
<asrwt>0</asrwt>
<pdfrwt beam="1">  1        1 0.38600575E+00 0.65134372E+03</pdfrwt>
<pdfrwt beam="2">0</pdfrwt>
<totfact> 0.15433152E+00</totfact>
</mgrwt>
</event>
<event>
 6    1  0.2885140E-003  0.6440620E+03  0.7818608E-02  0.9817986E-01
          1   -1    0    0  502    0  0.00000000000E+00  0.00000000000E+00  0.10388687933E+03  0.10388687933E+03  0.00000000000E+00 0.  1.
         13   -1    0    0    0    0 -0.00000000000E+00 -0.00000000000E+00 -0.10000000000E+04  0.10000000000E+04  0.00000000000E+00 0.  1.
    9000005    2    1    2  501    0  0.39056190067E-01 -0.34957119111E+00 -0.89608689872E+03  0.11035341571E+04  0.64406193959E+03 0.  0.
         13    1    3    3    0    0  0.28192851559E+03  0.10014577571E+03 -0.24405361411E+03  0.38610235800E+03  0.00000000000E+00 0.  1.
          1    1    3    3  501    0 -0.28188945940E+03 -0.10049534690E+03 -0.65203328461E+03  0.71743179907E+03  0.00000000000E+00 0.  1.
         21    1    1    2  502  501 -0.39056190067E-01  0.34957119111E+00 -0.26221945768E-01  0.35272226195E+00  0.00000000000E+00 0.  1.
<mgrwt>
<rscale>  1 0.64406204E+03</rscale>
<asrwt>0</asrwt>
<pdfrwt beam="1">  1        1 0.37777127E+00 0.64406204E+03</pdfrwt>
<pdfrwt beam="2">0</pdfrwt>
<totfact> 0.16803643E+00</totfact>
</mgrwt>
</event>
<event>
 6    1  0.2885140E-003  0.6471852E+03  0.7818608E-02  0.9812075E-01
          1   -1    0    0  502    0  0.00000000000E+00  0.00000000000E+00  0.10471225207E+03  0.10471225207E+03  0.00000000000E+00 0.  1.
         13   -1    0    0    0    0 -0.00000000000E+00 -0.00000000000E+00 -0.10000000000E+04  0.10000000000E+04  0.00000000000E+00 0.  1.
    9000005    2    1    2  501    0  0.12571677533E-03  0.28468114564E-04 -0.89528777196E+03  0.11047121209E+04  0.64718519416E+03 0.  0.
         13    1    3    3    0    0  0.21663381134E+03  0.12019981891E+03 -0.92311469365E+02  0.26438534766E+03  0.00000000000E+00 0.  1.
          1    1    3    3  501    0 -0.21663368562E+03 -0.12019979044E+03 -0.80297630260E+03  0.84032677329E+03  0.00000000000E+00 0.  1.
         21    1    1    2  502  501 -0.12571677532E-03 -0.28468114567E-04  0.24028062004E-04  0.13112013159E-03  0.00000000000E+00 0. -1.
<mgrwt>
<rscale>  1 0.64718519E+03</rscale>
<asrwt>0</asrwt>
<pdfrwt beam="1">  1        1 0.38077263E+00 0.64718519E+03</pdfrwt>
<pdfrwt beam="2">0</pdfrwt>
<totfact> 0.16289819E+00</totfact>
</mgrwt>
</event>
<event>
 6    1  0.3828883E-003  0.6738229E+03  0.7818608E-02  0.9763076E-01
          1   -1    0    0  502    0  0.00000000000E+00  0.00000000000E+00  0.11350932350E+03  0.11350932350E+03  0.00000000000E+00 0.  1.
         13   -1    0    0    0    0 -0.00000000000E+00 -0.00000000000E+00 -0.10000000000E+04  0.10000000000E+04  0.00000000000E+00 0.  1.
    9000005    2    1    2  501    0 -0.63977693117E-05  0.19019861384E-05 -0.88649068506E+03  0.11135093126E+04  0.67382286593E+03 0.  0.
         13    1    3    3    0    0  0.32037004470E+03 -0.96954235372E+02 -0.50665198408E+03  0.60723415769E+03  0.00000000000E+00 0.  1.
          3    1    3    3  501    0 -0.32037005109E+03  0.96954237274E+02 -0.37983870098E+03  0.50627515495E+03  0.00000000000E+00 0.  1.
         21    1    1    2  502  501  0.63977692744E-05 -0.19019861450E-05  0.85589783062E-05  0.10853806366E-04  0.00000000000E+00 0.  1.
<mgrwt>
<rscale>  1 0.67382287E+03</rscale>
<asrwt>0</asrwt>
<pdfrwt beam="1">  1        1 0.41276205E+00 0.67382287E+03</pdfrwt>
<pdfrwt beam="2">0</pdfrwt>
<totfact> 0.11677242E+00</totfact>
</mgrwt>
</event>
<event>
 6    1  0.2885140E-003  0.6459598E+03  0.7818608E-02  0.9814390E-01
          1   -1    0    0  502    0  0.00000000000E+00  0.00000000000E+00  0.10437943869E+03  0.10437943869E+03  0.00000000000E+00 0.  1.
         13   -1    0    0    0    0 -0.00000000000E+00 -0.00000000000E+00 -0.10000000000E+04  0.10000000000E+04  0.00000000000E+00 0.  1.
    9000005    2    1    2  501    0 -0.80484215684E-02 -0.64746867375E-02 -0.89568352220E+03  0.11043156361E+04  0.64595979136E+03 0.  0.
         13    1    3    3    0    0 -0.16600582795E+03 -0.77576847146E+02  0.68550035312E+01  0.18336600884E+03  0.00000000000E+00 0.  1.
          1    1    3    3  501    0  0.16599777952E+03  0.77570372459E+02 -0.90253852573E+03  0.92094962724E+03  0.00000000000E+00 0.  1.
         21    1    1    2  502  501  0.80484215684E-02  0.64746867375E-02  0.62960886806E-01  0.63802601244E-01  0.00000000000E+00 0.  1.
<mgrwt>
<rscale>  1 0.64595979E+03</rscale>
<asrwt>0</asrwt>
<pdfrwt beam="1">  1        1 0.37956240E+00 0.64595979E+03</pdfrwt>
<pdfrwt beam="2">0</pdfrwt>
<totfact> 0.16495078E+00</totfact>
</mgrwt>
</event>
<event>
 6    1  0.2885140E-003  0.6646228E+03  0.7818608E-02  0.9779721E-01
          1   -1    0    0  502    0  0.00000000000E+00  0.00000000000E+00  0.11044888452E+03  0.11044888452E+03  0.00000000000E+00 0.  1.
         13   -1    0    0    0    0 -0.00000000000E+00 -0.00000000000E+00 -0.10000000000E+04  0.10000000000E+04  0.00000000000E+00 0.  1.
    9000005    2    1    2  501    0 -0.88022925023E-02 -0.44868492710E-02 -0.88956762759E+03  0.11104296423E+04  0.66462276999E+03 0.  0.
         13    1    3    3    0    0  0.22820843650E+03  0.37464052577E+02 -0.46078203104E+02  0.23580891952E+03  0.00000000000E+00 0.  1.
          1    1    3    3  501    0 -0.22821723879E+03 -0.37468539426E+02 -0.84348942449E+03  0.87462072280E+03  0.00000000000E+00 0.  1.
         21    1    1    2  502  501  0.88022925023E-02  0.44868492710E-02  0.16512110546E-01  0.19242192296E-01  0.00000000000E+00 0. -1.
<mgrwt>
<rscale>  1 0.66462277E+03</rscale>
<asrwt>0</asrwt>
<pdfrwt beam="1">  1        1 0.40163315E+00 0.66462277E+03</pdfrwt>
<pdfrwt beam="2">0</pdfrwt>
<totfact> 0.13119932E+00</totfact>
</mgrwt>
</event>
<event>
 6    1  0.2885140E-003  0.5967335E+03  0.7818608E-02  0.9912206E-01
          1   -1    0    0  502    0  0.00000000000E+00  0.00000000000E+00  0.89022908723E+02  0.89022908723E+02  0.00000000000E+00 0.  1.
         13   -1    0    0    0    0 -0.00000000000E+00 -0.00000000000E+00 -0.10000000000E+04  0.10000000000E+04  0.00000000000E+00 0.  1.
    9000005    2    1    2  501    0  0.54855776142E-04  0.43936000736E-04 -0.91097728845E+03  0.10890226994E+04  0.59673345787E+03 0.  0.
         13    1    3    3    0    0  0.19403092241E+03 -0.21274716879E+03 -0.59817950837E+03  0.66387354286E+03  0.00000000000E+00 0.  1.
          1    1    3    3  501    0 -0.19403086755E+03  0.21274721272E+03 -0.31279778007E+03  0.42514915654E+03  0.00000000000E+00 0.  1.
         21    1    1    2  502  501 -0.54855776147E-04 -0.43936000721E-04  0.19717084448E-03  0.20932240742E-03  0.00000000000E+00 0. -1.
<mgrwt>
<rscale>  1 0.59673346E+03</rscale>
<asrwt>0</asrwt>
<pdfrwt beam="1">  1        1 0.32372035E+00 0.59673346E+03</pdfrwt>
<pdfrwt beam="2">0</pdfrwt>
<totfact> 0.29161357E+00</totfact>
</mgrwt>
</event>
<event>
 6    1  0.2885140E-003  0.6307121E+03  0.7818608E-02  0.9843660E-01
          1   -1    0    0  502    0  0.00000000000E+00  0.00000000000E+00  0.99581117239E+02  0.99581117239E+02  0.00000000000E+00 0.  1.
         13   -1    0    0    0    0 -0.00000000000E+00 -0.00000000000E+00 -0.10000000000E+04  0.10000000000E+04  0.00000000000E+00 0.  1.
    9000005    2    1    2  501    0 -0.25829045336E+00  0.58559306770E-02 -0.90039452460E+03  0.10993216147E+04  0.63071201499E+03 0.  0.
         13    1    3    3    0    0 -0.31009660874E+03  0.53061166134E+02 -0.49141981865E+03  0.58349707134E+03  0.00000000000E+00 0.  1.
          1    1    3    3  501    0  0.30983831828E+03 -0.53055310203E+02 -0.40897470595E+03  0.51582454335E+03  0.00000000000E+00 0.  1.
         21    1    1    2  502  501  0.25829045336E+00 -0.58559306770E-02 -0.24358157234E-01  0.25950254343E+00  0.00000000000E+00 0. -1.
<mgrwt>
<rscale>  1 0.63071207E+03</rscale>
<asrwt>0</asrwt>
<pdfrwt beam="1">  1        1 0.36211392E+00 0.63071207E+03</pdfrwt>
<pdfrwt beam="2">0</pdfrwt>
<totfact> 0.19734441E+00</totfact>
</mgrwt>
</event>
<event>
 6    1  0.2885140E-003  0.6369768E+03  0.7818608E-02  0.9831528E-01
          1   -1    0    0  502    0  0.00000000000E+00  0.00000000000E+00  0.10144090583E+03  0.10144090583E+03  0.00000000000E+00 0.  1.
         13   -1    0    0    0    0 -0.00000000000E+00 -0.00000000000E+00 -0.10000000000E+04  0.10000000000E+04  0.00000000000E+00 0.  1.
    9000005    2    1    2  501    0  0.56296651167E-02 -0.42335046184E-02 -0.89856279668E+03  0.11014329482E+04  0.63697679683E+03 0.  0.
         13    1    3    3    0    0  0.16226109446E+03 -0.26569211954E+03 -0.56548646627E+03  0.64551987475E+03  0.00000000000E+00 0.  1.
          1    1    3    3  501    0 -0.16225546479E+03  0.26568788604E+03 -0.33307633042E+03  0.45591307343E+03  0.00000000000E+00 0.  1.
         21    1    1    2  502  501 -0.56296651167E-02  0.42335046184E-02  0.37025164313E-02  0.79576578592E-02  0.00000000000E+00 0.  1.
<mgrwt>
<rscale>  1 0.63697680E+03</rscale>
<asrwt>0</asrwt>
<pdfrwt beam="1">  1        1 0.36887680E+00 0.63697680E+03</pdfrwt>
<pdfrwt beam="2">0</pdfrwt>
<totfact> 0.18411428E+00</totfact>
</mgrwt>
</event>
<event>
 6    1  0.2885140E-003  0.6502727E+03  0.7818608E-02  0.9806268E-01
          1   -1    0    0  502    0  0.00000000000E+00  0.00000000000E+00  0.10571385769E+03  0.10571385769E+03  0.00000000000E+00 0.  1.
         13   -1    0    0    0    0 -0.00000000000E+00 -0.00000000000E+00 -0.10000000000E+04  0.10000000000E+04  0.00000000000E+00 0.  1.
    9000005    2    1    2  501    0 -0.13684931417E-04  0.36408944979E-04 -0.89428636312E+03  0.11057136335E+04  0.65027266590E+03 0.  0.
         13    1    3    3    0    0  0.24347937599E+03  0.11565283507E+03 -0.75629466868E+03  0.80289439571E+03  0.00000000000E+00 0.  1.
          1    1    3    3  501    0 -0.24347938967E+03 -0.11565279866E+03 -0.13799169443E+03  0.30281923777E+03  0.00000000000E+00 0.  1.
         21    1    1    2  502  501  0.13684931406E-04 -0.36408944976E-04  0.22081013575E-03  0.22420973367E-03  0.00000000000E+00 0.  1.
<mgrwt>
<rscale>  1 0.65027267E+03</rscale>
<asrwt>0</asrwt>
<pdfrwt beam="1">  1        1 0.38441484E+00 0.65027267E+03</pdfrwt>
<pdfrwt beam="2">0</pdfrwt>
<totfact> 0.15688387E+00</totfact>
</mgrwt>
</event>
<event>
 6    1  0.2885140E-003  0.6568128E+03  0.7818608E-02  0.9794079E-01
          1   -1    0    0  502    0  0.00000000000E+00  0.00000000000E+00  0.10971383401E+03  0.10971383401E+03  0.00000000000E+00 0.  1.
         13   -1    0    0    0    0 -0.00000000000E+00 -0.00000000000E+00 -0.10000000000E+04  0.10000000000E+04  0.00000000000E+00 0.  1.
    9000005    2    1    2  501    0 -0.23582184134E-01  0.26214034520E-01 -0.89214906397E+03  0.11078506024E+04  0.65681276143E+03 0.  0.
         13    1    3    3    0    0 -0.19511212983E+03  0.60397082539E+02 -0.12303876365E+02  0.20461655886E+03  0.00000000000E+00 0.  1.
          3    1    3    3  501    0  0.19508854765E+03 -0.60370868504E+02 -0.87984518760E+03  0.90323404350E+03  0.00000000000E+00 0.  1.
         21    1    1    2  502  501  0.23582184134E-01 -0.26214034520E-01  0.18628979787E+01  0.18632316479E+01  0.00000000000E+00 0.  1.
<mgrwt>
<rscale>  1 0.65681276E+03</rscale>
<asrwt>0</asrwt>
<pdfrwt beam="1">  1        1 0.39896024E+00 0.65681276E+03</pdfrwt>
<pdfrwt beam="2">0</pdfrwt>
<totfact> 0.13504816E+00</totfact>
</mgrwt>
</event>
<event>
 6    1  0.2885140E-003  0.6519882E+03  0.7818608E-02  0.9803056E-01
          1   -1    0    0  502    0  0.00000000000E+00  0.00000000000E+00  0.10629322934E+03  0.10629322934E+03  0.00000000000E+00 0.  1.
         13   -1    0    0    0    0 -0.00000000000E+00 -0.00000000000E+00 -0.10000000000E+04  0.10000000000E+04  0.00000000000E+00 0.  1.
    9000005    2    1    2  501    0 -0.11363866601E-02 -0.88405516186E-03 -0.89372782431E+03  0.11062721265E+04  0.65198818545E+03 0.  0.
         13    1    3    3    0    0 -0.69590473414E+02 -0.31847090519E+03 -0.45100619964E+03  0.55648283312E+03  0.00000000000E+00 0.  1.
          3    1    3    3  501    0  0.69589337027E+02  0.31847002113E+03 -0.44272162467E+03  0.54978929340E+03  0.00000000000E+00 0.  1.
         21    1    1    2  502  501  0.11363866600E-02  0.88405516182E-03  0.21053648847E-01  0.21102821090E-01  0.00000000000E+00 0.  1.
<mgrwt>
<rscale>  1 0.65198819E+03</rscale>
<asrwt>0</asrwt>
<pdfrwt beam="1">  1        1 0.38652165E+00 0.65198819E+03</pdfrwt>
<pdfrwt beam="2">0</pdfrwt>
<totfact> 0.15350392E+00</totfact>
</mgrwt>
</event>
<event>
 6    1  0.2885140E-003  0.6241638E+03  0.7818608E-02  0.9856504E-01
          1   -1    0    0  502    0  0.00000000000E+00  0.00000000000E+00  0.97534711392E+02  0.97534711392E+02  0.00000000000E+00 0.  1.
         13   -1    0    0    0    0 -0.00000000000E+00 -0.00000000000E+00 -0.10000000000E+04  0.10000000000E+04  0.00000000000E+00 0.  1.
    9000005    2    1    2  501    0 -0.49610274522E-01 -0.14384038466E+00 -0.90255799183E+03  0.10973565398E+04  0.62416377950E+03 0.  0.
         13    1    3    3    0    0 -0.24502100569E+03 -0.19074176016E+03 -0.50743754798E+03  0.59490383878E+03  0.00000000000E+00 0.  1.
          1    1    3    3  501    0  0.24497139541E+03  0.19059791978E+03 -0.39512044385E+03  0.50245270100E+03  0.00000000000E+00 0.  1.
         21    1    1    2  502  501  0.49610274522E-01  0.14384038466E+00  0.92703219405E-01  0.17817160965E+00  0.00000000000E+00 0. -1.
<mgrwt>
<rscale>  1 0.62416380E+03</rscale>
<asrwt>0</asrwt>
<pdfrwt beam="1">  1        1 0.35467243E+00 0.62416380E+03</pdfrwt>
<pdfrwt beam="2">0</pdfrwt>
<totfact> 0.21294245E+00</totfact>
</mgrwt>
</event>
<event>
 6    1  0.2885140E-003  0.6377054E+03  0.7818608E-02  0.9830127E-01
          1   -1    0    0  502    0  0.00000000000E+00  0.00000000000E+00  0.10166705661E+03  0.10166705661E+03  0.00000000000E+00 0.  1.
         13   -1    0    0    0    0 -0.00000000000E+00 -0.00000000000E+00 -0.10000000000E+04  0.10000000000E+04  0.00000000000E+00 0.  1.
    9000005    2    1    2  501    0 -0.50363393598E-05  0.31583844233E-05 -0.89833294805E+03  0.11016670491E+04  0.63770541901E+03 0.  0.
         13    1    3    3    0    0  0.27842696925E+03  0.16607488252E+02 -0.18226350667E+03  0.33319269460E+03  0.00000000000E+00 0.  1.
          1    1    3    3  501    0 -0.27842697429E+03 -0.16607485094E+02 -0.71606944138E+03  0.76847435446E+03  0.00000000000E+00 0.  1.
         21    1    1    2  502  501  0.50363393333E-05 -0.31583844239E-05  0.46612460418E-05  0.75542915426E-05  0.00000000000E+00 0.  1.
<mgrwt>
<rscale>  1 0.63770542E+03</rscale>
<asrwt>0</asrwt>
<pdfrwt beam="1">  1        1 0.36969917E+00 0.63770542E+03</pdfrwt>
<pdfrwt beam="2">0</pdfrwt>
<totfact> 0.18256575E+00</totfact>
</mgrwt>
</event>
<event>
 6    1  0.2885140E-003  0.6438534E+03  0.7818608E-02  0.9818382E-01
          1   -1    0    0  502    0  0.00000000000E+00  0.00000000000E+00  0.10363694108E+03  0.10363694108E+03  0.00000000000E+00 0.  1.
         13   -1    0    0    0    0 -0.00000000000E+00 -0.00000000000E+00 -0.10000000000E+04  0.10000000000E+04  0.00000000000E+00 0.  1.
    9000005    2    1    2  501    0 -0.81871041640E-04  0.17026437015E-03 -0.89636311156E+03  0.11036367450E+04  0.64385342823E+03 0.  0.
         13    1    3    3    0    0  0.30105655880E+02  0.15671810388E+03 -0.92742813018E+03  0.94105783629E+03  0.00000000000E+00 0.  1.
          1    1    3    3  501    0 -0.30105737751E+02 -0.15671793361E+03  0.31065018612E+02  0.16257890867E+03  0.00000000000E+00 0.  1.
         21    1    1    2  502  501  0.81871041638E-04 -0.17026437014E-03  0.52640204207E-04  0.19612193732E-03  0.00000000000E+00 0. -1.
<mgrwt>
<rscale>  1 0.64385343E+03</rscale>
<asrwt>0</asrwt>
<pdfrwt beam="1">  1        1 0.37686240E+00 0.64385343E+03</pdfrwt>
<pdfrwt beam="2">0</pdfrwt>
<totfact> 0.16959967E+00</totfact>
</mgrwt>
</event>
<event>
 6    1  0.2885140E-003  0.6397055E+03  0.7818608E-02  0.9826290E-01
          1   -1    0    0  502    0  0.00000000000E+00  0.00000000000E+00  0.10230974896E+03  0.10230974896E+03  0.00000000000E+00 0.  1.
         13   -1    0    0    0    0 -0.00000000000E+00 -0.00000000000E+00 -0.10000000000E+04  0.10000000000E+04  0.00000000000E+00 0.  1.
    9000005    2    1    2  501    0  0.19727242957E-03  0.48015626191E-03 -0.89769418507E+03  0.11023057808E+04  0.63970554518E+03 0.  0.
         13    1    3    3    0    0 -0.22757210378E+03 -0.16637286757E+03 -0.70924529148E+03  0.76321548528E+03  0.00000000000E+00 0.  1.
          3    1    3    3  501    0  0.22757230106E+03  0.16637334772E+03 -0.18844889359E+03  0.33909029555E+03  0.00000000000E+00 0.  1.
         21    1    1    2  502  501 -0.19727242958E-03 -0.48015626194E-03  0.39340312326E-02  0.39681315737E-02  0.00000000000E+00 0.  1.
<mgrwt>
<rscale>  1 0.63970555E+03</rscale>
<asrwt>0</asrwt>
<pdfrwt beam="1">  1        1 0.37203624E+00 0.63970555E+03</pdfrwt>
<pdfrwt beam="2">0</pdfrwt>
<totfact> 0.17823498E+00</totfact>
</mgrwt>
</event>
<event>
 6    1  0.2885140E-003  0.6507698E+03  0.7818608E-02  0.9805336E-01
          1   -1    0    0  502    0  0.00000000000E+00  0.00000000000E+00  0.10588533147E+03  0.10588533147E+03  0.00000000000E+00 0.  1.
         13   -1    0    0    0    0 -0.00000000000E+00 -0.00000000000E+00 -0.10000000000E+04  0.10000000000E+04  0.00000000000E+00 0.  1.
    9000005    2    1    2  501    0  0.41351759714E-03 -0.21213171028E-03 -0.89412467531E+03  0.11058753139E+04  0.65076975568E+03 0.  0.
         13    1    3    3    0    0 -0.23261043605E+02  0.12016894371E+03  0.65262717196E+02  0.13871147551E+03  0.00000000000E+00 0.  1.
          1    1    3    3  501    0  0.23261457123E+02 -0.12016915584E+03 -0.95938739251E+03  0.96716383840E+03  0.00000000000E+00 0.  1.
         21    1    1    2  502  501 -0.41351759714E-03  0.21213171028E-03  0.10006780538E-01  0.10017567240E-01  0.00000000000E+00 0.  1.
<mgrwt>
<rscale>  1 0.65076976E+03</rscale>
<asrwt>0</asrwt>
<pdfrwt beam="1">  1        1 0.38503838E+00 0.65076976E+03</pdfrwt>
<pdfrwt beam="2">0</pdfrwt>
<totfact> 0.15587654E+00</totfact>
</mgrwt>
</event>
<event>
 6    1  0.2885140E-003  0.6445137E+03  0.7818608E-02  0.9817129E-01
          1   -1    0    0  502    0  0.00000000000E+00  0.00000000000E+00  0.10395228880E+03  0.10395228880E+03  0.00000000000E+00 0.  1.
         13   -1    0    0    0    0 -0.00000000000E+00 -0.00000000000E+00 -0.10000000000E+04  0.10000000000E+04  0.00000000000E+00 0.  1.
    9000005    2    1    2  501    0 -0.53739191400E-01 -0.29264756833E+00 -0.89580111056E+03  0.11035658404E+04  0.64451365063E+03 0.  0.
         13    1    3    3    0    0 -0.26025117585E+03  0.76317944063E+02 -0.14990256711E+03  0.30988043298E+03  0.00000000000E+00 0.  1.
          3    1    3    3  501    0  0.26019743666E+03 -0.76610591631E+02 -0.74589854345E+03  0.79368540740E+03  0.00000000000E+00 0.  1.
         21    1    1    2  502  501  0.53739191400E-01  0.29264756833E+00 -0.24660064988E+00  0.38644841889E+00  0.00000000000E+00 0. -1.
<mgrwt>
<rscale>  1 0.64451372E+03</rscale>
<asrwt>0</asrwt>
<pdfrwt beam="1">  1        1 0.37800912E+00 0.64451372E+03</pdfrwt>
<pdfrwt beam="2">0</pdfrwt>
<totfact> 0.16761738E+00</totfact>
</mgrwt>
</event>
<event>
 6    1  0.2885140E-003  0.6388706E+03  0.7818608E-02  0.9827890E-01
          1   -1    0    0  502    0  0.00000000000E+00  0.00000000000E+00  0.10208729145E+03  0.10208729145E+03  0.00000000000E+00 0.  1.
         13   -1    0    0    0    0 -0.00000000000E+00 -0.00000000000E+00 -0.10000000000E+04  0.10000000000E+04  0.00000000000E+00 0.  1.
    9000005    2    1    2  501    0 -0.36268038197E-02  0.40116844129E-02 -0.89796090807E+03  0.11020387895E+04  0.63887064501E+03 0.  0.
         13    1    3    3    0    0 -0.17779860740E+03  0.26190004637E+03 -0.37505836162E+03  0.49078789075E+03  0.00000000000E+00 0.  1.
          1    1    3    3  501    0  0.17779498060E+03 -0.26189603469E+03 -0.52290254645E+03  0.61125089873E+03  0.00000000000E+00 0.  1.
         21    1    1    2  502  501  0.36268038197E-02 -0.40116844129E-02  0.48199520853E-01  0.48501970354E-01  0.00000000000E+00 0.  1.
<mgrwt>
<rscale>  1 0.63887065E+03</rscale>
<asrwt>0</asrwt>
<pdfrwt beam="1">  1        1 0.37122730E+00 0.63887065E+03</pdfrwt>
<pdfrwt beam="2">0</pdfrwt>
<totfact> 0.17972745E+00</totfact>
</mgrwt>
</event>
<event>
 6    1  0.2885140E-003  0.6732699E+03  0.7818608E-02  0.9764069E-01
          1   -1    0    0  502    0  0.00000000000E+00  0.00000000000E+00  0.11361123789E+03  0.11361123789E+03  0.00000000000E+00 0.  1.
         13   -1    0    0    0    0 -0.00000000000E+00 -0.00000000000E+00 -0.10000000000E+04  0.10000000000E+04  0.00000000000E+00 0.  1.
    9000005    2    1    2  501    0  0.23804769073E+00  0.52403215487E+00 -0.88630911009E+03  0.11130301864E+04  0.67326965319E+03 0.  0.
         13    1    3    3    0    0 -0.31509686612E+03 -0.93610868969E+02 -0.56154742424E+03  0.65068005925E+03  0.00000000000E+00 0.  1.
          1    1    3    3  501    0  0.31533491381E+03  0.94134901124E+02 -0.32476168585E+03  0.46235012714E+03  0.00000000000E+00 0.  1.
         21    1    1    2  502  501 -0.23804769073E+00 -0.52403215487E+00 -0.79652020024E-01  0.58105150090E+00  0.00000000000E+00 0.  1.
<mgrwt>
<rscale>  1 0.67326990E+03</rscale>
<asrwt>0</asrwt>
<pdfrwt beam="1">  1        1 0.41313265E+00 0.67326990E+03</pdfrwt>
<pdfrwt beam="2">0</pdfrwt>
<totfact> 0.11633761E+00</totfact>
</mgrwt>
</event>
<event>
 6    1  0.2885140E-003  0.6486500E+03  0.7818608E-02  0.9809316E-01
          1   -1    0    0  502    0  0.00000000000E+00  0.00000000000E+00  0.10518778108E+03  0.10518778108E+03  0.00000000000E+00 0.  1.
         13   -1    0    0    0    0 -0.00000000000E+00 -0.00000000000E+00 -0.10000000000E+04  0.10000000000E+04  0.00000000000E+00 0.  1.
    9000005    2    1    2  501    0  0.95963155502E-04 -0.18489626331E-03 -0.89481328022E+03  0.11051866995E+04  0.64865000915E+03 0.  0.
         13    1    3    3    0    0 -0.13689229614E+03  0.29204423661E+03 -0.38944373728E+03  0.50566368407E+03  0.00000000000E+00 0.  1.
          1    1    3    3  501    0  0.13689239210E+03 -0.29204442150E+03 -0.50536954294E+03  0.59952301547E+03  0.00000000000E+00 0.  1.
         21    1    1    2  502  501 -0.95963155499E-04  0.18489626335E-03  0.10612920202E-02  0.10815434839E-02  0.00000000000E+00 0.  1.
<mgrwt>
<rscale>  1 0.64865001E+03</rscale>
<asrwt>0</asrwt>
<pdfrwt beam="1">  1        1 0.38250183E+00 0.64865001E+03</pdfrwt>
<pdfrwt beam="2">0</pdfrwt>
<totfact> 0.16001599E+00</totfact>
</mgrwt>
</event>
<event>
 6    1  0.2885140E-003  0.6479846E+03  0.7818608E-02  0.9810568E-01
          1   -1    0    0  502    0  0.00000000000E+00  0.00000000000E+00  0.10554592769E+03  0.10554592769E+03  0.00000000000E+00 0.  1.
         13   -1    0    0    0    0 -0.00000000000E+00 -0.00000000000E+00 -0.10000000000E+04  0.10000000000E+04  0.00000000000E+00 0.  1.
    9000005    2    1    2  501    0  0.29640511427E-01  0.55239431837E-01 -0.89502711215E+03  0.11049694690E+04  0.64798456157E+03 0.  0.
         13    1    3    3    0    0 -0.22766278873E+03  0.22056387646E+03 -0.56188644764E+03  0.64513188497E+03  0.00000000000E+00 0.  1.
          3    1    3    3  501    0  0.22769242924E+03 -0.22050863703E+03 -0.33314066451E+03  0.45983758403E+03  0.00000000000E+00 0.  1.
         21    1    1    2  502  501 -0.29640511427E-01 -0.55239431837E-01  0.57303983591E+00  0.57645867874E+00  0.00000000000E+00 0.  1.
<mgrwt>
<rscale>  1 0.64798456E+03</rscale>
<asrwt>0</asrwt>
<pdfrwt beam="1">  1        1 0.38380418E+00 0.64798456E+03</pdfrwt>
<pdfrwt beam="2">0</pdfrwt>
<totfact> 0.15792888E+00</totfact>
</mgrwt>
</event>
<event>
 6    1  0.2885140E-003  0.6501495E+03  0.7818608E-02  0.9806499E-01
          1   -1    0    0  502    0  0.00000000000E+00  0.00000000000E+00  0.10813813534E+03  0.10813813534E+03  0.00000000000E+00 0.  1.
         13   -1    0    0    0    0 -0.00000000000E+00 -0.00000000000E+00 -0.10000000000E+04  0.10000000000E+04  0.00000000000E+00 0.  1.
    9000005    2    1    2  501    0 -0.71217946112E+00 -0.69753236574E+00 -0.89421446773E+03  0.11055830439E+04  0.65014872063E+03 0.  0.
         13    1    3    3    0    0  0.16496381195E+03 -0.54011505416E+02 -0.91407531340E+03  0.93041065156E+03  0.00000000000E+00 0.  1.
          1    1    3    3  501    0 -0.16567599141E+03  0.53313973050E+02  0.19860845667E+02  0.17517239235E+03  0.00000000000E+00 0.  1.
         21    1    1    2  502  501  0.71217946112E+00  0.69753236574E+00  0.23526030721E+01  0.25550914271E+01  0.00000000000E+00 0.  1.
<mgrwt>
<rscale>  1 0.65014948E+03</rscale>
<asrwt>0</asrwt>
<pdfrwt beam="1">  1        1 0.39323041E+00 0.65014948E+03</pdfrwt>
<pdfrwt beam="2">0</pdfrwt>
<totfact> 0.14339101E+00</totfact>
</mgrwt>
</event>
<event>
 6    1  0.2885140E-003  0.6464690E+03  0.7818608E-02  0.9813427E-01
          1   -1    0    0  502    0  0.00000000000E+00  0.00000000000E+00  0.10448057033E+03  0.10448057033E+03  0.00000000000E+00 0.  1.
         13   -1    0    0    0    0 -0.00000000000E+00 -0.00000000000E+00 -0.10000000000E+04  0.10000000000E+04  0.00000000000E+00 0.  1.
    9000005    2    1    2  501    0 -0.11322187135E-04 -0.79876934791E-05 -0.89551944575E+03  0.11044805491E+04  0.64646902914E+03 0.  0.
         13    1    3    3    0    0  0.18586877966E+03  0.86556427748E+02 -0.87467963888E+03  0.89838949743E+03  0.00000000000E+00 0.  1.
          3    1    3    3  501    0 -0.18586879098E+03 -0.86556435736E+02 -0.20839806872E+02  0.20609105167E+03  0.00000000000E+00 0.  1.
         21    1    1    2  502  501  0.11322187155E-04  0.79876934824E-05  0.16076724547E-04  0.21223954422E-04  0.00000000000E+00 0. -1.
<mgrwt>
<rscale>  1 0.64646903E+03</rscale>
<asrwt>0</asrwt>
<pdfrwt beam="1">  1        1 0.37993015E+00 0.64646903E+03</pdfrwt>
<pdfrwt beam="2">0</pdfrwt>
<totfact> 0.16432034E+00</totfact>
</mgrwt>
</event>
<event>
 6    1  0.2885140E-003  0.6418630E+03  0.7818608E-02  0.9822169E-01
          1   -1    0    0  502    0  0.00000000000E+00  0.00000000000E+00  0.10302416209E+03  0.10302416209E+03  0.00000000000E+00 0.  1.
         13   -1    0    0    0    0 -0.00000000000E+00 -0.00000000000E+00 -0.10000000000E+04  0.10000000000E+04  0.00000000000E+00 0.  1.
    9000005    2    1    2  501    0 -0.50834147608E-01  0.62573574331E-03 -0.89697377891E+03  0.11029732824E+04  0.64186299088E+03 0.  0.
         13    1    3    3    0    0  0.82096094046E+02 -0.30976515396E+03 -0.47816323344E+03  0.57561644963E+03  0.00000000000E+00 0.  1.
          1    1    3    3  501    0 -0.82146928194E+02  0.30976577970E+03 -0.41881054547E+03  0.52735683278E+03  0.00000000000E+00 0.  1.
         21    1    1    2  502  501  0.50834147608E-01 -0.62573574335E-03 -0.20589977568E-02  0.50879677475E-01  0.00000000000E+00 0.  1.
<mgrwt>
<rscale>  1 0.64186299E+03</rscale>
<asrwt>0</asrwt>
<pdfrwt beam="1">  1        1 0.37463411E+00 0.64186299E+03</pdfrwt>
<pdfrwt beam="2">0</pdfrwt>
<totfact> 0.17353823E+00</totfact>
</mgrwt>
</event>
<event>
 6    1  0.2885140E-003  0.6608218E+03  0.7818608E-02  0.9786682E-01
          1   -1    0    0  502    0  0.00000000000E+00  0.00000000000E+00  0.10919489339E+03  0.10919489339E+03  0.00000000000E+00 0.  1.
         13   -1    0    0    0    0 -0.00000000000E+00 -0.00000000000E+00 -0.10000000000E+04  0.10000000000E+04  0.00000000000E+00 0.  1.
    9000005    2    1    2  501    0  0.18234464570E-01 -0.16737947848E-02 -0.89082461268E+03  0.11091681393E+04  0.66082181429E+03 0.  0.
         13    1    3    3    0    0  0.21341248036E+03  0.24081961825E+03 -0.31941264444E+03  0.45339101528E+03  0.00000000000E+00 0.  1.
          1    1    3    3  501    0 -0.21339424590E+03 -0.24082129204E+03 -0.57141196823E+03  0.65577712397E+03  0.00000000000E+00 0.  1.
         21    1    1    2  502  501 -0.18234464570E-01  0.16737947847E-02  0.19506068559E-01  0.26754139825E-01  0.00000000000E+00 0. -1.
<mgrwt>
<rscale>  1 0.66082181E+03</rscale>
<asrwt>0</asrwt>
<pdfrwt beam="1">  1        1 0.39707318E+00 0.66082181E+03</pdfrwt>
<pdfrwt beam="2">0</pdfrwt>
<totfact> 0.13758378E+00</totfact>
</mgrwt>
</event>
<event>
 6    1  0.2885140E-003  0.6452528E+03  0.7818608E-02  0.9815728E-01
          1   -1    0    0  502    0  0.00000000000E+00  0.00000000000E+00  0.11116521034E+03  0.11116521034E+03  0.00000000000E+00 0.  1.
         13   -1    0    0    0    0 -0.00000000000E+00 -0.00000000000E+00 -0.10000000000E+04  0.10000000000E+04  0.00000000000E+00 0.  1.
    9000005    2    1    2  501    0  0.29737730750E+00 -0.44045237976E+00 -0.89590120351E+03  0.11040788406E+04  0.64525253765E+03 0.  0.
         13    1    3    3    0    0 -0.20849676778E+03  0.81928975168E+02 -0.84464448158E+03  0.87384641637E+03  0.00000000000E+00 0.  1.
          1    1    3    3  501    0  0.20879414508E+03 -0.82369427548E+02 -0.51256721931E+02  0.23023242421E+03  0.00000000000E+00 0.  1.
         21    1    1    2  502  501 -0.29737730750E+00  0.44045237976E+00  0.70664138513E+01  0.70863697532E+01  0.00000000000E+00 0.  1.
<mgrwt>
<rscale>  1 0.64525276E+03</rscale>
<asrwt>0</asrwt>
<pdfrwt beam="1">  1        1 0.40423798E+00 0.64525276E+03</pdfrwt>
<pdfrwt beam="2">0</pdfrwt>
<totfact> 0.12820351E+00</totfact>
</mgrwt>
</event>
<event>
 6    1  0.2885140E-003  0.6484637E+03  0.7818608E-02  0.9809666E-01
          1   -1    0    0  502    0  0.00000000000E+00  0.00000000000E+00  0.10512632825E+03  0.10512632825E+03  0.00000000000E+00 0.  1.
         13   -1    0    0    0    0 -0.00000000000E+00 -0.00000000000E+00 -0.10000000000E+04  0.10000000000E+04  0.00000000000E+00 0.  1.
    9000005    2    1    2  501    0 -0.10169070492E-05  0.10318355237E-04 -0.89487371982E+03  0.11051262791E+04  0.64846365994E+03 0.  0.
         13    1    3    3    0    0 -0.25941350374E+03  0.19321276864E+03 -0.48553460004E+03  0.58341270789E+03  0.00000000000E+00 0.  1.
          1    1    3    3  501    0  0.25941350273E+03 -0.19321275832E+03 -0.40933911978E+03  0.52171357119E+03  0.00000000000E+00 0.  1.
         21    1    1    2  502  501  0.10169070617E-05 -0.10318355240E-04  0.48071542166E-04  0.49176983652E-04  0.00000000000E+00 0. -1.
<mgrwt>
<rscale>  1 0.64846366E+03</rscale>
<asrwt>0</asrwt>
<pdfrwt beam="1">  1        1 0.38227836E+00 0.64846366E+03</pdfrwt>
<pdfrwt beam="2">0</pdfrwt>
<totfact> 0.16038562E+00</totfact>
</mgrwt>
</event>
<event>
 6    1  0.2885140E-003  0.6642771E+03  0.7818608E-02  0.9780352E-01
          1   -1    0    0  502    0  0.00000000000E+00  0.00000000000E+00  0.11031628505E+03  0.11031628505E+03  0.00000000000E+00 0.  1.
         13   -1    0    0    0    0 -0.00000000000E+00 -0.00000000000E+00 -0.10000000000E+04  0.10000000000E+04  0.00000000000E+00 0.  1.
    9000005    2    1    2  501    0  0.11953746892E-03  0.80627831181E-04 -0.88968394997E+03  0.11103160093E+04  0.66427713324E+03 0.  0.
         13    1    3    3    0    0 -0.19191391458E+03  0.16135352041E+03 -0.80745958699E+02  0.26341188091E+03  0.00000000000E+00 0.  1.
          3    1    3    3  501    0  0.19191403412E+03 -0.16135343978E+03 -0.80893799127E+03  0.84690412842E+03  0.00000000000E+00 0.  1.
         21    1    1    2  502  501 -0.11953746893E-03 -0.80627831189E-04  0.23501187786E-03  0.27571840051E-03  0.00000000000E+00 0. -1.
<mgrwt>
<rscale>  1 0.66427713E+03</rscale>
<asrwt>0</asrwt>
<pdfrwt beam="1">  1        1 0.40115097E+00 0.66427713E+03</pdfrwt>
<pdfrwt beam="2">0</pdfrwt>
<totfact> 0.13185956E+00</totfact>
</mgrwt>
</event>
<event>
 6    1  0.2885140E-003  0.6473606E+03  0.7818608E-02  0.9811745E-01
          1   -1    0    0  502    0  0.00000000000E+00  0.00000000000E+00  0.10477298438E+03  0.10477298438E+03  0.00000000000E+00 0.  1.
         13   -1    0    0    0    0 -0.00000000000E+00 -0.00000000000E+00 -0.10000000000E+04  0.10000000000E+04  0.00000000000E+00 0.  1.
    9000005    2    1    2  501    0 -0.66657882655E-04 -0.23533909396E-03 -0.89523107165E+03  0.11047689210E+04  0.64736056191E+03 0.  0.
         13    1    3    3    0    0  0.20594390874E+03 -0.19761423485E+03 -0.70813901988E+03  0.76349535089E+03  0.00000000000E+00 0.  1.
          1    1    3    3  501    0 -0.20594397539E+03  0.19761399951E+03 -0.18709205177E+03  0.34127357009E+03  0.00000000000E+00 0.  1.
         21    1    1    2  502  501  0.66657882673E-04  0.23533909396E-03  0.40560355706E-02  0.40634040302E-02  0.00000000000E+00 0. -1.
<mgrwt>
<rscale>  1 0.64736056E+03</rscale>
<asrwt>0</asrwt>
<pdfrwt beam="1">  1        1 0.38099347E+00 0.64736056E+03</pdfrwt>
<pdfrwt beam="2">0</pdfrwt>
<totfact> 0.16252771E+00</totfact>
</mgrwt>
</event>
<event>
 6    1  0.2885140E-003  0.6522594E+03  0.7818608E-02  0.9802549E-01
          1   -1    0    0  502    0  0.00000000000E+00  0.00000000000E+00  0.11443010258E+03  0.11443010258E+03  0.00000000000E+00 0.  1.
         13   -1    0    0    0    0 -0.00000000000E+00 -0.00000000000E+00 -0.10000000000E+04  0.10000000000E+04  0.00000000000E+00 0.  1.
    9000005    2    1    2  501    0 -0.36171719282E+00 -0.36584287871E+00 -0.89363033229E+03  0.11063532659E+04  0.65225923798E+03 0.  0.
         13    1    3    3    0    0  0.20993483634E+03 -0.22363489598E+03 -0.63479906060E+03  0.70502131141E+03  0.00000000000E+00 0.  1.
          1    1    3    3  501    0 -0.21029655353E+03  0.22326905310E+03 -0.25883127169E+03  0.40133195450E+03  0.00000000000E+00 0.  1.
         21    1    1    2  502  501  0.36171719282E+00  0.36584287871E+00  0.80604348675E+01  0.80768366699E+01  0.00000000000E+00 0.  1.
<mgrwt>
<rscale>  1 0.65225944E+03</rscale>
<asrwt>0</asrwt>
<pdfrwt beam="1">  1        1 0.41611034E+00 0.65225944E+03</pdfrwt>
<pdfrwt beam="2">0</pdfrwt>
<totfact> 0.11326222E+00</totfact>
</mgrwt>
</event>
<event>
 6    1  0.2885140E-003  0.6593786E+03  0.7818608E-02  0.9789338E-01
          1   -1    0    0  502    0  0.00000000000E+00  0.00000000000E+00  0.10947114674E+03  0.10947114674E+03  0.00000000000E+00 0.  1.
         13   -1    0    0    0    0 -0.00000000000E+00 -0.00000000000E+00 -0.10000000000E+04  0.10000000000E+04  0.00000000000E+00 0.  1.
    9000005    2    1    2  501    0 -0.12895893191E+01  0.15683516648E+01 -0.88934758618E+03  0.11071220704E+04  0.65937548258E+03 0.  0.
         13    1    3    3    0    0  0.16137405579E+03  0.25568756621E+03 -0.22314986272E+03  0.37578395207E+03  0.00000000000E+00 0.  1.
          1    1    3    3  501    0 -0.16266364511E+03 -0.25411921455E+03 -0.66619772345E+03  0.73133811837E+03  0.00000000000E+00 0.  1.
         21    1    1    2  502  501  0.12895893191E+01 -0.15683516648E+01 -0.11812670834E+01  0.23490763033E+01  0.00000000000E+00 0. -1.
<mgrwt>
<rscale>  1 0.65937861E+03</rscale>
<asrwt>0</asrwt>
<pdfrwt beam="1">  1        1 0.39807774E+00 0.65937861E+03</pdfrwt>
<pdfrwt beam="2">0</pdfrwt>
<totfact> 0.13621063E+00</totfact>
</mgrwt>
</event>
<event>
 6    1  0.2885140E-003  0.6558257E+03  0.7818608E-02  0.9795909E-01
          1   -1    0    0  502    0  0.00000000000E+00  0.00000000000E+00  0.10752783098E+03  0.10752783098E+03  0.00000000000E+00 0.  1.
         13   -1    0    0    0    0 -0.00000000000E+00 -0.00000000000E+00 -0.10000000000E+04  0.10000000000E+04  0.00000000000E+00 0.  1.
    9000005    2    1    2  501    0 -0.14922058833E-02 -0.10236834894E-02 -0.89247218252E+03  0.11075260213E+04  0.65582565624E+03 0.  0.
         13    1    3    3    0    0 -0.20788869681E+03 -0.40156471980E+02 -0.23384570741E+02  0.21301899129E+03  0.00000000000E+00 0.  1.
          3    1    3    3  501    0  0.20788720460E+03  0.40155448297E+02 -0.86908761178E+03  0.89450703005E+03  0.00000000000E+00 0.  1.
         21    1    1    2  502  501  0.14922058833E-02  0.10236834894E-02  0.13497248304E-04  0.18096376599E-02  0.00000000000E+00 0. -1.
<mgrwt>
<rscale>  1 0.65582566E+03</rscale>
<asrwt>0</asrwt>
<pdfrwt beam="1">  1        1 0.39101112E+00 0.65582566E+03</pdfrwt>
<pdfrwt beam="2">0</pdfrwt>
<totfact> 0.14652571E+00</totfact>
</mgrwt>
</event>
<event>
 6    1  0.2885140E-003  0.6163031E+03  0.7818608E-02  0.9872148E-01
          1   -1    0    0  502    0  0.00000000000E+00  0.00000000000E+00  0.94957392346E+02  0.94957392346E+02  0.00000000000E+00 0.  1.
         13   -1    0    0    0    0 -0.00000000000E+00 -0.00000000000E+00 -0.10000000000E+04  0.10000000000E+04  0.00000000000E+00 0.  1.
    9000005    2    1    2  501    0 -0.42229277142E-06  0.50875247553E-05 -0.90504261625E+03  0.10949573823E+04  0.61630311691E+03 0.  0.
         13    1    3    3    0    0 -0.24639958470E+03 -0.18050019963E+03 -0.52500148891E+03  0.60738755401E+03  0.00000000000E+00 0.  1.
          1    1    3    3  501    0  0.24639958428E+03  0.18050020471E+03 -0.38004112734E+03  0.48756982834E+03  0.00000000000E+00 0.  1.
         21    1    1    2  502  501  0.42229277978E-06 -0.50875247533E-05  0.86003756239E-05  0.10001384913E-04  0.00000000000E+00 0. -1.
<mgrwt>
<rscale>  1 0.61630312E+03</rscale>
<asrwt>0</asrwt>
<pdfrwt beam="1">  1        1 0.34530034E+00 0.61630312E+03</pdfrwt>
<pdfrwt beam="2">0</pdfrwt>
<totfact> 0.23426671E+00</totfact>
</mgrwt>
</event>
<event>
 6    1  0.2885140E-003  0.6587701E+03  0.7818608E-02  0.9790460E-01
          1   -1    0    0  502    0  0.00000000000E+00  0.00000000000E+00  0.11290459737E+03  0.11290459737E+03  0.00000000000E+00 0.  1.
         13   -1    0    0    0    0 -0.00000000000E+00 -0.00000000000E+00 -0.10000000000E+04  0.10000000000E+04  0.00000000000E+00 0.  1.
    9000005    2    1    2  501    0  0.47422267135E+00 -0.14571035520E+00 -0.89149000341E+03  0.11084820829E+04  0.65876995659E+03 0.  0.
         13    1    3    3    0    0 -0.29809352777E+03 -0.13601937382E+03 -0.39196996583E+03  0.51088303502E+03  0.00000000000E+00 0.  1.
          3    1    3    3  501    0  0.29856775044E+03  0.13587366347E+03 -0.49952003758E+03  0.59759904783E+03  0.00000000000E+00 0.  1.
         21    1    1    2  502  501 -0.47422267135E+00  0.14571035520E+00  0.43946007810E+01  0.44225145194E+01  0.00000000000E+00 0.  1.
<mgrwt>
<rscale>  1 0.65877014E+03</rscale>
<asrwt>0</asrwt>
<pdfrwt beam="1">  1        1 0.41056304E+00 0.65877014E+03</pdfrwt>
<pdfrwt beam="2">0</pdfrwt>
<totfact> 0.11980030E+00</totfact>
</mgrwt>
</event>
<event>
 6    1  0.2885140E-003  0.6532672E+03  0.7818608E-02  0.9800668E-01
          1   -1    0    0  502    0  0.00000000000E+00  0.00000000000E+00  0.11841227405E+03  0.11841227405E+03  0.00000000000E+00 0.  1.
         13   -1    0    0    0    0 -0.00000000000E+00 -0.00000000000E+00 -0.10000000000E+04  0.10000000000E+04  0.00000000000E+00 0.  1.
    9000005    2    1    2  501    0  0.11319690686E+02 -0.89325290316E+01 -0.88818393896E+03  0.11025555563E+04  0.65310804603E+03 0.  0.
         13    1    3    3    0    0  0.25407493582E-01 -0.22559537860E+03 -0.85354015816E+03  0.88284997428E+03  0.00000000000E+00 0.  1.
          3    1    3    3  501    0  0.11294283192E+02  0.21666284957E+03 -0.34643780801E+02  0.21970558201E+03  0.00000000000E+00 0.  1.
         21    1    1    2  502  501 -0.11319690686E+02  0.89325290316E+01  0.65962130110E+01  0.15856717763E+02  0.00000000000E+00 0.  1.
<mgrwt>
<rscale>  1 0.65326721E+03</rscale>
<asrwt>0</asrwt>
<pdfrwt beam="1">  1        1 0.43059100E+00 0.65326721E+03</pdfrwt>
<pdfrwt beam="2">0</pdfrwt>
<totfact> 0.97396306E-01</totfact>
</mgrwt>
</event>
<event>
 6    1  0.2885140E-003  0.6596041E+03  0.7818608E-02  0.9788923E-01
          1   -1    0    0  502    0  0.00000000000E+00  0.00000000000E+00  0.10876971036E+03  0.10876971036E+03  0.00000000000E+00 0.  1.
         13   -1    0    0    0    0 -0.00000000000E+00 -0.00000000000E+00 -0.10000000000E+04  0.10000000000E+04  0.00000000000E+00 0.  1.
    9000005    2    1    2  501    0  0.75350305224E-04  0.55526186367E-03 -0.89123030459E+03  0.11087691498E+04  0.65960410228E+03 0.  0.
         13    1    3    3    0    0 -0.13497805819E+03  0.29165052006E+03 -0.57017054922E+03  0.65450252653E+03  0.00000000000E+00 0.  1.
          1    1    3    3  501    0  0.13497813354E+03 -0.29164996480E+03 -0.32105975537E+03  0.45426662327E+03  0.00000000000E+00 0.  1.
         21    1    1    2  502  501 -0.75350305244E-04 -0.55526186367E-03  0.14946774620E-04  0.56055045430E-03  0.00000000000E+00 0.  1.
<mgrwt>
<rscale>  1 0.65960410E+03</rscale>
<asrwt>0</asrwt>
<pdfrwt beam="1">  1        1 0.39552705E+00 0.65960410E+03</pdfrwt>
<pdfrwt beam="2">0</pdfrwt>
<totfact> 0.13981254E+00</totfact>
</mgrwt>
</event>
<event>
 6    1  0.2885140E-003  0.5305607E+03  0.7818608E-02  0.1006096E+00
          1   -1    0    0  502    0  0.00000000000E+00  0.00000000000E+00  0.70512145939E+02  0.70512145939E+02  0.00000000000E+00 0.  1.
         13   -1    0    0    0    0 -0.00000000000E+00 -0.00000000000E+00 -0.10000000000E+04  0.10000000000E+04  0.00000000000E+00 0.  1.
    9000005    2    1    2  501    0 -0.15202543614E-03  0.50702497808E-02 -0.92962628429E+03  0.10703736228E+04  0.53056070712E+03 0.  0.
         13    1    3    3    0    0  0.24640864257E+03 -0.11865842041E+02 -0.26801635798E+03  0.36426746421E+03  0.00000000000E+00 0.  1.
          3    1    3    3  501    0 -0.24640879460E+03  0.11870912290E+02 -0.66160992631E+03  0.70610615859E+03  0.00000000000E+00 0.  1.
         21    1    1    2  502  501  0.15202543611E-03 -0.50702497808E-02  0.13843022623E+00  0.13852313193E+00  0.00000000000E+00 0.  1.
<mgrwt>
<rscale>  1 0.53056071E+03</rscale>
<asrwt>0</asrwt>
<pdfrwt beam="1">  1        1 0.25640834E+00 0.53056071E+03</pdfrwt>
<pdfrwt beam="2">0</pdfrwt>
<totfact> 0.57626030E+00</totfact>
</mgrwt>
</event>
<event>
 6    1  0.2885140E-003  0.6448660E+03  0.7818608E-02  0.9816461E-01
          1   -1    0    0  502    0  0.00000000000E+00  0.00000000000E+00  0.12344769091E+03  0.12344769091E+03  0.00000000000E+00 0.  1.
         13   -1    0    0    0    0 -0.00000000000E+00 -0.00000000000E+00 -0.10000000000E+04  0.10000000000E+04  0.00000000000E+00 0.  1.
    9000005    2    1    2  501    0 -0.38978725840E+01 -0.26890387585E+01 -0.89571881990E+03  0.11037048574E+04  0.64484865163E+03 0.  0.
         13    1    3    3    0    0  0.24602746369E+03 -0.45120025047E+01 -0.79845869516E+03  0.83551550490E+03  0.00000000000E+00 0.  1.
          3    1    3    3  501    0 -0.24992533627E+03  0.18229637462E+01 -0.97260124736E+02  0.26818935246E+03  0.00000000000E+00 0.  1.
         21    1    1    2  502  501  0.38978725840E+01  0.26890387585E+01  0.19166510803E+02  0.19742833548E+02  0.00000000000E+00 0. -1.
<mgrwt>
<rscale>  1 0.64486604E+03</rscale>
<asrwt>0</asrwt>
<pdfrwt beam="1">  1        1 0.44890164E+00 0.64486604E+03</pdfrwt>
<pdfrwt beam="2">0</pdfrwt>
<totfact> 0.80464379E-01</totfact>
</mgrwt>
</event>
<event>
 6    1  0.2885140E-003  0.4868424E+03  0.7818608E-02  0.1017271E+00
          1   -1    0    0  502    0  0.00000000000E+00  0.00000000000E+00  0.61184107289E+02  0.61184107289E+02  0.00000000000E+00 0.  1.
         13   -1    0    0    0    0 -0.00000000000E+00 -0.00000000000E+00 -0.10000000000E+04  0.10000000000E+04  0.00000000000E+00 0.  1.
    9000005    2    1    2  501    0  0.55354338341E+00 -0.64323622776E+00 -0.94064703870E+03  0.10591658757E+04  0.48684163818E+03 0.  0.
         13    1    3    3    0    0  0.71921044722E+01 -0.11784697654E+03 -0.71135332134E+01  0.11828033903E+03  0.00000000000E+00 0.  1.
          3    1    3    3  501    0 -0.66385610888E+01  0.11720374032E+03 -0.93353350549E+03  0.94088553666E+03  0.00000000000E+00 0.  1.
         21    1    1    2  502  501 -0.55354338341E+00  0.64323622776E+00  0.18311459886E+01  0.20182315907E+01  0.00000000000E+00 0.  1.
<mgrwt>
<rscale>  1 0.48684238E+03</rscale>
<asrwt>0</asrwt>
<pdfrwt beam="1">  1        1 0.22248813E+00 0.48684238E+03</pdfrwt>
<pdfrwt beam="2">0</pdfrwt>
<totfact> 0.81703620E+00</totfact>
</mgrwt>
</event>
<event>
 6    1  0.2885140E-003  0.6517117E+03  0.7818608E-02  0.9803573E-01
          1   -1    0    0  502    0  0.00000000000E+00  0.00000000000E+00  0.10673518794E+03  0.10673518794E+03  0.00000000000E+00 0.  1.
         13   -1    0    0    0    0 -0.00000000000E+00 -0.00000000000E+00 -0.10000000000E+04  0.10000000000E+04  0.00000000000E+00 0.  1.
    9000005    2    1    2  501    0 -0.31406722296E-01 -0.10675180839E-01 -0.89381742667E+03  0.11061815787E+04  0.65171166296E+03 0.  0.
         13    1    3    3    0    0 -0.12797010705E+03  0.20111595902E+03 -0.69811255404E+02  0.24838999306E+03  0.00000000000E+00 0.  1.
          3    1    3    3  501    0  0.12793870033E+03 -0.20112663421E+03 -0.82400617126E+03  0.85779158559E+03  0.00000000000E+00 0.  1.
         21    1    1    2  502  501  0.31406722296E-01  0.10675180839E-01  0.55261460174E+00  0.55360928437E+00  0.00000000000E+00 0. -1.
<mgrwt>
<rscale>  1 0.65171166E+03</rscale>
<asrwt>0</asrwt>
<pdfrwt beam="1">  1        1 0.38812877E+00 0.65171166E+03</pdfrwt>
<pdfrwt beam="2">0</pdfrwt>
<totfact> 0.15101659E+00</totfact>
</mgrwt>
</event>
<event>
 6    1  0.2885140E-003  0.6259977E+03  0.7818608E-02  0.9852890E-01
          1   -1    0    0  502    0  0.00000000000E+00  0.00000000000E+00  0.97980890058E+02  0.97980890058E+02  0.00000000000E+00 0.  1.
         13   -1    0    0    0    0 -0.00000000000E+00 -0.00000000000E+00 -0.10000000000E+04  0.10000000000E+04  0.00000000000E+00 0.  1.
    9000005    2    1    2  501    0 -0.78398227450E-03  0.56698132587E-03 -0.90203169803E+03  0.10979682648E+04  0.62599770475E+03 0.  0.
         13    1    3    3    0    0  0.18648036492E+03 -0.86873954985E+02 -0.37268913904E+02  0.20907171616E+03  0.00000000000E+00 0.  1.
          3    1    3    3  501    0 -0.18648114890E+03  0.86874521967E+02 -0.86476278412E+03  0.88889654869E+03  0.00000000000E+00 0.  1.
         21    1    1    2  502  501  0.78398227450E-03 -0.56698132587E-03  0.12588086083E-01  0.12625213157E-01  0.00000000000E+00 0.  1.
<mgrwt>
<rscale>  1 0.62599770E+03</rscale>
<asrwt>0</asrwt>
<pdfrwt beam="1">  1        1 0.35629490E+00 0.62599770E+03</pdfrwt>
<pdfrwt beam="2">0</pdfrwt>
<totfact> 0.20942833E+00</totfact>
</mgrwt>
</event>
<event>
 6    1  0.2885140E-003  0.6480901E+03  0.7818608E-02  0.9810370E-01
          1   -1    0    0  502    0  0.00000000000E+00  0.00000000000E+00  0.10500597715E+03  0.10500597715E+03  0.00000000000E+00 0.  1.
         13   -1    0    0    0    0 -0.00000000000E+00 -0.00000000000E+00 -0.10000000000E+04  0.10000000000E+04  0.00000000000E+00 0.  1.
    9000005    2    1    2  501    0 -0.80216910752E-03 -0.23243743595E-03 -0.89499453387E+03  0.11050049980E+04  0.64809014038E+03 0.  0.
         13    1    3    3    0    0  0.14621668724E+03 -0.25108880847E+03 -0.20289850178E+03  0.35439061978E+03  0.00000000000E+00 0.  1.
          1    1    3    3  501    0 -0.14621748941E+03  0.25108857603E+03 -0.69209603209E+03  0.75061437827E+03  0.00000000000E+00 0.  1.
         21    1    1    2  502  501  0.80216910751E-03  0.23243743596E-03  0.51101337076E-03  0.97910015002E-03  0.00000000000E+00 0. -1.
<mgrwt>
<rscale>  1 0.64809014E+03</rscale>
<asrwt>0</asrwt>
<pdfrwt beam="1">  1        1 0.38184072E+00 0.64809014E+03</pdfrwt>
<pdfrwt beam="2">0</pdfrwt>
<totfact> 0.16111213E+00</totfact>
</mgrwt>
</event>
<event>
 6    1  0.2885140E-003  0.6593459E+03  0.7818608E-02  0.9789399E-01
          1   -1    0    0  502    0  0.00000000000E+00  0.00000000000E+00  0.11130409011E+03  0.11130409011E+03  0.00000000000E+00 0.  1.
         13   -1    0    0    0    0 -0.00000000000E+00 -0.00000000000E+00 -0.10000000000E+04  0.10000000000E+04  0.00000000000E+00 0.  1.
    9000005    2    1    2  501    0  0.60745853943E+00 -0.28994735363E+00 -0.89126771763E+03  0.11086456563E+04  0.65934557983E+03 0.  0.
         13    1    3    3    0    0 -0.16484994335E+03  0.27963508967E+03 -0.35116766118E+03  0.47821544669E+03  0.00000000000E+00 0.  1.
          3    1    3    3  501    0  0.16545740189E+03 -0.27992503702E+03 -0.54010005645E+03  0.63043020959E+03  0.00000000000E+00 0.  1.
         21    1    1    2  502  501 -0.60745853943E+00  0.28994735363E+00  0.25718077373E+01  0.26584338213E+01  0.00000000000E+00 0. -1.
<mgrwt>
<rscale>  1 0.65934592E+03</rscale>
<asrwt>0</asrwt>
<pdfrwt beam="1">  1        1 0.40474300E+00 0.65934592E+03</pdfrwt>
<pdfrwt beam="2">0</pdfrwt>
<totfact> 0.12719549E+00</totfact>
</mgrwt>
</event>
<event>
 6    1  0.2885140E-003  0.6489006E+03  0.7818608E-02  0.9808844E-01
          1   -1    0    0  502    0  0.00000000000E+00  0.00000000000E+00  0.10526800932E+03  0.10526800932E+03  0.00000000000E+00 0.  1.
         13   -1    0    0    0    0 -0.00000000000E+00 -0.00000000000E+00 -0.10000000000E+04  0.10000000000E+04  0.00000000000E+00 0.  1.
    9000005    2    1    2  501    0  0.28762500719E-05 -0.14903225178E-05 -0.89473199842E+03  0.11052680009E+04  0.64890061249E+03 0.  0.
         13    1    3    3    0    0  0.63955942338E+02  0.99193199756E+02 -0.96213927015E+03  0.96935113793E+03  0.00000000000E+00 0.  1.
          3    1    3    3  501    0 -0.63955939462E+02 -0.99193201246E+02  0.67407271732E+02  0.13591686300E+03  0.00000000000E+00 0.  1.
         21    1    1    2  502  501 -0.28762500679E-05  0.14903225100E-05  0.77404045993E-05  0.83909319505E-05  0.00000000000E+00 0. -1.
<mgrwt>
<rscale>  1 0.64890061E+03</rscale>
<asrwt>0</asrwt>
<pdfrwt beam="1">  1        1 0.38279357E+00 0.64890061E+03</pdfrwt>
<pdfrwt beam="2">0</pdfrwt>
<totfact> 0.15953442E+00</totfact>
</mgrwt>
</event>
<event>
 6    1  0.2885140E-003  0.6411492E+03  0.7818608E-02  0.9823530E-01
          1   -1    0    0  502    0  0.00000000000E+00  0.00000000000E+00  0.10284453842E+03  0.10284453842E+03  0.00000000000E+00 0.  1.
         13   -1    0    0    0    0 -0.00000000000E+00 -0.00000000000E+00 -0.10000000000E+04  0.10000000000E+04  0.00000000000E+00 0.  1.
    9000005    2    1    2  501    0  0.15986630931E-02 -0.39897637990E-02 -0.89723185238E+03  0.11027680268E+04  0.64114922132E+03 0.  0.
         13    1    3    3    0    0  0.20419193222E+03 -0.13435667936E+03 -0.91858929044E+02  0.26112090172E+03  0.00000000000E+00 0.  1.
          1    1    3    3  501    0 -0.20419033356E+03  0.13435268960E+03 -0.80537292333E+03  0.84164712508E+03  0.00000000000E+00 0.  1.
         21    1    1    2  502  501 -0.15986630931E-02  0.39897637990E-02  0.76390794751E-01  0.76511616514E-01  0.00000000000E+00 0.  1.
<mgrwt>
<rscale>  1 0.64114922E+03</rscale>
<asrwt>0</asrwt>
<pdfrwt beam="1">  1        1 0.37398093E+00 0.64114922E+03</pdfrwt>
<pdfrwt beam="2">0</pdfrwt>
<totfact> 0.17471335E+00</totfact>
</mgrwt>
</event>
<event>
 6    1  0.2885140E-003  0.6481388E+03  0.7818608E-02  0.9810278E-01
          1   -1    0    0  502    0  0.00000000000E+00  0.00000000000E+00  0.10893905138E+03  0.10893905138E+03  0.00000000000E+00 0.  1.
         13   -1    0    0    0    0 -0.00000000000E+00 -0.00000000000E+00 -0.10000000000E+04  0.10000000000E+04  0.00000000000E+00 0.  1.
    9000005    2    1    2  501    0  0.16500324303E+01  0.51109430606E+01 -0.89283296731E+03  0.11032835765E+04  0.64811657771E+03 0.  0.
         13    1    3    3    0    0  0.26961861176E+03 -0.17385386691E+03 -0.51446253925E+03  0.60629288891E+03  0.00000000000E+00 0.  1.
          3    1    3    3  501    0 -0.26796857933E+03  0.17896480997E+03 -0.37837042806E+03  0.49699068758E+03  0.00000000000E+00 0.  1.
         21    1    1    2  502  501 -0.16500324303E+01 -0.51109430606E+01  0.17720186880E+01  0.56554748891E+01  0.00000000000E+00 0.  1.
<mgrwt>
<rscale>  1 0.64813883E+03</rscale>
<asrwt>0</asrwt>
<pdfrwt beam="1">  1        1 0.39614284E+00 0.64813883E+03</pdfrwt>
<pdfrwt beam="2">0</pdfrwt>
<totfact> 0.13923302E+00</totfact>
</mgrwt>
</event>
<event>
 6    1  0.2885140E-003  0.6533459E+03  0.7818608E-02  0.9800521E-01
          1   -1    0    0  502    0  0.00000000000E+00  0.00000000000E+00  0.10672354895E+03  0.10672354895E+03  0.00000000000E+00 0.  1.
         13   -1    0    0    0    0 -0.00000000000E+00 -0.00000000000E+00 -0.10000000000E+04  0.10000000000E+04  0.00000000000E+00 0.  1.
    9000005    2    1    2  501    0  0.10122365177E-01  0.12323901402E-02 -0.89328117783E+03  0.11067123096E+04  0.65334590638E+03 0.  0.
         13    1    3    3    0    0  0.13077330459E+03  0.24830708853E+02  0.58695263250E+02  0.14547630468E+03  0.00000000000E+00 0.  1.
          1    1    3    3  501    0 -0.13076318222E+03 -0.24829476463E+02 -0.95197644108E+03  0.96123600489E+03  0.00000000000E+00 0.  1.
         21    1    1    2  502  501 -0.10122365177E-01 -0.12323901402E-02  0.47267845504E-02  0.11239375179E-01  0.00000000000E+00 0. -1.
<mgrwt>
<rscale>  1 0.65334591E+03</rscale>
<asrwt>0</asrwt>
<pdfrwt beam="1">  1        1 0.38808645E+00 0.65334591E+03</pdfrwt>
<pdfrwt beam="2">0</pdfrwt>
<totfact> 0.15103607E+00</totfact>
</mgrwt>
</event>
<event>
 6    1  0.2885140E-003  0.6404118E+03  0.7818608E-02  0.9824939E-01
          1   -1    0    0  502    0  0.00000000000E+00  0.00000000000E+00  0.12857320976E+03  0.12857320976E+03  0.00000000000E+00 0.  1.
         13   -1    0    0    0    0 -0.00000000000E+00 -0.00000000000E+00 -0.10000000000E+04  0.10000000000E+04  0.00000000000E+00 0.  1.
    9000005    2    1    2  501    0  0.22145632422E+01 -0.24689763571E+01 -0.89735170882E+03  0.11024369985E+04  0.64040319037E+03 0.  0.
         13    1    3    3    0    0 -0.84748870716E+02  0.20111471308E+03 -0.84798653781E+03  0.87562016149E+03  0.00000000000E+00 0.  1.
          3    1    3    3  501    0  0.86963433958E+02 -0.20358368944E+03 -0.49365171015E+02  0.22681683703E+03  0.00000000000E+00 0.  1.
         21    1    1    2  502  501 -0.22145632422E+01  0.24689763571E+01  0.25924918581E+02  0.26136211241E+02  0.00000000000E+00 0.  1.
<mgrwt>
<rscale>  1 0.64041178E+03</rscale>
<asrwt>0</asrwt>
<pdfrwt beam="1">  1        1 0.46753993E+00 0.64041178E+03</pdfrwt>
<pdfrwt beam="2">0</pdfrwt>
<totfact> 0.66017097E-01</totfact>
</mgrwt>
</event>
<event>
 6    1  0.2885140E-003  0.5752404E+03  0.7818608E-02  0.9958149E-01
          1   -1    0    0  502    0  0.00000000000E+00  0.00000000000E+00  0.82729127557E+02  0.82729127557E+02  0.00000000000E+00 0.  1.
         13   -1    0    0    0    0 -0.00000000000E+00 -0.00000000000E+00 -0.10000000000E+04  0.10000000000E+04  0.00000000000E+00 0.  1.
    9000005    2    1    2  501    0  0.19403425485E-02  0.72450678264E-03 -0.91727429474E+03  0.10827251273E+04  0.57524044497E+03 0.  0.
         13    1    3    3    0    0 -0.19997373507E+03 -0.50316846387E+02 -0.83603584405E+03  0.86109071084E+03  0.00000000000E+00 0.  1.
          3    1    3    3  501    0  0.19997567541E+03  0.50317570893E+02 -0.81238450685E+02  0.22163441648E+03  0.00000000000E+00 0.  1.
         21    1    1    2  502  501 -0.19403425485E-02 -0.72450678264E-03  0.34222941139E-02  0.40002420284E-02  0.00000000000E+00 0. -1.
<mgrwt>
<rscale>  1 0.57524044E+03</rscale>
<asrwt>0</asrwt>
<pdfrwt beam="1">  1        1 0.30083383E+00 0.57524044E+03</pdfrwt>
<pdfrwt beam="2">0</pdfrwt>
<totfact> 0.36754875E+00</totfact>
</mgrwt>
</event>
<event>
 6    1  0.2885140E-003  0.6578043E+03  0.7818608E-02  0.9792244E-01
          1   -1    0    0  502    0  0.00000000000E+00  0.00000000000E+00  0.10820579883E+03  0.10820579883E+03  0.00000000000E+00 0.  1.
         13   -1    0    0    0    0 -0.00000000000E+00 -0.00000000000E+00 -0.10000000000E+04  0.10000000000E+04  0.00000000000E+00 0.  1.
    9000005    2    1    2  501    0 -0.13558353129E-02 -0.46434823940E-02 -0.89182313979E+03  0.11081764587E+04  0.65780434091E+03 0.  0.
         13    1    3    3    0    0 -0.96062147536E+02  0.25455648612E+03 -0.75722359710E+03  0.80462072855E+03  0.00000000000E+00 0.  1.
          3    1    3    3  501    0  0.96060791701E+02 -0.25456112961E+03 -0.13459954269E+03  0.30355573014E+03  0.00000000000E+00 0.  1.
         21    1    1    2  502  501  0.13558353129E-02  0.46434823940E-02  0.28938610780E-01  0.29340133128E-01  0.00000000000E+00 0.  1.
<mgrwt>
<rscale>  1 0.65780434E+03</rscale>
<asrwt>0</asrwt>
<pdfrwt beam="1">  1        1 0.39347646E+00 0.65780434E+03</pdfrwt>
<pdfrwt beam="2">0</pdfrwt>
<totfact> 0.14282615E+00</totfact>
</mgrwt>
</event>
<event>
 6    1  0.2885140E-003  0.6314832E+03  0.7818608E-02  0.9842159E-01
          1   -1    0    0  502    0  0.00000000000E+00  0.00000000000E+00  0.10020537249E+03  0.10020537249E+03  0.00000000000E+00 0.  1.
         13   -1    0    0    0    0 -0.00000000000E+00 -0.00000000000E+00 -0.10000000000E+04  0.10000000000E+04  0.00000000000E+00 0.  1.
    9000005    2    1    2  501    0  0.21967007145E+00 -0.89633774186E-01 -0.90027687940E+03  0.10996679192E+04  0.63148318795E+03 0.  0.
         13    1    3    3    0    0 -0.24616900370E+03  0.40885671443E+02 -0.78661841551E+03  0.82525108187E+03  0.00000000000E+00 0.  1.
          3    1    3    3  501    0  0.24638867377E+03 -0.40975305218E+02 -0.11365846389E+03  0.27441683733E+03  0.00000000000E+00 0.  1.
         21    1    1    2  502  501 -0.21967007145E+00  0.89633774186E-01  0.48225188174E+00  0.53745328281E+00  0.00000000000E+00 0. -1.
<mgrwt>
<rscale>  1 0.63148323E+03</rscale>
<asrwt>0</asrwt>
<pdfrwt beam="1">  1        1 0.36438394E+00 0.63148323E+03</pdfrwt>
<pdfrwt beam="2">0</pdfrwt>
<totfact> 0.19285177E+00</totfact>
</mgrwt>
</event>
<event>
 6    1  0.2885140E-003  0.6468779E+03  0.7818608E-02  0.9812655E-01
          1   -1    0    0  502    0  0.00000000000E+00  0.00000000000E+00  0.10462427640E+03  0.10462427640E+03  0.00000000000E+00 0.  1.
         13   -1    0    0    0    0 -0.00000000000E+00 -0.00000000000E+00 -0.10000000000E+04  0.10000000000E+04  0.00000000000E+00 0.  1.
    9000005    2    1    2  501    0 -0.27730803313E-02  0.13488848505E-01 -0.89538251356E+03  0.11046089225E+04  0.64687790645E+03 0.  0.
         13    1    3    3    0    0  0.29856646803E+03 -0.62377121027E+02 -0.26394603329E+03  0.40336131390E+03  0.00000000000E+00 0.  1.
          3    1    3    3  501    0 -0.29856924111E+03  0.62390609876E+02 -0.63143648027E+03  0.70124760859E+03  0.00000000000E+00 0.  1.
         21    1    1    2  502  501  0.27730803313E-02 -0.13488848505E-01  0.67899635532E-02  0.15353911996E-01  0.00000000000E+00 0. -1.
<mgrwt>
<rscale>  1 0.64687791E+03</rscale>
<asrwt>0</asrwt>
<pdfrwt beam="1">  1        1 0.38045272E+00 0.64687791E+03</pdfrwt>
<pdfrwt beam="2">0</pdfrwt>
<totfact> 0.16343790E+00</totfact>
</mgrwt>
</event>
<event>
 6    1  0.2885140E-003  0.6521228E+03  0.7818608E-02  0.9802804E-01
          1   -1    0    0  502    0  0.00000000000E+00  0.00000000000E+00  0.10636411355E+03  0.10636411355E+03  0.00000000000E+00 0.  1.
         13   -1    0    0    0    0 -0.00000000000E+00 -0.00000000000E+00 -0.10000000000E+04  0.10000000000E+04  0.00000000000E+00 0.  1.
    9000005    2    1    2  501    0 -0.31793495384E-03  0.33481098917E-02 -0.89368390380E+03  0.11063159786E+04  0.65212278332E+03 0.  0.
         13    1    3    3    0    0  0.19352124597E+03  0.20283434365E+03 -0.16436765642E+03  0.32497533766E+03  0.00000000000E+00 0.  1.
          1    1    3    3  501    0 -0.19352156391E+03 -0.20283099554E+03 -0.72931624737E+03  0.78134064091E+03  0.00000000000E+00 0.  1.
         21    1    1    2  502  501  0.31793495385E-03 -0.33481098917E-02  0.48017347248E-01  0.48134982697E-01  0.00000000000E+00 0.  1.
<mgrwt>
<rscale>  1 0.65212278E+03</rscale>
<asrwt>0</asrwt>
<pdfrwt beam="1">  1        1 0.38677941E+00 0.65212278E+03</pdfrwt>
<pdfrwt beam="2">0</pdfrwt>
<totfact> 0.15309731E+00</totfact>
</mgrwt>
</event>
<event>
 6    1  0.2885140E-003  0.6537136E+03  0.7818608E-02  0.9799836E-01
          1   -1    0    0  502    0  0.00000000000E+00  0.00000000000E+00  0.10686808026E+03  0.10686808026E+03  0.00000000000E+00 0.  1.
         13   -1    0    0    0    0 -0.00000000000E+00 -0.00000000000E+00 -0.10000000000E+04  0.10000000000E+04  0.00000000000E+00 0.  1.
    9000005    2    1    2  501    0 -0.76560763782E-02  0.20853989578E-02 -0.89316409327E+03  0.11068349427E+04  0.65371361677E+03 0.  0.
         13    1    3    3    0    0  0.27604107160E+03  0.11759836561E+03 -0.22708523859E+03  0.37629211311E+03  0.00000000000E+00 0.  1.
          1    1    3    3  501    0 -0.27604872767E+03 -0.11759628021E+03 -0.66607885468E+03  0.73054282956E+03  0.00000000000E+00 0.  1.
         21    1    1    2  502  501  0.76560763782E-02 -0.20853989578E-02  0.32173527016E-01  0.33137595492E-01  0.00000000000E+00 0.  1.
<mgrwt>
<rscale>  1 0.65371362E+03</rscale>
<asrwt>0</asrwt>
<pdfrwt beam="1">  1        1 0.38861202E+00 0.65371362E+03</pdfrwt>
<pdfrwt beam="2">0</pdfrwt>
<totfact> 0.15021812E+00</totfact>
</mgrwt>
</event>
<event>
 6    1  0.2885140E-003  0.6420679E+03  0.7818608E-02  0.9821778E-01
          1   -1    0    0  502    0  0.00000000000E+00  0.00000000000E+00  0.10306308715E+03  0.10306308715E+03  0.00000000000E+00 0.  1.
         13   -1    0    0    0    0 -0.00000000000E+00 -0.00000000000E+00 -0.10000000000E+04  0.10000000000E+04  0.00000000000E+00 0.  1.
    9000005    2    1    2  501    0  0.24204160218E-03  0.10927405700E-03 -0.89693711613E+03  0.11030627527E+04  0.64206794511E+03 0.  0.
         13    1    3    3    0    0 -0.21244655396E+03 -0.18840063997E+02 -0.36244266159E+02  0.21633800667E+03  0.00000000000E+00 0.  1.
          3    1    3    3  501    0  0.21244679600E+03  0.18840173271E+02 -0.86069284997E+03  0.88672474604E+03  0.00000000000E+00 0.  1.
         21    1    1    2  502  501 -0.24204160219E-03 -0.10927405700E-03  0.20328221716E-03  0.33443776184E-03  0.00000000000E+00 0.  1.
<mgrwt>
<rscale>  1 0.64206795E+03</rscale>
<asrwt>0</asrwt>
<pdfrwt beam="1">  1        1 0.37477565E+00 0.64206795E+03</pdfrwt>
<pdfrwt beam="2">0</pdfrwt>
<totfact> 0.17328297E+00</totfact>
</mgrwt>
</event>
<event>
 6    1  0.2885140E-003  0.6689728E+03  0.7818608E-02  0.9771815E-01
          1   -1    0    0  502    0  0.00000000000E+00  0.00000000000E+00  0.18218225587E+03  0.18218225587E+03  0.00000000000E+00 0.  1.
         13   -1    0    0    0    0 -0.00000000000E+00 -0.00000000000E+00 -0.10000000000E+04  0.10000000000E+04  0.00000000000E+00 0.  1.
    9000005    2    1    2  501    0 -0.37611993316E+02  0.62586355122E+02 -0.86630138676E+03  0.10945330831E+04  0.66497583667E+03 0.  0.
         13    1    3    3    0    0  0.10623185750E+03  0.86233520991E+02 -0.92669611724E+03  0.93674282564E+03  0.00000000000E+00 0.  1.
          3    1    3    3  501    0 -0.14384385082E+03 -0.23647165869E+02  0.60394730475E+02  0.15779025743E+03  0.00000000000E+00 0.  1.
         21    1    1    2  502  501  0.37611993316E+02 -0.62586355122E+02  0.48483642632E+02  0.87649172794E+02  0.00000000000E+00 0.  1.
<mgrwt>
<rscale>  1 0.66897278E+03</rscale>
<asrwt>0</asrwt>
<pdfrwt beam="1">  1        1 0.66248233E+00 0.66897278E+03</pdfrwt>
<pdfrwt beam="2">0</pdfrwt>
<totfact> 0.62144656E-02</totfact>
</mgrwt>
</event>
<event>
 6    1  0.2885140E-003  0.6494664E+03  0.7818608E-02  0.9807781E-01
          1   -1    0    0  502    0  0.00000000000E+00  0.00000000000E+00  0.11005856694E+03  0.11005856694E+03  0.00000000000E+00 0.  1.
         13   -1    0    0    0    0 -0.00000000000E+00 -0.00000000000E+00 -0.10000000000E+04  0.10000000000E+04  0.00000000000E+00 0.  1.
    9000005    2    1    2  501    0 -0.47076882520E+01 -0.34147897159E+00 -0.89317248345E+03  0.11043385474E+04  0.64944919988E+03 0.  0.
         13    1    3    3    0    0  0.12080026586E+03  0.12462762207E+03 -0.91002072591E+03  0.92642456250E+03  0.00000000000E+00 0.  1.
          3    1    3    3  501    0 -0.12550795412E+03 -0.12496910104E+03  0.16848242464E+02  0.17791398493E+03  0.00000000000E+00 0.  1.
         21    1    1    2  502  501  0.47076882520E+01  0.34147897159E+00  0.32310503922E+01  0.57200195107E+01  0.00000000000E+00 0.  1.
<mgrwt>
<rscale>  1 0.64946635E+03</rscale>
<asrwt>0</asrwt>
<pdfrwt beam="1">  1        1 0.40021381E+00 0.64946635E+03</pdfrwt>
<pdfrwt beam="2">0</pdfrwt>
<totfact> 0.13350758E+00</totfact>
</mgrwt>
</event>
<event>
 6    1  0.2885140E-003  0.6535516E+03  0.7818608E-02  0.9800138E-01
          1   -1    0    0  502    0  0.00000000000E+00  0.00000000000E+00  0.10679117448E+03  0.10679117448E+03  0.00000000000E+00 0.  1.
         13   -1    0    0    0    0 -0.00000000000E+00 -0.00000000000E+00 -0.10000000000E+04  0.10000000000E+04  0.00000000000E+00 0.  1.
    9000005    2    1    2  501    0  0.68165579691E-04 -0.17653032384E-01 -0.89320634880E+03  0.11067733484E+04  0.65355157634E+03 0.  0.
         13    1    3    3    0    0  0.65582476083E+02 -0.10842153626E+03 -0.95670046167E+03  0.96505547201E+03  0.00000000000E+00 0.  1.
          3    1    3    3  501    0 -0.65582407917E+02  0.10840388323E+03  0.63494112869E+02  0.14171787642E+03  0.00000000000E+00 0.  1.
         21    1    1    2  502  501 -0.68165579698E-04  0.17653032384E-01 -0.24767194371E-02  0.17826057839E-01  0.00000000000E+00 0. -1.
<mgrwt>
<rscale>  1 0.65355158E+03</rscale>
<asrwt>0</asrwt>
<pdfrwt beam="1">  1        1 0.38833236E+00 0.65355158E+03</pdfrwt>
<pdfrwt beam="2">0</pdfrwt>
<totfact> 0.15065189E+00</totfact>
</mgrwt>
</event>
<event>
 6    1  0.2885140E-003  0.6525106E+03  0.7818608E-02  0.9802080E-01
          1   -1    0    0  502    0  0.00000000000E+00  0.00000000000E+00  0.10646025055E+03  0.10646025055E+03  0.00000000000E+00 0.  1.
         13   -1    0    0    0    0 -0.00000000000E+00 -0.00000000000E+00 -0.10000000000E+04  0.10000000000E+04  0.00000000000E+00 0.  1.
    9000005    2    1    2  501    0 -0.49813870908E-03 -0.39527981895E-03 -0.89355748187E+03  0.11064425067E+04  0.65251057256E+03 0.  0.
         13    1    3    3    0    0  0.31937244381E+03 -0.53348646748E+02 -0.37900386470E+03  0.49848647467E+03  0.00000000000E+00 0.  1.
          1    1    3    3  501    0 -0.31937294194E+03  0.53348251468E+02 -0.51455361717E+03  0.60795603206E+03  0.00000000000E+00 0.  1.
         21    1    1    2  502  501  0.49813870907E-03  0.39527981895E-03  0.17732418723E-01  0.17743817573E-01  0.00000000000E+00 0. -1.
<mgrwt>
<rscale>  1 0.65251057E+03</rscale>
<asrwt>0</asrwt>
<pdfrwt beam="1">  1        1 0.38712900E+00 0.65251057E+03</pdfrwt>
<pdfrwt beam="2">0</pdfrwt>
<totfact> 0.15254169E+00</totfact>
</mgrwt>
</event>
<event>
 6    1  0.2885140E-003  0.5649618E+03  0.7818608E-02  0.9980890E-01
          1   -1    0    0  502    0  0.00000000000E+00  0.00000000000E+00  0.79795496936E+02  0.79795496936E+02  0.00000000000E+00 0.  1.
         13   -1    0    0    0    0 -0.00000000000E+00 -0.00000000000E+00 -0.10000000000E+04  0.10000000000E+04  0.00000000000E+00 0.  1.
    9000005    2    1    2  501    0 -0.22530630304E-05 -0.13496366007E-04 -0.92020455106E+03  0.10797954470E+04  0.56496176120E+03 0.  0.
         13    1    3    3    0    0 -0.26538986241E+03  0.14470486154E+02 -0.64296887990E+03  0.69573713036E+03  0.00000000000E+00 0.  1.
          3    1    3    3  501    0  0.26538986016E+03 -0.14470499650E+02 -0.27723567116E+03  0.38405831667E+03  0.00000000000E+00 0.  1.
         21    1    1    2  502  501  0.22530629908E-05  0.13496366008E-04  0.47999219857E-04  0.49911454548E-04  0.00000000000E+00 0. -1.
<mgrwt>
<rscale>  1 0.56496176E+03</rscale>
<asrwt>0</asrwt>
<pdfrwt beam="1">  1        1 0.29016606E+00 0.56496176E+03</pdfrwt>
<pdfrwt beam="2">0</pdfrwt>
<totfact> 0.40936713E+00</totfact>
</mgrwt>
</event>
<event>
 6    1  0.2885140E-003  0.6497039E+03  0.7818608E-02  0.9807335E-01
          3   -1    0    0  502    0  0.00000000000E+00  0.00000000000E+00  0.10629421708E+03  0.10629421708E+03  0.00000000000E+00 0.  1.
         13   -1    0    0    0    0 -0.00000000000E+00 -0.00000000000E+00 -0.10000000000E+04  0.10000000000E+04  0.00000000000E+00 0.  1.
    9000005    2    1    2  501    0 -0.20030515423E-01 -0.13576207807E-01 -0.89447098324E+03  0.11055286343E+04  0.64970394852E+03 0.  0.
         13    1    3    3    0    0  0.23148996730E+03  0.89156268932E+01 -0.59737647418E+02  0.23923979577E+03  0.00000000000E+00 0.  1.
          1    1    3    3  501    0 -0.23150999781E+03 -0.89292031010E+01 -0.83473333582E+03  0.86628883848E+03  0.00000000000E+00 0.  1.
         21    1    1    2  502  501  0.20030515423E-01  0.13576207807E-01  0.76520032016E+00  0.76558282696E+00  0.00000000000E+00 0.  1.
<mgrwt>
<rscale>  1 0.64970395E+03</rscale>
<asrwt>0</asrwt>
<pdfrwt beam="1">  1        3 0.38652524E+00 0.64970395E+03</pdfrwt>
<pdfrwt beam="2">0</pdfrwt>
<totfact> 0.69730587E-02</totfact>
</mgrwt>
</event>
<event>
 6    1  0.2885140E-003  0.6305034E+03  0.7818608E-02  0.9844067E-01
          1   -1    0    0  502    0  0.00000000000E+00  0.00000000000E+00  0.99909900747E+02  0.99909900747E+02  0.00000000000E+00 0.  1.
         13   -1    0    0    0    0 -0.00000000000E+00 -0.00000000000E+00 -0.10000000000E+04  0.10000000000E+04  0.00000000000E+00 0.  1.
    9000005    2    1    2  501    0 -0.27749420748E+00  0.18672412816E+00 -0.90055735851E+03  0.10993352703E+04  0.63050326620E+03 0.  0.
         13    1    3    3    0    0 -0.31147991157E+03 -0.47304602047E+02 -0.47534057977E+03  0.57026846964E+03  0.00000000000E+00 0.  1.
          1    1    3    3  501    0  0.31120241737E+03  0.47491326175E+02 -0.42521677874E+03  0.52906680066E+03  0.00000000000E+00 0.  1.
         21    1    1    2  502  501  0.27749420748E+00 -0.18672412816E+00  0.46725926060E+00  0.57463044806E+00  0.00000000000E+00 0. -1.
<mgrwt>
<rscale>  1 0.63050335E+03</rscale>
<asrwt>0</asrwt>
<pdfrwt beam="1">  1        1 0.36330950E+00 0.63050335E+03</pdfrwt>
<pdfrwt beam="2">0</pdfrwt>
<totfact> 0.19498758E+00</totfact>
</mgrwt>
</event>
<event>
 6    1  0.2885140E-003  0.6489412E+03  0.7818608E-02  0.9808768E-01
          1   -1    0    0  502    0  0.00000000000E+00  0.00000000000E+00  0.10530483640E+03  0.10530483640E+03  0.00000000000E+00 0.  1.
         13   -1    0    0    0    0 -0.00000000000E+00 -0.00000000000E+00 -0.10000000000E+04  0.10000000000E+04  0.00000000000E+00 0.  1.
    9000005    2    1    2  501    0  0.11967758701E-01  0.64389918669E-01 -0.89453997959E+03  0.11051363984E+04  0.64894119891E+03 0.  0.
         13    1    3    3    0    0 -0.13049450463E+03  0.27214680576E+03 -0.24433827819E+03  0.38832189458E+03  0.00000000000E+00 0.  1.
          3    1    3    3  501    0  0.13050647239E+03 -0.27208241584E+03 -0.65020170141E+03  0.71681450380E+03  0.00000000000E+00 0.  1.
         21    1    1    2  502  501 -0.11967758701E-01 -0.64389918669E-01 -0.15518400856E+00  0.16843801645E+00  0.00000000000E+00 0.  1.
<mgrwt>
<rscale>  1 0.64894120E+03</rscale>
<asrwt>0</asrwt>
<pdfrwt beam="1">  1        1 0.38292749E+00 0.64894120E+03</pdfrwt>
<pdfrwt beam="2">0</pdfrwt>
<totfact> 0.15931602E+00</totfact>
</mgrwt>
</event>
<event>
 6    1  0.2885140E-003  0.6540433E+03  0.7818608E-02  0.9799222E-01
          1   -1    0    0  502    0  0.00000000000E+00  0.00000000000E+00  0.11054253960E+03  0.11054253960E+03  0.00000000000E+00 0.  1.
         13   -1    0    0    0    0 -0.00000000000E+00 -0.00000000000E+00 -0.10000000000E+04  0.10000000000E+04  0.00000000000E+00 0.  1.
    9000005    2    1    2  501    0 -0.26780647955E+01  0.15374760024E+01 -0.89230861643E+03  0.11063395699E+04  0.65403596318E+03 0.  0.
         13    1    3    3    0    0  0.26435531244E+03  0.12478921882E+03 -0.20013420952E+03  0.35427359790E+03  0.00000000000E+00 0.  1.
          3    1    3    3  501    0 -0.26703337724E+03 -0.12325174282E+03 -0.69217440691E+03  0.75206597201E+03  0.00000000000E+00 0.  1.
         21    1    1    2  502  501  0.26780647955E+01 -0.15374760024E+01  0.28511560349E+01  0.42029696932E+01  0.00000000000E+00 0.  1.
<mgrwt>
<rscale>  1 0.65404325E+03</rscale>
<asrwt>0</asrwt>
<pdfrwt beam="1">  1        1 0.40197372E+00 0.65404325E+03</pdfrwt>
<pdfrwt beam="2">0</pdfrwt>
<totfact> 0.13100208E+00</totfact>
</mgrwt>
</event>
<event>
 6    1  0.2885140E-003  0.6468158E+03  0.7818608E-02  0.9812773E-01
          1   -1    0    0  502    0  0.00000000000E+00  0.00000000000E+00  0.10459411798E+03  0.10459411798E+03  0.00000000000E+00 0.  1.
         13   -1    0    0    0    0 -0.00000000000E+00 -0.00000000000E+00 -0.10000000000E+04  0.10000000000E+04  0.00000000000E+00 0.  1.
    9000005    2    1    2  501    0 -0.56493672037E-03  0.64041294904E-03 -0.89540719567E+03  0.11045925511E+04  0.64681578365E+03 0.  0.
         13    1    3    3    0    0 -0.23928710815E+03 -0.83241573868E+02 -0.79097744024E+03  0.83056173203E+03  0.00000000000E+00 0.  1.
          3    1    3    3  501    0  0.23928654322E+03  0.83242214281E+02 -0.10442975543E+03  0.27403081911E+03  0.00000000000E+00 0.  1.
         21    1    1    2  502  501  0.56493672037E-03 -0.64041294904E-03  0.13136537296E-02  0.15668338663E-02  0.00000000000E+00 0.  1.
<mgrwt>
<rscale>  1 0.64681578E+03</rscale>
<asrwt>0</asrwt>
<pdfrwt beam="1">  1        1 0.38034305E+00 0.64681578E+03</pdfrwt>
<pdfrwt beam="2">0</pdfrwt>
<totfact> 0.16362200E+00</totfact>
</mgrwt>
</event>
<event>
 6    1  0.2885140E-003  0.6169856E+03  0.7818608E-02  0.9870780E-01
          1   -1    0    0  502    0  0.00000000000E+00  0.00000000000E+00  0.95447446834E+02  0.95447446834E+02  0.00000000000E+00 0.  1.
         13   -1    0    0    0    0 -0.00000000000E+00 -0.00000000000E+00 -0.10000000000E+04  0.10000000000E+04  0.00000000000E+00 0.  1.
    9000005    2    1    2  501    0  0.85794207206E-01 -0.64730873939E-01 -0.90482085412E+03  0.10951584207E+04  0.61698555634E+03 0.  0.
         13    1    3    3    0    0 -0.41078129062E+01 -0.18779370242E+03 -0.18026536403E+02  0.18870162906E+03  0.00000000000E+00 0.  1.
          3    1    3    3  501    0  0.41936071134E+01  0.18772897154E+03 -0.88679431772E+03  0.90645679160E+03  0.00000000000E+00 0.  1.
         21    1    1    2  502  501 -0.85794207206E-01  0.64730873939E-01  0.26830095264E+00  0.28902618085E+00  0.00000000000E+00 0.  1.
<mgrwt>
<rscale>  1 0.61698557E+03</rscale>
<asrwt>0</asrwt>
<pdfrwt beam="1">  1        1 0.34708236E+00 0.61698557E+03</pdfrwt>
<pdfrwt beam="2">0</pdfrwt>
<totfact> 0.23009276E+00</totfact>
</mgrwt>
</event>
<event>
 6    1  0.2885140E-003  0.6485867E+03  0.7818608E-02  0.9809435E-01
          1   -1    0    0  502    0  0.00000000000E+00  0.00000000000E+00  0.10516625712E+03  0.10516625712E+03  0.00000000000E+00 0.  1.
         13   -1    0    0    0    0 -0.00000000000E+00 -0.00000000000E+00 -0.10000000000E+04  0.10000000000E+04  0.00000000000E+00 0.  1.
    9000005    2    1    2  501    0  0.34316379356E-05  0.84700244543E-05 -0.89483382402E+03  0.11051661755E+04  0.64858669644E+03 0.  0.
         13    1    3    3    0    0 -0.28158425067E+03 -0.85058678318E+02 -0.68006528928E+03  0.74095442954E+03  0.00000000000E+00 0.  1.
          3    1    3    3  501    0  0.28158425410E+03  0.85058686788E+02 -0.21476853474E+03  0.36421174592E+03  0.00000000000E+00 0.  1.
         21    1    1    2  502  501 -0.34316379353E-05 -0.84700244595E-05  0.81134115506E-04  0.81647180920E-04  0.00000000000E+00 0.  1.
<mgrwt>
<rscale>  1 0.64858670E+03</rscale>
<asrwt>0</asrwt>
<pdfrwt beam="1">  1        1 0.38242356E+00 0.64858670E+03</pdfrwt>
<pdfrwt beam="2">0</pdfrwt>
<totfact> 0.16014530E+00</totfact>
</mgrwt>
</event>
<event>
 6    1  0.2885140E-003  0.4613560E+03  0.7818608E-02  0.1024389E+00
          1   -1    0    0  502    0  0.00000000000E+00  0.00000000000E+00  0.54394200896E+02  0.54394200896E+02  0.00000000000E+00 0.  1.
         13   -1    0    0    0    0 -0.00000000000E+00 -0.00000000000E+00 -0.10000000000E+04  0.10000000000E+04  0.00000000000E+00 0.  1.
    9000005    2    1    2  501    0 -0.16362784182E+00 -0.71350048517E-01 -0.94678056801E+03  0.10532059472E+04  0.46135592698E+03 0.  0.
         13    1    3    3    0    0  0.13013421981E+03  0.16240526170E+03 -0.24645863233E+03  0.32257129699E+03  0.00000000000E+00 0.  1.
          1    1    3    3  501    0 -0.13029784765E+03 -0.16247661175E+03 -0.70032193568E+03  0.73063465019E+03  0.00000000000E+00 0.  1.
         21    1    1    2  502  501  0.16362784182E+00  0.71350048517E-01  0.11747689059E+01  0.11882537113E+01  0.00000000000E+00 0. -1.
<mgrwt>
<rscale>  1 0.46135596E+03</rscale>
<asrwt>0</asrwt>
<pdfrwt beam="1">  1        1 0.19779751E+00 0.46135596E+03</pdfrwt>
<pdfrwt beam="2">0</pdfrwt>
<totfact> 0.10583842E+01</totfact>
</mgrwt>
</event>
<event>
 6    1  0.2885140E-003  0.6359647E+03  0.7818608E-02  0.9833478E-01
          1   -1    0    0  502    0  0.00000000000E+00  0.00000000000E+00  0.10112914765E+03  0.10112914765E+03  0.00000000000E+00 0.  1.
         13   -1    0    0    0    0 -0.00000000000E+00 -0.00000000000E+00 -0.10000000000E+04  0.10000000000E+04  0.00000000000E+00 0.  1.
    9000005    2    1    2  501    0  0.49712534318E-01  0.12750264232E-01 -0.89880444205E+03  0.11010452177E+04  0.63596473470E+03 0.  0.
         13    1    3    3    0    0  0.10635171943E+03  0.20149448443E+03 -0.83347914453E+03  0.86405914140E+03  0.00000000000E+00 0.  1.
          1    1    3    3  501    0 -0.10630200690E+03 -0.20148173416E+03 -0.65325297523E+02  0.23698607632E+03  0.00000000000E+00 0.  1.
         21    1    1    2  502  501 -0.49712534318E-01 -0.12750264232E-01 -0.66410299998E-01  0.83929930609E-01  0.00000000000E+00 0. -1.
<mgrwt>
<rscale>  1 0.63596474E+03</rscale>
<asrwt>0</asrwt>
<pdfrwt beam="1">  1        1 0.36774313E+00 0.63596474E+03</pdfrwt>
<pdfrwt beam="2">0</pdfrwt>
<totfact> 0.18626987E+00</totfact>
</mgrwt>
</event>
<event>
 6    1  0.2885140E-003  0.6483516E+03  0.7818608E-02  0.9809877E-01
          1   -1    0    0  502    0  0.00000000000E+00  0.00000000000E+00  0.10525464505E+03  0.10525464505E+03  0.00000000000E+00 0.  1.
         13   -1    0    0    0    0 -0.00000000000E+00 -0.00000000000E+00 -0.10000000000E+04  0.10000000000E+04  0.00000000000E+00 0.  1.
    9000005    2    1    2  501    0  0.16009905597E-01  0.16525323852E+00 -0.89486251673E+03  0.11050514411E+04  0.64835155289E+03 0.  0.
         13    1    3    3    0    0  0.17533860268E+03 -0.16178019559E+03 -0.73383382488E+02  0.24960284073E+03  0.00000000000E+00 0.  1.
          1    1    3    3  501    0 -0.17532259278E+03  0.16194544883E+03 -0.82147913424E+03  0.85544860040E+03  0.00000000000E+00 0.  1.
         21    1    1    2  502  501 -0.16009905597E-01 -0.16525323852E+00  0.11716177692E+00  0.20320391701E+00  0.00000000000E+00 0.  1.
<mgrwt>
<rscale>  1 0.64835157E+03</rscale>
<asrwt>0</asrwt>
<pdfrwt beam="1">  1        1 0.38274497E+00 0.64835157E+03</pdfrwt>
<pdfrwt beam="2">0</pdfrwt>
<totfact> 0.15962947E+00</totfact>
</mgrwt>
</event>
<event>
 6    1  0.2885140E-003  0.6518914E+03  0.7818608E-02  0.9803237E-01
          3   -1    0    0  502    0  0.00000000000E+00  0.00000000000E+00  0.10624245422E+03  0.10624245422E+03  0.00000000000E+00 0.  1.
         13   -1    0    0    0    0 -0.00000000000E+00 -0.00000000000E+00 -0.10000000000E+04  0.10000000000E+04  0.00000000000E+00 0.  1.
    9000005    2    1    2  501    0 -0.26224753918E-02  0.47869432762E-02 -0.89375245252E+03  0.11062349887E+04  0.65189140497E+03 0.  0.
         13    1    3    3    0    0  0.26122322881E+03 -0.96455937771E+02 -0.15939956931E+03  0.32085751651E+03  0.00000000000E+00 0.  1.
          1    1    3    3  501    0 -0.26122585129E+03  0.96460724714E+02 -0.73435288321E+03  0.78537747222E+03  0.00000000000E+00 0.  1.
         21    1    1    2  502  501  0.26224753917E-02 -0.47869432762E-02 -0.50932651434E-02  0.74654908031E-02  0.00000000000E+00 0. -1.
<mgrwt>
<rscale>  1 0.65189140E+03</rscale>
<asrwt>0</asrwt>
<pdfrwt beam="1">  1        3 0.38633701E+00 0.65189140E+03</pdfrwt>
<pdfrwt beam="2">0</pdfrwt>
<totfact> 0.69864522E-02</totfact>
</mgrwt>
</event>
<event>
 6    1  0.2885140E-003  0.6451365E+03  0.7818608E-02  0.9815948E-01
          1   -1    0    0  502    0  0.00000000000E+00  0.00000000000E+00  0.10405633397E+03  0.10405633397E+03  0.00000000000E+00 0.  1.
         13   -1    0    0    0    0 -0.00000000000E+00 -0.00000000000E+00 -0.10000000000E+04  0.10000000000E+04  0.00000000000E+00 0.  1.
    9000005    2    1    2  501    0 -0.24945538681E-02  0.39624227310E-02 -0.89594870085E+03  0.11040494584E+04  0.64513652206E+03 0.  0.
         13    1    3    3    0    0 -0.13005489822E+03  0.78661737583E+02  0.38927418506E+02  0.15689897840E+03  0.00000000000E+00 0.  1.
          3    1    3    3  501    0  0.13005240367E+03 -0.78657775160E+02 -0.93487611935E+03  0.94715048004E+03  0.00000000000E+00 0.  1.
         21    1    1    2  502  501  0.24945538681E-02 -0.39624227310E-02  0.50348146113E-02  0.68755327845E-02  0.00000000000E+00 0.  1.
<mgrwt>
<rscale>  1 0.64513652E+03</rscale>
<asrwt>0</asrwt>
<pdfrwt beam="1">  1        1 0.37838747E+00 0.64513652E+03</pdfrwt>
<pdfrwt beam="2">0</pdfrwt>
<totfact> 0.16695580E+00</totfact>
</mgrwt>
</event>
<event>
 6    1  0.2885140E-003  0.6553167E+03  0.7818608E-02  0.9796854E-01
          1   -1    0    0  502    0  0.00000000000E+00  0.00000000000E+00  0.10736823396E+03  0.10736823396E+03  0.00000000000E+00 0.  1.
         13   -1    0    0    0    0 -0.00000000000E+00 -0.00000000000E+00 -0.10000000000E+04  0.10000000000E+04  0.00000000000E+00 0.  1.
    9000005    2    1    2  501    0 -0.99674842020E-02  0.59735297372E-02 -0.89263518762E+03  0.11073561203E+04  0.65531671644E+03 0.  0.
         13    1    3    3    0    0 -0.15542670205E+03 -0.28633725612E+03 -0.38745594959E+03  0.50622978658E+03  0.00000000000E+00 0.  1.
          3    1    3    3  501    0  0.15541673457E+03  0.28634322964E+03 -0.50517923803E+03  0.60112633371E+03  0.00000000000E+00 0.  1.
         21    1    1    2  502  501  0.99674842020E-02 -0.59735297372E-02  0.34215792934E-02  0.12113670117E-01  0.00000000000E+00 0. -1.
<mgrwt>
<rscale>  1 0.65531672E+03</rscale>
<asrwt>0</asrwt>
<pdfrwt beam="1">  1        1 0.39043076E+00 0.65531672E+03</pdfrwt>
<pdfrwt beam="2">0</pdfrwt>
<totfact> 0.14741090E+00</totfact>
</mgrwt>
</event>
<event>
 6    1  0.2885140E-003  0.6473104E+03  0.7818608E-02  0.9811839E-01
          1   -1    0    0  502    0  0.00000000000E+00  0.00000000000E+00  0.10480802629E+03  0.10480802629E+03  0.00000000000E+00 0.  1.
         13   -1    0    0    0    0 -0.00000000000E+00 -0.00000000000E+00 -0.10000000000E+04  0.10000000000E+04  0.00000000000E+00 0.  1.
    9000005    2    1    2  501    0  0.54751199117E-02  0.12579787969E-01 -0.89524638595E+03  0.11047519110E+04  0.64731035309E+03 0.  0.
         13    1    3    3    0    0  0.11410551327E+03 -0.15096791701E+03 -0.89573384503E+03  0.91550559871E+03  0.00000000000E+00 0.  1.
          1    1    3    3  501    0 -0.11410003815E+03  0.15098049680E+03  0.48745907845E+00  0.18924631234E+03  0.00000000000E+00 0.  1.
         21    1    1    2  502  501 -0.54751199117E-02 -0.12579787969E-01  0.54412244125E-01  0.56115241371E-01  0.00000000000E+00 0.  1.
<mgrwt>
<rscale>  1 0.64731035E+03</rscale>
<asrwt>0</asrwt>
<pdfrwt beam="1">  1        1 0.38112090E+00 0.64731035E+03</pdfrwt>
<pdfrwt beam="2">0</pdfrwt>
<totfact> 0.16231883E+00</totfact>
</mgrwt>
</event>
<event>
 6    1  0.2885140E-003  0.6584941E+03  0.7818608E-02  0.9790970E-01
          1   -1    0    0  502    0  0.00000000000E+00  0.00000000000E+00  0.10840363944E+03  0.10840363944E+03  0.00000000000E+00 0.  1.
         13   -1    0    0    0    0 -0.00000000000E+00 -0.00000000000E+00 -0.10000000000E+04  0.10000000000E+04  0.00000000000E+00 0.  1.
    9000005    2    1    2  501    0  0.14758359114E-04 -0.98082618365E-05 -0.89159637643E+03  0.11084036157E+04  0.65849409771E+03 0.  0.
         13    1    3    3    0    0 -0.11884784710E+03 -0.26678890177E+03 -0.18995406199E+03  0.34840159950E+03  0.00000000000E+00 0.  1.
          1    1    3    3  501    0  0.11884786186E+03  0.26678889196E+03 -0.70164231444E+03  0.76000201615E+03  0.00000000000E+00 0.  1.
         21    1    1    2  502  501 -0.14758359105E-04  0.98082618291E-05  0.15878796481E-04  0.23793850913E-04  0.00000000000E+00 0.  1.
<mgrwt>
<rscale>  1 0.65849410E+03</rscale>
<asrwt>0</asrwt>
<pdfrwt beam="1">  1        1 0.39419588E+00 0.65849410E+03</pdfrwt>
<pdfrwt beam="2">0</pdfrwt>
<totfact> 0.14176040E+00</totfact>
</mgrwt>
</event>
<event>
 6    1  0.2885140E-003  0.6522874E+03  0.7818608E-02  0.9802496E-01
          1   -1    0    0  502    0  0.00000000000E+00  0.00000000000E+00  0.10640954007E+03  0.10640954007E+03  0.00000000000E+00 0.  1.
         13   -1    0    0    0    0 -0.00000000000E+00 -0.00000000000E+00 -0.10000000000E+04  0.10000000000E+04  0.00000000000E+00 0.  1.
    9000005    2    1    2  501    0  0.54644247641E-03  0.17090340079E-02 -0.89363026482E+03  0.11063696948E+04  0.65228739930E+03 0.  0.
         13    1    3    3    0    0  0.19117975667E+03 -0.53705184337E+02 -0.79910858299E+01  0.19874054352E+03  0.00000000000E+00 0.  1.
          1    1    3    3  501    0 -0.19117921023E+03  0.53706893371E+02 -0.88563917899E+03  0.90762915124E+03  0.00000000000E+00 0.  1.
         21    1    1    2  502  501 -0.54644247642E-03 -0.17090340079E-02  0.39804890231E-01  0.39845309422E-01  0.00000000000E+00 0.  1.
<mgrwt>
<rscale>  1 0.65228740E+03</rscale>
<asrwt>0</asrwt>
<pdfrwt beam="1">  1        1 0.38694460E+00 0.65228740E+03</pdfrwt>
<pdfrwt beam="2">0</pdfrwt>
<totfact> 0.15283506E+00</totfact>
</mgrwt>
</event>
<event>
 6    1  0.2885140E-003  0.6514245E+03  0.7818608E-02  0.9804110E-01
          3   -1    0    0  502    0  0.00000000000E+00  0.00000000000E+00  0.10608848692E+03  0.10608848692E+03  0.00000000000E+00 0.  1.
         13   -1    0    0    0    0 -0.00000000000E+00 -0.00000000000E+00 -0.10000000000E+04  0.10000000000E+04  0.00000000000E+00 0.  1.
    9000005    2    1    2  501    0 -0.87464472642E-05 -0.30299934153E-05 -0.89391152925E+03  0.11060884683E+04  0.65142449874E+03 0.  0.
         13    1    3    3    0    0  0.14847282671E+03  0.28010668046E+02  0.42984548016E+02  0.15708739339E+03  0.00000000000E+00 0.  1.
          3    1    3    3  501    0 -0.14847283545E+03 -0.28010671076E+02 -0.93689607727E+03  0.94900107490E+03  0.00000000000E+00 0.  1.
         21    1    1    2  502  501  0.87464472643E-05  0.30299934158E-05  0.16174169912E-04  0.18635583495E-04  0.00000000000E+00 0.  1.
<mgrwt>
<rscale>  1 0.65142450E+03</rscale>
<asrwt>0</asrwt>
<pdfrwt beam="1">  1        3 0.38577713E+00 0.65142450E+03</pdfrwt>
<pdfrwt beam="2">0</pdfrwt>
<totfact> 0.70346268E-02</totfact>
</mgrwt>
</event>
<event>
 6    1  0.2885140E-003  0.6661129E+03  0.7818608E-02  0.9777006E-01
          1   -1    0    0  502    0  0.00000000000E+00  0.00000000000E+00  0.11093315654E+03  0.11093315654E+03  0.00000000000E+00 0.  1.
         13   -1    0    0    0    0 -0.00000000000E+00 -0.00000000000E+00 -0.10000000000E+04  0.10000000000E+04  0.00000000000E+00 0.  1.
    9000005    2    1    2  501    0 -0.82635432322E-03 -0.91944333127E-03 -0.88907333663E+03  0.11109265467E+04  0.66611289908E+03 0.  0.
         13    1    3    3    0    0 -0.11948611704E+03 -0.26419530172E+03 -0.17125189331E+03  0.33675406543E+03  0.00000000000E+00 0.  1.
          1    1    3    3  501    0  0.11948529069E+03  0.26419438228E+03 -0.71782144332E+03  0.77417248131E+03  0.00000000000E+00 0.  1.
         21    1    1    2  502  501  0.82635432321E-03  0.91944333130E-03  0.64931751286E-02  0.66098079214E-02  0.00000000000E+00 0. -1.
<mgrwt>
<rscale>  1 0.66611290E+03</rscale>
<asrwt>0</asrwt>
<pdfrwt beam="1">  1        1 0.40339415E+00 0.66611290E+03</pdfrwt>
<pdfrwt beam="2">0</pdfrwt>
<totfact> 0.12880892E+00</totfact>
</mgrwt>
</event>
<event>
 6    1  0.2885140E-003  0.6624015E+03  0.7818608E-02  0.9783783E-01
          1   -1    0    0  502    0  0.00000000000E+00  0.00000000000E+00  0.10996651469E+03  0.10996651469E+03  0.00000000000E+00 0.  1.
         13   -1    0    0    0    0 -0.00000000000E+00 -0.00000000000E+00 -0.10000000000E+04  0.10000000000E+04  0.00000000000E+00 0.  1.
    9000005    2    1    2  501    0  0.28660022725E+00  0.76395418032E+00 -0.88910336690E+03  0.11087292249E+04  0.66240095971E+03 0.  0.
         13    1    3    3    0    0 -0.11693873985E+03 -0.28366464792E+03 -0.65110364245E+03  0.71977514167E+03  0.00000000000E+00 0.  1.
          1    1    3    3  501    0  0.11722534008E+03  0.28442860210E+03 -0.23799972445E+03  0.38895408326E+03  0.00000000000E+00 0.  1.
         21    1    1    2  502  501 -0.28660022725E+00 -0.76395418032E+00 -0.93011841554E+00  0.12372897586E+01  0.00000000000E+00 0. -1.
<mgrwt>
<rscale>  1 0.66240146E+03</rscale>
<asrwt>0</asrwt>
<pdfrwt beam="1">  1        1 0.39987908E+00 0.66240146E+03</pdfrwt>
<pdfrwt beam="2">0</pdfrwt>
<totfact> 0.13364033E+00</totfact>
</mgrwt>
</event>
<event>
 6    1  0.2885140E-003  0.5017153E+03  0.7818608E-02  0.1013332E+00
          1   -1    0    0  502    0  0.00000000000E+00  0.00000000000E+00  0.62929899092E+02  0.62929899092E+02  0.00000000000E+00 0.  1.
         13   -1    0    0    0    0 -0.00000000000E+00 -0.00000000000E+00 -0.10000000000E+04  0.10000000000E+04  0.00000000000E+00 0.  1.
    9000005    2    1    2  501    0 -0.18018385816E-03  0.12169749644E-02 -0.93706866928E+03  0.10629280115E+04  0.50171532432E+03 0.  0.
         13    1    3    3    0    0 -0.22619185681E+03  0.78060010835E+01 -0.69775287862E+03  0.73354125267E+03  0.00000000000E+00 0.  1.
          3    1    3    3  501    0  0.22619167662E+03 -0.78047841085E+01 -0.23931579065E+03  0.32938675882E+03  0.00000000000E+00 0.  1.
         21    1    1    2  502  501  0.18018385816E-03 -0.12169749644E-02 -0.14316302109E-02  0.18876067778E-02  0.00000000000E+00 0.  1.
<mgrwt>
<rscale>  1 0.50171532E+03</rscale>
<asrwt>0</asrwt>
<pdfrwt beam="1">  1        1 0.22883648E+00 0.50171532E+03</pdfrwt>
<pdfrwt beam="2">0</pdfrwt>
<totfact> 0.76411473E+00</totfact>
</mgrwt>
</event>
<event>
 6    1  0.2885140E-003  0.6621870E+03  0.7818608E-02  0.9784176E-01
          1   -1    0    0  502    0  0.00000000000E+00  0.00000000000E+00  0.11016836279E+03  0.11016836279E+03  0.00000000000E+00 0.  1.
         13   -1    0    0    0    0 -0.00000000000E+00 -0.00000000000E+00 -0.10000000000E+04  0.10000000000E+04  0.00000000000E+00 0.  1.
    9000005    2    1    2  501    0  0.19750611214E-01  0.20603962887E-01 -0.89037669098E+03  0.11096225623E+04  0.66218696607E+03 0.  0.
         13    1    3    3    0    0 -0.15663515336E+02 -0.13148787206E+03 -0.95368133308E+03  0.96283045822E+03  0.00000000000E+00 0.  1.
          1    1    3    3  501    0  0.15683265947E+02  0.13150847602E+03  0.63304642104E+02  0.14679210404E+03  0.00000000000E+00 0.  1.
         21    1    1    2  502  501 -0.19750611214E-01 -0.20603962887E-01  0.54505376270E+00  0.54580052598E+00  0.00000000000E+00 0.  1.
<mgrwt>
<rscale>  1 0.66218697E+03</rscale>
<asrwt>0</asrwt>
<pdfrwt beam="1">  1        1 0.40061307E+00 0.66218697E+03</pdfrwt>
<pdfrwt beam="2">0</pdfrwt>
<totfact> 0.13264213E+00</totfact>
</mgrwt>
</event>
<event>
 6    1  0.2885140E-003  0.6135240E+03  0.7818608E-02  0.9877739E-01
          1   -1    0    0  502    0  0.00000000000E+00  0.00000000000E+00  0.94103254464E+02  0.94103254464E+02  0.00000000000E+00 0.  1.
         13   -1    0    0    0    0 -0.00000000000E+00 -0.00000000000E+00 -0.10000000000E+04  0.10000000000E+04  0.00000000000E+00 0.  1.
    9000005    2    1    2  501    0  0.93211671413E-04 -0.74025232351E-04 -0.90589707447E+03  0.10941029047E+04  0.61352396566E+03 0.  0.
         13    1    3    3    0    0  0.18156263708E+03  0.24462849654E+03 -0.38877862754E+03  0.49391994669E+03  0.00000000000E+00 0.  1.
          1    1    3    3  501    0 -0.18156254387E+03 -0.24462857057E+03 -0.51711844693E+03  0.60018295796E+03  0.00000000000E+00 0.  1.
         21    1    1    2  502  501 -0.93211671428E-04  0.74025232369E-04  0.32893491649E-03  0.34980899075E-03  0.00000000000E+00 0.  1.
<mgrwt>
<rscale>  1 0.61352397E+03</rscale>
<asrwt>0</asrwt>
<pdfrwt beam="1">  1        1 0.34219437E+00 0.61352397E+03</pdfrwt>
<pdfrwt beam="2">0</pdfrwt>
<totfact> 0.24178588E+00</totfact>
</mgrwt>
</event>
<event>
 6    1  0.2885140E-003  0.6586193E+03  0.7818608E-02  0.9790739E-01
          1   -1    0    0  502    0  0.00000000000E+00  0.00000000000E+00  0.10903058503E+03  0.10903058503E+03  0.00000000000E+00 0.  1.
         13   -1    0    0    0    0 -0.00000000000E+00 -0.00000000000E+00 -0.10000000000E+04  0.10000000000E+04  0.00000000000E+00 0.  1.
    9000005    2    1    2  501    0 -0.27570248440E+00  0.11830558064E+00 -0.89151227106E+03  0.11084103425E+04  0.65861921312E+03 0.  0.
         13    1    3    3    0    0 -0.17992095958E+03 -0.15704962687E+03 -0.82751375634E+03  0.86128691731E+03  0.00000000000E+00 0.  1.
          1    1    3    3  501    0  0.17964525709E+03  0.15716793245E+03 -0.63998514717E+02  0.24712342518E+03  0.00000000000E+00 0.  1.
         21    1    1    2  502  501  0.27570248440E+00 -0.11830558064E+00  0.54285609247E+00  0.62024253921E+00  0.00000000000E+00 0. -1.
<mgrwt>
<rscale>  1 0.65861928E+03</rscale>
<asrwt>0</asrwt>
<pdfrwt beam="1">  1        1 0.39647569E+00 0.65861928E+03</pdfrwt>
<pdfrwt beam="2">0</pdfrwt>
<totfact> 0.13848581E+00</totfact>
</mgrwt>
</event>
<event>
 6    1  0.2885140E-003  0.6514956E+03  0.7818608E-02  0.9803977E-01
          1   -1    0    0  502    0  0.00000000000E+00  0.00000000000E+00  0.10670593167E+03  0.10670593167E+03  0.00000000000E+00 0.  1.
         13   -1    0    0    0    0 -0.00000000000E+00 -0.00000000000E+00 -0.10000000000E+04  0.10000000000E+04  0.00000000000E+00 0.  1.
    9000005    2    1    2  501    0 -0.21590704211E-01  0.52850522332E-01 -0.89388686952E+03  0.11061103877E+04  0.65149554955E+03 0.  0.
         13    1    3    3    0    0 -0.19715562537E+03 -0.16034466841E+03 -0.79291409016E+03  0.83264248491E+03  0.00000000000E+00 0.  1.
          3    1    3    3  501    0  0.19713403466E+03  0.16039751893E+03 -0.10097277935E+03  0.27346790282E+03  0.00000000000E+00 0.  1.
         21    1    1    2  502  501  0.21590704211E-01 -0.52850522332E-01  0.59280118918E+00  0.59554394138E+00  0.00000000000E+00 0. -1.
<mgrwt>
<rscale>  1 0.65149555E+03</rscale>
<asrwt>0</asrwt>
<pdfrwt beam="1">  1        1 0.38802239E+00 0.65149555E+03</pdfrwt>
<pdfrwt beam="2">0</pdfrwt>
<totfact> 0.15118662E+00</totfact>
</mgrwt>
</event>
<event>
 6    1  0.2885140E-003  0.6498976E+03  0.7818608E-02  0.9806971E-01
          1   -1    0    0  502    0  0.00000000000E+00  0.00000000000E+00  0.10559195726E+03  0.10559195726E+03  0.00000000000E+00 0.  1.
         13   -1    0    0    0    0 -0.00000000000E+00 -0.00000000000E+00 -0.10000000000E+04  0.10000000000E+04  0.00000000000E+00 0.  1.
    9000005    2    1    2  501    0 -0.13741003940E-04 -0.68497559482E-05 -0.89440827519E+03  0.11055917243E+04  0.64989760587E+03 0.  0.
         13    1    3    3    0    0  0.52635440268E+02  0.18401691053E+03 -0.89393437157E+03  0.91419438502E+03  0.00000000000E+00 0.  1.
          3    1    3    3  501    0 -0.52635454009E+02 -0.18401691738E+03 -0.47390362151E+00  0.19139733928E+03  0.00000000000E+00 0.  1.
         21    1    1    2  502  501  0.13741003936E-04  0.68497559712E-05  0.23245138866E-03  0.23295789842E-03  0.00000000000E+00 0. -1.
<mgrwt>
<rscale>  1 0.64989761E+03</rscale>
<asrwt>0</asrwt>
<pdfrwt beam="1">  1        1 0.38397156E+00 0.64989761E+03</pdfrwt>
<pdfrwt beam="2">0</pdfrwt>
<totfact> 0.15760437E+00</totfact>
</mgrwt>
</event>
<event>
 6    1  0.2885140E-003  0.6619803E+03  0.7818608E-02  0.9784555E-01
          1   -1    0    0  502    0  0.00000000000E+00  0.00000000000E+00  0.11109372017E+03  0.11109372017E+03  0.00000000000E+00 0.  1.
         13   -1    0    0    0    0 -0.00000000000E+00 -0.00000000000E+00 -0.10000000000E+04  0.10000000000E+04  0.00000000000E+00 0.  1.
    9000005    2    1    2  501    0 -0.49098711772E-01 -0.13786602288E-02 -0.89044508495E+03  0.11095541313E+04  0.66198030079E+03 0.  0.
         13    1    3    3    0    0 -0.28806626544E+03  0.15482142772E+03 -0.35951371622E+03  0.48600613157E+03  0.00000000000E+00 0.  1.
          1    1    3    3  501    0  0.28801716673E+03 -0.15482280638E+03 -0.53093136873E+03  0.62354799977E+03  0.00000000000E+00 0.  1.
         21    1    1    2  502  501  0.49098711772E-01  0.13786602288E-02  0.15388051238E+01  0.15395888390E+01  0.00000000000E+00 0.  1.
<mgrwt>
<rscale>  1 0.66198030E+03</rscale>
<asrwt>0</asrwt>
<pdfrwt beam="1">  1        1 0.40397802E+00 0.66198030E+03</pdfrwt>
<pdfrwt beam="2">0</pdfrwt>
<totfact> 0.12813699E+00</totfact>
</mgrwt>
</event>
<event>
 6    1  0.2885140E-003  0.6469900E+03  0.7818608E-02  0.9812444E-01
          1   -1    0    0  502    0  0.00000000000E+00  0.00000000000E+00  0.14303395918E+03  0.14303395918E+03  0.00000000000E+00 0.  1.
         13   -1    0    0    0    0 -0.00000000000E+00 -0.00000000000E+00 -0.10000000000E+04  0.10000000000E+04  0.00000000000E+00 0.  1.
    9000005    2    1    2  501    0  0.17750870080E+01  0.38012082967E+00 -0.89532727102E+03  0.11046298004E+04  0.64698746385E+03 0.  0.
         13    1    3    3    0    0  0.18704125726E+03 -0.16207684205E+03 -0.80500491676E+03  0.84219133850E+03  0.00000000000E+00 0.  1.
          1    1    3    3  501    0 -0.18526617025E+03  0.16245696288E+03 -0.90322354262E+02  0.26243846194E+03  0.00000000000E+00 0.  1.
         21    1    1    2  502  501 -0.17750870080E+01 -0.38012082967E+00  0.38361230196E+02  0.38404158732E+02  0.00000000000E+00 0.  1.
<mgrwt>
<rscale>  1 0.64699001E+03</rscale>
<asrwt>0</asrwt>
<pdfrwt beam="1">  1        1 0.52012458E+00 0.64699001E+03</pdfrwt>
<pdfrwt beam="2">0</pdfrwt>
<totfact> 0.36941786E-01</totfact>
</mgrwt>
</event>
<event>
 6    1  0.2885140E-003  0.6415044E+03  0.7818608E-02  0.9822852E-01
          3   -1    0    0  502    0  0.00000000000E+00  0.00000000000E+00  0.10288235623E+03  0.10288235623E+03  0.00000000000E+00 0.  1.
         13   -1    0    0    0    0 -0.00000000000E+00 -0.00000000000E+00 -0.10000000000E+04  0.10000000000E+04  0.00000000000E+00 0.  1.
    9000005    2    1    2  501    0  0.85135953327E-05  0.21877756993E-04 -0.89711801574E+03  0.11028819835E+04  0.64150443133E+03 0.  0.
         13    1    3    3    0    0  0.30746308433E+03 -0.87686612907E+02 -0.49270943428E+03  0.58735430273E+03  0.00000000000E+00 0.  1.
          1    1    3    3  501    0 -0.30746307581E+03  0.87686634784E+02 -0.40440858146E+03  0.51552768079E+03  0.00000000000E+00 0.  1.
         21    1    1    2  502  501 -0.85135953816E-05 -0.21877756992E-04  0.37196545461E-03  0.37270553655E-03  0.00000000000E+00 0.  1.
<mgrwt>
<rscale>  1 0.64150443E+03</rscale>
<asrwt>0</asrwt>
<pdfrwt beam="1">  1        3 0.37411845E+00 0.64150443E+03</pdfrwt>
<pdfrwt beam="2">0</pdfrwt>
<totfact> 0.81195343E-02</totfact>
</mgrwt>
</event>
<event>
 6    1  0.2885140E-003  0.6544678E+03  0.7818608E-02  0.9798432E-01
          1   -1    0    0  502    0  0.00000000000E+00  0.00000000000E+00  0.10854352858E+03  0.10854352858E+03  0.00000000000E+00 0.  1.
         13   -1    0    0    0    0 -0.00000000000E+00 -0.00000000000E+00 -0.10000000000E+04  0.10000000000E+04  0.00000000000E+00 0.  1.
    9000005    2    1    2  501    0  0.89388037415E-01 -0.21800495902E-01 -0.89291636348E+03  0.11070807400E+04  0.65446781766E+03 0.  0.
         13    1    3    3    0    0  0.94483749760E+02 -0.11354454331E+03  0.47485911586E+02  0.15515944729E+03  0.00000000000E+00 0.  1.
          3    1    3    3  501    0 -0.94394361723E+02  0.11352274281E+03 -0.94040227506E+03  0.95192129276E+03  0.00000000000E+00 0.  1.
         21    1    1    2  502  501 -0.89388037415E-01  0.21800495902E-01  0.14598920535E+01  0.14627885324E+01  0.00000000000E+00 0. -1.
<mgrwt>
<rscale>  1 0.65446782E+03</rscale>
<asrwt>0</asrwt>
<pdfrwt beam="1">  1        1 0.39470457E+00 0.65446782E+03</pdfrwt>
<pdfrwt beam="2">0</pdfrwt>
<totfact> 0.14113023E+00</totfact>
</mgrwt>
</event>
<event>
 6    1  0.2885140E-003  0.6385919E+03  0.7818608E-02  0.9828424E-01
          1   -1    0    0  502    0  0.00000000000E+00  0.00000000000E+00  0.10201166525E+03  0.10201166525E+03  0.00000000000E+00 0.  1.
         13   -1    0    0    0    0 -0.00000000000E+00 -0.00000000000E+00 -0.10000000000E+04  0.10000000000E+04  0.00000000000E+00 0.  1.
    9000005    2    1    2  501    0 -0.25401180679E-01 -0.14307868167E-01 -0.89804629708E+03  0.11019467841E+04  0.63859185899E+03 0.  0.
         13    1    3    3    0    0 -0.22412470729E+03  0.54090324656E+02 -0.83021785966E+03  0.86163759327E+03  0.00000000000E+00 0.  1.
          1    1    3    3  501    0  0.22409930611E+03 -0.54104632524E+02 -0.67828437424E+02  0.24030919080E+03  0.00000000000E+00 0.  1.
         21    1    1    2  502  501  0.25401180679E-01  0.14307868167E-01  0.57962332719E-01  0.64881176666E-01  0.00000000000E+00 0. -1.
<mgrwt>
<rscale>  1 0.63859186E+03</rscale>
<asrwt>0</asrwt>
<pdfrwt beam="1">  1        1 0.37095229E+00 0.63859186E+03</pdfrwt>
<pdfrwt beam="2">0</pdfrwt>
<totfact> 0.18023737E+00</totfact>
</mgrwt>
</event>
<event>
 6    1  0.2885140E-003  0.6582245E+03  0.7818608E-02  0.9791468E-01
          1   -1    0    0  502    0  0.00000000000E+00  0.00000000000E+00  0.10835418786E+03  0.10835418786E+03  0.00000000000E+00 0.  1.
         13   -1    0    0    0    0 -0.00000000000E+00 -0.00000000000E+00 -0.10000000000E+04  0.10000000000E+04  0.00000000000E+00 0.  1.
    9000005    2    1    2  501    0  0.27714353701E-02 -0.56287644167E-02 -0.89168485817E+03  0.11083146410E+04  0.65822447315E+03 0.  0.
         13    1    3    3    0    0 -0.24238332185E+03  0.20715691218E+03 -0.30853592459E+03  0.44368691410E+03  0.00000000000E+00 0.  1.
          3    1    3    3  501    0  0.24238609329E+03 -0.20716254095E+03 -0.58314893358E+03  0.66462772687E+03  0.00000000000E+00 0.  1.
         21    1    1    2  502  501 -0.27714353701E-02  0.56287644167E-02  0.39046028294E-01  0.39546885698E-01  0.00000000000E+00 0. -1.
<mgrwt>
<rscale>  1 0.65822447E+03</rscale>
<asrwt>0</asrwt>
<pdfrwt beam="1">  1        1 0.39401606E+00 0.65822447E+03</pdfrwt>
<pdfrwt beam="2">0</pdfrwt>
<totfact> 0.14202865E+00</totfact>
</mgrwt>
</event>
<event>
 6    1  0.2885140E-003  0.6493629E+03  0.7818608E-02  0.9807975E-01
          1   -1    0    0  502    0  0.00000000000E+00  0.00000000000E+00  0.10548650298E+03  0.10548650298E+03  0.00000000000E+00 0.  1.
         13   -1    0    0    0    0 -0.00000000000E+00 -0.00000000000E+00 -0.10000000000E+04  0.10000000000E+04  0.00000000000E+00 0.  1.
    9000005    2    1    2  501    0  0.23749387104E-03  0.77713977295E-02 -0.89458171432E+03  0.11054178440E+04  0.64936289258E+03 0.  0.
         13    1    3    3    0    0 -0.91705445031E+02  0.64245341849E+02 -0.96609529414E+03  0.97256232189E+03  0.00000000000E+00 0.  1.
          3    1    3    3  501    0  0.91705682525E+02 -0.64237570451E+02  0.71513579825E+02  0.13285552214E+03  0.00000000000E+00 0.  1.
         21    1    1    2  502  501 -0.23749387104E-03 -0.77713977295E-02  0.68217297964E-01  0.68658945284E-01  0.00000000000E+00 0. -1.
<mgrwt>
<rscale>  1 0.64936289E+03</rscale>
<asrwt>0</asrwt>
<pdfrwt beam="1">  1        1 0.38358809E+00 0.64936289E+03</pdfrwt>
<pdfrwt beam="2">0</pdfrwt>
<totfact> 0.15823634E+00</totfact>
</mgrwt>
</event>
<event>
 6    1  0.2885140E-003  0.6547011E+03  0.7818608E-02  0.9797998E-01
          1   -1    0    0  502    0  0.00000000000E+00  0.00000000000E+00  0.10715847469E+03  0.10715847469E+03  0.00000000000E+00 0.  1.
         13   -1    0    0    0    0 -0.00000000000E+00 -0.00000000000E+00 -0.10000000000E+04  0.10000000000E+04  0.00000000000E+00 0.  1.
    9000005    2    1    2  501    0 -0.13310881627E-04  0.22798456314E-05 -0.89284162103E+03  0.11071583780E+04  0.65470108734E+03 0.  0.
         13    1    3    3    0    0  0.17941959791E+03  0.21931213596E+03 -0.16922042364E+03  0.33003750828E+03  0.00000000000E+00 0.  1.
          1    1    3    3  501    0 -0.17941961122E+03 -0.21931213368E+03 -0.72362119739E+03  0.77712086974E+03  0.00000000000E+00 0.  1.
         21    1    1    2  502  501  0.13310881632E-04 -0.22798456135E-05  0.95719065457E-04  0.96667040701E-04  0.00000000000E+00 0.  1.
<mgrwt>
<rscale>  1 0.65470109E+03</rscale>
<asrwt>0</asrwt>
<pdfrwt beam="1">  1        1 0.38966800E+00 0.65470109E+03</pdfrwt>
<pdfrwt beam="2">0</pdfrwt>
<totfact> 0.14858055E+00</totfact>
</mgrwt>
</event>
<event>
 6    1  0.2885140E-003  0.5965218E+03  0.7818608E-02  0.9912649E-01
          1   -1    0    0  502    0  0.00000000000E+00  0.00000000000E+00  0.88959785094E+02  0.88959785094E+02  0.00000000000E+00 0.  1.
         13   -1    0    0    0    0 -0.00000000000E+00 -0.00000000000E+00 -0.10000000000E+04  0.10000000000E+04  0.00000000000E+00 0.  1.
    9000005    2    1    2  501    0 -0.12335867137E-03  0.93670809129E-04 -0.91104040636E+03  0.10889595388E+04  0.59652179776E+03 0.  0.
         13    1    3    3    0    0 -0.29450820329E+03 -0.16678366336E+02 -0.37498323297E+03  0.47710132542E+03  0.00000000000E+00 0.  1.
          1    1    3    3  501    0  0.29450807994E+03  0.16678460007E+02 -0.53605717339E+03  0.61185821341E+03  0.00000000000E+00 0.  1.
         21    1    1    2  502  501  0.12335867141E-03 -0.93670809128E-04  0.19145103512E-03  0.24626222029E-03  0.00000000000E+00 0. -1.
<mgrwt>
<rscale>  1 0.59652180E+03</rscale>
<asrwt>0</asrwt>
<pdfrwt beam="1">  1        1 0.32349081E+00 0.59652180E+03</pdfrwt>
<pdfrwt beam="2">0</pdfrwt>
<totfact> 0.29229187E+00</totfact>
</mgrwt>
</event>
<event>
 6    1  0.2885140E-003  0.7075643E+03  0.7818608E-02  0.9704383E-01
          1   -1    0    0  502    0  0.00000000000E+00  0.00000000000E+00  0.12516216988E+03  0.12516216988E+03  0.00000000000E+00 0.  1.
         13   -1    0    0    0    0 -0.00000000000E+00 -0.00000000000E+00 -0.10000000000E+04  0.10000000000E+04  0.00000000000E+00 0.  1.
    9000005    2    1    2  501    0 -0.63283686575E-03  0.21869548470E-03 -0.87483774764E+03  0.11251614953E+04  0.70756434740E+03 0.  0.
         13    1    3    3    0    0 -0.20805053133E+03  0.27404831798E+03 -0.30653477820E+03  0.46081566208E+03  0.00000000000E+00 0.  1.
          3    1    3    3  501    0  0.20804989849E+03 -0.27404809929E+03 -0.56830296943E+03  0.66434583317E+03  0.00000000000E+00 0.  1.
         21    1    1    2  502  501  0.63283686573E-03 -0.21869548466E-03 -0.82489327055E-04  0.67462189611E-03  0.00000000000E+00 0. -1.
<mgrwt>
<rscale>  1 0.70756435E+03</rscale>
<asrwt>0</asrwt>
<pdfrwt beam="1">  1        1 0.45513612E+00 0.70756435E+03</pdfrwt>
<pdfrwt beam="2">0</pdfrwt>
<totfact> 0.74355198E-01</totfact>
</mgrwt>
</event>
<event>
 6    1  0.2885140E-003  0.6423580E+03  0.7818608E-02  0.9821225E-01
          1   -1    0    0  502    0  0.00000000000E+00  0.00000000000E+00  0.10316658509E+03  0.10316658509E+03  0.00000000000E+00 0.  1.
         13   -1    0    0    0    0 -0.00000000000E+00 -0.00000000000E+00 -0.10000000000E+04  0.10000000000E+04  0.00000000000E+00 0.  1.
    9000005    2    1    2  501    0 -0.50029292812E-03  0.48555810905E-03 -0.89684402765E+03  0.11031559495E+04  0.64235803019E+03 0.  0.
         13    1    3    3    0    0 -0.64618179674E+01  0.73871618164E+02 -0.98509782143E+03  0.98788485607E+03  0.00000000000E+00 0.  1.
          1    1    3    3  501    0  0.64613176745E+01 -0.73871132605E+02  0.88253793786E+02  0.11527109341E+03  0.00000000000E+00 0.  1.
         21    1    1    2  502  501  0.50029292812E-03 -0.48555810904E-03  0.10612733069E-01  0.10635608252E-01  0.00000000000E+00 0. -1.
<mgrwt>
<rscale>  1 0.64235803E+03</rscale>
<asrwt>0</asrwt>
<pdfrwt beam="1">  1        1 0.37515201E+00 0.64235803E+03</pdfrwt>
<pdfrwt beam="2">0</pdfrwt>
<totfact> 0.17261408E+00</totfact>
</mgrwt>
</event>
<event>
 6    1  0.2885140E-003  0.6530083E+03  0.7818608E-02  0.9801151E-01
          1   -1    0    0  502    0  0.00000000000E+00  0.00000000000E+00  0.10664842858E+03  0.10664842858E+03  0.00000000000E+00 0.  1.
         13   -1    0    0    0    0 -0.00000000000E+00 -0.00000000000E+00 -0.10000000000E+04  0.10000000000E+04  0.00000000000E+00 0.  1.
    9000005    2    1    2  501    0 -0.56327786283E-02 -0.16727479094E-02 -0.89339481524E+03  0.11066047874E+04  0.65300831505E+03 0.  0.
         13    1    3    3    0    0 -0.22291796274E+02 -0.26054887157E+03 -0.11538779376E+03  0.28582683850E+03  0.00000000000E+00 0.  1.
          1    1    3    3  501    0  0.22286163495E+02  0.26054719882E+03 -0.77800702148E+03  0.82077794888E+03  0.00000000000E+00 0.  1.
         21    1    1    2  502  501  0.56327786283E-02  0.16727479095E-02  0.43243816250E-01  0.43641195269E-01  0.00000000000E+00 0.  1.
<mgrwt>
<rscale>  1 0.65300832E+03</rscale>
<asrwt>0</asrwt>
<pdfrwt beam="1">  1        1 0.38781329E+00 0.65300832E+03</pdfrwt>
<pdfrwt beam="2">0</pdfrwt>
<totfact> 0.15146696E+00</totfact>
</mgrwt>
</event>
<event>
 6    1  0.2885140E-003  0.6525910E+03  0.7818608E-02  0.9801929E-01
          1   -1    0    0  502    0  0.00000000000E+00  0.00000000000E+00  0.10761050197E+03  0.10761050197E+03  0.00000000000E+00 0.  1.
         13   -1    0    0    0    0 -0.00000000000E+00 -0.00000000000E+00 -0.10000000000E+04  0.10000000000E+04  0.00000000000E+00 0.  1.
    9000005    2    1    2  501    0 -0.10868305468E+00  0.21337667032E-01 -0.89352827713E+03  0.11064663494E+04  0.65259098065E+03 0.  0.
         13    1    3    3    0    0  0.25463520381E+03  0.10304513204E+03 -0.74516582561E+03  0.79418479834E+03  0.00000000000E+00 0.  1.
          3    1    3    3  501    0 -0.25474388687E+03 -0.10302379437E+03 -0.14836245152E+03  0.31228155104E+03  0.00000000000E+00 0.  1.
         21    1    1    2  502  501  0.10868305468E+00 -0.21337667032E-01  0.11387790950E+01  0.11441525814E+01  0.00000000000E+00 0. -1.
<mgrwt>
<rscale>  1 0.65259099E+03</rscale>
<asrwt>0</asrwt>
<pdfrwt beam="1">  1        1 0.39131174E+00 0.65259099E+03</pdfrwt>
<pdfrwt beam="2">0</pdfrwt>
<totfact> 0.14616425E+00</totfact>
</mgrwt>
</event>
<event>
 6    1  0.2885140E-003  0.6453171E+03  0.7818608E-02  0.9815606E-01
          1   -1    0    0  502    0  0.00000000000E+00  0.00000000000E+00  0.10417715826E+03  0.10417715826E+03  0.00000000000E+00 0.  1.
         13   -1    0    0    0    0 -0.00000000000E+00 -0.00000000000E+00 -0.10000000000E+04  0.10000000000E+04  0.00000000000E+00 0.  1.
    9000005    2    1    2  501    0  0.13787451172E+00  0.12008560248E+00 -0.89571331837E+03  0.11039640261E+04  0.64531712271E+03 0.  0.
         13    1    3    3    0    0  0.19482012428E+03  0.15796279764E+03 -0.79539470709E+03  0.83400231794E+03  0.00000000000E+00 0.  1.
          3    1    3    3  501    0 -0.19468224977E+03 -0.15784271204E+03 -0.10031861128E+03  0.26996170819E+03  0.00000000000E+00 0.  1.
         21    1    1    2  502  501 -0.13787451172E+00 -0.12008560248E+00 -0.10952337411E+00  0.21313212424E+00  0.00000000000E+00 0. -1.
<mgrwt>
<rscale>  1 0.64531715E+03</rscale>
<asrwt>0</asrwt>
<pdfrwt beam="1">  1        1 0.37882683E+00 0.64531715E+03</pdfrwt>
<pdfrwt beam="2">0</pdfrwt>
<totfact> 0.16620721E+00</totfact>
</mgrwt>
</event>
<event>
 6    1  0.2885140E-003  0.6564718E+03  0.7818608E-02  0.9794711E-01
          1   -1    0    0  502    0  0.00000000000E+00  0.00000000000E+00  0.10774404140E+03  0.10774404140E+03  0.00000000000E+00 0.  1.
         13   -1    0    0    0    0 -0.00000000000E+00 -0.00000000000E+00 -0.10000000000E+04  0.10000000000E+04  0.00000000000E+00 0.  1.
    9000005    2    1    2  501    0  0.31605536215E-02 -0.51765515500E-02 -0.89225918830E+03  0.11077371700E+04  0.65647176523E+03 0.  0.
         13    1    3    3    0    0 -0.31099522339E+03  0.78854533143E+02 -0.32920322163E+03  0.45968557460E+03  0.00000000000E+00 0.  1.
          3    1    3    3  501    0  0.31099838394E+03 -0.78859709695E+02 -0.56305596667E+03  0.64805159535E+03  0.00000000000E+00 0.  1.
         21    1    1    2  502  501 -0.31605536215E-02  0.51765515500E-02  0.32297044121E-02  0.68714464076E-02  0.00000000000E+00 0. -1.
<mgrwt>
<rscale>  1 0.65647177E+03</rscale>
<asrwt>0</asrwt>
<pdfrwt beam="1">  1        1 0.39179734E+00 0.65647177E+03</pdfrwt>
<pdfrwt beam="2">0</pdfrwt>
<totfact> 0.14533573E+00</totfact>
</mgrwt>
</event>
<event>
 6    1  0.2885140E-003  0.6583891E+03  0.7818608E-02  0.9791164E-01
          1   -1    0    0  502    0  0.00000000000E+00  0.00000000000E+00  0.10844070127E+03  0.10844070127E+03  0.00000000000E+00 0.  1.
         13   -1    0    0    0    0 -0.00000000000E+00 -0.00000000000E+00 -0.10000000000E+04  0.10000000000E+04  0.00000000000E+00 0.  1.
    9000005    2    1    2  501    0 -0.23162487104E-02 -0.18811893636E-01 -0.89162957263E+03  0.11083679162E+04  0.65838905095E+03 0.  0.
         13    1    3    3    0    0  0.55493680968E+02  0.22708832617E+03 -0.83597503182E+03  0.86804545408E+03  0.00000000000E+00 0.  1.
          3    1    3    3  501    0 -0.55495997216E+02 -0.22710713806E+03 -0.55654540807E+02  0.24032246208E+03  0.00000000000E+00 0.  1.
         21    1    1    2  502  501  0.23162487103E-02  0.18811893636E-01  0.70273896915E-01  0.72785114809E-01  0.00000000000E+00 0.  1.
<mgrwt>
<rscale>  1 0.65838905E+03</rscale>
<asrwt>0</asrwt>
<pdfrwt beam="1">  1        1 0.39433065E+00 0.65838905E+03</pdfrwt>
<pdfrwt beam="2">0</pdfrwt>
<totfact> 0.14156776E+00</totfact>
</mgrwt>
</event>
<event>
 6    1  0.2885140E-003  0.6423561E+03  0.7818608E-02  0.9821229E-01
          1   -1    0    0  502    0  0.00000000000E+00  0.00000000000E+00  0.10763385005E+03  0.10763385005E+03  0.00000000000E+00 0.  1.
         13   -1    0    0    0    0 -0.00000000000E+00 -0.00000000000E+00 -0.10000000000E+04  0.10000000000E+04  0.00000000000E+00 0.  1.
    9000005    2    1    2  501    0  0.12236060568E+00  0.34310658392E+00 -0.89683649695E+03  0.11031486860E+04  0.64235596709E+03 0.  0.
         13    1    3    3    0    0 -0.33463939389E+02  0.25674121495E+03 -0.77536363771E+03  0.81745009473E+03  0.00000000000E+00 0.  1.
          3    1    3    3  501    0  0.33586299994E+02 -0.25639810836E+03 -0.12147285925E+03  0.28569859127E+03  0.00000000000E+00 0.  1.
         21    1    1    2  502  501 -0.12236060568E+00 -0.34310658392E+00  0.44703470076E+01  0.44851640565E+01  0.00000000000E+00 0. -1.
<mgrwt>
<rscale>  1 0.64235607E+03</rscale>
<asrwt>0</asrwt>
<pdfrwt beam="1">  1        1 0.39139664E+00 0.64235607E+03</pdfrwt>
<pdfrwt beam="2">0</pdfrwt>
<totfact> 0.14631843E+00</totfact>
</mgrwt>
</event>
<event>
 6    1  0.2885140E-003  0.7437572E+03  0.7818608E-02  0.9645196E-01
          1   -1    0    0  502    0  0.00000000000E+00  0.00000000000E+00  0.13829398327E+03  0.13829398327E+03  0.00000000000E+00 0.  1.
         13   -1    0    0    0    0 -0.00000000000E+00 -0.00000000000E+00 -0.10000000000E+04  0.10000000000E+04  0.00000000000E+00 0.  1.
    9000005    2    1    2  501    0 -0.53924569357E-04  0.11003724421E-03 -0.86170629570E+03  0.11382936786E+04  0.74375719064E+03 0.  0.
         13    1    3    3    0    0 -0.17686051042E+03 -0.26030584926E+03 -0.12762458995E+03  0.33959801423E+03  0.00000000000E+00 0.  1.
          3    1    3    3  501    0  0.17686045650E+03  0.26030595930E+03 -0.73408170575E+03  0.79869566434E+03  0.00000000000E+00 0.  1.
         21    1    1    2  502  501  0.53924569349E-04 -0.11003724421E-03  0.27897422083E-03  0.30470095205E-03  0.00000000000E+00 0. -1.
<mgrwt>
<rscale>  1 0.74375719E+03</rscale>
<asrwt>0</asrwt>
<pdfrwt beam="1">  1        1 0.50288827E+00 0.74375719E+03</pdfrwt>
<pdfrwt beam="2">0</pdfrwt>
<totfact> 0.43895131E-01</totfact>
</mgrwt>
</event>
