<event>
 5    1  0.2357694E-004  0.6433098E+03  0.7818608E-02  0.9819415E-01
         13   -1    0    0    0    0  0.00000000000E+00  0.00000000000E+00  0.10000000000E+04  0.10000000000E+04  0.00000000000E+00 0. -1.
          2   -1    0    0  501    0 -0.00000000000E+00 -0.00000000000E+00 -0.10346186512E+03  0.10346186512E+03  0.00000000000E+00 0. -1.
    9000006    2    1    2  501    0  0.00000000000E+00  0.00000000000E+00  0.89653813488E+03  0.11034618651E+04  0.64330977023E+03 0.  0.
         13    1    3    3    0    0 -0.58447474013E+02 -0.24618315130E+03  0.10762289852E+03  0.27496352393E+03  0.00000000000E+00 0. -1.
          2    1    3    3  501    0  0.58447474013E+02  0.24618315130E+03  0.78891523636E+03  0.82849834119E+03  0.00000000000E+00 0. -1.
<mgrwt>
<rscale>  0 0.64330977E+03</rscale>
<asrwt>0</asrwt>
<pdfrwt beam="1">0</pdfrwt>
<pdfrwt beam="2">  1        2 0.37622576E+00 0.64330977E+03</pdfrwt>
<totfact> 0.48833606E+00</totfact>
</mgrwt>
</event>
<event>
 5    1  0.2357694E-004  0.7431481E+03  0.7818608E-02  0.9646162E-01
         13   -1    0    0    0    0  0.00000000000E+00  0.00000000000E+00  0.10000000000E+04  0.10000000000E+04  0.00000000000E+00 0. -1.
          2   -1    0    0  501    0 -0.00000000000E+00 -0.00000000000E+00 -0.13806727698E+03  0.13806727698E+03  0.00000000000E+00 0. -1.
    9000006    2    1    2  501    0  0.00000000000E+00  0.00000000000E+00  0.86193272302E+03  0.11380672770E+04  0.74314810633E+03 0.  0.
         13    1    3    3    0    0  0.10169326427E+03  0.34352529317E+03  0.58191848189E+03  0.68335954417E+03  0.00000000000E+00 0. -1.
          2    1    3    3  501    0 -0.10169326427E+03 -0.34352529317E+03  0.28001424113E+03  0.45470773281E+03  0.00000000000E+00 0. -1.
<mgrwt>
<rscale>  0 0.74314811E+03</rscale>
<asrwt>0</asrwt>
<pdfrwt beam="1">0</pdfrwt>
<pdfrwt beam="2">  1        2 0.50206388E+00 0.74314811E+03</pdfrwt>
<totfact> 0.15562754E+00</totfact>
</mgrwt>
</event>
<event>
 5    1  0.2357694E-004  0.6279307E+03  0.7818608E-02  0.9849095E-01
         13   -1    0    0    0    0  0.00000000000E+00  0.00000000000E+00  0.10000000000E+04  0.10000000000E+04  0.00000000000E+00 0. -1.
          2   -1    0    0  501    0 -0.00000000000E+00 -0.00000000000E+00 -0.98574235608E+02  0.98574235608E+02  0.00000000000E+00 0. -1.
    9000006    2    1    2  501    0  0.00000000000E+00  0.00000000000E+00  0.90142576439E+03  0.10985742356E+04  0.62793068283E+03 0.  0.
         13    1    3    3    0    0  0.10256369460E+03  0.14493922417E+03 -0.22985338128E+01  0.17757244553E+03  0.00000000000E+00 0. -1.
          4    1    3    3  501    0 -0.10256369460E+03 -0.14493922417E+03  0.90372429820E+03  0.92100179007E+03  0.00000000000E+00 0. -1.
<mgrwt>
<rscale>  0 0.62793068E+03</rscale>
<asrwt>0</asrwt>
<pdfrwt beam="1">0</pdfrwt>
<pdfrwt beam="2">  1        2 0.35845252E+00 0.62793068E+03</pdfrwt>
<totfact> 0.56781492E+00</totfact>
</mgrwt>
</event>
<event>
 5    1  0.2357694E-004  0.5211585E+03  0.7818608E-02  0.1008399E+00
         13   -1    0    0    0    0  0.00000000000E+00  0.00000000000E+00  0.10000000000E+04  0.10000000000E+04  0.00000000000E+00 0. -1.
          2   -1    0    0  501    0 -0.00000000000E+00 -0.00000000000E+00 -0.67901558496E+02  0.67901558496E+02  0.00000000000E+00 0. -1.
    9000006    2    1    2  501    0  0.00000000000E+00  0.00000000000E+00  0.93209844150E+03  0.10679015585E+04  0.52115854976E+03 0.  0.
         13    1    3    3    0    0 -0.90814011254E+02 -0.23873373528E+03  0.57174297153E+03  0.62620364619E+03  0.00000000000E+00 0. -1.
          2    1    3    3  501    0  0.90814011254E+02  0.23873373528E+03  0.36035546997E+03  0.44169791231E+03  0.00000000000E+00 0. -1.
<mgrwt>
<rscale>  0 0.52115855E+03</rscale>
<asrwt>0</asrwt>
<pdfrwt beam="1">0</pdfrwt>
<pdfrwt beam="2">  1        2 0.24691528E+00 0.52115855E+03</pdfrwt>
<totfact> 0.14300423E+01</totfact>
</mgrwt>
</event>
<event>
 5    1  0.2357694E-004  0.6493705E+03  0.7818608E-02  0.9807961E-01
         13   -1    0    0    0    0  0.00000000000E+00  0.00000000000E+00  0.10000000000E+04  0.10000000000E+04  0.00000000000E+00 0. -1.
          2   -1    0    0  501    0 -0.00000000000E+00 -0.00000000000E+00 -0.10542051845E+03  0.10542051845E+03  0.00000000000E+00 0. -1.
    9000006    2    1    2  501    0  0.00000000000E+00  0.00000000000E+00  0.89457948155E+03  0.11054205184E+04  0.64937052119E+03 0.  0.
         13    1    3    3    0    0 -0.31107587270E+03 -0.74035675397E+02  0.35143011722E+03  0.47513430427E+03  0.00000000000E+00 0. -1.
          2    1    3    3  501    0  0.31107587270E+03  0.74035675397E+02  0.54314936433E+03  0.63028621418E+03  0.00000000000E+00 0. -1.
<mgrwt>
<rscale>  0 0.64937052E+03</rscale>
<asrwt>0</asrwt>
<pdfrwt beam="1">0</pdfrwt>
<pdfrwt beam="2">  1        2 0.38334815E+00 0.64937052E+03</pdfrwt>
<totfact> 0.45945183E+00</totfact>
</mgrwt>
</event>
<event>
 5    1  0.2357694E-004  0.6434673E+03  0.7818608E-02  0.9819115E-01
         13   -1    0    0    0    0  0.00000000000E+00  0.00000000000E+00  0.10000000000E+04  0.10000000000E+04  0.00000000000E+00 0. -1.
          2   -1    0    0  501    0 -0.00000000000E+00 -0.00000000000E+00 -0.10351252835E+03  0.10351252835E+03  0.00000000000E+00 0. -1.
    9000006    2    1    2  501    0  0.00000000000E+00  0.00000000000E+00  0.89648747165E+03  0.11035125283E+04  0.64346725899E+03 0.  0.
         13    1    3    3    0    0  0.59434439447E+02  0.20663778328E+03  0.85868946337E+03  0.88520010200E+03  0.00000000000E+00 0. -1.
          4    1    3    3  501    0 -0.59434439447E+02 -0.20663778328E+03  0.37798008279E+02  0.21831242635E+03  0.00000000000E+00 0. -1.
<mgrwt>
<rscale>  0 0.64346726E+03</rscale>
<asrwt>0</asrwt>
<pdfrwt beam="1">0</pdfrwt>
<pdfrwt beam="2">  1        2 0.37640999E+00 0.64346726E+03</pdfrwt>
<totfact> 0.48756855E+00</totfact>
</mgrwt>
</event>
<event>
 5    1  0.2357694E-004  0.6436093E+03  0.7818608E-02  0.9818845E-01
         13   -1    0    0    0    0  0.00000000000E+00  0.00000000000E+00  0.10000000000E+04  0.10000000000E+04  0.00000000000E+00 0. -1.
          2   -1    0    0  501    0 -0.00000000000E+00 -0.00000000000E+00 -0.10355824561E+03  0.10355824561E+03  0.00000000000E+00 0. -1.
    9000006    2    1    2  501    0  0.00000000000E+00  0.00000000000E+00  0.89644175439E+03  0.11035582456E+04  0.64360933994E+03 0.  0.
         13    1    3    3    0    0 -0.22886599716E+03 -0.22585408976E+03  0.42596150339E+03  0.53369740199E+03  0.00000000000E+00 0. -1.
          4    1    3    3  501    0  0.22886599716E+03  0.22585408976E+03  0.47048025100E+03  0.56986084362E+03  0.00000000000E+00 0. -1.
<mgrwt>
<rscale>  0 0.64360934E+03</rscale>
<asrwt>0</asrwt>
<pdfrwt beam="1">0</pdfrwt>
<pdfrwt beam="2">  1        2 0.37657623E+00 0.64360934E+03</pdfrwt>
<totfact> 0.48687692E+00</totfact>
</mgrwt>
</event>
<event>
 5    1  0.2357694E-004  0.6407944E+03  0.7818608E-02  0.9824208E-01
         13   -1    0    0    0    0  0.00000000000E+00  0.00000000000E+00  0.10000000000E+04  0.10000000000E+04  0.00000000000E+00 0. -1.
          2   -1    0    0  501    0 -0.00000000000E+00 -0.00000000000E+00 -0.10265437570E+03  0.10265437570E+03  0.00000000000E+00 0. -1.
    9000006    2    1    2  501    0  0.00000000000E+00  0.00000000000E+00  0.89734562430E+03  0.11026543757E+04  0.64079443099E+03 0.  0.
         13    1    3    3    0    0 -0.19968590097E+03 -0.24775210861E+03  0.51303042651E+03  0.60370173504E+03  0.00000000000E+00 0. -1.
          2    1    3    3  501    0  0.19968590097E+03  0.24775210861E+03  0.38431519779E+03  0.49895264066E+03  0.00000000000E+00 0. -1.
<mgrwt>
<rscale>  0 0.64079443E+03</rscale>
<asrwt>0</asrwt>
<pdfrwt beam="1">0</pdfrwt>
<pdfrwt beam="2">  1        2 0.37328943E+00 0.64079443E+03</pdfrwt>
<totfact> 0.50071951E+00</totfact>
</mgrwt>
</event>
<event>
 5    1  0.2357694E-004  0.6521852E+03  0.7818608E-02  0.9802688E-01
         13   -1    0    0    0    0  0.00000000000E+00  0.00000000000E+00  0.10000000000E+04  0.10000000000E+04  0.00000000000E+00 0. -1.
          2   -1    0    0  501    0 -0.00000000000E+00 -0.00000000000E+00 -0.10633636808E+03  0.10633636808E+03  0.00000000000E+00 0. -1.
    9000006    2    1    2  501    0  0.00000000000E+00  0.00000000000E+00  0.89366363192E+03  0.11063363681E+04  0.65218515188E+03 0.  0.
         13    1    3    3    0    0  0.15996200463E+03  0.20579637724E+03  0.77923211159E+03  0.82167066124E+03  0.00000000000E+00 0. -1.
          2    1    3    3  501    0 -0.15996200463E+03 -0.20579637724E+03  0.11443152032E+03  0.28466570684E+03  0.00000000000E+00 0. -1.
<mgrwt>
<rscale>  0 0.65218515E+03</rscale>
<asrwt>0</asrwt>
<pdfrwt beam="1">0</pdfrwt>
<pdfrwt beam="2">  1        2 0.38667852E+00 0.65218515E+03</pdfrwt>
<totfact> 0.44648610E+00</totfact>
</mgrwt>
</event>
<event>
 5    1  0.2357694E-004  0.6458675E+03  0.7818608E-02  0.9814564E-01
         13   -1    0    0    0    0  0.00000000000E+00  0.00000000000E+00  0.10000000000E+04  0.10000000000E+04  0.00000000000E+00 0. -1.
          2   -1    0    0  501    0 -0.00000000000E+00 -0.00000000000E+00 -0.10428622039E+03  0.10428622039E+03  0.00000000000E+00 0. -1.
    9000006    2    1    2  501    0  0.00000000000E+00  0.00000000000E+00  0.89571377961E+03  0.11042862204E+04  0.64586754181E+03 0.  0.
         13    1    3    3    0    0  0.20674158743E+03  0.19321130616E+03  0.18180446227E+03  0.33634142668E+03  0.00000000000E+00 0. -1.
          4    1    3    3  501    0 -0.20674158743E+03 -0.19321130616E+03  0.71390931734E+03  0.76794479371E+03  0.00000000000E+00 0. -1.
<mgrwt>
<rscale>  0 0.64586754E+03</rscale>
<asrwt>0</asrwt>
<pdfrwt beam="1">0</pdfrwt>
<pdfrwt beam="2">  1        2 0.37922342E+00 0.64586754E+03</pdfrwt>
<totfact> 0.47598368E+00</totfact>
</mgrwt>
</event>
<event>
 5    1  0.2357694E-004  0.6569267E+03  0.7818608E-02  0.9793868E-01
         13   -1    0    0    0    0  0.00000000000E+00  0.00000000000E+00  0.10000000000E+04  0.10000000000E+04  0.00000000000E+00 0. -1.
          2   -1    0    0  501    0 -0.00000000000E+00 -0.00000000000E+00 -0.10788817530E+03  0.10788817530E+03  0.00000000000E+00 0. -1.
    9000006    2    1    2  501    0  0.00000000000E+00  0.00000000000E+00  0.89211182470E+03  0.11078881753E+04  0.65692670914E+03 0.  0.
         13    1    3    3    0    0 -0.20386177914E+03 -0.25753774142E+03  0.44890901390E+03  0.55624150871E+03  0.00000000000E+00 0. -1.
          2    1    3    3  501    0  0.20386177914E+03  0.25753774142E+03  0.44320281080E+03  0.55164666659E+03  0.00000000000E+00 0. -1.
<mgrwt>
<rscale>  0 0.65692671E+03</rscale>
<asrwt>0</asrwt>
<pdfrwt beam="1">0</pdfrwt>
<pdfrwt beam="2">  1        2 0.39232146E+00 0.65692671E+03</pdfrwt>
<totfact> 0.42527116E+00</totfact>
</mgrwt>
</event>
<event>
 5    1  0.2357694E-004  0.6544968E+03  0.7818608E-02  0.9798378E-01
         13   -1    0    0    0    0  0.00000000000E+00  0.00000000000E+00  0.10000000000E+04  0.10000000000E+04  0.00000000000E+00 0. -1.
          2   -1    0    0  501    0 -0.00000000000E+00 -0.00000000000E+00 -0.10709152785E+03  0.10709152785E+03  0.00000000000E+00 0. -1.
    9000006    2    1    2  501    0  0.00000000000E+00  0.00000000000E+00  0.89290847215E+03  0.11070915279E+04  0.65449683835E+03 0.  0.
         13    1    3    3    0    0  0.25394713649E+03  0.17560122009E+03  0.62993954922E+03  0.70153315838E+03  0.00000000000E+00 0. -1.
          2    1    3    3  501    0 -0.25394713649E+03 -0.17560122009E+03  0.26296892292E+03  0.40555836947E+03  0.00000000000E+00 0. -1.
<mgrwt>
<rscale>  0 0.65449684E+03</rscale>
<asrwt>0</asrwt>
<pdfrwt beam="1">0</pdfrwt>
<pdfrwt beam="2">  1        2 0.38942456E+00 0.65449684E+03</pdfrwt>
<totfact> 0.43604558E+00</totfact>
</mgrwt>
</event>
<event>
 5    1  0.2357694E-004  0.5356236E+03  0.7818608E-02  0.1004877E+00
         13   -1    0    0    0    0  0.00000000000E+00  0.00000000000E+00  0.10000000000E+04  0.10000000000E+04  0.00000000000E+00 0. -1.
          2   -1    0    0  501    0 -0.00000000000E+00 -0.00000000000E+00 -0.71723151591E+02  0.71723151591E+02  0.00000000000E+00 0. -1.
    9000006    2    1    2  501    0  0.00000000000E+00  0.00000000000E+00  0.92827684841E+03  0.10717231516E+04  0.53562356778E+03 0.  0.
         13    1    3    3    0    0 -0.26622803851E+03  0.11907410201E+02  0.51722787610E+03  0.58184519481E+03  0.00000000000E+00 0. -1.
          4    1    3    3  501    0  0.26622803851E+03 -0.11907410201E+02  0.41104897231E+03  0.48987795678E+03  0.00000000000E+00 0. -1.
<mgrwt>
<rscale>  0 0.53562357E+03</rscale>
<asrwt>0</asrwt>
<pdfrwt beam="1">0</pdfrwt>
<pdfrwt beam="2">  1        2 0.26081201E+00 0.53562357E+03</pdfrwt>
<totfact> 0.12748002E+01</totfact>
</mgrwt>
</event>
<event>
 5    1  0.2357694E-004  0.6670930E+03  0.7818608E-02  0.9775224E-01
         13   -1    0    0    0    0  0.00000000000E+00  0.00000000000E+00  0.10000000000E+04  0.10000000000E+04  0.00000000000E+00 0. -1.
          2   -1    0    0  501    0 -0.00000000000E+00 -0.00000000000E+00 -0.11125326764E+03  0.11125326764E+03  0.00000000000E+00 0. -1.
    9000006    2    1    2  501    0  0.00000000000E+00  0.00000000000E+00  0.88874673236E+03  0.11112532676E+04  0.66709299993E+03 0.  0.
         13    1    3    3    0    0  0.30994171459E+03  0.47205197909E+02  0.63402085821E+03  0.70730095843E+03  0.00000000000E+00 0. -1.
          2    1    3    3  501    0 -0.30994171459E+03 -0.47205197909E+02  0.25472587415E+03  0.40395230921E+03  0.00000000000E+00 0. -1.
<mgrwt>
<rscale>  0 0.66709300E+03</rscale>
<asrwt>0</asrwt>
<pdfrwt beam="1">0</pdfrwt>
<pdfrwt beam="2">  1        2 0.40455819E+00 0.66709300E+03</pdfrwt>
<totfact> 0.38235829E+00</totfact>
</mgrwt>
</event>
<event>
 5    1  0.2357694E-004  0.6472660E+03  0.7818608E-02  0.9811923E-01
         13   -1    0    0    0    0  0.00000000000E+00  0.00000000000E+00  0.10000000000E+04  0.10000000000E+04  0.00000000000E+00 0. -1.
          2   -1    0    0  501    0 -0.00000000000E+00 -0.00000000000E+00 -0.10473832336E+03  0.10473832336E+03  0.00000000000E+00 0. -1.
    9000006    2    1    2  501    0  0.00000000000E+00  0.00000000000E+00  0.89526167664E+03  0.11047383234E+04  0.64726601445E+03 0.  0.
         13    1    3    3    0    0  0.18530064641E+03 -0.16941321512E+03  0.79616926341E+03  0.83481894026E+03  0.00000000000E+00 0. -1.
          4    1    3    3  501    0 -0.18530064641E+03  0.16941321512E+03  0.99092413223E+02  0.26991938310E+03  0.00000000000E+00 0. -1.
<mgrwt>
<rscale>  0 0.64726601E+03</rscale>
<asrwt>0</asrwt>
<pdfrwt beam="1">0</pdfrwt>
<pdfrwt beam="2">  1        2 0.38086743E+00 0.64726601E+03</pdfrwt>
<totfact> 0.46933075E+00</totfact>
</mgrwt>
</event>
<event>
 5    1  0.2357694E-004  0.6488111E+03  0.7818608E-02  0.9809013E-01
         13   -1    0    0    0    0  0.00000000000E+00  0.00000000000E+00  0.10000000000E+04  0.10000000000E+04  0.00000000000E+00 0. -1.
          2   -1    0    0  501    0 -0.00000000000E+00 -0.00000000000E+00 -0.10523896655E+03  0.10523896655E+03  0.00000000000E+00 0. -1.
    9000006    2    1    2  501    0  0.00000000000E+00  0.00000000000E+00  0.89476103345E+03  0.11052389666E+04  0.64881111751E+03 0.  0.
         13    1    3    3    0    0  0.15133265797E+03 -0.90811208624E+02  0.91106205608E+03  0.92799909429E+03  0.00000000000E+00 0. -1.
          2    1    3    3  501    0 -0.15133265797E+03  0.90811208624E+02 -0.16301022633E+02  0.17723987226E+03  0.00000000000E+00 0. -1.
<mgrwt>
<rscale>  0 0.64881112E+03</rscale>
<asrwt>0</asrwt>
<pdfrwt beam="1">0</pdfrwt>
<pdfrwt beam="2">  1        2 0.38268796E+00 0.64881112E+03</pdfrwt>
<totfact> 0.46206228E+00</totfact>
</mgrwt>
</event>
<event>
 5    1  0.2357694E-004  0.6574912E+03  0.7818608E-02  0.9792823E-01
         13   -1    0    0    0    0  0.00000000000E+00  0.00000000000E+00  0.10000000000E+04  0.10000000000E+04  0.00000000000E+00 0. -1.
          2   -1    0    0  501    0 -0.00000000000E+00 -0.00000000000E+00 -0.10807366930E+03  0.10807366930E+03  0.00000000000E+00 0. -1.
    9000006    2    1    2  501    0  0.00000000000E+00  0.00000000000E+00  0.89192633070E+03  0.11080736693E+04  0.65749119933E+03 0.  0.
         13    1    3    3    0    0 -0.59163497122E+02 -0.28812457101E+03  0.19851815024E+03  0.35485989317E+03  0.00000000000E+00 0. -1.
          2    1    3    3  501    0  0.59163497122E+02  0.28812457101E+03  0.69340818046E+03  0.75321377613E+03  0.00000000000E+00 0. -1.
<mgrwt>
<rscale>  0 0.65749120E+03</rscale>
<asrwt>0</asrwt>
<pdfrwt beam="1">0</pdfrwt>
<pdfrwt beam="2">  1        2 0.39299599E+00 0.65749120E+03</pdfrwt>
<totfact> 0.42279717E+00</totfact>
</mgrwt>
</event>
<event>
 5    1  0.2357694E-004  0.6281042E+03  0.7818608E-02  0.9848755E-01
         13   -1    0    0    0    0  0.00000000000E+00  0.00000000000E+00  0.10000000000E+04  0.10000000000E+04  0.00000000000E+00 0. -1.
          2   -1    0    0  501    0 -0.00000000000E+00 -0.00000000000E+00 -0.98628722220E+02  0.98628722220E+02  0.00000000000E+00 0. -1.
    9000006    2    1    2  501    0  0.00000000000E+00  0.00000000000E+00  0.90137127778E+03  0.10986287222E+04  0.62810420225E+03 0.  0.
         13    1    3    3    0    0  0.19600682832E+03  0.22127135575E+03  0.63619970206E+03  0.70151960095E+03  0.00000000000E+00 0. -1.
          2    1    3    3  501    0 -0.19600682832E+03 -0.22127135575E+03  0.26517157572E+03  0.39710912127E+03  0.00000000000E+00 0. -1.
<mgrwt>
<rscale>  0 0.62810420E+03</rscale>
<asrwt>0</asrwt>
<pdfrwt beam="1">0</pdfrwt>
<pdfrwt beam="2">  1        2 0.35865066E+00 0.62810420E+03</pdfrwt>
<totfact> 0.56686684E+00</totfact>
</mgrwt>
</event>
<event>
 5    1  0.2357694E-004  0.6472576E+03  0.7818608E-02  0.9811939E-01
         13   -1    0    0    0    0  0.00000000000E+00  0.00000000000E+00  0.10000000000E+04  0.10000000000E+04  0.00000000000E+00 0. -1.
          2   -1    0    0  501    0 -0.00000000000E+00 -0.00000000000E+00 -0.10473559521E+03  0.10473559521E+03  0.00000000000E+00 0. -1.
    9000006    2    1    2  501    0  0.00000000000E+00  0.00000000000E+00  0.89526440479E+03  0.11047355952E+04  0.64725758461E+03 0.  0.
         13    1    3    3    0    0 -0.10964935653E+03 -0.25705518462E+03  0.72618630189E+03  0.77810468086E+03  0.00000000000E+00 0. -1.
          2    1    3    3  501    0  0.10964935653E+03  0.25705518462E+03  0.16907810290E+03  0.32663091435E+03  0.00000000000E+00 0. -1.
<mgrwt>
<rscale>  0 0.64725758E+03</rscale>
<asrwt>0</asrwt>
<pdfrwt beam="1">0</pdfrwt>
<pdfrwt beam="2">  1        2 0.38085751E+00 0.64725758E+03</pdfrwt>
<totfact> 0.46937064E+00</totfact>
</mgrwt>
</event>
<event>
 5    1  0.2357694E-004  0.6492123E+03  0.7818608E-02  0.9808258E-01
         13   -1    0    0    0    0  0.00000000000E+00  0.00000000000E+00  0.10000000000E+04  0.10000000000E+04  0.00000000000E+00 0. -1.
          2   -1    0    0  501    0 -0.00000000000E+00 -0.00000000000E+00 -0.10536913674E+03  0.10536913674E+03  0.00000000000E+00 0. -1.
    9000006    2    1    2  501    0  0.00000000000E+00  0.00000000000E+00  0.89463086326E+03  0.11053691367E+04  0.64921225108E+03 0.  0.
         13    1    3    3    0    0 -0.49777244108E+02  0.87471033453E+02 -0.78133766715E+02  0.12741209215E+03  0.00000000000E+00 0. -1.
          4    1    3    3  501    0  0.49777244108E+02 -0.87471033453E+02  0.97276462998E+03  0.97795704459E+03  0.00000000000E+00 0. -1.
<mgrwt>
<rscale>  0 0.64921225E+03</rscale>
<asrwt>0</asrwt>
<pdfrwt beam="1">0</pdfrwt>
<pdfrwt beam="2">  1        2 0.38316131E+00 0.64921225E+03</pdfrwt>
<totfact> 0.46018926E+00</totfact>
</mgrwt>
</event>
<event>
 5    1  0.2357694E-004  0.6631051E+03  0.7818608E-02  0.9782494E-01
         13   -1    0    0    0    0  0.00000000000E+00  0.00000000000E+00  0.10000000000E+04  0.10000000000E+04  0.00000000000E+00 0. -1.
          2   -1    0    0  501    0 -0.00000000000E+00 -0.00000000000E+00 -0.10992708638E+03  0.10992708638E+03  0.00000000000E+00 0. -1.
    9000006    2    1    2  501    0  0.00000000000E+00  0.00000000000E+00  0.89007291362E+03  0.11099270864E+04  0.66310507879E+03 0.  0.
         13    1    3    3    0    0 -0.11137500492E+03 -0.24301843976E+03  0.11675719023E+03  0.29170977916E+03  0.00000000000E+00 0. -1.
          2    1    3    3  501    0  0.11137500492E+03  0.24301843976E+03  0.77331572340E+03  0.81821730722E+03  0.00000000000E+00 0. -1.
<mgrwt>
<rscale>  0 0.66310508E+03</rscale>
<asrwt>0</asrwt>
<pdfrwt beam="1">0</pdfrwt>
<pdfrwt beam="2">  1        2 0.39973570E+00 0.66310508E+03</pdfrwt>
<totfact> 0.39878190E+00</totfact>
</mgrwt>
</event>
<event>
 5    1  0.2357694E-004  0.6514658E+03  0.7818608E-02  0.9804033E-01
         13   -1    0    0    0    0  0.00000000000E+00  0.00000000000E+00  0.10000000000E+04  0.10000000000E+04  0.00000000000E+00 0. -1.
          2   -1    0    0  501    0 -0.00000000000E+00 -0.00000000000E+00 -0.10610193461E+03  0.10610193461E+03  0.00000000000E+00 0. -1.
    9000006    2    1    2  501    0  0.00000000000E+00  0.00000000000E+00  0.89389806539E+03  0.11061019346E+04  0.65146583828E+03 0.  0.
         13    1    3    3    0    0 -0.11486720293E+03 -0.16742134481E+03  0.14484259387E+02  0.20355386210E+03  0.00000000000E+00 0. -1.
          2    1    3    3  501    0  0.11486720293E+03  0.16742134481E+03  0.87941380600E+03  0.90254807251E+03  0.00000000000E+00 0. -1.
<mgrwt>
<rscale>  0 0.65146584E+03</rscale>
<asrwt>0</asrwt>
<pdfrwt beam="1">0</pdfrwt>
<pdfrwt beam="2">  1        2 0.38582603E+00 0.65146584E+03</pdfrwt>
<totfact> 0.44977301E+00</totfact>
</mgrwt>
</event>
<event>
 5    1  0.2357694E-004  0.6233290E+03  0.7818608E-02  0.9858154E-01
         13   -1    0    0    0    0  0.00000000000E+00  0.00000000000E+00  0.10000000000E+04  0.10000000000E+04  0.00000000000E+00 0. -1.
          2   -1    0    0  501    0 -0.00000000000E+00 -0.00000000000E+00 -0.97134772023E+02  0.97134772023E+02  0.00000000000E+00 0. -1.
    9000006    2    1    2  501    0  0.00000000000E+00  0.00000000000E+00  0.90286522798E+03  0.10971347720E+04  0.62332903678E+03 0.  0.
         13    1    3    3    0    0 -0.66161574535E+01 -0.20044041367E+03  0.31524163944E+02  0.20301208310E+03  0.00000000000E+00 0. -1.
          2    1    3    3  501    0  0.66161574535E+01  0.20044041367E+03  0.87134106403E+03  0.89412268892E+03  0.00000000000E+00 0. -1.
<mgrwt>
<rscale>  0 0.62332904E+03</rscale>
<asrwt>0</asrwt>
<pdfrwt beam="1">0</pdfrwt>
<pdfrwt beam="2">  1        2 0.35321810E+00 0.62332904E+03</pdfrwt>
<totfact> 0.59340211E+00</totfact>
</mgrwt>
</event>
<event>
 5    1  0.2357694E-004  0.6131925E+03  0.7818608E-02  0.9878408E-01
         13   -1    0    0    0    0  0.00000000000E+00  0.00000000000E+00  0.10000000000E+04  0.10000000000E+04  0.00000000000E+00 0. -1.
          2   -1    0    0  501    0 -0.00000000000E+00 -0.00000000000E+00 -0.94001259786E+02  0.94001259786E+02  0.00000000000E+00 0. -1.
    9000006    2    1    2  501    0  0.00000000000E+00  0.00000000000E+00  0.90599874021E+03  0.10940012598E+04  0.61319249762E+03 0.  0.
         13    1    3    3    0    0 -0.14915798739E+03 -0.21916836445E+03  0.17823303269E+03  0.31945248648E+03  0.00000000000E+00 0. -1.
          2    1    3    3  501    0  0.14915798739E+03  0.21916836445E+03  0.72776570752E+03  0.77454877330E+03  0.00000000000E+00 0. -1.
<mgrwt>
<rscale>  0 0.61319250E+03</rscale>
<asrwt>0</asrwt>
<pdfrwt beam="1">0</pdfrwt>
<pdfrwt beam="2">  1        2 0.34182348E+00 0.61319250E+03</pdfrwt>
<totfact> 0.65285741E+00</totfact>
</mgrwt>
</event>
<event>
 5    1  0.2357694E-004  0.6476024E+03  0.7818608E-02  0.9811288E-01
         13   -1    0    0    0    0  0.00000000000E+00  0.00000000000E+00  0.10000000000E+04  0.10000000000E+04  0.00000000000E+00 0. -1.
          2   -1    0    0  501    0 -0.00000000000E+00 -0.00000000000E+00 -0.10484722678E+03  0.10484722678E+03  0.00000000000E+00 0. -1.
    9000006    2    1    2  501    0  0.00000000000E+00  0.00000000000E+00  0.89515277322E+03  0.11048472268E+04  0.64760242982E+03 0.  0.
         13    1    3    3    0    0 -0.98448426589E+02 -0.26071914950E+03  0.72884660649E+03  0.78031015847E+03  0.00000000000E+00 0. -1.
          4    1    3    3  501    0  0.98448426589E+02  0.26071914950E+03  0.16630616673E+03  0.32453706831E+03  0.00000000000E+00 0. -1.
<mgrwt>
<rscale>  0 0.64760243E+03</rscale>
<asrwt>0</asrwt>
<pdfrwt beam="1">0</pdfrwt>
<pdfrwt beam="2">  1        2 0.38126345E+00 0.64760243E+03</pdfrwt>
<totfact> 0.46774087E+00</totfact>
</mgrwt>
</event>
<event>
 5    1  0.2357694E-004  0.6493466E+03  0.7818608E-02  0.9808006E-01
         13   -1    0    0    0    0  0.00000000000E+00  0.00000000000E+00  0.10000000000E+04  0.10000000000E+04  0.00000000000E+00 0. -1.
          2   -1    0    0  501    0 -0.00000000000E+00 -0.00000000000E+00 -0.10541274037E+03  0.10541274037E+03  0.00000000000E+00 0. -1.
    9000006    2    1    2  501    0  0.00000000000E+00  0.00000000000E+00  0.89458725963E+03  0.11054127404E+04  0.64934656501E+03 0.  0.
         13    1    3    3    0    0  0.22045145694E+02  0.28696145841E+03  0.19148884205E+03  0.34568894065E+03  0.00000000000E+00 0. -1.
          2    1    3    3  501    0 -0.22045145694E+02 -0.28696145841E+03  0.70309841758E+03  0.75972379972E+03  0.00000000000E+00 0. -1.
<mgrwt>
<rscale>  0 0.64934657E+03</rscale>
<asrwt>0</asrwt>
<pdfrwt beam="1">0</pdfrwt>
<pdfrwt beam="2">  1        2 0.38331986E+00 0.64934657E+03</pdfrwt>
<totfact> 0.45956339E+00</totfact>
</mgrwt>
</event>
<event>
 5    1  0.2357694E-004  0.6305528E+03  0.7818608E-02  0.9843971E-01
         13   -1    0    0    0    0  0.00000000000E+00  0.00000000000E+00  0.10000000000E+04  0.10000000000E+04  0.00000000000E+00 0. -1.
          2   -1    0    0  501    0 -0.00000000000E+00 -0.00000000000E+00 -0.99399218036E+02  0.99399218036E+02  0.00000000000E+00 0. -1.
    9000006    2    1    2  501    0  0.00000000000E+00  0.00000000000E+00  0.90060078196E+03  0.10993992180E+04  0.63055283057E+03 0.  0.
         13    1    3    3    0    0  0.28157954175E+03  0.13738609092E+03  0.51162873286E+03  0.59993827733E+03  0.00000000000E+00 0. -1.
          2    1    3    3  501    0 -0.28157954175E+03 -0.13738609092E+03  0.38897204910E+03  0.49946094071E+03  0.00000000000E+00 0. -1.
<mgrwt>
<rscale>  0 0.63055283E+03</rscale>
<asrwt>0</asrwt>
<pdfrwt beam="1">0</pdfrwt>
<pdfrwt beam="2">  1        2 0.36145246E+00 0.63055283E+03</pdfrwt>
<totfact> 0.55361570E+00</totfact>
</mgrwt>
</event>
<event>
 5    1  0.2357694E-004  0.6047952E+03  0.7818608E-02  0.9895507E-01
         13   -1    0    0    0    0  0.00000000000E+00  0.00000000000E+00  0.10000000000E+04  0.10000000000E+04  0.00000000000E+00 0. -1.
          2   -1    0    0  501    0 -0.00000000000E+00 -0.00000000000E+00 -0.91444296431E+02  0.91444296431E+02  0.00000000000E+00 0. -1.
    9000006    2    1    2  501    0  0.00000000000E+00  0.00000000000E+00  0.90855570357E+03  0.10914442964E+04  0.60479516014E+03 0.  0.
         13    1    3    3    0    0  0.28526123006E+03 -0.99110951097E+02  0.48266005394E+03  0.56934846770E+03  0.00000000000E+00 0. -1.
          4    1    3    3  501    0 -0.28526123006E+03  0.99110951097E+02  0.42589564963E+03  0.52209582873E+03  0.00000000000E+00 0. -1.
<mgrwt>
<rscale>  0 0.60479516E+03</rscale>
<asrwt>0</asrwt>
<pdfrwt beam="1">0</pdfrwt>
<pdfrwt beam="2">  1        2 0.33252542E+00 0.60479516E+03</pdfrwt>
<totfact> 0.70546778E+00</totfact>
</mgrwt>
</event>
<event>
 5    1  0.2357694E-004  0.6515604E+03  0.7818608E-02  0.9803856E-01
         13   -1    0    0    0    0  0.00000000000E+00  0.00000000000E+00  0.10000000000E+04  0.10000000000E+04  0.00000000000E+00 0. -1.
          2   -1    0    0  501    0 -0.00000000000E+00 -0.00000000000E+00 -0.10613272640E+03  0.10613272640E+03  0.00000000000E+00 0. -1.
    9000006    2    1    2  501    0  0.00000000000E+00  0.00000000000E+00  0.89386727360E+03  0.11061327264E+04  0.65156036220E+03 0.  0.
         13    1    3    3    0    0 -0.67022948331E+02  0.12339887962E+03  0.94598247633E+03  0.95634836991E+03  0.00000000000E+00 0. -1.
          2    1    3    3  501    0  0.67022948331E+02 -0.12339887962E+03 -0.52115202733E+02  0.14978435649E+03  0.00000000000E+00 0. -1.
<mgrwt>
<rscale>  0 0.65156036E+03</rscale>
<asrwt>0</asrwt>
<pdfrwt beam="1">0</pdfrwt>
<pdfrwt beam="2">  1        2 0.38593800E+00 0.65156036E+03</pdfrwt>
<totfact> 0.44934004E+00</totfact>
</mgrwt>
</event>
<event>
 5    1  0.2357694E-004  0.7586433E+03  0.7818608E-02  0.9621887E-01
         13   -1    0    0    0    0  0.00000000000E+00  0.00000000000E+00  0.10000000000E+04  0.10000000000E+04  0.00000000000E+00 0. -1.
          2   -1    0    0  501    0 -0.00000000000E+00 -0.00000000000E+00 -0.14388491039E+03  0.14388491039E+03  0.00000000000E+00 0. -1.
    9000006    2    1    2  501    0  0.00000000000E+00  0.00000000000E+00  0.85611508961E+03  0.11438849104E+04  0.75864329007E+03 0.  0.
         13    1    3    3    0    0  0.19244567387E+03  0.10454722667E+03  0.89503729751E+03  0.92144301177E+03  0.00000000000E+00 0. -1.
          4    1    3    3  501    0 -0.19244567387E+03 -0.10454722667E+03 -0.38922207906E+02  0.22244189862E+03  0.00000000000E+00 0. -1.
<mgrwt>
<rscale>  0 0.75864329E+03</rscale>
<asrwt>0</asrwt>
<pdfrwt beam="1">0</pdfrwt>
<pdfrwt beam="2">  1        2 0.52321896E+00 0.75864329E+03</pdfrwt>
<totfact> 0.12609219E+00</totfact>
</mgrwt>
</event>
<event>
 5    1  0.2357694E-004  0.6312052E+03  0.7818608E-02  0.9842700E-01
         13   -1    0    0    0    0  0.00000000000E+00  0.00000000000E+00  0.10000000000E+04  0.10000000000E+04  0.00000000000E+00 0. -1.
          2   -1    0    0  501    0 -0.00000000000E+00 -0.00000000000E+00 -0.99604992192E+02  0.99604992192E+02  0.00000000000E+00 0. -1.
    9000006    2    1    2  501    0  0.00000000000E+00  0.00000000000E+00  0.90039500781E+03  0.10996049922E+04  0.63120517169E+03 0.  0.
         13    1    3    3    0    0 -0.27851137101E+03 -0.73946054160E+02  0.67443400176E+03  0.73341517944E+03  0.00000000000E+00 0. -1.
          2    1    3    3  501    0  0.27851137101E+03  0.73946054160E+02  0.22596100605E+03  0.36618981275E+03  0.00000000000E+00 0. -1.
<mgrwt>
<rscale>  0 0.63120517E+03</rscale>
<asrwt>0</asrwt>
<pdfrwt beam="1">0</pdfrwt>
<pdfrwt beam="2">  1        2 0.36220074E+00 0.63120517E+03</pdfrwt>
<totfact> 0.55012547E+00</totfact>
</mgrwt>
</event>
<event>
 5    1  0.2357694E-004  0.6446900E+03  0.7818608E-02  0.9816794E-01
         13   -1    0    0    0    0  0.00000000000E+00  0.00000000000E+00  0.10000000000E+04  0.10000000000E+04  0.00000000000E+00 0. -1.
          2   -1    0    0  501    0 -0.00000000000E+00 -0.00000000000E+00 -0.10390630225E+03  0.10390630225E+03  0.00000000000E+00 0. -1.
    9000006    2    1    2  501    0  0.00000000000E+00  0.00000000000E+00  0.89609369775E+03  0.11039063022E+04  0.64469001000E+03 0.  0.
         13    1    3    3    0    0 -0.44779617338E+02 -0.13051370679E+03 -0.50781772214E+02  0.14703003155E+03  0.00000000000E+00 0. -1.
          4    1    3    3  501    0  0.44779617338E+02  0.13051370679E+03  0.94687546997E+03  0.95687627069E+03  0.00000000000E+00 0. -1.
<mgrwt>
<rscale>  0 0.64469001E+03</rscale>
<asrwt>0</asrwt>
<pdfrwt beam="1">0</pdfrwt>
<pdfrwt beam="2">  1        2 0.37784190E+00 0.64469001E+03</pdfrwt>
<totfact> 0.48164065E+00</totfact>
</mgrwt>
</event>
<event>
 5    1  0.2357694E-004  0.6116988E+03  0.7818608E-02  0.9881428E-01
         13   -1    0    0    0    0  0.00000000000E+00  0.00000000000E+00  0.10000000000E+04  0.10000000000E+04  0.00000000000E+00 0. -1.
          2   -1    0    0  501    0 -0.00000000000E+00 -0.00000000000E+00 -0.93543850793E+02  0.93543850793E+02  0.00000000000E+00 0. -1.
    9000006    2    1    2  501    0  0.00000000000E+00  0.00000000000E+00  0.90645614921E+03  0.10935438508E+04  0.61169878468E+03 0.  0.
         13    1    3    3    0    0 -0.20738379480E+03 -0.22474974948E+03  0.46186897027E+03  0.55393450329E+03  0.00000000000E+00 0. -1.
          4    1    3    3  501    0  0.20738379480E+03  0.22474974948E+03  0.44458717893E+03  0.53960934750E+03  0.00000000000E+00 0. -1.
<mgrwt>
<rscale>  0 0.61169878E+03</rscale>
<asrwt>0</asrwt>
<pdfrwt beam="1">0</pdfrwt>
<pdfrwt beam="2">  1        2 0.34016017E+00 0.61169878E+03</pdfrwt>
<totfact> 0.66198840E+00</totfact>
</mgrwt>
</event>
<event>
 5    1  0.2357694E-004  0.6553354E+03  0.7818608E-02  0.9796819E-01
         13   -1    0    0    0    0  0.00000000000E+00  0.00000000000E+00  0.10000000000E+04  0.10000000000E+04  0.00000000000E+00 0. -1.
          2   -1    0    0  501    0 -0.00000000000E+00 -0.00000000000E+00 -0.10736612700E+03  0.10736612700E+03  0.00000000000E+00 0. -1.
    9000006    2    1    2  501    0  0.00000000000E+00  0.00000000000E+00  0.89263387300E+03  0.11073661270E+04  0.65533541640E+03 0.  0.
         13    1    3    3    0    0 -0.29233009664E+03 -0.14770726224E+03  0.46250756790E+03  0.56673412734E+03  0.00000000000E+00 0. -1.
          4    1    3    3  501    0  0.29233009664E+03  0.14770726224E+03  0.43012630510E+03  0.54063199966E+03  0.00000000000E+00 0. -1.
<mgrwt>
<rscale>  0 0.65533542E+03</rscale>
<asrwt>0</asrwt>
<pdfrwt beam="1">0</pdfrwt>
<pdfrwt beam="2">  1        2 0.39042310E+00 0.65533542E+03</pdfrwt>
<totfact> 0.43230417E+00</totfact>
</mgrwt>
</event>
<event>
 5    1  0.2357694E-004  0.6529623E+03  0.7818608E-02  0.9801236E-01
         13   -1    0    0    0    0  0.00000000000E+00  0.00000000000E+00  0.10000000000E+04  0.10000000000E+04  0.00000000000E+00 0. -1.
          2   -1    0    0  501    0 -0.00000000000E+00 -0.00000000000E+00 -0.10658994215E+03  0.10658994215E+03  0.00000000000E+00 0. -1.
    9000006    2    1    2  501    0  0.00000000000E+00  0.00000000000E+00  0.89341005785E+03  0.11065899421E+04  0.65296230258E+03 0.  0.
         13    1    3    3    0    0  0.24680226475E+03 -0.80105408287E+02  0.11090308718E+03  0.28218385685E+03  0.00000000000E+00 0. -1.
          2    1    3    3  501    0 -0.24680226475E+03  0.80105408287E+02  0.78250697068E+03  0.82440608530E+03  0.00000000000E+00 0. -1.
<mgrwt>
<rscale>  0 0.65296230E+03</rscale>
<asrwt>0</asrwt>
<pdfrwt beam="1">0</pdfrwt>
<pdfrwt beam="2">  1        2 0.38760061E+00 0.65296230E+03</pdfrwt>
<totfact> 0.44295533E+00</totfact>
</mgrwt>
</event>
<event>
 5    1  0.2357694E-004  0.5244548E+03  0.7818608E-02  0.1007586E+00
         13   -1    0    0    0    0  0.00000000000E+00  0.00000000000E+00  0.10000000000E+04  0.10000000000E+04  0.00000000000E+00 0. -1.
          2   -1    0    0  501    0 -0.00000000000E+00 -0.00000000000E+00 -0.68763217099E+02  0.68763217099E+02  0.00000000000E+00 0. -1.
    9000006    2    1    2  501    0  0.00000000000E+00  0.00000000000E+00  0.93123678290E+03  0.10687632171E+04  0.52445482970E+03 0.  0.
         13    1    3    3    0    0 -0.20817176300E+03 -0.74386572331E+02  0.17818413436E+03  0.28393384932E+03  0.00000000000E+00 0. -1.
          4    1    3    3  501    0  0.20817176300E+03  0.74386572331E+02  0.75305264854E+03  0.78482936777E+03  0.00000000000E+00 0. -1.
<mgrwt>
<rscale>  0 0.52445483E+03</rscale>
<asrwt>0</asrwt>
<pdfrwt beam="1">0</pdfrwt>
<pdfrwt beam="2">  1        2 0.25004859E+00 0.52445483E+03</pdfrwt>
<totfact> 0.13933930E+01</totfact>
</mgrwt>
</event>
<event>
 5    1  0.2357694E-004  0.6705082E+03  0.7818608E-02  0.9769040E-01
         13   -1    0    0    0    0  0.00000000000E+00  0.00000000000E+00  0.10000000000E+04  0.10000000000E+04  0.00000000000E+00 0. -1.
          2   -1    0    0  501    0 -0.00000000000E+00 -0.00000000000E+00 -0.11239530870E+03  0.11239530870E+03  0.00000000000E+00 0. -1.
    9000006    2    1    2  501    0  0.00000000000E+00  0.00000000000E+00  0.88760469130E+03  0.11123953087E+04  0.67050819145E+03 0.  0.
         13    1    3    3    0    0 -0.29080231650E+03  0.19463598149E+02  0.71867409692E+03  0.77552387231E+03  0.00000000000E+00 0. -1.
          4    1    3    3  501    0  0.29080231650E+03 -0.19463598149E+02  0.16893059438E+03  0.33687143639E+03  0.00000000000E+00 0. -1.
<mgrwt>
<rscale>  0 0.67050819E+03</rscale>
<asrwt>0</asrwt>
<pdfrwt beam="1">0</pdfrwt>
<pdfrwt beam="2">  1        2 0.40871108E+00 0.67050819E+03</pdfrwt>
<totfact> 0.36870329E+00</totfact>
</mgrwt>
</event>
<event>
 5    1  0.2357694E-004  0.6603188E+03  0.7818608E-02  0.9787607E-01
         13   -1    0    0    0    0  0.00000000000E+00  0.00000000000E+00  0.10000000000E+04  0.10000000000E+04  0.00000000000E+00 0. -1.
          2   -1    0    0  501    0 -0.00000000000E+00 -0.00000000000E+00 -0.10900523467E+03  0.10900523467E+03  0.00000000000E+00 0. -1.
    9000006    2    1    2  501    0  0.00000000000E+00  0.00000000000E+00  0.89099476533E+03  0.11090052347E+04  0.66031881593E+03 0.  0.
         13    1    3    3    0    0  0.21908017569E+03 -0.18522646075E+03  0.17106348992E+03  0.33401748866E+03  0.00000000000E+00 0. -1.
          4    1    3    3  501    0 -0.21908017569E+03  0.18522646075E+03  0.71993127542E+03  0.77498774601E+03  0.00000000000E+00 0. -1.
<mgrwt>
<rscale>  0 0.66031882E+03</rscale>
<asrwt>0</asrwt>
<pdfrwt beam="1">0</pdfrwt>
<pdfrwt beam="2">  1        2 0.39638351E+00 0.66031882E+03</pdfrwt>
<totfact> 0.41056848E+00</totfact>
</mgrwt>
</event>
<event>
 5    1  0.2357694E-004  0.6514811E+03  0.7818608E-02  0.9804004E-01
         13   -1    0    0    0    0  0.00000000000E+00  0.00000000000E+00  0.10000000000E+04  0.10000000000E+04  0.00000000000E+00 0. -1.
          2   -1    0    0  501    0 -0.00000000000E+00 -0.00000000000E+00 -0.10610690270E+03  0.10610690270E+03  0.00000000000E+00 0. -1.
    9000006    2    1    2  501    0  0.00000000000E+00  0.00000000000E+00  0.89389309730E+03  0.11061069027E+04  0.65148109012E+03 0.  0.
         13    1    3    3    0    0  0.17026537480E+03  0.21387332069E+03  0.74768282865E+03  0.79609151950E+03  0.00000000000E+00 0. -1.
          4    1    3    3  501    0 -0.17026537480E+03 -0.21387332069E+03  0.14621026865E+03  0.31001538320E+03  0.00000000000E+00 0. -1.
<mgrwt>
<rscale>  0 0.65148109E+03</rscale>
<asrwt>0</asrwt>
<pdfrwt beam="1">0</pdfrwt>
<pdfrwt beam="2">  1        2 0.38584410E+00 0.65148109E+03</pdfrwt>
<totfact> 0.44970312E+00</totfact>
</mgrwt>
</event>
<event>
 5    1  0.2357694E-004  0.6518365E+03  0.7818608E-02  0.9803339E-01
         13   -1    0    0    0    0  0.00000000000E+00  0.00000000000E+00  0.10000000000E+04  0.10000000000E+04  0.00000000000E+00 0. -1.
          2   -1    0    0  501    0 -0.00000000000E+00 -0.00000000000E+00 -0.10622270288E+03  0.10622270288E+03  0.00000000000E+00 0. -1.
    9000006    2    1    2  501    0  0.00000000000E+00  0.00000000000E+00  0.89377729712E+03  0.11062227029E+04  0.65183649140E+03 0.  0.
         13    1    3    3    0    0 -0.23200285484E+03 -0.21516477736E+03  0.31432571941E+03  0.44600657389E+03  0.00000000000E+00 0. -1.
          2    1    3    3  501    0  0.23200285484E+03  0.21516477736E+03  0.57945157771E+03  0.66021612899E+03  0.00000000000E+00 0. -1.
<mgrwt>
<rscale>  0 0.65183649E+03</rscale>
<asrwt>0</asrwt>
<pdfrwt beam="1">0</pdfrwt>
<pdfrwt beam="2">  1        2 0.38626519E+00 0.65183649E+03</pdfrwt>
<totfact> 0.44807703E+00</totfact>
</mgrwt>
</event>
<event>
 5    1  0.2357694E-004  0.6424487E+03  0.7818608E-02  0.9821053E-01
         13   -1    0    0    0    0  0.00000000000E+00  0.00000000000E+00  0.10000000000E+04  0.10000000000E+04  0.00000000000E+00 0. -1.
          2   -1    0    0  501    0 -0.00000000000E+00 -0.00000000000E+00 -0.10318507943E+03  0.10318507943E+03  0.00000000000E+00 0. -1.
    9000006    2    1    2  501    0  0.00000000000E+00  0.00000000000E+00  0.89681492057E+03  0.11031850794E+04  0.64244868878E+03 0.  0.
         13    1    3    3    0    0  0.27542555328E+03 -0.98934215625E+01  0.16506117844E+03  0.32125116002E+03  0.00000000000E+00 0. -1.
          2    1    3    3  501    0 -0.27542555328E+03  0.98934215625E+01  0.73175374213E+03  0.78193391941E+03  0.00000000000E+00 0. -1.
<mgrwt>
<rscale>  0 0.64244869E+03</rscale>
<asrwt>0</asrwt>
<pdfrwt beam="1">0</pdfrwt>
<pdfrwt beam="2">  1        2 0.37521926E+00 0.64244869E+03</pdfrwt>
<totfact> 0.49254872E+00</totfact>
</mgrwt>
</event>
<event>
 5    1  0.2357694E-004  0.6183834E+03  0.7818608E-02  0.9867984E-01
         13   -1    0    0    0    0  0.00000000000E+00  0.00000000000E+00  0.10000000000E+04  0.10000000000E+04  0.00000000000E+00 0. -1.
          2   -1    0    0  501    0 -0.00000000000E+00 -0.00000000000E+00 -0.95599494451E+02  0.95599494451E+02  0.00000000000E+00 0. -1.
    9000006    2    1    2  501    0  0.00000000000E+00  0.00000000000E+00  0.90440050555E+03  0.10955994945E+04  0.61838335829E+03 0.  0.
         13    1    3    3    0    0  0.24988928448E+03 -0.12504675091E+03  0.21770278868E+03  0.35422570292E+03  0.00000000000E+00 0. -1.
          4    1    3    3  501    0 -0.24988928448E+03  0.12504675091E+03  0.68669771687E+03  0.74137379153E+03  0.00000000000E+00 0. -1.
<mgrwt>
<rscale>  0 0.61838336E+03</rscale>
<asrwt>0</asrwt>
<pdfrwt beam="1">0</pdfrwt>
<pdfrwt beam="2">  1        2 0.34763526E+00 0.61838336E+03</pdfrwt>
<totfact> 0.62187079E+00</totfact>
</mgrwt>
</event>
<event>
 5    1  0.2357694E-004  0.6451515E+03  0.7818608E-02  0.9815920E-01
         13   -1    0    0    0    0  0.00000000000E+00  0.00000000000E+00  0.10000000000E+04  0.10000000000E+04  0.00000000000E+00 0. -1.
          2   -1    0    0  501    0 -0.00000000000E+00 -0.00000000000E+00 -0.10405510830E+03  0.10405510830E+03  0.00000000000E+00 0. -1.
    9000006    2    1    2  501    0  0.00000000000E+00  0.00000000000E+00  0.89594489170E+03  0.11040551083E+04  0.64515148082E+03 0.  0.
         13    1    3    3    0    0  0.10304550923E+03  0.18321499880E+03  0.29246339288E+02  0.21222973665E+03  0.00000000000E+00 0. -1.
          4    1    3    3  501    0 -0.10304550923E+03 -0.18321499880E+03  0.86669855241E+03  0.89182537165E+03  0.00000000000E+00 0. -1.
<mgrwt>
<rscale>  0 0.64515148E+03</rscale>
<asrwt>0</asrwt>
<pdfrwt beam="1">0</pdfrwt>
<pdfrwt beam="2">  1        2 0.37838301E+00 0.64515148E+03</pdfrwt>
<totfact> 0.47941768E+00</totfact>
</mgrwt>
</event>
<event>
 5    1  0.2357694E-004  0.6456328E+03  0.7818608E-02  0.9815009E-01
         13   -1    0    0    0    0  0.00000000000E+00  0.00000000000E+00  0.10000000000E+04  0.10000000000E+04  0.00000000000E+00 0. -1.
          2   -1    0    0  501    0 -0.00000000000E+00 -0.00000000000E+00 -0.10421042601E+03  0.10421042601E+03  0.00000000000E+00 0. -1.
    9000006    2    1    2  501    0  0.00000000000E+00  0.00000000000E+00  0.89578957399E+03  0.11042104260E+04  0.64563279349E+03 0.  0.
         13    1    3    3    0    0  0.36870802211E+02  0.11600396272E+03 -0.63457932876E+02  0.13727084420E+03  0.00000000000E+00 0. -1.
          4    1    3    3  501    0 -0.36870802211E+02 -0.11600396272E+03  0.95924750687E+03  0.96693958180E+03  0.00000000000E+00 0. -1.
<mgrwt>
<rscale>  0 0.64563279E+03</rscale>
<asrwt>0</asrwt>
<pdfrwt beam="1">0</pdfrwt>
<pdfrwt beam="2">  1        2 0.37894780E+00 0.64563279E+03</pdfrwt>
<totfact> 0.47710740E+00</totfact>
</mgrwt>
</event>
<event>
 5    1  0.2357694E-004  0.6415814E+03  0.7818608E-02  0.9822706E-01
         13   -1    0    0    0    0  0.00000000000E+00  0.00000000000E+00  0.10000000000E+04  0.10000000000E+04  0.00000000000E+00 0. -1.
          2   -1    0    0  501    0 -0.00000000000E+00 -0.00000000000E+00 -0.10290667460E+03  0.10290667460E+03  0.00000000000E+00 0. -1.
    9000006    2    1    2  501    0  0.00000000000E+00  0.00000000000E+00  0.89709332540E+03  0.11029066746E+04  0.64158140435E+03 0.  0.
         13    1    3    3    0    0  0.15678390958E+03 -0.26199539035E+03  0.27938106422E+03  0.41385572113E+03  0.00000000000E+00 0. -1.
          2    1    3    3  501    0 -0.15678390958E+03  0.26199539035E+03  0.61771226118E+03  0.68905095347E+03  0.00000000000E+00 0. -1.
<mgrwt>
<rscale>  0 0.64158140E+03</rscale>
<asrwt>0</asrwt>
<pdfrwt beam="1">0</pdfrwt>
<pdfrwt beam="2">  1        2 0.37420688E+00 0.64158140E+03</pdfrwt>
<totfact> 0.49681976E+00</totfact>
</mgrwt>
</event>
<event>
 5    1  0.2357694E-004  0.6436168E+03  0.7818608E-02  0.9818831E-01
         13   -1    0    0    0    0  0.00000000000E+00  0.00000000000E+00  0.10000000000E+04  0.10000000000E+04  0.00000000000E+00 0. -1.
          2   -1    0    0  501    0 -0.00000000000E+00 -0.00000000000E+00 -0.10356066184E+03  0.10356066184E+03  0.00000000000E+00 0. -1.
    9000006    2    1    2  501    0  0.00000000000E+00  0.00000000000E+00  0.89643933816E+03  0.11035606618E+04  0.64361684827E+03 0.  0.
         13    1    3    3    0    0  0.24159522579E+03  0.14217042644E+03  0.71921689009E+03  0.77191555125E+03  0.00000000000E+00 0. -1.
          2    1    3    3  501    0 -0.24159522579E+03 -0.14217042644E+03  0.17722244807E+03  0.33164511059E+03  0.00000000000E+00 0. -1.
<mgrwt>
<rscale>  0 0.64361685E+03</rscale>
<asrwt>0</asrwt>
<pdfrwt beam="1">0</pdfrwt>
<pdfrwt beam="2">  1        2 0.37658502E+00 0.64361685E+03</pdfrwt>
<totfact> 0.48684040E+00</totfact>
</mgrwt>
</event>
<event>
 5    1  0.2357694E-004  0.6333028E+03  0.7818608E-02  0.9838625E-01
         13   -1    0    0    0    0  0.00000000000E+00  0.00000000000E+00  0.10000000000E+04  0.10000000000E+04  0.00000000000E+00 0. -1.
          2   -1    0    0  501    0 -0.00000000000E+00 -0.00000000000E+00 -0.10026812477E+03  0.10026812477E+03  0.00000000000E+00 0. -1.
    9000006    2    1    2  501    0  0.00000000000E+00  0.00000000000E+00  0.89973187523E+03  0.11002681248E+04  0.63330284942E+03 0.  0.
         13    1    3    3    0    0 -0.54214797121E+02 -0.50333815354E+02 -0.85044032429E+02  0.11271745493E+03  0.00000000000E+00 0. -1.
          2    1    3    3  501    0  0.54214797121E+02  0.50333815354E+02  0.98477590766E+03  0.98755066984E+03  0.00000000000E+00 0. -1.
<mgrwt>
<rscale>  0 0.63330285E+03</rscale>
<asrwt>0</asrwt>
<pdfrwt beam="1">0</pdfrwt>
<pdfrwt beam="2">  1        2 0.36461213E+00 0.63330285E+03</pdfrwt>
<totfact> 0.53901530E+00</totfact>
</mgrwt>
</event>
<event>
 5    1  0.2357694E-004  0.6569750E+03  0.7818608E-02  0.9793778E-01
         13   -1    0    0    0    0  0.00000000000E+00  0.00000000000E+00  0.10000000000E+04  0.10000000000E+04  0.00000000000E+00 0. -1.
          2   -1    0    0  501    0 -0.00000000000E+00 -0.00000000000E+00 -0.10790404927E+03  0.10790404927E+03  0.00000000000E+00 0. -1.
    9000006    2    1    2  501    0  0.00000000000E+00  0.00000000000E+00  0.89209595073E+03  0.11079040493E+04  0.65697503535E+03 0.  0.
         13    1    3    3    0    0  0.29298988834E+03  0.14596266283E+03  0.49241171549E+03  0.59128459405E+03  0.00000000000E+00 0. -1.
          4    1    3    3  501    0 -0.29298988834E+03 -0.14596266283E+03  0.39968423525E+03  0.51661945522E+03  0.00000000000E+00 0. -1.
<mgrwt>
<rscale>  0 0.65697504E+03</rscale>
<asrwt>0</asrwt>
<pdfrwt beam="1">0</pdfrwt>
<pdfrwt beam="2">  1        2 0.39237919E+00 0.65697504E+03</pdfrwt>
<totfact> 0.42505893E+00</totfact>
</mgrwt>
</event>
<event>
 5    1  0.2357694E-004  0.6284992E+03  0.7818608E-02  0.9847982E-01
         13   -1    0    0    0    0  0.00000000000E+00  0.00000000000E+00  0.10000000000E+04  0.10000000000E+04  0.00000000000E+00 0. -1.
          2   -1    0    0  501    0 -0.00000000000E+00 -0.00000000000E+00 -0.98752818951E+02  0.98752818951E+02  0.00000000000E+00 0. -1.
    9000006    2    1    2  501    0  0.00000000000E+00  0.00000000000E+00  0.90124718105E+03  0.10987528190E+04  0.62849922498E+03 0.  0.
         13    1    3    3    0    0 -0.21687738561E+03  0.16291673217E+03  0.17323962722E+03  0.32185343007E+03  0.00000000000E+00 0. -1.
          4    1    3    3  501    0  0.21687738561E+03 -0.16291673217E+03  0.72800755383E+03  0.77689938888E+03  0.00000000000E+00 0. -1.
<mgrwt>
<rscale>  0 0.62849922E+03</rscale>
<asrwt>0</asrwt>
<pdfrwt beam="1">0</pdfrwt>
<pdfrwt beam="2">  1        2 0.35910192E+00 0.62849922E+03</pdfrwt>
<totfact> 0.56471298E+00</totfact>
</mgrwt>
</event>
<event>
 5    1  0.2357694E-004  0.6505460E+03  0.7818608E-02  0.9805755E-01
         13   -1    0    0    0    0  0.00000000000E+00  0.00000000000E+00  0.10000000000E+04  0.10000000000E+04  0.00000000000E+00 0. -1.
          2   -1    0    0  501    0 -0.00000000000E+00 -0.00000000000E+00 -0.10580251187E+03  0.10580251187E+03  0.00000000000E+00 0. -1.
    9000006    2    1    2  501    0  0.00000000000E+00  0.00000000000E+00  0.89419748813E+03  0.11058025119E+04  0.65054596108E+03 0.  0.
         13    1    3    3    0    0  0.31218656921E+03  0.62427230658E+02  0.56042499547E+03  0.64454153370E+03  0.00000000000E+00 0. -1.
          4    1    3    3  501    0 -0.31218656921E+03 -0.62427230658E+02  0.33377249266E+03  0.46126097817E+03  0.00000000000E+00 0. -1.
<mgrwt>
<rscale>  0 0.65054596E+03</rscale>
<asrwt>0</asrwt>
<pdfrwt beam="1">0</pdfrwt>
<pdfrwt beam="2">  1        2 0.38473722E+00 0.65054596E+03</pdfrwt>
<totfact> 0.45400299E+00</totfact>
</mgrwt>
</event>
<event>
 5    1  0.2357694E-004  0.6890346E+03  0.7818608E-02  0.9736170E-01
         13   -1    0    0    0    0  0.00000000000E+00  0.00000000000E+00  0.10000000000E+04  0.10000000000E+04  0.00000000000E+00 0. -1.
          2   -1    0    0  501    0 -0.00000000000E+00 -0.00000000000E+00 -0.11869215446E+03  0.11869215446E+03  0.00000000000E+00 0. -1.
    9000006    2    1    2  501    0  0.00000000000E+00  0.00000000000E+00  0.88130784554E+03  0.11186921545E+04  0.68903455490E+03 0.  0.
         13    1    3    3    0    0  0.92506438798E+02  0.30722991647E+03  0.64437403738E+03  0.71983717801E+03  0.00000000000E+00 0. -1.
          4    1    3    3  501    0 -0.92506438798E+02 -0.30722991647E+03  0.23693380816E+03  0.39885497645E+03  0.00000000000E+00 0. -1.
<mgrwt>
<rscale>  0 0.68903455E+03</rscale>
<asrwt>0</asrwt>
<pdfrwt beam="1">0</pdfrwt>
<pdfrwt beam="2">  1        2 0.43160874E+00 0.68903455E+03</pdfrwt>
<totfact> 0.30091833E+00</totfact>
</mgrwt>
</event>
<event>
 5    1  0.2357694E-004  0.6466872E+03  0.7818608E-02  0.9813015E-01
         13   -1    0    0    0    0  0.00000000000E+00  0.00000000000E+00  0.10000000000E+04  0.10000000000E+04  0.00000000000E+00 0. -1.
          2   -1    0    0  501    0 -0.00000000000E+00 -0.00000000000E+00 -0.10455109922E+03  0.10455109922E+03  0.00000000000E+00 0. -1.
    9000006    2    1    2  501    0  0.00000000000E+00  0.00000000000E+00  0.89544890078E+03  0.11045510992E+04  0.64668724811E+03 0.  0.
         13    1    3    3    0    0  0.26872666427E+03 -0.16049666985E+03  0.58625165977E+03  0.66457821940E+03  0.00000000000E+00 0. -1.
          4    1    3    3  501    0 -0.26872666427E+03  0.16049666985E+03  0.30919724102E+03  0.43997287982E+03  0.00000000000E+00 0. -1.
<mgrwt>
<rscale>  0 0.64668725E+03</rscale>
<asrwt>0</asrwt>
<pdfrwt beam="1">0</pdfrwt>
<pdfrwt beam="2">  1        2 0.38018662E+00 0.64668725E+03</pdfrwt>
<totfact> 0.47207552E+00</totfact>
</mgrwt>
</event>
<event>
 5    1  0.2357694E-004  0.6237436E+03  0.7818608E-02  0.9857334E-01
         13   -1    0    0    0    0  0.00000000000E+00  0.00000000000E+00  0.10000000000E+04  0.10000000000E+04  0.00000000000E+00 0. -1.
          2   -1    0    0  501    0 -0.00000000000E+00 -0.00000000000E+00 -0.97264009140E+02  0.97264009140E+02  0.00000000000E+00 0. -1.
    9000006    2    1    2  501    0  0.00000000000E+00  0.00000000000E+00  0.90273599086E+03  0.10972640091E+04  0.62374356635E+03 0.  0.
         13    1    3    3    0    0  0.21582938968E+03 -0.44875762013E+02  0.83945234955E+03  0.86791497661E+03  0.00000000000E+00 0. -1.
          4    1    3    3  501    0 -0.21582938968E+03  0.44875762013E+02  0.63283641311E+02  0.22934903253E+03  0.00000000000E+00 0. -1.
<mgrwt>
<rscale>  0 0.62374357E+03</rscale>
<asrwt>0</asrwt>
<pdfrwt beam="1">0</pdfrwt>
<pdfrwt beam="2">  1        2 0.35368805E+00 0.62374357E+03</pdfrwt>
<totfact> 0.59106185E+00</totfact>
</mgrwt>
</event>
<event>
 5    1  0.2357694E-004  0.5153931E+03  0.7818608E-02  0.1009837E+00
         13   -1    0    0    0    0  0.00000000000E+00  0.00000000000E+00  0.10000000000E+04  0.10000000000E+04  0.00000000000E+00 0. -1.
          2   -1    0    0  501    0 -0.00000000000E+00 -0.00000000000E+00 -0.66407513975E+02  0.66407513975E+02  0.00000000000E+00 0. -1.
    9000006    2    1    2  501    0  0.00000000000E+00  0.00000000000E+00  0.93359248603E+03  0.10664075140E+04  0.51539310812E+03 0.  0.
         13    1    3    3    0    0 -0.13924699896E+03 -0.21666126364E+03  0.44879564647E+03  0.51744503300E+03  0.00000000000E+00 0. -1.
          2    1    3    3  501    0  0.13924699896E+03  0.21666126364E+03  0.48479683955E+03  0.54896248098E+03  0.00000000000E+00 0. -1.
<mgrwt>
<rscale>  0 0.51539311E+03</rscale>
<asrwt>0</asrwt>
<pdfrwt beam="1">0</pdfrwt>
<pdfrwt beam="2">  1        2 0.24148238E+00 0.51539311E+03</pdfrwt>
<totfact> 0.14960305E+01</totfact>
</mgrwt>
</event>
<event>
 5    1  0.2357694E-004  0.6490774E+03  0.7818608E-02  0.9808512E-01
         13   -1    0    0    0    0  0.00000000000E+00  0.00000000000E+00  0.10000000000E+04  0.10000000000E+04  0.00000000000E+00 0. -1.
          2   -1    0    0  501    0 -0.00000000000E+00 -0.00000000000E+00 -0.10532536486E+03  0.10532536486E+03  0.00000000000E+00 0. -1.
    9000006    2    1    2  501    0  0.00000000000E+00  0.00000000000E+00  0.89467463514E+03  0.11053253649E+04  0.64907739094E+03 0.  0.
         13    1    3    3    0    0 -0.11391435726E+03 -0.15958368928E+03  0.88773807129E+03  0.90913272842E+03  0.00000000000E+00 0. -1.
          2    1    3    3  501    0  0.11391435726E+03  0.15958368928E+03  0.69365638589E+01  0.19619263644E+03  0.00000000000E+00 0. -1.
<mgrwt>
<rscale>  0 0.64907739E+03</rscale>
<asrwt>0</asrwt>
<pdfrwt beam="1">0</pdfrwt>
<pdfrwt beam="2">  1        2 0.38300213E+00 0.64907739E+03</pdfrwt>
<totfact> 0.46081832E+00</totfact>
</mgrwt>
</event>
<event>
 5    1  0.2357694E-004  0.6672265E+03  0.7818608E-02  0.9774981E-01
         13   -1    0    0    0    0  0.00000000000E+00  0.00000000000E+00  0.10000000000E+04  0.10000000000E+04  0.00000000000E+00 0. -1.
          2   -1    0    0  501    0 -0.00000000000E+00 -0.00000000000E+00 -0.11129779422E+03  0.11129779422E+03  0.00000000000E+00 0. -1.
    9000006    2    1    2  501    0  0.00000000000E+00  0.00000000000E+00  0.88870220578E+03  0.11112977942E+04  0.66722648094E+03 0.  0.
         13    1    3    3    0    0 -0.41263147929E+01 -0.25556645466E+03  0.87260718151E+02  0.27008456481E+03  0.00000000000E+00 0. -1.
          4    1    3    3  501    0  0.41263147929E+01  0.25556645466E+03  0.80144148763E+03  0.84121322940E+03  0.00000000000E+00 0. -1.
<mgrwt>
<rscale>  0 0.66722648E+03</rscale>
<asrwt>0</asrwt>
<pdfrwt beam="1">0</pdfrwt>
<pdfrwt beam="2">  1        2 0.40472011E+00 0.66722648E+03</pdfrwt>
<totfact> 0.38181754E+00</totfact>
</mgrwt>
</event>
<event>
 5    1  0.2357694E-004  0.6374715E+03  0.7818608E-02  0.9830576E-01
         13   -1    0    0    0    0  0.00000000000E+00  0.00000000000E+00  0.10000000000E+04  0.10000000000E+04  0.00000000000E+00 0. -1.
          2   -1    0    0  501    0 -0.00000000000E+00 -0.00000000000E+00 -0.10159246467E+03  0.10159246467E+03  0.00000000000E+00 0. -1.
    9000006    2    1    2  501    0  0.00000000000E+00  0.00000000000E+00  0.89840753533E+03  0.11015924647E+04  0.63747145715E+03 0.  0.
         13    1    3    3    0    0 -0.62486184466E+02 -0.26443871438E+03  0.16128446197E+03  0.31598264918E+03  0.00000000000E+00 0. -1.
          4    1    3    3  501    0  0.62486184466E+02  0.26443871438E+03  0.73712307336E+03  0.78560981549E+03  0.00000000000E+00 0. -1.
<mgrwt>
<rscale>  0 0.63747146E+03</rscale>
<asrwt>0</asrwt>
<pdfrwt beam="1">0</pdfrwt>
<pdfrwt beam="2">  1        2 0.36942792E+00 0.63747146E+03</pdfrwt>
<totfact> 0.51744234E+00</totfact>
</mgrwt>
</event>
<event>
 5    1  0.2357694E-004  0.6539460E+03  0.7818608E-02  0.9799403E-01
         13   -1    0    0    0    0  0.00000000000E+00  0.00000000000E+00  0.10000000000E+04  0.10000000000E+04  0.00000000000E+00 0. -1.
          2   -1    0    0  501    0 -0.00000000000E+00 -0.00000000000E+00 -0.10691135894E+03  0.10691135894E+03  0.00000000000E+00 0. -1.
    9000006    2    1    2  501    0  0.00000000000E+00  0.00000000000E+00  0.89308864106E+03  0.11069113589E+04  0.65394604959E+03 0.  0.
         13    1    3    3    0    0 -0.14198723383E+03  0.18520634228E+03  0.83419628904E+03  0.86622468935E+03  0.00000000000E+00 0. -1.
          2    1    3    3  501    0  0.14198723383E+03 -0.18520634228E+03  0.58892352014E+02  0.24068666959E+03  0.00000000000E+00 0. -1.
<mgrwt>
<rscale>  0 0.65394605E+03</rscale>
<asrwt>0</asrwt>
<pdfrwt beam="1">0</pdfrwt>
<pdfrwt beam="2">  1        2 0.38876940E+00 0.65394605E+03</pdfrwt>
<totfact> 0.43851625E+00</totfact>
</mgrwt>
</event>
<event>
 5    1  0.2357694E-004  0.6492137E+03  0.7818608E-02  0.9808256E-01
         13   -1    0    0    0    0  0.00000000000E+00  0.00000000000E+00  0.10000000000E+04  0.10000000000E+04  0.00000000000E+00 0. -1.
          2   -1    0    0  501    0 -0.00000000000E+00 -0.00000000000E+00 -0.10536961551E+03  0.10536961551E+03  0.00000000000E+00 0. -1.
    9000006    2    1    2  501    0  0.00000000000E+00  0.00000000000E+00  0.89463038449E+03  0.11053696155E+04  0.64921372602E+03 0.  0.
         13    1    3    3    0    0 -0.25102132345E+03 -0.19895175830E+03  0.35760577169E+03  0.48007852993E+03  0.00000000000E+00 0. -1.
          4    1    3    3  501    0  0.25102132345E+03  0.19895175830E+03  0.53702461280E+03  0.62529108558E+03  0.00000000000E+00 0. -1.
<mgrwt>
<rscale>  0 0.64921373E+03</rscale>
<asrwt>0</asrwt>
<pdfrwt beam="1">0</pdfrwt>
<pdfrwt beam="2">  1        2 0.38316305E+00 0.64921373E+03</pdfrwt>
<totfact> 0.46018239E+00</totfact>
</mgrwt>
</event>
<event>
 5    1  0.2357694E-004  0.6424100E+03  0.7818608E-02  0.9821126E-01
         13   -1    0    0    0    0  0.00000000000E+00  0.00000000000E+00  0.10000000000E+04  0.10000000000E+04  0.00000000000E+00 0. -1.
          2   -1    0    0  501    0 -0.00000000000E+00 -0.00000000000E+00 -0.10317265360E+03  0.10317265360E+03  0.00000000000E+00 0. -1.
    9000006    2    1    2  501    0  0.00000000000E+00  0.00000000000E+00  0.89682734640E+03  0.11031726536E+04  0.64241000490E+03 0.  0.
         13    1    3    3    0    0 -0.71923150981E+02 -0.26870194077E+03  0.17258940934E+03  0.32735420699E+03  0.00000000000E+00 0. -1.
          4    1    3    3  501    0  0.71923150981E+02  0.26870194077E+03  0.72423793706E+03  0.77581844661E+03  0.00000000000E+00 0. -1.
<mgrwt>
<rscale>  0 0.64241000E+03</rscale>
<asrwt>0</asrwt>
<pdfrwt beam="1">0</pdfrwt>
<pdfrwt beam="2">  1        2 0.37517408E+00 0.64241000E+03</pdfrwt>
<totfact> 0.49273863E+00</totfact>
</mgrwt>
</event>
<event>
 5    1  0.2357694E-004  0.6528753E+03  0.7818608E-02  0.9801399E-01
         13   -1    0    0    0    0  0.00000000000E+00  0.00000000000E+00  0.10000000000E+04  0.10000000000E+04  0.00000000000E+00 0. -1.
          2   -1    0    0  501    0 -0.00000000000E+00 -0.00000000000E+00 -0.10656154330E+03  0.10656154330E+03  0.00000000000E+00 0. -1.
    9000006    2    1    2  501    0  0.00000000000E+00  0.00000000000E+00  0.89343845670E+03  0.11065615433E+04  0.65287531215E+03 0.  0.
         13    1    3    3    0    0  0.15167617967E+03 -0.25773225661E+03  0.66855089805E+03  0.73238779541E+03  0.00000000000E+00 0. -1.
          2    1    3    3  501    0 -0.15167617967E+03  0.25773225661E+03  0.22488755865E+03  0.37417374789E+03  0.00000000000E+00 0. -1.
<mgrwt>
<rscale>  0 0.65287531E+03</rscale>
<asrwt>0</asrwt>
<pdfrwt beam="1">0</pdfrwt>
<pdfrwt beam="2">  1        2 0.38749734E+00 0.65287531E+03</pdfrwt>
<totfact> 0.44334950E+00</totfact>
</mgrwt>
</event>
<event>
 5    1  0.2357694E-004  0.6515673E+03  0.7818608E-02  0.9803843E-01
         13   -1    0    0    0    0  0.00000000000E+00  0.00000000000E+00  0.10000000000E+04  0.10000000000E+04  0.00000000000E+00 0. -1.
          2   -1    0    0  501    0 -0.00000000000E+00 -0.00000000000E+00 -0.10613500249E+03  0.10613500249E+03  0.00000000000E+00 0. -1.
    9000006    2    1    2  501    0  0.00000000000E+00  0.00000000000E+00  0.89386499751E+03  0.11061350025E+04  0.65156734874E+03 0.  0.
         13    1    3    3    0    0 -0.19784817502E+03  0.21366692759E+03  0.69491501335E+03  0.75346156643E+03  0.00000000000E+00 0. -1.
          2    1    3    3  501    0  0.19784817502E+03 -0.21366692759E+03  0.19894998416E+03  0.35267343606E+03  0.00000000000E+00 0. -1.
<mgrwt>
<rscale>  0 0.65156735E+03</rscale>
<asrwt>0</asrwt>
<pdfrwt beam="1">0</pdfrwt>
<pdfrwt beam="2">  1        2 0.38594628E+00 0.65156735E+03</pdfrwt>
<totfact> 0.44930805E+00</totfact>
</mgrwt>
</event>
<event>
 5    1  0.2357694E-004  0.6477097E+03  0.7818608E-02  0.9811086E-01
         13   -1    0    0    0    0  0.00000000000E+00  0.00000000000E+00  0.10000000000E+04  0.10000000000E+04  0.00000000000E+00 0. -1.
          2   -1    0    0  501    0 -0.00000000000E+00 -0.00000000000E+00 -0.10488197955E+03  0.10488197955E+03  0.00000000000E+00 0. -1.
    9000006    2    1    2  501    0  0.00000000000E+00  0.00000000000E+00  0.89511802045E+03  0.11048819796E+04  0.64770974843E+03 0.  0.
         13    1    3    3    0    0  0.21306138542E+02 -0.71346915679E+02  0.98520002016E+03  0.98800982466E+03  0.00000000000E+00 0. -1.
          4    1    3    3  501    0 -0.21306138542E+02  0.71346915679E+02 -0.90081999710E+02  0.11687215489E+03  0.00000000000E+00 0. -1.
<mgrwt>
<rscale>  0 0.64770975E+03</rscale>
<asrwt>0</asrwt>
<pdfrwt beam="1">0</pdfrwt>
<pdfrwt beam="2">  1        2 0.38138982E+00 0.64770975E+03</pdfrwt>
<totfact> 0.46723455E+00</totfact>
</mgrwt>
</event>
<event>
 5    1  0.2357694E-004  0.5661332E+03  0.7818608E-02  0.9978272E-01
         13   -1    0    0    0    0  0.00000000000E+00  0.00000000000E+00  0.10000000000E+04  0.10000000000E+04  0.00000000000E+00 0. -1.
          2   -1    0    0  501    0 -0.00000000000E+00 -0.00000000000E+00 -0.80126706727E+02  0.80126706727E+02  0.00000000000E+00 0. -1.
    9000006    2    1    2  501    0  0.00000000000E+00  0.00000000000E+00  0.91987329327E+03  0.10801267067E+04  0.56613322364E+03 0.  0.
         13    1    3    3    0    0 -0.12424394592E+03 -0.11651148745E+03  0.89128802230E+03  0.90741711660E+03  0.00000000000E+00 0. -1.
          4    1    3    3  501    0  0.12424394592E+03  0.11651148745E+03  0.28585270976E+02  0.17270959013E+03  0.00000000000E+00 0. -1.
<mgrwt>
<rscale>  0 0.56613322E+03</rscale>
<asrwt>0</asrwt>
<pdfrwt beam="1">0</pdfrwt>
<pdfrwt beam="2">  1        2 0.29137046E+00 0.56613322E+03</pdfrwt>
<totfact> 0.99126153E+00</totfact>
</mgrwt>
</event>
<event>
 5    1  0.2357694E-004  0.5983878E+03  0.7818608E-02  0.9908757E-01
         13   -1    0    0    0    0  0.00000000000E+00  0.00000000000E+00  0.10000000000E+04  0.10000000000E+04  0.00000000000E+00 0. -1.
          2   -1    0    0  501    0 -0.00000000000E+00 -0.00000000000E+00 -0.89516985277E+02  0.89516985277E+02  0.00000000000E+00 0. -1.
    9000006    2    1    2  501    0  0.00000000000E+00  0.00000000000E+00  0.91048301472E+03  0.10895169853E+04  0.59838778489E+03 0.  0.
         13    1    3    3    0    0 -0.19204831430E+03 -0.21377566418E+03  0.30362182083E+03  0.41805358473E+03  0.00000000000E+00 0. -1.
          4    1    3    3  501    0  0.19204831430E+03  0.21377566418E+03  0.60686119390E+03  0.67146340055E+03  0.00000000000E+00 0. -1.
<mgrwt>
<rscale>  0 0.59838778E+03</rscale>
<asrwt>0</asrwt>
<pdfrwt beam="1">0</pdfrwt>
<pdfrwt beam="2">  1        2 0.32551700E+00 0.59838778E+03</pdfrwt>
<totfact> 0.74774668E+00</totfact>
</mgrwt>
</event>
<event>
 5    1  0.2357694E-004  0.4841000E+03  0.7818608E-02  0.1018014E+00
         13   -1    0    0    0    0  0.00000000000E+00  0.00000000000E+00  0.10000000000E+04  0.10000000000E+04  0.00000000000E+00 0. -1.
          2   -1    0    0  501    0 -0.00000000000E+00 -0.00000000000E+00 -0.58588193460E+02  0.58588193460E+02  0.00000000000E+00 0. -1.
    9000006    2    1    2  501    0  0.00000000000E+00  0.00000000000E+00  0.94141180654E+03  0.10585881935E+04  0.48409996265E+03 0.  0.
         13    1    3    3    0    0 -0.22196775697E+03  0.78451778497E+02  0.59370398701E+03  0.63867737621E+03  0.00000000000E+00 0. -1.
          2    1    3    3  501    0  0.22196775697E+03 -0.78451778497E+02  0.34770781953E+03  0.41991081725E+03  0.00000000000E+00 0. -1.
<mgrwt>
<rscale>  0 0.48409996E+03</rscale>
<asrwt>0</asrwt>
<pdfrwt beam="1">0</pdfrwt>
<pdfrwt beam="2">  1        2 0.21304843E+00 0.48409996E+03</pdfrwt>
<totfact> 0.18996319E+01</totfact>
</mgrwt>
</event>
<event>
 5    1  0.2357694E-004  0.6476261E+03  0.7818608E-02  0.9811244E-01
         13   -1    0    0    0    0  0.00000000000E+00  0.00000000000E+00  0.10000000000E+04  0.10000000000E+04  0.00000000000E+00 0. -1.
          2   -1    0    0  501    0 -0.00000000000E+00 -0.00000000000E+00 -0.10485490420E+03  0.10485490420E+03  0.00000000000E+00 0. -1.
    9000006    2    1    2  501    0  0.00000000000E+00  0.00000000000E+00  0.89514509580E+03  0.11048549042E+04  0.64762613969E+03 0.  0.
         13    1    3    3    0    0 -0.21143876010E+03 -0.88081972268E+02  0.83805864813E+03  0.86879634024E+03  0.00000000000E+00 0. -1.
          4    1    3    3  501    0  0.21143876010E+03  0.88081972268E+02  0.57086447665E+02  0.23605856396E+03  0.00000000000E+00 0. -1.
<mgrwt>
<rscale>  0 0.64762614E+03</rscale>
<asrwt>0</asrwt>
<pdfrwt beam="1">0</pdfrwt>
<pdfrwt beam="2">  1        2 0.38129136E+00 0.64762614E+03</pdfrwt>
<totfact> 0.46762898E+00</totfact>
</mgrwt>
</event>
<event>
 5    1  0.2357694E-004  0.6069088E+03  0.7818608E-02  0.9891175E-01
         13   -1    0    0    0    0  0.00000000000E+00  0.00000000000E+00  0.10000000000E+04  0.10000000000E+04  0.00000000000E+00 0. -1.
          2   -1    0    0  501    0 -0.00000000000E+00 -0.00000000000E+00 -0.92084568692E+02  0.92084568692E+02  0.00000000000E+00 0. -1.
    9000006    2    1    2  501    0  0.00000000000E+00  0.00000000000E+00  0.90791543131E+03  0.10920845687E+04  0.60690878620E+03 0.  0.
         13    1    3    3    0    0  0.15338480755E+03  0.25161559913E+03  0.58430414192E+03  0.65440708980E+03  0.00000000000E+00 0. -1.
          2    1    3    3  501    0 -0.15338480755E+03 -0.25161559913E+03  0.32361128939E+03  0.43767747890E+03  0.00000000000E+00 0. -1.
<mgrwt>
<rscale>  0 0.60690879E+03</rscale>
<asrwt>0</asrwt>
<pdfrwt beam="1">0</pdfrwt>
<pdfrwt beam="2">  1        2 0.33485368E+00 0.60690879E+03</pdfrwt>
<totfact> 0.69193078E+00</totfact>
</mgrwt>
</event>
<event>
 5    1  0.2357694E-004  0.6709216E+03  0.7818608E-02  0.9768294E-01
         13   -1    0    0    0    0  0.00000000000E+00  0.00000000000E+00  0.10000000000E+04  0.10000000000E+04  0.00000000000E+00 0. -1.
          2   -1    0    0  501    0 -0.00000000000E+00 -0.00000000000E+00 -0.11253396390E+03  0.11253396390E+03  0.00000000000E+00 0. -1.
    9000006    2    1    2  501    0  0.00000000000E+00  0.00000000000E+00  0.88746603610E+03  0.11125339639E+04  0.67092164641E+03 0.  0.
         13    1    3    3    0    0 -0.27305074264E+03 -0.60024052859E+01  0.76672902980E+03  0.81392023078E+03  0.00000000000E+00 0. -1.
          2    1    3    3  501    0  0.27305074264E+03  0.60024052859E+01  0.12073700629E+03  0.29861373313E+03  0.00000000000E+00 0. -1.
<mgrwt>
<rscale>  0 0.67092165E+03</rscale>
<asrwt>0</asrwt>
<pdfrwt beam="1">0</pdfrwt>
<pdfrwt beam="2">  1        2 0.40921528E+00 0.67092165E+03</pdfrwt>
<totfact> 0.36707547E+00</totfact>
</mgrwt>
</event>
<event>
 5    1  0.2357694E-004  0.6533637E+03  0.7818608E-02  0.9800488E-01
         13   -1    0    0    0    0  0.00000000000E+00  0.00000000000E+00  0.10000000000E+04  0.10000000000E+04  0.00000000000E+00 0. -1.
          2   -1    0    0  501    0 -0.00000000000E+00 -0.00000000000E+00 -0.10672102944E+03  0.10672102944E+03  0.00000000000E+00 0. -1.
    9000006    2    1    2  501    0  0.00000000000E+00  0.00000000000E+00  0.89327897056E+03  0.11067210294E+04  0.65336369485E+03 0.  0.
         13    1    3    3    0    0  0.34148279962E+02 -0.13268288301E+03  0.94898383593E+03  0.95882280601E+03  0.00000000000E+00 0. -1.
          2    1    3    3  501    0 -0.34148279962E+02  0.13268288301E+03 -0.55704865368E+02  0.14789822343E+03  0.00000000000E+00 0. -1.
<mgrwt>
<rscale>  0 0.65336369E+03</rscale>
<asrwt>0</asrwt>
<pdfrwt beam="1">0</pdfrwt>
<pdfrwt beam="2">  1        2 0.38807729E+00 0.65336369E+03</pdfrwt>
<totfact> 0.44114000E+00</totfact>
</mgrwt>
</event>
<event>
 5    1  0.2357694E-004  0.6531315E+03  0.7818608E-02  0.9800921E-01
         13   -1    0    0    0    0  0.00000000000E+00  0.00000000000E+00  0.10000000000E+04  0.10000000000E+04  0.00000000000E+00 0. -1.
          2   -1    0    0  501    0 -0.00000000000E+00 -0.00000000000E+00 -0.10664518852E+03  0.10664518852E+03  0.00000000000E+00 0. -1.
    9000006    2    1    2  501    0  0.00000000000E+00  0.00000000000E+00  0.89335481148E+03  0.11066451885E+04  0.65313149832E+03 0.  0.
         13    1    3    3    0    0  0.23260218119E+03 -0.18735163805E+03  0.67044165091E+03  0.73395941186E+03  0.00000000000E+00 0. -1.
          2    1    3    3  501    0 -0.23260218119E+03  0.18735163805E+03  0.22291316056E+03  0.37268577667E+03  0.00000000000E+00 0. -1.
<mgrwt>
<rscale>  0 0.65313150E+03</rscale>
<asrwt>0</asrwt>
<pdfrwt beam="1">0</pdfrwt>
<pdfrwt beam="2">  1        2 0.38780150E+00 0.65313150E+03</pdfrwt>
<totfact> 0.44218944E+00</totfact>
</mgrwt>
</event>
<event>
 5    1  0.2357694E-004  0.6604589E+03  0.7818608E-02  0.9787349E-01
         13   -1    0    0    0    0  0.00000000000E+00  0.00000000000E+00  0.10000000000E+04  0.10000000000E+04  0.00000000000E+00 0. -1.
          2   -1    0    0  501    0 -0.00000000000E+00 -0.00000000000E+00 -0.10905150546E+03  0.10905150546E+03  0.00000000000E+00 0. -1.
    9000006    2    1    2  501    0  0.00000000000E+00  0.00000000000E+00  0.89094849454E+03  0.11090515055E+04  0.66045894789E+03 0.  0.
         13    1    3    3    0    0 -0.16392595201E+03 -0.16674202316E+03  0.83704752972E+03  0.86909331319E+03  0.00000000000E+00 0. -1.
          2    1    3    3  501    0  0.16392595201E+03  0.16674202316E+03  0.53900964816E+02  0.23995819227E+03  0.00000000000E+00 0. -1.
<mgrwt>
<rscale>  0 0.66045895E+03</rscale>
<asrwt>0</asrwt>
<pdfrwt beam="1">0</pdfrwt>
<pdfrwt beam="2">  1        2 0.39655177E+00 0.66045895E+03</pdfrwt>
<totfact> 0.40996948E+00</totfact>
</mgrwt>
</event>
<event>
 5    1  0.2357694E-004  0.6477940E+03  0.7818608E-02  0.9810927E-01
         13   -1    0    0    0    0  0.00000000000E+00  0.00000000000E+00  0.10000000000E+04  0.10000000000E+04  0.00000000000E+00 0. -1.
          2   -1    0    0  501    0 -0.00000000000E+00 -0.00000000000E+00 -0.10490927606E+03  0.10490927606E+03  0.00000000000E+00 0. -1.
    9000006    2    1    2  501    0  0.00000000000E+00  0.00000000000E+00  0.89509072394E+03  0.11049092761E+04  0.64779402918E+03 0.  0.
         13    1    3    3    0    0 -0.29809662860E+03 -0.94241489965E+02  0.30315617333E+03  0.43548447026E+03  0.00000000000E+00 0. -1.
          2    1    3    3  501    0  0.29809662860E+03  0.94241489965E+02  0.59193455061E+03  0.66942480580E+03  0.00000000000E+00 0. -1.
<mgrwt>
<rscale>  0 0.64779403E+03</rscale>
<asrwt>0</asrwt>
<pdfrwt beam="1">0</pdfrwt>
<pdfrwt beam="2">  1        2 0.38148908E+00 0.64779403E+03</pdfrwt>
<totfact> 0.46683721E+00</totfact>
</mgrwt>
</event>
<event>
 5    1  0.2357694E-004  0.6566159E+03  0.7818608E-02  0.9794444E-01
         13   -1    0    0    0    0  0.00000000000E+00  0.00000000000E+00  0.10000000000E+04  0.10000000000E+04  0.00000000000E+00 0. -1.
          2   -1    0    0  501    0 -0.00000000000E+00 -0.00000000000E+00 -0.10778610184E+03  0.10778610184E+03  0.00000000000E+00 0. -1.
    9000006    2    1    2  501    0  0.00000000000E+00  0.00000000000E+00  0.89221389816E+03  0.11077861018E+04  0.65661587505E+03 0.  0.
         13    1    3    3    0    0  0.29444754034E+03  0.79986434325E+02  0.65058158297E+03  0.71857746958E+03  0.00000000000E+00 0. -1.
          2    1    3    3  501    0 -0.29444754034E+03 -0.79986434325E+02  0.24163231519E+03  0.38920863226E+03  0.00000000000E+00 0. -1.
<mgrwt>
<rscale>  0 0.65661588E+03</rscale>
<asrwt>0</asrwt>
<pdfrwt beam="1">0</pdfrwt>
<pdfrwt beam="2">  1        2 0.39195029E+00 0.65661588E+03</pdfrwt>
<totfact> 0.42663811E+00</totfact>
</mgrwt>
</event>
<event>
 5    1  0.2357694E-004  0.6382710E+03  0.7818608E-02  0.9829040E-01
         13   -1    0    0    0    0  0.00000000000E+00  0.00000000000E+00  0.10000000000E+04  0.10000000000E+04  0.00000000000E+00 0. -1.
          2   -1    0    0  501    0 -0.00000000000E+00 -0.00000000000E+00 -0.10184746285E+03  0.10184746285E+03  0.00000000000E+00 0. -1.
    9000006    2    1    2  501    0  0.00000000000E+00  0.00000000000E+00  0.89815253715E+03  0.11018474628E+04  0.63827098587E+03 0.  0.
         13    1    3    3    0    0  0.69986341639E+02  0.29026301186E+03  0.25455691962E+03  0.39236453637E+03  0.00000000000E+00 0. -1.
          2    1    3    3  501    0 -0.69986341639E+02 -0.29026301186E+03  0.64359561753E+03  0.70948292648E+03  0.00000000000E+00 0. -1.
<mgrwt>
<rscale>  0 0.63827099E+03</rscale>
<asrwt>0</asrwt>
<pdfrwt beam="1">0</pdfrwt>
<pdfrwt beam="2">  1        2 0.37035519E+00 0.63827099E+03</pdfrwt>
<totfact> 0.51338064E+00</totfact>
</mgrwt>
</event>
<event>
 5    1  0.2357694E-004  0.6595081E+03  0.7818608E-02  0.9789100E-01
         13   -1    0    0    0    0  0.00000000000E+00  0.00000000000E+00  0.10000000000E+04  0.10000000000E+04  0.00000000000E+00 0. -1.
          2   -1    0    0  501    0 -0.00000000000E+00 -0.00000000000E+00 -0.10873774566E+03  0.10873774566E+03  0.00000000000E+00 0. -1.
    9000006    2    1    2  501    0  0.00000000000E+00  0.00000000000E+00  0.89126225434E+03  0.11087377457E+04  0.65950813689E+03 0.  0.
         13    1    3    3    0    0 -0.10141960978E+03  0.19689937908E+02  0.97208912863E+03  0.97756376002E+03  0.00000000000E+00 0. -1.
          4    1    3    3  501    0  0.10141960978E+03 -0.19689937908E+02 -0.80826874283E+02  0.13117398564E+03  0.00000000000E+00 0. -1.
<mgrwt>
<rscale>  0 0.65950814E+03</rscale>
<asrwt>0</asrwt>
<pdfrwt beam="1">0</pdfrwt>
<pdfrwt beam="2">  1        2 0.39541082E+00 0.65950814E+03</pdfrwt>
<totfact> 0.41404670E+00</totfact>
</mgrwt>
</event>
<event>
 5    1  0.2357694E-004  0.6343303E+03  0.7818608E-02  0.9836635E-01
         13   -1    0    0    0    0  0.00000000000E+00  0.00000000000E+00  0.10000000000E+04  0.10000000000E+04  0.00000000000E+00 0. -1.
          2   -1    0    0  501    0 -0.00000000000E+00 -0.00000000000E+00 -0.10059373654E+03  0.10059373654E+03  0.00000000000E+00 0. -1.
    9000006    2    1    2  501    0  0.00000000000E+00  0.00000000000E+00  0.89940626346E+03  0.11005937365E+04  0.63433031313E+03 0.  0.
         13    1    3    3    0    0 -0.40277265371E+02  0.30929262446E+03  0.54951819875E+03  0.63186583735E+03  0.00000000000E+00 0. -1.
          2    1    3    3  501    0  0.40277265371E+02 -0.30929262446E+03  0.34988806472E+03  0.46872789919E+03  0.00000000000E+00 0. -1.
<mgrwt>
<rscale>  0 0.63433031E+03</rscale>
<asrwt>0</asrwt>
<pdfrwt beam="1">0</pdfrwt>
<pdfrwt beam="2">  1        2 0.36579618E+00 0.63433031E+03</pdfrwt>
<totfact> 0.53363593E+00</totfact>
</mgrwt>
</event>
<event>
 5    1  0.2357694E-004  0.6497675E+03  0.7818608E-02  0.9807216E-01
         13   -1    0    0    0    0  0.00000000000E+00  0.00000000000E+00  0.10000000000E+04  0.10000000000E+04  0.00000000000E+00 0. -1.
          2   -1    0    0  501    0 -0.00000000000E+00 -0.00000000000E+00 -0.10554945102E+03  0.10554945102E+03  0.00000000000E+00 0. -1.
    9000006    2    1    2  501    0  0.00000000000E+00  0.00000000000E+00  0.89445054898E+03  0.11055494510E+04  0.64976750002E+03 0.  0.
         13    1    3    3    0    0 -0.45434623144E+02  0.27224780481E+03  0.15565405912E+03  0.31687751313E+03  0.00000000000E+00 0. -1.
          4    1    3    3  501    0  0.45434623144E+02 -0.27224780481E+03  0.73879648985E+03  0.78867193790E+03  0.00000000000E+00 0. -1.
<mgrwt>
<rscale>  0 0.64976750E+03</rscale>
<asrwt>0</asrwt>
<pdfrwt beam="1">0</pdfrwt>
<pdfrwt beam="2">  1        2 0.38381699E+00 0.64976750E+03</pdfrwt>
<totfact> 0.45760611E+00</totfact>
</mgrwt>
</event>
<event>
 5    1  0.2357694E-004  0.6508348E+03  0.7818608E-02  0.9805214E-01
         13   -1    0    0    0    0  0.00000000000E+00  0.00000000000E+00  0.10000000000E+04  0.10000000000E+04  0.00000000000E+00 0. -1.
          2   -1    0    0  501    0 -0.00000000000E+00 -0.00000000000E+00 -0.10589648386E+03  0.10589648386E+03  0.00000000000E+00 0. -1.
    9000006    2    1    2  501    0  0.00000000000E+00  0.00000000000E+00  0.89410351614E+03  0.11058964839E+04  0.65083479889E+03 0.  0.
         13    1    3    3    0    0 -0.30365456748E+03 -0.90690079615E+02  0.57267398450E+03  0.65451224543E+03  0.00000000000E+00 0. -1.
          2    1    3    3  501    0  0.30365456748E+03  0.90690079615E+02  0.32142953164E+03  0.45138423843E+03  0.00000000000E+00 0. -1.
<mgrwt>
<rscale>  0 0.65083480E+03</rscale>
<asrwt>0</asrwt>
<pdfrwt beam="1">0</pdfrwt>
<pdfrwt beam="2">  1        2 0.38507894E+00 0.65083480E+03</pdfrwt>
<totfact> 0.45267157E+00</totfact>
</mgrwt>
</event>
<event>
 5    1  0.2357694E-004  0.6619013E+03  0.7818608E-02  0.9784700E-01
         13   -1    0    0    0    0  0.00000000000E+00  0.00000000000E+00  0.10000000000E+04  0.10000000000E+04  0.00000000000E+00 0. -1.
          2   -1    0    0  501    0 -0.00000000000E+00 -0.00000000000E+00 -0.10952832151E+03  0.10952832151E+03  0.00000000000E+00 0. -1.
    9000006    2    1    2  501    0  0.00000000000E+00  0.00000000000E+00  0.89047167849E+03  0.11095283215E+04  0.66190126609E+03 0.  0.
         13    1    3    3    0    0 -0.58982503505E+02  0.27101903512E+03  0.14258553564E+03  0.31186677940E+03  0.00000000000E+00 0. -1.
          2    1    3    3  501    0  0.58982503505E+02 -0.27101903512E+03  0.74788614284E+03  0.79766154212E+03  0.00000000000E+00 0. -1.
<mgrwt>
<rscale>  0 0.66190127E+03</rscale>
<asrwt>0</asrwt>
<pdfrwt beam="1">0</pdfrwt>
<pdfrwt beam="2">  1        2 0.39828565E+00 0.66190127E+03</pdfrwt>
<totfact> 0.40384255E+00</totfact>
</mgrwt>
</event>
<event>
 5    1  0.2357694E-004  0.6487469E+03  0.7818608E-02  0.9809133E-01
         13   -1    0    0    0    0  0.00000000000E+00  0.00000000000E+00  0.10000000000E+04  0.10000000000E+04  0.00000000000E+00 0. -1.
          2   -1    0    0  501    0 -0.00000000000E+00 -0.00000000000E+00 -0.10521813825E+03  0.10521813825E+03  0.00000000000E+00 0. -1.
    9000006    2    1    2  501    0  0.00000000000E+00  0.00000000000E+00  0.89478186175E+03  0.11052181382E+04  0.64874690981E+03 0.  0.
         13    1    3    3    0    0 -0.13338438622E+03 -0.15340428094E+03  0.16762896366E+02  0.20397368113E+03  0.00000000000E+00 0. -1.
          4    1    3    3  501    0  0.13338438622E+03  0.15340428094E+03  0.87801896539E+03  0.90124445711E+03  0.00000000000E+00 0. -1.
<mgrwt>
<rscale>  0 0.64874691E+03</rscale>
<asrwt>0</asrwt>
<pdfrwt beam="1">0</pdfrwt>
<pdfrwt beam="2">  1        2 0.38261222E+00 0.64874691E+03</pdfrwt>
<totfact> 0.46236262E+00</totfact>
</mgrwt>
</event>
<event>
 5    1  0.2357694E-004  0.6361594E+03  0.7818608E-02  0.9833102E-01
         13   -1    0    0    0    0  0.00000000000E+00  0.00000000000E+00  0.10000000000E+04  0.10000000000E+04  0.00000000000E+00 0. -1.
          2   -1    0    0  501    0 -0.00000000000E+00 -0.00000000000E+00 -0.10117470641E+03  0.10117470641E+03  0.00000000000E+00 0. -1.
    9000006    2    1    2  501    0  0.00000000000E+00  0.00000000000E+00  0.89882529359E+03  0.11011747064E+04  0.63615943414E+03 0.  0.
         13    1    3    3    0    0  0.55437481109E+02 -0.25710778785E+03  0.13978143438E+03  0.29785328315E+03  0.00000000000E+00 0. -1.
          2    1    3    3  501    0 -0.55437481109E+02  0.25710778785E+03  0.75904385920E+03  0.80332142327E+03  0.00000000000E+00 0. -1.
<mgrwt>
<rscale>  0 0.63615943E+03</rscale>
<asrwt>0</asrwt>
<pdfrwt beam="1">0</pdfrwt>
<pdfrwt beam="2">  1        2 0.36790880E+00 0.63615943E+03</pdfrwt>
<totfact> 0.52416026E+00</totfact>
</mgrwt>
</event>
<event>
 5    1  0.2357694E-004  0.5890179E+03  0.7818608E-02  0.9928456E-01
         13   -1    0    0    0    0  0.00000000000E+00  0.00000000000E+00  0.10000000000E+04  0.10000000000E+04  0.00000000000E+00 0. -1.
          2   -1    0    0  501    0 -0.00000000000E+00 -0.00000000000E+00 -0.86735511289E+02  0.86735511289E+02  0.00000000000E+00 0. -1.
    9000006    2    1    2  501    0  0.00000000000E+00  0.00000000000E+00  0.91326448871E+03  0.10867355113E+04  0.58901786489E+03 0.  0.
         13    1    3    3    0    0 -0.74661472720E+02  0.14346660272E+03  0.91073557165E+03  0.92498447721E+03  0.00000000000E+00 0. -1.
          2    1    3    3  501    0  0.74661472720E+02 -0.14346660272E+03  0.25289170602E+01  0.16175103408E+03  0.00000000000E+00 0. -1.
<mgrwt>
<rscale>  0 0.58901786E+03</rscale>
<asrwt>0</asrwt>
<pdfrwt beam="1">0</pdfrwt>
<pdfrwt beam="2">  1        2 0.31540252E+00 0.58901786E+03</pdfrwt>
<totfact> 0.81307969E+00</totfact>
</mgrwt>
</event>
<event>
 5    1  0.2357694E-004  0.6404011E+03  0.7818608E-02  0.9824959E-01
         13   -1    0    0    0    0  0.00000000000E+00  0.00000000000E+00  0.10000000000E+04  0.10000000000E+04  0.00000000000E+00 0. -1.
          2   -1    0    0  501    0 -0.00000000000E+00 -0.00000000000E+00 -0.10252839940E+03  0.10252839940E+03  0.00000000000E+00 0. -1.
    9000006    2    1    2  501    0  0.00000000000E+00  0.00000000000E+00  0.89747160060E+03  0.11025283994E+04  0.64040112242E+03 0.  0.
         13    1    3    3    0    0  0.88963223478E+02  0.13133390303E+03 -0.30126831903E+02  0.16146416078E+03  0.00000000000E+00 0. -1.
          2    1    3    3  501    0 -0.88963223478E+02 -0.13133390303E+03  0.92759843250E+03  0.94106423862E+03  0.00000000000E+00 0. -1.
<mgrwt>
<rscale>  0 0.64040112E+03</rscale>
<asrwt>0</asrwt>
<pdfrwt beam="1">0</pdfrwt>
<pdfrwt beam="2">  1        2 0.37283133E+00 0.64040112E+03</pdfrwt>
<totfact> 0.50267717E+00</totfact>
</mgrwt>
</event>
<event>
 5    1  0.2357694E-004  0.6516804E+03  0.7818608E-02  0.9803631E-01
         13   -1    0    0    0    0  0.00000000000E+00  0.00000000000E+00  0.10000000000E+04  0.10000000000E+04  0.00000000000E+00 0. -1.
          2   -1    0    0  501    0 -0.00000000000E+00 -0.00000000000E+00 -0.10617184883E+03  0.10617184883E+03  0.00000000000E+00 0. -1.
    9000006    2    1    2  501    0  0.00000000000E+00  0.00000000000E+00  0.89382815117E+03  0.11061718488E+04  0.65168043956E+03 0.  0.
         13    1    3    3    0    0 -0.19216278034E+03  0.87245685393E+02  0.25512311431E+02  0.21257756655E+03  0.00000000000E+00 0. -1.
          4    1    3    3  501    0  0.19216278034E+03 -0.87245685393E+02  0.86831583974E+03  0.89359428227E+03  0.00000000000E+00 0. -1.
<mgrwt>
<rscale>  0 0.65168044E+03</rscale>
<asrwt>0</asrwt>
<pdfrwt beam="1">0</pdfrwt>
<pdfrwt beam="2">  1        2 0.38608026E+00 0.65168044E+03</pdfrwt>
<totfact> 0.44879048E+00</totfact>
</mgrwt>
</event>
<event>
 5    1  0.2357694E-004  0.6503381E+03  0.7818608E-02  0.9806145E-01
         13   -1    0    0    0    0  0.00000000000E+00  0.00000000000E+00  0.10000000000E+04  0.10000000000E+04  0.00000000000E+00 0. -1.
          2   -1    0    0  501    0 -0.00000000000E+00 -0.00000000000E+00 -0.10573489600E+03  0.10573489600E+03  0.00000000000E+00 0. -1.
    9000006    2    1    2  501    0  0.00000000000E+00  0.00000000000E+00  0.89426510400E+03  0.11057348960E+04  0.65033805363E+03 0.  0.
         13    1    3    3    0    0  0.26928064343E+03 -0.36397602238E+02  0.14346814796E+03  0.30727831009E+03  0.00000000000E+00 0. -1.
          2    1    3    3  501    0 -0.26928064343E+03  0.36397602238E+02  0.75079695604E+03  0.79845658591E+03  0.00000000000E+00 0. -1.
<mgrwt>
<rscale>  0 0.65033805E+03</rscale>
<asrwt>0</asrwt>
<pdfrwt beam="1">0</pdfrwt>
<pdfrwt beam="2">  1        2 0.38449134E+00 0.65033805E+03</pdfrwt>
<totfact> 0.45496319E+00</totfact>
</mgrwt>
</event>
<event>
 5    1  0.2357694E-004  0.6441000E+03  0.7818608E-02  0.9817914E-01
         13   -1    0    0    0    0  0.00000000000E+00  0.00000000000E+00  0.10000000000E+04  0.10000000000E+04  0.00000000000E+00 0. -1.
          2   -1    0    0  501    0 -0.00000000000E+00 -0.00000000000E+00 -0.10371618951E+03  0.10371618951E+03  0.00000000000E+00 0. -1.
    9000006    2    1    2  501    0  0.00000000000E+00  0.00000000000E+00  0.89628381049E+03  0.11037161895E+04  0.64409995968E+03 0.  0.
         13    1    3    3    0    0  0.16526124082E+03 -0.17467397233E+03  0.81044178356E+02  0.25375270082E+03  0.00000000000E+00 0. -1.
          2    1    3    3  501    0 -0.16526124082E+03  0.17467397233E+03  0.81523963213E+03  0.84996348870E+03  0.00000000000E+00 0. -1.
<mgrwt>
<rscale>  0 0.64409996E+03</rscale>
<asrwt>0</asrwt>
<pdfrwt beam="1">0</pdfrwt>
<pdfrwt beam="2">  1        2 0.37715058E+00 0.64409996E+03</pdfrwt>
<totfact> 0.48449437E+00</totfact>
</mgrwt>
</event>
<event>
 5    1  0.2357694E-004  0.6842823E+03  0.7818608E-02  0.9744496E-01
         13   -1    0    0    0    0  0.00000000000E+00  0.00000000000E+00  0.10000000000E+04  0.10000000000E+04  0.00000000000E+00 0. -1.
          2   -1    0    0  501    0 -0.00000000000E+00 -0.00000000000E+00 -0.11706055137E+03  0.11706055137E+03  0.00000000000E+00 0. -1.
    9000006    2    1    2  501    0  0.00000000000E+00  0.00000000000E+00  0.88293944863E+03  0.11170605514E+04  0.68428225571E+03 0.  0.
         13    1    3    3    0    0  0.24554179242E+03 -0.70212537848E+02  0.81315370657E+03  0.85231421600E+03  0.00000000000E+00 0. -1.
          2    1    3    3  501    0 -0.24554179242E+03  0.70212537848E+02  0.69785742063E+02  0.26474633537E+03  0.00000000000E+00 0. -1.
<mgrwt>
<rscale>  0 0.68428226E+03</rscale>
<asrwt>0</asrwt>
<pdfrwt beam="1">0</pdfrwt>
<pdfrwt beam="2">  1        2 0.42567563E+00 0.68428226E+03</pdfrwt>
<totfact> 0.31732617E+00</totfact>
</mgrwt>
</event>
<event>
 5    1  0.2357694E-004  0.6604072E+03  0.7818608E-02  0.9787444E-01
         13   -1    0    0    0    0  0.00000000000E+00  0.00000000000E+00  0.10000000000E+04  0.10000000000E+04  0.00000000000E+00 0. -1.
          2   -1    0    0  501    0 -0.00000000000E+00 -0.00000000000E+00 -0.10903443098E+03  0.10903443098E+03  0.00000000000E+00 0. -1.
    9000006    2    1    2  501    0  0.00000000000E+00  0.00000000000E+00  0.89096556902E+03  0.11090344310E+04  0.66040724097E+03 0.  0.
         13    1    3    3    0    0 -0.20109264311E+03  0.26092911463E+03  0.48348800371E+03  0.58504948825E+03  0.00000000000E+00 0. -1.
          2    1    3    3  501    0  0.20109264311E+03 -0.26092911463E+03  0.40747756531E+03  0.52398494273E+03  0.00000000000E+00 0. -1.
<mgrwt>
<rscale>  0 0.66040724E+03</rscale>
<asrwt>0</asrwt>
<pdfrwt beam="1">0</pdfrwt>
<pdfrwt beam="2">  1        2 0.39648968E+00 0.66040724E+03</pdfrwt>
<totfact> 0.41019043E+00</totfact>
</mgrwt>
</event>
<event>
 5    1  0.2357694E-004  0.6545897E+03  0.7818608E-02  0.9798205E-01
         13   -1    0    0    0    0  0.00000000000E+00  0.00000000000E+00  0.10000000000E+04  0.10000000000E+04  0.00000000000E+00 0. -1.
          4   -1    0    0  501    0 -0.00000000000E+00 -0.00000000000E+00 -0.10712191190E+03  0.10712191190E+03  0.00000000000E+00 0. -1.
    9000006    2    1    2  501    0  0.00000000000E+00  0.00000000000E+00  0.89287808810E+03  0.11071219119E+04  0.65458967881E+03 0.  0.
         13    1    3    3    0    0 -0.12034790217E+03  0.26510754992E+03  0.69932579457E+03  0.75751052635E+03  0.00000000000E+00 0. -1.
          2    1    3    3  501    0  0.12034790217E+03 -0.26510754992E+03  0.19355229353E+03  0.34961138555E+03  0.00000000000E+00 0. -1.
<mgrwt>
<rscale>  0 0.65458968E+03</rscale>
<asrwt>0</asrwt>
<pdfrwt beam="1">0</pdfrwt>
<pdfrwt beam="2">  1        4 0.38953505E+00 0.65458968E+03</pdfrwt>
<totfact> 0.37814791E-02</totfact>
</mgrwt>
</event>
<event>
 5    1  0.2357694E-004  0.6494955E+03  0.7818608E-02  0.9807726E-01
         13   -1    0    0    0    0  0.00000000000E+00  0.00000000000E+00  0.10000000000E+04  0.10000000000E+04  0.00000000000E+00 0. -1.
          2   -1    0    0  501    0 -0.00000000000E+00 -0.00000000000E+00 -0.10546110163E+03  0.10546110163E+03  0.00000000000E+00 0. -1.
    9000006    2    1    2  501    0  0.00000000000E+00  0.00000000000E+00  0.89453889837E+03  0.11054611016E+04  0.64949550153E+03 0.  0.
         13    1    3    3    0    0  0.23509760812E+03 -0.19761339923E+03  0.62690552253E+03  0.69809202479E+03  0.00000000000E+00 0. -1.
          4    1    3    3  501    0 -0.23509760812E+03  0.19761339923E+03  0.26763337585E+03  0.40736907684E+03  0.00000000000E+00 0. -1.
<mgrwt>
<rscale>  0 0.64949550E+03</rscale>
<asrwt>0</asrwt>
<pdfrwt beam="1">0</pdfrwt>
<pdfrwt beam="2">  1        2 0.38349572E+00 0.64949550E+03</pdfrwt>
<totfact> 0.45887014E+00</totfact>
</mgrwt>
</event>
<event>
 5    1  0.2357694E-004  0.6472705E+03  0.7818608E-02  0.9811914E-01
         13   -1    0    0    0    0  0.00000000000E+00  0.00000000000E+00  0.10000000000E+04  0.10000000000E+04  0.00000000000E+00 0. -1.
          2   -1    0    0  501    0 -0.00000000000E+00 -0.00000000000E+00 -0.10473976556E+03  0.10473976556E+03  0.00000000000E+00 0. -1.
    9000006    2    1    2  501    0  0.00000000000E+00  0.00000000000E+00  0.89526023444E+03  0.11047397656E+04  0.64727047069E+03 0.  0.
         13    1    3    3    0    0  0.76720641825E+02 -0.21739283314E+03  0.59949520918E+02  0.23820085189E+03  0.00000000000E+00 0. -1.
          4    1    3    3  501    0 -0.76720641825E+02  0.21739283314E+03  0.83531071352E+03  0.86653891367E+03  0.00000000000E+00 0. -1.
<mgrwt>
<rscale>  0 0.64727047E+03</rscale>
<asrwt>0</asrwt>
<pdfrwt beam="1">0</pdfrwt>
<pdfrwt beam="2">  1        2 0.38087268E+00 0.64727047E+03</pdfrwt>
<totfact> 0.46930966E+00</totfact>
</mgrwt>
</event>
<event>
 5    1  0.2357694E-004  0.6476203E+03  0.7818608E-02  0.9811255E-01
         13   -1    0    0    0    0  0.00000000000E+00  0.00000000000E+00  0.10000000000E+04  0.10000000000E+04  0.00000000000E+00 0. -1.
          2   -1    0    0  501    0 -0.00000000000E+00 -0.00000000000E+00 -0.10485301208E+03  0.10485301208E+03  0.00000000000E+00 0. -1.
    9000006    2    1    2  501    0  0.00000000000E+00  0.00000000000E+00  0.89514698792E+03  0.11048530121E+04  0.64762029640E+03 0.  0.
         13    1    3    3    0    0 -0.80044152546E+01 -0.32193412116E+03  0.38978591739E+03  0.50560726896E+03  0.00000000000E+00 0. -1.
          2    1    3    3  501    0  0.80044152546E+01  0.32193412116E+03  0.50536107054E+03  0.59924574312E+03  0.00000000000E+00 0. -1.
<mgrwt>
<rscale>  0 0.64762030E+03</rscale>
<asrwt>0</asrwt>
<pdfrwt beam="1">0</pdfrwt>
<pdfrwt beam="2">  1        2 0.38128448E+00 0.64762030E+03</pdfrwt>
<totfact> 0.46765655E+00</totfact>
</mgrwt>
</event>
<event>
 5    1  0.2357694E-004  0.6415136E+03  0.7818608E-02  0.9822835E-01
         13   -1    0    0    0    0  0.00000000000E+00  0.00000000000E+00  0.10000000000E+04  0.10000000000E+04  0.00000000000E+00 0. -1.
          2   -1    0    0  501    0 -0.00000000000E+00 -0.00000000000E+00 -0.10288492038E+03  0.10288492038E+03  0.00000000000E+00 0. -1.
    9000006    2    1    2  501    0  0.00000000000E+00  0.00000000000E+00  0.89711507962E+03  0.11028849204E+04  0.64151358639E+03 0.  0.
         13    1    3    3    0    0 -0.24550603760E+02 -0.24587036473E+03  0.80017304925E+03  0.83745559711E+03  0.00000000000E+00 0. -1.
          2    1    3    3  501    0  0.24550603760E+02  0.24587036473E+03  0.96942030374E+02  0.26542932327E+03  0.00000000000E+00 0. -1.
<mgrwt>
<rscale>  0 0.64151359E+03</rscale>
<asrwt>0</asrwt>
<pdfrwt beam="1">0</pdfrwt>
<pdfrwt beam="2">  1        2 0.37412777E+00 0.64151359E+03</pdfrwt>
<totfact> 0.49715491E+00</totfact>
</mgrwt>
</event>
<event>
 5    1  0.2357694E-004  0.6185216E+03  0.7818608E-02  0.9867708E-01
         13   -1    0    0    0    0  0.00000000000E+00  0.00000000000E+00  0.10000000000E+04  0.10000000000E+04  0.00000000000E+00 0. -1.
          2   -1    0    0  501    0 -0.00000000000E+00 -0.00000000000E+00 -0.95642239381E+02  0.95642239381E+02  0.00000000000E+00 0. -1.
    9000006    2    1    2  501    0  0.00000000000E+00  0.00000000000E+00  0.90435776062E+03  0.10956422394E+04  0.61852159018E+03 0.  0.
         13    1    3    3    0    0 -0.41889994461E+01  0.28345431102E+03  0.23322529419E+03  0.36709390080E+03  0.00000000000E+00 0. -1.
          4    1    3    3  501    0  0.41889994461E+01 -0.28345431102E+03  0.67113246643E+03  0.72854833858E+03  0.00000000000E+00 0. -1.
<mgrwt>
<rscale>  0 0.61852159E+03</rscale>
<asrwt>0</asrwt>
<pdfrwt beam="1">0</pdfrwt>
<pdfrwt beam="2">  1        2 0.34779069E+00 0.61852159E+03</pdfrwt>
<totfact> 0.62106124E+00</totfact>
</mgrwt>
</event>
<event>
 5    1  0.2357694E-004  0.6600415E+03  0.7818608E-02  0.9788117E-01
         13   -1    0    0    0    0  0.00000000000E+00  0.00000000000E+00  0.10000000000E+04  0.10000000000E+04  0.00000000000E+00 0. -1.
          2   -1    0    0  501    0 -0.00000000000E+00 -0.00000000000E+00 -0.10891368009E+03  0.10891368009E+03  0.00000000000E+00 0. -1.
    9000006    2    1    2  501    0  0.00000000000E+00  0.00000000000E+00  0.89108631991E+03  0.11089136801E+04  0.66004145353E+03 0.  0.
         13    1    3    3    0    0 -0.52854241436E+02 -0.12111033684E+03  0.95361376870E+03  0.96272556026E+03  0.00000000000E+00 0. -1.
          4    1    3    3  501    0  0.52854241436E+02  0.12111033684E+03 -0.62527448789E+02  0.14618811983E+03  0.00000000000E+00 0. -1.
<mgrwt>
<rscale>  0 0.66004145E+03</rscale>
<asrwt>0</asrwt>
<pdfrwt beam="1">0</pdfrwt>
<pdfrwt beam="2">  1        2 0.39605058E+00 0.66004145E+03</pdfrwt>
<totfact> 0.41175601E+00</totfact>
</mgrwt>
</event>
<event>
 5    1  0.2357694E-004  0.6421268E+03  0.7818608E-02  0.9821666E-01
         13   -1    0    0    0    0  0.00000000000E+00  0.00000000000E+00  0.10000000000E+04  0.10000000000E+04  0.00000000000E+00 0. -1.
          2   -1    0    0  501    0 -0.00000000000E+00 -0.00000000000E+00 -0.10308172232E+03  0.10308172232E+03  0.00000000000E+00 0. -1.
    9000006    2    1    2  501    0  0.00000000000E+00  0.00000000000E+00  0.89691827768E+03  0.11030817223E+04  0.64212684829E+03 0.  0.
         13    1    3    3    0    0 -0.28984999015E+02 -0.24196682718E+03  0.80754309896E+03  0.84351285248E+03  0.00000000000E+00 0. -1.
          2    1    3    3  501    0  0.28984999015E+02  0.24196682718E+03  0.89375178721E+02  0.25956886985E+03  0.00000000000E+00 0. -1.
<mgrwt>
<rscale>  0 0.64212685E+03</rscale>
<asrwt>0</asrwt>
<pdfrwt beam="1">0</pdfrwt>
<pdfrwt beam="2">  1        2 0.37484342E+00 0.64212685E+03</pdfrwt>
<totfact> 0.49413040E+00</totfact>
</mgrwt>
</event>
<event>
 5    1  0.2357694E-004  0.6189047E+03  0.7818608E-02  0.9866943E-01
         13   -1    0    0    0    0  0.00000000000E+00  0.00000000000E+00  0.10000000000E+04  0.10000000000E+04  0.00000000000E+00 0. -1.
          2   -1    0    0  501    0 -0.00000000000E+00 -0.00000000000E+00 -0.95760743320E+02  0.95760743320E+02  0.00000000000E+00 0. -1.
    9000006    2    1    2  501    0  0.00000000000E+00  0.00000000000E+00  0.90423925668E+03  0.10957607433E+04  0.61890465605E+03 0.  0.
         13    1    3    3    0    0 -0.14617482467E+03  0.21962512720E+02  0.93345462929E+03  0.94508569785E+03  0.00000000000E+00 0. -1.
          2    1    3    3  501    0  0.14617482467E+03 -0.21962512720E+02 -0.29215372609E+02  0.15067504547E+03  0.00000000000E+00 0. -1.
<mgrwt>
<rscale>  0 0.61890466E+03</rscale>
<asrwt>0</asrwt>
<pdfrwt beam="1">0</pdfrwt>
<pdfrwt beam="2">  1        2 0.34822162E+00 0.61890466E+03</pdfrwt>
<totfact> 0.61882203E+00</totfact>
</mgrwt>
</event>
<event>
 5    1  0.2357694E-004  0.6448341E+03  0.7818608E-02  0.9816521E-01
         13   -1    0    0    0    0  0.00000000000E+00  0.00000000000E+00  0.10000000000E+04  0.10000000000E+04  0.00000000000E+00 0. -1.
          2   -1    0    0  501    0 -0.00000000000E+00 -0.00000000000E+00 -0.10395275154E+03  0.10395275154E+03  0.00000000000E+00 0. -1.
    9000006    2    1    2  501    0  0.00000000000E+00  0.00000000000E+00  0.89604724846E+03  0.11039527515E+04  0.64483409197E+03 0.  0.
         13    1    3    3    0    0  0.17246312311E+03  0.28307088593E+02  0.91186980938E+03  0.92846721501E+03  0.00000000000E+00 0. -1.
          2    1    3    3  501    0 -0.17246312311E+03 -0.28307088593E+02 -0.15822560917E+02  0.17548553653E+03  0.00000000000E+00 0. -1.
<mgrwt>
<rscale>  0 0.64483409E+03</rscale>
<asrwt>0</asrwt>
<pdfrwt beam="1">0</pdfrwt>
<pdfrwt beam="2">  1        2 0.37801080E+00 0.64483409E+03</pdfrwt>
<totfact> 0.48094575E+00</totfact>
</mgrwt>
</event>
<event>
 5    1  0.2357694E-004  0.6327220E+03  0.7818608E-02  0.9839751E-01
         13   -1    0    0    0    0  0.00000000000E+00  0.00000000000E+00  0.10000000000E+04  0.10000000000E+04  0.00000000000E+00 0. -1.
          2   -1    0    0  501    0 -0.00000000000E+00 -0.00000000000E+00 -0.10008427108E+03  0.10008427108E+03  0.00000000000E+00 0. -1.
    9000006    2    1    2  501    0  0.00000000000E+00  0.00000000000E+00  0.89991572892E+03  0.11000842711E+04  0.63272196448E+03 0.  0.
         13    1    3    3    0    0  0.16753933353E+03  0.18669368941E+03  0.11479746188E+03  0.27586666924E+03  0.00000000000E+00 0. -1.
          2    1    3    3  501    0 -0.16753933353E+03 -0.18669368941E+03  0.78511826704E+03  0.82421760184E+03  0.00000000000E+00 0. -1.
<mgrwt>
<rscale>  0 0.63272196E+03</rscale>
<asrwt>0</asrwt>
<pdfrwt beam="1">0</pdfrwt>
<pdfrwt beam="2">  1        2 0.36394357E+00 0.63272196E+03</pdfrwt>
<totfact> 0.54207470E+00</totfact>
</mgrwt>
</event>
<event>
 5    1  0.2357694E-004  0.5538876E+03  0.7818608E-02  0.1000598E+00
         13   -1    0    0    0    0  0.00000000000E+00  0.00000000000E+00  0.10000000000E+04  0.10000000000E+04  0.00000000000E+00 0. -1.
          2   -1    0    0  501    0 -0.00000000000E+00 -0.00000000000E+00 -0.76697864865E+02  0.76697864865E+02  0.00000000000E+00 0. -1.
    9000006    2    1    2  501    0  0.00000000000E+00  0.00000000000E+00  0.92330213514E+03  0.10766978649E+04  0.55388758738E+03 0.  0.
         13    1    3    3    0    0  0.69855252093E+02  0.17211282009E+03  0.86095554998E+03  0.88076503003E+03  0.00000000000E+00 0. -1.
          2    1    3    3  501    0 -0.69855252093E+02 -0.17211282009E+03  0.62346585155E+02  0.19593283483E+03  0.00000000000E+00 0. -1.
<mgrwt>
<rscale>  0 0.55388759E+03</rscale>
<asrwt>0</asrwt>
<pdfrwt beam="1">0</pdfrwt>
<pdfrwt beam="2">  1        2 0.27890191E+00 0.55388759E+03</pdfrwt>
<totfact> 0.10983414E+01</totfact>
</mgrwt>
</event>
<event>
 5    1  0.2357694E-004  0.6588356E+03  0.7818608E-02  0.9790340E-01
         13   -1    0    0    0    0  0.00000000000E+00  0.00000000000E+00  0.10000000000E+04  0.10000000000E+04  0.00000000000E+00 0. -1.
          2   -1    0    0  501    0 -0.00000000000E+00 -0.00000000000E+00 -0.10851610240E+03  0.10851610240E+03  0.00000000000E+00 0. -1.
    9000006    2    1    2  501    0  0.00000000000E+00  0.00000000000E+00  0.89148389760E+03  0.11085161024E+04  0.65883564689E+03 0.  0.
         13    1    3    3    0    0  0.22878219020E+03  0.19018713996E+03  0.20777333065E+03  0.36288041514E+03  0.00000000000E+00 0. -1.
          2    1    3    3  501    0 -0.22878219020E+03 -0.19018713996E+03  0.68371056695E+03  0.74563568726E+03  0.00000000000E+00 0. -1.
<mgrwt>
<rscale>  0 0.65883565E+03</rscale>
<asrwt>0</asrwt>
<pdfrwt beam="1">0</pdfrwt>
<pdfrwt beam="2">  1        2 0.39460484E+00 0.65883565E+03</pdfrwt>
<totfact> 0.41694886E+00</totfact>
</mgrwt>
</event>
<event>
 5    1  0.2357694E-004  0.6515063E+03  0.7818608E-02  0.9803957E-01
         13   -1    0    0    0    0  0.00000000000E+00  0.00000000000E+00  0.10000000000E+04  0.10000000000E+04  0.00000000000E+00 0. -1.
          2   -1    0    0  501    0 -0.00000000000E+00 -0.00000000000E+00 -0.10611512616E+03  0.10611512616E+03  0.00000000000E+00 0. -1.
    9000006    2    1    2  501    0  0.00000000000E+00  0.00000000000E+00  0.89388487384E+03  0.11061151262E+04  0.65150633508E+03 0.  0.
         13    1    3    3    0    0 -0.27535483528E+03  0.14918686574E+03  0.59915795470E+03  0.67606749730E+03  0.00000000000E+00 0. -1.
          4    1    3    3  501    0  0.27535483528E+03 -0.14918686574E+03  0.29472691914E+03  0.43004762886E+03  0.00000000000E+00 0. -1.
<mgrwt>
<rscale>  0 0.65150634E+03</rscale>
<asrwt>0</asrwt>
<pdfrwt beam="1">0</pdfrwt>
<pdfrwt beam="2">  1        2 0.38587400E+00 0.65150634E+03</pdfrwt>
<totfact> 0.44958747E+00</totfact>
</mgrwt>
</event>
<event>
 5    1  0.2357694E-004  0.6511028E+03  0.7818608E-02  0.9804712E-01
         13   -1    0    0    0    0  0.00000000000E+00  0.00000000000E+00  0.10000000000E+04  0.10000000000E+04  0.00000000000E+00 0. -1.
          2   -1    0    0  501    0 -0.00000000000E+00 -0.00000000000E+00 -0.10598371295E+03  0.10598371295E+03  0.00000000000E+00 0. -1.
    9000006    2    1    2  501    0  0.00000000000E+00  0.00000000000E+00  0.89401628705E+03  0.11059837130E+04  0.65110279665E+03 0.  0.
         13    1    3    3    0    0  0.23892909282E+03 -0.20539272274E+03  0.58615531359E+03  0.66547076089E+03  0.00000000000E+00 0. -1.
          2    1    3    3  501    0 -0.23892909282E+03  0.20539272274E+03  0.30786097346E+03  0.44051295206E+03  0.00000000000E+00 0. -1.
<mgrwt>
<rscale>  0 0.65110280E+03</rscale>
<asrwt>0</asrwt>
<pdfrwt beam="1">0</pdfrwt>
<pdfrwt beam="2">  1        2 0.38539613E+00 0.65110280E+03</pdfrwt>
<totfact> 0.45143885E+00</totfact>
</mgrwt>
</event>
<event>
 5    1  0.2357694E-004  0.6471562E+03  0.7818608E-02  0.9812130E-01
         13   -1    0    0    0    0  0.00000000000E+00  0.00000000000E+00  0.10000000000E+04  0.10000000000E+04  0.00000000000E+00 0. -1.
          2   -1    0    0  501    0 -0.00000000000E+00 -0.00000000000E+00 -0.10470280192E+03  0.10470280192E+03  0.00000000000E+00 0. -1.
    9000006    2    1    2  501    0  0.00000000000E+00  0.00000000000E+00  0.89529719808E+03  0.11047028019E+04  0.64715624674E+03 0.  0.
         13    1    3    3    0    0 -0.18746917872E+03 -0.42288042185E+02  0.89202860194E+03  0.91249547844E+03  0.00000000000E+00 0. -1.
          2    1    3    3  501    0  0.18746917872E+03  0.42288042185E+02  0.32685961325E+01  0.19220732349E+03  0.00000000000E+00 0. -1.
<mgrwt>
<rscale>  0 0.64715625E+03</rscale>
<asrwt>0</asrwt>
<pdfrwt beam="1">0</pdfrwt>
<pdfrwt beam="2">  1        2 0.38073826E+00 0.64715625E+03</pdfrwt>
<totfact> 0.46985039E+00</totfact>
</mgrwt>
</event>
<event>
 5    1  0.2357694E-004  0.6327473E+03  0.7818608E-02  0.9839702E-01
         13   -1    0    0    0    0  0.00000000000E+00  0.00000000000E+00  0.10000000000E+04  0.10000000000E+04  0.00000000000E+00 0. -1.
          2   -1    0    0  501    0 -0.00000000000E+00 -0.00000000000E+00 -0.10009227719E+03  0.10009227719E+03  0.00000000000E+00 0. -1.
    9000006    2    1    2  501    0  0.00000000000E+00  0.00000000000E+00  0.89990772281E+03  0.11000922772E+04  0.63274727085E+03 0.  0.
         13    1    3    3    0    0  0.20760266745E+03  0.23873111991E+03  0.45156808854E+03  0.55136662370E+03  0.00000000000E+00 0. -1.
          4    1    3    3  501    0 -0.20760266745E+03 -0.23873111991E+03  0.44833963427E+03  0.54872565349E+03  0.00000000000E+00 0. -1.
<mgrwt>
<rscale>  0 0.63274727E+03</rscale>
<asrwt>0</asrwt>
<pdfrwt beam="1">0</pdfrwt>
<pdfrwt beam="2">  1        2 0.36397268E+00 0.63274727E+03</pdfrwt>
<totfact> 0.54194115E+00</totfact>
</mgrwt>
</event>
<event>
 5    1  0.2357694E-004  0.6539440E+03  0.7818608E-02  0.9799406E-01
         13   -1    0    0    0    0  0.00000000000E+00  0.00000000000E+00  0.10000000000E+04  0.10000000000E+04  0.00000000000E+00 0. -1.
          2   -1    0    0  501    0 -0.00000000000E+00 -0.00000000000E+00 -0.10691070501E+03  0.10691070501E+03  0.00000000000E+00 0. -1.
    9000006    2    1    2  501    0  0.00000000000E+00  0.00000000000E+00  0.89308929499E+03  0.11069107050E+04  0.65394404964E+03 0.  0.
         13    1    3    3    0    0  0.20186392437E+03 -0.20782487815E+03  0.70308579947E+03  0.76044057319E+03  0.00000000000E+00 0. -1.
          4    1    3    3  501    0 -0.20186392437E+03  0.20782487815E+03  0.19000349552E+03  0.34647013182E+03  0.00000000000E+00 0. -1.
<mgrwt>
<rscale>  0 0.65394405E+03</rscale>
<asrwt>0</asrwt>
<pdfrwt beam="1">0</pdfrwt>
<pdfrwt beam="2">  1        2 0.38876702E+00 0.65394405E+03</pdfrwt>
<totfact> 0.43852524E+00</totfact>
</mgrwt>
</event>
<event>
 5    1  0.2357694E-004  0.6379158E+03  0.7818608E-02  0.9829722E-01
         13   -1    0    0    0    0  0.00000000000E+00  0.00000000000E+00  0.10000000000E+04  0.10000000000E+04  0.00000000000E+00 0. -1.
          2   -1    0    0  501    0 -0.00000000000E+00 -0.00000000000E+00 -0.10173415488E+03  0.10173415488E+03  0.00000000000E+00 0. -1.
    9000006    2    1    2  501    0  0.00000000000E+00  0.00000000000E+00  0.89826584512E+03  0.11017341549E+04  0.63791584045E+03 0.  0.
         13    1    3    3    0    0 -0.43293281947E+02  0.24315487173E+03  0.79771114059E+03  0.83506985560E+03  0.00000000000E+00 0. -1.
          2    1    3    3  501    0  0.43293281947E+02 -0.24315487173E+03  0.10055470454E+03  0.26666429928E+03  0.00000000000E+00 0. -1.
<mgrwt>
<rscale>  0 0.63791584E+03</rscale>
<asrwt>0</asrwt>
<pdfrwt beam="1">0</pdfrwt>
<pdfrwt beam="2">  1        2 0.36994316E+00 0.63791584E+03</pdfrwt>
<totfact> 0.51518183E+00</totfact>
</mgrwt>
</event>
<event>
 5    1  0.2357694E-004  0.6623330E+03  0.7818608E-02  0.9783908E-01
         13   -1    0    0    0    0  0.00000000000E+00  0.00000000000E+00  0.10000000000E+04  0.10000000000E+04  0.00000000000E+00 0. -1.
          2   -1    0    0  501    0 -0.00000000000E+00 -0.00000000000E+00 -0.10967125844E+03  0.10967125844E+03  0.00000000000E+00 0. -1.
    9000006    2    1    2  501    0  0.00000000000E+00  0.00000000000E+00  0.89032874156E+03  0.11096712584E+04  0.66233302331E+03 0.  0.
         13    1    3    3    0    0 -0.15394653310E+03 -0.17570599483E+03  0.83843388928E+03  0.87036975957E+03  0.00000000000E+00 0. -1.
          4    1    3    3  501    0  0.15394653310E+03  0.17570599483E+03  0.51894852273E+02  0.23930149888E+03  0.00000000000E+00 0. -1.
<mgrwt>
<rscale>  0 0.66233302E+03</rscale>
<asrwt>0</asrwt>
<pdfrwt beam="1">0</pdfrwt>
<pdfrwt beam="2">  1        2 0.39880542E+00 0.66233302E+03</pdfrwt>
<totfact> 0.40202197E+00</totfact>
</mgrwt>
</event>
<event>
 5    1  0.2357694E-004  0.6510411E+03  0.7818608E-02  0.9804828E-01
         13   -1    0    0    0    0  0.00000000000E+00  0.00000000000E+00  0.10000000000E+04  0.10000000000E+04  0.00000000000E+00 0. -1.
          2   -1    0    0  501    0 -0.00000000000E+00 -0.00000000000E+00 -0.10596362698E+03  0.10596362698E+03  0.00000000000E+00 0. -1.
    9000006    2    1    2  501    0  0.00000000000E+00  0.00000000000E+00  0.89403637302E+03  0.11059636270E+04  0.65104109543E+03 0.  0.
         13    1    3    3    0    0 -0.40244839453E+02 -0.26951494526E+03  0.74950116230E+03  0.79750231667E+03  0.00000000000E+00 0. -1.
          4    1    3    3  501    0  0.40244839453E+02  0.26951494526E+03  0.14453521072E+03  0.30846131031E+03  0.00000000000E+00 0. -1.
<mgrwt>
<rscale>  0 0.65104110E+03</rscale>
<asrwt>0</asrwt>
<pdfrwt beam="1">0</pdfrwt>
<pdfrwt beam="2">  1        2 0.38532309E+00 0.65104110E+03</pdfrwt>
<totfact> 0.45172244E+00</totfact>
</mgrwt>
</event>
<event>
 5    1  0.2357694E-004  0.6498749E+03  0.7818608E-02  0.9807014E-01
         13   -1    0    0    0    0  0.00000000000E+00  0.00000000000E+00  0.10000000000E+04  0.10000000000E+04  0.00000000000E+00 0. -1.
          2   -1    0    0  501    0 -0.00000000000E+00 -0.00000000000E+00 -0.10558433377E+03  0.10558433377E+03  0.00000000000E+00 0. -1.
    9000006    2    1    2  501    0  0.00000000000E+00  0.00000000000E+00  0.89441566623E+03  0.11055843338E+04  0.64987486108E+03 0.  0.
         13    1    3    3    0    0 -0.23281113486E+03  0.18995755102E+03  0.65763406502E+03  0.72302659645E+03  0.00000000000E+00 0. -1.
          4    1    3    3  501    0  0.23281113486E+03 -0.18995755102E+03  0.23678160121E+03  0.38255773731E+03  0.00000000000E+00 0. -1.
<mgrwt>
<rscale>  0 0.64987486E+03</rscale>
<asrwt>0</asrwt>
<pdfrwt beam="1">0</pdfrwt>
<pdfrwt beam="2">  1        2 0.38394384E+00 0.64987486E+03</pdfrwt>
<totfact> 0.45710791E+00</totfact>
</mgrwt>
</event>
<event>
 5    1  0.2357694E-004  0.6532355E+03  0.7818608E-02  0.9800727E-01
         13   -1    0    0    0    0  0.00000000000E+00  0.00000000000E+00  0.10000000000E+04  0.10000000000E+04  0.00000000000E+00 0. -1.
          2   -1    0    0  501    0 -0.00000000000E+00 -0.00000000000E+00 -0.10667914802E+03  0.10667914802E+03  0.00000000000E+00 0. -1.
    9000006    2    1    2  501    0  0.00000000000E+00  0.00000000000E+00  0.89332085198E+03  0.11066791480E+04  0.65323547980E+03 0.  0.
         13    1    3    3    0    0  0.19556933035E+03  0.22658270382E+03  0.22517293204E+03  0.37455297886E+03  0.00000000000E+00 0. -1.
          2    1    3    3  501    0 -0.19556933035E+03 -0.22658270382E+03  0.66814791994E+03  0.73212616916E+03  0.00000000000E+00 0. -1.
<mgrwt>
<rscale>  0 0.65323548E+03</rscale>
<asrwt>0</asrwt>
<pdfrwt beam="1">0</pdfrwt>
<pdfrwt beam="2">  1        2 0.38792499E+00 0.65323548E+03</pdfrwt>
<totfact> 0.44171925E+00</totfact>
</mgrwt>
</event>
<event>
 5    1  0.2357694E-004  0.6336005E+03  0.7818608E-02  0.9838048E-01
         13   -1    0    0    0    0  0.00000000000E+00  0.00000000000E+00  0.10000000000E+04  0.10000000000E+04  0.00000000000E+00 0. -1.
          2   -1    0    0  501    0 -0.00000000000E+00 -0.00000000000E+00 -0.10036240844E+03  0.10036240844E+03  0.00000000000E+00 0. -1.
    9000006    2    1    2  501    0  0.00000000000E+00  0.00000000000E+00  0.89963759156E+03  0.11003624084E+04  0.63360053169E+03 0.  0.
         13    1    3    3    0    0 -0.68780953623E+02 -0.19672189033E+03  0.35438817493E+02  0.21139118123E+03  0.00000000000E+00 0. -1.
          2    1    3    3  501    0  0.68780953623E+02  0.19672189033E+03  0.86419877407E+03  0.88897122721E+03  0.00000000000E+00 0. -1.
<mgrwt>
<rscale>  0 0.63360053E+03</rscale>
<asrwt>0</asrwt>
<pdfrwt beam="1">0</pdfrwt>
<pdfrwt beam="2">  1        2 0.36495498E+00 0.63360053E+03</pdfrwt>
<totfact> 0.53745255E+00</totfact>
</mgrwt>
</event>
<event>
 5    1  0.2357694E-004  0.6536418E+03  0.7818608E-02  0.9799970E-01
         13   -1    0    0    0    0  0.00000000000E+00  0.00000000000E+00  0.10000000000E+04  0.10000000000E+04  0.00000000000E+00 0. -1.
          2   -1    0    0  501    0 -0.00000000000E+00 -0.00000000000E+00 -0.10681190008E+03  0.10681190008E+03  0.00000000000E+00 0. -1.
    9000006    2    1    2  501    0  0.00000000000E+00  0.00000000000E+00  0.89318809992E+03  0.11068119001E+04  0.65364179817E+03 0.  0.
         13    1    3    3    0    0  0.18028437090E+03 -0.15626716722E+03  0.68377233520E+02  0.24818808997E+03  0.00000000000E+00 0. -1.
          2    1    3    3  501    0 -0.18028437090E+03  0.15626716722E+03  0.82481086640E+03  0.85862381010E+03  0.00000000000E+00 0. -1.
<mgrwt>
<rscale>  0 0.65364180E+03</rscale>
<asrwt>0</asrwt>
<pdfrwt beam="1">0</pdfrwt>
<pdfrwt beam="2">  1        2 0.38840773E+00 0.65364180E+03</pdfrwt>
<totfact> 0.43988555E+00</totfact>
</mgrwt>
</event>
<event>
 5    1  0.2357694E-004  0.6481343E+03  0.7818608E-02  0.9810286E-01
         13   -1    0    0    0    0  0.00000000000E+00  0.00000000000E+00  0.10000000000E+04  0.10000000000E+04  0.00000000000E+00 0. -1.
          2   -1    0    0  501    0 -0.00000000000E+00 -0.00000000000E+00 -0.10501951548E+03  0.10501951548E+03  0.00000000000E+00 0. -1.
    9000006    2    1    2  501    0  0.00000000000E+00  0.00000000000E+00  0.89498048452E+03  0.11050195155E+04  0.64813429313E+03 0.  0.
         13    1    3    3    0    0  0.50887418247E+02 -0.26156179951E+03  0.76193387850E+03  0.80718482363E+03  0.00000000000E+00 0. -1.
          2    1    3    3  501    0 -0.50887418247E+02  0.26156179951E+03  0.13304660602E+03  0.29783469185E+03  0.00000000000E+00 0. -1.
<mgrwt>
<rscale>  0 0.64813429E+03</rscale>
<asrwt>0</asrwt>
<pdfrwt beam="1">0</pdfrwt>
<pdfrwt beam="2">  1        2 0.38188995E+00 0.64813429E+03</pdfrwt>
<totfact> 0.46523564E+00</totfact>
</mgrwt>
</event>
<event>
 5    1  0.2357694E-004  0.6418640E+03  0.7818608E-02  0.9822167E-01
         13   -1    0    0    0    0  0.00000000000E+00  0.00000000000E+00  0.10000000000E+04  0.10000000000E+04  0.00000000000E+00 0. -1.
          2   -1    0    0  501    0 -0.00000000000E+00 -0.00000000000E+00 -0.10299734605E+03  0.10299734605E+03  0.00000000000E+00 0. -1.
    9000006    2    1    2  501    0  0.00000000000E+00  0.00000000000E+00  0.89700265395E+03  0.11029973460E+04  0.64186399197E+03 0.  0.
         13    1    3    3    0    0 -0.30551977182E+03  0.28664653492E+02  0.28699325206E+03  0.42015368624E+03  0.00000000000E+00 0. -1.
          2    1    3    3  501    0  0.30551977182E+03 -0.28664653492E+02  0.61000940190E+03  0.68284365981E+03  0.00000000000E+00 0. -1.
<mgrwt>
<rscale>  0 0.64186399E+03</rscale>
<asrwt>0</asrwt>
<pdfrwt beam="1">0</pdfrwt>
<pdfrwt beam="2">  1        2 0.37453659E+00 0.64186399E+03</pdfrwt>
<totfact> 0.49542506E+00</totfact>
</mgrwt>
</event>
<event>
 5    1  0.2357694E-004  0.6597548E+03  0.7818608E-02  0.9788645E-01
         13   -1    0    0    0    0  0.00000000000E+00  0.00000000000E+00  0.10000000000E+04  0.10000000000E+04  0.00000000000E+00 0. -1.
          2   -1    0    0  501    0 -0.00000000000E+00 -0.00000000000E+00 -0.10881908364E+03  0.10881908364E+03  0.00000000000E+00 0. -1.
    9000006    2    1    2  501    0  0.00000000000E+00  0.00000000000E+00  0.89118091636E+03  0.11088190836E+04  0.65975475333E+03 0.  0.
         13    1    3    3    0    0 -0.13053764031E+03  0.29482502463E+03  0.32845948922E+03  0.46026895045E+03  0.00000000000E+00 0. -1.
          2    1    3    3  501    0  0.13053764031E+03 -0.29482502463E+03  0.56272142715E+03  0.64855013319E+03  0.00000000000E+00 0. -1.
<mgrwt>
<rscale>  0 0.65975475E+03</rscale>
<asrwt>0</asrwt>
<pdfrwt beam="1">0</pdfrwt>
<pdfrwt beam="2">  1        2 0.39570659E+00 0.65975475E+03</pdfrwt>
<totfact> 0.41298624E+00</totfact>
</mgrwt>
</event>
<event>
 5    1  0.2357694E-004  0.6879383E+03  0.7818608E-02  0.9738085E-01
         13   -1    0    0    0    0  0.00000000000E+00  0.00000000000E+00  0.10000000000E+04  0.10000000000E+04  0.00000000000E+00 0. -1.
          2   -1    0    0  501    0 -0.00000000000E+00 -0.00000000000E+00 -0.11831478314E+03  0.11831478314E+03  0.00000000000E+00 0. -1.
    9000006    2    1    2  501    0  0.00000000000E+00  0.00000000000E+00  0.88168521686E+03  0.11183147831E+04  0.68793832031E+03 0.  0.
         13    1    3    3    0    0 -0.12014947411E+03  0.11317519342E+03 -0.49729506790E+02  0.17238777329E+03  0.00000000000E+00 0. -1.
          2    1    3    3  501    0  0.12014947411E+03 -0.11317519342E+03  0.93141472365E+03  0.94592700985E+03  0.00000000000E+00 0. -1.
<mgrwt>
<rscale>  0 0.68793832E+03</rscale>
<asrwt>0</asrwt>
<pdfrwt beam="1">0</pdfrwt>
<pdfrwt beam="2">  1        2 0.43023648E+00 0.68793832E+03</pdfrwt>
<totfact> 0.30464501E+00</totfact>
</mgrwt>
</event>
<event>
 5    1  0.2357694E-004  0.6280968E+03  0.7818608E-02  0.9848770E-01
         13   -1    0    0    0    0  0.00000000000E+00  0.00000000000E+00  0.10000000000E+04  0.10000000000E+04  0.00000000000E+00 0. -1.
          2   -1    0    0  501    0 -0.00000000000E+00 -0.00000000000E+00 -0.98626383718E+02  0.98626383718E+02  0.00000000000E+00 0. -1.
    9000006    2    1    2  501    0  0.00000000000E+00  0.00000000000E+00  0.90137361628E+03  0.10986263837E+04  0.62809675598E+03 0.  0.
         13    1    3    3    0    0 -0.13363791329E+03 -0.23386204749E+03  0.16823615531E+03  0.31757511407E+03  0.00000000000E+00 0. -1.
          4    1    3    3  501    0  0.13363791329E+03  0.23386204749E+03  0.73313746098E+03  0.78105126965E+03  0.00000000000E+00 0. -1.
<mgrwt>
<rscale>  0 0.62809676E+03</rscale>
<asrwt>0</asrwt>
<pdfrwt beam="1">0</pdfrwt>
<pdfrwt beam="2">  1        2 0.35864215E+00 0.62809676E+03</pdfrwt>
<totfact> 0.56690750E+00</totfact>
</mgrwt>
</event>
<event>
 5    1  0.2357694E-004  0.6414022E+03  0.7818608E-02  0.9823047E-01
         13   -1    0    0    0    0  0.00000000000E+00  0.00000000000E+00  0.10000000000E+04  0.10000000000E+04  0.00000000000E+00 0. -1.
          2   -1    0    0  501    0 -0.00000000000E+00 -0.00000000000E+00 -0.10284920743E+03  0.10284920743E+03  0.00000000000E+00 0. -1.
    9000006    2    1    2  501    0  0.00000000000E+00  0.00000000000E+00  0.89715079257E+03  0.11028492074E+04  0.64140223706E+03 0.  0.
         13    1    3    3    0    0  0.20049167543E+02 -0.25395772995E+03  0.78354628031E+03  0.82391824297E+03  0.00000000000E+00 0. -1.
          4    1    3    3  501    0 -0.20049167543E+02  0.25395772995E+03  0.11360451227E+03  0.27893096445E+03  0.00000000000E+00 0. -1.
<mgrwt>
<rscale>  0 0.64140224E+03</rscale>
<asrwt>0</asrwt>
<pdfrwt beam="1">0</pdfrwt>
<pdfrwt beam="2">  1        2 0.37399791E+00 0.64140224E+03</pdfrwt>
<totfact> 0.49770557E+00</totfact>
</mgrwt>
</event>
<event>
 5    1  0.2357694E-004  0.5879166E+03  0.7818608E-02  0.9930797E-01
         13   -1    0    0    0    0  0.00000000000E+00  0.00000000000E+00  0.10000000000E+04  0.10000000000E+04  0.00000000000E+00 0. -1.
          2   -1    0    0  501    0 -0.00000000000E+00 -0.00000000000E+00 -0.86411489944E+02  0.86411489944E+02  0.00000000000E+00 0. -1.
    9000006    2    1    2  501    0  0.00000000000E+00  0.00000000000E+00  0.91358851006E+03  0.10864114899E+04  0.58791662655E+03 0.  0.
         13    1    3    3    0    0 -0.76905648951E+02  0.27788709842E+03  0.56255765819E+03  0.63214463305E+03  0.00000000000E+00 0. -1.
          2    1    3    3  501    0  0.76905648951E+02 -0.27788709842E+03  0.35103085187E+03  0.45426685689E+03  0.00000000000E+00 0. -1.
<mgrwt>
<rscale>  0 0.58791663E+03</rscale>
<asrwt>0</asrwt>
<pdfrwt beam="1">0</pdfrwt>
<pdfrwt beam="2">  1        2 0.31422426E+00 0.58791663E+03</pdfrwt>
<totfact> 0.82103871E+00</totfact>
</mgrwt>
</event>
<event>
 5    1  0.2357694E-004  0.6517625E+03  0.7818608E-02  0.9803478E-01
         13   -1    0    0    0    0  0.00000000000E+00  0.00000000000E+00  0.10000000000E+04  0.10000000000E+04  0.00000000000E+00 0. -1.
          2   -1    0    0  501    0 -0.00000000000E+00 -0.00000000000E+00 -0.10619858052E+03  0.10619858052E+03  0.00000000000E+00 0. -1.
    9000006    2    1    2  501    0  0.00000000000E+00  0.00000000000E+00  0.89380141948E+03  0.11061985805E+04  0.65176247366E+03 0.  0.
         13    1    3    3    0    0  0.15532772319E+03  0.11230225289E+03  0.89421357993E+03  0.91452524521E+03  0.00000000000E+00 0. -1.
          4    1    3    3  501    0 -0.15532772319E+03 -0.11230225289E+03 -0.41216044454E+00  0.19167333531E+03  0.00000000000E+00 0. -1.
<mgrwt>
<rscale>  0 0.65176247E+03</rscale>
<asrwt>0</asrwt>
<pdfrwt beam="1">0</pdfrwt>
<pdfrwt beam="2">  1        2 0.38617747E+00 0.65176247E+03</pdfrwt>
<totfact> 0.44841532E+00</totfact>
</mgrwt>
</event>
<event>
 5    1  0.2357694E-004  0.6434392E+03  0.7818608E-02  0.9819169E-01
         13   -1    0    0    0    0  0.00000000000E+00  0.00000000000E+00  0.10000000000E+04  0.10000000000E+04  0.00000000000E+00 0. -1.
          2   -1    0    0  501    0 -0.00000000000E+00 -0.00000000000E+00 -0.10350349098E+03  0.10350349098E+03  0.00000000000E+00 0. -1.
    9000006    2    1    2  501    0  0.00000000000E+00  0.00000000000E+00  0.89649650902E+03  0.11035034910E+04  0.64343916876E+03 0.  0.
         13    1    3    3    0    0 -0.88959715962E+02  0.17481966893E+03  0.10911922673E+02  0.19645563816E+03  0.00000000000E+00 0. -1.
          2    1    3    3  501    0  0.88959715962E+02 -0.17481966893E+03  0.88558458635E+03  0.90704785281E+03  0.00000000000E+00 0. -1.
<mgrwt>
<rscale>  0 0.64343917E+03</rscale>
<asrwt>0</asrwt>
<pdfrwt beam="1">0</pdfrwt>
<pdfrwt beam="2">  1        2 0.37637712E+00 0.64343917E+03</pdfrwt>
<totfact> 0.48770538E+00</totfact>
</mgrwt>
</event>
<event>
 5    1  0.2357694E-004  0.6319768E+03  0.7818608E-02  0.9841199E-01
         13   -1    0    0    0    0  0.00000000000E+00  0.00000000000E+00  0.10000000000E+04  0.10000000000E+04  0.00000000000E+00 0. -1.
          2   -1    0    0  501    0 -0.00000000000E+00 -0.00000000000E+00 -0.99848671536E+02  0.99848671536E+02  0.00000000000E+00 0. -1.
    9000006    2    1    2  501    0  0.00000000000E+00  0.00000000000E+00  0.90015132846E+03  0.10998486715E+04  0.63197680823E+03 0.  0.
         13    1    3    3    0    0  0.25632987594E+03  0.52995639726E+02  0.75814433360E+03  0.80205758752E+03  0.00000000000E+00 0. -1.
          4    1    3    3  501    0 -0.25632987594E+03 -0.52995639726E+02  0.14200699486E+03  0.29779108402E+03  0.00000000000E+00 0. -1.
<mgrwt>
<rscale>  0 0.63197681E+03</rscale>
<asrwt>0</asrwt>
<pdfrwt beam="1">0</pdfrwt>
<pdfrwt beam="2">  1        2 0.36308684E+00 0.63197681E+03</pdfrwt>
<totfact> 0.54601856E+00</totfact>
</mgrwt>
</event>
<event>
 5    1  0.2357694E-004  0.6792198E+03  0.7818608E-02  0.9753444E-01
         13   -1    0    0    0    0  0.00000000000E+00  0.00000000000E+00  0.10000000000E+04  0.10000000000E+04  0.00000000000E+00 0. -1.
          2   -1    0    0  501    0 -0.00000000000E+00 -0.00000000000E+00 -0.11533487812E+03  0.11533487812E+03  0.00000000000E+00 0. -1.
    9000006    2    1    2  501    0  0.00000000000E+00  0.00000000000E+00  0.88466512188E+03  0.11153348781E+04  0.67921978216E+03 0.  0.
         13    1    3    3    0    0 -0.13240237723E+03 -0.25211239489E+03  0.13846375669E+03  0.31664374472E+03  0.00000000000E+00 0. -1.
          4    1    3    3  501    0  0.13240237723E+03  0.25211239489E+03  0.74620136519E+03  0.79869113340E+03  0.00000000000E+00 0. -1.
<mgrwt>
<rscale>  0 0.67921978E+03</rscale>
<asrwt>0</asrwt>
<pdfrwt beam="1">0</pdfrwt>
<pdfrwt beam="2">  1        2 0.41940044E+00 0.67921978E+03</pdfrwt>
<totfact> 0.33553653E+00</totfact>
</mgrwt>
</event>
<event>
 5    1  0.2357694E-004  0.6531037E+03  0.7818608E-02  0.9800973E-01
         13   -1    0    0    0    0  0.00000000000E+00  0.00000000000E+00  0.10000000000E+04  0.10000000000E+04  0.00000000000E+00 0. -1.
          2   -1    0    0  501    0 -0.00000000000E+00 -0.00000000000E+00 -0.10663609784E+03  0.10663609784E+03  0.00000000000E+00 0. -1.
    9000006    2    1    2  501    0  0.00000000000E+00  0.00000000000E+00  0.89336390216E+03  0.11066360978E+04  0.65310366050E+03 0.  0.
         13    1    3    3    0    0 -0.85143644678E+01  0.31919860355E+03  0.56254720802E+03  0.64685361880E+03  0.00000000000E+00 0. -1.
          4    1    3    3  501    0  0.85143644678E+01 -0.31919860355E+03  0.33081669414E+03  0.45978247904E+03  0.00000000000E+00 0. -1.
<mgrwt>
<rscale>  0 0.65310366E+03</rscale>
<asrwt>0</asrwt>
<pdfrwt beam="1">0</pdfrwt>
<pdfrwt beam="2">  1        2 0.38776845E+00 0.65310366E+03</pdfrwt>
<totfact> 0.44231539E+00</totfact>
</mgrwt>
</event>
<event>
 5    1  0.2357694E-004  0.6473395E+03  0.7818608E-02  0.9811784E-01
         13   -1    0    0    0    0  0.00000000000E+00  0.00000000000E+00  0.10000000000E+04  0.10000000000E+04  0.00000000000E+00 0. -1.
          2   -1    0    0  501    0 -0.00000000000E+00 -0.00000000000E+00 -0.10476209373E+03  0.10476209373E+03  0.00000000000E+00 0. -1.
    9000006    2    1    2  501    0  0.00000000000E+00  0.00000000000E+00  0.89523790627E+03  0.11047620937E+04  0.64733945881E+03 0.  0.
         13    1    3    3    0    0  0.64996028529E+02  0.31694173551E+03  0.43183421762E+03  0.53958997298E+03  0.00000000000E+00 0. -1.
          2    1    3    3  501    0 -0.64996028529E+02 -0.31694173551E+03  0.46340368864E+03  0.56517212075E+03  0.00000000000E+00 0. -1.
<mgrwt>
<rscale>  0 0.64733946E+03</rscale>
<asrwt>0</asrwt>
<pdfrwt beam="1">0</pdfrwt>
<pdfrwt beam="2">  1        2 0.38095387E+00 0.64733946E+03</pdfrwt>
<totfact> 0.46898331E+00</totfact>
</mgrwt>
</event>
<event>
 5    1  0.2357694E-004  0.6489131E+03  0.7818608E-02  0.9808821E-01
         13   -1    0    0    0    0  0.00000000000E+00  0.00000000000E+00  0.10000000000E+04  0.10000000000E+04  0.00000000000E+00 0. -1.
          2   -1    0    0  501    0 -0.00000000000E+00 -0.00000000000E+00 -0.10527204858E+03  0.10527204858E+03  0.00000000000E+00 0. -1.
    9000006    2    1    2  501    0  0.00000000000E+00  0.00000000000E+00  0.89472795142E+03  0.11052720486E+04  0.64891308688E+03 0.  0.
         13    1    3    3    0    0  0.22907788607E+03  0.22976406273E+03  0.45070436364E+03  0.55534009923E+03  0.00000000000E+00 0. -1.
          2    1    3    3  501    0 -0.22907788607E+03 -0.22976406273E+03  0.44402358778E+03  0.54993194935E+03  0.00000000000E+00 0. -1.
<mgrwt>
<rscale>  0 0.64891309E+03</rscale>
<asrwt>0</asrwt>
<pdfrwt beam="1">0</pdfrwt>
<pdfrwt beam="2">  1        2 0.38280826E+00 0.64891309E+03</pdfrwt>
<totfact> 0.46158561E+00</totfact>
</mgrwt>
</event>
<event>
 5    1  0.2357694E-004  0.6291905E+03  0.7818608E-02  0.9846630E-01
         13   -1    0    0    0    0  0.00000000000E+00  0.00000000000E+00  0.10000000000E+04  0.10000000000E+04  0.00000000000E+00 0. -1.
          2   -1    0    0  501    0 -0.00000000000E+00 -0.00000000000E+00 -0.98970186287E+02  0.98970186287E+02  0.00000000000E+00 0. -1.
    9000006    2    1    2  501    0  0.00000000000E+00  0.00000000000E+00  0.90102981371E+03  0.10989701863E+04  0.62919054757E+03 0.  0.
         13    1    3    3    0    0  0.27565621293E+03  0.13373105709E+03  0.57524812331E+03  0.65175205925E+03  0.00000000000E+00 0. -1.
          4    1    3    3  501    0 -0.27565621293E+03 -0.13373105709E+03  0.32578169040E+03  0.44721812704E+03  0.00000000000E+00 0. -1.
<mgrwt>
<rscale>  0 0.62919055E+03</rscale>
<asrwt>0</asrwt>
<pdfrwt beam="1">0</pdfrwt>
<pdfrwt beam="2">  1        2 0.35989235E+00 0.62919055E+03</pdfrwt>
<totfact> 0.56095853E+00</totfact>
</mgrwt>
</event>
<event>
 5    1  0.2357694E-004  0.6565432E+03  0.7818608E-02  0.9794578E-01
         13   -1    0    0    0    0  0.00000000000E+00  0.00000000000E+00  0.10000000000E+04  0.10000000000E+04  0.00000000000E+00 0. -1.
          2   -1    0    0  501    0 -0.00000000000E+00 -0.00000000000E+00 -0.10776222846E+03  0.10776222846E+03  0.00000000000E+00 0. -1.
    9000006    2    1    2  501    0  0.00000000000E+00  0.00000000000E+00  0.89223777154E+03  0.11077622285E+04  0.65654315458E+03 0.  0.
         13    1    3    3    0    0 -0.45885449536E+02  0.13065455725E+03  0.94830669528E+03  0.95836406241E+03  0.00000000000E+00 0. -1.
          2    1    3    3  501    0  0.45885449536E+02 -0.13065455725E+03 -0.56068923738E+02  0.14939816605E+03  0.00000000000E+00 0. -1.
<mgrwt>
<rscale>  0 0.65654315E+03</rscale>
<asrwt>0</asrwt>
<pdfrwt beam="1">0</pdfrwt>
<pdfrwt beam="2">  1        2 0.39186348E+00 0.65654315E+03</pdfrwt>
<totfact> 0.42695839E+00</totfact>
</mgrwt>
</event>
<event>
 5    1  0.2357694E-004  0.6300341E+03  0.7818608E-02  0.9844982E-01
         13   -1    0    0    0    0  0.00000000000E+00  0.00000000000E+00  0.10000000000E+04  0.10000000000E+04  0.00000000000E+00 0. -1.
          2   -1    0    0  501    0 -0.00000000000E+00 -0.00000000000E+00 -0.99235742432E+02  0.99235742432E+02  0.00000000000E+00 0. -1.
    9000006    2    1    2  501    0  0.00000000000E+00  0.00000000000E+00  0.90076425757E+03  0.10992357424E+04  0.63003410204E+03 0.  0.
         13    1    3    3    0    0  0.24013222170E+03 -0.99046150096E+02  0.76132565277E+03  0.80441927706E+03  0.00000000000E+00 0. -1.
          4    1    3    3  501    0 -0.24013222170E+03  0.99046150096E+02  0.13943860480E+03  0.29481646537E+03  0.00000000000E+00 0. -1.
<mgrwt>
<rscale>  0 0.63003410E+03</rscale>
<asrwt>0</asrwt>
<pdfrwt beam="1">0</pdfrwt>
<pdfrwt beam="2">  1        2 0.36085801E+00 0.63003410E+03</pdfrwt>
<totfact> 0.55640304E+00</totfact>
</mgrwt>
</event>
<event>
 5    1  0.2357694E-004  0.6433430E+03  0.7818608E-02  0.9819351E-01
         13   -1    0    0    0    0  0.00000000000E+00  0.00000000000E+00  0.10000000000E+04  0.10000000000E+04  0.00000000000E+00 0. -1.
          2   -1    0    0  501    0 -0.00000000000E+00 -0.00000000000E+00 -0.10347256377E+03  0.10347256377E+03  0.00000000000E+00 0. -1.
    9000006    2    1    2  501    0  0.00000000000E+00  0.00000000000E+00  0.89652743623E+03  0.11034725638E+04  0.64334303064E+03 0.  0.
         13    1    3    3    0    0  0.17692087903E+01  0.31468270485E+03  0.33391872563E+03  0.45883553716E+03  0.00000000000E+00 0. -1.
          4    1    3    3  501    0 -0.17692087903E+01 -0.31468270485E+03  0.56260871060E+03  0.64463702661E+03  0.00000000000E+00 0. -1.
<mgrwt>
<rscale>  0 0.64334303E+03</rscale>
<asrwt>0</asrwt>
<pdfrwt beam="1">0</pdfrwt>
<pdfrwt beam="2">  1        2 0.37626466E+00 0.64334303E+03</pdfrwt>
<totfact> 0.48817389E+00</totfact>
</mgrwt>
</event>
<event>
 5    1  0.2357694E-004  0.6439023E+03  0.7818608E-02  0.9818289E-01
         13   -1    0    0    0    0  0.00000000000E+00  0.00000000000E+00  0.10000000000E+04  0.10000000000E+04  0.00000000000E+00 0. -1.
          2   -1    0    0  501    0 -0.00000000000E+00 -0.00000000000E+00 -0.10365254631E+03  0.10365254631E+03  0.00000000000E+00 0. -1.
    9000006    2    1    2  501    0  0.00000000000E+00  0.00000000000E+00  0.89634745369E+03  0.11036525463E+04  0.64390231033E+03 0.  0.
         13    1    3    3    0    0 -0.10229417974E+03  0.11114054137E+03 -0.39147584408E+02  0.15604118850E+03  0.00000000000E+00 0. -1.
          2    1    3    3  501    0  0.10229417974E+03 -0.11114054137E+03  0.93549503810E+03  0.94761135781E+03  0.00000000000E+00 0. -1.
<mgrwt>
<rscale>  0 0.64390231E+03</rscale>
<asrwt>0</asrwt>
<pdfrwt beam="1">0</pdfrwt>
<pdfrwt beam="2">  1        2 0.37691915E+00 0.64390231E+03</pdfrwt>
<totfact> 0.48545313E+00</totfact>
</mgrwt>
</event>
<event>
 5    1  0.2357694E-004  0.6660793E+03  0.7818608E-02  0.9777067E-01
         13   -1    0    0    0    0  0.00000000000E+00  0.00000000000E+00  0.10000000000E+04  0.10000000000E+04  0.00000000000E+00 0. -1.
          2   -1    0    0  501    0 -0.00000000000E+00 -0.00000000000E+00 -0.11091540560E+03  0.11091540560E+03  0.00000000000E+00 0. -1.
    9000006    2    1    2  501    0  0.00000000000E+00  0.00000000000E+00  0.88908459440E+03  0.11109154056E+04  0.66607929136E+03 0.  0.
         13    1    3    3    0    0  0.26814098270E+03 -0.18725553783E+03  0.33970432671E+03  0.47155408241E+03  0.00000000000E+00 0. -1.
          2    1    3    3  501    0 -0.26814098270E+03  0.18725553783E+03  0.54938026770E+03  0.63936132319E+03  0.00000000000E+00 0. -1.
<mgrwt>
<rscale>  0 0.66607929E+03</rscale>
<asrwt>0</asrwt>
<pdfrwt beam="1">0</pdfrwt>
<pdfrwt beam="2">  1        2 0.40332960E+00 0.66607929E+03</pdfrwt>
<totfact> 0.38648380E+00</totfact>
</mgrwt>
</event>
<event>
 5    1  0.2357694E-004  0.6433161E+03  0.7818608E-02  0.9819403E-01
         13   -1    0    0    0    0  0.00000000000E+00  0.00000000000E+00  0.10000000000E+04  0.10000000000E+04  0.00000000000E+00 0. -1.
          2   -1    0    0  501    0 -0.00000000000E+00 -0.00000000000E+00 -0.10346389724E+03  0.10346389724E+03  0.00000000000E+00 0. -1.
    9000006    2    1    2  501    0  0.00000000000E+00  0.00000000000E+00  0.89653610276E+03  0.11034638972E+04  0.64331608791E+03 0.  0.
         13    1    3    3    0    0 -0.28433825635E+03 -0.15030025333E+03  0.45692756754E+03  0.55876758330E+03  0.00000000000E+00 0. -1.
          2    1    3    3  501    0  0.28433825635E+03  0.15030025333E+03  0.43960853522E+03  0.54469631394E+03  0.00000000000E+00 0. -1.
<mgrwt>
<rscale>  0 0.64331609E+03</rscale>
<asrwt>0</asrwt>
<pdfrwt beam="1">0</pdfrwt>
<pdfrwt beam="2">  1        2 0.37623315E+00 0.64331609E+03</pdfrwt>
<totfact> 0.48830525E+00</totfact>
</mgrwt>
</event>
<event>
 5    1  0.2357694E-004  0.6522164E+03  0.7818608E-02  0.9802629E-01
         13   -1    0    0    0    0  0.00000000000E+00  0.00000000000E+00  0.10000000000E+04  0.10000000000E+04  0.00000000000E+00 0. -1.
          2   -1    0    0  501    0 -0.00000000000E+00 -0.00000000000E+00 -0.10634657374E+03  0.10634657374E+03  0.00000000000E+00 0. -1.
    9000006    2    1    2  501    0  0.00000000000E+00  0.00000000000E+00  0.89365342626E+03  0.11063465737E+04  0.65221644794E+03 0.  0.
         13    1    3    3    0    0  0.29965703773E+03  0.95457534034E+02  0.30051179083E+03  0.43498714636E+03  0.00000000000E+00 0. -1.
          2    1    3    3  501    0 -0.29965703773E+03 -0.95457534034E+02  0.59314163543E+03  0.67135942739E+03  0.00000000000E+00 0. -1.
<mgrwt>
<rscale>  0 0.65221645E+03</rscale>
<asrwt>0</asrwt>
<pdfrwt beam="1">0</pdfrwt>
<pdfrwt beam="2">  1        2 0.38671563E+00 0.65221645E+03</pdfrwt>
<totfact> 0.44634350E+00</totfact>
</mgrwt>
</event>
<event>
 5    1  0.2357694E-004  0.6428327E+03  0.7818608E-02  0.9820322E-01
         13   -1    0    0    0    0  0.00000000000E+00  0.00000000000E+00  0.10000000000E+04  0.10000000000E+04  0.00000000000E+00 0. -1.
          2   -1    0    0  501    0 -0.00000000000E+00 -0.00000000000E+00 -0.10330846884E+03  0.10330846884E+03  0.00000000000E+00 0. -1.
    9000006    2    1    2  501    0  0.00000000000E+00  0.00000000000E+00  0.89669153116E+03  0.11033084688E+04  0.64283269625E+03 0.  0.
         13    1    3    3    0    0  0.12623187784E+03 -0.28328919254E+03  0.30350992299E+03  0.43394184743E+03  0.00000000000E+00 0. -1.
          4    1    3    3  501    0 -0.12623187784E+03  0.28328919254E+03  0.59318160817E+03  0.66936662142E+03  0.00000000000E+00 0. -1.
<mgrwt>
<rscale>  0 0.64283270E+03</rscale>
<asrwt>0</asrwt>
<pdfrwt beam="1">0</pdfrwt>
<pdfrwt beam="2">  1        2 0.37566795E+00 0.64283270E+03</pdfrwt>
<totfact> 0.49066660E+00</totfact>
</mgrwt>
</event>
<event>
 5    1  0.2357694E-004  0.6459430E+03  0.7818608E-02  0.9814422E-01
         13   -1    0    0    0    0  0.00000000000E+00  0.00000000000E+00  0.10000000000E+04  0.10000000000E+04  0.00000000000E+00 0. -1.
          2   -1    0    0  501    0 -0.00000000000E+00 -0.00000000000E+00 -0.10431060199E+03  0.10431060199E+03  0.00000000000E+00 0. -1.
    9000006    2    1    2  501    0  0.00000000000E+00  0.00000000000E+00  0.89568939801E+03  0.11043106020E+04  0.64594303772E+03 0.  0.
         13    1    3    3    0    0  0.29500468063E+03 -0.86618444417E+02  0.61691539700E+03  0.68928595196E+03  0.00000000000E+00 0. -1.
          4    1    3    3  501    0 -0.29500468063E+03  0.86618444417E+02  0.27877400100E+03  0.41502465004E+03  0.00000000000E+00 0. -1.
<mgrwt>
<rscale>  0 0.64594304E+03</rscale>
<asrwt>0</asrwt>
<pdfrwt beam="1">0</pdfrwt>
<pdfrwt beam="2">  1        2 0.37931208E+00 0.64594304E+03</pdfrwt>
<totfact> 0.47562272E+00</totfact>
</mgrwt>
</event>
<event>
 5    1  0.2357694E-004  0.4876831E+03  0.7818608E-02  0.1017045E+00
         13   -1    0    0    0    0  0.00000000000E+00  0.00000000000E+00  0.10000000000E+04  0.10000000000E+04  0.00000000000E+00 0. -1.
          2   -1    0    0  501    0 -0.00000000000E+00 -0.00000000000E+00 -0.59458690495E+02  0.59458690495E+02  0.00000000000E+00 0. -1.
    9000006    2    1    2  501    0  0.00000000000E+00  0.00000000000E+00  0.94054130951E+03  0.10594586905E+04  0.48768305484E+03 0.  0.
         13    1    3    3    0    0 -0.21539215280E+03 -0.10176383250E+03  0.35719905358E+03  0.42934929949E+03  0.00000000000E+00 0. -1.
          4    1    3    3  501    0  0.21539215280E+03  0.10176383250E+03  0.58334225592E+03  0.63010939101E+03  0.00000000000E+00 0. -1.
<mgrwt>
<rscale>  0 0.48768305E+03</rscale>
<asrwt>0</asrwt>
<pdfrwt beam="1">0</pdfrwt>
<pdfrwt beam="2">  1        2 0.21621388E+00 0.48768305E+03</pdfrwt>
<totfact> 0.18492377E+01</totfact>
</mgrwt>
</event>
<event>
 5    1  0.2357694E-004  0.6523372E+03  0.7818608E-02  0.9802404E-01
         13   -1    0    0    0    0  0.00000000000E+00  0.00000000000E+00  0.10000000000E+04  0.10000000000E+04  0.00000000000E+00 0. -1.
          2   -1    0    0  501    0 -0.00000000000E+00 -0.00000000000E+00 -0.10638594578E+03  0.10638594578E+03  0.00000000000E+00 0. -1.
    9000006    2    1    2  501    0  0.00000000000E+00  0.00000000000E+00  0.89361405422E+03  0.11063859458E+04  0.65233716982E+03 0.  0.
         13    1    3    3    0    0 -0.20591781497E+03  0.16063446082E+03  0.11540543734E+03  0.28552406464E+03  0.00000000000E+00 0. -1.
          2    1    3    3  501    0  0.20591781497E+03 -0.16063446082E+03  0.77820861688E+03  0.82086188114E+03  0.00000000000E+00 0. -1.
<mgrwt>
<rscale>  0 0.65233717E+03</rscale>
<asrwt>0</asrwt>
<pdfrwt beam="1">0</pdfrwt>
<pdfrwt beam="2">  1        2 0.38685880E+00 0.65233717E+03</pdfrwt>
<totfact> 0.44579378E+00</totfact>
</mgrwt>
</event>
<event>
 5    1  0.2357694E-004  0.6485345E+03  0.7818608E-02  0.9809533E-01
         13   -1    0    0    0    0  0.00000000000E+00  0.00000000000E+00  0.10000000000E+04  0.10000000000E+04  0.00000000000E+00 0. -1.
          2   -1    0    0  501    0 -0.00000000000E+00 -0.00000000000E+00 -0.10514925999E+03  0.10514925999E+03  0.00000000000E+00 0. -1.
    9000006    2    1    2  501    0  0.00000000000E+00  0.00000000000E+00  0.89485074001E+03  0.11051492600E+04  0.64853453259E+03 0.  0.
         13    1    3    3    0    0 -0.12505220128E+03 -0.17693876538E+03  0.85854082224E+03  0.88545904659E+03  0.00000000000E+00 0. -1.
          2    1    3    3  501    0  0.12505220128E+03  0.17693876538E+03  0.36309917771E+02  0.21969021340E+03  0.00000000000E+00 0. -1.
<mgrwt>
<rscale>  0 0.64853453E+03</rscale>
<asrwt>0</asrwt>
<pdfrwt beam="1">0</pdfrwt>
<pdfrwt beam="2">  1        2 0.38236175E+00 0.64853453E+03</pdfrwt>
<totfact> 0.46335709E+00</totfact>
</mgrwt>
</event>
<event>
 5    1  0.2357694E-004  0.6343476E+03  0.7818608E-02  0.9836601E-01
         13   -1    0    0    0    0  0.00000000000E+00  0.00000000000E+00  0.10000000000E+04  0.10000000000E+04  0.00000000000E+00 0. -1.
          2   -1    0    0  501    0 -0.00000000000E+00 -0.00000000000E+00 -0.10059923380E+03  0.10059923380E+03  0.00000000000E+00 0. -1.
    9000006    2    1    2  501    0  0.00000000000E+00  0.00000000000E+00  0.89940076620E+03  0.11005992338E+04  0.63434764538E+03 0.  0.
         13    1    3    3    0    0  0.27998510048E+03  0.13852938241E+03  0.54500260478E+03  0.62817981940E+03  0.00000000000E+00 0. -1.
          4    1    3    3  501    0 -0.27998510048E+03 -0.13852938241E+03  0.35439816142E+03  0.47241941440E+03  0.00000000000E+00 0. -1.
<mgrwt>
<rscale>  0 0.63434765E+03</rscale>
<asrwt>0</asrwt>
<pdfrwt beam="1">0</pdfrwt>
<pdfrwt beam="2">  1        2 0.36581617E+00 0.63434765E+03</pdfrwt>
<totfact> 0.53354554E+00</totfact>
</mgrwt>
</event>
<event>
 5    1  0.2357694E-004  0.6571364E+03  0.7818608E-02  0.9793480E-01
         13   -1    0    0    0    0  0.00000000000E+00  0.00000000000E+00  0.10000000000E+04  0.10000000000E+04  0.00000000000E+00 0. -1.
          2   -1    0    0  501    0 -0.00000000000E+00 -0.00000000000E+00 -0.10795707544E+03  0.10795707544E+03  0.00000000000E+00 0. -1.
    9000006    2    1    2  501    0  0.00000000000E+00  0.00000000000E+00  0.89204292456E+03  0.11079570754E+04  0.65713644074E+03 0.  0.
         13    1    3    3    0    0 -0.26507829393E+03  0.12859605311E+03  0.20079924097E+03  0.35654422161E+03  0.00000000000E+00 0. -1.
          2    1    3    3  501    0  0.26507829393E+03 -0.12859605311E+03  0.69124368359E+03  0.75141285383E+03  0.00000000000E+00 0. -1.
<mgrwt>
<rscale>  0 0.65713644E+03</rscale>
<asrwt>0</asrwt>
<pdfrwt beam="1">0</pdfrwt>
<pdfrwt beam="2">  1        2 0.39257201E+00 0.65713644E+03</pdfrwt>
<totfact> 0.42435070E+00</totfact>
</mgrwt>
</event>
<event>
 5    1  0.2357694E-004  0.6552674E+03  0.7818608E-02  0.9796945E-01
         13   -1    0    0    0    0  0.00000000000E+00  0.00000000000E+00  0.10000000000E+04  0.10000000000E+04  0.00000000000E+00 0. -1.
          2   -1    0    0  501    0 -0.00000000000E+00 -0.00000000000E+00 -0.10734382713E+03  0.10734382713E+03  0.00000000000E+00 0. -1.
    9000006    2    1    2  501    0  0.00000000000E+00  0.00000000000E+00  0.89265617287E+03  0.11073438271E+04  0.65526735651E+03 0.  0.
         13    1    3    3    0    0  0.24706527514E+03 -0.21379751833E+03  0.40516917933E+03  0.52049274049E+03  0.00000000000E+00 0. -1.
          2    1    3    3  501    0 -0.24706527514E+03  0.21379751833E+03  0.48748699354E+03  0.58685108664E+03  0.00000000000E+00 0. -1.
<mgrwt>
<rscale>  0 0.65526736E+03</rscale>
<asrwt>0</asrwt>
<pdfrwt beam="1">0</pdfrwt>
<pdfrwt beam="2">  1        2 0.39034201E+00 0.65526736E+03</pdfrwt>
<totfact> 0.43260692E+00</totfact>
</mgrwt>
</event>
<event>
 5    1  0.2357694E-004  0.6408159E+03  0.7818608E-02  0.9824167E-01
         13   -1    0    0    0    0  0.00000000000E+00  0.00000000000E+00  0.10000000000E+04  0.10000000000E+04  0.00000000000E+00 0. -1.
          2   -1    0    0  501    0 -0.00000000000E+00 -0.00000000000E+00 -0.10266126522E+03  0.10266126522E+03  0.00000000000E+00 0. -1.
    9000006    2    1    2  501    0  0.00000000000E+00  0.00000000000E+00  0.89733873478E+03  0.11026612652E+04  0.64081593370E+03 0.  0.
         13    1    3    3    0    0  0.98997306369E+02 -0.39937144229E+02 -0.71162505582E+02  0.12829475577E+03  0.00000000000E+00 0. -1.
          2    1    3    3  501    0 -0.98997306369E+02  0.39937144229E+02  0.96850124036E+03  0.97436650945E+03  0.00000000000E+00 0. -1.
<mgrwt>
<rscale>  0 0.64081593E+03</rscale>
<asrwt>0</asrwt>
<pdfrwt beam="1">0</pdfrwt>
<pdfrwt beam="2">  1        2 0.37331448E+00 0.64081593E+03</pdfrwt>
<totfact> 0.50061265E+00</totfact>
</mgrwt>
</event>
<event>
 5    1  0.2357694E-004  0.6467520E+03  0.7818608E-02  0.9812893E-01
         13   -1    0    0    0    0  0.00000000000E+00  0.00000000000E+00  0.10000000000E+04  0.10000000000E+04  0.00000000000E+00 0. -1.
          2   -1    0    0  501    0 -0.00000000000E+00 -0.00000000000E+00 -0.10457203670E+03  0.10457203670E+03  0.00000000000E+00 0. -1.
    9000006    2    1    2  501    0  0.00000000000E+00  0.00000000000E+00  0.89542796330E+03  0.11045720367E+04  0.64675199791E+03 0.  0.
         13    1    3    3    0    0 -0.66198922187E+02  0.41068104887E+02 -0.88306426690E+02  0.11775785126E+03  0.00000000000E+00 0. -1.
          2    1    3    3  501    0  0.66198922187E+02 -0.41068104887E+02  0.98373438999E+03  0.98681418544E+03  0.00000000000E+00 0. -1.
<mgrwt>
<rscale>  0 0.64675200E+03</rscale>
<asrwt>0</asrwt>
<pdfrwt beam="1">0</pdfrwt>
<pdfrwt beam="2">  1        2 0.38026275E+00 0.64675200E+03</pdfrwt>
<totfact> 0.47176784E+00</totfact>
</mgrwt>
</event>
<event>
 5    1  0.2357694E-004  0.6502502E+03  0.7818608E-02  0.9806310E-01
         13   -1    0    0    0    0  0.00000000000E+00  0.00000000000E+00  0.10000000000E+04  0.10000000000E+04  0.00000000000E+00 0. -1.
          2   -1    0    0  501    0 -0.00000000000E+00 -0.00000000000E+00 -0.10570632162E+03  0.10570632162E+03  0.00000000000E+00 0. -1.
    9000006    2    1    2  501    0  0.00000000000E+00  0.00000000000E+00  0.89429367838E+03  0.11057063216E+04  0.65025017224E+03 0.  0.
         13    1    3    3    0    0  0.19672140735E+03 -0.51813505734E+02  0.15885689737E+02  0.20404976507E+03  0.00000000000E+00 0. -1.
          4    1    3    3  501    0 -0.19672140735E+03  0.51813505734E+02  0.87840798864E+03  0.90165655656E+03  0.00000000000E+00 0. -1.
<mgrwt>
<rscale>  0 0.65025017E+03</rscale>
<asrwt>0</asrwt>
<pdfrwt beam="1">0</pdfrwt>
<pdfrwt beam="2">  1        2 0.38438743E+00 0.65025017E+03</pdfrwt>
<totfact> 0.45536952E+00</totfact>
</mgrwt>
</event>
<event>
 5    1  0.2357694E-004  0.6548934E+03  0.7818608E-02  0.9797640E-01
         13   -1    0    0    0    0  0.00000000000E+00  0.00000000000E+00  0.10000000000E+04  0.10000000000E+04  0.00000000000E+00 0. -1.
          2   -1    0    0  501    0 -0.00000000000E+00 -0.00000000000E+00 -0.10722132746E+03  0.10722132746E+03  0.00000000000E+00 0. -1.
    9000006    2    1    2  501    0  0.00000000000E+00  0.00000000000E+00  0.89277867254E+03  0.11072213275E+04  0.65489335761E+03 0.  0.
         13    1    3    3    0    0  0.16325022488E+03  0.25072644752E+03  0.22141363430E+03  0.37220744869E+03  0.00000000000E+00 0. -1.
          2    1    3    3  501    0 -0.16325022488E+03 -0.25072644752E+03  0.67136503824E+03  0.73501387876E+03  0.00000000000E+00 0. -1.
<mgrwt>
<rscale>  0 0.65489336E+03</rscale>
<asrwt>0</asrwt>
<pdfrwt beam="1">0</pdfrwt>
<pdfrwt beam="2">  1        2 0.38989656E+00 0.65489336E+03</pdfrwt>
<totfact> 0.43427343E+00</totfact>
</mgrwt>
</event>
<event>
 5    1  0.2357694E-004  0.6377562E+03  0.7818608E-02  0.9830029E-01
         13   -1    0    0    0    0  0.00000000000E+00  0.00000000000E+00  0.10000000000E+04  0.10000000000E+04  0.00000000000E+00 0. -1.
          2   -1    0    0  501    0 -0.00000000000E+00 -0.00000000000E+00 -0.10168323308E+03  0.10168323308E+03  0.00000000000E+00 0. -1.
    9000006    2    1    2  501    0  0.00000000000E+00  0.00000000000E+00  0.89831676692E+03  0.11016832331E+04  0.63775616996E+03 0.  0.
         13    1    3    3    0    0 -0.25057299130E+03 -0.18948904389E+03  0.54362106631E+03  0.62786685329E+03  0.00000000000E+00 0. -1.
          4    1    3    3  501    0  0.25057299130E+03  0.18948904389E+03  0.35469570061E+03  0.47381637979E+03  0.00000000000E+00 0. -1.
<mgrwt>
<rscale>  0 0.63775617E+03</rscale>
<asrwt>0</asrwt>
<pdfrwt beam="1">0</pdfrwt>
<pdfrwt beam="2">  1        2 0.36975799E+00 0.63775617E+03</pdfrwt>
<totfact> 0.51599318E+00</totfact>
</mgrwt>
</event>
<event>
 5    1  0.2357694E-004  0.6598660E+03  0.7818608E-02  0.9788441E-01
         13   -1    0    0    0    0  0.00000000000E+00  0.00000000000E+00  0.10000000000E+04  0.10000000000E+04  0.00000000000E+00 0. -1.
          2   -1    0    0  501    0 -0.00000000000E+00 -0.00000000000E+00 -0.10885576901E+03  0.10885576901E+03  0.00000000000E+00 0. -1.
    9000006    2    1    2  501    0  0.00000000000E+00  0.00000000000E+00  0.89114423099E+03  0.11088557690E+04  0.65986595309E+03 0.  0.
         13    1    3    3    0    0 -0.23939675845E+03  0.18700165428E+03  0.22922525709E+03  0.38055833344E+03  0.00000000000E+00 0. -1.
          4    1    3    3  501    0  0.23939675845E+03 -0.18700165428E+03  0.66191897389E+03  0.72829743557E+03  0.00000000000E+00 0. -1.
<mgrwt>
<rscale>  0 0.65986595E+03</rscale>
<asrwt>0</asrwt>
<pdfrwt beam="1">0</pdfrwt>
<pdfrwt beam="2">  1        2 0.39583999E+00 0.65986595E+03</pdfrwt>
<totfact> 0.41250875E+00</totfact>
</mgrwt>
</event>
<event>
 5    1  0.2357694E-004  0.6536065E+03  0.7818608E-02  0.9800035E-01
         13   -1    0    0    0    0  0.00000000000E+00  0.00000000000E+00  0.10000000000E+04  0.10000000000E+04  0.00000000000E+00 0. -1.
          2   -1    0    0  501    0 -0.00000000000E+00 -0.00000000000E+00 -0.10680035101E+03  0.10680035101E+03  0.00000000000E+00 0. -1.
    9000006    2    1    2  501    0  0.00000000000E+00  0.00000000000E+00  0.89319964899E+03  0.11068003510E+04  0.65360645960E+03 0.  0.
         13    1    3    3    0    0  0.71249703266E+02 -0.13749394059E+03 -0.40725063372E+02  0.16012381054E+03  0.00000000000E+00 0. -1.
          4    1    3    3  501    0 -0.71249703266E+02  0.13749394059E+03  0.93392471236E+03  0.94667654047E+03  0.00000000000E+00 0. -1.
<mgrwt>
<rscale>  0 0.65360646E+03</rscale>
<asrwt>0</asrwt>
<pdfrwt beam="1">0</pdfrwt>
<pdfrwt beam="2">  1        2 0.38836573E+00 0.65360646E+03</pdfrwt>
<totfact> 0.44004481E+00</totfact>
</mgrwt>
</event>
<event>
 5    1  0.2357694E-004  0.6424239E+03  0.7818608E-02  0.9821100E-01
         13   -1    0    0    0    0  0.00000000000E+00  0.00000000000E+00  0.10000000000E+04  0.10000000000E+04  0.00000000000E+00 0. -1.
          2   -1    0    0  501    0 -0.00000000000E+00 -0.00000000000E+00 -0.10317710562E+03  0.10317710562E+03  0.00000000000E+00 0. -1.
    9000006    2    1    2  501    0  0.00000000000E+00  0.00000000000E+00  0.89682289438E+03  0.11031771056E+04  0.64242386511E+03 0.  0.
         13    1    3    3    0    0 -0.54407254377E+02  0.31610161472E+03  0.41883125574E+03  0.52754146845E+03  0.00000000000E+00 0. -1.
          2    1    3    3  501    0  0.54407254377E+02 -0.31610161472E+03  0.47799163865E+03  0.57563563716E+03  0.00000000000E+00 0. -1.
<mgrwt>
<rscale>  0 0.64242387E+03</rscale>
<asrwt>0</asrwt>
<pdfrwt beam="1">0</pdfrwt>
<pdfrwt beam="2">  1        2 0.37519027E+00 0.64242387E+03</pdfrwt>
<totfact> 0.49267058E+00</totfact>
</mgrwt>
</event>
<event>
 5    1  0.2357694E-004  0.6715866E+03  0.7818608E-02  0.9767096E-01
         13   -1    0    0    0    0  0.00000000000E+00  0.00000000000E+00  0.10000000000E+04  0.10000000000E+04  0.00000000000E+00 0. -1.
          2   -1    0    0  501    0 -0.00000000000E+00 -0.00000000000E+00 -0.11275713352E+03  0.11275713352E+03  0.00000000000E+00 0. -1.
    9000006    2    1    2  501    0  0.00000000000E+00  0.00000000000E+00  0.88724286648E+03  0.11127571335E+04  0.67158657974E+03 0.  0.
         13    1    3    3    0    0 -0.18606030542E+03  0.26543804725E+03  0.58883823036E+03  0.67216534849E+03  0.00000000000E+00 0. -1.
          2    1    3    3  501    0  0.18606030542E+03 -0.26543804725E+03  0.29840463612E+03  0.44059178503E+03  0.00000000000E+00 0. -1.
<mgrwt>
<rscale>  0 0.67158658E+03</rscale>
<asrwt>0</asrwt>
<pdfrwt beam="1">0</pdfrwt>
<pdfrwt beam="2">  1        2 0.41002680E+00 0.67158658E+03</pdfrwt>
<totfact> 0.36446892E+00</totfact>
</mgrwt>
</event>
<event>
 5    1  0.2357694E-004  0.6505403E+03  0.7818608E-02  0.9805766E-01
         13   -1    0    0    0    0  0.00000000000E+00  0.00000000000E+00  0.10000000000E+04  0.10000000000E+04  0.00000000000E+00 0. -1.
          2   -1    0    0  501    0 -0.00000000000E+00 -0.00000000000E+00 -0.10580068098E+03  0.10580068098E+03  0.00000000000E+00 0. -1.
    9000006    2    1    2  501    0  0.00000000000E+00  0.00000000000E+00  0.89419931902E+03  0.11058006810E+04  0.65054033227E+03 0.  0.
         13    1    3    3    0    0  0.22554188223E+03  0.14021709809E+03  0.12786524709E+03  0.29475328098E+03  0.00000000000E+00 0. -1.
          4    1    3    3  501    0 -0.22554188223E+03 -0.14021709809E+03  0.76633407193E+03  0.81104740000E+03  0.00000000000E+00 0. -1.
<mgrwt>
<rscale>  0 0.65054033E+03</rscale>
<asrwt>0</asrwt>
<pdfrwt beam="1">0</pdfrwt>
<pdfrwt beam="2">  1        2 0.38473056E+00 0.65054033E+03</pdfrwt>
<totfact> 0.45402897E+00</totfact>
</mgrwt>
</event>
<event>
 5    1  0.2357694E-004  0.6516892E+03  0.7818608E-02  0.9803615E-01
         13   -1    0    0    0    0  0.00000000000E+00  0.00000000000E+00  0.10000000000E+04  0.10000000000E+04  0.00000000000E+00 0. -1.
          2   -1    0    0  501    0 -0.00000000000E+00 -0.00000000000E+00 -0.10617470927E+03  0.10617470927E+03  0.00000000000E+00 0. -1.
    9000006    2    1    2  501    0  0.00000000000E+00  0.00000000000E+00  0.89382529073E+03  0.11061747093E+04  0.65168921817E+03 0.  0.
         13    1    3    3    0    0 -0.30504419838E+02  0.31285848733E+03  0.30125512920E+03  0.43539132467E+03  0.00000000000E+00 0. -1.
          2    1    3    3  501    0  0.30504419838E+02 -0.31285848733E+03  0.59257016153E+03  0.67078338460E+03  0.00000000000E+00 0. -1.
<mgrwt>
<rscale>  0 0.65168922E+03</rscale>
<asrwt>0</asrwt>
<pdfrwt beam="1">0</pdfrwt>
<pdfrwt beam="2">  1        2 0.38609067E+00 0.65168922E+03</pdfrwt>
<totfact> 0.44875032E+00</totfact>
</mgrwt>
</event>
<event>
 5    1  0.2357694E-004  0.6514403E+03  0.7818608E-02  0.9804080E-01
         13   -1    0    0    0    0  0.00000000000E+00  0.00000000000E+00  0.10000000000E+04  0.10000000000E+04  0.00000000000E+00 0. -1.
          2   -1    0    0  501    0 -0.00000000000E+00 -0.00000000000E+00 -0.10609362692E+03  0.10609362692E+03  0.00000000000E+00 0. -1.
    9000006    2    1    2  501    0  0.00000000000E+00  0.00000000000E+00  0.89390637308E+03  0.11060936269E+04  0.65144033316E+03 0.  0.
         13    1    3    3    0    0 -0.19426454897E+03  0.23144766046E+03  0.65342258972E+03  0.71990819920E+03  0.00000000000E+00 0. -1.
          2    1    3    3  501    0  0.19426454897E+03 -0.23144766046E+03  0.24048378336E+03  0.38618542771E+03  0.00000000000E+00 0. -1.
<mgrwt>
<rscale>  0 0.65144033E+03</rscale>
<asrwt>0</asrwt>
<pdfrwt beam="1">0</pdfrwt>
<pdfrwt beam="2">  1        2 0.38579582E+00 0.65144033E+03</pdfrwt>
<totfact> 0.44988989E+00</totfact>
</mgrwt>
</event>
<event>
 5    1  0.2357694E-004  0.6299094E+03  0.7818608E-02  0.9845226E-01
         13   -1    0    0    0    0  0.00000000000E+00  0.00000000000E+00  0.10000000000E+04  0.10000000000E+04  0.00000000000E+00 0. -1.
          2   -1    0    0  501    0 -0.00000000000E+00 -0.00000000000E+00 -0.99196452708E+02  0.99196452708E+02  0.00000000000E+00 0. -1.
    9000006    2    1    2  501    0  0.00000000000E+00  0.00000000000E+00  0.90080354729E+03  0.10991964527E+04  0.62990936716E+03 0.  0.
         13    1    3    3    0    0  0.26990217785E+01 -0.27544502218E+03  0.18392819936E+03  0.33122020995E+03  0.00000000000E+00 0. -1.
          2    1    3    3  501    0 -0.26990217785E+01  0.27544502218E+03  0.71687534793E+03  0.76797624275E+03  0.00000000000E+00 0. -1.
<mgrwt>
<rscale>  0 0.62990937E+03</rscale>
<asrwt>0</asrwt>
<pdfrwt beam="1">0</pdfrwt>
<pdfrwt beam="2">  1        2 0.36071513E+00 0.62990937E+03</pdfrwt>
<totfact> 0.55707487E+00</totfact>
</mgrwt>
</event>
<event>
 5    1  0.2357694E-004  0.6567250E+03  0.7818608E-02  0.9794241E-01
         13   -1    0    0    0    0  0.00000000000E+00  0.00000000000E+00  0.10000000000E+04  0.10000000000E+04  0.00000000000E+00 0. -1.
          2   -1    0    0  501    0 -0.00000000000E+00 -0.00000000000E+00 -0.10782191905E+03  0.10782191905E+03  0.00000000000E+00 0. -1.
    9000006    2    1    2  501    0  0.00000000000E+00  0.00000000000E+00  0.89217808095E+03  0.11078219191E+04  0.65672496237E+03 0.  0.
         13    1    3    3    0    0 -0.13499369018E+03 -0.41448094099E+02 -0.53983640027E+02  0.15118027082E+03  0.00000000000E+00 0. -1.
          2    1    3    3  501    0  0.13499369018E+03  0.41448094099E+02  0.94616172098E+03  0.95664164823E+03  0.00000000000E+00 0. -1.
<mgrwt>
<rscale>  0 0.65672496E+03</rscale>
<asrwt>0</asrwt>
<pdfrwt beam="1">0</pdfrwt>
<pdfrwt beam="2">  1        2 0.39208053E+00 0.65672496E+03</pdfrwt>
<totfact> 0.42615800E+00</totfact>
</mgrwt>
</event>
<event>
 5    1  0.2357694E-004  0.6599590E+03  0.7818608E-02  0.9788269E-01
         13   -1    0    0    0    0  0.00000000000E+00  0.00000000000E+00  0.10000000000E+04  0.10000000000E+04  0.00000000000E+00 0. -1.
          2   -1    0    0  501    0 -0.00000000000E+00 -0.00000000000E+00 -0.10888647120E+03  0.10888647120E+03  0.00000000000E+00 0. -1.
    9000006    2    1    2  501    0  0.00000000000E+00  0.00000000000E+00  0.89111352880E+03  0.11088864712E+04  0.65995900235E+03 0.  0.
         13    1    3    3    0    0  0.25213840088E+03 -0.16277396093E+03  0.21506830061E+03  0.36922013688E+03  0.00000000000E+00 0. -1.
          2    1    3    3  501    0 -0.25213840088E+03  0.16277396093E+03  0.67604522820E+03  0.73966633431E+03  0.00000000000E+00 0. -1.
<mgrwt>
<rscale>  0 0.65995900E+03</rscale>
<asrwt>0</asrwt>
<pdfrwt beam="1">0</pdfrwt>
<pdfrwt beam="2">  1        2 0.39595164E+00 0.65995900E+03</pdfrwt>
<totfact> 0.41210952E+00</totfact>
</mgrwt>
</event>
<event>
 5    1  0.2357694E-004  0.5117452E+03  0.7818608E-02  0.1010758E+00
         13   -1    0    0    0    0  0.00000000000E+00  0.00000000000E+00  0.10000000000E+04  0.10000000000E+04  0.00000000000E+00 0. -1.
          2   -1    0    0  501    0 -0.00000000000E+00 -0.00000000000E+00 -0.65470792902E+02  0.65470792902E+02  0.00000000000E+00 0. -1.
    9000006    2    1    2  501    0  0.00000000000E+00  0.00000000000E+00  0.93452920710E+03  0.10654707929E+04  0.51174522138E+03 0.  0.
         13    1    3    3    0    0  0.13124548657E+03 -0.21964741531E+03  0.46862687192E+03  0.53393024814E+03  0.00000000000E+00 0. -1.
          2    1    3    3  501    0 -0.13124548657E+03  0.21964741531E+03  0.46590233518E+03  0.53154054476E+03  0.00000000000E+00 0. -1.
<mgrwt>
<rscale>  0 0.51174522E+03</rscale>
<asrwt>0</asrwt>
<pdfrwt beam="1">0</pdfrwt>
<pdfrwt beam="2">  1        2 0.23807611E+00 0.51174522E+03</pdfrwt>
<totfact> 0.15390493E+01</totfact>
</mgrwt>
</event>
<event>
 5    1  0.2357694E-004  0.6475397E+03  0.7818608E-02  0.9811407E-01
         13   -1    0    0    0    0  0.00000000000E+00  0.00000000000E+00  0.10000000000E+04  0.10000000000E+04  0.00000000000E+00 0. -1.
          2   -1    0    0  501    0 -0.00000000000E+00 -0.00000000000E+00 -0.10482691585E+03  0.10482691585E+03  0.00000000000E+00 0. -1.
    9000006    2    1    2  501    0  0.00000000000E+00  0.00000000000E+00  0.89517308415E+03  0.11048269159E+04  0.64753970026E+03 0.  0.
         13    1    3    3    0    0 -0.23845420724E+03  0.46196577766E+02  0.81285659356E+03  0.84836924416E+03  0.00000000000E+00 0. -1.
          4    1    3    3  501    0  0.23845420724E+03 -0.46196577766E+02  0.82316490588E+02  0.25645767169E+03  0.00000000000E+00 0. -1.
<mgrwt>
<rscale>  0 0.64753970E+03</rscale>
<asrwt>0</asrwt>
<pdfrwt beam="1">0</pdfrwt>
<pdfrwt beam="2">  1        2 0.38118959E+00 0.64753970E+03</pdfrwt>
<totfact> 0.46803702E+00</totfact>
</mgrwt>
</event>
<event>
 5    1  0.2357694E-004  0.6648959E+03  0.7818608E-02  0.9779223E-01
         13   -1    0    0    0    0  0.00000000000E+00  0.00000000000E+00  0.10000000000E+04  0.10000000000E+04  0.00000000000E+00 0. -1.
          2   -1    0    0  501    0 -0.00000000000E+00 -0.00000000000E+00 -0.11052162861E+03  0.11052162861E+03  0.00000000000E+00 0. -1.
    9000006    2    1    2  501    0  0.00000000000E+00  0.00000000000E+00  0.88947837139E+03  0.11105216286E+04  0.66489586736E+03 0.  0.
         13    1    3    3    0    0 -0.32928547240E+03  0.39360648611E+02  0.40580317689E+03  0.52407480513E+03  0.00000000000E+00 0. -1.
          4    1    3    3  501    0  0.32928547240E+03 -0.39360648611E+02  0.48367519450E+03  0.58644682348E+03  0.00000000000E+00 0. -1.
<mgrwt>
<rscale>  0 0.66489587E+03</rscale>
<asrwt>0</asrwt>
<pdfrwt beam="1">0</pdfrwt>
<pdfrwt beam="2">  1        2 0.40189768E+00 0.66489587E+03</pdfrwt>
<totfact> 0.39134237E+00</totfact>
</mgrwt>
</event>
<event>
 5    1  0.2357694E-004  0.6528869E+03  0.7818608E-02  0.9801377E-01
         13   -1    0    0    0    0  0.00000000000E+00  0.00000000000E+00  0.10000000000E+04  0.10000000000E+04  0.00000000000E+00 0. -1.
          2   -1    0    0  501    0 -0.00000000000E+00 -0.00000000000E+00 -0.10656533438E+03  0.10656533438E+03  0.00000000000E+00 0. -1.
    9000006    2    1    2  501    0  0.00000000000E+00  0.00000000000E+00  0.89343466562E+03  0.11065653344E+04  0.65288692552E+03 0.  0.
         13    1    3    3    0    0 -0.31041160155E+03 -0.71151860592E+02  0.56831700504E+03  0.65146156285E+03  0.00000000000E+00 0. -1.
          2    1    3    3  501    0  0.31041160155E+03  0.71151860592E+02  0.32511766058E+03  0.45510377153E+03  0.00000000000E+00 0. -1.
<mgrwt>
<rscale>  0 0.65288693E+03</rscale>
<asrwt>0</asrwt>
<pdfrwt beam="1">0</pdfrwt>
<pdfrwt beam="2">  1        2 0.38751112E+00 0.65288693E+03</pdfrwt>
<totfact> 0.44329686E+00</totfact>
</mgrwt>
</event>
<event>
 5    1  0.2357694E-004  0.6552146E+03  0.7818608E-02  0.9797043E-01
         13   -1    0    0    0    0  0.00000000000E+00  0.00000000000E+00  0.10000000000E+04  0.10000000000E+04  0.00000000000E+00 0. -1.
          2   -1    0    0  501    0 -0.00000000000E+00 -0.00000000000E+00 -0.10732654737E+03  0.10732654737E+03  0.00000000000E+00 0. -1.
    9000006    2    1    2  501    0  0.00000000000E+00  0.00000000000E+00  0.89267345263E+03  0.11073265474E+04  0.65521461329E+03 0.  0.
         13    1    3    3    0    0  0.20266082066E+03  0.33444389475E+02  0.87766181431E+03  0.90137683336E+03  0.00000000000E+00 0. -1.
          2    1    3    3  501    0 -0.20266082066E+03 -0.33444389475E+02  0.15011638323E+02  0.20594971401E+03  0.00000000000E+00 0. -1.
<mgrwt>
<rscale>  0 0.65521461E+03</rscale>
<asrwt>0</asrwt>
<pdfrwt beam="1">0</pdfrwt>
<pdfrwt beam="2">  1        2 0.39027918E+00 0.65521461E+03</pdfrwt>
<totfact> 0.43284165E+00</totfact>
</mgrwt>
</event>
<event>
 5    1  0.2357694E-004  0.6630365E+03  0.7818608E-02  0.9782620E-01
         13   -1    0    0    0    0  0.00000000000E+00  0.00000000000E+00  0.10000000000E+04  0.10000000000E+04  0.00000000000E+00 0. -1.
          2   -1    0    0  501    0 -0.00000000000E+00 -0.00000000000E+00 -0.10990434833E+03  0.10990434833E+03  0.00000000000E+00 0. -1.
    9000006    2    1    2  501    0  0.00000000000E+00  0.00000000000E+00  0.89009565167E+03  0.11099043483E+04  0.66303649473E+03 0.  0.
         13    1    3    3    0    0 -0.15651048025E+03  0.27860680587E+03  0.29732927554E+03  0.43648823673E+03  0.00000000000E+00 0. -1.
          4    1    3    3  501    0  0.15651048025E+03 -0.27860680587E+03  0.59276637613E+03  0.67341611161E+03  0.00000000000E+00 0. -1.
<mgrwt>
<rscale>  0 0.66303649E+03</rscale>
<asrwt>0</asrwt>
<pdfrwt beam="1">0</pdfrwt>
<pdfrwt beam="2">  1        2 0.39965302E+00 0.66303649E+03</pdfrwt>
<totfact> 0.39906893E+00</totfact>
</mgrwt>
</event>
<event>
 5    1  0.2357694E-004  0.6479376E+03  0.7818608E-02  0.9810657E-01
         13   -1    0    0    0    0  0.00000000000E+00  0.00000000000E+00  0.10000000000E+04  0.10000000000E+04  0.00000000000E+00 0. -1.
          2   -1    0    0  501    0 -0.00000000000E+00 -0.00000000000E+00 -0.10495578841E+03  0.10495578841E+03  0.00000000000E+00 0. -1.
    9000006    2    1    2  501    0  0.00000000000E+00  0.00000000000E+00  0.89504421159E+03  0.11049557884E+04  0.64793761554E+03 0.  0.
         13    1    3    3    0    0 -0.28816350615E+03 -0.37434684374E+02  0.20325755109E+03  0.35461696793E+03  0.00000000000E+00 0. -1.
          4    1    3    3  501    0  0.28816350615E+03  0.37434684374E+02  0.69178666051E+03  0.75033882048E+03  0.00000000000E+00 0. -1.
<mgrwt>
<rscale>  0 0.64793762E+03</rscale>
<asrwt>0</asrwt>
<pdfrwt beam="1">0</pdfrwt>
<pdfrwt beam="2">  1        2 0.38165822E+00 0.64793762E+03</pdfrwt>
<totfact> 0.46616086E+00</totfact>
</mgrwt>
</event>
<event>
 5    1  0.2357694E-004  0.6497149E+03  0.7818608E-02  0.9807314E-01
         13   -1    0    0    0    0  0.00000000000E+00  0.00000000000E+00  0.10000000000E+04  0.10000000000E+04  0.00000000000E+00 0. -1.
          2   -1    0    0  501    0 -0.00000000000E+00 -0.00000000000E+00 -0.10553237069E+03  0.10553237069E+03  0.00000000000E+00 0. -1.
    9000006    2    1    2  501    0  0.00000000000E+00  0.00000000000E+00  0.89446762931E+03  0.11055323707E+04  0.64971492422E+03 0.  0.
         13    1    3    3    0    0  0.26013389078E+03  0.16378483631E+03  0.62599745796E+03  0.69740083963E+03  0.00000000000E+00 0. -1.
          4    1    3    3  501    0 -0.26013389078E+03 -0.16378483631E+03  0.26847017135E+03  0.40813153106E+03  0.00000000000E+00 0. -1.
<mgrwt>
<rscale>  0 0.64971492E+03</rscale>
<asrwt>0</asrwt>
<pdfrwt beam="1">0</pdfrwt>
<pdfrwt beam="2">  1        2 0.38375488E+00 0.64971492E+03</pdfrwt>
<totfact> 0.45785023E+00</totfact>
</mgrwt>
</event>
<event>
 5    1  0.2357694E-004  0.6212767E+03  0.7818608E-02  0.9862221E-01
         13   -1    0    0    0    0  0.00000000000E+00  0.00000000000E+00  0.10000000000E+04  0.10000000000E+04  0.00000000000E+00 0. -1.
          2   -1    0    0  501    0 -0.00000000000E+00 -0.00000000000E+00 -0.96496187881E+02  0.96496187881E+02  0.00000000000E+00 0. -1.
    9000006    2    1    2  501    0  0.00000000000E+00  0.00000000000E+00  0.90350381212E+03  0.10964961879E+04  0.62127671091E+03 0.  0.
         13    1    3    3    0    0 -0.25663896157E+03  0.17300176108E+03  0.40495614714E+03  0.50968877468E+03  0.00000000000E+00 0. -1.
          2    1    3    3  501    0  0.25663896157E+03 -0.17300176108E+03  0.49854766498E+03  0.58680741320E+03  0.00000000000E+00 0. -1.
<mgrwt>
<rscale>  0 0.62127671E+03</rscale>
<asrwt>0</asrwt>
<pdfrwt beam="1">0</pdfrwt>
<pdfrwt beam="2">  1        2 0.35089597E+00 0.62127671E+03</pdfrwt>
<totfact> 0.60509273E+00</totfact>
</mgrwt>
</event>
<event>
 5    1  0.2357694E-004  0.6485859E+03  0.7818608E-02  0.9809436E-01
         13   -1    0    0    0    0  0.00000000000E+00  0.00000000000E+00  0.10000000000E+04  0.10000000000E+04  0.00000000000E+00 0. -1.
          2   -1    0    0  501    0 -0.00000000000E+00 -0.00000000000E+00 -0.10516591880E+03  0.10516591880E+03  0.00000000000E+00 0. -1.
    9000006    2    1    2  501    0  0.00000000000E+00  0.00000000000E+00  0.89483408120E+03  0.11051659188E+04  0.64858590426E+03 0.  0.
         13    1    3    3    0    0 -0.30580087693E+03  0.10762281012E+03  0.46157872180E+03  0.56404943224E+03  0.00000000000E+00 0. -1.
          2    1    3    3  501    0  0.30580087693E+03 -0.10762281012E+03  0.43325535939E+03  0.54111648656E+03  0.00000000000E+00 0. -1.
<mgrwt>
<rscale>  0 0.64858590E+03</rscale>
<asrwt>0</asrwt>
<pdfrwt beam="1">0</pdfrwt>
<pdfrwt beam="2">  1        2 0.38242233E+00 0.64858590E+03</pdfrwt>
<totfact> 0.46311639E+00</totfact>
</mgrwt>
</event>
<event>
 5    1  0.2357694E-004  0.6424296E+03  0.7818608E-02  0.9821089E-01
         13   -1    0    0    0    0  0.00000000000E+00  0.00000000000E+00  0.10000000000E+04  0.10000000000E+04  0.00000000000E+00 0. -1.
          2   -1    0    0  501    0 -0.00000000000E+00 -0.00000000000E+00 -0.10317894777E+03  0.10317894777E+03  0.00000000000E+00 0. -1.
    9000006    2    1    2  501    0  0.00000000000E+00  0.00000000000E+00  0.89682105223E+03  0.11031789478E+04  0.64242960010E+03 0.  0.
         13    1    3    3    0    0 -0.23933592346E+02 -0.29879581367E+03  0.25017122378E+03  0.39043231976E+03  0.00000000000E+00 0. -1.
          2    1    3    3  501    0  0.23933592346E+02  0.29879581367E+03  0.64664982845E+03  0.71274662801E+03  0.00000000000E+00 0. -1.
<mgrwt>
<rscale>  0 0.64242960E+03</rscale>
<asrwt>0</asrwt>
<pdfrwt beam="1">0</pdfrwt>
<pdfrwt beam="2">  1        2 0.37519696E+00 0.64242960E+03</pdfrwt>
<totfact> 0.49264243E+00</totfact>
</mgrwt>
</event>
<event>
 5    1  0.2357694E-004  0.6396753E+03  0.7818608E-02  0.9826348E-01
         13   -1    0    0    0    0  0.00000000000E+00  0.00000000000E+00  0.10000000000E+04  0.10000000000E+04  0.00000000000E+00 0. -1.
          2   -1    0    0  501    0 -0.00000000000E+00 -0.00000000000E+00 -0.10229611008E+03  0.10229611008E+03  0.00000000000E+00 0. -1.
    9000006    2    1    2  501    0  0.00000000000E+00  0.00000000000E+00  0.89770388992E+03  0.11022961101E+04  0.63967526160E+03 0.  0.
         13    1    3    3    0    0 -0.10615020398E+03  0.28879999794E+03  0.59930331181E+03  0.67367482079E+03  0.00000000000E+00 0. -1.
          2    1    3    3  501    0  0.10615020398E+03 -0.28879999794E+03  0.29840057811E+03  0.42862128929E+03  0.00000000000E+00 0. -1.
<mgrwt>
<rscale>  0 0.63967526E+03</rscale>
<asrwt>0</asrwt>
<pdfrwt beam="1">0</pdfrwt>
<pdfrwt beam="2">  1        2 0.37198664E+00 0.63967526E+03</pdfrwt>
<totfact> 0.50630529E+00</totfact>
</mgrwt>
</event>
<event>
 5    1  0.2357694E-004  0.6518318E+03  0.7818608E-02  0.9803348E-01
         13   -1    0    0    0    0  0.00000000000E+00  0.00000000000E+00  0.10000000000E+04  0.10000000000E+04  0.00000000000E+00 0. -1.
          2   -1    0    0  501    0 -0.00000000000E+00 -0.00000000000E+00 -0.10622117834E+03  0.10622117834E+03  0.00000000000E+00 0. -1.
    9000006    2    1    2  501    0  0.00000000000E+00  0.00000000000E+00  0.89377882166E+03  0.11062211783E+04  0.65183181369E+03 0.  0.
         13    1    3    3    0    0  0.19453300376E+03  0.20276977703E+03  0.72710307241E+03  0.77951109674E+03  0.00000000000E+00 0. -1.
          2    1    3    3  501    0 -0.19453300376E+03 -0.20276977703E+03  0.16667574925E+03  0.32671008160E+03  0.00000000000E+00 0. -1.
<mgrwt>
<rscale>  0 0.65183181E+03</rscale>
<asrwt>0</asrwt>
<pdfrwt beam="1">0</pdfrwt>
<pdfrwt beam="2">  1        2 0.38625964E+00 0.65183181E+03</pdfrwt>
<totfact> 0.44809840E+00</totfact>
</mgrwt>
</event>
<event>
 5    1  0.2357694E-004  0.6523919E+03  0.7818608E-02  0.9802301E-01
         13   -1    0    0    0    0  0.00000000000E+00  0.00000000000E+00  0.10000000000E+04  0.10000000000E+04  0.00000000000E+00 0. -1.
          2   -1    0    0  501    0 -0.00000000000E+00 -0.00000000000E+00 -0.10640380691E+03  0.10640380691E+03  0.00000000000E+00 0. -1.
    9000006    2    1    2  501    0  0.00000000000E+00  0.00000000000E+00  0.89359619309E+03  0.11064038069E+04  0.65239192795E+03 0.  0.
         13    1    3    3    0    0 -0.10001427528E+03 -0.27241087020E+03  0.19415017748E+03  0.34914872029E+03  0.00000000000E+00 0. -1.
          2    1    3    3  501    0  0.10001427528E+03  0.27241087020E+03  0.69944601561E+03  0.75725508662E+03  0.00000000000E+00 0. -1.
<mgrwt>
<rscale>  0 0.65239193E+03</rscale>
<asrwt>0</asrwt>
<pdfrwt beam="1">0</pdfrwt>
<pdfrwt beam="2">  1        2 0.38692375E+00 0.65239193E+03</pdfrwt>
<totfact> 0.44554460E+00</totfact>
</mgrwt>
</event>
<event>
 5    1  0.2357694E-004  0.6171328E+03  0.7818608E-02  0.9870485E-01
         13   -1    0    0    0    0  0.00000000000E+00  0.00000000000E+00  0.10000000000E+04  0.10000000000E+04  0.00000000000E+00 0. -1.
          2   -1    0    0  501    0 -0.00000000000E+00 -0.00000000000E+00 -0.95213237228E+02  0.95213237228E+02  0.00000000000E+00 0. -1.
    9000006    2    1    2  501    0  0.00000000000E+00  0.00000000000E+00  0.90478676277E+03  0.10952132372E+04  0.61713284543E+03 0.  0.
         13    1    3    3    0    0  0.24095155095E+03 -0.13734712866E+03  0.69241090205E+03  0.74589190968E+03  0.00000000000E+00 0. -1.
          2    1    3    3  501    0 -0.24095155095E+03  0.13734712866E+03  0.21237586073E+03  0.34932132755E+03  0.00000000000E+00 0. -1.
<mgrwt>
<rscale>  0 0.61713285E+03</rscale>
<asrwt>0</asrwt>
<pdfrwt beam="1">0</pdfrwt>
<pdfrwt beam="2">  1        2 0.34623068E+00 0.61713285E+03</pdfrwt>
<totfact> 0.62923091E+00</totfact>
</mgrwt>
</event>
<event>
 5    1  0.2357694E-004  0.6435593E+03  0.7818608E-02  0.9818940E-01
         13   -1    0    0    0    0  0.00000000000E+00  0.00000000000E+00  0.10000000000E+04  0.10000000000E+04  0.00000000000E+00 0. -1.
          2   -1    0    0  501    0 -0.00000000000E+00 -0.00000000000E+00 -0.10354213344E+03  0.10354213344E+03  0.00000000000E+00 0. -1.
    9000006    2    1    2  501    0  0.00000000000E+00  0.00000000000E+00  0.89645786656E+03  0.11035421334E+04  0.64355926981E+03 0.  0.
         13    1    3    3    0    0  0.72043853520E+02 -0.29898932181E+03  0.61051698798E+03  0.68360509360E+03  0.00000000000E+00 0. -1.
          4    1    3    3  501    0 -0.72043853520E+02  0.29898932181E+03  0.28594087858E+03  0.41993703984E+03  0.00000000000E+00 0. -1.
<mgrwt>
<rscale>  0 0.64355927E+03</rscale>
<asrwt>0</asrwt>
<pdfrwt beam="1">0</pdfrwt>
<pdfrwt beam="2">  1        2 0.37651764E+00 0.64355927E+03</pdfrwt>
<totfact> 0.48712057E+00</totfact>
</mgrwt>
</event>
<event>
 5    1  0.2357694E-004  0.6451377E+03  0.7818608E-02  0.9815946E-01
         13   -1    0    0    0    0  0.00000000000E+00  0.00000000000E+00  0.10000000000E+04  0.10000000000E+04  0.00000000000E+00 0. -1.
          2   -1    0    0  501    0 -0.00000000000E+00 -0.00000000000E+00 -0.10405066153E+03  0.10405066153E+03  0.00000000000E+00 0. -1.
    9000006    2    1    2  501    0  0.00000000000E+00  0.00000000000E+00  0.89594933847E+03  0.11040506615E+04  0.64513769548E+03 0.  0.
         13    1    3    3    0    0  0.56999017724E+02  0.92204175512E+01 -0.95134895651E+02  0.11128590428E+03  0.00000000000E+00 0. -1.
          2    1    3    3  501    0 -0.56999017724E+02 -0.92204175512E+01  0.99108423412E+03  0.99276475725E+03  0.00000000000E+00 0. -1.
<mgrwt>
<rscale>  0 0.64513770E+03</rscale>
<asrwt>0</asrwt>
<pdfrwt beam="1">0</pdfrwt>
<pdfrwt beam="2">  1        2 0.37836684E+00 0.64513770E+03</pdfrwt>
<totfact> 0.47948397E+00</totfact>
</mgrwt>
</event>
<event>
 5    1  0.2357694E-004  0.6514265E+03  0.7818608E-02  0.9804106E-01
         13   -1    0    0    0    0  0.00000000000E+00  0.00000000000E+00  0.10000000000E+04  0.10000000000E+04  0.00000000000E+00 0. -1.
          2   -1    0    0  501    0 -0.00000000000E+00 -0.00000000000E+00 -0.10608911589E+03  0.10608911589E+03  0.00000000000E+00 0. -1.
    9000006    2    1    2  501    0  0.00000000000E+00  0.00000000000E+00  0.89391088411E+03  0.11060891159E+04  0.65142648361E+03 0.  0.
         13    1    3    3    0    0 -0.31431546727E+03 -0.85251855988E+02  0.45578216115E+03  0.56017807020E+03  0.00000000000E+00 0. -1.
          4    1    3    3  501    0  0.31431546727E+03  0.85251855988E+02  0.43812872297E+03  0.54591104569E+03  0.00000000000E+00 0. -1.
<mgrwt>
<rscale>  0 0.65142648E+03</rscale>
<asrwt>0</asrwt>
<pdfrwt beam="1">0</pdfrwt>
<pdfrwt beam="2">  1        2 0.38577942E+00 0.65142648E+03</pdfrwt>
<totfact> 0.44995336E+00</totfact>
</mgrwt>
</event>
<event>
 5    1  0.2357694E-004  0.6606258E+03  0.7818608E-02  0.9787042E-01
         13   -1    0    0    0    0  0.00000000000E+00  0.00000000000E+00  0.10000000000E+04  0.10000000000E+04  0.00000000000E+00 0. -1.
          2   -1    0    0  501    0 -0.00000000000E+00 -0.00000000000E+00 -0.10910659806E+03  0.10910659806E+03  0.00000000000E+00 0. -1.
    9000006    2    1    2  501    0  0.00000000000E+00  0.00000000000E+00  0.89089340194E+03  0.11091065981E+04  0.66062575809E+03 0.  0.
         13    1    3    3    0    0  0.31640435413E+03 -0.84818664603E+02  0.51668863169E+03  0.61177860643E+03  0.00000000000E+00 0. -1.
          2    1    3    3  501    0 -0.31640435413E+03  0.84818664603E+02  0.37420477025E+03  0.49732799163E+03  0.00000000000E+00 0. -1.
<mgrwt>
<rscale>  0 0.66062576E+03</rscale>
<asrwt>0</asrwt>
<pdfrwt beam="1">0</pdfrwt>
<pdfrwt beam="2">  1        2 0.39675210E+00 0.66062576E+03</pdfrwt>
<totfact> 0.40925731E+00</totfact>
</mgrwt>
</event>
<event>
 5    1  0.2357694E-004  0.6435423E+03  0.7818608E-02  0.9818973E-01
         13   -1    0    0    0    0  0.00000000000E+00  0.00000000000E+00  0.10000000000E+04  0.10000000000E+04  0.00000000000E+00 0. -1.
          2   -1    0    0  501    0 -0.00000000000E+00 -0.00000000000E+00 -0.10353666077E+03  0.10353666077E+03  0.00000000000E+00 0. -1.
    9000006    2    1    2  501    0  0.00000000000E+00  0.00000000000E+00  0.89646333923E+03  0.11035366608E+04  0.64354226207E+03 0.  0.
         13    1    3    3    0    0 -0.44988918629E+02 -0.28985147170E+03  0.22139481996E+03  0.36749631937E+03  0.00000000000E+00 0. -1.
          4    1    3    3  501    0  0.44988918629E+02  0.28985147170E+03  0.67506851927E+03  0.73604034139E+03  0.00000000000E+00 0. -1.
<mgrwt>
<rscale>  0 0.64354226E+03</rscale>
<asrwt>0</asrwt>
<pdfrwt beam="1">0</pdfrwt>
<pdfrwt beam="2">  1        2 0.37649774E+00 0.64354226E+03</pdfrwt>
<totfact> 0.48720336E+00</totfact>
</mgrwt>
</event>
<event>
 5    1  0.2357694E-004  0.6625815E+03  0.7818608E-02  0.9783453E-01
         13   -1    0    0    0    0  0.00000000000E+00  0.00000000000E+00  0.10000000000E+04  0.10000000000E+04  0.00000000000E+00 0. -1.
          2   -1    0    0  501    0 -0.00000000000E+00 -0.00000000000E+00 -0.10975355148E+03  0.10975355148E+03  0.00000000000E+00 0. -1.
    9000006    2    1    2  501    0  0.00000000000E+00  0.00000000000E+00  0.89024644852E+03  0.11097535515E+04  0.66258147115E+03 0.  0.
         13    1    3    3    0    0  0.10656981397E+03 -0.46595237178E+02 -0.74432239585E+02  0.13808837629E+03  0.00000000000E+00 0. -1.
          4    1    3    3  501    0 -0.10656981397E+03  0.46595237178E+02  0.96467868811E+03  0.97166517519E+03  0.00000000000E+00 0. -1.
<mgrwt>
<rscale>  0 0.66258147E+03</rscale>
<asrwt>0</asrwt>
<pdfrwt beam="1">0</pdfrwt>
<pdfrwt beam="2">  1        2 0.39910467E+00 0.66258147E+03</pdfrwt>
<totfact> 0.40097716E+00</totfact>
</mgrwt>
</event>
<event>
 5    1  0.2357694E-004  0.6420413E+03  0.7818608E-02  0.9821829E-01
         13   -1    0    0    0    0  0.00000000000E+00  0.00000000000E+00  0.10000000000E+04  0.10000000000E+04  0.00000000000E+00 0. -1.
          2   -1    0    0  501    0 -0.00000000000E+00 -0.00000000000E+00 -0.10305426439E+03  0.10305426439E+03  0.00000000000E+00 0. -1.
    9000006    2    1    2  501    0  0.00000000000E+00  0.00000000000E+00  0.89694573561E+03  0.11030542644E+04  0.64204132075E+03 0.  0.
         13    1    3    3    0    0  0.13446637553E+03 -0.22352585967E+03  0.76993164727E+03  0.81292051122E+03  0.00000000000E+00 0. -1.
          4    1    3    3  501    0 -0.13446637553E+03  0.22352585967E+03  0.12701408834E+03  0.29013375317E+03  0.00000000000E+00 0. -1.
<mgrwt>
<rscale>  0 0.64204132E+03</rscale>
<asrwt>0</asrwt>
<pdfrwt beam="1">0</pdfrwt>
<pdfrwt beam="2">  1        2 0.37474357E+00 0.64204132E+03</pdfrwt>
<totfact> 0.49455137E+00</totfact>
</mgrwt>
</event>
<event>
 5    1  0.2357694E-004  0.6543694E+03  0.7818608E-02  0.9798615E-01
         13   -1    0    0    0    0  0.00000000000E+00  0.00000000000E+00  0.10000000000E+04  0.10000000000E+04  0.00000000000E+00 0. -1.
          4   -1    0    0  501    0 -0.00000000000E+00 -0.00000000000E+00 -0.10704981452E+03  0.10704981452E+03  0.00000000000E+00 0. -1.
    9000006    2    1    2  501    0  0.00000000000E+00  0.00000000000E+00  0.89295018548E+03  0.11070498145E+04  0.65436935906E+03 0.  0.
         13    1    3    3    0    0  0.63260908642E+02  0.32088906033E+03  0.43152574572E+03  0.54146671257E+03  0.00000000000E+00 0. -1.
          2    1    3    3  501    0 -0.63260908642E+02 -0.32088906033E+03  0.46142443976E+03  0.56558310195E+03  0.00000000000E+00 0. -1.
<mgrwt>
<rscale>  0 0.65436936E+03</rscale>
<asrwt>0</asrwt>
<pdfrwt beam="1">0</pdfrwt>
<pdfrwt beam="2">  1        4 0.38927287E+00 0.65436936E+03</pdfrwt>
<totfact> 0.37970664E-02</totfact>
</mgrwt>
</event>
<event>
 5    1  0.2357694E-004  0.6461999E+03  0.7818608E-02  0.9813936E-01
         13   -1    0    0    0    0  0.00000000000E+00  0.00000000000E+00  0.10000000000E+04  0.10000000000E+04  0.00000000000E+00 0. -1.
          2   -1    0    0  501    0 -0.00000000000E+00 -0.00000000000E+00 -0.10439356887E+03  0.10439356887E+03  0.00000000000E+00 0. -1.
    9000006    2    1    2  501    0  0.00000000000E+00  0.00000000000E+00  0.89560643113E+03  0.11043935689E+04  0.64619987270E+03 0.  0.
         13    1    3    3    0    0  0.29584242121E+03 -0.10989587529E+03  0.32947354312E+03  0.45623750088E+03  0.00000000000E+00 0. -1.
          4    1    3    3  501    0 -0.29584242121E+03  0.10989587529E+03  0.56613288801E+03  0.64815606799E+03  0.00000000000E+00 0. -1.
<mgrwt>
<rscale>  0 0.64619987E+03</rscale>
<asrwt>0</asrwt>
<pdfrwt beam="1">0</pdfrwt>
<pdfrwt beam="2">  1        2 0.37961378E+00 0.64619987E+03</pdfrwt>
<totfact> 0.47439627E+00</totfact>
</mgrwt>
</event>
<event>
 5    1  0.2357694E-004  0.6493664E+03  0.7818608E-02  0.9807969E-01
         13   -1    0    0    0    0  0.00000000000E+00  0.00000000000E+00  0.10000000000E+04  0.10000000000E+04  0.00000000000E+00 0. -1.
          2   -1    0    0  501    0 -0.00000000000E+00 -0.00000000000E+00 -0.10541917990E+03  0.10541917990E+03  0.00000000000E+00 0. -1.
    9000006    2    1    2  501    0  0.00000000000E+00  0.00000000000E+00  0.89458082010E+03  0.11054191799E+04  0.64936639857E+03 0.  0.
         13    1    3    3    0    0 -0.29252484721E+03  0.81443246331E+02  0.25159655141E+03  0.39434073247E+03  0.00000000000E+00 0. -1.
          2    1    3    3  501    0  0.29252484721E+03 -0.81443246331E+02  0.64298426869E+03  0.71107844742E+03  0.00000000000E+00 0. -1.
<mgrwt>
<rscale>  0 0.64936640E+03</rscale>
<asrwt>0</asrwt>
<pdfrwt beam="1">0</pdfrwt>
<pdfrwt beam="2">  1        2 0.38334328E+00 0.64936640E+03</pdfrwt>
<totfact> 0.45947103E+00</totfact>
</mgrwt>
</event>
<event>
 5    1  0.2357694E-004  0.6455508E+03  0.7818608E-02  0.9815164E-01
         13   -1    0    0    0    0  0.00000000000E+00  0.00000000000E+00  0.10000000000E+04  0.10000000000E+04  0.00000000000E+00 0. -1.
          2   -1    0    0  501    0 -0.00000000000E+00 -0.00000000000E+00 -0.10418396424E+03  0.10418396424E+03  0.00000000000E+00 0. -1.
    9000006    2    1    2  501    0  0.00000000000E+00  0.00000000000E+00  0.89581603576E+03  0.11041839642E+04  0.64555081671E+03 0.  0.
         13    1    3    3    0    0  0.31741400621E+03 -0.40973597783E+02  0.51953242836E+03  0.61020032053E+03  0.00000000000E+00 0. -1.
          2    1    3    3  501    0 -0.31741400621E+03  0.40973597783E+02  0.37628360740E+03  0.49398364371E+03  0.00000000000E+00 0. -1.
<mgrwt>
<rscale>  0 0.64555082E+03</rscale>
<asrwt>0</asrwt>
<pdfrwt beam="1">0</pdfrwt>
<pdfrwt beam="2">  1        2 0.37885158E+00 0.64555082E+03</pdfrwt>
<totfact> 0.47750029E+00</totfact>
</mgrwt>
</event>
<event>
 5    1  0.2357694E-004  0.6673293E+03  0.7818608E-02  0.9774795E-01
         13   -1    0    0    0    0  0.00000000000E+00  0.00000000000E+00  0.10000000000E+04  0.10000000000E+04  0.00000000000E+00 0. -1.
          2   -1    0    0  501    0 -0.00000000000E+00 -0.00000000000E+00 -0.11133210476E+03  0.11133210476E+03  0.00000000000E+00 0. -1.
    9000006    2    1    2  501    0  0.00000000000E+00  0.00000000000E+00  0.88866789524E+03  0.11113321048E+04  0.66732931830E+03 0.  0.
         13    1    3    3    0    0 -0.14504248435E+03 -0.51860489541E+02  0.93724525013E+03  0.94981866244E+03  0.00000000000E+00 0. -1.
          4    1    3    3  501    0  0.14504248435E+03  0.51860489541E+02 -0.48577354890E+02  0.16151344232E+03  0.00000000000E+00 0. -1.
<mgrwt>
<rscale>  0 0.66732932E+03</rscale>
<asrwt>0</asrwt>
<pdfrwt beam="1">0</pdfrwt>
<pdfrwt beam="2">  1        2 0.40484487E+00 0.66732932E+03</pdfrwt>
<totfact> 0.38140133E+00</totfact>
</mgrwt>
</event>
<event>
 5    1  0.2357694E-004  0.6467068E+03  0.7818608E-02  0.9812978E-01
         13   -1    0    0    0    0  0.00000000000E+00  0.00000000000E+00  0.10000000000E+04  0.10000000000E+04  0.00000000000E+00 0. -1.
          2   -1    0    0  501    0 -0.00000000000E+00 -0.00000000000E+00 -0.10455741373E+03  0.10455741373E+03  0.00000000000E+00 0. -1.
    9000006    2    1    2  501    0  0.00000000000E+00  0.00000000000E+00  0.89544258627E+03  0.11045574137E+04  0.64670677662E+03 0.  0.
         13    1    3    3    0    0 -0.11514347246E+03  0.24654240487E+03  0.14935732580E+03  0.31040101066E+03  0.00000000000E+00 0. -1.
          2    1    3    3  501    0  0.11514347246E+03 -0.24654240487E+03  0.74608526047E+03  0.79415640307E+03  0.00000000000E+00 0. -1.
<mgrwt>
<rscale>  0 0.64670678E+03</rscale>
<asrwt>0</asrwt>
<pdfrwt beam="1">0</pdfrwt>
<pdfrwt beam="2">  1        2 0.38020958E+00 0.64670678E+03</pdfrwt>
<totfact> 0.47198271E+00</totfact>
</mgrwt>
</event>
<event>
 5    1  0.2357694E-004  0.6513924E+03  0.7818608E-02  0.9804170E-01
         13   -1    0    0    0    0  0.00000000000E+00  0.00000000000E+00  0.10000000000E+04  0.10000000000E+04  0.00000000000E+00 0. -1.
          2   -1    0    0  501    0 -0.00000000000E+00 -0.00000000000E+00 -0.10607800263E+03  0.10607800263E+03  0.00000000000E+00 0. -1.
    9000006    2    1    2  501    0  0.00000000000E+00  0.00000000000E+00  0.89392199737E+03  0.11060780026E+04  0.65139236294E+03 0.  0.
         13    1    3    3    0    0 -0.96509849407E+02  0.10301053421E+03 -0.51438380072E+02  0.15023723951E+03  0.00000000000E+00 0. -1.
          2    1    3    3  501    0  0.96509849407E+02 -0.10301053421E+03  0.94536037745E+03  0.95584076312E+03  0.00000000000E+00 0. -1.
<mgrwt>
<rscale>  0 0.65139236E+03</rscale>
<asrwt>0</asrwt>
<pdfrwt beam="1">0</pdfrwt>
<pdfrwt beam="2">  1        2 0.38573900E+00 0.65139236E+03</pdfrwt>
<totfact> 0.45010978E+00</totfact>
</mgrwt>
</event>
<event>
 5    1  0.2357694E-004  0.6570053E+03  0.7818608E-02  0.9793722E-01
         13   -1    0    0    0    0  0.00000000000E+00  0.00000000000E+00  0.10000000000E+04  0.10000000000E+04  0.00000000000E+00 0. -1.
          2   -1    0    0  501    0 -0.00000000000E+00 -0.00000000000E+00 -0.10791400722E+03  0.10791400722E+03  0.00000000000E+00 0. -1.
    9000006    2    1    2  501    0  0.00000000000E+00  0.00000000000E+00  0.89208599278E+03  0.11079140072E+04  0.65700534920E+03 0.  0.
         13    1    3    3    0    0  0.27096554199E+03  0.50396643228E+01  0.75910789689E+03  0.80603506269E+03  0.00000000000E+00 0. -1.
          2    1    3    3  501    0 -0.27096554199E+03 -0.50396643228E+01  0.13297809589E+03  0.30187894453E+03  0.00000000000E+00 0. -1.
<mgrwt>
<rscale>  0 0.65700535E+03</rscale>
<asrwt>0</asrwt>
<pdfrwt beam="1">0</pdfrwt>
<pdfrwt beam="2">  1        2 0.39241540E+00 0.65700535E+03</pdfrwt>
<totfact> 0.42492585E+00</totfact>
</mgrwt>
</event>
<event>
 5    1  0.2357694E-004  0.6471813E+03  0.7818608E-02  0.9812083E-01
         13   -1    0    0    0    0  0.00000000000E+00  0.00000000000E+00  0.10000000000E+04  0.10000000000E+04  0.00000000000E+00 0. -1.
          2   -1    0    0  501    0 -0.00000000000E+00 -0.00000000000E+00 -0.10471091871E+03  0.10471091871E+03  0.00000000000E+00 0. -1.
    9000006    2    1    2  501    0  0.00000000000E+00  0.00000000000E+00  0.89528908129E+03  0.11047109187E+04  0.64718133071E+03 0.  0.
         13    1    3    3    0    0  0.56296462938E+01 -0.61925970482E+02 -0.94416954868E+02  0.11305343915E+03  0.00000000000E+00 0. -1.
          4    1    3    3  501    0 -0.56296462938E+01  0.61925970482E+02  0.98970603616E+03  0.99165747955E+03  0.00000000000E+00 0. -1.
<mgrwt>
<rscale>  0 0.64718133E+03</rscale>
<asrwt>0</asrwt>
<pdfrwt beam="1">0</pdfrwt>
<pdfrwt beam="2">  1        2 0.38076778E+00 0.64718133E+03</pdfrwt>
<totfact> 0.46973160E+00</totfact>
</mgrwt>
</event>
<event>
 5    1  0.2357694E-004  0.6458883E+03  0.7818608E-02  0.9814525E-01
         13   -1    0    0    0    0  0.00000000000E+00  0.00000000000E+00  0.10000000000E+04  0.10000000000E+04  0.00000000000E+00 0. -1.
          2   -1    0    0  501    0 -0.00000000000E+00 -0.00000000000E+00 -0.10429291975E+03  0.10429291975E+03  0.00000000000E+00 0. -1.
    9000006    2    1    2  501    0  0.00000000000E+00  0.00000000000E+00  0.89570708025E+03  0.11042929198E+04  0.64588828678E+03 0.  0.
         13    1    3    3    0    0  0.18893177803E+03 -0.12766752378E+03  0.83884957418E+03  0.86928868708E+03  0.00000000000E+00 0. -1.
          4    1    3    3  501    0 -0.18893177803E+03  0.12766752378E+03  0.56857506067E+02  0.23500423267E+03  0.00000000000E+00 0. -1.
<mgrwt>
<rscale>  0 0.64588829E+03</rscale>
<asrwt>0</asrwt>
<pdfrwt beam="1">0</pdfrwt>
<pdfrwt beam="2">  1        2 0.37924778E+00 0.64588829E+03</pdfrwt>
<totfact> 0.47588447E+00</totfact>
</mgrwt>
</event>
<event>
 5    1  0.2357694E-004  0.6517833E+03  0.7818608E-02  0.9803439E-01
         13   -1    0    0    0    0  0.00000000000E+00  0.00000000000E+00  0.10000000000E+04  0.10000000000E+04  0.00000000000E+00 0. -1.
          2   -1    0    0  501    0 -0.00000000000E+00 -0.00000000000E+00 -0.10620537868E+03  0.10620537868E+03  0.00000000000E+00 0. -1.
    9000006    2    1    2  501    0  0.00000000000E+00  0.00000000000E+00  0.89379462132E+03  0.11062053787E+04  0.65178333418E+03 0.  0.
         13    1    3    3    0    0  0.24130072737E+03  0.21652934191E+03  0.50304306660E+03  0.59846747931E+03  0.00000000000E+00 0. -1.
          4    1    3    3  501    0 -0.24130072737E+03 -0.21652934191E+03  0.39075155472E+03  0.50773789937E+03  0.00000000000E+00 0. -1.
<mgrwt>
<rscale>  0 0.65178333E+03</rscale>
<asrwt>0</asrwt>
<pdfrwt beam="1">0</pdfrwt>
<pdfrwt beam="2">  1        2 0.38620219E+00 0.65178333E+03</pdfrwt>
<totfact> 0.44831996E+00</totfact>
</mgrwt>
</event>
<event>
 5    1  0.2357694E-004  0.6427235E+03  0.7818608E-02  0.9820530E-01
         13   -1    0    0    0    0  0.00000000000E+00  0.00000000000E+00  0.10000000000E+04  0.10000000000E+04  0.00000000000E+00 0. -1.
          2   -1    0    0  501    0 -0.00000000000E+00 -0.00000000000E+00 -0.10327337085E+03  0.10327337085E+03  0.00000000000E+00 0. -1.
    9000006    2    1    2  501    0  0.00000000000E+00  0.00000000000E+00  0.89672662915E+03  0.11032733708E+04  0.64272348906E+03 0.  0.
         13    1    3    3    0    0 -0.24328193563E+03  0.15704349705E+03  0.68760404821E+03  0.74608852510E+03  0.00000000000E+00 0. -1.
          2    1    3    3  501    0  0.24328193563E+03 -0.15704349705E+03  0.20912258094E+03  0.35718484574E+03  0.00000000000E+00 0. -1.
<mgrwt>
<rscale>  0 0.64272349E+03</rscale>
<asrwt>0</asrwt>
<pdfrwt beam="1">0</pdfrwt>
<pdfrwt beam="2">  1        2 0.37554032E+00 0.64272349E+03</pdfrwt>
<totfact> 0.49120127E+00</totfact>
</mgrwt>
</event>
<event>
 5    1  0.2357694E-004  0.6354864E+03  0.7818608E-02  0.9834401E-01
         13   -1    0    0    0    0  0.00000000000E+00  0.00000000000E+00  0.10000000000E+04  0.10000000000E+04  0.00000000000E+00 0. -1.
          2   -1    0    0  501    0 -0.00000000000E+00 -0.00000000000E+00 -0.10096073271E+03  0.10096073271E+03  0.00000000000E+00 0. -1.
    9000006    2    1    2  501    0  0.00000000000E+00  0.00000000000E+00  0.89903926729E+03  0.11009607327E+04  0.63548637344E+03 0.  0.
         13    1    3    3    0    0 -0.62394879178E+02  0.30252324225E+03  0.57855429917E+03  0.65584945692E+03  0.00000000000E+00 0. -1.
          4    1    3    3  501    0  0.62394879178E+02 -0.30252324225E+03  0.32048496812E+03  0.44511127579E+03  0.00000000000E+00 0. -1.
<mgrwt>
<rscale>  0 0.63548637E+03</rscale>
<asrwt>0</asrwt>
<pdfrwt beam="1">0</pdfrwt>
<pdfrwt beam="2">  1        2 0.36713071E+00 0.63548637E+03</pdfrwt>
<totfact> 0.52763206E+00</totfact>
</mgrwt>
</event>
<event>
 5    1  0.2357694E-004  0.6896982E+03  0.7818608E-02  0.9735014E-01
         13   -1    0    0    0    0  0.00000000000E+00  0.00000000000E+00  0.10000000000E+04  0.10000000000E+04  0.00000000000E+00 0. -1.
          2   -1    0    0  501    0 -0.00000000000E+00 -0.00000000000E+00 -0.11892090787E+03  0.11892090787E+03  0.00000000000E+00 0. -1.
    9000006    2    1    2  501    0  0.00000000000E+00  0.00000000000E+00  0.88107909213E+03  0.11189209079E+04  0.68969821767E+03 0.  0.
         13    1    3    3    0    0  0.67651414443E+02 -0.33576191591E+03  0.37548152675E+03  0.50823139905E+03  0.00000000000E+00 0. -1.
          4    1    3    3  501    0 -0.67651414443E+02  0.33576191591E+03  0.50559756539E+03  0.61068950881E+03  0.00000000000E+00 0. -1.
<mgrwt>
<rscale>  0 0.68969822E+03</rscale>
<asrwt>0</asrwt>
<pdfrwt beam="1">0</pdfrwt>
<pdfrwt beam="2">  1        2 0.43244058E+00 0.68969822E+03</pdfrwt>
<totfact> 0.29867897E+00</totfact>
</mgrwt>
</event>
<event>
 5    1  0.2357694E-004  0.6539361E+03  0.7818608E-02  0.9799421E-01
         13   -1    0    0    0    0  0.00000000000E+00  0.00000000000E+00  0.10000000000E+04  0.10000000000E+04  0.00000000000E+00 0. -1.
          2   -1    0    0  501    0 -0.00000000000E+00 -0.00000000000E+00 -0.10690809546E+03  0.10690809546E+03  0.00000000000E+00 0. -1.
    9000006    2    1    2  501    0  0.00000000000E+00  0.00000000000E+00  0.89309190454E+03  0.11069080955E+04  0.65393606863E+03 0.  0.
         13    1    3    3    0    0  0.98507444748E+01  0.29690566355E+03  0.21533425158E+03  0.36690441551E+03  0.00000000000E+00 0. -1.
          2    1    3    3  501    0 -0.98507444748E+01 -0.29690566355E+03  0.67775765295E+03  0.74000367996E+03  0.00000000000E+00 0. -1.
<mgrwt>
<rscale>  0 0.65393607E+03</rscale>
<asrwt>0</asrwt>
<pdfrwt beam="1">0</pdfrwt>
<pdfrwt beam="2">  1        2 0.38875753E+00 0.65393607E+03</pdfrwt>
<totfact> 0.43856112E+00</totfact>
</mgrwt>
</event>
<event>
 5    1  0.2357694E-004  0.6518212E+03  0.7818608E-02  0.9803368E-01
         13   -1    0    0    0    0  0.00000000000E+00  0.00000000000E+00  0.10000000000E+04  0.10000000000E+04  0.00000000000E+00 0. -1.
          4   -1    0    0  501    0 -0.00000000000E+00 -0.00000000000E+00 -0.10621771713E+03  0.10621771713E+03  0.00000000000E+00 0. -1.
    9000006    2    1    2  501    0  0.00000000000E+00  0.00000000000E+00  0.89378228287E+03  0.11062177171E+04  0.65182119367E+03 0.  0.
         13    1    3    3    0    0 -0.29602126940E+03  0.13481038196E+03  0.41230629644E+03  0.52516560541E+03  0.00000000000E+00 0. -1.
          2    1    3    3  501    0  0.29602126940E+03 -0.13481038196E+03  0.48147598643E+03  0.58105211172E+03  0.00000000000E+00 0. -1.
<mgrwt>
<rscale>  0 0.65182119E+03</rscale>
<asrwt>0</asrwt>
<pdfrwt beam="1">0</pdfrwt>
<pdfrwt beam="2">  1        4 0.38624706E+00 0.65182119E+03</pdfrwt>
<totfact> 0.39812340E-02</totfact>
</mgrwt>
</event>
<event>
 5    1  0.2357694E-004  0.6509188E+03  0.7818608E-02  0.9805057E-01
         13   -1    0    0    0    0  0.00000000000E+00  0.00000000000E+00  0.10000000000E+04  0.10000000000E+04  0.00000000000E+00 0. -1.
          2   -1    0    0  501    0 -0.00000000000E+00 -0.00000000000E+00 -0.10592381605E+03  0.10592381605E+03  0.00000000000E+00 0. -1.
    9000006    2    1    2  501    0  0.00000000000E+00  0.00000000000E+00  0.89407618395E+03  0.11059238160E+04  0.65091878463E+03 0.  0.
         13    1    3    3    0    0 -0.91083656092E+01 -0.26720006767E+03  0.13171094682E+03  0.29803793718E+03  0.00000000000E+00 0. -1.
          4    1    3    3  501    0  0.91083656092E+01  0.26720006767E+03  0.76236523714E+03  0.80788587887E+03  0.00000000000E+00 0. -1.
<mgrwt>
<rscale>  0 0.65091878E+03</rscale>
<asrwt>0</asrwt>
<pdfrwt beam="1">0</pdfrwt>
<pdfrwt beam="2">  1        2 0.38517833E+00 0.65091878E+03</pdfrwt>
<totfact> 0.45228498E+00</totfact>
</mgrwt>
</event>
<event>
 5    1  0.2357694E-004  0.6599418E+03  0.7818608E-02  0.9788301E-01
         13   -1    0    0    0    0  0.00000000000E+00  0.00000000000E+00  0.10000000000E+04  0.10000000000E+04  0.00000000000E+00 0. -1.
          2   -1    0    0  501    0 -0.00000000000E+00 -0.00000000000E+00 -0.10888079386E+03  0.10888079386E+03  0.00000000000E+00 0. -1.
    9000006    2    1    2  501    0  0.00000000000E+00  0.00000000000E+00  0.89111920614E+03  0.11088807939E+04  0.65994179701E+03 0.  0.
         13    1    3    3    0    0  0.16666936327E+03  0.23434411664E+03  0.17366216270E+03  0.33593807228E+03  0.00000000000E+00 0. -1.
          2    1    3    3  501    0 -0.16666936327E+03 -0.23434411664E+03  0.71745704344E+03  0.77294272158E+03  0.00000000000E+00 0. -1.
<mgrwt>
<rscale>  0 0.65994180E+03</rscale>
<asrwt>0</asrwt>
<pdfrwt beam="1">0</pdfrwt>
<pdfrwt beam="2">  1        2 0.39593099E+00 0.65994180E+03</pdfrwt>
<totfact> 0.41218332E+00</totfact>
</mgrwt>
</event>
<event>
 5    1  0.2357694E-004  0.5061554E+03  0.7818608E-02  0.1012185E+00
         13   -1    0    0    0    0  0.00000000000E+00  0.00000000000E+00  0.10000000000E+04  0.10000000000E+04  0.00000000000E+00 0. -1.
          2   -1    0    0  501    0 -0.00000000000E+00 -0.00000000000E+00 -0.64048321812E+02  0.64048321812E+02  0.00000000000E+00 0. -1.
    9000006    2    1    2  501    0  0.00000000000E+00  0.00000000000E+00  0.93595167819E+03  0.10640483218E+04  0.50615539832E+03 0.  0.
         13    1    3    3    0    0 -0.16833552439E+02 -0.40200212757E+02  0.99205173800E+03  0.99300859839E+03  0.00000000000E+00 0. -1.
          4    1    3    3  501    0  0.16833552439E+02  0.40200212757E+02 -0.56100059814E+02  0.71039723427E+02  0.00000000000E+00 0. -1.
<mgrwt>
<rscale>  0 0.50615540E+03</rscale>
<asrwt>0</asrwt>
<pdfrwt beam="1">0</pdfrwt>
<pdfrwt beam="2">  1        2 0.23290348E+00 0.50615540E+03</pdfrwt>
<totfact> 0.16069329E+01</totfact>
</mgrwt>
</event>
<event>
 5    1  0.2357694E-004  0.6616340E+03  0.7818608E-02  0.9785190E-01
         13   -1    0    0    0    0  0.00000000000E+00  0.00000000000E+00  0.10000000000E+04  0.10000000000E+04  0.00000000000E+00 0. -1.
          2   -1    0    0  501    0 -0.00000000000E+00 -0.00000000000E+00 -0.10943988381E+03  0.10943988381E+03  0.00000000000E+00 0. -1.
    9000006    2    1    2  501    0  0.00000000000E+00  0.00000000000E+00  0.89056011619E+03  0.11094398838E+04  0.66163398888E+03 0.  0.
         13    1    3    3    0    0 -0.22283258973E+03  0.75698700137E+02  0.83513659189E+03  0.86766225189E+03  0.00000000000E+00 0. -1.
          2    1    3    3  501    0  0.22283258973E+03 -0.75698700137E+02  0.55423524302E+02  0.24177763192E+03  0.00000000000E+00 0. -1.
<mgrwt>
<rscale>  0 0.66163399E+03</rscale>
<asrwt>0</asrwt>
<pdfrwt beam="1">0</pdfrwt>
<pdfrwt beam="2">  1        2 0.39796405E+00 0.66163399E+03</pdfrwt>
<totfact> 0.40497269E+00</totfact>
</mgrwt>
</event>
<event>
 5    1  0.2357694E-004  0.6514669E+03  0.7818608E-02  0.9804030E-01
         13   -1    0    0    0    0  0.00000000000E+00  0.00000000000E+00  0.10000000000E+04  0.10000000000E+04  0.00000000000E+00 0. -1.
          2   -1    0    0  501    0 -0.00000000000E+00 -0.00000000000E+00 -0.10610229657E+03  0.10610229657E+03  0.00000000000E+00 0. -1.
    9000006    2    1    2  501    0  0.00000000000E+00  0.00000000000E+00  0.89389770343E+03  0.11061022966E+04  0.65146694949E+03 0.  0.
         13    1    3    3    0    0  0.16682846837E+03  0.23910077399E+03  0.20031179958E+03  0.35373116209E+03  0.00000000000E+00 0. -1.
          2    1    3    3  501    0 -0.16682846837E+03 -0.23910077399E+03  0.69358590385E+03  0.75237113448E+03  0.00000000000E+00 0. -1.
<mgrwt>
<rscale>  0 0.65146695E+03</rscale>
<asrwt>0</asrwt>
<pdfrwt beam="1">0</pdfrwt>
<pdfrwt beam="2">  1        2 0.38582735E+00 0.65146695E+03</pdfrwt>
<totfact> 0.44976791E+00</totfact>
</mgrwt>
</event>
<event>
 5    1  0.2357694E-004  0.6535697E+03  0.7818608E-02  0.9800104E-01
         13   -1    0    0    0    0  0.00000000000E+00  0.00000000000E+00  0.10000000000E+04  0.10000000000E+04  0.00000000000E+00 0. -1.
          2   -1    0    0  501    0 -0.00000000000E+00 -0.00000000000E+00 -0.10678832371E+03  0.10678832371E+03  0.00000000000E+00 0. -1.
    9000006    2    1    2  501    0  0.00000000000E+00  0.00000000000E+00  0.89321167629E+03  0.11067883237E+04  0.65356965570E+03 0.  0.
         13    1    3    3    0    0 -0.23188541537E+03 -0.52390575088E+02  0.82630428222E+03  0.85982229852E+03  0.00000000000E+00 0. -1.
          4    1    3    3  501    0  0.23188541537E+03  0.52390575088E+02  0.66907394066E+02  0.24696602519E+03  0.00000000000E+00 0. -1.
<mgrwt>
<rscale>  0 0.65356966E+03</rscale>
<asrwt>0</asrwt>
<pdfrwt beam="1">0</pdfrwt>
<pdfrwt beam="2">  1        2 0.38832200E+00 0.65356966E+03</pdfrwt>
<totfact> 0.44021071E+00</totfact>
</mgrwt>
</event>
<event>
 5    1  0.2357694E-004  0.6459552E+03  0.7818608E-02  0.9814399E-01
         13   -1    0    0    0    0  0.00000000000E+00  0.00000000000E+00  0.10000000000E+04  0.10000000000E+04  0.00000000000E+00 0. -1.
          2   -1    0    0  501    0 -0.00000000000E+00 -0.00000000000E+00 -0.10431453364E+03  0.10431453364E+03  0.00000000000E+00 0. -1.
    9000006    2    1    2  501    0  0.00000000000E+00  0.00000000000E+00  0.89568546636E+03  0.11043145336E+04  0.64595521096E+03 0.  0.
         13    1    3    3    0    0  0.24085809477E+03 -0.75259081454E+02  0.10321005803E+03  0.27263321008E+03  0.00000000000E+00 0. -1.
          4    1    3    3  501    0 -0.24085809477E+03  0.75259081454E+02  0.79247540833E+03  0.83168132356E+03  0.00000000000E+00 0. -1.
<mgrwt>
<rscale>  0 0.64595521E+03</rscale>
<asrwt>0</asrwt>
<pdfrwt beam="1">0</pdfrwt>
<pdfrwt beam="2">  1        2 0.37932638E+00 0.64595521E+03</pdfrwt>
<totfact> 0.47556453E+00</totfact>
</mgrwt>
</event>
<event>
 5    1  0.2357694E-004  0.6479808E+03  0.7818608E-02  0.9810575E-01
         13   -1    0    0    0    0  0.00000000000E+00  0.00000000000E+00  0.10000000000E+04  0.10000000000E+04  0.00000000000E+00 0. -1.
          2   -1    0    0  501    0 -0.00000000000E+00 -0.00000000000E+00 -0.10496978069E+03  0.10496978069E+03  0.00000000000E+00 0. -1.
    9000006    2    1    2  501    0  0.00000000000E+00  0.00000000000E+00  0.89503021931E+03  0.11049697807E+04  0.64798080431E+03 0.  0.
         13    1    3    3    0    0 -0.91526367677E+02 -0.24733747339E+03  0.12659760698E+03  0.29254034903E+03  0.00000000000E+00 0. -1.
          4    1    3    3  501    0  0.91526367677E+02  0.24733747339E+03  0.76843261233E+03  0.81242943165E+03  0.00000000000E+00 0. -1.
<mgrwt>
<rscale>  0 0.64798080E+03</rscale>
<asrwt>0</asrwt>
<pdfrwt beam="1">0</pdfrwt>
<pdfrwt beam="2">  1        2 0.38170910E+00 0.64798080E+03</pdfrwt>
<totfact> 0.46595757E+00</totfact>
</mgrwt>
</event>
<event>
 5    1  0.2357694E-004  0.6539582E+03  0.7818608E-02  0.9799380E-01
         13   -1    0    0    0    0  0.00000000000E+00  0.00000000000E+00  0.10000000000E+04  0.10000000000E+04  0.00000000000E+00 0. -1.
          2   -1    0    0  501    0 -0.00000000000E+00 -0.00000000000E+00 -0.10691531798E+03  0.10691531798E+03  0.00000000000E+00 0. -1.
    9000006    2    1    2  501    0  0.00000000000E+00  0.00000000000E+00  0.89308468202E+03  0.11069153180E+04  0.65395815763E+03 0.  0.
         13    1    3    3    0    0 -0.27550310092E+02  0.29245472808E+03  0.68963818080E+03  0.74959296153E+03  0.00000000000E+00 0. -1.
          2    1    3    3  501    0  0.27550310092E+02 -0.29245472808E+03  0.20344650122E+03  0.35732235645E+03  0.00000000000E+00 0. -1.
<mgrwt>
<rscale>  0 0.65395816E+03</rscale>
<asrwt>0</asrwt>
<pdfrwt beam="1">0</pdfrwt>
<pdfrwt beam="2">  1        2 0.38878379E+00 0.65395816E+03</pdfrwt>
<totfact> 0.43846182E+00</totfact>
</mgrwt>
</event>
<event>
 5    1  0.2357694E-004  0.6050194E+03  0.7818608E-02  0.9895047E-01
         13   -1    0    0    0    0  0.00000000000E+00  0.00000000000E+00  0.10000000000E+04  0.10000000000E+04  0.00000000000E+00 0. -1.
          2   -1    0    0  501    0 -0.00000000000E+00 -0.00000000000E+00 -0.91512114267E+02  0.91512114267E+02  0.00000000000E+00 0. -1.
    9000006    2    1    2  501    0  0.00000000000E+00  0.00000000000E+00  0.90848788573E+03  0.10915121143E+04  0.60501938570E+03 0.  0.
         13    1    3    3    0    0  0.89239561591E+02  0.15049361671E+03  0.90305465062E+01  0.17519582984E+03  0.00000000000E+00 0. -1.
          4    1    3    3  501    0 -0.89239561591E+02 -0.15049361671E+03  0.89945733923E+03  0.91631628443E+03  0.00000000000E+00 0. -1.
<mgrwt>
<rscale>  0 0.60501939E+03</rscale>
<asrwt>0</asrwt>
<pdfrwt beam="1">0</pdfrwt>
<pdfrwt beam="2">  1        2 0.33277203E+00 0.60501939E+03</pdfrwt>
<totfact> 0.70402217E+00</totfact>
</mgrwt>
</event>
<event>
 5    1  0.2357694E-004  0.6476061E+03  0.7818608E-02  0.9811281E-01
         13   -1    0    0    0    0  0.00000000000E+00  0.00000000000E+00  0.10000000000E+04  0.10000000000E+04  0.00000000000E+00 0. -1.
          2   -1    0    0  501    0 -0.00000000000E+00 -0.00000000000E+00 -0.10484842565E+03  0.10484842565E+03  0.00000000000E+00 0. -1.
    9000006    2    1    2  501    0  0.00000000000E+00  0.00000000000E+00  0.89515157435E+03  0.11048484256E+04  0.64760613230E+03 0.  0.
         13    1    3    3    0    0  0.30919040610E+03 -0.53625906463E+02  0.58378206242E+03  0.66277895370E+03  0.00000000000E+00 0. -1.
          2    1    3    3  501    0 -0.30919040610E+03  0.53625906463E+02  0.31136951193E+03  0.44206947194E+03  0.00000000000E+00 0. -1.
<mgrwt>
<rscale>  0 0.64760613E+03</rscale>
<asrwt>0</asrwt>
<pdfrwt beam="1">0</pdfrwt>
<pdfrwt beam="2">  1        2 0.38126781E+00 0.64760613E+03</pdfrwt>
<totfact> 0.46772340E+00</totfact>
</mgrwt>
</event>
<event>
 5    1  0.2357694E-004  0.6510648E+03  0.7818608E-02  0.9804783E-01
         13   -1    0    0    0    0  0.00000000000E+00  0.00000000000E+00  0.10000000000E+04  0.10000000000E+04  0.00000000000E+00 0. -1.
          2   -1    0    0  501    0 -0.00000000000E+00 -0.00000000000E+00 -0.10597133793E+03  0.10597133793E+03  0.00000000000E+00 0. -1.
    9000006    2    1    2  501    0  0.00000000000E+00  0.00000000000E+00  0.89402866207E+03  0.11059713379E+04  0.65106478306E+03 0.  0.
         13    1    3    3    0    0 -0.12802625491E+03  0.26862393262E+03  0.22279855605E+03  0.37173745534E+03  0.00000000000E+00 0. -1.
          2    1    3    3  501    0  0.12802625491E+03 -0.26862393262E+03  0.67123010602E+03  0.73423388260E+03  0.00000000000E+00 0. -1.
<mgrwt>
<rscale>  0 0.65106478E+03</rscale>
<asrwt>0</asrwt>
<pdfrwt beam="1">0</pdfrwt>
<pdfrwt beam="2">  1        2 0.38535113E+00 0.65106478E+03</pdfrwt>
<totfact> 0.45161355E+00</totfact>
</mgrwt>
</event>
<event>
 5    1  0.2357694E-004  0.6539663E+03  0.7818608E-02  0.9799365E-01
         13   -1    0    0    0    0  0.00000000000E+00  0.00000000000E+00  0.10000000000E+04  0.10000000000E+04  0.00000000000E+00 0. -1.
          2   -1    0    0  501    0 -0.00000000000E+00 -0.00000000000E+00 -0.10691798745E+03  0.10691798745E+03  0.00000000000E+00 0. -1.
    9000006    2    1    2  501    0  0.00000000000E+00  0.00000000000E+00  0.89308201255E+03  0.11069179874E+04  0.65396632161E+03 0.  0.
         13    1    3    3    0    0 -0.11069000049E+03  0.29171097949E+03  0.61212771051E+03  0.68705742536E+03  0.00000000000E+00 0. -1.
          4    1    3    3  501    0  0.11069000049E+03 -0.29171097949E+03  0.28095430204E+03  0.41986056209E+03  0.00000000000E+00 0. -1.
<mgrwt>
<rscale>  0 0.65396632E+03</rscale>
<asrwt>0</asrwt>
<pdfrwt beam="1">0</pdfrwt>
<pdfrwt beam="2">  1        2 0.38879350E+00 0.65396632E+03</pdfrwt>
<totfact> 0.43842513E+00</totfact>
</mgrwt>
</event>
<event>
 5    1  0.2357694E-004  0.6571015E+03  0.7818608E-02  0.9793544E-01
         13   -1    0    0    0    0  0.00000000000E+00  0.00000000000E+00  0.10000000000E+04  0.10000000000E+04  0.00000000000E+00 0. -1.
          2   -1    0    0  501    0 -0.00000000000E+00 -0.00000000000E+00 -0.10794561173E+03  0.10794561173E+03  0.00000000000E+00 0. -1.
    9000006    2    1    2  501    0  0.00000000000E+00  0.00000000000E+00  0.89205438827E+03  0.11079456117E+04  0.65710154993E+03 0.  0.
         13    1    3    3    0    0 -0.15410632527E+03  0.19606808481E+03  0.80668989915E+03  0.84435777177E+03  0.00000000000E+00 0. -1.
          2    1    3    3  501    0  0.15410632527E+03 -0.19606808481E+03  0.85364489123E+02  0.26358783995E+03  0.00000000000E+00 0. -1.
<mgrwt>
<rscale>  0 0.65710155E+03</rscale>
<asrwt>0</asrwt>
<pdfrwt beam="1">0</pdfrwt>
<pdfrwt beam="2">  1        2 0.39253032E+00 0.65710155E+03</pdfrwt>
<totfact> 0.42450372E+00</totfact>
</mgrwt>
</event>
<event>
 5    1  0.2357694E-004  0.6632910E+03  0.7818608E-02  0.9782154E-01
         13   -1    0    0    0    0  0.00000000000E+00  0.00000000000E+00  0.10000000000E+04  0.10000000000E+04  0.00000000000E+00 0. -1.
          2   -1    0    0  501    0 -0.00000000000E+00 -0.00000000000E+00 -0.10998875280E+03  0.10998875280E+03  0.00000000000E+00 0. -1.
    9000006    2    1    2  501    0  0.00000000000E+00  0.00000000000E+00  0.89001124720E+03  0.11099887528E+04  0.66329104563E+03 0.  0.
         13    1    3    3    0    0  0.31596184132E+03  0.92335605591E+02  0.37742193367E+03  0.50080441816E+03  0.00000000000E+00 0. -1.
          4    1    3    3  501    0 -0.31596184132E+03 -0.92335605591E+02  0.51258931353E+03  0.60918433464E+03  0.00000000000E+00 0. -1.
<mgrwt>
<rscale>  0 0.66329105E+03</rscale>
<asrwt>0</asrwt>
<pdfrwt beam="1">0</pdfrwt>
<pdfrwt beam="2">  1        2 0.39995994E+00 0.66329105E+03</pdfrwt>
<totfact> 0.39800441E+00</totfact>
</mgrwt>
</event>
<event>
 5    1  0.2357694E-004  0.7413894E+03  0.7818608E-02  0.9648957E-01
         13   -1    0    0    0    0  0.00000000000E+00  0.00000000000E+00  0.10000000000E+04  0.10000000000E+04  0.00000000000E+00 0. -1.
          2   -1    0    0  501    0 -0.00000000000E+00 -0.00000000000E+00 -0.13741455683E+03  0.13741455683E+03  0.00000000000E+00 0. -1.
    9000006    2    1    2  501    0  0.00000000000E+00  0.00000000000E+00  0.86258544317E+03  0.11374145568E+04  0.74138938980E+03 0.  0.
         13    1    3    3    0    0 -0.21240880374E+03 -0.27418043147E+03  0.23054457792E+03  0.41646513817E+03  0.00000000000E+00 0. -1.
          2    1    3    3  501    0  0.21240880374E+03  0.27418043147E+03  0.63204086525E+03  0.72094941865E+03  0.00000000000E+00 0. -1.
<mgrwt>
<rscale>  0 0.74138939E+03</rscale>
<asrwt>0</asrwt>
<pdfrwt beam="1">0</pdfrwt>
<pdfrwt beam="2">  1        2 0.49969035E+00 0.74138939E+03</pdfrwt>
<totfact> 0.15928140E+00</totfact>
</mgrwt>
</event>
<event>
 5    1  0.2357694E-004  0.6492196E+03  0.7818608E-02  0.9808245E-01
         13   -1    0    0    0    0  0.00000000000E+00  0.00000000000E+00  0.10000000000E+04  0.10000000000E+04  0.00000000000E+00 0. -1.
          2   -1    0    0  501    0 -0.00000000000E+00 -0.00000000000E+00 -0.10537153036E+03  0.10537153036E+03  0.00000000000E+00 0. -1.
    9000006    2    1    2  501    0  0.00000000000E+00  0.00000000000E+00  0.89462846964E+03  0.11053715304E+04  0.64921962498E+03 0.  0.
         13    1    3    3    0    0 -0.45533454444E+02  0.23816713921E+03  0.79870007159E+02  0.25529610204E+03  0.00000000000E+00 0. -1.
          4    1    3    3  501    0  0.45533454444E+02 -0.23816713921E+03  0.81475846248E+03  0.85007542833E+03  0.00000000000E+00 0. -1.
<mgrwt>
<rscale>  0 0.64921962E+03</rscale>
<asrwt>0</asrwt>
<pdfrwt beam="1">0</pdfrwt>
<pdfrwt beam="2">  1        2 0.38317001E+00 0.64921962E+03</pdfrwt>
<totfact> 0.46015488E+00</totfact>
</mgrwt>
</event>
<event>
 5    1  0.2357694E-004  0.6575530E+03  0.7818608E-02  0.9792709E-01
         13   -1    0    0    0    0  0.00000000000E+00  0.00000000000E+00  0.10000000000E+04  0.10000000000E+04  0.00000000000E+00 0. -1.
          2   -1    0    0  501    0 -0.00000000000E+00 -0.00000000000E+00 -0.10809398489E+03  0.10809398489E+03  0.00000000000E+00 0. -1.
    9000006    2    1    2  501    0  0.00000000000E+00  0.00000000000E+00  0.89190601511E+03  0.11080939849E+04  0.65755299374E+03 0.  0.
         13    1    3    3    0    0 -0.20663034959E+01  0.23821265925E+03  0.64103208198E+02  0.24669568691E+03  0.00000000000E+00 0. -1.
          4    1    3    3  501    0  0.20663034959E+01 -0.23821265925E+03  0.82780280691E+03  0.86139829798E+03  0.00000000000E+00 0. -1.
<mgrwt>
<rscale>  0 0.65755299E+03</rscale>
<asrwt>0</asrwt>
<pdfrwt beam="1">0</pdfrwt>
<pdfrwt beam="2">  1        2 0.39306986E+00 0.65755299E+03</pdfrwt>
<totfact> 0.42252701E+00</totfact>
</mgrwt>
</event>
<event>
 5    1  0.2357694E-004  0.6460276E+03  0.7818608E-02  0.9814262E-01
         13   -1    0    0    0    0  0.00000000000E+00  0.00000000000E+00  0.10000000000E+04  0.10000000000E+04  0.00000000000E+00 0. -1.
          2   -1    0    0  501    0 -0.00000000000E+00 -0.00000000000E+00 -0.10433790605E+03  0.10433790605E+03  0.00000000000E+00 0. -1.
    9000006    2    1    2  501    0  0.00000000000E+00  0.00000000000E+00  0.89566209395E+03  0.11043379061E+04  0.64602757232E+03 0.  0.
         13    1    3    3    0    0  0.25957919015E+03 -0.46531347743E+02  0.12898078608E+03  0.29356867247E+03  0.00000000000E+00 0. -1.
          4    1    3    3  501    0 -0.25957919015E+03  0.46531347743E+02  0.76668130787E+03  0.81076923358E+03  0.00000000000E+00 0. -1.
<mgrwt>
<rscale>  0 0.64602757E+03</rscale>
<asrwt>0</asrwt>
<pdfrwt beam="1">0</pdfrwt>
<pdfrwt beam="2">  1        2 0.37941137E+00 0.64602757E+03</pdfrwt>
<totfact> 0.47521878E+00</totfact>
</mgrwt>
</event>
<event>
 5    1  0.2357694E-004  0.6524651E+03  0.7818608E-02  0.9802165E-01
         13   -1    0    0    0    0  0.00000000000E+00  0.00000000000E+00  0.10000000000E+04  0.10000000000E+04  0.00000000000E+00 0. -1.
          2   -1    0    0  501    0 -0.00000000000E+00 -0.00000000000E+00 -0.10642768509E+03  0.10642768509E+03  0.00000000000E+00 0. -1.
    9000006    2    1    2  501    0  0.00000000000E+00  0.00000000000E+00  0.89357231491E+03  0.11064276851E+04  0.65246512578E+03 0.  0.
         13    1    3    3    0    0  0.22533406998E+03 -0.23575244359E+03  0.46127749464E+03  0.56491732565E+03  0.00000000000E+00 0. -1.
          2    1    3    3  501    0 -0.22533406998E+03  0.23575244359E+03  0.43229482027E+03  0.54151035944E+03  0.00000000000E+00 0. -1.
<mgrwt>
<rscale>  0 0.65246513E+03</rscale>
<asrwt>0</asrwt>
<pdfrwt beam="1">0</pdfrwt>
<pdfrwt beam="2">  1        2 0.38701058E+00 0.65246513E+03</pdfrwt>
<totfact> 0.44521168E+00</totfact>
</mgrwt>
</event>
<event>
 5    1  0.2357694E-004  0.6204394E+03  0.7818608E-02  0.9863885E-01
         13   -1    0    0    0    0  0.00000000000E+00  0.00000000000E+00  0.10000000000E+04  0.10000000000E+04  0.00000000000E+00 0. -1.
          2   -1    0    0  501    0 -0.00000000000E+00 -0.00000000000E+00 -0.96236260736E+02  0.96236260736E+02  0.00000000000E+00 0. -1.
    9000006    2    1    2  501    0  0.00000000000E+00  0.00000000000E+00  0.90376373926E+03  0.10962362607E+04  0.62043939506E+03 0.  0.
         13    1    3    3    0    0 -0.19479493344E+03 -0.19824225953E+03  0.20839193405E+03  0.34737912680E+03  0.00000000000E+00 0. -1.
          2    1    3    3  501    0  0.19479493344E+03  0.19824225953E+03  0.69537180522E+03  0.74885713394E+03  0.00000000000E+00 0. -1.
<mgrwt>
<rscale>  0 0.62043940E+03</rscale>
<asrwt>0</asrwt>
<pdfrwt beam="1">0</pdfrwt>
<pdfrwt beam="2">  1        2 0.34995078E+00 0.62043940E+03</pdfrwt>
<totfact> 0.60991231E+00</totfact>
</mgrwt>
</event>
<event>
 5    1  0.2357694E-004  0.6463557E+03  0.7818608E-02  0.9813642E-01
         13   -1    0    0    0    0  0.00000000000E+00  0.00000000000E+00  0.10000000000E+04  0.10000000000E+04  0.00000000000E+00 0. -1.
          2   -1    0    0  501    0 -0.00000000000E+00 -0.00000000000E+00 -0.10444391383E+03  0.10444391383E+03  0.00000000000E+00 0. -1.
    9000006    2    1    2  501    0  0.00000000000E+00  0.00000000000E+00  0.89555608617E+03  0.11044439138E+04  0.64635567247E+03 0.  0.
         13    1    3    3    0    0  0.20989135962E+03  0.17775908421E+03  0.15784195240E+03  0.31712262108E+03  0.00000000000E+00 0. -1.
          2    1    3    3  501    0 -0.20989135962E+03 -0.17775908421E+03  0.73771413377E+03  0.78732129275E+03  0.00000000000E+00 0. -1.
<mgrwt>
<rscale>  0 0.64635567E+03</rscale>
<asrwt>0</asrwt>
<pdfrwt beam="1">0</pdfrwt>
<pdfrwt beam="2">  1        2 0.37979685E+00 0.64635567E+03</pdfrwt>
<totfact> 0.47365346E+00</totfact>
</mgrwt>
</event>
<event>
 5    1  0.2357694E-004  0.6749242E+03  0.7818608E-02  0.9761103E-01
         13   -1    0    0    0    0  0.00000000000E+00  0.00000000000E+00  0.10000000000E+04  0.10000000000E+04  0.00000000000E+00 0. -1.
          2   -1    0    0  501    0 -0.00000000000E+00 -0.00000000000E+00 -0.11388065457E+03  0.11388065457E+03  0.00000000000E+00 0. -1.
    9000006    2    1    2  501    0  0.00000000000E+00  0.00000000000E+00  0.88611934543E+03  0.11138806546E+04  0.67492415742E+03 0.  0.
         13    1    3    3    0    0 -0.78325749374E+02 -0.30343923344E+03  0.64965629602E+03  0.72129300175E+03  0.00000000000E+00 0. -1.
          2    1    3    3  501    0  0.78325749374E+02  0.30343923344E+03  0.23646304941E+03  0.39258765282E+03  0.00000000000E+00 0. -1.
<mgrwt>
<rscale>  0 0.67492416E+03</rscale>
<asrwt>0</asrwt>
<pdfrwt beam="1">0</pdfrwt>
<pdfrwt beam="2">  1        2 0.41411234E+00 0.67492416E+03</pdfrwt>
<totfact> 0.35159609E+00</totfact>
</mgrwt>
</event>
<event>
 5    1  0.2357694E-004  0.6673714E+03  0.7818608E-02  0.9774718E-01
         13   -1    0    0    0    0  0.00000000000E+00  0.00000000000E+00  0.10000000000E+04  0.10000000000E+04  0.00000000000E+00 0. -1.
          2   -1    0    0  501    0 -0.00000000000E+00 -0.00000000000E+00 -0.11134613136E+03  0.11134613136E+03  0.00000000000E+00 0. -1.
    9000006    2    1    2  501    0  0.00000000000E+00  0.00000000000E+00  0.88865386864E+03  0.11113461314E+04  0.66737135497E+03 0.  0.
         13    1    3    3    0    0  0.10121487978E+03 -0.24816593551E+03  0.11329896852E+03  0.29097669960E+03  0.00000000000E+00 0. -1.
          2    1    3    3  501    0 -0.10121487978E+03  0.24816593551E+03  0.77535490012E+03  0.82036943176E+03  0.00000000000E+00 0. -1.
<mgrwt>
<rscale>  0 0.66737135E+03</rscale>
<asrwt>0</asrwt>
<pdfrwt beam="1">0</pdfrwt>
<pdfrwt beam="2">  1        2 0.40489588E+00 0.66737135E+03</pdfrwt>
<totfact> 0.38123129E+00</totfact>
</mgrwt>
</event>
<event>
 5    1  0.2357694E-004  0.5710792E+03  0.7818608E-02  0.9967293E-01
         13   -1    0    0    0    0  0.00000000000E+00  0.00000000000E+00  0.10000000000E+04  0.10000000000E+04  0.00000000000E+00 0. -1.
          2   -1    0    0  501    0 -0.00000000000E+00 -0.00000000000E+00 -0.81532852536E+02  0.81532852536E+02  0.00000000000E+00 0. -1.
    9000006    2    1    2  501    0  0.00000000000E+00  0.00000000000E+00  0.91846714746E+03  0.10815328525E+04  0.57107916276E+03 0.  0.
         13    1    3    3    0    0 -0.87270256927E+01  0.78999669199E+02  0.97862859134E+03  0.98185081784E+03  0.00000000000E+00 0. -1.
          4    1    3    3  501    0  0.87270256927E+01 -0.78999669199E+02 -0.60161443877E+02  0.99682034692E+02  0.00000000000E+00 0. -1.
<mgrwt>
<rscale>  0 0.57107916E+03</rscale>
<asrwt>0</asrwt>
<pdfrwt beam="1">0</pdfrwt>
<pdfrwt beam="2">  1        2 0.29648373E+00 0.57107916E+03</pdfrwt>
<totfact> 0.95040630E+00</totfact>
</mgrwt>
</event>
<event>
 5    1  0.2357694E-004  0.6483496E+03  0.7818608E-02  0.9809881E-01
         13   -1    0    0    0    0  0.00000000000E+00  0.00000000000E+00  0.10000000000E+04  0.10000000000E+04  0.00000000000E+00 0. -1.
          2   -1    0    0  501    0 -0.00000000000E+00 -0.00000000000E+00 -0.10508931588E+03  0.10508931588E+03  0.00000000000E+00 0. -1.
    9000006    2    1    2  501    0  0.00000000000E+00  0.00000000000E+00  0.89491068412E+03  0.11050893159E+04  0.64834964605E+03 0.  0.
         13    1    3    3    0    0  0.20571232697E+03 -0.15405198785E+03  0.11067901407E+03  0.27982033626E+03  0.00000000000E+00 0. -1.
          4    1    3    3  501    0 -0.20571232697E+03  0.15405198785E+03  0.78423167004E+03  0.82526897962E+03  0.00000000000E+00 0. -1.
<mgrwt>
<rscale>  0 0.64834965E+03</rscale>
<asrwt>0</asrwt>
<pdfrwt beam="1">0</pdfrwt>
<pdfrwt beam="2">  1        2 0.38214377E+00 0.64834965E+03</pdfrwt>
<totfact> 0.46422415E+00</totfact>
</mgrwt>
</event>
<event>
 5    1  0.2357694E-004  0.6511749E+03  0.7818608E-02  0.9804577E-01
         13   -1    0    0    0    0  0.00000000000E+00  0.00000000000E+00  0.10000000000E+04  0.10000000000E+04  0.00000000000E+00 0. -1.
          2   -1    0    0  501    0 -0.00000000000E+00 -0.00000000000E+00 -0.10600718133E+03  0.10600718133E+03  0.00000000000E+00 0. -1.
    9000006    2    1    2  501    0  0.00000000000E+00  0.00000000000E+00  0.89399281867E+03  0.11060071813E+04  0.65117488075E+03 0.  0.
         13    1    3    3    0    0  0.29342989124E+03 -0.90042045406E+02  0.63148686178E+03  0.70212842673E+03  0.00000000000E+00 0. -1.
          4    1    3    3  501    0 -0.29342989124E+03  0.90042045406E+02  0.26250595689E+03  0.40387875460E+03  0.00000000000E+00 0. -1.
<mgrwt>
<rscale>  0 0.65117488E+03</rscale>
<asrwt>0</asrwt>
<pdfrwt beam="1">0</pdfrwt>
<pdfrwt beam="2">  1        2 0.38548147E+00 0.65117488E+03</pdfrwt>
<totfact> 0.45110772E+00</totfact>
</mgrwt>
</event>
<event>
 5    1  0.2357694E-004  0.6334867E+03  0.7818608E-02  0.9838268E-01
         13   -1    0    0    0    0  0.00000000000E+00  0.00000000000E+00  0.10000000000E+04  0.10000000000E+04  0.00000000000E+00 0. -1.
          2   -1    0    0  501    0 -0.00000000000E+00 -0.00000000000E+00 -0.10032635202E+03  0.10032635202E+03  0.00000000000E+00 0. -1.
    9000006    2    1    2  501    0  0.00000000000E+00  0.00000000000E+00  0.89967364798E+03  0.11003263520E+04  0.63348670711E+03 0.  0.
         13    1    3    3    0    0 -0.21885841267E+03 -0.83767943577E+02  0.81997262371E+03  0.85280195638E+03  0.00000000000E+00 0. -1.
          4    1    3    3  501    0  0.21885841267E+03  0.83767943577E+02  0.79701024271E+02  0.24752439564E+03  0.00000000000E+00 0. -1.
<mgrwt>
<rscale>  0 0.63348671E+03</rscale>
<asrwt>0</asrwt>
<pdfrwt beam="1">0</pdfrwt>
<pdfrwt beam="2">  1        2 0.36482387E+00 0.63348671E+03</pdfrwt>
<totfact> 0.53804969E+00</totfact>
</mgrwt>
</event>
<event>
 5    1  0.2357694E-004  0.6361388E+03  0.7818608E-02  0.9833142E-01
         13   -1    0    0    0    0  0.00000000000E+00  0.00000000000E+00  0.10000000000E+04  0.10000000000E+04  0.00000000000E+00 0. -1.
          2   -1    0    0  501    0 -0.00000000000E+00 -0.00000000000E+00 -0.10116815226E+03  0.10116815226E+03  0.00000000000E+00 0. -1.
    9000006    2    1    2  501    0  0.00000000000E+00  0.00000000000E+00  0.89883184774E+03  0.11011681523E+04  0.63613882843E+03 0.  0.
         13    1    3    3    0    0  0.88944009366E+02  0.13446487924E+03  0.92403178190E+03  0.93799071132E+03  0.00000000000E+00 0. -1.
          2    1    3    3  501    0 -0.88944009366E+02 -0.13446487924E+03 -0.25199934161E+02  0.16317744094E+03  0.00000000000E+00 0. -1.
<mgrwt>
<rscale>  0 0.63613883E+03</rscale>
<asrwt>0</asrwt>
<pdfrwt beam="1">0</pdfrwt>
<pdfrwt beam="2">  1        2 0.36788497E+00 0.63613883E+03</pdfrwt>
<totfact> 0.52426629E+00</totfact>
</mgrwt>
</event>
<event>
 5    1  0.2357694E-004  0.6527413E+03  0.7818608E-02  0.9801649E-01
         13   -1    0    0    0    0  0.00000000000E+00  0.00000000000E+00  0.10000000000E+04  0.10000000000E+04  0.00000000000E+00 0. -1.
          2   -1    0    0  501    0 -0.00000000000E+00 -0.00000000000E+00 -0.10651780229E+03  0.10651780229E+03  0.00000000000E+00 0. -1.
    9000006    2    1    2  501    0  0.00000000000E+00  0.00000000000E+00  0.89348219771E+03  0.11065178023E+04  0.65274130339E+03 0.  0.
         13    1    3    3    0    0  0.17440875746E+03  0.93653266552E+02  0.68789110972E+01  0.19808247886E+03  0.00000000000E+00 0. -1.
          2    1    3    3  501    0 -0.17440875746E+03 -0.93653266552E+02  0.88660328661E+03  0.90843532343E+03  0.00000000000E+00 0. -1.
<mgrwt>
<rscale>  0 0.65274130E+03</rscale>
<asrwt>0</asrwt>
<pdfrwt beam="1">0</pdfrwt>
<pdfrwt beam="2">  1        2 0.38733828E+00 0.65274130E+03</pdfrwt>
<totfact> 0.44395723E+00</totfact>
</mgrwt>
</event>
<event>
 5    1  0.2357694E-004  0.6276069E+03  0.7818608E-02  0.9849730E-01
         13   -1    0    0    0    0  0.00000000000E+00  0.00000000000E+00  0.10000000000E+04  0.10000000000E+04  0.00000000000E+00 0. -1.
          2   -1    0    0  501    0 -0.00000000000E+00 -0.00000000000E+00 -0.98472613148E+02  0.98472613148E+02  0.00000000000E+00 0. -1.
    9000006    2    1    2  501    0  0.00000000000E+00  0.00000000000E+00  0.90152738685E+03  0.10984726131E+04  0.62760692523E+03 0.  0.
         13    1    3    3    0    0 -0.85461536071E+02 -0.30152193261E+03  0.42289870122E+03  0.52636723063E+03  0.00000000000E+00 0. -1.
          2    1    3    3  501    0  0.85461536071E+02  0.30152193261E+03  0.47862868564E+03  0.57210538252E+03  0.00000000000E+00 0. -1.
<mgrwt>
<rscale>  0 0.62760693E+03</rscale>
<asrwt>0</asrwt>
<pdfrwt beam="1">0</pdfrwt>
<pdfrwt beam="2">  1        2 0.35808298E+00 0.62760693E+03</pdfrwt>
<totfact> 0.56958709E+00</totfact>
</mgrwt>
</event>
<event>
 5    1  0.2357694E-004  0.6536498E+03  0.7818608E-02  0.9799955E-01
         13   -1    0    0    0    0  0.00000000000E+00  0.00000000000E+00  0.10000000000E+04  0.10000000000E+04  0.00000000000E+00 0. -1.
          2   -1    0    0  501    0 -0.00000000000E+00 -0.00000000000E+00 -0.10681451778E+03  0.10681451778E+03  0.00000000000E+00 0. -1.
    9000006    2    1    2  501    0  0.00000000000E+00  0.00000000000E+00  0.89318548222E+03  0.11068145178E+04  0.65364980771E+03 0.  0.
         13    1    3    3    0    0  0.19282794126E+03 -0.26374703346E+03  0.43248603255E+03  0.54202332140E+03  0.00000000000E+00 0. -1.
          4    1    3    3  501    0 -0.19282794126E+03  0.26374703346E+03  0.46069944967E+03  0.56479119638E+03  0.00000000000E+00 0. -1.
<mgrwt>
<rscale>  0 0.65364981E+03</rscale>
<asrwt>0</asrwt>
<pdfrwt beam="1">0</pdfrwt>
<pdfrwt beam="2">  1        2 0.38841725E+00 0.65364981E+03</pdfrwt>
<totfact> 0.43984947E+00</totfact>
</mgrwt>
</event>
<event>
 5    1  0.2357694E-004  0.6570485E+03  0.7818608E-02  0.9793642E-01
         13   -1    0    0    0    0  0.00000000000E+00  0.00000000000E+00  0.10000000000E+04  0.10000000000E+04  0.00000000000E+00 0. -1.
          2   -1    0    0  501    0 -0.00000000000E+00 -0.00000000000E+00 -0.10792817610E+03  0.10792817610E+03  0.00000000000E+00 0. -1.
    9000006    2    1    2  501    0  0.00000000000E+00  0.00000000000E+00  0.89207182390E+03  0.11079281761E+04  0.65704847949E+03 0.  0.
         13    1    3    3    0    0  0.54938969238E+02  0.25965480668E+03  0.11954757789E+03  0.29108509469E+03  0.00000000000E+00 0. -1.
          2    1    3    3  501    0 -0.54938969238E+02 -0.25965480668E+03  0.77252424601E+03  0.81684308141E+03  0.00000000000E+00 0. -1.
<mgrwt>
<rscale>  0 0.65704848E+03</rscale>
<asrwt>0</asrwt>
<pdfrwt beam="1">0</pdfrwt>
<pdfrwt beam="2">  1        2 0.39246692E+00 0.65704848E+03</pdfrwt>
<totfact> 0.42473655E+00</totfact>
</mgrwt>
</event>
<event>
 5    1  0.2357694E-004  0.6557714E+03  0.7818608E-02  0.9796009E-01
         13   -1    0    0    0    0  0.00000000000E+00  0.00000000000E+00  0.10000000000E+04  0.10000000000E+04  0.00000000000E+00 0. -1.
          2   -1    0    0  501    0 -0.00000000000E+00 -0.00000000000E+00 -0.10750904269E+03  0.10750904269E+03  0.00000000000E+00 0. -1.
    9000006    2    1    2  501    0  0.00000000000E+00  0.00000000000E+00  0.89249095731E+03  0.11075090427E+04  0.65577143181E+03 0.  0.
         13    1    3    3    0    0  0.85733985191E+02  0.17345726596E+01  0.98072695901E+03  0.98446873647E+03  0.00000000000E+00 0. -1.
          4    1    3    3  501    0 -0.85733985191E+02 -0.17345726596E+01 -0.88236001704E+02  0.12304030622E+03  0.00000000000E+00 0. -1.
<mgrwt>
<rscale>  0 0.65577143E+03</rscale>
<asrwt>0</asrwt>
<pdfrwt beam="1">0</pdfrwt>
<pdfrwt beam="2">  1        2 0.39094280E+00 0.65577143E+03</pdfrwt>
<totfact> 0.43036845E+00</totfact>
</mgrwt>
</event>
<event>
 5    1  0.2357694E-004  0.6459264E+03  0.7818608E-02  0.9814453E-01
         13   -1    0    0    0    0  0.00000000000E+00  0.00000000000E+00  0.10000000000E+04  0.10000000000E+04  0.00000000000E+00 0. -1.
          2   -1    0    0  501    0 -0.00000000000E+00 -0.00000000000E+00 -0.10430523479E+03  0.10430523479E+03  0.00000000000E+00 0. -1.
    9000006    2    1    2  501    0  0.00000000000E+00  0.00000000000E+00  0.89569476521E+03  0.11043052348E+04  0.64592641932E+03 0.  0.
         13    1    3    3    0    0  0.18622131415E+03  0.22573127556E+03  0.21423041182E+03  0.36266741783E+03  0.00000000000E+00 0. -1.
          2    1    3    3  501    0 -0.18622131415E+03 -0.22573127556E+03  0.68146435339E+03  0.74163781696E+03  0.00000000000E+00 0. -1.
<mgrwt>
<rscale>  0 0.64592642E+03</rscale>
<asrwt>0</asrwt>
<pdfrwt beam="1">0</pdfrwt>
<pdfrwt beam="2">  1        2 0.37929256E+00 0.64592642E+03</pdfrwt>
<totfact> 0.47570215E+00</totfact>
</mgrwt>
</event>
<event>
 5    1  0.2357694E-004  0.6494316E+03  0.7818608E-02  0.9807846E-01
         13   -1    0    0    0    0  0.00000000000E+00  0.00000000000E+00  0.10000000000E+04  0.10000000000E+04  0.00000000000E+00 0. -1.
          2   -1    0    0  501    0 -0.00000000000E+00 -0.00000000000E+00 -0.10544033608E+03  0.10544033608E+03  0.00000000000E+00 0. -1.
    9000006    2    1    2  501    0  0.00000000000E+00  0.00000000000E+00  0.89455966392E+03  0.11054403361E+04  0.64943155477E+03 0.  0.
         13    1    3    3    0    0 -0.11031935504E+03 -0.10963032057E+03 -0.37915629120E+02  0.16008361008E+03  0.00000000000E+00 0. -1.
          4    1    3    3  501    0  0.11031935504E+03  0.10963032057E+03  0.93247529304E+03  0.94535672601E+03  0.00000000000E+00 0. -1.
<mgrwt>
<rscale>  0 0.64943155E+03</rscale>
<asrwt>0</asrwt>
<pdfrwt beam="1">0</pdfrwt>
<pdfrwt beam="2">  1        2 0.38342021E+00 0.64943155E+03</pdfrwt>
<totfact> 0.45916769E+00</totfact>
</mgrwt>
</event>
<event>
 5    1  0.2357694E-004  0.6472898E+03  0.7818608E-02  0.9811878E-01
         13   -1    0    0    0    0  0.00000000000E+00  0.00000000000E+00  0.10000000000E+04  0.10000000000E+04  0.00000000000E+00 0. -1.
          2   -1    0    0  501    0 -0.00000000000E+00 -0.00000000000E+00 -0.10474602917E+03  0.10474602917E+03  0.00000000000E+00 0. -1.
    9000006    2    1    2  501    0  0.00000000000E+00  0.00000000000E+00  0.89525397083E+03  0.11047460292E+04  0.64728982434E+03 0.  0.
         13    1    3    3    0    0 -0.26240867292E+03  0.16049434683E+03  0.27585473536E+03  0.41317379153E+03  0.00000000000E+00 0. -1.
          4    1    3    3  501    0  0.26240867292E+03 -0.16049434683E+03  0.61939923546E+03  0.69157223764E+03  0.00000000000E+00 0. -1.
<mgrwt>
<rscale>  0 0.64728982E+03</rscale>
<asrwt>0</asrwt>
<pdfrwt beam="1">0</pdfrwt>
<pdfrwt beam="2">  1        2 0.38089545E+00 0.64728982E+03</pdfrwt>
<totfact> 0.46921809E+00</totfact>
</mgrwt>
</event>
<event>
 5    1  0.2357694E-004  0.6687694E+03  0.7818608E-02  0.9772184E-01
         13   -1    0    0    0    0  0.00000000000E+00  0.00000000000E+00  0.10000000000E+04  0.10000000000E+04  0.00000000000E+00 0. -1.
          2   -1    0    0  501    0 -0.00000000000E+00 -0.00000000000E+00 -0.11181311404E+03  0.11181311404E+03  0.00000000000E+00 0. -1.
    9000006    2    1    2  501    0  0.00000000000E+00  0.00000000000E+00  0.88818688596E+03  0.11118131140E+04  0.66876935946E+03 0.  0.
         13    1    3    3    0    0  0.21177837611E+03  0.15218698325E+02  0.14635515783E+02  0.21282830565E+03  0.00000000000E+00 0. -1.
          2    1    3    3  501    0 -0.21177837611E+03 -0.15218698325E+02  0.87355137018E+03  0.89898480838E+03  0.00000000000E+00 0. -1.
<mgrwt>
<rscale>  0 0.66876936E+03</rscale>
<asrwt>0</asrwt>
<pdfrwt beam="1">0</pdfrwt>
<pdfrwt beam="2">  1        2 0.40659400E+00 0.66876936E+03</pdfrwt>
<totfact> 0.37560891E+00</totfact>
</mgrwt>
</event>
<event>
 5    1  0.2357694E-004  0.6456554E+03  0.7818608E-02  0.9814966E-01
         13   -1    0    0    0    0  0.00000000000E+00  0.00000000000E+00  0.10000000000E+04  0.10000000000E+04  0.00000000000E+00 0. -1.
          2   -1    0    0  501    0 -0.00000000000E+00 -0.00000000000E+00 -0.10421773147E+03  0.10421773147E+03  0.00000000000E+00 0. -1.
    9000006    2    1    2  501    0  0.00000000000E+00  0.00000000000E+00  0.89578226853E+03  0.11042177315E+04  0.64565542347E+03 0.  0.
         13    1    3    3    0    0 -0.55226067028E+02  0.31685193118E+03  0.49543013061E+03  0.59067425802E+03  0.00000000000E+00 0. -1.
          4    1    3    3  501    0  0.55226067028E+02 -0.31685193118E+03  0.40035213793E+03  0.51354347344E+03  0.00000000000E+00 0. -1.
<mgrwt>
<rscale>  0 0.64565542E+03</rscale>
<asrwt>0</asrwt>
<pdfrwt beam="1">0</pdfrwt>
<pdfrwt beam="2">  1        2 0.37897437E+00 0.64565542E+03</pdfrwt>
<totfact> 0.47699899E+00</totfact>
</mgrwt>
</event>
<event>
 5    1  0.2357694E-004  0.6460584E+03  0.7818608E-02  0.9814203E-01
         13   -1    0    0    0    0  0.00000000000E+00  0.00000000000E+00  0.10000000000E+04  0.10000000000E+04  0.00000000000E+00 0. -1.
          2   -1    0    0  501    0 -0.00000000000E+00 -0.00000000000E+00 -0.10434787525E+03  0.10434787525E+03  0.00000000000E+00 0. -1.
    9000006    2    1    2  501    0  0.00000000000E+00  0.00000000000E+00  0.89565212475E+03  0.11043478752E+04  0.64605843465E+03 0.  0.
         13    1    3    3    0    0  0.23601223192E+03  0.87810030228E+02  0.10197895313E+03  0.27168379029E+03  0.00000000000E+00 0. -1.
          4    1    3    3  501    0 -0.23601223192E+03 -0.87810030228E+02  0.79367317163E+03  0.83266408496E+03  0.00000000000E+00 0. -1.
<mgrwt>
<rscale>  0 0.64605843E+03</rscale>
<asrwt>0</asrwt>
<pdfrwt beam="1">0</pdfrwt>
<pdfrwt beam="2">  1        2 0.37944762E+00 0.64605843E+03</pdfrwt>
<totfact> 0.47507137E+00</totfact>
</mgrwt>
</event>
<event>
 5    1  0.2357694E-004  0.5466775E+03  0.7818608E-02  0.1002266E+00
         13   -1    0    0    0    0  0.00000000000E+00  0.00000000000E+00  0.10000000000E+04  0.10000000000E+04  0.00000000000E+00 0. -1.
          2   -1    0    0  501    0 -0.00000000000E+00 -0.00000000000E+00 -0.74714059927E+02  0.74714059927E+02  0.00000000000E+00 0. -1.
    9000006    2    1    2  501    0  0.00000000000E+00  0.00000000000E+00  0.92528594007E+03  0.10747140599E+04  0.54667745491E+03 0.  0.
         13    1    3    3    0    0 -0.15163247807E+03 -0.14896009684E+03  0.80048383085E+03  0.82822453617E+03  0.00000000000E+00 0. -1.
          4    1    3    3  501    0  0.15163247807E+03  0.14896009684E+03  0.12480210922E+03  0.24648952376E+03  0.00000000000E+00 0. -1.
<mgrwt>
<rscale>  0 0.54667745E+03</rscale>
<asrwt>0</asrwt>
<pdfrwt beam="1">0</pdfrwt>
<pdfrwt beam="2">  1        2 0.27168806E+00 0.54667745E+03</pdfrwt>
<totfact> 0.11655197E+01</totfact>
</mgrwt>
</event>
<event>
 5    1  0.2357694E-004  0.6272895E+03  0.7818608E-02  0.9850352E-01
         13   -1    0    0    0    0  0.00000000000E+00  0.00000000000E+00  0.10000000000E+04  0.10000000000E+04  0.00000000000E+00 0. -1.
          2   -1    0    0  501    0 -0.00000000000E+00 -0.00000000000E+00 -0.98373038822E+02  0.98373038822E+02  0.00000000000E+00 0. -1.
    9000006    2    1    2  501    0  0.00000000000E+00  0.00000000000E+00  0.90162696118E+03  0.10983730388E+04  0.62728953067E+03 0.  0.
         13    1    3    3    0    0 -0.25812822527E+03 -0.17561183573E+03  0.50344037663E+03  0.59238662236E+03  0.00000000000E+00 0. -1.
          2    1    3    3  501    0  0.25812822527E+03  0.17561183573E+03  0.39818658454E+03  0.50598641646E+03  0.00000000000E+00 0. -1.
<mgrwt>
<rscale>  0 0.62728953E+03</rscale>
<asrwt>0</asrwt>
<pdfrwt beam="1">0</pdfrwt>
<pdfrwt beam="2">  1        2 0.35772090E+00 0.62728953E+03</pdfrwt>
<totfact> 0.57132852E+00</totfact>
</mgrwt>
</event>
<event>
 5    1  0.2357694E-004  0.6509221E+03  0.7818608E-02  0.9805050E-01
         13   -1    0    0    0    0  0.00000000000E+00  0.00000000000E+00  0.10000000000E+04  0.10000000000E+04  0.00000000000E+00 0. -1.
          2   -1    0    0  501    0 -0.00000000000E+00 -0.00000000000E+00 -0.10592488943E+03  0.10592488943E+03  0.00000000000E+00 0. -1.
    9000006    2    1    2  501    0  0.00000000000E+00  0.00000000000E+00  0.89407511057E+03  0.11059248894E+04  0.65092208269E+03 0.  0.
         13    1    3    3    0    0  0.57912234722E+01  0.31032964028E+03  0.28068290535E+03  0.41847451208E+03  0.00000000000E+00 0. -1.
          4    1    3    3  501    0 -0.57912234722E+01 -0.31032964028E+03  0.61339220522E+03  0.68745037736E+03  0.00000000000E+00 0. -1.
<mgrwt>
<rscale>  0 0.65092208E+03</rscale>
<asrwt>0</asrwt>
<pdfrwt beam="1">0</pdfrwt>
<pdfrwt beam="2">  1        2 0.38518223E+00 0.65092208E+03</pdfrwt>
<totfact> 0.45226981E+00</totfact>
</mgrwt>
</event>
<event>
 5    1  0.2357694E-004  0.6057514E+03  0.7818608E-02  0.9893545E-01
         13   -1    0    0    0    0  0.00000000000E+00  0.00000000000E+00  0.10000000000E+04  0.10000000000E+04  0.00000000000E+00 0. -1.
          2   -1    0    0  501    0 -0.00000000000E+00 -0.00000000000E+00 -0.91733684866E+02  0.91733684866E+02  0.00000000000E+00 0. -1.
    9000006    2    1    2  501    0  0.00000000000E+00  0.00000000000E+00  0.90826631513E+03  0.10917336849E+04  0.60575138420E+03 0.  0.
         13    1    3    3    0    0  0.26303298091E+03  0.11692459348E+03  0.28433603091E+03  0.40460435993E+03  0.00000000000E+00 0. -1.
          2    1    3    3  501    0 -0.26303298091E+03 -0.11692459348E+03  0.62393028423E+03  0.68712932493E+03  0.00000000000E+00 0. -1.
<mgrwt>
<rscale>  0 0.60575138E+03</rscale>
<asrwt>0</asrwt>
<pdfrwt beam="1">0</pdfrwt>
<pdfrwt beam="2">  1        2 0.33357774E+00 0.60575138E+03</pdfrwt>
<totfact> 0.69931866E+00</totfact>
</mgrwt>
</event>
<event>
 5    1  0.2357694E-004  0.6447505E+03  0.7818608E-02  0.9816680E-01
         13   -1    0    0    0    0  0.00000000000E+00  0.00000000000E+00  0.10000000000E+04  0.10000000000E+04  0.00000000000E+00 0. -1.
          2   -1    0    0  501    0 -0.00000000000E+00 -0.00000000000E+00 -0.10392580491E+03  0.10392580491E+03  0.00000000000E+00 0. -1.
    9000006    2    1    2  501    0  0.00000000000E+00  0.00000000000E+00  0.89607419509E+03  0.11039258049E+04  0.64475050959E+03 0.  0.
         13    1    3    3    0    0  0.10028212822E+03  0.23549349650E+03  0.11246774585E+03  0.27957590381E+03  0.00000000000E+00 0. -1.
          2    1    3    3  501    0 -0.10028212822E+03 -0.23549349650E+03  0.78360644924E+03  0.82434990109E+03  0.00000000000E+00 0. -1.
<mgrwt>
<rscale>  0 0.64475051E+03</rscale>
<asrwt>0</asrwt>
<pdfrwt beam="1">0</pdfrwt>
<pdfrwt beam="2">  1        2 0.37791281E+00 0.64475051E+03</pdfrwt>
<totfact> 0.48134877E+00</totfact>
</mgrwt>
</event>
<event>
 5    1  0.2357694E-004  0.6379538E+03  0.7818608E-02  0.9829649E-01
         13   -1    0    0    0    0  0.00000000000E+00  0.00000000000E+00  0.10000000000E+04  0.10000000000E+04  0.00000000000E+00 0. -1.
          2   -1    0    0  501    0 -0.00000000000E+00 -0.00000000000E+00 -0.10174626901E+03  0.10174626901E+03  0.00000000000E+00 0. -1.
    9000006    2    1    2  501    0  0.00000000000E+00  0.00000000000E+00  0.89825373099E+03  0.11017462690E+04  0.63795381966E+03 0.  0.
         13    1    3    3    0    0  0.18637589874E+03  0.24762327777E+03  0.31882124308E+03  0.44463496080E+03  0.00000000000E+00 0. -1.
          2    1    3    3  501    0 -0.18637589874E+03 -0.24762327777E+03  0.57943248791E+03  0.65711130821E+03  0.00000000000E+00 0. -1.
<mgrwt>
<rscale>  0 0.63795382E+03</rscale>
<asrwt>0</asrwt>
<pdfrwt beam="1">0</pdfrwt>
<pdfrwt beam="2">  1        2 0.36998721E+00 0.63795382E+03</pdfrwt>
<totfact> 0.51498898E+00</totfact>
</mgrwt>
</event>
<event>
 5    1  0.2357694E-004  0.6497845E+03  0.7818608E-02  0.9807184E-01
         13   -1    0    0    0    0  0.00000000000E+00  0.00000000000E+00  0.10000000000E+04  0.10000000000E+04  0.00000000000E+00 0. -1.
          2   -1    0    0  501    0 -0.00000000000E+00 -0.00000000000E+00 -0.10555495965E+03  0.10555495965E+03  0.00000000000E+00 0. -1.
    9000006    2    1    2  501    0  0.00000000000E+00  0.00000000000E+00  0.89444504035E+03  0.11055549597E+04  0.64978445550E+03 0.  0.
         13    1    3    3    0    0 -0.20831000571E+03  0.89682819745E+02  0.51413696275E+02  0.23254985444E+03  0.00000000000E+00 0. -1.
          4    1    3    3  501    0  0.20831000571E+03 -0.89682819745E+02  0.84303134407E+03  0.87300510521E+03  0.00000000000E+00 0. -1.
<mgrwt>
<rscale>  0 0.64978446E+03</rscale>
<asrwt>0</asrwt>
<pdfrwt beam="1">0</pdfrwt>
<pdfrwt beam="2">  1        2 0.38383703E+00 0.64978446E+03</pdfrwt>
<totfact> 0.45752740E+00</totfact>
</mgrwt>
</event>
<event>
 5    1  0.2357694E-004  0.6439008E+03  0.7818608E-02  0.9818292E-01
         13   -1    0    0    0    0  0.00000000000E+00  0.00000000000E+00  0.10000000000E+04  0.10000000000E+04  0.00000000000E+00 0. -1.
          2   -1    0    0  501    0 -0.00000000000E+00 -0.00000000000E+00 -0.10365204994E+03  0.10365204994E+03  0.00000000000E+00 0. -1.
    9000006    2    1    2  501    0  0.00000000000E+00  0.00000000000E+00  0.89634795006E+03  0.11036520499E+04  0.64390076857E+03 0.  0.
         13    1    3    3    0    0 -0.20739218598E+03 -0.62324017431E+02  0.39835719003E+02  0.22018784359E+03  0.00000000000E+00 0. -1.
          4    1    3    3  501    0  0.20739218598E+03  0.62324017431E+02  0.85651223106E+03  0.88346420635E+03  0.00000000000E+00 0. -1.
<mgrwt>
<rscale>  0 0.64390077E+03</rscale>
<asrwt>0</asrwt>
<pdfrwt beam="1">0</pdfrwt>
<pdfrwt beam="2">  1        2 0.37691734E+00 0.64390077E+03</pdfrwt>
<totfact> 0.48546062E+00</totfact>
</mgrwt>
</event>
<event>
 5    1  0.2357694E-004  0.6505402E+03  0.7818608E-02  0.9805766E-01
         13   -1    0    0    0    0  0.00000000000E+00  0.00000000000E+00  0.10000000000E+04  0.10000000000E+04  0.00000000000E+00 0. -1.
          2   -1    0    0  501    0 -0.00000000000E+00 -0.00000000000E+00 -0.10580062441E+03  0.10580062441E+03  0.00000000000E+00 0. -1.
    9000006    2    1    2  501    0  0.00000000000E+00  0.00000000000E+00  0.89419937559E+03  0.11058006244E+04  0.65054015835E+03 0.  0.
         13    1    3    3    0    0  0.17229556649E+03 -0.27499844022E+03  0.40944495060E+03  0.52245102347E+03  0.00000000000E+00 0. -1.
          4    1    3    3  501    0 -0.17229556649E+03  0.27499844022E+03  0.48475442499E+03  0.58334960093E+03  0.00000000000E+00 0. -1.
<mgrwt>
<rscale>  0 0.65054016E+03</rscale>
<asrwt>0</asrwt>
<pdfrwt beam="1">0</pdfrwt>
<pdfrwt beam="2">  1        2 0.38473035E+00 0.65054016E+03</pdfrwt>
<totfact> 0.45402977E+00</totfact>
</mgrwt>
</event>
<event>
 5    1  0.2357694E-004  0.6598597E+03  0.7818608E-02  0.9788452E-01
         13   -1    0    0    0    0  0.00000000000E+00  0.00000000000E+00  0.10000000000E+04  0.10000000000E+04  0.00000000000E+00 0. -1.
          2   -1    0    0  501    0 -0.00000000000E+00 -0.00000000000E+00 -0.10885369939E+03  0.10885369939E+03  0.00000000000E+00 0. -1.
    9000006    2    1    2  501    0  0.00000000000E+00  0.00000000000E+00  0.89114630061E+03  0.11088536994E+04  0.65985968019E+03 0.  0.
         13    1    3    3    0    0 -0.12582664530E+03 -0.26083077528E+03  0.17993273317E+03  0.34094108944E+03  0.00000000000E+00 0. -1.
          4    1    3    3  501    0  0.12582664530E+03  0.26083077528E+03  0.71121356744E+03  0.76791260995E+03  0.00000000000E+00 0. -1.
<mgrwt>
<rscale>  0 0.65985968E+03</rscale>
<asrwt>0</asrwt>
<pdfrwt beam="1">0</pdfrwt>
<pdfrwt beam="2">  1        2 0.39583247E+00 0.65985968E+03</pdfrwt>
<totfact> 0.41253568E+00</totfact>
</mgrwt>
</event>
<event>
 5    1  0.2357694E-004  0.6234154E+03  0.7818608E-02  0.9857983E-01
         13   -1    0    0    0    0  0.00000000000E+00  0.00000000000E+00  0.10000000000E+04  0.10000000000E+04  0.00000000000E+00 0. -1.
          2   -1    0    0  501    0 -0.00000000000E+00 -0.00000000000E+00 -0.97161683165E+02  0.97161683165E+02  0.00000000000E+00 0. -1.
    9000006    2    1    2  501    0  0.00000000000E+00  0.00000000000E+00  0.90283831684E+03  0.10971616832E+04  0.62341537730E+03 0.  0.
         13    1    3    3    0    0 -0.26830595901E+02  0.26538906610E+03  0.16758345753E+03  0.31501659086E+03  0.00000000000E+00 0. -1.
          4    1    3    3  501    0  0.26830595901E+02 -0.26538906610E+03  0.73525485931E+03  0.78214509230E+03  0.00000000000E+00 0. -1.
<mgrwt>
<rscale>  0 0.62341538E+03</rscale>
<asrwt>0</asrwt>
<pdfrwt beam="1">0</pdfrwt>
<pdfrwt beam="2">  1        2 0.35331596E+00 0.62341538E+03</pdfrwt>
<totfact> 0.59291409E+00</totfact>
</mgrwt>
</event>
<event>
 5    1  0.2357694E-004  0.6511971E+03  0.7818608E-02  0.9804535E-01
         13   -1    0    0    0    0  0.00000000000E+00  0.00000000000E+00  0.10000000000E+04  0.10000000000E+04  0.00000000000E+00 0. -1.
          2   -1    0    0  501    0 -0.00000000000E+00 -0.00000000000E+00 -0.10601442591E+03  0.10601442591E+03  0.00000000000E+00 0. -1.
    9000006    2    1    2  501    0  0.00000000000E+00  0.00000000000E+00  0.89398557409E+03  0.11060144259E+04  0.65119713117E+03 0.  0.
         13    1    3    3    0    0  0.35298534736E+02  0.24629479877E+03  0.90292379020E+02  0.26468817156E+03  0.00000000000E+00 0. -1.
          4    1    3    3  501    0 -0.35298534736E+02 -0.24629479877E+03  0.80369319507E+03  0.84132625435E+03  0.00000000000E+00 0. -1.
<mgrwt>
<rscale>  0 0.65119713E+03</rscale>
<asrwt>0</asrwt>
<pdfrwt beam="1">0</pdfrwt>
<pdfrwt beam="2">  1        2 0.38550782E+00 0.65119713E+03</pdfrwt>
<totfact> 0.45100554E+00</totfact>
</mgrwt>
</event>
<event>
 5    1  0.2357694E-004  0.5712686E+03  0.7818608E-02  0.9966875E-01
         13   -1    0    0    0    0  0.00000000000E+00  0.00000000000E+00  0.10000000000E+04  0.10000000000E+04  0.00000000000E+00 0. -1.
          2   -1    0    0  501    0 -0.00000000000E+00 -0.00000000000E+00 -0.81586946251E+02  0.81586946251E+02  0.00000000000E+00 0. -1.
    9000006    2    1    2  501    0  0.00000000000E+00  0.00000000000E+00  0.91841305375E+03  0.10815869463E+04  0.57126857519E+03 0.  0.
         13    1    3    3    0    0 -0.74489490356E+02  0.27570753144E+03  0.45000513453E+03  0.53298025120E+03  0.00000000000E+00 0. -1.
          4    1    3    3  501    0  0.74489490356E+02 -0.27570753144E+03  0.46840791922E+03  0.54860669505E+03  0.00000000000E+00 0. -1.
<mgrwt>
<rscale>  0 0.57126858E+03</rscale>
<asrwt>0</asrwt>
<pdfrwt beam="1">0</pdfrwt>
<pdfrwt beam="2">  1        2 0.29668043E+00 0.57126858E+03</pdfrwt>
<totfact> 0.94886819E+00</totfact>
</mgrwt>
</event>
<event>
 5    1  0.2357694E-004  0.6523382E+03  0.7818608E-02  0.9802402E-01
         13   -1    0    0    0    0  0.00000000000E+00  0.00000000000E+00  0.10000000000E+04  0.10000000000E+04  0.00000000000E+00 0. -1.
          2   -1    0    0  501    0 -0.00000000000E+00 -0.00000000000E+00 -0.10638627685E+03  0.10638627685E+03  0.00000000000E+00 0. -1.
    9000006    2    1    2  501    0  0.00000000000E+00  0.00000000000E+00  0.89361372315E+03  0.11063862768E+04  0.65233818483E+03 0.  0.
         13    1    3    3    0    0 -0.31756014963E+03 -0.71227507160E+02  0.41009764848E+03  0.52354358720E+03  0.00000000000E+00 0. -1.
          4    1    3    3  501    0  0.31756014963E+03  0.71227507160E+02  0.48351607467E+03  0.58284268965E+03  0.00000000000E+00 0. -1.
<mgrwt>
<rscale>  0 0.65233818E+03</rscale>
<asrwt>0</asrwt>
<pdfrwt beam="1">0</pdfrwt>
<pdfrwt beam="2">  1        2 0.38686000E+00 0.65233818E+03</pdfrwt>
<totfact> 0.44578916E+00</totfact>
</mgrwt>
</event>
<event>
 5    1  0.2357694E-004  0.6514390E+03  0.7818608E-02  0.9804083E-01
         13   -1    0    0    0    0  0.00000000000E+00  0.00000000000E+00  0.10000000000E+04  0.10000000000E+04  0.00000000000E+00 0. -1.
          2   -1    0    0  501    0 -0.00000000000E+00 -0.00000000000E+00 -0.10609318710E+03  0.10609318710E+03  0.00000000000E+00 0. -1.
    9000006    2    1    2  501    0  0.00000000000E+00  0.00000000000E+00  0.89390681290E+03  0.11060931871E+04  0.65143898286E+03 0.  0.
         13    1    3    3    0    0  0.25475224040E+03 -0.89002057372E+02  0.13723663994E+03  0.30274405948E+03  0.00000000000E+00 0. -1.
          4    1    3    3  501    0 -0.25475224040E+03  0.89002057372E+02  0.75667017296E+03  0.80334912762E+03  0.00000000000E+00 0. -1.
<mgrwt>
<rscale>  0 0.65143898E+03</rscale>
<asrwt>0</asrwt>
<pdfrwt beam="1">0</pdfrwt>
<pdfrwt beam="2">  1        2 0.38579422E+00 0.65143898E+03</pdfrwt>
<totfact> 0.44989607E+00</totfact>
</mgrwt>
</event>
<event>
 5    1  0.2357694E-004  0.6492011E+03  0.7818608E-02  0.9808279E-01
         13   -1    0    0    0    0  0.00000000000E+00  0.00000000000E+00  0.10000000000E+04  0.10000000000E+04  0.00000000000E+00 0. -1.
          2   -1    0    0  501    0 -0.00000000000E+00 -0.00000000000E+00 -0.10536550770E+03  0.10536550770E+03  0.00000000000E+00 0. -1.
    9000006    2    1    2  501    0  0.00000000000E+00  0.00000000000E+00  0.89463449230E+03  0.11053655077E+04  0.64920107116E+03 0.  0.
         13    1    3    3    0    0  0.29234778167E+03 -0.51721300452E+02  0.22386564615E+03  0.37183080278E+03  0.00000000000E+00 0. -1.
          4    1    3    3  501    0 -0.29234778167E+03  0.51721300452E+02  0.67076884615E+03  0.73353470492E+03  0.00000000000E+00 0. -1.
<mgrwt>
<rscale>  0 0.64920107E+03</rscale>
<asrwt>0</asrwt>
<pdfrwt beam="1">0</pdfrwt>
<pdfrwt beam="2">  1        2 0.38314811E+00 0.64920107E+03</pdfrwt>
<totfact> 0.46024139E+00</totfact>
</mgrwt>
</event>
<event>
 5    1  0.2357694E-004  0.6560721E+03  0.7818608E-02  0.9795451E-01
         13   -1    0    0    0    0  0.00000000000E+00  0.00000000000E+00  0.10000000000E+04  0.10000000000E+04  0.00000000000E+00 0. -1.
          2   -1    0    0  501    0 -0.00000000000E+00 -0.00000000000E+00 -0.10760766461E+03  0.10760766461E+03  0.00000000000E+00 0. -1.
    9000006    2    1    2  501    0  0.00000000000E+00  0.00000000000E+00  0.89239233539E+03  0.11076076646E+04  0.65607214425E+03 0.  0.
         13    1    3    3    0    0  0.16175917373E+03 -0.27659290217E+03  0.56483037466E+03  0.64938664596E+03  0.00000000000E+00 0. -1.
          4    1    3    3  501    0 -0.16175917373E+03  0.27659290217E+03  0.32756196073E+03  0.45822101865E+03  0.00000000000E+00 0. -1.
<mgrwt>
<rscale>  0 0.65607214E+03</rscale>
<asrwt>0</asrwt>
<pdfrwt beam="1">0</pdfrwt>
<pdfrwt beam="2">  1        2 0.39130142E+00 0.65607214E+03</pdfrwt>
<totfact> 0.42903724E+00</totfact>
</mgrwt>
</event>
<event>
 5    1  0.2357694E-004  0.6825230E+03  0.7818608E-02  0.9747596E-01
         13   -1    0    0    0    0  0.00000000000E+00  0.00000000000E+00  0.10000000000E+04  0.10000000000E+04  0.00000000000E+00 0. -1.
          2   -1    0    0  501    0 -0.00000000000E+00 -0.00000000000E+00 -0.11645941323E+03  0.11645941323E+03  0.00000000000E+00 0. -1.
    9000006    2    1    2  501    0  0.00000000000E+00  0.00000000000E+00  0.88354058677E+03  0.11164594132E+04  0.68252300541E+03 0.  0.
         13    1    3    3    0    0  0.95144601613E+02  0.13918894420E+03 -0.43573269549E+02  0.17413984961E+03  0.00000000000E+00 0. -1.
          4    1    3    3  501    0 -0.95144601613E+02 -0.13918894420E+03  0.92711385632E+03  0.94231956362E+03  0.00000000000E+00 0. -1.
<mgrwt>
<rscale>  0 0.68252301E+03</rscale>
<asrwt>0</asrwt>
<pdfrwt beam="1">0</pdfrwt>
<pdfrwt beam="2">  1        2 0.42348967E+00 0.68252301E+03</pdfrwt>
<totfact> 0.32356783E+00</totfact>
</mgrwt>
</event>
<event>
 5    1  0.2357694E-004  0.6593835E+03  0.7818608E-02  0.9789329E-01
         13   -1    0    0    0    0  0.00000000000E+00  0.00000000000E+00  0.10000000000E+04  0.10000000000E+04  0.00000000000E+00 0. -1.
          2   -1    0    0  501    0 -0.00000000000E+00 -0.00000000000E+00 -0.10869664798E+03  0.10869664798E+03  0.00000000000E+00 0. -1.
    9000006    2    1    2  501    0  0.00000000000E+00  0.00000000000E+00  0.89130335202E+03  0.11086966480E+04  0.65938349383E+03 0.  0.
         13    1    3    3    0    0  0.15255848780E+03 -0.37533416845E+02 -0.41708426821E+02  0.16254981528E+03  0.00000000000E+00 0. -1.
          4    1    3    3  501    0 -0.15255848780E+03  0.37533416845E+02  0.93301177884E+03  0.94614683270E+03  0.00000000000E+00 0. -1.
<mgrwt>
<rscale>  0 0.65938349E+03</rscale>
<asrwt>0</asrwt>
<pdfrwt beam="1">0</pdfrwt>
<pdfrwt beam="2">  1        2 0.39526137E+00 0.65938349E+03</pdfrwt>
<totfact> 0.41458344E+00</totfact>
</mgrwt>
</event>
<event>
 5    1  0.2357694E-004  0.6254847E+03  0.7818608E-02  0.9853900E-01
         13   -1    0    0    0    0  0.00000000000E+00  0.00000000000E+00  0.10000000000E+04  0.10000000000E+04  0.00000000000E+00 0. -1.
          2   -1    0    0  501    0 -0.00000000000E+00 -0.00000000000E+00 -0.97807771284E+02  0.97807771284E+02  0.00000000000E+00 0. -1.
    9000006    2    1    2  501    0  0.00000000000E+00  0.00000000000E+00  0.90219222872E+03  0.10978077713E+04  0.62548468018E+03 0.  0.
         13    1    3    3    0    0  0.21959884882E+03 -0.21869258873E+03  0.52467921939E+03  0.60937540649E+03  0.00000000000E+00 0. -1.
          4    1    3    3  501    0 -0.21959884882E+03  0.21869258873E+03  0.37751300932E+03  0.48843236480E+03  0.00000000000E+00 0. -1.
<mgrwt>
<rscale>  0 0.62548468E+03</rscale>
<asrwt>0</asrwt>
<pdfrwt beam="1">0</pdfrwt>
<pdfrwt beam="2">  1        2 0.35566537E+00 0.62548468E+03</pdfrwt>
<totfact> 0.58130876E+00</totfact>
</mgrwt>
</event>
<event>
 5    1  0.2357694E-004  0.6321654E+03  0.7818608E-02  0.9840832E-01
         13   -1    0    0    0    0  0.00000000000E+00  0.00000000000E+00  0.10000000000E+04  0.10000000000E+04  0.00000000000E+00 0. -1.
          2   -1    0    0  501    0 -0.00000000000E+00 -0.00000000000E+00 -0.99908287207E+02  0.99908287207E+02  0.00000000000E+00 0. -1.
    9000006    2    1    2  501    0  0.00000000000E+00  0.00000000000E+00  0.90009171279E+03  0.10999082872E+04  0.63216544419E+03 0.  0.
         13    1    3    3    0    0 -0.15292197784E+03  0.22525063752E+03  0.72943650651E+03  0.77858885044E+03  0.00000000000E+00 0. -1.
          2    1    3    3  501    0  0.15292197784E+03 -0.22525063752E+03  0.17065520629E+03  0.32131943676E+03  0.00000000000E+00 0. -1.
<mgrwt>
<rscale>  0 0.63216544E+03</rscale>
<asrwt>0</asrwt>
<pdfrwt beam="1">0</pdfrwt>
<pdfrwt beam="2">  1        2 0.36330363E+00 0.63216544E+03</pdfrwt>
<totfact> 0.54501812E+00</totfact>
</mgrwt>
</event>
<event>
 5    1  0.2357694E-004  0.6549271E+03  0.7818608E-02  0.9797577E-01
         13   -1    0    0    0    0  0.00000000000E+00  0.00000000000E+00  0.10000000000E+04  0.10000000000E+04  0.00000000000E+00 0. -1.
          2   -1    0    0  501    0 -0.00000000000E+00 -0.00000000000E+00 -0.10723238231E+03  0.10723238231E+03  0.00000000000E+00 0. -1.
    9000006    2    1    2  501    0  0.00000000000E+00  0.00000000000E+00  0.89276761769E+03  0.11072323823E+04  0.65492711751E+03 0.  0.
         13    1    3    3    0    0  0.31429404454E+03  0.18574454776E+02  0.29416586145E+03  0.43088201499E+03  0.00000000000E+00 0. -1.
          2    1    3    3  501    0 -0.31429404454E+03 -0.18574454776E+02  0.59860175624E+03  0.67635036732E+03  0.00000000000E+00 0. -1.
<mgrwt>
<rscale>  0 0.65492712E+03</rscale>
<asrwt>0</asrwt>
<pdfrwt beam="1">0</pdfrwt>
<pdfrwt beam="2">  1        2 0.38993676E+00 0.65492712E+03</pdfrwt>
<totfact> 0.43412280E+00</totfact>
</mgrwt>
</event>
<event>
 5    1  0.2357694E-004  0.4648273E+03  0.7818608E-02  0.1023390E+00
         13   -1    0    0    0    0  0.00000000000E+00  0.00000000000E+00  0.10000000000E+04  0.10000000000E+04  0.00000000000E+00 0. -1.
          2   -1    0    0  501    0 -0.00000000000E+00 -0.00000000000E+00 -0.54016109914E+02  0.54016109914E+02  0.00000000000E+00 0. -1.
    9000006    2    1    2  501    0  0.00000000000E+00  0.00000000000E+00  0.94598389009E+03  0.10540161099E+04  0.46482732241E+03 0.  0.
         13    1    3    3    0    0  0.22351941653E+03  0.61662188944E+02  0.50905620827E+03  0.55937588283E+03  0.00000000000E+00 0. -1.
          4    1    3    3  501    0 -0.22351941653E+03 -0.61662188944E+02  0.43692768181E+03  0.49464022708E+03  0.00000000000E+00 0. -1.
<mgrwt>
<rscale>  0 0.46482732E+03</rscale>
<asrwt>0</asrwt>
<pdfrwt beam="1">0</pdfrwt>
<pdfrwt beam="2">  1        2 0.19642263E+00 0.46482732E+03</pdfrwt>
<totfact> 0.21913445E+01</totfact>
</mgrwt>
</event>
<event>
 5    1  0.2357694E-004  0.6569112E+03  0.7818608E-02  0.9793896E-01
         13   -1    0    0    0    0  0.00000000000E+00  0.00000000000E+00  0.10000000000E+04  0.10000000000E+04  0.00000000000E+00 0. -1.
          2   -1    0    0  501    0 -0.00000000000E+00 -0.00000000000E+00 -0.10788309625E+03  0.10788309625E+03  0.00000000000E+00 0. -1.
    9000006    2    1    2  501    0  0.00000000000E+00  0.00000000000E+00  0.89211690375E+03  0.11078830962E+04  0.65691124591E+03 0.  0.
         13    1    3    3    0    0 -0.14162968118E+03  0.79475181158E+02 -0.35431127224E+02  0.16622465457E+03  0.00000000000E+00 0. -1.
          2    1    3    3  501    0  0.14162968118E+03 -0.79475181158E+02  0.92754803098E+03  0.94165844167E+03  0.00000000000E+00 0. -1.
<mgrwt>
<rscale>  0 0.65691125E+03</rscale>
<asrwt>0</asrwt>
<pdfrwt beam="1">0</pdfrwt>
<pdfrwt beam="2">  1        2 0.39230300E+00 0.65691125E+03</pdfrwt>
<totfact> 0.42533908E+00</totfact>
</mgrwt>
</event>
<event>
 5    1  0.2357694E-004  0.6435190E+03  0.7818608E-02  0.9819017E-01
         13   -1    0    0    0    0  0.00000000000E+00  0.00000000000E+00  0.10000000000E+04  0.10000000000E+04  0.00000000000E+00 0. -1.
          2   -1    0    0  501    0 -0.00000000000E+00 -0.00000000000E+00 -0.10352918623E+03  0.10352918623E+03  0.00000000000E+00 0. -1.
    9000006    2    1    2  501    0  0.00000000000E+00  0.00000000000E+00  0.89647081377E+03  0.11035291862E+04  0.64351903229E+03 0.  0.
         13    1    3    3    0    0  0.44641533638E+02 -0.25462448111E+03  0.77676265474E+03  0.81864932340E+03  0.00000000000E+00 0. -1.
          4    1    3    3  501    0 -0.44641533638E+02  0.25462448111E+03  0.11970815903E+03  0.28487986283E+03  0.00000000000E+00 0. -1.
<mgrwt>
<rscale>  0 0.64351903E+03</rscale>
<asrwt>0</asrwt>
<pdfrwt beam="1">0</pdfrwt>
<pdfrwt beam="2">  1        2 0.37647056E+00 0.64351903E+03</pdfrwt>
<totfact> 0.48731644E+00</totfact>
</mgrwt>
</event>
<event>
 5    1  0.2357694E-004  0.6520505E+03  0.7818608E-02  0.9802939E-01
         13   -1    0    0    0    0  0.00000000000E+00  0.00000000000E+00  0.10000000000E+04  0.10000000000E+04  0.00000000000E+00 0. -1.
          2   -1    0    0  501    0 -0.00000000000E+00 -0.00000000000E+00 -0.10629245719E+03  0.10629245719E+03  0.00000000000E+00 0. -1.
    9000006    2    1    2  501    0  0.00000000000E+00  0.00000000000E+00  0.89370754281E+03  0.11062924572E+04  0.65205048024E+03 0.  0.
         13    1    3    3    0    0  0.29480782924E+03 -0.13374254420E+03  0.51242679401E+03  0.60611875365E+03  0.00000000000E+00 0. -1.
          4    1    3    3  501    0 -0.29480782924E+03  0.13374254420E+03  0.38128074880E+03  0.50017370354E+03  0.00000000000E+00 0. -1.
<mgrwt>
<rscale>  0 0.65205048E+03</rscale>
<asrwt>0</asrwt>
<pdfrwt beam="1">0</pdfrwt>
<pdfrwt beam="2">  1        2 0.38651884E+00 0.65205048E+03</pdfrwt>
<totfact> 0.44710010E+00</totfact>
</mgrwt>
</event>
<event>
 5    1  0.2357694E-004  0.6505634E+03  0.7818608E-02  0.9805723E-01
         13   -1    0    0    0    0  0.00000000000E+00  0.00000000000E+00  0.10000000000E+04  0.10000000000E+04  0.00000000000E+00 0. -1.
          2   -1    0    0  501    0 -0.00000000000E+00 -0.00000000000E+00 -0.10580818621E+03  0.10580818621E+03  0.00000000000E+00 0. -1.
    9000006    2    1    2  501    0  0.00000000000E+00  0.00000000000E+00  0.89419181379E+03  0.11058081862E+04  0.65056340571E+03 0.  0.
         13    1    3    3    0    0  0.23812603457E+02  0.28177675513E+03  0.17384495236E+03  0.33194464490E+03  0.00000000000E+00 0. -1.
          4    1    3    3  501    0 -0.23812603457E+02 -0.28177675513E+03  0.72034686142E+03  0.77386354132E+03  0.00000000000E+00 0. -1.
<mgrwt>
<rscale>  0 0.65056341E+03</rscale>
<asrwt>0</asrwt>
<pdfrwt beam="1">0</pdfrwt>
<pdfrwt beam="2">  1        2 0.38475785E+00 0.65056341E+03</pdfrwt>
<totfact> 0.45392249E+00</totfact>
</mgrwt>
</event>
<event>
 5    1  0.2357694E-004  0.6428476E+03  0.7818608E-02  0.9820293E-01
         13   -1    0    0    0    0  0.00000000000E+00  0.00000000000E+00  0.10000000000E+04  0.10000000000E+04  0.00000000000E+00 0. -1.
          2   -1    0    0  501    0 -0.00000000000E+00 -0.00000000000E+00 -0.10331327041E+03  0.10331327041E+03  0.00000000000E+00 0. -1.
    9000006    2    1    2  501    0  0.00000000000E+00  0.00000000000E+00  0.89668672959E+03  0.11033132704E+04  0.64284763484E+03 0.  0.
         13    1    3    3    0    0 -0.74407931651E+02 -0.22878567516E+03  0.81417439262E+03  0.84897548083E+03  0.00000000000E+00 0. -1.
          2    1    3    3  501    0  0.74407931651E+02  0.22878567516E+03  0.82512336971E+02  0.25433778957E+03  0.00000000000E+00 0. -1.
<mgrwt>
<rscale>  0 0.64284763E+03</rscale>
<asrwt>0</asrwt>
<pdfrwt beam="1">0</pdfrwt>
<pdfrwt beam="2">  1        2 0.37568541E+00 0.64284763E+03</pdfrwt>
<totfact> 0.49059350E+00</totfact>
</mgrwt>
</event>
<event>
 5    1  0.2357694E-004  0.6614778E+03  0.7818608E-02  0.9785477E-01
         13   -1    0    0    0    0  0.00000000000E+00  0.00000000000E+00  0.10000000000E+04  0.10000000000E+04  0.00000000000E+00 0. -1.
          2   -1    0    0  501    0 -0.00000000000E+00 -0.00000000000E+00 -0.10938823268E+03  0.10938823268E+03  0.00000000000E+00 0. -1.
    9000006    2    1    2  501    0  0.00000000000E+00  0.00000000000E+00  0.89061176732E+03  0.11093882327E+04  0.66147783843E+03 0.  0.
         13    1    3    3    0    0  0.28966456786E+03  0.12307011038E+03  0.61581723793E+03  0.69157984679E+03  0.00000000000E+00 0. -1.
          2    1    3    3  501    0 -0.28966456786E+03 -0.12307011038E+03  0.27479452939E+03  0.41780838590E+03  0.00000000000E+00 0. -1.
<mgrwt>
<rscale>  0 0.66147784E+03</rscale>
<asrwt>0</asrwt>
<pdfrwt beam="1">0</pdfrwt>
<pdfrwt beam="2">  1        2 0.39777623E+00 0.66147784E+03</pdfrwt>
<totfact> 0.40563405E+00</totfact>
</mgrwt>
</event>
<event>
 5    1  0.2357694E-004  0.6485530E+03  0.7818608E-02  0.9809498E-01
         13   -1    0    0    0    0  0.00000000000E+00  0.00000000000E+00  0.10000000000E+04  0.10000000000E+04  0.00000000000E+00 0. -1.
          2   -1    0    0  501    0 -0.00000000000E+00 -0.00000000000E+00 -0.10515523462E+03  0.10515523462E+03  0.00000000000E+00 0. -1.
    9000006    2    1    2  501    0  0.00000000000E+00  0.00000000000E+00  0.89484476538E+03  0.11051552346E+04  0.64855295735E+03 0.  0.
         13    1    3    3    0    0  0.15347745531E+03  0.16566744910E+03  0.84396869903E+03  0.87366137486E+03  0.00000000000E+00 0. -1.
          4    1    3    3  501    0 -0.15347745531E+03 -0.16566744910E+03  0.50876066345E+02  0.23149385976E+03  0.00000000000E+00 0. -1.
<mgrwt>
<rscale>  0 0.64855296E+03</rscale>
<asrwt>0</asrwt>
<pdfrwt beam="1">0</pdfrwt>
<pdfrwt beam="2">  1        2 0.38238348E+00 0.64855296E+03</pdfrwt>
<totfact> 0.46327075E+00</totfact>
</mgrwt>
</event>
<event>
 5    1  0.2357694E-004  0.6365919E+03  0.7818608E-02  0.9832269E-01
         13   -1    0    0    0    0  0.00000000000E+00  0.00000000000E+00  0.10000000000E+04  0.10000000000E+04  0.00000000000E+00 0. -1.
          2   -1    0    0  501    0 -0.00000000000E+00 -0.00000000000E+00 -0.10131231420E+03  0.10131231420E+03  0.00000000000E+00 0. -1.
    9000006    2    1    2  501    0  0.00000000000E+00  0.00000000000E+00  0.89868768580E+03  0.11013123142E+04  0.63659190757E+03 0.  0.
         13    1    3    3    0    0  0.64425545910E+02 -0.21245035754E+03  0.84394806139E+03  0.87265923229E+03  0.00000000000E+00 0. -1.
          4    1    3    3  501    0 -0.64425545910E+02  0.21245035754E+03  0.54739624416E+02  0.22865308190E+03  0.00000000000E+00 0. -1.
<mgrwt>
<rscale>  0 0.63659191E+03</rscale>
<asrwt>0</asrwt>
<pdfrwt beam="1">0</pdfrwt>
<pdfrwt beam="2">  1        2 0.36840919E+00 0.63659191E+03</pdfrwt>
<totfact> 0.52193862E+00</totfact>
</mgrwt>
</event>
<event>
 5    1  0.2357694E-004  0.6424558E+03  0.7818608E-02  0.9821039E-01
         13   -1    0    0    0    0  0.00000000000E+00  0.00000000000E+00  0.10000000000E+04  0.10000000000E+04  0.00000000000E+00 0. -1.
          2   -1    0    0  501    0 -0.00000000000E+00 -0.00000000000E+00 -0.10318736991E+03  0.10318736991E+03  0.00000000000E+00 0. -1.
    9000006    2    1    2  501    0  0.00000000000E+00  0.00000000000E+00  0.89681263009E+03  0.11031873699E+04  0.64245581921E+03 0.  0.
         13    1    3    3    0    0 -0.90602897266E+02 -0.17473496353E+03  0.88432410714E+03  0.90596375145E+03  0.00000000000E+00 0. -1.
          4    1    3    3  501    0  0.90602897266E+02  0.17473496353E+03  0.12488522948E+02  0.19722361846E+03  0.00000000000E+00 0. -1.
<mgrwt>
<rscale>  0 0.64245582E+03</rscale>
<asrwt>0</asrwt>
<pdfrwt beam="1">0</pdfrwt>
<pdfrwt beam="2">  1        2 0.37522759E+00 0.64245582E+03</pdfrwt>
<totfact> 0.49251372E+00</totfact>
</mgrwt>
</event>
<event>
 5    1  0.2357694E-004  0.5893025E+03  0.7818608E-02  0.9927852E-01
         13   -1    0    0    0    0  0.00000000000E+00  0.00000000000E+00  0.10000000000E+04  0.10000000000E+04  0.00000000000E+00 0. -1.
          2   -1    0    0  501    0 -0.00000000000E+00 -0.00000000000E+00 -0.86819364565E+02  0.86819364565E+02  0.00000000000E+00 0. -1.
    9000006    2    1    2  501    0  0.00000000000E+00  0.00000000000E+00  0.91318063543E+03  0.10868193646E+04  0.58930251846E+03 0.  0.
         13    1    3    3    0    0 -0.50329408961E+02  0.19128625103E+03  0.53818079802E+02  0.20498747511E+03  0.00000000000E+00 0. -1.
          2    1    3    3  501    0  0.50329408961E+02 -0.19128625103E+03  0.85936255563E+03  0.88183188946E+03  0.00000000000E+00 0. -1.
<mgrwt>
<rscale>  0 0.58930252E+03</rscale>
<asrwt>0</asrwt>
<pdfrwt beam="1">0</pdfrwt>
<pdfrwt beam="2">  1        2 0.31570745E+00 0.58930252E+03</pdfrwt>
<totfact> 0.81103211E+00</totfact>
</mgrwt>
</event>
<event>
 5    1  0.2357694E-004  0.6526556E+03  0.7818608E-02  0.9801809E-01
         13   -1    0    0    0    0  0.00000000000E+00  0.00000000000E+00  0.10000000000E+04  0.10000000000E+04  0.00000000000E+00 0. -1.
          2   -1    0    0  501    0 -0.00000000000E+00 -0.00000000000E+00 -0.10648983415E+03  0.10648983415E+03  0.00000000000E+00 0. -1.
    9000006    2    1    2  501    0  0.00000000000E+00  0.00000000000E+00  0.89351016585E+03  0.11064898341E+04  0.65265560336E+03 0.  0.
         13    1    3    3    0    0  0.32593563807E+03 -0.11216652105E+02  0.46608378931E+03  0.56885319030E+03  0.00000000000E+00 0. -1.
          2    1    3    3  501    0 -0.32593563807E+03  0.11216652105E+02  0.42742637654E+03  0.53763664385E+03  0.00000000000E+00 0. -1.
<mgrwt>
<rscale>  0 0.65265560E+03</rscale>
<asrwt>0</asrwt>
<pdfrwt beam="1">0</pdfrwt>
<pdfrwt beam="2">  1        2 0.38723658E+00 0.65265560E+03</pdfrwt>
<totfact> 0.44434621E+00</totfact>
</mgrwt>
</event>
<event>
 5    1  0.2357694E-004  0.6541028E+03  0.7818608E-02  0.9799111E-01
         13   -1    0    0    0    0  0.00000000000E+00  0.00000000000E+00  0.10000000000E+04  0.10000000000E+04  0.00000000000E+00 0. -1.
          2   -1    0    0  501    0 -0.00000000000E+00 -0.00000000000E+00 -0.10696261151E+03  0.10696261151E+03  0.00000000000E+00 0. -1.
    9000006    2    1    2  501    0  0.00000000000E+00  0.00000000000E+00  0.89303738849E+03  0.11069626115E+04  0.65410277942E+03 0.  0.
         13    1    3    3    0    0 -0.11226797292E+02 -0.28097455769E+03  0.72914344411E+03  0.78148762315E+03  0.00000000000E+00 0. -1.
          2    1    3    3  501    0  0.11226797292E+02  0.28097455769E+03  0.16389394438E+03  0.32547498836E+03  0.00000000000E+00 0. -1.
<mgrwt>
<rscale>  0 0.65410278E+03</rscale>
<asrwt>0</asrwt>
<pdfrwt beam="1">0</pdfrwt>
<pdfrwt beam="2">  1        2 0.38895577E+00 0.65410278E+03</pdfrwt>
<totfact> 0.43781213E+00</totfact>
</mgrwt>
</event>
<event>
 5    1  0.2357694E-004  0.6531293E+03  0.7818608E-02  0.9800925E-01
         13   -1    0    0    0    0  0.00000000000E+00  0.00000000000E+00  0.10000000000E+04  0.10000000000E+04  0.00000000000E+00 0. -1.
          4   -1    0    0  501    0 -0.00000000000E+00 -0.00000000000E+00 -0.10664446484E+03  0.10664446484E+03  0.00000000000E+00 0. -1.
    9000006    2    1    2  501    0  0.00000000000E+00  0.00000000000E+00  0.89335553516E+03  0.11066444648E+04  0.65312928226E+03 0.  0.
         13    1    3    3    0    0 -0.13724623200E+03 -0.24814153508E+03  0.72111236467E+03  0.77486372487E+03  0.00000000000E+00 0. -1.
          2    1    3    3  501    0  0.13724623200E+03  0.24814153508E+03  0.17224317049E+03  0.33178073997E+03  0.00000000000E+00 0. -1.
<mgrwt>
<rscale>  0 0.65312928E+03</rscale>
<asrwt>0</asrwt>
<pdfrwt beam="1">0</pdfrwt>
<pdfrwt beam="2">  1        4 0.38779887E+00 0.65312928E+03</pdfrwt>
<totfact> 0.38857932E-02</totfact>
</mgrwt>
</event>
<event>
 5    1  0.2357694E-004  0.6488941E+03  0.7818608E-02  0.9808857E-01
         13   -1    0    0    0    0  0.00000000000E+00  0.00000000000E+00  0.10000000000E+04  0.10000000000E+04  0.00000000000E+00 0. -1.
          2   -1    0    0  501    0 -0.00000000000E+00 -0.00000000000E+00 -0.10526588923E+03  0.10526588923E+03  0.00000000000E+00 0. -1.
    9000006    2    1    2  501    0  0.00000000000E+00  0.00000000000E+00  0.89473411077E+03  0.11052658892E+04  0.64889410300E+03 0.  0.
         13    1    3    3    0    0 -0.30325637070E+03  0.20626030589E+02  0.64064572376E+03  0.70909576425E+03  0.00000000000E+00 0. -1.
          4    1    3    3  501    0  0.30325637070E+03 -0.20626030589E+02  0.25408838702E+03  0.39617012498E+03  0.00000000000E+00 0. -1.
<mgrwt>
<rscale>  0 0.64889410E+03</rscale>
<asrwt>0</asrwt>
<pdfrwt beam="1">0</pdfrwt>
<pdfrwt beam="2">  1        2 0.38278586E+00 0.64889410E+03</pdfrwt>
<totfact> 0.46167432E+00</totfact>
</mgrwt>
</event>
<event>
 5    1  0.2357694E-004  0.6553104E+03  0.7818608E-02  0.9796865E-01
         13   -1    0    0    0    0  0.00000000000E+00  0.00000000000E+00  0.10000000000E+04  0.10000000000E+04  0.00000000000E+00 0. -1.
          2   -1    0    0  501    0 -0.00000000000E+00 -0.00000000000E+00 -0.10735791542E+03  0.10735791542E+03  0.00000000000E+00 0. -1.
    9000006    2    1    2  501    0  0.00000000000E+00  0.00000000000E+00  0.89264208458E+03  0.11073579154E+04  0.65531035524E+03 0.  0.
         13    1    3    3    0    0 -0.83463584562E+02  0.18059890601E+03  0.63964423376E+01  0.19905539247E+03  0.00000000000E+00 0. -1.
          4    1    3    3  501    0  0.83463584562E+02 -0.18059890601E+03  0.88624564224E+03  0.90830252295E+03  0.00000000000E+00 0. -1.
<mgrwt>
<rscale>  0 0.65531036E+03</rscale>
<asrwt>0</asrwt>
<pdfrwt beam="1">0</pdfrwt>
<pdfrwt beam="2">  1        2 0.39039324E+00 0.65531036E+03</pdfrwt>
<totfact> 0.43241563E+00</totfact>
</mgrwt>
</event>
<event>
 5    1  0.2357694E-004  0.6488689E+03  0.7818608E-02  0.9808904E-01
         13   -1    0    0    0    0  0.00000000000E+00  0.00000000000E+00  0.10000000000E+04  0.10000000000E+04  0.00000000000E+00 0. -1.
          2   -1    0    0  501    0 -0.00000000000E+00 -0.00000000000E+00 -0.10525770260E+03  0.10525770260E+03  0.00000000000E+00 0. -1.
    9000006    2    1    2  501    0  0.00000000000E+00  0.00000000000E+00  0.89474229740E+03  0.11052577026E+04  0.64886886996E+03 0.  0.
         13    1    3    3    0    0  0.32208262760E+03  0.14267566454E+02  0.50918507528E+03  0.60266924871E+03  0.00000000000E+00 0. -1.
          4    1    3    3  501    0 -0.32208262760E+03 -0.14267566454E+02  0.38555722212E+03  0.50258845389E+03  0.00000000000E+00 0. -1.
<mgrwt>
<rscale>  0 0.64886887E+03</rscale>
<asrwt>0</asrwt>
<pdfrwt beam="1">0</pdfrwt>
<pdfrwt beam="2">  1        2 0.38275609E+00 0.64886887E+03</pdfrwt>
<totfact> 0.46179226E+00</totfact>
</mgrwt>
</event>
<event>
 5    1  0.2357694E-004  0.6897314E+03  0.7818608E-02  0.9734956E-01
         13   -1    0    0    0    0  0.00000000000E+00  0.00000000000E+00  0.10000000000E+04  0.10000000000E+04  0.00000000000E+00 0. -1.
          2   -1    0    0  501    0 -0.00000000000E+00 -0.00000000000E+00 -0.11893234597E+03  0.11893234597E+03  0.00000000000E+00 0. -1.
    9000006    2    1    2  501    0  0.00000000000E+00  0.00000000000E+00  0.88106765403E+03  0.11189323460E+04  0.68973138531E+03 0.  0.
         13    1    3    3    0    0  0.27660482125E+03 -0.17074206244E+03  0.25366050515E+03  0.41231872489E+03  0.00000000000E+00 0. -1.
          4    1    3    3  501    0 -0.27660482125E+03  0.17074206244E+03  0.62740714889E+03  0.70661362108E+03  0.00000000000E+00 0. -1.
<mgrwt>
<rscale>  0 0.68973139E+03</rscale>
<asrwt>0</asrwt>
<pdfrwt beam="1">0</pdfrwt>
<pdfrwt beam="2">  1        2 0.43248217E+00 0.68973139E+03</pdfrwt>
<totfact> 0.29856739E+00</totfact>
</mgrwt>
</event>
<event>
 5    1  0.2357694E-004  0.6488764E+03  0.7818608E-02  0.9808890E-01
         13   -1    0    0    0    0  0.00000000000E+00  0.00000000000E+00  0.10000000000E+04  0.10000000000E+04  0.00000000000E+00 0. -1.
          2   -1    0    0  501    0 -0.00000000000E+00 -0.00000000000E+00 -0.10526015630E+03  0.10526015630E+03  0.00000000000E+00 0. -1.
    9000006    2    1    2  501    0  0.00000000000E+00  0.00000000000E+00  0.89473984370E+03  0.11052601563E+04  0.64887643291E+03 0.  0.
         13    1    3    3    0    0 -0.29198041856E+02  0.22272566209E+03  0.84611597642E+03  0.87542646279E+03  0.00000000000E+00 0. -1.
          4    1    3    3  501    0  0.29198041856E+02 -0.22272566209E+03  0.48623867282E+02  0.22983369350E+03  0.00000000000E+00 0. -1.
<mgrwt>
<rscale>  0 0.64887643E+03</rscale>
<asrwt>0</asrwt>
<pdfrwt beam="1">0</pdfrwt>
<pdfrwt beam="2">  1        2 0.38276501E+00 0.64887643E+03</pdfrwt>
<totfact> 0.46175691E+00</totfact>
</mgrwt>
</event>
<event>
 5    1  0.2357694E-004  0.6605981E+03  0.7818608E-02  0.9787093E-01
         13   -1    0    0    0    0  0.00000000000E+00  0.00000000000E+00  0.10000000000E+04  0.10000000000E+04  0.00000000000E+00 0. -1.
          2   -1    0    0  501    0 -0.00000000000E+00 -0.00000000000E+00 -0.10909746685E+03  0.10909746685E+03  0.00000000000E+00 0. -1.
    9000006    2    1    2  501    0  0.00000000000E+00  0.00000000000E+00  0.89090253315E+03  0.11090974669E+04  0.66059811339E+03 0.  0.
         13    1    3    3    0    0 -0.26348324990E+03  0.92298300526E+02  0.14910686082E+03  0.31650474752E+03  0.00000000000E+00 0. -1.
          4    1    3    3  501    0  0.26348324990E+03 -0.92298300526E+02  0.74179567232E+03  0.79259271933E+03  0.00000000000E+00 0. -1.
<mgrwt>
<rscale>  0 0.66059811E+03</rscale>
<asrwt>0</asrwt>
<pdfrwt beam="1">0</pdfrwt>
<pdfrwt beam="2">  1        2 0.39671890E+00 0.66059811E+03</pdfrwt>
<totfact> 0.40937527E+00</totfact>
</mgrwt>
</event>
<event>
 5    1  0.2357694E-004  0.6509058E+03  0.7818608E-02  0.9805081E-01
         13   -1    0    0    0    0  0.00000000000E+00  0.00000000000E+00  0.10000000000E+04  0.10000000000E+04  0.00000000000E+00 0. -1.
          2   -1    0    0  501    0 -0.00000000000E+00 -0.00000000000E+00 -0.10591957575E+03  0.10591957575E+03  0.00000000000E+00 0. -1.
    9000006    2    1    2  501    0  0.00000000000E+00  0.00000000000E+00  0.89408042425E+03  0.11059195758E+04  0.65090575586E+03 0.  0.
         13    1    3    3    0    0  0.10642418825E+03  0.16361534360E+03  0.88952209299E+03  0.91068416173E+03  0.00000000000E+00 0. -1.
          2    1    3    3  501    0 -0.10642418825E+03 -0.16361534360E+03  0.45583312620E+01  0.19523541403E+03  0.00000000000E+00 0. -1.
<mgrwt>
<rscale>  0 0.65090576E+03</rscale>
<asrwt>0</asrwt>
<pdfrwt beam="1">0</pdfrwt>
<pdfrwt beam="2">  1        2 0.38516291E+00 0.65090576E+03</pdfrwt>
<totfact> 0.45234494E+00</totfact>
</mgrwt>
</event>
<event>
 5    1  0.2357694E-004  0.6381701E+03  0.7818608E-02  0.9829234E-01
         13   -1    0    0    0    0  0.00000000000E+00  0.00000000000E+00  0.10000000000E+04  0.10000000000E+04  0.00000000000E+00 0. -1.
          2   -1    0    0  501    0 -0.00000000000E+00 -0.00000000000E+00 -0.10181528017E+03  0.10181528017E+03  0.00000000000E+00 0. -1.
    9000006    2    1    2  501    0  0.00000000000E+00  0.00000000000E+00  0.89818471983E+03  0.11018152802E+04  0.63817013458E+03 0.  0.
         13    1    3    3    0    0 -0.84443091919E+02 -0.13792618342E+03 -0.25814440859E+02  0.16377012304E+03  0.00000000000E+00 0. -1.
          2    1    3    3  501    0  0.84443091919E+02  0.13792618342E+03  0.92399916069E+03  0.93804515712E+03  0.00000000000E+00 0. -1.
<mgrwt>
<rscale>  0 0.63817013E+03</rscale>
<asrwt>0</asrwt>
<pdfrwt beam="1">0</pdfrwt>
<pdfrwt beam="2">  1        2 0.37023816E+00 0.63817013E+03</pdfrwt>
<totfact> 0.51389164E+00</totfact>
</mgrwt>
</event>
<event>
 5    1  0.2357694E-004  0.6419256E+03  0.7818608E-02  0.9822049E-01
         13   -1    0    0    0    0  0.00000000000E+00  0.00000000000E+00  0.10000000000E+04  0.10000000000E+04  0.00000000000E+00 0. -1.
          2   -1    0    0  501    0 -0.00000000000E+00 -0.00000000000E+00 -0.10301710679E+03  0.10301710679E+03  0.00000000000E+00 0. -1.
    9000006    2    1    2  501    0  0.00000000000E+00  0.00000000000E+00  0.89698289321E+03  0.11030171068E+04  0.64192556201E+03 0.  0.
         13    1    3    3    0    0 -0.24439755024E+03 -0.19044273776E+03  0.59244419909E+03  0.66857215614E+03  0.00000000000E+00 0. -1.
          4    1    3    3  501    0  0.24439755024E+03  0.19044273776E+03  0.30453869412E+03  0.43444495065E+03  0.00000000000E+00 0. -1.
<mgrwt>
<rscale>  0 0.64192556E+03</rscale>
<asrwt>0</asrwt>
<pdfrwt beam="1">0</pdfrwt>
<pdfrwt beam="2">  1        2 0.37460845E+00 0.64192556E+03</pdfrwt>
<totfact> 0.49512157E+00</totfact>
</mgrwt>
</event>
<event>
 5    1  0.2357694E-004  0.6381878E+03  0.7818608E-02  0.9829200E-01
         13   -1    0    0    0    0  0.00000000000E+00  0.00000000000E+00  0.10000000000E+04  0.10000000000E+04  0.00000000000E+00 0. -1.
          2   -1    0    0  501    0 -0.00000000000E+00 -0.00000000000E+00 -0.10182092578E+03  0.10182092578E+03  0.00000000000E+00 0. -1.
    9000006    2    1    2  501    0  0.00000000000E+00  0.00000000000E+00  0.89817907422E+03  0.11018209258E+04  0.63818782745E+03 0.  0.
         13    1    3    3    0    0  0.31873106003E+03  0.12605813952E+02  0.43438595545E+03  0.53892444134E+03  0.00000000000E+00 0. -1.
          2    1    3    3  501    0 -0.31873106003E+03 -0.12605813952E+02  0.46379311877E+03  0.56289648444E+03  0.00000000000E+00 0. -1.
<mgrwt>
<rscale>  0 0.63818783E+03</rscale>
<asrwt>0</asrwt>
<pdfrwt beam="1">0</pdfrwt>
<pdfrwt beam="2">  1        2 0.37025869E+00 0.63818783E+03</pdfrwt>
<totfact> 0.51380197E+00</totfact>
</mgrwt>
</event>
<event>
 5    1  0.2357694E-004  0.6445710E+03  0.7818608E-02  0.9817020E-01
         13   -1    0    0    0    0  0.00000000000E+00  0.00000000000E+00  0.10000000000E+04  0.10000000000E+04  0.00000000000E+00 0. -1.
          2   -1    0    0  501    0 -0.00000000000E+00 -0.00000000000E+00 -0.10386793082E+03  0.10386793082E+03  0.00000000000E+00 0. -1.
    9000006    2    1    2  501    0  0.00000000000E+00  0.00000000000E+00  0.89613206918E+03  0.11038679308E+04  0.64457096062E+03 0.  0.
         13    1    3    3    0    0  0.23937649870E+03 -0.18062634912E+03  0.24586075864E+03  0.38778150905E+03  0.00000000000E+00 0. -1.
          4    1    3    3  501    0 -0.23937649870E+03  0.18062634912E+03  0.65027131054E+03  0.71608642177E+03  0.00000000000E+00 0. -1.
<mgrwt>
<rscale>  0 0.64457096E+03</rscale>
<asrwt>0</asrwt>
<pdfrwt beam="1">0</pdfrwt>
<pdfrwt beam="2">  1        2 0.37770236E+00 0.64457096E+03</pdfrwt>
<totfact> 0.48221539E+00</totfact>
</mgrwt>
</event>
<event>
 5    1  0.2357694E-004  0.6511028E+03  0.7818608E-02  0.9804712E-01
         13   -1    0    0    0    0  0.00000000000E+00  0.00000000000E+00  0.10000000000E+04  0.10000000000E+04  0.00000000000E+00 0. -1.
          2   -1    0    0  501    0 -0.00000000000E+00 -0.00000000000E+00 -0.10598369969E+03  0.10598369969E+03  0.00000000000E+00 0. -1.
    9000006    2    1    2  501    0  0.00000000000E+00  0.00000000000E+00  0.89401630031E+03  0.11059836997E+04  0.65110275592E+03 0.  0.
         13    1    3    3    0    0  0.18768807743E+03  0.25708591695E+03  0.33100620596E+03  0.45922226806E+03  0.00000000000E+00 0. -1.
          4    1    3    3  501    0 -0.18768807743E+03 -0.25708591695E+03  0.56301009435E+03  0.64676143163E+03  0.00000000000E+00 0. -1.
<mgrwt>
<rscale>  0 0.65110276E+03</rscale>
<asrwt>0</asrwt>
<pdfrwt beam="1">0</pdfrwt>
<pdfrwt beam="2">  1        2 0.38539608E+00 0.65110276E+03</pdfrwt>
<totfact> 0.45143904E+00</totfact>
</mgrwt>
</event>
<event>
 5    1  0.2357694E-004  0.5938556E+03  0.7818608E-02  0.9918236E-01
         13   -1    0    0    0    0  0.00000000000E+00  0.00000000000E+00  0.10000000000E+04  0.10000000000E+04  0.00000000000E+00 0. -1.
          2   -1    0    0  501    0 -0.00000000000E+00 -0.00000000000E+00 -0.88166118289E+02  0.88166118289E+02  0.00000000000E+00 0. -1.
    9000006    2    1    2  501    0  0.00000000000E+00  0.00000000000E+00  0.91183388171E+03  0.10881661183E+04  0.59385559958E+03 0.  0.
         13    1    3    3    0    0  0.15594836831E+03  0.11905310898E+03  0.86430469504E+03  0.88629348537E+03  0.00000000000E+00 0. -1.
          2    1    3    3  501    0 -0.15594836831E+03 -0.11905310898E+03  0.47529186668E+02  0.20187263292E+03  0.00000000000E+00 0. -1.
<mgrwt>
<rscale>  0 0.59385560E+03</rscale>
<asrwt>0</asrwt>
<pdfrwt beam="1">0</pdfrwt>
<pdfrwt beam="2">  1        2 0.32060474E+00 0.59385560E+03</pdfrwt>
<totfact> 0.77881690E+00</totfact>
</mgrwt>
</event>
<event>
 5    1  0.2357694E-004  0.6485039E+03  0.7818608E-02  0.9809591E-01
         13   -1    0    0    0    0  0.00000000000E+00  0.00000000000E+00  0.10000000000E+04  0.10000000000E+04  0.00000000000E+00 0. -1.
          2   -1    0    0  501    0 -0.00000000000E+00 -0.00000000000E+00 -0.10513931397E+03  0.10513931397E+03  0.00000000000E+00 0. -1.
    9000006    2    1    2  501    0  0.00000000000E+00  0.00000000000E+00  0.89486068603E+03  0.11051393140E+04  0.64850385958E+03 0.  0.
         13    1    3    3    0    0 -0.24073906515E+03  0.18708428838E+03  0.63553096838E+03  0.70487973457E+03  0.00000000000E+00 0. -1.
          4    1    3    3  501    0  0.24073906515E+03 -0.18708428838E+03  0.25932971765E+03  0.40025957940E+03  0.00000000000E+00 0. -1.
<mgrwt>
<rscale>  0 0.64850386E+03</rscale>
<asrwt>0</asrwt>
<pdfrwt beam="1">0</pdfrwt>
<pdfrwt beam="2">  1        2 0.38232558E+00 0.64850386E+03</pdfrwt>
<totfact> 0.46350085E+00</totfact>
</mgrwt>
</event>
<event>
 5    1  0.2357694E-004  0.6442886E+03  0.7818608E-02  0.9817556E-01
         13   -1    0    0    0    0  0.00000000000E+00  0.00000000000E+00  0.10000000000E+04  0.10000000000E+04  0.00000000000E+00 0. -1.
          2   -1    0    0  501    0 -0.00000000000E+00 -0.00000000000E+00 -0.10377694620E+03  0.10377694620E+03  0.00000000000E+00 0. -1.
    9000006    2    1    2  501    0  0.00000000000E+00  0.00000000000E+00  0.89622305380E+03  0.11037769462E+04  0.64428858813E+03 0.  0.
         13    1    3    3    0    0  0.11961693747E+03 -0.85486187348E+02  0.93917013883E+03  0.95060856804E+03  0.00000000000E+00 0. -1.
          2    1    3    3  501    0 -0.11961693747E+03  0.85486187348E+02 -0.42947085028E+02  0.15316837816E+03  0.00000000000E+00 0. -1.
<mgrwt>
<rscale>  0 0.64428859E+03</rscale>
<asrwt>0</asrwt>
<pdfrwt beam="1">0</pdfrwt>
<pdfrwt beam="2">  1        2 0.37737151E+00 0.64428859E+03</pdfrwt>
<totfact> 0.48358070E+00</totfact>
</mgrwt>
</event>
<event>
 5    1  0.2357694E-004  0.6548653E+03  0.7818608E-02  0.9797692E-01
         13   -1    0    0    0    0  0.00000000000E+00  0.00000000000E+00  0.10000000000E+04  0.10000000000E+04  0.00000000000E+00 0. -1.
          2   -1    0    0  501    0 -0.00000000000E+00 -0.00000000000E+00 -0.10721214121E+03  0.10721214121E+03  0.00000000000E+00 0. -1.
    9000006    2    1    2  501    0  0.00000000000E+00  0.00000000000E+00  0.89278785879E+03  0.11072121412E+04  0.65486530281E+03 0.  0.
         13    1    3    3    0    0 -0.11093021767E+03  0.27362212051E+03  0.68572622766E+03  0.74658893464E+03  0.00000000000E+00 0. -1.
          2    1    3    3  501    0  0.11093021767E+03 -0.27362212051E+03  0.20706163113E+03  0.36062320657E+03  0.00000000000E+00 0. -1.
<mgrwt>
<rscale>  0 0.65486530E+03</rscale>
<asrwt>0</asrwt>
<pdfrwt beam="1">0</pdfrwt>
<pdfrwt beam="2">  1        2 0.38986315E+00 0.65486530E+03</pdfrwt>
<totfact> 0.43439863E+00</totfact>
</mgrwt>
</event>
<event>
 5    1  0.2357694E-004  0.6437149E+03  0.7818608E-02  0.9818645E-01
         13   -1    0    0    0    0  0.00000000000E+00  0.00000000000E+00  0.10000000000E+04  0.10000000000E+04  0.00000000000E+00 0. -1.
          2   -1    0    0  501    0 -0.00000000000E+00 -0.00000000000E+00 -0.10359220555E+03  0.10359220555E+03  0.00000000000E+00 0. -1.
    9000006    2    1    2  501    0  0.00000000000E+00  0.00000000000E+00  0.89640779445E+03  0.11035922055E+04  0.64371486094E+03 0.  0.
         13    1    3    3    0    0  0.26513510577E+03  0.11594926264E+03  0.68975560334E+03  0.74799976481E+03  0.00000000000E+00 0. -1.
          4    1    3    3  501    0 -0.26513510577E+03 -0.11594926264E+03  0.20665219112E+03  0.35559244074E+03  0.00000000000E+00 0. -1.
<mgrwt>
<rscale>  0 0.64371486E+03</rscale>
<asrwt>0</asrwt>
<pdfrwt beam="1">0</pdfrwt>
<pdfrwt beam="2">  1        2 0.37669972E+00 0.64371486E+03</pdfrwt>
<totfact> 0.48636374E+00</totfact>
</mgrwt>
</event>
<event>
 5    1  0.2357694E-004  0.6506319E+03  0.7818608E-02  0.9805594E-01
         13   -1    0    0    0    0  0.00000000000E+00  0.00000000000E+00  0.10000000000E+04  0.10000000000E+04  0.00000000000E+00 0. -1.
          2   -1    0    0  501    0 -0.00000000000E+00 -0.00000000000E+00 -0.10583045379E+03  0.10583045379E+03  0.00000000000E+00 0. -1.
    9000006    2    1    2  501    0  0.00000000000E+00  0.00000000000E+00  0.89416954621E+03  0.11058304538E+04  0.65063185840E+03 0.  0.
         13    1    3    3    0    0 -0.15953827034E+03 -0.27117264307E+03  0.30648360731E+03  0.43922575471E+03  0.00000000000E+00 0. -1.
          4    1    3    3  501    0  0.15953827034E+03  0.27117264307E+03  0.58768593890E+03  0.66660469908E+03  0.00000000000E+00 0. -1.
<mgrwt>
<rscale>  0 0.65063186E+03</rscale>
<asrwt>0</asrwt>
<pdfrwt beam="1">0</pdfrwt>
<pdfrwt beam="2">  1        2 0.38483883E+00 0.65063186E+03</pdfrwt>
<totfact> 0.45360673E+00</totfact>
</mgrwt>
</event>
<event>
 5    1  0.2357694E-004  0.6046232E+03  0.7818608E-02  0.9895861E-01
         13   -1    0    0    0    0  0.00000000000E+00  0.00000000000E+00  0.10000000000E+04  0.10000000000E+04  0.00000000000E+00 0. -1.
          2   -1    0    0  501    0 -0.00000000000E+00 -0.00000000000E+00 -0.91392291619E+02  0.91392291619E+02  0.00000000000E+00 0. -1.
    9000006    2    1    2  501    0  0.00000000000E+00  0.00000000000E+00  0.90860770838E+03  0.10913922916E+04  0.60462316072E+03 0.  0.
         13    1    3    3    0    0 -0.53218049977E+02 -0.92455707978E+02  0.96489568687E+03  0.97077489941E+03  0.00000000000E+00 0. -1.
          2    1    3    3  501    0  0.53218049977E+02  0.92455707978E+02 -0.56287978490E+02  0.12061739221E+03  0.00000000000E+00 0. -1.
<mgrwt>
<rscale>  0 0.60462316E+03</rscale>
<asrwt>0</asrwt>
<pdfrwt beam="1">0</pdfrwt>
<pdfrwt beam="2">  1        2 0.33233631E+00 0.60462316E+03</pdfrwt>
<totfact> 0.70657821E+00</totfact>
</mgrwt>
</event>
<event>
 5    1  0.2357694E-004  0.6522650E+03  0.7818608E-02  0.9802538E-01
         13   -1    0    0    0    0  0.00000000000E+00  0.00000000000E+00  0.10000000000E+04  0.10000000000E+04  0.00000000000E+00 0. -1.
          2   -1    0    0  501    0 -0.00000000000E+00 -0.00000000000E+00 -0.10636241001E+03  0.10636241001E+03  0.00000000000E+00 0. -1.
    9000006    2    1    2  501    0  0.00000000000E+00  0.00000000000E+00  0.89363758999E+03  0.11063624100E+04  0.65226500752E+03 0.  0.
         13    1    3    3    0    0 -0.10443143873E+02 -0.32258445555E+03  0.52624338766E+03  0.61733450679E+03  0.00000000000E+00 0. -1.
          4    1    3    3  501    0  0.10443143873E+02  0.32258445555E+03  0.36739420233E+03  0.48902790322E+03  0.00000000000E+00 0. -1.
<mgrwt>
<rscale>  0 0.65226501E+03</rscale>
<asrwt>0</asrwt>
<pdfrwt beam="1">0</pdfrwt>
<pdfrwt beam="2">  1        2 0.38677322E+00 0.65226501E+03</pdfrwt>
<totfact> 0.44612232E+00</totfact>
</mgrwt>
</event>
<event>
 5    1  0.2357694E-004  0.6940608E+03  0.7818608E-02  0.9727443E-01
         13   -1    0    0    0    0  0.00000000000E+00  0.00000000000E+00  0.10000000000E+04  0.10000000000E+04  0.00000000000E+00 0. -1.
          2   -1    0    0  501    0 -0.00000000000E+00 -0.00000000000E+00 -0.12043010502E+03  0.12043010502E+03  0.00000000000E+00 0. -1.
    9000006    2    1    2  501    0  0.00000000000E+00  0.00000000000E+00  0.87956989498E+03  0.11204301050E+04  0.69406081871E+03 0.  0.
         13    1    3    3    0    0  0.32679878131E+03  0.10082365618E+03  0.34472885910E+03  0.48559328600E+03  0.00000000000E+00 0. -1.
          4    1    3    3  501    0 -0.32679878131E+03 -0.10082365618E+03  0.53484103588E+03  0.63483681901E+03  0.00000000000E+00 0. -1.
<mgrwt>
<rscale>  0 0.69406082E+03</rscale>
<asrwt>0</asrwt>
<pdfrwt beam="1">0</pdfrwt>
<pdfrwt beam="2">  1        2 0.43792858E+00 0.69406082E+03</pdfrwt>
<totfact> 0.28426904E+00</totfact>
</mgrwt>
</event>
<event>
 5    1  0.2357694E-004  0.6474739E+03  0.7818608E-02  0.9811531E-01
         13   -1    0    0    0    0  0.00000000000E+00  0.00000000000E+00  0.10000000000E+04  0.10000000000E+04  0.00000000000E+00 0. -1.
          2   -1    0    0  501    0 -0.00000000000E+00 -0.00000000000E+00 -0.10480562018E+03  0.10480562018E+03  0.00000000000E+00 0. -1.
    9000006    2    1    2  501    0  0.00000000000E+00  0.00000000000E+00  0.89519437982E+03  0.11048056202E+04  0.64747392281E+03 0.  0.
         13    1    3    3    0    0  0.24723813901E+03 -0.85005347744E+02  0.77338161067E+03  0.81637719361E+03  0.00000000000E+00 0. -1.
          4    1    3    3  501    0 -0.24723813901E+03  0.85005347744E+02  0.12181276915E+03  0.28842842657E+03  0.00000000000E+00 0. -1.
<mgrwt>
<rscale>  0 0.64747392E+03</rscale>
<asrwt>0</asrwt>
<pdfrwt beam="1">0</pdfrwt>
<pdfrwt beam="2">  1        2 0.38111215E+00 0.64747392E+03</pdfrwt>
<totfact> 0.46834771E+00</totfact>
</mgrwt>
</event>
<event>
 5    1  0.2357694E-004  0.6424021E+03  0.7818608E-02  0.9821141E-01
         13   -1    0    0    0    0  0.00000000000E+00  0.00000000000E+00  0.10000000000E+04  0.10000000000E+04  0.00000000000E+00 0. -1.
          2   -1    0    0  501    0 -0.00000000000E+00 -0.00000000000E+00 -0.10317011728E+03  0.10317011728E+03  0.00000000000E+00 0. -1.
    9000006    2    1    2  501    0  0.00000000000E+00  0.00000000000E+00  0.89682988272E+03  0.11031701173E+04  0.64240210858E+03 0.  0.
         13    1    3    3    0    0 -0.72555314005E+02 -0.11298790303E+03 -0.52658375809E+02  0.14423399171E+03  0.00000000000E+00 0. -1.
          2    1    3    3  501    0  0.72555314005E+02  0.11298790303E+03  0.94948825853E+03  0.95893612556E+03  0.00000000000E+00 0. -1.
<mgrwt>
<rscale>  0 0.64240211E+03</rscale>
<asrwt>0</asrwt>
<pdfrwt beam="1">0</pdfrwt>
<pdfrwt beam="2">  1        2 0.37516485E+00 0.64240211E+03</pdfrwt>
<totfact> 0.49277740E+00</totfact>
</mgrwt>
</event>
<event>
 5    1  0.2357694E-004  0.6451862E+03  0.7818608E-02  0.9815854E-01
         13   -1    0    0    0    0  0.00000000000E+00  0.00000000000E+00  0.10000000000E+04  0.10000000000E+04  0.00000000000E+00 0. -1.
          2   -1    0    0  501    0 -0.00000000000E+00 -0.00000000000E+00 -0.10406632017E+03  0.10406632017E+03  0.00000000000E+00 0. -1.
    9000006    2    1    2  501    0  0.00000000000E+00  0.00000000000E+00  0.89593367983E+03  0.11040663202E+04  0.64518623721E+03 0.  0.
         13    1    3    3    0    0  0.51574638160E+02 -0.28208095089E+03  0.19509311240E+03  0.34682982666E+03  0.00000000000E+00 0. -1.
          2    1    3    3  501    0 -0.51574638160E+02  0.28208095089E+03  0.70084056742E+03  0.75723649351E+03  0.00000000000E+00 0. -1.
<mgrwt>
<rscale>  0 0.64518624E+03</rscale>
<asrwt>0</asrwt>
<pdfrwt beam="1">0</pdfrwt>
<pdfrwt beam="2">  1        2 0.37842378E+00 0.64518624E+03</pdfrwt>
<totfact> 0.47925056E+00</totfact>
</mgrwt>
</event>
<event>
 5    1  0.2357694E-004  0.6480454E+03  0.7818608E-02  0.9810454E-01
         13   -1    0    0    0    0  0.00000000000E+00  0.00000000000E+00  0.10000000000E+04  0.10000000000E+04  0.00000000000E+00 0. -1.
          2   -1    0    0  501    0 -0.00000000000E+00 -0.00000000000E+00 -0.10499069590E+03  0.10499069590E+03  0.00000000000E+00 0. -1.
    9000006    2    1    2  501    0  0.00000000000E+00  0.00000000000E+00  0.89500930410E+03  0.11049906959E+04  0.64804535614E+03 0.  0.
         13    1    3    3    0    0 -0.29324527675E+03 -0.20490588093E+02  0.67991376752E+03  0.74073975713E+03  0.00000000000E+00 0. -1.
          2    1    3    3  501    0  0.29324527675E+03  0.20490588093E+02  0.21509553658E+03  0.36425093877E+03  0.00000000000E+00 0. -1.
<mgrwt>
<rscale>  0 0.64804536E+03</rscale>
<asrwt>0</asrwt>
<pdfrwt beam="1">0</pdfrwt>
<pdfrwt beam="2">  1        2 0.38178515E+00 0.64804536E+03</pdfrwt>
<totfact> 0.46565385E+00</totfact>
</mgrwt>
</event>
<event>
 5    1  0.2357694E-004  0.6469801E+03  0.7818608E-02  0.9812462E-01
         13   -1    0    0    0    0  0.00000000000E+00  0.00000000000E+00  0.10000000000E+04  0.10000000000E+04  0.00000000000E+00 0. -1.
          2   -1    0    0  501    0 -0.00000000000E+00 -0.00000000000E+00 -0.10464582480E+03  0.10464582480E+03  0.00000000000E+00 0. -1.
    9000006    2    1    2  501    0  0.00000000000E+00  0.00000000000E+00  0.89535417520E+03  0.11046458248E+04  0.64698013818E+03 0.  0.
         13    1    3    3    0    0 -0.69239614245E+02  0.12329413262E+03 -0.49082489602E+02  0.14968185630E+03  0.00000000000E+00 0. -1.
          2    1    3    3  501    0  0.69239614245E+02 -0.12329413262E+03  0.94443666480E+03  0.95496396850E+03  0.00000000000E+00 0. -1.
<mgrwt>
<rscale>  0 0.64698014E+03</rscale>
<asrwt>0</asrwt>
<pdfrwt beam="1">0</pdfrwt>
<pdfrwt beam="2">  1        2 0.38053107E+00 0.64698014E+03</pdfrwt>
<totfact> 0.47068499E+00</totfact>
</mgrwt>
</event>
<event>
 5    1  0.2357694E-004  0.6789225E+03  0.7818608E-02  0.9753972E-01
         13   -1    0    0    0    0  0.00000000000E+00  0.00000000000E+00  0.10000000000E+04  0.10000000000E+04  0.00000000000E+00 0. -1.
          2   -1    0    0  501    0 -0.00000000000E+00 -0.00000000000E+00 -0.11523394172E+03  0.11523394172E+03  0.00000000000E+00 0. -1.
    9000006    2    1    2  501    0  0.00000000000E+00  0.00000000000E+00  0.88476605828E+03  0.11152339417E+04  0.67892250431E+03 0.  0.
         13    1    3    3    0    0 -0.30992810501E+03  0.91275573697E+02  0.61346577862E+03  0.69334473544E+03  0.00000000000E+00 0. -1.
          4    1    3    3  501    0  0.30992810501E+03 -0.91275573697E+02  0.27130027966E+03  0.42188920627E+03  0.00000000000E+00 0. -1.
<mgrwt>
<rscale>  0 0.67892250E+03</rscale>
<asrwt>0</asrwt>
<pdfrwt beam="1">0</pdfrwt>
<pdfrwt beam="2">  1        2 0.41903340E+00 0.67892250E+03</pdfrwt>
<totfact> 0.33662978E+00</totfact>
</mgrwt>
</event>
<event>
 5    1  0.2357694E-004  0.6485577E+03  0.7818608E-02  0.9809489E-01
         13   -1    0    0    0    0  0.00000000000E+00  0.00000000000E+00  0.10000000000E+04  0.10000000000E+04  0.00000000000E+00 0. -1.
          2   -1    0    0  501    0 -0.00000000000E+00 -0.00000000000E+00 -0.10515676072E+03  0.10515676072E+03  0.00000000000E+00 0. -1.
    9000006    2    1    2  501    0  0.00000000000E+00  0.00000000000E+00  0.89484323928E+03  0.11051567607E+04  0.64855766350E+03 0.  0.
         13    1    3    3    0    0 -0.59719861161E+02 -0.28907660010E+03  0.67619903284E+03  0.73781899850E+03  0.00000000000E+00 0. -1.
          4    1    3    3  501    0  0.59719861161E+02  0.28907660010E+03  0.21864420644E+03  0.36733776222E+03  0.00000000000E+00 0. -1.
<mgrwt>
<rscale>  0 0.64855766E+03</rscale>
<asrwt>0</asrwt>
<pdfrwt beam="1">0</pdfrwt>
<pdfrwt beam="2">  1        2 0.38238903E+00 0.64855766E+03</pdfrwt>
<totfact> 0.46324870E+00</totfact>
</mgrwt>
</event>
<event>
 5    1  0.2357694E-004  0.6426220E+03  0.7818608E-02  0.9820723E-01
         13   -1    0    0    0    0  0.00000000000E+00  0.00000000000E+00  0.10000000000E+04  0.10000000000E+04  0.00000000000E+00 0. -1.
          2   -1    0    0  501    0 -0.00000000000E+00 -0.00000000000E+00 -0.10324076178E+03  0.10324076178E+03  0.00000000000E+00 0. -1.
    9000006    2    1    2  501    0  0.00000000000E+00  0.00000000000E+00  0.89675923822E+03  0.11032407618E+04  0.64262200953E+03 0.  0.
         13    1    3    3    0    0  0.13396711722E+03  0.97347269381E+02  0.92109337199E+03  0.93586146372E+03  0.00000000000E+00 0. -1.
          4    1    3    3  501    0 -0.13396711722E+03 -0.97347269381E+02 -0.24334133774E+02  0.16737929806E+03  0.00000000000E+00 0. -1.
<mgrwt>
<rscale>  0 0.64262201E+03</rscale>
<asrwt>0</asrwt>
<pdfrwt beam="1">0</pdfrwt>
<pdfrwt beam="2">  1        2 0.37542174E+00 0.64262201E+03</pdfrwt>
<totfact> 0.49169853E+00</totfact>
</mgrwt>
</event>
<event>
 5    1  0.2357694E-004  0.6338756E+03  0.7818608E-02  0.9837515E-01
         13   -1    0    0    0    0  0.00000000000E+00  0.00000000000E+00  0.10000000000E+04  0.10000000000E+04  0.00000000000E+00 0. -1.
          2   -1    0    0  501    0 -0.00000000000E+00 -0.00000000000E+00 -0.10044956242E+03  0.10044956242E+03  0.00000000000E+00 0. -1.
    9000006    2    1    2  501    0  0.00000000000E+00  0.00000000000E+00  0.89955043758E+03  0.11004495624E+04  0.63387557902E+03 0.  0.
         13    1    3    3    0    0  0.21372341029E+03 -0.13712976512E+03  0.12052960105E+03  0.28108655841E+03  0.00000000000E+00 0. -1.
          2    1    3    3  501    0 -0.21372341029E+03  0.13712976512E+03  0.77902083653E+03  0.81936300401E+03  0.00000000000E+00 0. -1.
<mgrwt>
<rscale>  0 0.63387558E+03</rscale>
<asrwt>0</asrwt>
<pdfrwt beam="1">0</pdfrwt>
<pdfrwt beam="2">  1        2 0.36527191E+00 0.63387558E+03</pdfrwt>
<totfact> 0.53601168E+00</totfact>
</mgrwt>
</event>
<event>
 5    1  0.2357694E-004  0.4974750E+03  0.7818608E-02  0.1014440E+00
         13   -1    0    0    0    0  0.00000000000E+00  0.00000000000E+00  0.10000000000E+04  0.10000000000E+04  0.00000000000E+00 0. -1.
          2   -1    0    0  501    0 -0.00000000000E+00 -0.00000000000E+00 -0.61870343142E+02  0.61870343142E+02  0.00000000000E+00 0. -1.
    9000006    2    1    2  501    0  0.00000000000E+00  0.00000000000E+00  0.93812965686E+03  0.10618703431E+04  0.49747499693E+03 0.  0.
         13    1    3    3    0    0  0.48630530489E+02 -0.12050340172E+03  0.92178613401E+03  0.93090046470E+03  0.00000000000E+00 0. -1.
          2    1    3    3  501    0 -0.48630530489E+02  0.12050340172E+03  0.16343522850E+02  0.13096987845E+03  0.00000000000E+00 0. -1.
<mgrwt>
<rscale>  0 0.49747500E+03</rscale>
<asrwt>0</asrwt>
<pdfrwt beam="1">0</pdfrwt>
<pdfrwt beam="2">  1        2 0.22498354E+00 0.49747500E+03</pdfrwt>
<totfact> 0.17172428E+01</totfact>
</mgrwt>
</event>
<event>
 5    1  0.2357694E-004  0.6638496E+03  0.7818608E-02  0.9781133E-01
         13   -1    0    0    0    0  0.00000000000E+00  0.00000000000E+00  0.10000000000E+04  0.10000000000E+04  0.00000000000E+00 0. -1.
          2   -1    0    0  501    0 -0.00000000000E+00 -0.00000000000E+00 -0.11017406649E+03  0.11017406649E+03  0.00000000000E+00 0. -1.
    9000006    2    1    2  501    0  0.00000000000E+00  0.00000000000E+00  0.88982593351E+03  0.11101740665E+04  0.66384958083E+03 0.  0.
         13    1    3    3    0    0  0.25319014328E+03 -0.20784007587E+03  0.35530177696E+03  0.48326193570E+03  0.00000000000E+00 0. -1.
          2    1    3    3  501    0 -0.25319014328E+03  0.20784007587E+03  0.53452415655E+03  0.62691213079E+03  0.00000000000E+00 0. -1.
<mgrwt>
<rscale>  0 0.66384958E+03</rscale>
<asrwt>0</asrwt>
<pdfrwt beam="1">0</pdfrwt>
<pdfrwt beam="2">  1        2 0.40063381E+00 0.66384958E+03</pdfrwt>
<totfact> 0.39567616E+00</totfact>
</mgrwt>
</event>
<event>
 5    1  0.2357694E-004  0.6454554E+03  0.7818608E-02  0.9815344E-01
         13   -1    0    0    0    0  0.00000000000E+00  0.00000000000E+00  0.10000000000E+04  0.10000000000E+04  0.00000000000E+00 0. -1.
          2   -1    0    0  501    0 -0.00000000000E+00 -0.00000000000E+00 -0.10415318407E+03  0.10415318407E+03  0.00000000000E+00 0. -1.
    9000006    2    1    2  501    0  0.00000000000E+00  0.00000000000E+00  0.89584681593E+03  0.11041531841E+04  0.64545544870E+03 0.  0.
         13    1    3    3    0    0  0.41616603072E+02  0.36698252339E+01  0.99535457884E+03  0.99623097065E+03  0.00000000000E+00 0. -1.
          4    1    3    3  501    0 -0.41616603072E+02 -0.36698252339E+01 -0.99507762908E+02  0.10792221341E+03  0.00000000000E+00 0. -1.
<mgrwt>
<rscale>  0 0.64545545E+03</rscale>
<asrwt>0</asrwt>
<pdfrwt beam="1">0</pdfrwt>
<pdfrwt beam="2">  1        2 0.37873965E+00 0.64545545E+03</pdfrwt>
<totfact> 0.47795766E+00</totfact>
</mgrwt>
</event>
<event>
 5    1  0.2357694E-004  0.6611908E+03  0.7818608E-02  0.9786004E-01
         13   -1    0    0    0    0  0.00000000000E+00  0.00000000000E+00  0.10000000000E+04  0.10000000000E+04  0.00000000000E+00 0. -1.
          2   -1    0    0  501    0 -0.00000000000E+00 -0.00000000000E+00 -0.10929330805E+03  0.10929330805E+03  0.00000000000E+00 0. -1.
    9000006    2    1    2  501    0  0.00000000000E+00  0.00000000000E+00  0.89070669195E+03  0.11092933081E+04  0.66119076839E+03 0.  0.
         13    1    3    3    0    0 -0.10018429723E+02 -0.20577175142E+03  0.11569551245E+02  0.20634010064E+03  0.00000000000E+00 0. -1.
          4    1    3    3  501    0  0.10018429723E+02  0.20577175142E+03  0.87913714070E+03  0.90295320741E+03  0.00000000000E+00 0. -1.
<mgrwt>
<rscale>  0 0.66119077E+03</rscale>
<asrwt>0</asrwt>
<pdfrwt beam="1">0</pdfrwt>
<pdfrwt beam="2">  1        2 0.39743105E+00 0.66119077E+03</pdfrwt>
<totfact> 0.40685203E+00</totfact>
</mgrwt>
</event>
<event>
 5    1  0.2357694E-004  0.6455671E+03  0.7818608E-02  0.9815133E-01
         13   -1    0    0    0    0  0.00000000000E+00  0.00000000000E+00  0.10000000000E+04  0.10000000000E+04  0.00000000000E+00 0. -1.
          2   -1    0    0  501    0 -0.00000000000E+00 -0.00000000000E+00 -0.10418921777E+03  0.10418921777E+03  0.00000000000E+00 0. -1.
    9000006    2    1    2  501    0  0.00000000000E+00  0.00000000000E+00  0.89581078223E+03  0.11041892178E+04  0.64556709264E+03 0.  0.
         13    1    3    3    0    0 -0.10464231767E+03 -0.28802164041E+03  0.62134827983E+03  0.69280600809E+03  0.00000000000E+00 0. -1.
          2    1    3    3  501    0  0.10464231767E+03  0.28802164041E+03  0.27446250239E+03  0.41138320969E+03  0.00000000000E+00 0. -1.
<mgrwt>
<rscale>  0 0.64556709E+03</rscale>
<asrwt>0</asrwt>
<pdfrwt beam="1">0</pdfrwt>
<pdfrwt beam="2">  1        2 0.37887068E+00 0.64556709E+03</pdfrwt>
<totfact> 0.47742226E+00</totfact>
</mgrwt>
</event>
<event>
 5    1  0.2357694E-004  0.6398168E+03  0.7818608E-02  0.9826077E-01
         13   -1    0    0    0    0  0.00000000000E+00  0.00000000000E+00  0.10000000000E+04  0.10000000000E+04  0.00000000000E+00 0. -1.
          2   -1    0    0  501    0 -0.00000000000E+00 -0.00000000000E+00 -0.10234137801E+03  0.10234137801E+03  0.00000000000E+00 0. -1.
    9000006    2    1    2  501    0  0.00000000000E+00  0.00000000000E+00  0.89765862199E+03  0.11023413780E+04  0.63981678005E+03 0.  0.
         13    1    3    3    0    0 -0.28571598360E+03 -0.12600963671E+03  0.32909909848E+03  0.45367198332E+03  0.00000000000E+00 0. -1.
          2    1    3    3  501    0  0.28571598360E+03  0.12600963671E+03  0.56855952351E+03  0.64866939469E+03  0.00000000000E+00 0. -1.
<mgrwt>
<rscale>  0 0.63981678E+03</rscale>
<asrwt>0</asrwt>
<pdfrwt beam="1">0</pdfrwt>
<pdfrwt beam="2">  1        2 0.37215125E+00 0.63981678E+03</pdfrwt>
<totfact> 0.50559637E+00</totfact>
</mgrwt>
</event>
<event>
 5    1  0.2357694E-004  0.6166135E+03  0.7818608E-02  0.9871525E-01
         13   -1    0    0    0    0  0.00000000000E+00  0.00000000000E+00  0.10000000000E+04  0.10000000000E+04  0.00000000000E+00 0. -1.
          2   -1    0    0  501    0 -0.00000000000E+00 -0.00000000000E+00 -0.95053050987E+02  0.95053050987E+02  0.00000000000E+00 0. -1.
    9000006    2    1    2  501    0  0.00000000000E+00  0.00000000000E+00  0.90494694901E+03  0.10950530510E+04  0.61661349640E+03 0.  0.
         13    1    3    3    0    0 -0.16942654607E+03 -0.25445211187E+03  0.38139650779E+03  0.48878883774E+03  0.00000000000E+00 0. -1.
          2    1    3    3  501    0  0.16942654607E+03  0.25445211187E+03  0.52355044123E+03  0.60626421324E+03  0.00000000000E+00 0. -1.
<mgrwt>
<rscale>  0 0.61661350E+03</rscale>
<asrwt>0</asrwt>
<pdfrwt beam="1">0</pdfrwt>
<pdfrwt beam="2">  1        2 0.34564819E+00 0.61661350E+03</pdfrwt>
<totfact> 0.63230706E+00</totfact>
</mgrwt>
</event>
<event>
 5    1  0.2357694E-004  0.6486471E+03  0.7818608E-02  0.9809321E-01
         13   -1    0    0    0    0  0.00000000000E+00  0.00000000000E+00  0.10000000000E+04  0.10000000000E+04  0.00000000000E+00 0. -1.
          2   -1    0    0  501    0 -0.00000000000E+00 -0.00000000000E+00 -0.10518575510E+03  0.10518575510E+03  0.00000000000E+00 0. -1.
    9000006    2    1    2  501    0  0.00000000000E+00  0.00000000000E+00  0.89481424490E+03  0.11051857551E+04  0.64864706922E+03 0.  0.
         13    1    3    3    0    0  0.29920898523E+03 -0.74606466961E+02  0.61858599069E+03  0.69118794088E+03  0.00000000000E+00 0. -1.
          4    1    3    3  501    0 -0.29920898523E+03  0.74606466961E+02  0.27622825421E+03  0.41399781422E+03  0.00000000000E+00 0. -1.
<mgrwt>
<rscale>  0 0.64864707E+03</rscale>
<asrwt>0</asrwt>
<pdfrwt beam="1">0</pdfrwt>
<pdfrwt beam="2">  1        2 0.38249446E+00 0.64864707E+03</pdfrwt>
<totfact> 0.46282993E+00</totfact>
</mgrwt>
</event>
<event>
 5    1  0.2357694E-004  0.6392565E+03  0.7818608E-02  0.9827150E-01
         13   -1    0    0    0    0  0.00000000000E+00  0.00000000000E+00  0.10000000000E+04  0.10000000000E+04  0.00000000000E+00 0. -1.
          2   -1    0    0  501    0 -0.00000000000E+00 -0.00000000000E+00 -0.10216222182E+03  0.10216222182E+03  0.00000000000E+00 0. -1.
    9000006    2    1    2  501    0  0.00000000000E+00  0.00000000000E+00  0.89783777818E+03  0.11021622218E+04  0.63925651132E+03 0.  0.
         13    1    3    3    0    0 -0.22211510706E+03 -0.20632245535E+03  0.62354323278E+03  0.69333270477E+03  0.00000000000E+00 0. -1.
          2    1    3    3  501    0  0.22211510706E+03  0.20632245535E+03  0.27429454541E+03  0.40882951704E+03  0.00000000000E+00 0. -1.
<mgrwt>
<rscale>  0 0.63925651E+03</rscale>
<asrwt>0</asrwt>
<pdfrwt beam="1">0</pdfrwt>
<pdfrwt beam="2">  1        2 0.37149977E+00 0.63925651E+03</pdfrwt>
<totfact> 0.50840736E+00</totfact>
</mgrwt>
</event>
<event>
 5    1  0.2357694E-004  0.6478394E+03  0.7818608E-02  0.9810842E-01
         13   -1    0    0    0    0  0.00000000000E+00  0.00000000000E+00  0.10000000000E+04  0.10000000000E+04  0.00000000000E+00 0. -1.
          2   -1    0    0  501    0 -0.00000000000E+00 -0.00000000000E+00 -0.10492397767E+03  0.10492397767E+03  0.00000000000E+00 0. -1.
    9000006    2    1    2  501    0  0.00000000000E+00  0.00000000000E+00  0.89507602233E+03  0.11049239777E+04  0.64783941736E+03 0.  0.
         13    1    3    3    0    0 -0.31153875394E+02 -0.44168550616E+02  0.99225453530E+03  0.99372555952E+03  0.00000000000E+00 0. -1.
          4    1    3    3  501    0  0.31153875394E+02  0.44168550616E+02 -0.97178512973E+02  0.11119841815E+03  0.00000000000E+00 0. -1.
<mgrwt>
<rscale>  0 0.64783942E+03</rscale>
<asrwt>0</asrwt>
<pdfrwt beam="1">0</pdfrwt>
<pdfrwt beam="2">  1        2 0.38154254E+00 0.64783942E+03</pdfrwt>
<totfact> 0.46662334E+00</totfact>
</mgrwt>
</event>
<event>
 5    1  0.2357694E-004  0.6475584E+03  0.7818608E-02  0.9811372E-01
         13   -1    0    0    0    0  0.00000000000E+00  0.00000000000E+00  0.10000000000E+04  0.10000000000E+04  0.00000000000E+00 0. -1.
          2   -1    0    0  501    0 -0.00000000000E+00 -0.00000000000E+00 -0.10483295950E+03  0.10483295950E+03  0.00000000000E+00 0. -1.
    9000006    2    1    2  501    0  0.00000000000E+00  0.00000000000E+00  0.89516704050E+03  0.11048329595E+04  0.64755836647E+03 0.  0.
         13    1    3    3    0    0 -0.26020483725E+03  0.74772058173E+02  0.75056623257E+03  0.79790167783E+03  0.00000000000E+00 0. -1.
          2    1    3    3  501    0  0.26020483725E+03 -0.74772058173E+02  0.14460080794E+03  0.30693128167E+03  0.00000000000E+00 0. -1.
<mgrwt>
<rscale>  0 0.64755837E+03</rscale>
<asrwt>0</asrwt>
<pdfrwt beam="1">0</pdfrwt>
<pdfrwt beam="2">  1        2 0.38121157E+00 0.64755837E+03</pdfrwt>
<totfact> 0.46794888E+00</totfact>
</mgrwt>
</event>
<event>
 5    1  0.2357694E-004  0.6520489E+03  0.7818608E-02  0.9802942E-01
         13   -1    0    0    0    0  0.00000000000E+00  0.00000000000E+00  0.10000000000E+04  0.10000000000E+04  0.00000000000E+00 0. -1.
          2   -1    0    0  501    0 -0.00000000000E+00 -0.00000000000E+00 -0.10629192706E+03  0.10629192706E+03  0.00000000000E+00 0. -1.
    9000006    2    1    2  501    0  0.00000000000E+00  0.00000000000E+00  0.89370807294E+03  0.11062919271E+04  0.65204885417E+03 0.  0.
         13    1    3    3    0    0 -0.19837351363E+03  0.23322976438E+03  0.63687580540E+03  0.70665335590E+03  0.00000000000E+00 0. -1.
          4    1    3    3  501    0  0.19837351363E+03 -0.23322976438E+03  0.25683226755E+03  0.39963857116E+03  0.00000000000E+00 0. -1.
<mgrwt>
<rscale>  0 0.65204885E+03</rscale>
<asrwt>0</asrwt>
<pdfrwt beam="1">0</pdfrwt>
<pdfrwt beam="2">  1        2 0.38651691E+00 0.65204885E+03</pdfrwt>
<totfact> 0.44710751E+00</totfact>
</mgrwt>
</event>
<event>
 5    1  0.2357694E-004  0.6601199E+03  0.7818608E-02  0.9787973E-01
         13   -1    0    0    0    0  0.00000000000E+00  0.00000000000E+00  0.10000000000E+04  0.10000000000E+04  0.00000000000E+00 0. -1.
          2   -1    0    0  501    0 -0.00000000000E+00 -0.00000000000E+00 -0.10893955703E+03  0.10893955703E+03  0.00000000000E+00 0. -1.
    9000006    2    1    2  501    0  0.00000000000E+00  0.00000000000E+00  0.89106044297E+03  0.11089395570E+04  0.66011985889E+03 0.  0.
         13    1    3    3    0    0 -0.85863431672E+02  0.26324836381E+03  0.14376681546E+03  0.31199539608E+03  0.00000000000E+00 0. -1.
          2    1    3    3  501    0  0.85863431672E+02 -0.26324836381E+03  0.74729362751E+03  0.79694416094E+03  0.00000000000E+00 0. -1.
<mgrwt>
<rscale>  0 0.66011986E+03</rscale>
<asrwt>0</asrwt>
<pdfrwt beam="1">0</pdfrwt>
<pdfrwt beam="2">  1        2 0.39614468E+00 0.66011986E+03</pdfrwt>
<totfact> 0.41142005E+00</totfact>
</mgrwt>
</event>
<event>
 5    1  0.2357694E-004  0.6362809E+03  0.7818608E-02  0.9832868E-01
         13   -1    0    0    0    0  0.00000000000E+00  0.00000000000E+00  0.10000000000E+04  0.10000000000E+04  0.00000000000E+00 0. -1.
          2   -1    0    0  501    0 -0.00000000000E+00 -0.00000000000E+00 -0.10121334288E+03  0.10121334288E+03  0.00000000000E+00 0. -1.
    9000006    2    1    2  501    0  0.00000000000E+00  0.00000000000E+00  0.89878665712E+03  0.11012133429E+04  0.63628089044E+03 0.  0.
         13    1    3    3    0    0 -0.29575027867E+03 -0.11235460772E+03  0.50735399764E+03  0.59791292354E+03  0.00000000000E+00 0. -1.
          4    1    3    3  501    0  0.29575027867E+03  0.11235460772E+03  0.39143265947E+03  0.50330041934E+03  0.00000000000E+00 0. -1.
<mgrwt>
<rscale>  0 0.63628089E+03</rscale>
<asrwt>0</asrwt>
<pdfrwt beam="1">0</pdfrwt>
<pdfrwt beam="2">  1        2 0.36804930E+00 0.63628089E+03</pdfrwt>
<totfact> 0.52353561E+00</totfact>
</mgrwt>
</event>
<event>
 5    1  0.2357694E-004  0.6493021E+03  0.7818608E-02  0.9808090E-01
         13   -1    0    0    0    0  0.00000000000E+00  0.00000000000E+00  0.10000000000E+04  0.10000000000E+04  0.00000000000E+00 0. -1.
          2   -1    0    0  501    0 -0.00000000000E+00 -0.00000000000E+00 -0.10539829244E+03  0.10539829244E+03  0.00000000000E+00 0. -1.
    9000006    2    1    2  501    0  0.00000000000E+00  0.00000000000E+00  0.89460170756E+03  0.11053982924E+04  0.64930206357E+03 0.  0.
         13    1    3    3    0    0  0.10224821250E+03 -0.27488168220E+03  0.21027820005E+03  0.36087609727E+03  0.00000000000E+00 0. -1.
          2    1    3    3  501    0 -0.10224821250E+03  0.27488168220E+03  0.68432350751E+03  0.74452219517E+03  0.00000000000E+00 0. -1.
<mgrwt>
<rscale>  0 0.64930206E+03</rscale>
<asrwt>0</asrwt>
<pdfrwt beam="1">0</pdfrwt>
<pdfrwt beam="2">  1        2 0.38326733E+00 0.64930206E+03</pdfrwt>
<totfact> 0.45977069E+00</totfact>
</mgrwt>
</event>
<event>
 5    1  0.2357694E-004  0.6545692E+03  0.7818608E-02  0.9798243E-01
         13   -1    0    0    0    0  0.00000000000E+00  0.00000000000E+00  0.10000000000E+04  0.10000000000E+04  0.00000000000E+00 0. -1.
          2   -1    0    0  501    0 -0.00000000000E+00 -0.00000000000E+00 -0.10711521099E+03  0.10711521099E+03  0.00000000000E+00 0. -1.
    9000006    2    1    2  501    0  0.00000000000E+00  0.00000000000E+00  0.89288478901E+03  0.11071152110E+04  0.65456920487E+03 0.  0.
         13    1    3    3    0    0 -0.31802354300E+03 -0.31187440500E+02  0.32680203756E+03  0.45706804975E+03  0.00000000000E+00 0. -1.
          2    1    3    3  501    0  0.31802354300E+03  0.31187440500E+02  0.56608275145E+03  0.65004716124E+03  0.00000000000E+00 0. -1.
<mgrwt>
<rscale>  0 0.65456920E+03</rscale>
<asrwt>0</asrwt>
<pdfrwt beam="1">0</pdfrwt>
<pdfrwt beam="2">  1        2 0.38951068E+00 0.65456920E+03</pdfrwt>
<totfact> 0.43572174E+00</totfact>
</mgrwt>
</event>
<event>
 5    1  0.2357694E-004  0.6259363E+03  0.7818608E-02  0.9853011E-01
         13   -1    0    0    0    0  0.00000000000E+00  0.00000000000E+00  0.10000000000E+04  0.10000000000E+04  0.00000000000E+00 0. -1.
          2   -1    0    0  501    0 -0.00000000000E+00 -0.00000000000E+00 -0.97949077682E+02  0.97949077682E+02  0.00000000000E+00 0. -1.
    9000006    2    1    2  501    0  0.00000000000E+00  0.00000000000E+00  0.90205092232E+03  0.10979490777E+04  0.62593634718E+03 0.  0.
         13    1    3    3    0    0  0.11056431406E+03  0.89336582292E+02 -0.38059500517E+02  0.14715304298E+03  0.00000000000E+00 0. -1.
          4    1    3    3  501    0 -0.11056431406E+03 -0.89336582292E+02  0.94011042284E+03  0.95079603470E+03  0.00000000000E+00 0. -1.
<mgrwt>
<rscale>  0 0.62593635E+03</rscale>
<asrwt>0</asrwt>
<pdfrwt beam="1">0</pdfrwt>
<pdfrwt beam="2">  1        2 0.35617922E+00 0.62593635E+03</pdfrwt>
<totfact> 0.57879879E+00</totfact>
</mgrwt>
</event>
<event>
 5    1  0.2357694E-004  0.6235473E+03  0.7818608E-02  0.9857722E-01
         13   -1    0    0    0    0  0.00000000000E+00  0.00000000000E+00  0.10000000000E+04  0.10000000000E+04  0.00000000000E+00 0. -1.
          2   -1    0    0  501    0 -0.00000000000E+00 -0.00000000000E+00 -0.97202802518E+02  0.97202802518E+02  0.00000000000E+00 0. -1.
    9000006    2    1    2  501    0  0.00000000000E+00  0.00000000000E+00  0.90279719748E+03  0.10972028025E+04  0.62354727974E+03 0.  0.
         13    1    3    3    0    0  0.95445441756E+01 -0.26184811099E+03  0.74870195906E+03  0.79322768173E+03  0.00000000000E+00 0. -1.
          4    1    3    3  501    0 -0.95445441756E+01  0.26184811099E+03  0.15409523842E+03  0.30397512079E+03  0.00000000000E+00 0. -1.
<mgrwt>
<rscale>  0 0.62354728E+03</rscale>
<asrwt>0</asrwt>
<pdfrwt beam="1">0</pdfrwt>
<pdfrwt beam="2">  1        2 0.35346548E+00 0.62354728E+03</pdfrwt>
<totfact> 0.59216913E+00</totfact>
</mgrwt>
</event>
<event>
 5    1  0.2357694E-004  0.6428853E+03  0.7818608E-02  0.9820222E-01
         13   -1    0    0    0    0  0.00000000000E+00  0.00000000000E+00  0.10000000000E+04  0.10000000000E+04  0.00000000000E+00 0. -1.
          2   -1    0    0  501    0 -0.00000000000E+00 -0.00000000000E+00 -0.10332538815E+03  0.10332538815E+03  0.00000000000E+00 0. -1.
    9000006    2    1    2  501    0  0.00000000000E+00  0.00000000000E+00  0.89667461185E+03  0.11033253882E+04  0.64288533394E+03 0.  0.
         13    1    3    3    0    0  0.10438664372E+03 -0.29933149634E+03  0.53962721999E+03  0.62585417842E+03  0.00000000000E+00 0. -1.
          4    1    3    3  501    0 -0.10438664372E+03  0.29933149634E+03  0.35704739186E+03  0.47747120973E+03  0.00000000000E+00 0. -1.
<mgrwt>
<rscale>  0 0.64288533E+03</rscale>
<asrwt>0</asrwt>
<pdfrwt beam="1">0</pdfrwt>
<pdfrwt beam="2">  1        2 0.37572948E+00 0.64288533E+03</pdfrwt>
<totfact> 0.49040905E+00</totfact>
</mgrwt>
</event>
<event>
 5    1  0.2357694E-004  0.6525650E+03  0.7818608E-02  0.9801978E-01
         13   -1    0    0    0    0  0.00000000000E+00  0.00000000000E+00  0.10000000000E+04  0.10000000000E+04  0.00000000000E+00 0. -1.
          2   -1    0    0  501    0 -0.00000000000E+00 -0.00000000000E+00 -0.10646026054E+03  0.10646026054E+03  0.00000000000E+00 0. -1.
    9000006    2    1    2  501    0  0.00000000000E+00  0.00000000000E+00  0.89353973946E+03  0.11064602605E+04  0.65256497161E+03 0.  0.
         13    1    3    3    0    0 -0.31746302726E+03  0.67598683982E+02  0.39033295255E+03  0.50765359212E+03  0.00000000000E+00 0. -1.
          4    1    3    3  501    0  0.31746302726E+03 -0.67598683982E+02  0.50320678691E+03  0.59880666842E+03  0.00000000000E+00 0. -1.
<mgrwt>
<rscale>  0 0.65256497E+03</rscale>
<asrwt>0</asrwt>
<pdfrwt beam="1">0</pdfrwt>
<pdfrwt beam="2">  1        2 0.38712904E+00 0.65256497E+03</pdfrwt>
<totfact> 0.44475785E+00</totfact>
</mgrwt>
</event>
<event>
 5    1  0.2357694E-004  0.6146256E+03  0.7818608E-02  0.9875519E-01
         13   -1    0    0    0    0  0.00000000000E+00  0.00000000000E+00  0.10000000000E+04  0.10000000000E+04  0.00000000000E+00 0. -1.
          2   -1    0    0  501    0 -0.00000000000E+00 -0.00000000000E+00 -0.94441144762E+02  0.94441144762E+02  0.00000000000E+00 0. -1.
    9000006    2    1    2  501    0  0.00000000000E+00  0.00000000000E+00  0.90555885524E+03  0.10944411448E+04  0.61462556003E+03 0.  0.
         13    1    3    3    0    0  0.19574977026E+03 -0.22902660843E+03  0.34490613630E+03  0.45796441213E+03  0.00000000000E+00 0. -1.
          2    1    3    3  501    0 -0.19574977026E+03  0.22902660843E+03  0.56065271894E+03  0.63647673263E+03  0.00000000000E+00 0. -1.
<mgrwt>
<rscale>  0 0.61462556E+03</rscale>
<asrwt>0</asrwt>
<pdfrwt beam="1">0</pdfrwt>
<pdfrwt beam="2">  1        2 0.34342307E+00 0.61462556E+03</pdfrwt>
<totfact> 0.64418780E+00</totfact>
</mgrwt>
</event>
<event>
 5    1  0.2357694E-004  0.6459665E+03  0.7818608E-02  0.9814377E-01
         13   -1    0    0    0    0  0.00000000000E+00  0.00000000000E+00  0.10000000000E+04  0.10000000000E+04  0.00000000000E+00 0. -1.
          2   -1    0    0  501    0 -0.00000000000E+00 -0.00000000000E+00 -0.10431816914E+03  0.10431816914E+03  0.00000000000E+00 0. -1.
    9000006    2    1    2  501    0  0.00000000000E+00  0.00000000000E+00  0.89568183086E+03  0.11043181691E+04  0.64596646706E+03 0.  0.
         13    1    3    3    0    0 -0.16606234330E+03 -0.52810578970E+02  0.91274215409E+03  0.92922758190E+03  0.00000000000E+00 0. -1.
          4    1    3    3  501    0  0.16606234330E+03  0.52810578970E+02 -0.17060323231E+02  0.17509058724E+03  0.00000000000E+00 0. -1.
<mgrwt>
<rscale>  0 0.64596647E+03</rscale>
<asrwt>0</asrwt>
<pdfrwt beam="1">0</pdfrwt>
<pdfrwt beam="2">  1        2 0.37933960E+00 0.64596647E+03</pdfrwt>
<totfact> 0.47551074E+00</totfact>
</mgrwt>
</event>
<event>
 5    1  0.2357694E-004  0.6296021E+03  0.7818608E-02  0.9845826E-01
         13   -1    0    0    0    0  0.00000000000E+00  0.00000000000E+00  0.10000000000E+04  0.10000000000E+04  0.00000000000E+00 0. -1.
          2   -1    0    0  501    0 -0.00000000000E+00 -0.00000000000E+00 -0.99099700931E+02  0.99099700931E+02  0.00000000000E+00 0. -1.
    9000006    2    1    2  501    0  0.00000000000E+00  0.00000000000E+00  0.90090029907E+03  0.10990997009E+04  0.62960209952E+03 0.  0.
         13    1    3    3    0    0 -0.10426451366E+03 -0.19273616459E+03  0.84500032926E+03  0.87295124400E+03  0.00000000000E+00 0. -1.
          4    1    3    3  501    0  0.10426451366E+03  0.19273616459E+03  0.55899969808E+02  0.22614845693E+03  0.00000000000E+00 0. -1.
<mgrwt>
<rscale>  0 0.62960210E+03</rscale>
<asrwt>0</asrwt>
<pdfrwt beam="1">0</pdfrwt>
<pdfrwt beam="2">  1        2 0.36036331E+00 0.62960210E+03</pdfrwt>
<totfact> 0.55873248E+00</totfact>
</mgrwt>
</event>
<event>
 5    1  0.2357694E-004  0.6626122E+03  0.7818608E-02  0.9783397E-01
         13   -1    0    0    0    0  0.00000000000E+00  0.00000000000E+00  0.10000000000E+04  0.10000000000E+04  0.00000000000E+00 0. -1.
          2   -1    0    0  501    0 -0.00000000000E+00 -0.00000000000E+00 -0.10976374047E+03  0.10976374047E+03  0.00000000000E+00 0. -1.
    9000006    2    1    2  501    0  0.00000000000E+00  0.00000000000E+00  0.89023625953E+03  0.11097637405E+04  0.66261222588E+03 0.  0.
         13    1    3    3    0    0 -0.54910205807E+02  0.28263678646E+02  0.99027451593E+03  0.99219835876E+03  0.00000000000E+00 0. -1.
          2    1    3    3  501    0  0.54910205807E+02 -0.28263678646E+02 -0.10003825640E+03  0.11756538171E+03  0.00000000000E+00 0. -1.
<mgrwt>
<rscale>  0 0.66261223E+03</rscale>
<asrwt>0</asrwt>
<pdfrwt beam="1">0</pdfrwt>
<pdfrwt beam="2">  1        2 0.39914172E+00 0.66261223E+03</pdfrwt>
<totfact> 0.40084796E+00</totfact>
</mgrwt>
</event>
<event>
 5    1  0.2357694E-004  0.6542487E+03  0.7818608E-02  0.9798839E-01
         13   -1    0    0    0    0  0.00000000000E+00  0.00000000000E+00  0.10000000000E+04  0.10000000000E+04  0.00000000000E+00 0. -1.
          2   -1    0    0  501    0 -0.00000000000E+00 -0.00000000000E+00 -0.10701034210E+03  0.10701034210E+03  0.00000000000E+00 0. -1.
    9000006    2    1    2  501    0  0.00000000000E+00  0.00000000000E+00  0.89298965790E+03  0.11070103421E+04  0.65424870530E+03 0.  0.
         13    1    3    3    0    0  0.18973695092E+03 -0.15466058000E+03  0.79318476268E+02  0.25731581030E+03  0.00000000000E+00 0. -1.
          4    1    3    3  501    0 -0.18973695092E+03  0.15466058000E+03  0.81367118163E+03  0.84969453180E+03  0.00000000000E+00 0. -1.
<mgrwt>
<rscale>  0 0.65424871E+03</rscale>
<asrwt>0</asrwt>
<pdfrwt beam="1">0</pdfrwt>
<pdfrwt beam="2">  1        2 0.38912934E+00 0.65424871E+03</pdfrwt>
<totfact> 0.43715732E+00</totfact>
</mgrwt>
</event>
<event>
 5    1  0.2357694E-004  0.6488059E+03  0.7818608E-02  0.9809022E-01
         13   -1    0    0    0    0  0.00000000000E+00  0.00000000000E+00  0.10000000000E+04  0.10000000000E+04  0.00000000000E+00 0. -1.
          2   -1    0    0  501    0 -0.00000000000E+00 -0.00000000000E+00 -0.10523726620E+03  0.10523726620E+03  0.00000000000E+00 0. -1.
    9000006    2    1    2  501    0  0.00000000000E+00  0.00000000000E+00  0.89476273380E+03  0.11052372662E+04  0.64880587607E+03 0.  0.
         13    1    3    3    0    0 -0.15453392844E+03 -0.41762548863E+02 -0.33271082751E+02  0.16349865588E+03  0.00000000000E+00 0. -1.
          4    1    3    3  501    0  0.15453392844E+03  0.41762548863E+02  0.92803381655E+03  0.94173861033E+03  0.00000000000E+00 0. -1.
<mgrwt>
<rscale>  0 0.64880588E+03</rscale>
<asrwt>0</asrwt>
<pdfrwt beam="1">0</pdfrwt>
<pdfrwt beam="2">  1        2 0.38268177E+00 0.64880588E+03</pdfrwt>
<totfact> 0.46208679E+00</totfact>
</mgrwt>
</event>
<event>
 5    1  0.2357694E-004  0.6457073E+03  0.7818608E-02  0.9814868E-01
         13   -1    0    0    0    0  0.00000000000E+00  0.00000000000E+00  0.10000000000E+04  0.10000000000E+04  0.00000000000E+00 0. -1.
          2   -1    0    0  501    0 -0.00000000000E+00 -0.00000000000E+00 -0.10423447823E+03  0.10423447823E+03  0.00000000000E+00 0. -1.
    9000006    2    1    2  501    0  0.00000000000E+00  0.00000000000E+00  0.89576552177E+03  0.11042344782E+04  0.64570729662E+03 0.  0.
         13    1    3    3    0    0 -0.28511302490E+03 -0.14198639555E+03  0.35763617499E+03  0.47890834942E+03  0.00000000000E+00 0. -1.
          4    1    3    3  501    0  0.28511302490E+03  0.14198639555E+03  0.53812934679E+03  0.62532612880E+03  0.00000000000E+00 0. -1.
<mgrwt>
<rscale>  0 0.64570730E+03</rscale>
<asrwt>0</asrwt>
<pdfrwt beam="1">0</pdfrwt>
<pdfrwt beam="2">  1        2 0.37903527E+00 0.64570730E+03</pdfrwt>
<totfact> 0.47675054E+00</totfact>
</mgrwt>
</event>
<event>
 5    1  0.2357694E-004  0.6346293E+03  0.7818608E-02  0.9836056E-01
         13   -1    0    0    0    0  0.00000000000E+00  0.00000000000E+00  0.10000000000E+04  0.10000000000E+04  0.00000000000E+00 0. -1.
          2   -1    0    0  501    0 -0.00000000000E+00 -0.00000000000E+00 -0.10068860175E+03  0.10068860175E+03  0.00000000000E+00 0. -1.
    9000006    2    1    2  501    0  0.00000000000E+00  0.00000000000E+00  0.89931139825E+03  0.11006886017E+04  0.63462934615E+03 0.  0.
         13    1    3    3    0    0 -0.21108161883E+03  0.79930057863E+02  0.62829264023E+02  0.23428994937E+03  0.00000000000E+00 0. -1.
          4    1    3    3  501    0  0.21108161883E+03 -0.79930057863E+02  0.83648213423E+03  0.86639865238E+03  0.00000000000E+00 0. -1.
<mgrwt>
<rscale>  0 0.63462935E+03</rscale>
<asrwt>0</asrwt>
<pdfrwt beam="1">0</pdfrwt>
<pdfrwt beam="2">  1        2 0.36614114E+00 0.63462935E+03</pdfrwt>
<totfact> 0.53207800E+00</totfact>
</mgrwt>
</event>
<event>
 5    1  0.2357694E-004  0.6608956E+03  0.7818608E-02  0.9786546E-01
         13   -1    0    0    0    0  0.00000000000E+00  0.00000000000E+00  0.10000000000E+04  0.10000000000E+04  0.00000000000E+00 0. -1.
          2   -1    0    0  501    0 -0.00000000000E+00 -0.00000000000E+00 -0.10919576254E+03  0.10919576254E+03  0.00000000000E+00 0. -1.
    9000006    2    1    2  501    0  0.00000000000E+00  0.00000000000E+00  0.89080423746E+03  0.11091957625E+04  0.66089564242E+03 0.  0.
         13    1    3    3    0    0  0.25707802955E+02  0.22546560330E+03  0.42254850780E+02  0.23082699543E+03  0.00000000000E+00 0. -1.
          2    1    3    3  501    0 -0.25707802955E+02 -0.22546560330E+03  0.84854938668E+03  0.87836876711E+03  0.00000000000E+00 0. -1.
<mgrwt>
<rscale>  0 0.66089564E+03</rscale>
<asrwt>0</asrwt>
<pdfrwt beam="1">0</pdfrwt>
<pdfrwt beam="2">  1        2 0.39707634E+00 0.66089564E+03</pdfrwt>
<totfact> 0.40810706E+00</totfact>
</mgrwt>
</event>
<event>
 5    1  0.2357694E-004  0.6428735E+03  0.7818608E-02  0.9820244E-01
         13   -1    0    0    0    0  0.00000000000E+00  0.00000000000E+00  0.10000000000E+04  0.10000000000E+04  0.00000000000E+00 0. -1.
          2   -1    0    0  501    0 -0.00000000000E+00 -0.00000000000E+00 -0.10332158434E+03  0.10332158434E+03  0.00000000000E+00 0. -1.
    9000006    2    1    2  501    0  0.00000000000E+00  0.00000000000E+00  0.89667841566E+03  0.11033215843E+04  0.64287350028E+03 0.  0.
         13    1    3    3    0    0  0.15133620500E+03 -0.23338641726E+03  0.17187245701E+03  0.32697401760E+03  0.00000000000E+00 0. -1.
          4    1    3    3  501    0 -0.15133620500E+03  0.23338641726E+03  0.72480595864E+03  0.77634756674E+03  0.00000000000E+00 0. -1.
<mgrwt>
<rscale>  0 0.64287350E+03</rscale>
<asrwt>0</asrwt>
<pdfrwt beam="1">0</pdfrwt>
<pdfrwt beam="2">  1        2 0.37571564E+00 0.64287350E+03</pdfrwt>
<totfact> 0.49046694E+00</totfact>
</mgrwt>
</event>
<event>
 5    1  0.2357694E-004  0.6601133E+03  0.7818608E-02  0.9787985E-01
         13   -1    0    0    0    0  0.00000000000E+00  0.00000000000E+00  0.10000000000E+04  0.10000000000E+04  0.00000000000E+00 0. -1.
          2   -1    0    0  501    0 -0.00000000000E+00 -0.00000000000E+00 -0.10893739816E+03  0.10893739816E+03  0.00000000000E+00 0. -1.
    9000006    2    1    2  501    0  0.00000000000E+00  0.00000000000E+00  0.89106260184E+03  0.11089373982E+04  0.66011331802E+03 0.  0.
         13    1    3    3    0    0  0.21691056117E+02  0.29519097082E+03  0.69087543897E+03  0.75160966155E+03  0.00000000000E+00 0. -1.
          2    1    3    3  501    0 -0.21691056117E+02 -0.29519097082E+03  0.20018716287E+03  0.35732773660E+03  0.00000000000E+00 0. -1.
<mgrwt>
<rscale>  0 0.66011332E+03</rscale>
<asrwt>0</asrwt>
<pdfrwt beam="1">0</pdfrwt>
<pdfrwt beam="2">  1        2 0.39613683E+00 0.66011332E+03</pdfrwt>
<totfact> 0.41144807E+00</totfact>
</mgrwt>
</event>
<event>
 5    1  0.2357694E-004  0.6439690E+03  0.7818608E-02  0.9818162E-01
         13   -1    0    0    0    0  0.00000000000E+00  0.00000000000E+00  0.10000000000E+04  0.10000000000E+04  0.00000000000E+00 0. -1.
          2   -1    0    0  501    0 -0.00000000000E+00 -0.00000000000E+00 -0.10367401059E+03  0.10367401059E+03  0.00000000000E+00 0. -1.
    9000006    2    1    2  501    0  0.00000000000E+00  0.00000000000E+00  0.89632598941E+03  0.11036740106E+04  0.64396897623E+03 0.  0.
         13    1    3    3    0    0 -0.18001690194E+03  0.65372782319E+02  0.45595824092E+01  0.19157368150E+03  0.00000000000E+00 0. -1.
          2    1    3    3  501    0  0.18001690194E+03 -0.65372782319E+02  0.89176640701E+03  0.91210032908E+03  0.00000000000E+00 0. -1.
<mgrwt>
<rscale>  0 0.64396898E+03</rscale>
<asrwt>0</asrwt>
<pdfrwt beam="1">0</pdfrwt>
<pdfrwt beam="2">  1        2 0.37699720E+00 0.64396898E+03</pdfrwt>
<totfact> 0.48512959E+00</totfact>
</mgrwt>
</event>
<event>
 5    1  0.2357694E-004  0.6385411E+03  0.7818608E-02  0.9828522E-01
         13   -1    0    0    0    0  0.00000000000E+00  0.00000000000E+00  0.10000000000E+04  0.10000000000E+04  0.00000000000E+00 0. -1.
          2   -1    0    0  501    0 -0.00000000000E+00 -0.00000000000E+00 -0.10193366933E+03  0.10193366933E+03  0.00000000000E+00 0. -1.
    9000006    2    1    2  501    0  0.00000000000E+00  0.00000000000E+00  0.89806633067E+03  0.11019336693E+04  0.63854105373E+03 0.  0.
         13    1    3    3    0    0 -0.17610105883E+03 -0.42297844199E+02 -0.47091297634E+01  0.18117082119E+03  0.00000000000E+00 0. -1.
          2    1    3    3  501    0  0.17610105883E+03  0.42297844199E+02  0.90277546044E+03  0.92076284814E+03  0.00000000000E+00 0. -1.
<mgrwt>
<rscale>  0 0.63854105E+03</rscale>
<asrwt>0</asrwt>
<pdfrwt beam="1">0</pdfrwt>
<pdfrwt beam="2">  1        2 0.37066867E+00 0.63854105E+03</pdfrwt>
<totfact> 0.51201414E+00</totfact>
</mgrwt>
</event>
<event>
 5    1  0.2357694E-004  0.6463840E+03  0.7818608E-02  0.9813588E-01
         13   -1    0    0    0    0  0.00000000000E+00  0.00000000000E+00  0.10000000000E+04  0.10000000000E+04  0.00000000000E+00 0. -1.
          2   -1    0    0  501    0 -0.00000000000E+00 -0.00000000000E+00 -0.10445306550E+03  0.10445306550E+03  0.00000000000E+00 0. -1.
    9000006    2    1    2  501    0  0.00000000000E+00  0.00000000000E+00  0.89554693450E+03  0.11044530655E+04  0.64638398960E+03 0.  0.
         13    1    3    3    0    0 -0.19750116610E+03  0.24640887817E+03  0.56527464874E+03  0.64750248985E+03  0.00000000000E+00 0. -1.
          4    1    3    3  501    0  0.19750116610E+03 -0.24640887817E+03  0.33027228575E+03  0.45695057565E+03  0.00000000000E+00 0. -1.
<mgrwt>
<rscale>  0 0.64638399E+03</rscale>
<asrwt>0</asrwt>
<pdfrwt beam="1">0</pdfrwt>
<pdfrwt beam="2">  1        2 0.37983013E+00 0.64638399E+03</pdfrwt>
<totfact> 0.47351854E+00</totfact>
</mgrwt>
</event>
<event>
 5    1  0.2357694E-004  0.6482671E+03  0.7818608E-02  0.9810036E-01
         13   -1    0    0    0    0  0.00000000000E+00  0.00000000000E+00  0.10000000000E+04  0.10000000000E+04  0.00000000000E+00 0. -1.
          2   -1    0    0  501    0 -0.00000000000E+00 -0.00000000000E+00 -0.10506257265E+03  0.10506257265E+03  0.00000000000E+00 0. -1.
    9000006    2    1    2  501    0  0.00000000000E+00  0.00000000000E+00  0.89493742735E+03  0.11050625727E+04  0.64826714447E+03 0.  0.
         13    1    3    3    0    0  0.14004471012E+03 -0.11434343876E+03  0.90606341961E+03  0.92392524761E+03  0.00000000000E+00 0. -1.
          4    1    3    3  501    0 -0.14004471012E+03  0.11434343876E+03 -0.11125992257E+02  0.18113732504E+03  0.00000000000E+00 0. -1.
<mgrwt>
<rscale>  0 0.64826714E+03</rscale>
<asrwt>0</asrwt>
<pdfrwt beam="1">0</pdfrwt>
<pdfrwt beam="2">  1        2 0.38204652E+00 0.64826714E+03</pdfrwt>
<totfact> 0.46461146E+00</totfact>
</mgrwt>
</event>
<event>
 5    1  0.2357694E-004  0.6544774E+03  0.7818608E-02  0.9798414E-01
         13   -1    0    0    0    0  0.00000000000E+00  0.00000000000E+00  0.10000000000E+04  0.10000000000E+04  0.00000000000E+00 0. -1.
          2   -1    0    0  501    0 -0.00000000000E+00 -0.00000000000E+00 -0.10708516956E+03  0.10708516956E+03  0.00000000000E+00 0. -1.
    9000006    2    1    2  501    0  0.00000000000E+00  0.00000000000E+00  0.89291483044E+03  0.11070851696E+04  0.65447740850E+03 0.  0.
         13    1    3    3    0    0  0.29687373771E+02  0.32294166329E+03  0.52043299916E+03  0.61320727708E+03  0.00000000000E+00 0. -1.
          4    1    3    3  501    0 -0.29687373771E+02 -0.32294166329E+03  0.37248183128E+03  0.49387789248E+03  0.00000000000E+00 0. -1.
<mgrwt>
<rscale>  0 0.65447741E+03</rscale>
<asrwt>0</asrwt>
<pdfrwt beam="1">0</pdfrwt>
<pdfrwt beam="2">  1        2 0.38940144E+00 0.65447741E+03</pdfrwt>
<totfact> 0.43613255E+00</totfact>
</mgrwt>
</event>
<event>
 5    1  0.2357694E-004  0.6564199E+03  0.7818608E-02  0.9794807E-01
         13   -1    0    0    0    0  0.00000000000E+00  0.00000000000E+00  0.10000000000E+04  0.10000000000E+04  0.00000000000E+00 0. -1.
          2   -1    0    0  501    0 -0.00000000000E+00 -0.00000000000E+00 -0.10772177913E+03  0.10772177913E+03  0.00000000000E+00 0. -1.
    9000006    2    1    2  501    0  0.00000000000E+00  0.00000000000E+00  0.89227822087E+03  0.11077217791E+04  0.65641992393E+03 0.  0.
         13    1    3    3    0    0  0.11579093907E+03  0.29120997860E+03  0.61071329412E+03  0.68642663178E+03  0.00000000000E+00 0. -1.
          2    1    3    3  501    0 -0.11579093907E+03 -0.29120997860E+03  0.28156492675E+03  0.42129514735E+03  0.00000000000E+00 0. -1.
<mgrwt>
<rscale>  0 0.65641992E+03</rscale>
<asrwt>0</asrwt>
<pdfrwt beam="1">0</pdfrwt>
<pdfrwt beam="2">  1        2 0.39171639E+00 0.65641992E+03</pdfrwt>
<totfact> 0.42750154E+00</totfact>
</mgrwt>
</event>
<event>
 5    1  0.2357694E-004  0.6570761E+03  0.7818608E-02  0.9793591E-01
         13   -1    0    0    0    0  0.00000000000E+00  0.00000000000E+00  0.10000000000E+04  0.10000000000E+04  0.00000000000E+00 0. -1.
          2   -1    0    0  501    0 -0.00000000000E+00 -0.00000000000E+00 -0.10793726193E+03  0.10793726193E+03  0.00000000000E+00 0. -1.
    9000006    2    1    2  501    0  0.00000000000E+00  0.00000000000E+00  0.89206273807E+03  0.11079372619E+04  0.65707613539E+03 0.  0.
         13    1    3    3    0    0 -0.22099190508E+03  0.15350159185E+03  0.12816800631E+03  0.29803892137E+03  0.00000000000E+00 0. -1.
          4    1    3    3  501    0  0.22099190508E+03 -0.15350159185E+03  0.76389473177E+03  0.80989834055E+03  0.00000000000E+00 0. -1.
<mgrwt>
<rscale>  0 0.65707614E+03</rscale>
<asrwt>0</asrwt>
<pdfrwt beam="1">0</pdfrwt>
<pdfrwt beam="2">  1        2 0.39249996E+00 0.65707614E+03</pdfrwt>
<totfact> 0.42461521E+00</totfact>
</mgrwt>
</event>
<event>
 5    1  0.2357694E-004  0.6631332E+03  0.7818608E-02  0.9782443E-01
         13   -1    0    0    0    0  0.00000000000E+00  0.00000000000E+00  0.10000000000E+04  0.10000000000E+04  0.00000000000E+00 0. -1.
          2   -1    0    0  501    0 -0.00000000000E+00 -0.00000000000E+00 -0.10993641994E+03  0.10993641994E+03  0.00000000000E+00 0. -1.
    9000006    2    1    2  501    0  0.00000000000E+00  0.00000000000E+00  0.89006358006E+03  0.11099364199E+04  0.66313322928E+03 0.  0.
         13    1    3    3    0    0  0.28302437756E+03  0.66689723155E+02  0.17834879391E+03  0.34111377832E+03  0.00000000000E+00 0. -1.
          4    1    3    3  501    0 -0.28302437756E+03 -0.66689723155E+02  0.71171478614E+03  0.76882264163E+03  0.00000000000E+00 0. -1.
<mgrwt>
<rscale>  0 0.66313323E+03</rscale>
<asrwt>0</asrwt>
<pdfrwt beam="1">0</pdfrwt>
<pdfrwt beam="2">  1        2 0.39976964E+00 0.66313323E+03</pdfrwt>
<totfact> 0.39866414E+00</totfact>
</mgrwt>
</event>
<event>
 5    1  0.2357694E-004  0.6480924E+03  0.7818608E-02  0.9810365E-01
         13   -1    0    0    0    0  0.00000000000E+00  0.00000000000E+00  0.10000000000E+04  0.10000000000E+04  0.00000000000E+00 0. -1.
          2   -1    0    0  501    0 -0.00000000000E+00 -0.00000000000E+00 -0.10500595346E+03  0.10500595346E+03  0.00000000000E+00 0. -1.
    9000006    2    1    2  501    0  0.00000000000E+00  0.00000000000E+00  0.89499404654E+03  0.11050059535E+04  0.64809244235E+03 0.  0.
         13    1    3    3    0    0  0.52375187669E+02  0.24305218326E+03  0.93164215095E+02  0.26551289055E+03  0.00000000000E+00 0. -1.
          4    1    3    3  501    0 -0.52375187669E+02 -0.24305218326E+03  0.80182983145E+03  0.83949306291E+03  0.00000000000E+00 0. -1.
<mgrwt>
<rscale>  0 0.64809244E+03</rscale>
<asrwt>0</asrwt>
<pdfrwt beam="1">0</pdfrwt>
<pdfrwt beam="2">  1        2 0.38184064E+00 0.64809244E+03</pdfrwt>
<totfact> 0.46543240E+00</totfact>
</mgrwt>
</event>
<event>
 5    1  0.2357694E-004  0.6659925E+03  0.7818608E-02  0.9777225E-01
         13   -1    0    0    0    0  0.00000000000E+00  0.00000000000E+00  0.10000000000E+04  0.10000000000E+04  0.00000000000E+00 0. -1.
          2   -1    0    0  501    0 -0.00000000000E+00 -0.00000000000E+00 -0.11088648835E+03  0.11088648835E+03  0.00000000000E+00 0. -1.
    9000006    2    1    2  501    0  0.00000000000E+00  0.00000000000E+00  0.88911351165E+03  0.11108864884E+04  0.66599245748E+03 0.  0.
         13    1    3    3    0    0 -0.12052901161E+03  0.60131728325E+02 -0.63417765184E+02  0.14887874372E+03  0.00000000000E+00 0. -1.
          2    1    3    3  501    0  0.12052901161E+03 -0.60131728325E+02  0.95253127683E+03  0.96200774463E+03  0.00000000000E+00 0. -1.
<mgrwt>
<rscale>  0 0.66599246E+03</rscale>
<asrwt>0</asrwt>
<pdfrwt beam="1">0</pdfrwt>
<pdfrwt beam="2">  1        2 0.40322444E+00 0.66599246E+03</pdfrwt>
<totfact> 0.38683875E+00</totfact>
</mgrwt>
</event>
<event>
 5    1  0.2357694E-004  0.6452324E+03  0.7818608E-02  0.9815767E-01
         13   -1    0    0    0    0  0.00000000000E+00  0.00000000000E+00  0.10000000000E+04  0.10000000000E+04  0.00000000000E+00 0. -1.
          2   -1    0    0  501    0 -0.00000000000E+00 -0.00000000000E+00 -0.10408119684E+03  0.10408119684E+03  0.00000000000E+00 0. -1.
    9000006    2    1    2  501    0  0.00000000000E+00  0.00000000000E+00  0.89591880316E+03  0.11040811968E+04  0.64523235146E+03 0.  0.
         13    1    3    3    0    0 -0.92690779621E+02  0.30698848703E+03  0.50840119808E+03  0.60108675747E+03  0.00000000000E+00 0. -1.
          2    1    3    3  501    0  0.92690779621E+02 -0.30698848703E+03  0.38751760508E+03  0.50299443937E+03  0.00000000000E+00 0. -1.
<mgrwt>
<rscale>  0 0.64523235E+03</rscale>
<asrwt>0</asrwt>
<pdfrwt beam="1">0</pdfrwt>
<pdfrwt beam="2">  1        2 0.37847788E+00 0.64523235E+03</pdfrwt>
<totfact> 0.47902891E+00</totfact>
</mgrwt>
</event>
<event>
 5    1  0.2357694E-004  0.6499925E+03  0.7818608E-02  0.9806793E-01
         13   -1    0    0    0    0  0.00000000000E+00  0.00000000000E+00  0.10000000000E+04  0.10000000000E+04  0.00000000000E+00 0. -1.
          2   -1    0    0  501    0 -0.00000000000E+00 -0.00000000000E+00 -0.10562257648E+03  0.10562257648E+03  0.00000000000E+00 0. -1.
    9000006    2    1    2  501    0  0.00000000000E+00  0.00000000000E+00  0.89437742352E+03  0.11056225765E+04  0.64999254296E+03 0.  0.
         13    1    3    3    0    0 -0.25262292284E+03 -0.16973260056E+03  0.64109326032E+03  0.70966757377E+03  0.00000000000E+00 0. -1.
          4    1    3    3  501    0  0.25262292284E+03  0.16973260056E+03  0.25328416321E+03  0.39595500271E+03  0.00000000000E+00 0. -1.
<mgrwt>
<rscale>  0 0.64999254E+03</rscale>
<asrwt>0</asrwt>
<pdfrwt beam="1">0</pdfrwt>
<pdfrwt beam="2">  1        2 0.38408291E+00 0.64999254E+03</pdfrwt>
<totfact> 0.45656228E+00</totfact>
</mgrwt>
</event>
<event>
 5    1  0.2357694E-004  0.6062180E+03  0.7818608E-02  0.9892589E-01
         13   -1    0    0    0    0  0.00000000000E+00  0.00000000000E+00  0.10000000000E+04  0.10000000000E+04  0.00000000000E+00 0. -1.
          2   -1    0    0  501    0 -0.00000000000E+00 -0.00000000000E+00 -0.91875069981E+02  0.91875069981E+02  0.00000000000E+00 0. -1.
    9000006    2    1    2  501    0  0.00000000000E+00  0.00000000000E+00  0.90812493002E+03  0.10918750700E+04  0.60621801353E+03 0.  0.
         13    1    3    3    0    0  0.10618075921E+03  0.76185324027E+02  0.94665155435E+03  0.95562949022E+03  0.00000000000E+00 0. -1.
          2    1    3    3  501    0 -0.10618075921E+03 -0.76185324027E+02 -0.38526624330E+02  0.13624557976E+03  0.00000000000E+00 0. -1.
<mgrwt>
<rscale>  0 0.60621801E+03</rscale>
<asrwt>0</asrwt>
<pdfrwt beam="1">0</pdfrwt>
<pdfrwt beam="2">  1        2 0.33409187E+00 0.60621801E+03</pdfrwt>
<totfact> 0.69633287E+00</totfact>
</mgrwt>
</event>
<event>
 5    1  0.2357694E-004  0.5080063E+03  0.7818608E-02  0.1011710E+00
         13   -1    0    0    0    0  0.00000000000E+00  0.00000000000E+00  0.10000000000E+04  0.10000000000E+04  0.00000000000E+00 0. -1.
          2   -1    0    0  501    0 -0.00000000000E+00 -0.00000000000E+00 -0.64517612276E+02  0.64517612276E+02  0.00000000000E+00 0. -1.
    9000006    2    1    2  501    0  0.00000000000E+00  0.00000000000E+00  0.93548238772E+03  0.10645176123E+04  0.50800634751E+03 0.  0.
         13    1    3    3    0    0 -0.14747286333E+02 -0.21326336350E+03  0.18027918520E+03  0.27964142984E+03  0.00000000000E+00 0. -1.
          2    1    3    3  501    0  0.14747286333E+02  0.21326336350E+03  0.75520320252E+03  0.78487618244E+03  0.00000000000E+00 0. -1.
<mgrwt>
<rscale>  0 0.50800635E+03</rscale>
<asrwt>0</asrwt>
<pdfrwt beam="1">0</pdfrwt>
<pdfrwt beam="2">  1        2 0.23460999E+00 0.50800635E+03</pdfrwt>
<totfact> 0.15841875E+01</totfact>
</mgrwt>
</event>
<event>
 5    1  0.2357694E-004  0.6458180E+03  0.7818608E-02  0.9814658E-01
         13   -1    0    0    0    0  0.00000000000E+00  0.00000000000E+00  0.10000000000E+04  0.10000000000E+04  0.00000000000E+00 0. -1.
          2   -1    0    0  501    0 -0.00000000000E+00 -0.00000000000E+00 -0.10427022549E+03  0.10427022549E+03  0.00000000000E+00 0. -1.
    9000006    2    1    2  501    0  0.00000000000E+00  0.00000000000E+00  0.89572977451E+03  0.11042702255E+04  0.64581800995E+03 0.  0.
         13    1    3    3    0    0  0.57828903789E+02 -0.18167937063E+03  0.22499586152E+01  0.19067416747E+03  0.00000000000E+00 0. -1.
          4    1    3    3  501    0 -0.57828903789E+02  0.18167937063E+03  0.89347981589E+03  0.91359605802E+03  0.00000000000E+00 0. -1.
<mgrwt>
<rscale>  0 0.64581801E+03</rscale>
<asrwt>0</asrwt>
<pdfrwt beam="1">0</pdfrwt>
<pdfrwt beam="2">  1        2 0.37916526E+00 0.64581801E+03</pdfrwt>
<totfact> 0.47622062E+00</totfact>
</mgrwt>
</event>
<event>
 5    1  0.2357694E-004  0.6499027E+03  0.7818608E-02  0.9806962E-01
         13   -1    0    0    0    0  0.00000000000E+00  0.00000000000E+00  0.10000000000E+04  0.10000000000E+04  0.00000000000E+00 0. -1.
          2   -1    0    0  501    0 -0.00000000000E+00 -0.00000000000E+00 -0.10559339465E+03  0.10559339465E+03  0.00000000000E+00 0. -1.
    9000006    2    1    2  501    0  0.00000000000E+00  0.00000000000E+00  0.89440660535E+03  0.11055933946E+04  0.64990274548E+03 0.  0.
         13    1    3    3    0    0 -0.17236029207E+03  0.96614717373E+02  0.88606138187E+03  0.90782555942E+03  0.00000000000E+00 0. -1.
          4    1    3    3  501    0  0.17236029207E+03 -0.96614717373E+02  0.83452234848E+01  0.19776783523E+03  0.00000000000E+00 0. -1.
<mgrwt>
<rscale>  0 0.64990275E+03</rscale>
<asrwt>0</asrwt>
<pdfrwt beam="1">0</pdfrwt>
<pdfrwt beam="2">  1        2 0.38397679E+00 0.64990275E+03</pdfrwt>
<totfact> 0.45697858E+00</totfact>
</mgrwt>
</event>
<event>
 5    1  0.2357694E-004  0.6519308E+03  0.7818608E-02  0.9803163E-01
         13   -1    0    0    0    0  0.00000000000E+00  0.00000000000E+00  0.10000000000E+04  0.10000000000E+04  0.00000000000E+00 0. -1.
          2   -1    0    0  501    0 -0.00000000000E+00 -0.00000000000E+00 -0.10625343401E+03  0.10625343401E+03  0.00000000000E+00 0. -1.
    9000006    2    1    2  501    0  0.00000000000E+00  0.00000000000E+00  0.89374656599E+03  0.11062534340E+04  0.65193077549E+03 0.  0.
         13    1    3    3    0    0  0.10502531869E+03 -0.23889331160E+03  0.77832332330E+03  0.82090652786E+03  0.00000000000E+00 0. -1.
          2    1    3    3  501    0 -0.10502531869E+03  0.23889331160E+03  0.11542324270E+03  0.28534690615E+03  0.00000000000E+00 0. -1.
<mgrwt>
<rscale>  0 0.65193078E+03</rscale>
<asrwt>0</asrwt>
<pdfrwt beam="1">0</pdfrwt>
<pdfrwt beam="2">  1        2 0.38637694E+00 0.65193078E+03</pdfrwt>
<totfact> 0.44764639E+00</totfact>
</mgrwt>
</event>
<event>
 5    1  0.2357694E-004  0.6159732E+03  0.7818608E-02  0.9872810E-01
         13   -1    0    0    0    0  0.00000000000E+00  0.00000000000E+00  0.10000000000E+04  0.10000000000E+04  0.00000000000E+00 0. -1.
          2   -1    0    0  501    0 -0.00000000000E+00 -0.00000000000E+00 -0.94855738621E+02  0.94855738621E+02  0.00000000000E+00 0. -1.
    9000006    2    1    2  501    0  0.00000000000E+00  0.00000000000E+00  0.90514426138E+03  0.10948557386E+04  0.61597317676E+03 0.  0.
         13    1    3    3    0    0  0.18024294988E+03  0.23622838560E+03  0.59658176275E+03  0.66648418645E+03  0.00000000000E+00 0. -1.
          4    1    3    3  501    0 -0.18024294988E+03 -0.23622838560E+03  0.30856249863E+03  0.42837155217E+03  0.00000000000E+00 0. -1.
<mgrwt>
<rscale>  0 0.61597318E+03</rscale>
<asrwt>0</asrwt>
<pdfrwt beam="1">0</pdfrwt>
<pdfrwt beam="2">  1        2 0.34493069E+00 0.61597318E+03</pdfrwt>
<totfact> 0.63611548E+00</totfact>
</mgrwt>
</event>
<event>
 5    1  0.2357694E-004  0.6397429E+03  0.7818608E-02  0.9826219E-01
         13   -1    0    0    0    0  0.00000000000E+00  0.00000000000E+00  0.10000000000E+04  0.10000000000E+04  0.00000000000E+00 0. -1.
          2   -1    0    0  501    0 -0.00000000000E+00 -0.00000000000E+00 -0.10231775000E+03  0.10231775000E+03  0.00000000000E+00 0. -1.
    9000006    2    1    2  501    0  0.00000000000E+00  0.00000000000E+00  0.89768225000E+03  0.11023177500E+04  0.63974291712E+03 0.  0.
         13    1    3    3    0    0 -0.13465602218E+03  0.23468615980E+03  0.15486853298E+03  0.31175968376E+03  0.00000000000E+00 0. -1.
          2    1    3    3  501    0  0.13465602218E+03 -0.23468615980E+03  0.74281371702E+03  0.79055806624E+03  0.00000000000E+00 0. -1.
<mgrwt>
<rscale>  0 0.63974292E+03</rscale>
<asrwt>0</asrwt>
<pdfrwt beam="1">0</pdfrwt>
<pdfrwt beam="2">  1        2 0.37206533E+00 0.63974292E+03</pdfrwt>
<totfact> 0.50596628E+00</totfact>
</mgrwt>
</event>
<event>
 5    1  0.2357694E-004  0.6430762E+03  0.7818608E-02  0.9819859E-01
         13   -1    0    0    0    0  0.00000000000E+00  0.00000000000E+00  0.10000000000E+04  0.10000000000E+04  0.00000000000E+00 0. -1.
          2   -1    0    0  501    0 -0.00000000000E+00 -0.00000000000E+00 -0.10338675950E+03  0.10338675950E+03  0.00000000000E+00 0. -1.
    9000006    2    1    2  501    0  0.00000000000E+00  0.00000000000E+00  0.89661324050E+03  0.11033867595E+04  0.64307623033E+03 0.  0.
         13    1    3    3    0    0  0.32119231324E+03 -0.14898532078E+02  0.44923245774E+03  0.55244571627E+03  0.00000000000E+00 0. -1.
          4    1    3    3  501    0 -0.32119231324E+03  0.14898532078E+02  0.44738078276E+03  0.55094104323E+03  0.00000000000E+00 0. -1.
<mgrwt>
<rscale>  0 0.64307623E+03</rscale>
<asrwt>0</asrwt>
<pdfrwt beam="1">0</pdfrwt>
<pdfrwt beam="2">  1        2 0.37595265E+00 0.64307623E+03</pdfrwt>
<totfact> 0.48947587E+00</totfact>
</mgrwt>
</event>
<event>
 5    1  0.2357694E-004  0.6504283E+03  0.7818608E-02  0.9805976E-01
         13   -1    0    0    0    0  0.00000000000E+00  0.00000000000E+00  0.10000000000E+04  0.10000000000E+04  0.00000000000E+00 0. -1.
          2   -1    0    0  501    0 -0.00000000000E+00 -0.00000000000E+00 -0.10576424617E+03  0.10576424617E+03  0.00000000000E+00 0. -1.
    9000006    2    1    2  501    0  0.00000000000E+00  0.00000000000E+00  0.89423575383E+03  0.11057642462E+04  0.65042830865E+03 0.  0.
         13    1    3    3    0    0 -0.30994246414E+03 -0.79854380302E+02  0.54512122062E+03  0.63213780009E+03  0.00000000000E+00 0. -1.
          2    1    3    3  501    0  0.30994246414E+03  0.79854380302E+02  0.34911453321E+03  0.47362644608E+03  0.00000000000E+00 0. -1.
<mgrwt>
<rscale>  0 0.65042831E+03</rscale>
<asrwt>0</asrwt>
<pdfrwt beam="1">0</pdfrwt>
<pdfrwt beam="2">  1        2 0.38459807E+00 0.65042831E+03</pdfrwt>
<totfact> 0.45454617E+00</totfact>
</mgrwt>
</event>
<event>
 5    1  0.2357694E-004  0.6529009E+03  0.7818608E-02  0.9801351E-01
         13   -1    0    0    0    0  0.00000000000E+00  0.00000000000E+00  0.10000000000E+04  0.10000000000E+04  0.00000000000E+00 0. -1.
          2   -1    0    0  501    0 -0.00000000000E+00 -0.00000000000E+00 -0.10656990696E+03  0.10656990696E+03  0.00000000000E+00 0. -1.
    9000006    2    1    2  501    0  0.00000000000E+00  0.00000000000E+00  0.89343009304E+03  0.11065699070E+04  0.65290093263E+03 0.  0.
         13    1    3    3    0    0  0.14937942951E+03  0.28950275211E+03  0.41100836892E+03  0.52445584825E+03  0.00000000000E+00 0. -1.
          4    1    3    3  501    0 -0.14937942951E+03 -0.28950275211E+03  0.48242172412E+03  0.58211405871E+03  0.00000000000E+00 0. -1.
<mgrwt>
<rscale>  0 0.65290093E+03</rscale>
<asrwt>0</asrwt>
<pdfrwt beam="1">0</pdfrwt>
<pdfrwt beam="2">  1        2 0.38752775E+00 0.65290093E+03</pdfrwt>
<totfact> 0.44323338E+00</totfact>
</mgrwt>
</event>
<event>
 5    1  0.2357694E-004  0.6521216E+03  0.7818608E-02  0.9802806E-01
         13   -1    0    0    0    0  0.00000000000E+00  0.00000000000E+00  0.10000000000E+04  0.10000000000E+04  0.00000000000E+00 0. -1.
          2   -1    0    0  501    0 -0.00000000000E+00 -0.00000000000E+00 -0.10631563879E+03  0.10631563879E+03  0.00000000000E+00 0. -1.
    9000006    2    1    2  501    0  0.00000000000E+00  0.00000000000E+00  0.89368436121E+03  0.11063156388E+04  0.65212158004E+03 0.  0.
         13    1    3    3    0    0  0.15809030041E+03 -0.49001922346E+02 -0.29752582134E+02  0.16816345507E+03  0.00000000000E+00 0. -1.
          2    1    3    3  501    0 -0.15809030041E+03  0.49001922346E+02  0.92343694335E+03  0.93815218372E+03  0.00000000000E+00 0. -1.
<mgrwt>
<rscale>  0 0.65212158E+03</rscale>
<asrwt>0</asrwt>
<pdfrwt beam="1">0</pdfrwt>
<pdfrwt beam="2">  1        2 0.38660314E+00 0.65212158E+03</pdfrwt>
<totfact> 0.44677586E+00</totfact>
</mgrwt>
</event>
<event>
 5    1  0.2357694E-004  0.6569857E+03  0.7818608E-02  0.9793759E-01
         13   -1    0    0    0    0  0.00000000000E+00  0.00000000000E+00  0.10000000000E+04  0.10000000000E+04  0.00000000000E+00 0. -1.
          2   -1    0    0  501    0 -0.00000000000E+00 -0.00000000000E+00 -0.10790755470E+03  0.10790755470E+03  0.00000000000E+00 0. -1.
    9000006    2    1    2  501    0  0.00000000000E+00  0.00000000000E+00  0.89209244530E+03  0.11079075547E+04  0.65698570670E+03 0.  0.
         13    1    3    3    0    0 -0.28860544642E+03 -0.13690780240E+03  0.57525520861E+03  0.65799346889E+03  0.00000000000E+00 0. -1.
          4    1    3    3  501    0  0.28860544642E+03  0.13690780240E+03  0.31683723669E+03  0.44991408581E+03  0.00000000000E+00 0. -1.
<mgrwt>
<rscale>  0 0.65698571E+03</rscale>
<asrwt>0</asrwt>
<pdfrwt beam="1">0</pdfrwt>
<pdfrwt beam="2">  1        2 0.39239194E+00 0.65698571E+03</pdfrwt>
<totfact> 0.42501208E+00</totfact>
</mgrwt>
</event>
<event>
 5    1  0.2357694E-004  0.6455311E+03  0.7818608E-02  0.9815201E-01
         13   -1    0    0    0    0  0.00000000000E+00  0.00000000000E+00  0.10000000000E+04  0.10000000000E+04  0.00000000000E+00 0. -1.
          2   -1    0    0  501    0 -0.00000000000E+00 -0.00000000000E+00 -0.10417760130E+03  0.10417760130E+03  0.00000000000E+00 0. -1.
    9000006    2    1    2  501    0  0.00000000000E+00  0.00000000000E+00  0.89582239870E+03  0.11041776013E+04  0.64553110320E+03 0.  0.
         13    1    3    3    0    0 -0.25521636198E+03  0.15530148248E+03  0.23895299616E+03  0.38256042171E+03  0.00000000000E+00 0. -1.
          4    1    3    3  501    0  0.25521636198E+03 -0.15530148248E+03  0.65686940254E+03  0.72161717959E+03  0.00000000000E+00 0. -1.
<mgrwt>
<rscale>  0 0.64553110E+03</rscale>
<asrwt>0</asrwt>
<pdfrwt beam="1">0</pdfrwt>
<pdfrwt beam="2">  1        2 0.37882844E+00 0.64553110E+03</pdfrwt>
<totfact> 0.47759481E+00</totfact>
</mgrwt>
</event>
<event>
 5    1  0.2357694E-004  0.6774501E+03  0.7818608E-02  0.9756592E-01
         13   -1    0    0    0    0  0.00000000000E+00  0.00000000000E+00  0.10000000000E+04  0.10000000000E+04  0.00000000000E+00 0. -1.
          2   -1    0    0  501    0 -0.00000000000E+00 -0.00000000000E+00 -0.11473466131E+03  0.11473466131E+03  0.00000000000E+00 0. -1.
    9000006    2    1    2  501    0  0.00000000000E+00  0.00000000000E+00  0.88526533869E+03  0.11147346613E+04  0.67745010535E+03 0.  0.
         13    1    3    3    0    0  0.87452025112E+02  0.13128393176E+03 -0.50605247552E+02  0.16566296664E+03  0.00000000000E+00 0. -1.
          4    1    3    3  501    0 -0.87452025112E+02 -0.13128393176E+03  0.93587058624E+03  0.94907169467E+03  0.00000000000E+00 0. -1.
<mgrwt>
<rscale>  0 0.67745011E+03</rscale>
<asrwt>0</asrwt>
<pdfrwt beam="1">0</pdfrwt>
<pdfrwt beam="2">  1        2 0.41721783E+00 0.67745011E+03</pdfrwt>
<totfact> 0.34208417E+00</totfact>
</mgrwt>
</event>
<event>
 5    1  0.2357694E-004  0.6358885E+03  0.7818608E-02  0.9833625E-01
         13   -1    0    0    0    0  0.00000000000E+00  0.00000000000E+00  0.10000000000E+04  0.10000000000E+04  0.00000000000E+00 0. -1.
          2   -1    0    0  501    0 -0.00000000000E+00 -0.00000000000E+00 -0.10108855139E+03  0.10108855139E+03  0.00000000000E+00 0. -1.
    9000006    2    1    2  501    0  0.00000000000E+00  0.00000000000E+00  0.89891144861E+03  0.11010885514E+04  0.63588851660E+03 0.  0.
         13    1    3    3    0    0 -0.47395382808E+02  0.10101293733E+03 -0.66072855903E+02  0.12967481678E+03  0.00000000000E+00 0. -1.
          2    1    3    3  501    0  0.47395382808E+02 -0.10101293733E+03  0.96498430452E+03  0.97141373461E+03  0.00000000000E+00 0. -1.
<mgrwt>
<rscale>  0 0.63588852E+03</rscale>
<asrwt>0</asrwt>
<pdfrwt beam="1">0</pdfrwt>
<pdfrwt beam="2">  1        2 0.36759551E+00 0.63588852E+03</pdfrwt>
<totfact> 0.52555562E+00</totfact>
</mgrwt>
</event>
<event>
 5    1  0.2357694E-004  0.6536262E+03  0.7818608E-02  0.9799999E-01
         13   -1    0    0    0    0  0.00000000000E+00  0.00000000000E+00  0.10000000000E+04  0.10000000000E+04  0.00000000000E+00 0. -1.
          2   -1    0    0  501    0 -0.00000000000E+00 -0.00000000000E+00 -0.10680679164E+03  0.10680679164E+03  0.00000000000E+00 0. -1.
    9000006    2    1    2  501    0  0.00000000000E+00  0.00000000000E+00  0.89319320836E+03  0.11068067916E+04  0.65362616729E+03 0.  0.
         13    1    3    3    0    0 -0.22566795301E+03  0.17940551844E+03  0.18594194850E+03  0.34305505866E+03  0.00000000000E+00 0. -1.
          4    1    3    3  501    0  0.22566795301E+03 -0.17940551844E+03  0.70725125986E+03  0.76375173298E+03  0.00000000000E+00 0. -1.
<mgrwt>
<rscale>  0 0.65362617E+03</rscale>
<asrwt>0</asrwt>
<pdfrwt beam="1">0</pdfrwt>
<pdfrwt beam="2">  1        2 0.38838915E+00 0.65362617E+03</pdfrwt>
<totfact> 0.43995599E+00</totfact>
</mgrwt>
</event>
<event>
 5    1  0.2357694E-004  0.6485025E+03  0.7818608E-02  0.9809593E-01
         13   -1    0    0    0    0  0.00000000000E+00  0.00000000000E+00  0.10000000000E+04  0.10000000000E+04  0.00000000000E+00 0. -1.
          2   -1    0    0  501    0 -0.00000000000E+00 -0.00000000000E+00 -0.10513885984E+03  0.10513885984E+03  0.00000000000E+00 0. -1.
    9000006    2    1    2  501    0  0.00000000000E+00  0.00000000000E+00  0.89486114016E+03  0.11051388598E+04  0.64850245901E+03 0.  0.
         13    1    3    3    0    0  0.73827232390E+02 -0.26729766130E+03  0.16105211872E+03  0.32068097063E+03  0.00000000000E+00 0. -1.
          4    1    3    3  501    0 -0.73827232390E+02  0.26729766130E+03  0.73380902144E+03  0.78445788920E+03  0.00000000000E+00 0. -1.
<mgrwt>
<rscale>  0 0.64850246E+03</rscale>
<asrwt>0</asrwt>
<pdfrwt beam="1">0</pdfrwt>
<pdfrwt beam="2">  1        2 0.38232393E+00 0.64850246E+03</pdfrwt>
<totfact> 0.46350742E+00</totfact>
</mgrwt>
</event>
<event>
 5    1  0.2357694E-004  0.6398755E+03  0.7818608E-02  0.9825965E-01
         13   -1    0    0    0    0  0.00000000000E+00  0.00000000000E+00  0.10000000000E+04  0.10000000000E+04  0.00000000000E+00 0. -1.
          2   -1    0    0  501    0 -0.00000000000E+00 -0.00000000000E+00 -0.10236016852E+03  0.10236016852E+03  0.00000000000E+00 0. -1.
    9000006    2    1    2  501    0  0.00000000000E+00  0.00000000000E+00  0.89763983148E+03  0.11023601685E+04  0.63987551451E+03 0.  0.
         13    1    3    3    0    0  0.28635526118E+03  0.12292556602E+03  0.32399152101E+03  0.44953368736E+03  0.00000000000E+00 0. -1.
          4    1    3    3  501    0 -0.28635526118E+03 -0.12292556602E+03  0.57364831048E+03  0.65282648116E+03  0.00000000000E+00 0. -1.
<mgrwt>
<rscale>  0 0.63987551E+03</rscale>
<asrwt>0</asrwt>
<pdfrwt beam="1">0</pdfrwt>
<pdfrwt beam="2">  1        2 0.37221958E+00 0.63987551E+03</pdfrwt>
<totfact> 0.50530237E+00</totfact>
</mgrwt>
</event>
<event>
 5    1  0.2357694E-004  0.6481500E+03  0.7818608E-02  0.9810257E-01
         13   -1    0    0    0    0  0.00000000000E+00  0.00000000000E+00  0.10000000000E+04  0.10000000000E+04  0.00000000000E+00 0. -1.
          2   -1    0    0  501    0 -0.00000000000E+00 -0.00000000000E+00 -0.10502462141E+03  0.10502462141E+03  0.00000000000E+00 0. -1.
    9000006    2    1    2  501    0  0.00000000000E+00  0.00000000000E+00  0.89497537859E+03  0.11050246214E+04  0.64815004871E+03 0.  0.
         13    1    3    3    0    0 -0.22398279844E+03  0.22834676747E+03  0.53630708523E+03  0.62444842051E+03  0.00000000000E+00 0. -1.
          4    1    3    3  501    0  0.22398279844E+03 -0.22834676747E+03  0.35866829336E+03  0.48057620090E+03  0.00000000000E+00 0. -1.
<mgrwt>
<rscale>  0 0.64815005E+03</rscale>
<asrwt>0</asrwt>
<pdfrwt beam="1">0</pdfrwt>
<pdfrwt beam="2">  1        2 0.38190852E+00 0.64815005E+03</pdfrwt>
<totfact> 0.46516158E+00</totfact>
</mgrwt>
</event>
<event>
 5    1  0.2357694E-004  0.6470686E+03  0.7818608E-02  0.9812295E-01
         13   -1    0    0    0    0  0.00000000000E+00  0.00000000000E+00  0.10000000000E+04  0.10000000000E+04  0.00000000000E+00 0. -1.
          2   -1    0    0  501    0 -0.00000000000E+00 -0.00000000000E+00 -0.10467445878E+03  0.10467445878E+03  0.00000000000E+00 0. -1.
    9000006    2    1    2  501    0  0.00000000000E+00  0.00000000000E+00  0.89532554122E+03  0.11046744588E+04  0.64706864793E+03 0.  0.
         13    1    3    3    0    0  0.22612865681E+02 -0.72061184018E+02  0.98473958550E+03  0.98763161512E+03  0.00000000000E+00 0. -1.
          2    1    3    3  501    0 -0.22612865681E+02  0.72061184018E+02 -0.89414044287E+02  0.11704284366E+03  0.00000000000E+00 0. -1.
<mgrwt>
<rscale>  0 0.64706865E+03</rscale>
<asrwt>0</asrwt>
<pdfrwt beam="1">0</pdfrwt>
<pdfrwt beam="2">  1        2 0.38063520E+00 0.64706865E+03</pdfrwt>
<totfact> 0.47026539E+00</totfact>
</mgrwt>
</event>
<event>
 5    1  0.2357694E-004  0.6463978E+03  0.7818608E-02  0.9813562E-01
         13   -1    0    0    0    0  0.00000000000E+00  0.00000000000E+00  0.10000000000E+04  0.10000000000E+04  0.00000000000E+00 0. -1.
          2   -1    0    0  501    0 -0.00000000000E+00 -0.00000000000E+00 -0.10445753039E+03  0.10445753039E+03  0.00000000000E+00 0. -1.
    9000006    2    1    2  501    0  0.00000000000E+00  0.00000000000E+00  0.89554246961E+03  0.11044575304E+04  0.64639780443E+03 0.  0.
         13    1    3    3    0    0 -0.16165007624E+03 -0.27894226908E+03  0.48665885923E+03  0.58376055185E+03  0.00000000000E+00 0. -1.
          2    1    3    3  501    0  0.16165007624E+03  0.27894226908E+03  0.40888361038E+03  0.52069697854E+03  0.00000000000E+00 0. -1.
<mgrwt>
<rscale>  0 0.64639780E+03</rscale>
<asrwt>0</asrwt>
<pdfrwt beam="1">0</pdfrwt>
<pdfrwt beam="2">  1        2 0.37984637E+00 0.64639780E+03</pdfrwt>
<totfact> 0.47345273E+00</totfact>
</mgrwt>
</event>
<event>
 5    1  0.2357694E-004  0.6520113E+03  0.7818608E-02  0.9803012E-01
         13   -1    0    0    0    0  0.00000000000E+00  0.00000000000E+00  0.10000000000E+04  0.10000000000E+04  0.00000000000E+00 0. -1.
          2   -1    0    0  501    0 -0.00000000000E+00 -0.00000000000E+00 -0.10627969921E+03  0.10627969921E+03  0.00000000000E+00 0. -1.
    9000006    2    1    2  501    0  0.00000000000E+00  0.00000000000E+00  0.89372030079E+03  0.11062796992E+04  0.65201134716E+03 0.  0.
         13    1    3    3    0    0 -0.10675081108E+03  0.23388821208E+03  0.78696764522E+03  0.82789945406E+03  0.00000000000E+00 0. -1.
          2    1    3    3  501    0  0.10675081108E+03 -0.23388821208E+03  0.10675265558E+03  0.27838024515E+03  0.00000000000E+00 0. -1.
<mgrwt>
<rscale>  0 0.65201135E+03</rscale>
<asrwt>0</asrwt>
<pdfrwt beam="1">0</pdfrwt>
<pdfrwt beam="2">  1        2 0.38647245E+00 0.65201135E+03</pdfrwt>
<totfact> 0.44727863E+00</totfact>
</mgrwt>
</event>
<event>
 5    1  0.2357694E-004  0.6452125E+03  0.7818608E-02  0.9815804E-01
         13   -1    0    0    0    0  0.00000000000E+00  0.00000000000E+00  0.10000000000E+04  0.10000000000E+04  0.00000000000E+00 0. -1.
          2   -1    0    0  501    0 -0.00000000000E+00 -0.00000000000E+00 -0.10407479120E+03  0.10407479120E+03  0.00000000000E+00 0. -1.
    9000006    2    1    2  501    0  0.00000000000E+00  0.00000000000E+00  0.89592520880E+03  0.11040747912E+04  0.64521249584E+03 0.  0.
         13    1    3    3    0    0  0.30709710483E+03  0.81553688042E+02  0.35245552152E+03  0.47453612136E+03  0.00000000000E+00 0. -1.
          2    1    3    3  501    0 -0.30709710483E+03 -0.81553688042E+02  0.54346968728E+03  0.62953866984E+03  0.00000000000E+00 0. -1.
<mgrwt>
<rscale>  0 0.64521250E+03</rscale>
<asrwt>0</asrwt>
<pdfrwt beam="1">0</pdfrwt>
<pdfrwt beam="2">  1        2 0.37845458E+00 0.64521250E+03</pdfrwt>
<totfact> 0.47912434E+00</totfact>
</mgrwt>
</event>
<event>
 5    1  0.2357694E-004  0.6453598E+03  0.7818608E-02  0.9815525E-01
         13   -1    0    0    0    0  0.00000000000E+00  0.00000000000E+00  0.10000000000E+04  0.10000000000E+04  0.00000000000E+00 0. -1.
          2   -1    0    0  501    0 -0.00000000000E+00 -0.00000000000E+00 -0.10412231931E+03  0.10412231931E+03  0.00000000000E+00 0. -1.
    9000006    2    1    2  501    0  0.00000000000E+00  0.00000000000E+00  0.89587768069E+03  0.11041223193E+04  0.64535980448E+03 0.  0.
         13    1    3    3    0    0 -0.10895702923E+03  0.26618953474E+03  0.69818038478E+03  0.75510552396E+03  0.00000000000E+00 0. -1.
          4    1    3    3  501    0  0.10895702923E+03 -0.26618953474E+03  0.19769729591E+03  0.34901679535E+03  0.00000000000E+00 0. -1.
<mgrwt>
<rscale>  0 0.64535980E+03</rscale>
<asrwt>0</asrwt>
<pdfrwt beam="1">0</pdfrwt>
<pdfrwt beam="2">  1        2 0.37862741E+00 0.64535980E+03</pdfrwt>
<totfact> 0.47841670E+00</totfact>
</mgrwt>
</event>
<event>
 5    1  0.2357694E-004  0.6451310E+03  0.7818608E-02  0.9815959E-01
         13   -1    0    0    0    0  0.00000000000E+00  0.00000000000E+00  0.10000000000E+04  0.10000000000E+04  0.00000000000E+00 0. -1.
          2   -1    0    0  501    0 -0.00000000000E+00 -0.00000000000E+00 -0.10404851711E+03  0.10404851711E+03  0.00000000000E+00 0. -1.
    9000006    2    1    2  501    0  0.00000000000E+00  0.00000000000E+00  0.89595148289E+03  0.11040485171E+04  0.64513104748E+03 0.  0.
         13    1    3    3    0    0 -0.10562110117E+03  0.10272076122E+03  0.93905169351E+03  0.95053955987E+03  0.00000000000E+00 0. -1.
          4    1    3    3  501    0  0.10562110117E+03 -0.10272076122E+03 -0.43100210613E+02  0.15350895724E+03  0.00000000000E+00 0. -1.
<mgrwt>
<rscale>  0 0.64513105E+03</rscale>
<asrwt>0</asrwt>
<pdfrwt beam="1">0</pdfrwt>
<pdfrwt beam="2">  1        2 0.37835904E+00 0.64513105E+03</pdfrwt>
<totfact> 0.47951594E+00</totfact>
</mgrwt>
</event>
<event>
 5    1  0.2357694E-004  0.6495935E+03  0.7818608E-02  0.9807542E-01
         13   -1    0    0    0    0  0.00000000000E+00  0.00000000000E+00  0.10000000000E+04  0.10000000000E+04  0.00000000000E+00 0. -1.
          2   -1    0    0  501    0 -0.00000000000E+00 -0.00000000000E+00 -0.10549292417E+03  0.10549292417E+03  0.00000000000E+00 0. -1.
    9000006    2    1    2  501    0  0.00000000000E+00  0.00000000000E+00  0.89450707583E+03  0.11054929242E+04  0.64959348571E+03 0.  0.
         13    1    3    3    0    0 -0.14031345166E+03  0.21815895016E+03  0.77992279415E+03  0.82192503130E+03  0.00000000000E+00 0. -1.
          4    1    3    3  501    0  0.14031345166E+03 -0.21815895016E+03  0.11458428168E+03  0.28356789286E+03  0.00000000000E+00 0. -1.
<mgrwt>
<rscale>  0 0.64959349E+03</rscale>
<asrwt>0</asrwt>
<pdfrwt beam="1">0</pdfrwt>
<pdfrwt beam="2">  1        2 0.38361144E+00 0.64959349E+03</pdfrwt>
<totfact> 0.45841448E+00</totfact>
</mgrwt>
</event>
<event>
 5    1  0.2357694E-004  0.6526244E+03  0.7818608E-02  0.9801867E-01
         13   -1    0    0    0    0  0.00000000000E+00  0.00000000000E+00  0.10000000000E+04  0.10000000000E+04  0.00000000000E+00 0. -1.
          2   -1    0    0  501    0 -0.00000000000E+00 -0.00000000000E+00 -0.10647964461E+03  0.10647964461E+03  0.00000000000E+00 0. -1.
    9000006    2    1    2  501    0  0.00000000000E+00  0.00000000000E+00  0.89352035539E+03  0.11064796446E+04  0.65262437774E+03 0.  0.
         13    1    3    3    0    0 -0.20245810343E+03  0.18792534149E+03  0.15225044435E+03  0.31541308696E+03  0.00000000000E+00 0. -1.
          2    1    3    3  501    0  0.20245810343E+03 -0.18792534149E+03  0.74126991104E+03  0.79106655765E+03  0.00000000000E+00 0. -1.
<mgrwt>
<rscale>  0 0.65262438E+03</rscale>
<asrwt>0</asrwt>
<pdfrwt beam="1">0</pdfrwt>
<pdfrwt beam="2">  1        2 0.38719952E+00 0.65262438E+03</pdfrwt>
<totfact> 0.44448800E+00</totfact>
</mgrwt>
</event>
<event>
 5    1  0.2357694E-004  0.6585529E+03  0.7818608E-02  0.9790861E-01
         13   -1    0    0    0    0  0.00000000000E+00  0.00000000000E+00  0.10000000000E+04  0.10000000000E+04  0.00000000000E+00 0. -1.
          2   -1    0    0  501    0 -0.00000000000E+00 -0.00000000000E+00 -0.10842298665E+03  0.10842298665E+03  0.00000000000E+00 0. -1.
    9000006    2    1    2  501    0  0.00000000000E+00  0.00000000000E+00  0.89157701335E+03  0.11084229867E+04  0.65855291862E+03 0.  0.
         13    1    3    3    0    0  0.12604141147E+02 -0.73151229670E+02 -0.94157092748E+02  0.11989797701E+03  0.00000000000E+00 0. -1.
          2    1    3    3  501    0 -0.12604141147E+02  0.73151229670E+02  0.98573410609E+03  0.98852500964E+03  0.00000000000E+00 0. -1.
<mgrwt>
<rscale>  0 0.65855292E+03</rscale>
<asrwt>0</asrwt>
<pdfrwt beam="1">0</pdfrwt>
<pdfrwt beam="2">  1        2 0.39426624E+00 0.65855292E+03</pdfrwt>
<totfact> 0.41817356E+00</totfact>
</mgrwt>
</event>
<event>
 5    1  0.2357694E-004  0.6530112E+03  0.7818608E-02  0.9801145E-01
         13   -1    0    0    0    0  0.00000000000E+00  0.00000000000E+00  0.10000000000E+04  0.10000000000E+04  0.00000000000E+00 0. -1.
          2   -1    0    0  501    0 -0.00000000000E+00 -0.00000000000E+00 -0.10660590110E+03  0.10660590110E+03  0.00000000000E+00 0. -1.
    9000006    2    1    2  501    0  0.00000000000E+00  0.00000000000E+00  0.89339409890E+03  0.11066059011E+04  0.65301118245E+03 0.  0.
         13    1    3    3    0    0  0.25451947909E+03 -0.49981462142E+02  0.78276030203E+03  0.82461627575E+03  0.00000000000E+00 0. -1.
          4    1    3    3  501    0 -0.25451947909E+03  0.49981462142E+02  0.11063379686E+03  0.28198962535E+03  0.00000000000E+00 0. -1.
<mgrwt>
<rscale>  0 0.65301118E+03</rscale>
<asrwt>0</asrwt>
<pdfrwt beam="1">0</pdfrwt>
<pdfrwt beam="2">  1        2 0.38765864E+00 0.65301118E+03</pdfrwt>
<totfact> 0.44273397E+00</totfact>
</mgrwt>
</event>
<event>
 5    1  0.2357694E-004  0.6473344E+03  0.7818608E-02  0.9811794E-01
         13   -1    0    0    0    0  0.00000000000E+00  0.00000000000E+00  0.10000000000E+04  0.10000000000E+04  0.00000000000E+00 0. -1.
          2   -1    0    0  501    0 -0.00000000000E+00 -0.00000000000E+00 -0.10476045742E+03  0.10476045742E+03  0.00000000000E+00 0. -1.
    9000006    2    1    2  501    0  0.00000000000E+00  0.00000000000E+00  0.89523954258E+03  0.11047604574E+04  0.64733440328E+03 0.  0.
         13    1    3    3    0    0 -0.90760316759E+01  0.91413844913E+02 -0.82045207532E+02  0.12316769654E+03  0.00000000000E+00 0. -1.
          2    1    3    3  501    0  0.90760316759E+01 -0.91413844913E+02  0.97728475011E+03  0.98159276087E+03  0.00000000000E+00 0. -1.
<mgrwt>
<rscale>  0 0.64733440E+03</rscale>
<asrwt>0</asrwt>
<pdfrwt beam="1">0</pdfrwt>
<pdfrwt beam="2">  1        2 0.38094792E+00 0.64733440E+03</pdfrwt>
<totfact> 0.46900722E+00</totfact>
</mgrwt>
</event>
<event>
 5    1  0.2357694E-004  0.6652697E+03  0.7818608E-02  0.9778541E-01
         13   -1    0    0    0    0  0.00000000000E+00  0.00000000000E+00  0.10000000000E+04  0.10000000000E+04  0.00000000000E+00 0. -1.
          2   -1    0    0  501    0 -0.00000000000E+00 -0.00000000000E+00 -0.11064595674E+03  0.11064595674E+03  0.00000000000E+00 0. -1.
    9000006    2    1    2  501    0  0.00000000000E+00  0.00000000000E+00  0.88935404326E+03  0.11106459567E+04  0.66526974000E+03 0.  0.
         13    1    3    3    0    0  0.81306169838E+02 -0.99333940745E+02 -0.67629183900E+02  0.14509180388E+03  0.00000000000E+00 0. -1.
          4    1    3    3  501    0 -0.81306169838E+02  0.99333940745E+02  0.95698322716E+03  0.96555415286E+03  0.00000000000E+00 0. -1.
<mgrwt>
<rscale>  0 0.66526974E+03</rscale>
<asrwt>0</asrwt>
<pdfrwt beam="1">0</pdfrwt>
<pdfrwt beam="2">  1        2 0.40234978E+00 0.66526974E+03</pdfrwt>
<totfact> 0.38980249E+00</totfact>
</mgrwt>
</event>
<event>
 5    1  0.2357694E-004  0.5561565E+03  0.7818608E-02  0.1000079E+00
         13   -1    0    0    0    0  0.00000000000E+00  0.00000000000E+00  0.10000000000E+04  0.10000000000E+04  0.00000000000E+00 0. -1.
          2   -1    0    0  501    0 -0.00000000000E+00 -0.00000000000E+00 -0.77327517602E+02  0.77327517602E+02  0.00000000000E+00 0. -1.
    9000006    2    1    2  501    0  0.00000000000E+00  0.00000000000E+00  0.92267248240E+03  0.10773275176E+04  0.55615651611E+03 0.  0.
         13    1    3    3    0    0 -0.17261286234E+03  0.11038693055E+03  0.82552561223E+03  0.85057216691E+03  0.00000000000E+00 0. -1.
          2    1    3    3  501    0  0.17261286234E+03 -0.11038693055E+03  0.97146870168E+02  0.22675535069E+03  0.00000000000E+00 0. -1.
<mgrwt>
<rscale>  0 0.55615652E+03</rscale>
<asrwt>0</asrwt>
<pdfrwt beam="1">0</pdfrwt>
<pdfrwt beam="2">  1        2 0.28119157E+00 0.55615652E+03</pdfrwt>
<totfact> 0.10778456E+01</totfact>
</mgrwt>
</event>
<event>
 5    1  0.2357694E-004  0.6471346E+03  0.7818608E-02  0.9812171E-01
         13   -1    0    0    0    0  0.00000000000E+00  0.00000000000E+00  0.10000000000E+04  0.10000000000E+04  0.00000000000E+00 0. -1.
          2   -1    0    0  501    0 -0.00000000000E+00 -0.00000000000E+00 -0.10469578755E+03  0.10469578755E+03  0.00000000000E+00 0. -1.
    9000006    2    1    2  501    0  0.00000000000E+00  0.00000000000E+00  0.89530421245E+03  0.11046957876E+04  0.64713456886E+03 0.  0.
         13    1    3    3    0    0  0.71594230792E+02  0.20518394843E+03  0.38422364939E+02  0.22068634916E+03  0.00000000000E+00 0. -1.
          4    1    3    3  501    0 -0.71594230792E+02 -0.20518394843E+03  0.85688184751E+03  0.88400943839E+03  0.00000000000E+00 0. -1.
<mgrwt>
<rscale>  0 0.64713457E+03</rscale>
<asrwt>0</asrwt>
<pdfrwt beam="1">0</pdfrwt>
<pdfrwt beam="2">  1        2 0.38071276E+00 0.64713457E+03</pdfrwt>
<totfact> 0.46995306E+00</totfact>
</mgrwt>
</event>
<event>
 5    1  0.2357694E-004  0.6577166E+03  0.7818608E-02  0.9792406E-01
         13   -1    0    0    0    0  0.00000000000E+00  0.00000000000E+00  0.10000000000E+04  0.10000000000E+04  0.00000000000E+00 0. -1.
          2   -1    0    0  501    0 -0.00000000000E+00 -0.00000000000E+00 -0.10814778502E+03  0.10814778502E+03  0.00000000000E+00 0. -1.
    9000006    2    1    2  501    0  0.00000000000E+00  0.00000000000E+00  0.89185221498E+03  0.11081477850E+04  0.65771661077E+03 0.  0.
         13    1    3    3    0    0 -0.16310536989E+03  0.24854310716E+03  0.68282902773E+03  0.74473654330E+03  0.00000000000E+00 0. -1.
          4    1    3    3  501    0  0.16310536989E+03 -0.24854310716E+03  0.20902318725E+03  0.36341124173E+03  0.00000000000E+00 0. -1.
<mgrwt>
<rscale>  0 0.65771661E+03</rscale>
<asrwt>0</asrwt>
<pdfrwt beam="1">0</pdfrwt>
<pdfrwt beam="2">  1        2 0.39326550E+00 0.65771661E+03</pdfrwt>
<totfact> 0.42181230E+00</totfact>
</mgrwt>
</event>
<event>
 5    1  0.2357694E-004  0.4926476E+03  0.7818608E-02  0.1015716E+00
         13   -1    0    0    0    0  0.00000000000E+00  0.00000000000E+00  0.10000000000E+04  0.10000000000E+04  0.00000000000E+00 0. -1.
          2   -1    0    0  501    0 -0.00000000000E+00 -0.00000000000E+00 -0.60675414900E+02  0.60675414900E+02  0.00000000000E+00 0. -1.
    9000006    2    1    2  501    0  0.00000000000E+00  0.00000000000E+00  0.93932458510E+03  0.10606754149E+04  0.49264760184E+03 0.  0.
         13    1    3    3    0    0  0.18212998519E+03  0.15207863664E+03  0.61208961335E+03  0.65647005872E+03  0.00000000000E+00 0. -1.
          4    1    3    3  501    0 -0.18212998519E+03 -0.15207863664E+03  0.32723497175E+03  0.40420535618E+03  0.00000000000E+00 0. -1.
<mgrwt>
<rscale>  0 0.49264760E+03</rscale>
<asrwt>0</asrwt>
<pdfrwt beam="1">0</pdfrwt>
<pdfrwt beam="2">  1        2 0.22063834E+00 0.49264760E+03</pdfrwt>
<totfact> 0.17812809E+01</totfact>
</mgrwt>
</event>
<event>
 5    1  0.2357694E-004  0.6274228E+03  0.7818608E-02  0.9850091E-01
         13   -1    0    0    0    0  0.00000000000E+00  0.00000000000E+00  0.10000000000E+04  0.10000000000E+04  0.00000000000E+00 0. -1.
          2   -1    0    0  501    0 -0.00000000000E+00 -0.00000000000E+00 -0.98414849417E+02  0.98414849417E+02  0.00000000000E+00 0. -1.
    9000006    2    1    2  501    0  0.00000000000E+00  0.00000000000E+00  0.90158515058E+03  0.10984148494E+04  0.62742282208E+03 0.  0.
         13    1    3    3    0    0 -0.27011754158E+03  0.42900583282E+01  0.72998557529E+03  0.77837062574E+03  0.00000000000E+00 0. -1.
          4    1    3    3  501    0  0.27011754158E+03 -0.42900583282E+01  0.17159957529E+03  0.32004422368E+03  0.00000000000E+00 0. -1.
<mgrwt>
<rscale>  0 0.62742282E+03</rscale>
<asrwt>0</asrwt>
<pdfrwt beam="1">0</pdfrwt>
<pdfrwt beam="2">  1        2 0.35787293E+00 0.62742282E+03</pdfrwt>
<totfact> 0.57059671E+00</totfact>
</mgrwt>
</event>
<event>
 5    1  0.2357694E-004  0.6311425E+03  0.7818608E-02  0.9842822E-01
         13   -1    0    0    0    0  0.00000000000E+00  0.00000000000E+00  0.10000000000E+04  0.10000000000E+04  0.00000000000E+00 0. -1.
          2   -1    0    0  501    0 -0.00000000000E+00 -0.00000000000E+00 -0.99585202279E+02  0.99585202279E+02  0.00000000000E+00 0. -1.
    9000006    2    1    2  501    0  0.00000000000E+00  0.00000000000E+00  0.90041479772E+03  0.10995852023E+04  0.63114246341E+03 0.  0.
         13    1    3    3    0    0  0.29041840335E+03  0.27362981183E+02  0.65995158398E+03  0.72154533811E+03  0.00000000000E+00 0. -1.
          4    1    3    3  501    0 -0.29041840335E+03 -0.27362981183E+02  0.24046321374E+03  0.37803986417E+03  0.00000000000E+00 0. -1.
<mgrwt>
<rscale>  0 0.63114246E+03</rscale>
<asrwt>0</asrwt>
<pdfrwt beam="1">0</pdfrwt>
<pdfrwt beam="2">  1        2 0.36212877E+00 0.63114246E+03</pdfrwt>
<totfact> 0.55046025E+00</totfact>
</mgrwt>
</event>
<event>
 5    1  0.2357694E-004  0.6563170E+03  0.7818608E-02  0.9794997E-01
         13   -1    0    0    0    0  0.00000000000E+00  0.00000000000E+00  0.10000000000E+04  0.10000000000E+04  0.00000000000E+00 0. -1.
          2   -1    0    0  501    0 -0.00000000000E+00 -0.00000000000E+00 -0.10768800422E+03  0.10768800422E+03  0.00000000000E+00 0. -1.
    9000006    2    1    2  501    0  0.00000000000E+00  0.00000000000E+00  0.89231199578E+03  0.11076880042E+04  0.65631700944E+03 0.  0.
         13    1    3    3    0    0  0.29136851694E+01  0.18320218068E+03 -0.13318246913E+02  0.18370874848E+03  0.00000000000E+00 0. -1.
          2    1    3    3  501    0 -0.29136851694E+01 -0.18320218068E+03  0.90563024269E+03  0.92397925574E+03  0.00000000000E+00 0. -1.
<mgrwt>
<rscale>  0 0.65631701E+03</rscale>
<asrwt>0</asrwt>
<pdfrwt beam="1">0</pdfrwt>
<pdfrwt beam="2">  1        2 0.39159357E+00 0.65631701E+03</pdfrwt>
<totfact> 0.42795555E+00</totfact>
</mgrwt>
</event>
<event>
 5    1  0.2357694E-004  0.6480108E+03  0.7818608E-02  0.9810519E-01
         13   -1    0    0    0    0  0.00000000000E+00  0.00000000000E+00  0.10000000000E+04  0.10000000000E+04  0.00000000000E+00 0. -1.
          2   -1    0    0  501    0 -0.00000000000E+00 -0.00000000000E+00 -0.10497950431E+03  0.10497950431E+03  0.00000000000E+00 0. -1.
    9000006    2    1    2  501    0  0.00000000000E+00  0.00000000000E+00  0.89502049569E+03  0.11049795043E+04  0.64801081569E+03 0.  0.
         13    1    3    3    0    0 -0.21978268160E+03  0.21892496066E+03  0.60698796542E+03  0.68166484118E+03  0.00000000000E+00 0. -1.
          4    1    3    3  501    0  0.21978268160E+03 -0.21892496066E+03  0.28803253027E+03  0.42331466314E+03  0.00000000000E+00 0. -1.
<mgrwt>
<rscale>  0 0.64801082E+03</rscale>
<asrwt>0</asrwt>
<pdfrwt beam="1">0</pdfrwt>
<pdfrwt beam="2">  1        2 0.38174446E+00 0.64801082E+03</pdfrwt>
<totfact> 0.46581635E+00</totfact>
</mgrwt>
</event>
<event>
 5    1  0.2357694E-004  0.6465362E+03  0.7818608E-02  0.9813301E-01
         13   -1    0    0    0    0  0.00000000000E+00  0.00000000000E+00  0.10000000000E+04  0.10000000000E+04  0.00000000000E+00 0. -1.
          2   -1    0    0  501    0 -0.00000000000E+00 -0.00000000000E+00 -0.10450227037E+03  0.10450227037E+03  0.00000000000E+00 0. -1.
    9000006    2    1    2  501    0  0.00000000000E+00  0.00000000000E+00  0.89549772963E+03  0.11045022704E+04  0.64653621822E+03 0.  0.
         13    1    3    3    0    0  0.29543580272E+03  0.11622081559E+03  0.55184088734E+03  0.63664586424E+03  0.00000000000E+00 0. -1.
          4    1    3    3  501    0 -0.29543580272E+03 -0.11622081559E+03  0.34365684229E+03  0.46785640613E+03  0.00000000000E+00 0. -1.
<mgrwt>
<rscale>  0 0.64653622E+03</rscale>
<asrwt>0</asrwt>
<pdfrwt beam="1">0</pdfrwt>
<pdfrwt beam="2">  1        2 0.38000906E+00 0.64653622E+03</pdfrwt>
<totfact> 0.47279376E+00</totfact>
</mgrwt>
</event>
<event>
 5    1  0.2357694E-004  0.6667791E+03  0.7818608E-02  0.9775794E-01
         13   -1    0    0    0    0  0.00000000000E+00  0.00000000000E+00  0.10000000000E+04  0.10000000000E+04  0.00000000000E+00 0. -1.
          2   -1    0    0  501    0 -0.00000000000E+00 -0.00000000000E+00 -0.11114858529E+03  0.11114858529E+03  0.00000000000E+00 0. -1.
    9000006    2    1    2  501    0  0.00000000000E+00  0.00000000000E+00  0.88885141471E+03  0.11111485853E+04  0.66677907972E+03 0.  0.
         13    1    3    3    0    0  0.29794869892E+03 -0.75465067572E+02  0.22920177577E+03  0.38340821278E+03  0.00000000000E+00 0. -1.
          4    1    3    3  501    0 -0.29794869892E+03  0.75465067572E+02  0.65964963894E+03  0.72774037250E+03  0.00000000000E+00 0. -1.
<mgrwt>
<rscale>  0 0.66677908E+03</rscale>
<asrwt>0</asrwt>
<pdfrwt beam="1">0</pdfrwt>
<pdfrwt beam="2">  1        2 0.40417753E+00 0.66677908E+03</pdfrwt>
<totfact> 0.38363229E+00</totfact>
</mgrwt>
</event>
<event>
 5    1  0.2357694E-004  0.6936599E+03  0.7818608E-02  0.9728137E-01
         13   -1    0    0    0    0  0.00000000000E+00  0.00000000000E+00  0.10000000000E+04  0.10000000000E+04  0.00000000000E+00 0. -1.
          2   -1    0    0  501    0 -0.00000000000E+00 -0.00000000000E+00 -0.12029100186E+03  0.12029100186E+03  0.00000000000E+00 0. -1.
    9000006    2    1    2  501    0  0.00000000000E+00  0.00000000000E+00  0.87970899814E+03  0.11202910019E+04  0.69365986436E+03 0.  0.
         13    1    3    3    0    0  0.23375044645E+03  0.22978943175E+03  0.62292202051E+03  0.70389935203E+03  0.00000000000E+00 0. -1.
          4    1    3    3  501    0 -0.23375044645E+03 -0.22978943175E+03  0.25678697764E+03  0.41639164982E+03  0.00000000000E+00 0. -1.
<mgrwt>
<rscale>  0 0.69365986E+03</rscale>
<asrwt>0</asrwt>
<pdfrwt beam="1">0</pdfrwt>
<pdfrwt beam="2">  1        2 0.43742275E+00 0.69365986E+03</pdfrwt>
<totfact> 0.28557113E+00</totfact>
</mgrwt>
</event>
<event>
 5    1  0.2357694E-004  0.6481989E+03  0.7818608E-02  0.9810165E-01
         13   -1    0    0    0    0  0.00000000000E+00  0.00000000000E+00  0.10000000000E+04  0.10000000000E+04  0.00000000000E+00 0. -1.
          2   -1    0    0  501    0 -0.00000000000E+00 -0.00000000000E+00 -0.10504044480E+03  0.10504044480E+03  0.00000000000E+00 0. -1.
    9000006    2    1    2  501    0  0.00000000000E+00  0.00000000000E+00  0.89495955520E+03  0.11050404448E+04  0.64819887318E+03 0.  0.
         13    1    3    3    0    0  0.12952670062E+03  0.66169057543E+02 -0.46275654543E+02  0.15263337300E+03  0.00000000000E+00 0. -1.
          4    1    3    3  501    0 -0.12952670062E+03 -0.66169057543E+02  0.94123520975E+03  0.95240707180E+03  0.00000000000E+00 0. -1.
<mgrwt>
<rscale>  0 0.64819887E+03</rscale>
<asrwt>0</asrwt>
<pdfrwt beam="1">0</pdfrwt>
<pdfrwt beam="2">  1        2 0.38196606E+00 0.64819887E+03</pdfrwt>
<totfact> 0.46493214E+00</totfact>
</mgrwt>
</event>
<event>
 5    1  0.2357694E-004  0.6481791E+03  0.7818608E-02  0.9810202E-01
         13   -1    0    0    0    0  0.00000000000E+00  0.00000000000E+00  0.10000000000E+04  0.10000000000E+04  0.00000000000E+00 0. -1.
          2   -1    0    0  501    0 -0.00000000000E+00 -0.00000000000E+00 -0.10503403772E+03  0.10503403772E+03  0.00000000000E+00 0. -1.
    9000006    2    1    2  501    0  0.00000000000E+00  0.00000000000E+00  0.89496596228E+03  0.11050340377E+04  0.64817910401E+03 0.  0.
         13    1    3    3    0    0  0.18785983522E+03  0.57233397765E+00  0.89770740411E+03  0.91715332886E+03  0.00000000000E+00 0. -1.
          2    1    3    3  501    0 -0.18785983522E+03 -0.57233397765E+00 -0.27414418283E+01  0.18788070886E+03  0.00000000000E+00 0. -1.
<mgrwt>
<rscale>  0 0.64817910E+03</rscale>
<asrwt>0</asrwt>
<pdfrwt beam="1">0</pdfrwt>
<pdfrwt beam="2">  1        2 0.38194276E+00 0.64817910E+03</pdfrwt>
<totfact> 0.46502503E+00</totfact>
</mgrwt>
</event>
<event>
 5    1  0.2357694E-004  0.6510130E+03  0.7818608E-02  0.9804880E-01
         13   -1    0    0    0    0  0.00000000000E+00  0.00000000000E+00  0.10000000000E+04  0.10000000000E+04  0.00000000000E+00 0. -1.
          2   -1    0    0  501    0 -0.00000000000E+00 -0.00000000000E+00 -0.10595448438E+03  0.10595448438E+03  0.00000000000E+00 0. -1.
    9000006    2    1    2  501    0  0.00000000000E+00  0.00000000000E+00  0.89404551562E+03  0.11059544844E+04  0.65101300871E+03 0.  0.
         13    1    3    3    0    0  0.26230288217E+03 -0.16210401165E+03  0.62417297455E+03  0.69618418163E+03  0.00000000000E+00 0. -1.
          2    1    3    3  501    0 -0.26230288217E+03  0.16210401165E+03  0.26987254107E+03  0.40977030275E+03  0.00000000000E+00 0. -1.
<mgrwt>
<rscale>  0 0.65101301E+03</rscale>
<asrwt>0</asrwt>
<pdfrwt beam="1">0</pdfrwt>
<pdfrwt beam="2">  1        2 0.38528985E+00 0.65101301E+03</pdfrwt>
<totfact> 0.45185157E+00</totfact>
</mgrwt>
</event>
<event>
 5    1  0.2357694E-004  0.6547247E+03  0.7818608E-02  0.9797954E-01
         13   -1    0    0    0    0  0.00000000000E+00  0.00000000000E+00  0.10000000000E+04  0.10000000000E+04  0.00000000000E+00 0. -1.
          2   -1    0    0  501    0 -0.00000000000E+00 -0.00000000000E+00 -0.10716610614E+03  0.10716610614E+03  0.00000000000E+00 0. -1.
    9000006    2    1    2  501    0  0.00000000000E+00  0.00000000000E+00  0.89283389386E+03  0.11071661061E+04  0.65472469370E+03 0.  0.
         13    1    3    3    0    0 -0.20089715799E+03 -0.15354134834E+03  0.94812649060E+02  0.27004453737E+03  0.00000000000E+00 0. -1.
          2    1    3    3  501    0  0.20089715799E+03  0.15354134834E+03  0.79802124480E+03  0.83712156877E+03  0.00000000000E+00 0. -1.
<mgrwt>
<rscale>  0 0.65472469E+03</rscale>
<asrwt>0</asrwt>
<pdfrwt beam="1">0</pdfrwt>
<pdfrwt beam="2">  1        2 0.38969575E+00 0.65472469E+03</pdfrwt>
<totfact> 0.43502657E+00</totfact>
</mgrwt>
</event>
<event>
 5    1  0.2357694E-004  0.6520106E+03  0.7818608E-02  0.9803014E-01
         13   -1    0    0    0    0  0.00000000000E+00  0.00000000000E+00  0.10000000000E+04  0.10000000000E+04  0.00000000000E+00 0. -1.
          2   -1    0    0  501    0 -0.00000000000E+00 -0.00000000000E+00 -0.10627945848E+03  0.10627945848E+03  0.00000000000E+00 0. -1.
    9000006    2    1    2  501    0  0.00000000000E+00  0.00000000000E+00  0.89372054152E+03  0.11062794585E+04  0.65201060874E+03 0.  0.
         13    1    3    3    0    0  0.18140808094E+03 -0.21548387238E+03  0.72533574676E+03  0.77810933461E+03  0.00000000000E+00 0. -1.
          4    1    3    3  501    0 -0.18140808094E+03  0.21548387238E+03  0.16838479477E+03  0.32817012386E+03  0.00000000000E+00 0. -1.
<mgrwt>
<rscale>  0 0.65201061E+03</rscale>
<asrwt>0</asrwt>
<pdfrwt beam="1">0</pdfrwt>
<pdfrwt beam="2">  1        2 0.38647157E+00 0.65201061E+03</pdfrwt>
<totfact> 0.44728200E+00</totfact>
</mgrwt>
</event>
<event>
 5    1  0.2357694E-004  0.6483973E+03  0.7818608E-02  0.9809791E-01
         13   -1    0    0    0    0  0.00000000000E+00  0.00000000000E+00  0.10000000000E+04  0.10000000000E+04  0.00000000000E+00 0. -1.
          2   -1    0    0  501    0 -0.00000000000E+00 -0.00000000000E+00 -0.10510475241E+03  0.10510475241E+03  0.00000000000E+00 0. -1.
    9000006    2    1    2  501    0  0.00000000000E+00  0.00000000000E+00  0.89489524759E+03  0.11051047524E+04  0.64839726220E+03 0.  0.
         13    1    3    3    0    0  0.24573958051E+03 -0.66396866644E+02  0.78963133950E+03  0.82964699580E+03  0.00000000000E+00 0. -1.
          4    1    3    3  501    0 -0.24573958051E+03  0.66396866644E+02  0.10526390809E+03  0.27545775661E+03  0.00000000000E+00 0. -1.
<mgrwt>
<rscale>  0 0.64839726E+03</rscale>
<asrwt>0</asrwt>
<pdfrwt beam="1">0</pdfrwt>
<pdfrwt beam="2">  1        2 0.38219991E+00 0.64839726E+03</pdfrwt>
<totfact> 0.46400073E+00</totfact>
</mgrwt>
</event>
<event>
 5    1  0.2357694E-004  0.6512807E+03  0.7818608E-02  0.9804379E-01
         13   -1    0    0    0    0  0.00000000000E+00  0.00000000000E+00  0.10000000000E+04  0.10000000000E+04  0.00000000000E+00 0. -1.
          2   -1    0    0  501    0 -0.00000000000E+00 -0.00000000000E+00 -0.10604164694E+03  0.10604164694E+03  0.00000000000E+00 0. -1.
    9000006    2    1    2  501    0  0.00000000000E+00  0.00000000000E+00  0.89395835306E+03  0.11060416469E+04  0.65128072885E+03 0.  0.
         13    1    3    3    0    0  0.45119301441E+01  0.14295494757E+03 -0.49844766613E+02  0.15146278522E+03  0.00000000000E+00 0. -1.
          4    1    3    3  501    0 -0.45119301441E+01 -0.14295494757E+03  0.94380311967E+03  0.95457886172E+03  0.00000000000E+00 0. -1.
<mgrwt>
<rscale>  0 0.65128073E+03</rscale>
<asrwt>0</asrwt>
<pdfrwt beam="1">0</pdfrwt>
<pdfrwt beam="2">  1        2 0.38560680E+00 0.65128073E+03</pdfrwt>
<totfact> 0.45062181E+00</totfact>
</mgrwt>
</event>
<event>
 5    1  0.2357694E-004  0.6415820E+03  0.7818608E-02  0.9822704E-01
         13   -1    0    0    0    0  0.00000000000E+00  0.00000000000E+00  0.10000000000E+04  0.10000000000E+04  0.00000000000E+00 0. -1.
          2   -1    0    0  501    0 -0.00000000000E+00 -0.00000000000E+00 -0.10290687329E+03  0.10290687329E+03  0.00000000000E+00 0. -1.
    9000006    2    1    2  501    0  0.00000000000E+00  0.00000000000E+00  0.89709312671E+03  0.11029068733E+04  0.64158202371E+03 0.  0.
         13    1    3    3    0    0  0.24630168339E+02  0.59375525755E+02  0.98881510534E+03  0.99090232153E+03  0.00000000000E+00 0. -1.
          4    1    3    3  501    0 -0.24630168339E+02 -0.59375525755E+02 -0.91721978630E+02  0.11200455176E+03  0.00000000000E+00 0. -1.
<mgrwt>
<rscale>  0 0.64158202E+03</rscale>
<asrwt>0</asrwt>
<pdfrwt beam="1">0</pdfrwt>
<pdfrwt beam="2">  1        2 0.37420760E+00 0.64158202E+03</pdfrwt>
<totfact> 0.49681670E+00</totfact>
</mgrwt>
</event>
<event>
 5    1  0.2357694E-004  0.6514490E+03  0.7818608E-02  0.9804064E-01
         13   -1    0    0    0    0  0.00000000000E+00  0.00000000000E+00  0.10000000000E+04  0.10000000000E+04  0.00000000000E+00 0. -1.
          2   -1    0    0  501    0 -0.00000000000E+00 -0.00000000000E+00 -0.10609644106E+03  0.10609644106E+03  0.00000000000E+00 0. -1.
    9000006    2    1    2  501    0  0.00000000000E+00  0.00000000000E+00  0.89390355894E+03  0.11060964411E+04  0.65144897285E+03 0.  0.
         13    1    3    3    0    0  0.74845400679E+02 -0.26601307267E+03  0.15418478562E+03  0.31644547232E+03  0.00000000000E+00 0. -1.
          2    1    3    3  501    0 -0.74845400679E+02  0.26601307267E+03  0.73971877332E+03  0.78965096874E+03  0.00000000000E+00 0. -1.
<mgrwt>
<rscale>  0 0.65144897E+03</rscale>
<asrwt>0</asrwt>
<pdfrwt beam="1">0</pdfrwt>
<pdfrwt beam="2">  1        2 0.38580605E+00 0.65144897E+03</pdfrwt>
<totfact> 0.44985029E+00</totfact>
</mgrwt>
</event>
<event>
 5    1  0.2357694E-004  0.6287676E+03  0.7818608E-02  0.9847457E-01
         13   -1    0    0    0    0  0.00000000000E+00  0.00000000000E+00  0.10000000000E+04  0.10000000000E+04  0.00000000000E+00 0. -1.
          2   -1    0    0  501    0 -0.00000000000E+00 -0.00000000000E+00 -0.98837161286E+02  0.98837161286E+02  0.00000000000E+00 0. -1.
    9000006    2    1    2  501    0  0.00000000000E+00  0.00000000000E+00  0.90116283871E+03  0.10988371613E+04  0.62876756051E+03 0.  0.
         13    1    3    3    0    0  0.21067184107E+03  0.21886688836E+03  0.30912448209E+03  0.43340891185E+03  0.00000000000E+00 0. -1.
          4    1    3    3  501    0 -0.21067184107E+03 -0.21886688836E+03  0.59203835662E+03  0.66542824944E+03  0.00000000000E+00 0. -1.
<mgrwt>
<rscale>  0 0.62876756E+03</rscale>
<asrwt>0</asrwt>
<pdfrwt beam="1">0</pdfrwt>
<pdfrwt beam="2">  1        2 0.35940862E+00 0.62876756E+03</pdfrwt>
<totfact> 0.56325344E+00</totfact>
</mgrwt>
</event>
<event>
 5    1  0.2357694E-004  0.6673395E+03  0.7818608E-02  0.9774776E-01
         13   -1    0    0    0    0  0.00000000000E+00  0.00000000000E+00  0.10000000000E+04  0.10000000000E+04  0.00000000000E+00 0. -1.
          2   -1    0    0  501    0 -0.00000000000E+00 -0.00000000000E+00 -0.11133550278E+03  0.11133550278E+03  0.00000000000E+00 0. -1.
    9000006    2    1    2  501    0  0.00000000000E+00  0.00000000000E+00  0.88866449722E+03  0.11113355028E+04  0.66733950214E+03 0.  0.
         13    1    3    3    0    0 -0.82132741736E+02 -0.90460052404E+02  0.96140535674E+03  0.96913831227E+03  0.00000000000E+00 0. -1.
          2    1    3    3  501    0  0.82132741736E+02  0.90460052404E+02 -0.72740859517E+02  0.14219719051E+03  0.00000000000E+00 0. -1.
<mgrwt>
<rscale>  0 0.66733950E+03</rscale>
<asrwt>0</asrwt>
<pdfrwt beam="1">0</pdfrwt>
<pdfrwt beam="2">  1        2 0.40485723E+00 0.66733950E+03</pdfrwt>
<totfact> 0.38136013E+00</totfact>
</mgrwt>
</event>
<event>
 5    1  0.2357694E-004  0.6445891E+03  0.7818608E-02  0.9816986E-01
         13   -1    0    0    0    0  0.00000000000E+00  0.00000000000E+00  0.10000000000E+04  0.10000000000E+04  0.00000000000E+00 0. -1.
          2   -1    0    0  501    0 -0.00000000000E+00 -0.00000000000E+00 -0.10387376791E+03  0.10387376791E+03  0.00000000000E+00 0. -1.
    9000006    2    1    2  501    0  0.00000000000E+00  0.00000000000E+00  0.89612623209E+03  0.11038737679E+04  0.64458907192E+03 0.  0.
         13    1    3    3    0    0  0.30116400387E+03  0.24319526086E+02  0.25596585387E+03  0.39599206421E+03  0.00000000000E+00 0. -1.
          4    1    3    3  501    0 -0.30116400387E+03 -0.24319526086E+02  0.64016037823E+03  0.70788170369E+03  0.00000000000E+00 0. -1.
<mgrwt>
<rscale>  0 0.64458907E+03</rscale>
<asrwt>0</asrwt>
<pdfrwt beam="1">0</pdfrwt>
<pdfrwt beam="2">  1        2 0.37772359E+00 0.64458907E+03</pdfrwt>
<totfact> 0.48212792E+00</totfact>
</mgrwt>
</event>
<event>
 5    1  0.2357694E-004  0.6569534E+03  0.7818608E-02  0.9793818E-01
         13   -1    0    0    0    0  0.00000000000E+00  0.00000000000E+00  0.10000000000E+04  0.10000000000E+04  0.00000000000E+00 0. -1.
          2   -1    0    0  501    0 -0.00000000000E+00 -0.00000000000E+00 -0.10789694268E+03  0.10789694268E+03  0.00000000000E+00 0. -1.
    9000006    2    1    2  501    0  0.00000000000E+00  0.00000000000E+00  0.89210305732E+03  0.11078969427E+04  0.65695340072E+03 0.  0.
         13    1    3    3    0    0  0.10160547207E+03 -0.30359394818E+03  0.57002303566E+03  0.65377306346E+03  0.00000000000E+00 0. -1.
          4    1    3    3  501    0 -0.10160547207E+03  0.30359394818E+03  0.32208002166E+03  0.45412387922E+03  0.00000000000E+00 0. -1.
<mgrwt>
<rscale>  0 0.65695340E+03</rscale>
<asrwt>0</asrwt>
<pdfrwt beam="1">0</pdfrwt>
<pdfrwt beam="2">  1        2 0.39235335E+00 0.65695340E+03</pdfrwt>
<totfact> 0.42515393E+00</totfact>
</mgrwt>
</event>
<event>
 5    1  0.2357694E-004  0.6479103E+03  0.7818608E-02  0.9810708E-01
         13   -1    0    0    0    0  0.00000000000E+00  0.00000000000E+00  0.10000000000E+04  0.10000000000E+04  0.00000000000E+00 0. -1.
          2   -1    0    0  501    0 -0.00000000000E+00 -0.00000000000E+00 -0.10494695010E+03  0.10494695010E+03  0.00000000000E+00 0. -1.
    9000006    2    1    2  501    0  0.00000000000E+00  0.00000000000E+00  0.89505304990E+03  0.11049469501E+04  0.64791033361E+03 0.  0.
         13    1    3    3    0    0 -0.48642699352E+02  0.28230467176E+03  0.18953756177E+03  0.34349166980E+03  0.00000000000E+00 0. -1.
          4    1    3    3  501    0  0.48642699352E+02 -0.28230467176E+03  0.70551548814E+03  0.76145528030E+03  0.00000000000E+00 0. -1.
<mgrwt>
<rscale>  0 0.64791033E+03</rscale>
<asrwt>0</asrwt>
<pdfrwt beam="1">0</pdfrwt>
<pdfrwt beam="2">  1        2 0.38162608E+00 0.64791033E+03</pdfrwt>
<totfact> 0.46628932E+00</totfact>
</mgrwt>
</event>
<event>
 5    1  0.2357694E-004  0.6589539E+03  0.7818608E-02  0.9790121E-01
         13   -1    0    0    0    0  0.00000000000E+00  0.00000000000E+00  0.10000000000E+04  0.10000000000E+04  0.00000000000E+00 0. -1.
          2   -1    0    0  501    0 -0.00000000000E+00 -0.00000000000E+00 -0.10855504560E+03  0.10855504560E+03  0.00000000000E+00 0. -1.
    9000006    2    1    2  501    0  0.00000000000E+00  0.00000000000E+00  0.89144495440E+03  0.11085550456E+04  0.65895385453E+03 0.  0.
         13    1    3    3    0    0 -0.27978401432E+02  0.26831791747E+03  0.76392877569E+03  0.81016323670E+03  0.00000000000E+00 0. -1.
          2    1    3    3  501    0  0.27978401432E+02 -0.26831791747E+03  0.12751617871E+03  0.29839180889E+03  0.00000000000E+00 0. -1.
<mgrwt>
<rscale>  0 0.65895385E+03</rscale>
<asrwt>0</asrwt>
<pdfrwt beam="1">0</pdfrwt>
<pdfrwt beam="2">  1        2 0.39474645E+00 0.65895385E+03</pdfrwt>
<totfact> 0.41643762E+00</totfact>
</mgrwt>
</event>
<event>
 5    1  0.2357694E-004  0.6588879E+03  0.7818608E-02  0.9790243E-01
         13   -1    0    0    0    0  0.00000000000E+00  0.00000000000E+00  0.10000000000E+04  0.10000000000E+04  0.00000000000E+00 0. -1.
          4   -1    0    0  501    0 -0.00000000000E+00 -0.00000000000E+00 -0.10853330255E+03  0.10853330255E+03  0.00000000000E+00 0. -1.
    9000006    2    1    2  501    0  0.00000000000E+00  0.00000000000E+00  0.89146669745E+03  0.11085333025E+04  0.65888785858E+03 0.  0.
         13    1    3    3    0    0 -0.19721619495E+03  0.46451356941E+02  0.88278132095E+03  0.90573440739E+03  0.00000000000E+00 0. -1.
          2    1    3    3  501    0  0.19721619495E+03 -0.46451356941E+02  0.86853765025E+01  0.20279889515E+03  0.00000000000E+00 0. -1.
<mgrwt>
<rscale>  0 0.65888786E+03</rscale>
<asrwt>0</asrwt>
<pdfrwt beam="1">0</pdfrwt>
<pdfrwt beam="2">  1        4 0.39466739E+00 0.65888786E+03</pdfrwt>
<totfact> 0.34877814E-02</totfact>
</mgrwt>
</event>
<event>
 5    1  0.2357694E-004  0.6546237E+03  0.7818608E-02  0.9798142E-01
         13   -1    0    0    0    0  0.00000000000E+00  0.00000000000E+00  0.10000000000E+04  0.10000000000E+04  0.00000000000E+00 0. -1.
          2   -1    0    0  501    0 -0.00000000000E+00 -0.00000000000E+00 -0.10713305786E+03  0.10713305786E+03  0.00000000000E+00 0. -1.
    9000006    2    1    2  501    0  0.00000000000E+00  0.00000000000E+00  0.89286694214E+03  0.11071330579E+04  0.65462373271E+03 0.  0.
         13    1    3    3    0    0  0.31926930336E+03  0.24151229910E+01  0.32454205222E+03  0.45526504868E+03  0.00000000000E+00 0. -1.
          4    1    3    3  501    0 -0.31926930336E+03 -0.24151229910E+01  0.56832488992E+03  0.65186800918E+03  0.00000000000E+00 0. -1.
<mgrwt>
<rscale>  0 0.65462373E+03</rscale>
<asrwt>0</asrwt>
<pdfrwt beam="1">0</pdfrwt>
<pdfrwt beam="2">  1        2 0.38957558E+00 0.65462373E+03</pdfrwt>
<totfact> 0.43547786E+00</totfact>
</mgrwt>
</event>
<event>
 5    1  0.2357694E-004  0.6473256E+03  0.7818608E-02  0.9811810E-01
         13   -1    0    0    0    0  0.00000000000E+00  0.00000000000E+00  0.10000000000E+04  0.10000000000E+04  0.00000000000E+00 0. -1.
          2   -1    0    0  501    0 -0.00000000000E+00 -0.00000000000E+00 -0.10475762384E+03  0.10475762384E+03  0.00000000000E+00 0. -1.
    9000006    2    1    2  501    0  0.00000000000E+00  0.00000000000E+00  0.89524237616E+03  0.11047576238E+04  0.64732564862E+03 0.  0.
         13    1    3    3    0    0 -0.19015596292E+03  0.15697699532E+03  0.80543411279E+03  0.84233317479E+03  0.00000000000E+00 0. -1.
          2    1    3    3  501    0  0.19015596292E+03 -0.15697699532E+03  0.89808263364E+02  0.26242444905E+03  0.00000000000E+00 0. -1.
<mgrwt>
<rscale>  0 0.64732565E+03</rscale>
<asrwt>0</asrwt>
<pdfrwt beam="1">0</pdfrwt>
<pdfrwt beam="2">  1        2 0.38093762E+00 0.64732565E+03</pdfrwt>
<totfact> 0.46904862E+00</totfact>
</mgrwt>
</event>
<event>
 5    1  0.2357694E-004  0.6530520E+03  0.7818608E-02  0.9801069E-01
         13   -1    0    0    0    0  0.00000000000E+00  0.00000000000E+00  0.10000000000E+04  0.10000000000E+04  0.00000000000E+00 0. -1.
          2   -1    0    0  501    0 -0.00000000000E+00 -0.00000000000E+00 -0.10661922493E+03  0.10661922493E+03  0.00000000000E+00 0. -1.
    9000006    2    1    2  501    0  0.00000000000E+00  0.00000000000E+00  0.89338077507E+03  0.11066192249E+04  0.65305198853E+03 0.  0.
         13    1    3    3    0    0 -0.22837058943E+03 -0.26531896213E+02  0.53784263339E+02  0.23611398649E+03  0.00000000000E+00 0. -1.
          4    1    3    3  501    0  0.22837058943E+03  0.26531896213E+02  0.83959651173E+03  0.87050523844E+03  0.00000000000E+00 0. -1.
<mgrwt>
<rscale>  0 0.65305199E+03</rscale>
<asrwt>0</asrwt>
<pdfrwt beam="1">0</pdfrwt>
<pdfrwt beam="2">  1        2 0.38770709E+00 0.65305199E+03</pdfrwt>
<totfact> 0.44254923E+00</totfact>
</mgrwt>
</event>
<event>
 5    1  0.2357694E-004  0.6417884E+03  0.7818608E-02  0.9822311E-01
         13   -1    0    0    0    0  0.00000000000E+00  0.00000000000E+00  0.10000000000E+04  0.10000000000E+04  0.00000000000E+00 0. -1.
          2   -1    0    0  501    0 -0.00000000000E+00 -0.00000000000E+00 -0.10297309831E+03  0.10297309831E+03  0.00000000000E+00 0. -1.
    9000006    2    1    2  501    0  0.00000000000E+00  0.00000000000E+00  0.89702690169E+03  0.11029730983E+04  0.64178843340E+03 0.  0.
         13    1    3    3    0    0  0.30680538207E+03 -0.92073887807E+02  0.48139005066E+03  0.57822445828E+03  0.00000000000E+00 0. -1.
          2    1    3    3  501    0 -0.30680538207E+03  0.92073887807E+02  0.41563685103E+03  0.52474864003E+03  0.00000000000E+00 0. -1.
<mgrwt>
<rscale>  0 0.64178843E+03</rscale>
<asrwt>0</asrwt>
<pdfrwt beam="1">0</pdfrwt>
<pdfrwt beam="2">  1        2 0.37444842E+00 0.64178843E+03</pdfrwt>
<totfact> 0.49579768E+00</totfact>
</mgrwt>
</event>
<event>
 5    1  0.2357694E-004  0.6474817E+03  0.7818608E-02  0.9811516E-01
         13   -1    0    0    0    0  0.00000000000E+00  0.00000000000E+00  0.10000000000E+04  0.10000000000E+04  0.00000000000E+00 0. -1.
          2   -1    0    0  501    0 -0.00000000000E+00 -0.00000000000E+00 -0.10480815101E+03  0.10480815101E+03  0.00000000000E+00 0. -1.
    9000006    2    1    2  501    0  0.00000000000E+00  0.00000000000E+00  0.89519184899E+03  0.11048081510E+04  0.64748174031E+03 0.  0.
         13    1    3    3    0    0  0.25817077001E+03 -0.74180367384E+02  0.13926098901E+03  0.30256982079E+03  0.00000000000E+00 0. -1.
          4    1    3    3  501    0 -0.25817077001E+03  0.74180367384E+02  0.75593085998E+03  0.80223833021E+03  0.00000000000E+00 0. -1.
<mgrwt>
<rscale>  0 0.64748174E+03</rscale>
<asrwt>0</asrwt>
<pdfrwt beam="1">0</pdfrwt>
<pdfrwt beam="2">  1        2 0.38112135E+00 0.64748174E+03</pdfrwt>
<totfact> 0.46831077E+00</totfact>
</mgrwt>
</event>
<event>
 5    1  0.2357694E-004  0.6454424E+03  0.7818608E-02  0.9815369E-01
         13   -1    0    0    0    0  0.00000000000E+00  0.00000000000E+00  0.10000000000E+04  0.10000000000E+04  0.00000000000E+00 0. -1.
          2   -1    0    0  501    0 -0.00000000000E+00 -0.00000000000E+00 -0.10414897290E+03  0.10414897290E+03  0.00000000000E+00 0. -1.
    9000006    2    1    2  501    0  0.00000000000E+00  0.00000000000E+00  0.89585102710E+03  0.11041489729E+04  0.64544239992E+03 0.  0.
         13    1    3    3    0    0 -0.14826393657E+03  0.21727393005E+03  0.76777712818E+03  0.81158602386E+03  0.00000000000E+00 0. -1.
          2    1    3    3  501    0  0.14826393657E+03 -0.21727393005E+03  0.12807389891E+03  0.29256294904E+03  0.00000000000E+00 0. -1.
<mgrwt>
<rscale>  0 0.64544240E+03</rscale>
<asrwt>0</asrwt>
<pdfrwt beam="1">0</pdfrwt>
<pdfrwt beam="2">  1        2 0.37872434E+00 0.64544240E+03</pdfrwt>
<totfact> 0.47802027E+00</totfact>
</mgrwt>
</event>
<event>
 5    1  0.2357694E-004  0.6375822E+03  0.7818608E-02  0.9830363E-01
         13   -1    0    0    0    0  0.00000000000E+00  0.00000000000E+00  0.10000000000E+04  0.10000000000E+04  0.00000000000E+00 0. -1.
          2   -1    0    0  501    0 -0.00000000000E+00 -0.00000000000E+00 -0.10162777536E+03  0.10162777536E+03  0.00000000000E+00 0. -1.
    9000006    2    1    2  501    0  0.00000000000E+00  0.00000000000E+00  0.89837222464E+03  0.11016277754E+04  0.63758223111E+03 0.  0.
         13    1    3    3    0    0  0.12744005194E+03  0.67983595614E+02  0.94021876903E+03  0.95124868975E+03  0.00000000000E+00 0. -1.
          4    1    3    3  501    0 -0.12744005194E+03 -0.67983595614E+02 -0.41846544391E+02  0.15037908560E+03  0.00000000000E+00 0. -1.
<mgrwt>
<rscale>  0 0.63758223E+03</rscale>
<asrwt>0</asrwt>
<pdfrwt beam="1">0</pdfrwt>
<pdfrwt beam="2">  1        2 0.36955633E+00 0.63758223E+03</pdfrwt>
<totfact> 0.51687814E+00</totfact>
</mgrwt>
</event>
<event>
 5    1  0.2357694E-004  0.6507223E+03  0.7818608E-02  0.9805425E-01
         13   -1    0    0    0    0  0.00000000000E+00  0.00000000000E+00  0.10000000000E+04  0.10000000000E+04  0.00000000000E+00 0. -1.
          2   -1    0    0  501    0 -0.00000000000E+00 -0.00000000000E+00 -0.10585987853E+03  0.10585987853E+03  0.00000000000E+00 0. -1.
    9000006    2    1    2  501    0  0.00000000000E+00  0.00000000000E+00  0.89414012147E+03  0.11058598785E+04  0.65072230185E+03 0.  0.
         13    1    3    3    0    0  0.26873320463E+03 -0.52144324916E+02  0.74591603928E+03  0.79456107604E+03  0.00000000000E+00 0. -1.
          4    1    3    3  501    0 -0.26873320463E+03  0.52144324916E+02  0.14822408219E+03  0.31129880249E+03  0.00000000000E+00 0. -1.
<mgrwt>
<rscale>  0 0.65072230E+03</rscale>
<asrwt>0</asrwt>
<pdfrwt beam="1">0</pdfrwt>
<pdfrwt beam="2">  1        2 0.38494582E+00 0.65072230E+03</pdfrwt>
<totfact> 0.45318978E+00</totfact>
</mgrwt>
</event>
<event>
 5    1  0.2357694E-004  0.6532465E+03  0.7818608E-02  0.9800706E-01
         13   -1    0    0    0    0  0.00000000000E+00  0.00000000000E+00  0.10000000000E+04  0.10000000000E+04  0.00000000000E+00 0. -1.
          2   -1    0    0  501    0 -0.00000000000E+00 -0.00000000000E+00 -0.10668273610E+03  0.10668273610E+03  0.00000000000E+00 0. -1.
    9000006    2    1    2  501    0  0.00000000000E+00  0.00000000000E+00  0.89331726390E+03  0.11066827361E+04  0.65324646529E+03 0.  0.
         13    1    3    3    0    0 -0.29834789788E+02 -0.41285566728E+01 -0.10432508832E+03  0.10858583570E+03  0.00000000000E+00 0. -1.
          4    1    3    3  501    0  0.29834789788E+02  0.41285566728E+01  0.99764235222E+03  0.99809690040E+03  0.00000000000E+00 0. -1.
<mgrwt>
<rscale>  0 0.65324647E+03</rscale>
<asrwt>0</asrwt>
<pdfrwt beam="1">0</pdfrwt>
<pdfrwt beam="2">  1        2 0.38793804E+00 0.65324647E+03</pdfrwt>
<totfact> 0.44166960E+00</totfact>
</mgrwt>
</event>
<event>
 5    1  0.2357694E-004  0.6497877E+03  0.7818608E-02  0.9807178E-01
         13   -1    0    0    0    0  0.00000000000E+00  0.00000000000E+00  0.10000000000E+04  0.10000000000E+04  0.00000000000E+00 0. -1.
          2   -1    0    0  501    0 -0.00000000000E+00 -0.00000000000E+00 -0.10555602858E+03  0.10555602858E+03  0.00000000000E+00 0. -1.
    9000006    2    1    2  501    0  0.00000000000E+00  0.00000000000E+00  0.89444397142E+03  0.11055560286E+04  0.64978774558E+03 0.  0.
         13    1    3    3    0    0 -0.50768034491E+02  0.26456083745E+03  0.13820996449E+03  0.30277355288E+03  0.00000000000E+00 0. -1.
          4    1    3    3  501    0  0.50768034491E+02 -0.26456083745E+03  0.75623400694E+03  0.80278247570E+03  0.00000000000E+00 0. -1.
<mgrwt>
<rscale>  0 0.64978775E+03</rscale>
<asrwt>0</asrwt>
<pdfrwt beam="1">0</pdfrwt>
<pdfrwt beam="2">  1        2 0.38384091E+00 0.64978775E+03</pdfrwt>
<totfact> 0.45751213E+00</totfact>
</mgrwt>
</event>
<event>
 5    1  0.2357694E-004  0.6849367E+03  0.7818608E-02  0.9743345E-01
         13   -1    0    0    0    0  0.00000000000E+00  0.00000000000E+00  0.10000000000E+04  0.10000000000E+04  0.00000000000E+00 0. -1.
          2   -1    0    0  501    0 -0.00000000000E+00 -0.00000000000E+00 -0.11728455679E+03  0.11728455679E+03  0.00000000000E+00 0. -1.
    9000006    2    1    2  501    0  0.00000000000E+00  0.00000000000E+00  0.88271544321E+03  0.11172845568E+04  0.68493665922E+03 0.  0.
         13    1    3    3    0    0 -0.86832650348E+02  0.30559640993E+03  0.64997249316E+03  0.72345927099E+03  0.00000000000E+00 0. -1.
          2    1    3    3  501    0  0.86832650348E+02 -0.30559640993E+03  0.23274295006E+03  0.39382528579E+03  0.00000000000E+00 0. -1.
<mgrwt>
<rscale>  0 0.68493666E+03</rscale>
<asrwt>0</asrwt>
<pdfrwt beam="1">0</pdfrwt>
<pdfrwt beam="2">  1        2 0.42649020E+00 0.68493666E+03</pdfrwt>
<totfact> 0.31502769E+00</totfact>
</mgrwt>
</event>
<event>
 5    1  0.2357694E-004  0.6050941E+03  0.7818608E-02  0.9894893E-01
         13   -1    0    0    0    0  0.00000000000E+00  0.00000000000E+00  0.10000000000E+04  0.10000000000E+04  0.00000000000E+00 0. -1.
          2   -1    0    0  501    0 -0.00000000000E+00 -0.00000000000E+00 -0.91534710518E+02  0.91534710518E+02  0.00000000000E+00 0. -1.
    9000006    2    1    2  501    0  0.00000000000E+00  0.00000000000E+00  0.90846528948E+03  0.10915347105E+04  0.60509407704E+03 0.  0.
         13    1    3    3    0    0 -0.10663325150E+03  0.19994202076E+03  0.81585792661E+03  0.84674176607E+03  0.00000000000E+00 0. -1.
          2    1    3    3  501    0  0.10663325150E+03 -0.19994202076E+03  0.92607362868E+02  0.24479294445E+03  0.00000000000E+00 0. -1.
<mgrwt>
<rscale>  0 0.60509408E+03</rscale>
<asrwt>0</asrwt>
<pdfrwt beam="1">0</pdfrwt>
<pdfrwt beam="2">  1        2 0.33285419E+00 0.60509408E+03</pdfrwt>
<totfact> 0.70354113E+00</totfact>
</mgrwt>
</event>
<event>
 5    1  0.2357694E-004  0.6467270E+03  0.7818608E-02  0.9812940E-01
         13   -1    0    0    0    0  0.00000000000E+00  0.00000000000E+00  0.10000000000E+04  0.10000000000E+04  0.00000000000E+00 0. -1.
          2   -1    0    0  501    0 -0.00000000000E+00 -0.00000000000E+00 -0.10456394580E+03  0.10456394580E+03  0.00000000000E+00 0. -1.
    9000006    2    1    2  501    0  0.00000000000E+00  0.00000000000E+00  0.89543605420E+03  0.11045639458E+04  0.64672697732E+03 0.  0.
         13    1    3    3    0    0 -0.15306502510E+02  0.20056100996E+03  0.15288213577E+02  0.20172440906E+03  0.00000000000E+00 0. -1.
          4    1    3    3  501    0  0.15306502510E+02 -0.20056100996E+03  0.88014784062E+03  0.90283953674E+03  0.00000000000E+00 0. -1.
<mgrwt>
<rscale>  0 0.64672698E+03</rscale>
<asrwt>0</asrwt>
<pdfrwt beam="1">0</pdfrwt>
<pdfrwt beam="2">  1        2 0.38023333E+00 0.64672698E+03</pdfrwt>
<totfact> 0.47188672E+00</totfact>
</mgrwt>
</event>
<event>
 5    1  0.2357694E-004  0.6528068E+03  0.7818608E-02  0.9801527E-01
         13   -1    0    0    0    0  0.00000000000E+00  0.00000000000E+00  0.10000000000E+04  0.10000000000E+04  0.00000000000E+00 0. -1.
          2   -1    0    0  501    0 -0.00000000000E+00 -0.00000000000E+00 -0.10653917978E+03  0.10653917978E+03  0.00000000000E+00 0. -1.
    9000006    2    1    2  501    0  0.00000000000E+00  0.00000000000E+00  0.89346082022E+03  0.11065391798E+04  0.65280680076E+03 0.  0.
         13    1    3    3    0    0 -0.15209314145E+03  0.57604841110E+02 -0.32966929199E+02  0.16594414668E+03  0.00000000000E+00 0. -1.
          4    1    3    3  501    0  0.15209314145E+03 -0.57604841110E+02  0.92642774942E+03  0.94059503310E+03  0.00000000000E+00 0. -1.
<mgrwt>
<rscale>  0 0.65280680E+03</rscale>
<asrwt>0</asrwt>
<pdfrwt beam="1">0</pdfrwt>
<pdfrwt beam="2">  1        2 0.38741602E+00 0.65280680E+03</pdfrwt>
<totfact> 0.44366012E+00</totfact>
</mgrwt>
</event>
<event>
 5    1  0.2357694E-004  0.6281511E+03  0.7818608E-02  0.9848664E-01
         13   -1    0    0    0    0  0.00000000000E+00  0.00000000000E+00  0.10000000000E+04  0.10000000000E+04  0.00000000000E+00 0. -1.
          2   -1    0    0  501    0 -0.00000000000E+00 -0.00000000000E+00 -0.98643438783E+02  0.98643438783E+02  0.00000000000E+00 0. -1.
    9000006    2    1    2  501    0  0.00000000000E+00  0.00000000000E+00  0.90135656122E+03  0.10986434388E+04  0.62815106076E+03 0.  0.
         13    1    3    3    0    0 -0.26781643558E+03  0.14983143667E+03  0.56759203046E+03  0.64524089736E+03  0.00000000000E+00 0. -1.
          2    1    3    3  501    0  0.26781643558E+03 -0.14983143667E+03  0.33376453076E+03  0.45340254143E+03  0.00000000000E+00 0. -1.
<mgrwt>
<rscale>  0 0.62815106E+03</rscale>
<asrwt>0</asrwt>
<pdfrwt beam="1">0</pdfrwt>
<pdfrwt beam="2">  1        2 0.35870417E+00 0.62815106E+03</pdfrwt>
<totfact> 0.56661102E+00</totfact>
</mgrwt>
</event>
<event>
 5    1  0.2357694E-004  0.6455780E+03  0.7818608E-02  0.9815112E-01
         13   -1    0    0    0    0  0.00000000000E+00  0.00000000000E+00  0.10000000000E+04  0.10000000000E+04  0.00000000000E+00 0. -1.
          2   -1    0    0  501    0 -0.00000000000E+00 -0.00000000000E+00 -0.10419273649E+03  0.10419273649E+03  0.00000000000E+00 0. -1.
    9000006    2    1    2  501    0  0.00000000000E+00  0.00000000000E+00  0.89580726351E+03  0.11041927365E+04  0.64557799369E+03 0.  0.
         13    1    3    3    0    0 -0.80670828126E+02  0.30426272542E+03  0.57015969455E+03  0.65128002110E+03  0.00000000000E+00 0. -1.
          2    1    3    3  501    0  0.80670828126E+02 -0.30426272542E+03  0.32564756896E+03  0.45291271539E+03  0.00000000000E+00 0. -1.
<mgrwt>
<rscale>  0 0.64557799E+03</rscale>
<asrwt>0</asrwt>
<pdfrwt beam="1">0</pdfrwt>
<pdfrwt beam="2">  1        2 0.37888348E+00 0.64557799E+03</pdfrwt>
<totfact> 0.47737001E+00</totfact>
</mgrwt>
</event>
<event>
 5    1  0.2357694E-004  0.6427272E+03  0.7818608E-02  0.9820523E-01
         13   -1    0    0    0    0  0.00000000000E+00  0.00000000000E+00  0.10000000000E+04  0.10000000000E+04  0.00000000000E+00 0. -1.
          2   -1    0    0  501    0 -0.00000000000E+00 -0.00000000000E+00 -0.10327456087E+03  0.10327456087E+03  0.00000000000E+00 0. -1.
    9000006    2    1    2  501    0  0.00000000000E+00  0.00000000000E+00  0.89672543913E+03  0.11032745609E+04  0.64272719212E+03 0.  0.
         13    1    3    3    0    0 -0.21428007025E+03  0.23524741355E+03  0.52545991837E+03  0.61430075688E+03  0.00000000000E+00 0. -1.
          2    1    3    3  501    0  0.21428007025E+03 -0.23524741355E+03  0.37126552075E+03  0.48897380399E+03  0.00000000000E+00 0. -1.
<mgrwt>
<rscale>  0 0.64272719E+03</rscale>
<asrwt>0</asrwt>
<pdfrwt beam="1">0</pdfrwt>
<pdfrwt beam="2">  1        2 0.37554465E+00 0.64272719E+03</pdfrwt>
<totfact> 0.49118313E+00</totfact>
</mgrwt>
</event>
<event>
 5    1  0.2357694E-004  0.6443482E+03  0.7818608E-02  0.9817443E-01
         13   -1    0    0    0    0  0.00000000000E+00  0.00000000000E+00  0.10000000000E+04  0.10000000000E+04  0.00000000000E+00 0. -1.
          2   -1    0    0  501    0 -0.00000000000E+00 -0.00000000000E+00 -0.10379614196E+03  0.10379614196E+03  0.00000000000E+00 0. -1.
    9000006    2    1    2  501    0  0.00000000000E+00  0.00000000000E+00  0.89620385804E+03  0.11037961420E+04  0.64434817283E+03 0.  0.
         13    1    3    3    0    0 -0.27682274969E+03  0.10079005417E+03  0.67149923976E+03  0.73328077758E+03  0.00000000000E+00 0. -1.
          4    1    3    3  501    0  0.27682274969E+03 -0.10079005417E+03  0.22470461828E+03  0.37051536438E+03  0.00000000000E+00 0. -1.
<mgrwt>
<rscale>  0 0.64434817E+03</rscale>
<asrwt>0</asrwt>
<pdfrwt beam="1">0</pdfrwt>
<pdfrwt beam="2">  1        2 0.37744131E+00 0.64434817E+03</pdfrwt>
<totfact> 0.48329235E+00</totfact>
</mgrwt>
</event>
<event>
 5    1  0.2357694E-004  0.6384189E+03  0.7818608E-02  0.9828756E-01
         13   -1    0    0    0    0  0.00000000000E+00  0.00000000000E+00  0.10000000000E+04  0.10000000000E+04  0.00000000000E+00 0. -1.
          2   -1    0    0  501    0 -0.00000000000E+00 -0.00000000000E+00 -0.10189467314E+03  0.10189467314E+03  0.00000000000E+00 0. -1.
    9000006    2    1    2  501    0  0.00000000000E+00  0.00000000000E+00  0.89810532686E+03  0.11018946731E+04  0.63841890053E+03 0.  0.
         13    1    3    3    0    0 -0.16810523952E+03 -0.10138226029E+02  0.91708306748E+03  0.93241809712E+03  0.00000000000E+00 0. -1.
          4    1    3    3  501    0  0.16810523952E+03  0.10138226029E+02 -0.18977740615E+02  0.16947657602E+03  0.00000000000E+00 0. -1.
<mgrwt>
<rscale>  0 0.63841890E+03</rscale>
<asrwt>0</asrwt>
<pdfrwt beam="1">0</pdfrwt>
<pdfrwt beam="2">  1        2 0.37052687E+00 0.63841890E+03</pdfrwt>
<totfact> 0.51263188E+00</totfact>
</mgrwt>
</event>
<event>
 5    1  0.2357694E-004  0.6623951E+03  0.7818608E-02  0.9783795E-01
         13   -1    0    0    0    0  0.00000000000E+00  0.00000000000E+00  0.10000000000E+04  0.10000000000E+04  0.00000000000E+00 0. -1.
          2   -1    0    0  501    0 -0.00000000000E+00 -0.00000000000E+00 -0.10969182268E+03  0.10969182268E+03  0.00000000000E+00 0. -1.
    9000006    2    1    2  501    0  0.00000000000E+00  0.00000000000E+00  0.89030817732E+03  0.11096918227E+04  0.66239511678E+03 0.  0.
         13    1    3    3    0    0  0.29079520069E+03  0.13212495148E+03  0.29840782722E+03  0.43711106471E+03  0.00000000000E+00 0. -1.
          4    1    3    3  501    0 -0.29079520069E+03 -0.13212495148E+03  0.59190035010E+03  0.67258075797E+03  0.00000000000E+00 0. -1.
<mgrwt>
<rscale>  0 0.66239512E+03</rscale>
<asrwt>0</asrwt>
<pdfrwt beam="1">0</pdfrwt>
<pdfrwt beam="2">  1        2 0.39888020E+00 0.66239512E+03</pdfrwt>
<totfact> 0.40176065E+00</totfact>
</mgrwt>
</event>
<event>
 5    1  0.2357694E-004  0.6445448E+03  0.7818608E-02  0.9817070E-01
         13   -1    0    0    0    0  0.00000000000E+00  0.00000000000E+00  0.10000000000E+04  0.10000000000E+04  0.00000000000E+00 0. -1.
          2   -1    0    0  501    0 -0.00000000000E+00 -0.00000000000E+00 -0.10385948483E+03  0.10385948483E+03  0.00000000000E+00 0. -1.
    9000006    2    1    2  501    0  0.00000000000E+00  0.00000000000E+00  0.89614051517E+03  0.11038594848E+04  0.64454475355E+03 0.  0.
         13    1    3    3    0    0  0.53431936043E+02  0.22403567769E+03  0.83412253409E+03  0.86533655796E+03  0.00000000000E+00 0. -1.
          2    1    3    3  501    0 -0.53431936043E+02 -0.22403567769E+03  0.62017981080E+02  0.23852292687E+03  0.00000000000E+00 0. -1.
<mgrwt>
<rscale>  0 0.64454475E+03</rscale>
<asrwt>0</asrwt>
<pdfrwt beam="1">0</pdfrwt>
<pdfrwt beam="2">  1        2 0.37767165E+00 0.64454475E+03</pdfrwt>
<totfact> 0.48234198E+00</totfact>
</mgrwt>
</event>
<event>
 5    1  0.2357694E-004  0.6578932E+03  0.7818608E-02  0.9792080E-01
         13   -1    0    0    0    0  0.00000000000E+00  0.00000000000E+00  0.10000000000E+04  0.10000000000E+04  0.00000000000E+00 0. -1.
          2   -1    0    0  501    0 -0.00000000000E+00 -0.00000000000E+00 -0.10820586713E+03  0.10820586713E+03  0.00000000000E+00 0. -1.
    9000006    2    1    2  501    0  0.00000000000E+00  0.00000000000E+00  0.89179413287E+03  0.11082058671E+04  0.65789320450E+03 0.  0.
         13    1    3    3    0    0 -0.58913239050E+02  0.29282784549E+03  0.67800642498E+03  0.74088570586E+03  0.00000000000E+00 0. -1.
          4    1    3    3  501    0  0.58913239050E+02 -0.29282784549E+03  0.21378770789E+03  0.36732016127E+03  0.00000000000E+00 0. -1.
<mgrwt>
<rscale>  0 0.65789320E+03</rscale>
<asrwt>0</asrwt>
<pdfrwt beam="1">0</pdfrwt>
<pdfrwt beam="2">  1        2 0.39347671E+00 0.65789320E+03</pdfrwt>
<totfact> 0.42104194E+00</totfact>
</mgrwt>
</event>
<event>
 5    1  0.2357694E-004  0.6428951E+03  0.7818608E-02  0.9820203E-01
         13   -1    0    0    0    0  0.00000000000E+00  0.00000000000E+00  0.10000000000E+04  0.10000000000E+04  0.00000000000E+00 0. -1.
          2   -1    0    0  501    0 -0.00000000000E+00 -0.00000000000E+00 -0.10332852019E+03  0.10332852019E+03  0.00000000000E+00 0. -1.
    9000006    2    1    2  501    0  0.00000000000E+00  0.00000000000E+00  0.89667147981E+03  0.11033285202E+04  0.64289507757E+03 0.  0.
         13    1    3    3    0    0 -0.16143745878E+03  0.27795556008E+03  0.44373913912E+03  0.54792861767E+03  0.00000000000E+00 0. -1.
          2    1    3    3  501    0  0.16143745878E+03 -0.27795556008E+03  0.45293234069E+03  0.55539990252E+03  0.00000000000E+00 0. -1.
<mgrwt>
<rscale>  0 0.64289508E+03</rscale>
<asrwt>0</asrwt>
<pdfrwt beam="1">0</pdfrwt>
<pdfrwt beam="2">  1        2 0.37574087E+00 0.64289508E+03</pdfrwt>
<totfact> 0.49036138E+00</totfact>
</mgrwt>
</event>
<event>
 5    1  0.2357694E-004  0.6423083E+03  0.7818608E-02  0.9821320E-01
         13   -1    0    0    0    0  0.00000000000E+00  0.00000000000E+00  0.10000000000E+04  0.10000000000E+04  0.00000000000E+00 0. -1.
          2   -1    0    0  501    0 -0.00000000000E+00 -0.00000000000E+00 -0.10313997633E+03  0.10313997633E+03  0.00000000000E+00 0. -1.
    9000006    2    1    2  501    0  0.00000000000E+00  0.00000000000E+00  0.89686002367E+03  0.11031399763E+04  0.64230826346E+03 0.  0.
         13    1    3    3    0    0 -0.15109767772E+03  0.27251089121E+03  0.58198719007E+03  0.66015284854E+03  0.00000000000E+00 0. -1.
          4    1    3    3  501    0  0.15109767772E+03 -0.27251089121E+03  0.31487283361E+03  0.44298712778E+03  0.00000000000E+00 0. -1.
<mgrwt>
<rscale>  0 0.64230826E+03</rscale>
<asrwt>0</asrwt>
<pdfrwt beam="1">0</pdfrwt>
<pdfrwt beam="2">  1        2 0.37505525E+00 0.64230826E+03</pdfrwt>
<totfact> 0.49323837E+00</totfact>
</mgrwt>
</event>
<event>
 5    1  0.2357694E-004  0.6623646E+03  0.7818608E-02  0.9783851E-01
         13   -1    0    0    0    0  0.00000000000E+00  0.00000000000E+00  0.10000000000E+04  0.10000000000E+04  0.00000000000E+00 0. -1.
          2   -1    0    0  501    0 -0.00000000000E+00 -0.00000000000E+00 -0.10968171195E+03  0.10968171195E+03  0.00000000000E+00 0. -1.
    9000006    2    1    2  501    0  0.00000000000E+00  0.00000000000E+00  0.89031828805E+03  0.11096817120E+04  0.66236458829E+03 0.  0.
         13    1    3    3    0    0 -0.93322583727E+02 -0.24899551690E+02  0.97587941976E+03  0.98064760961E+03  0.00000000000E+00 0. -1.
          2    1    3    3  501    0  0.93322583727E+02  0.24899551690E+02 -0.85561131718E+02  0.12903410235E+03  0.00000000000E+00 0. -1.
<mgrwt>
<rscale>  0 0.66236459E+03</rscale>
<asrwt>0</asrwt>
<pdfrwt beam="1">0</pdfrwt>
<pdfrwt beam="2">  1        2 0.39884343E+00 0.66236459E+03</pdfrwt>
<totfact> 0.40188911E+00</totfact>
</mgrwt>
</event>
<event>
 5    1  0.2357694E-004  0.6514003E+03  0.7818608E-02  0.9804155E-01
         13   -1    0    0    0    0  0.00000000000E+00  0.00000000000E+00  0.10000000000E+04  0.10000000000E+04  0.00000000000E+00 0. -1.
          2   -1    0    0  501    0 -0.00000000000E+00 -0.00000000000E+00 -0.10608059845E+03  0.10608059845E+03  0.00000000000E+00 0. -1.
    9000006    2    1    2  501    0  0.00000000000E+00  0.00000000000E+00  0.89391940155E+03  0.11060805984E+04  0.65140033296E+03 0.  0.
         13    1    3    3    0    0  0.11926828968E+03 -0.20944686071E+03  0.74993308242E+02  0.25242208435E+03  0.00000000000E+00 0. -1.
          2    1    3    3  501    0 -0.11926828968E+03  0.20944686071E+03  0.81892609331E+03  0.85365851410E+03  0.00000000000E+00 0. -1.
<mgrwt>
<rscale>  0 0.65140033E+03</rscale>
<asrwt>0</asrwt>
<pdfrwt beam="1">0</pdfrwt>
<pdfrwt beam="2">  1        2 0.38574844E+00 0.65140033E+03</pdfrwt>
<totfact> 0.45007324E+00</totfact>
</mgrwt>
</event>
<event>
 5    1  0.2357694E-004  0.6678664E+03  0.7818608E-02  0.9773820E-01
         13   -1    0    0    0    0  0.00000000000E+00  0.00000000000E+00  0.10000000000E+04  0.10000000000E+04  0.00000000000E+00 0. -1.
          2   -1    0    0  501    0 -0.00000000000E+00 -0.00000000000E+00 -0.11151139576E+03  0.11151139576E+03  0.00000000000E+00 0. -1.
    9000006    2    1    2  501    0  0.00000000000E+00  0.00000000000E+00  0.88848860424E+03  0.11115113958E+04  0.66786644101E+03 0.  0.
         13    1    3    3    0    0  0.10239874814E+03 -0.19982697089E+03  0.32879248050E+02  0.22693031280E+03  0.00000000000E+00 0. -1.
          2    1    3    3  501    0 -0.10239874814E+03  0.19982697089E+03  0.85560935619E+03  0.88458108296E+03  0.00000000000E+00 0. -1.
<mgrwt>
<rscale>  0 0.66786644E+03</rscale>
<asrwt>0</asrwt>
<pdfrwt beam="1">0</pdfrwt>
<pdfrwt beam="2">  1        2 0.40549684E+00 0.66786644E+03</pdfrwt>
<totfact> 0.37923299E+00</totfact>
</mgrwt>
</event>
<event>
 5    1  0.2357694E-004  0.6520773E+03  0.7818608E-02  0.9802889E-01
         13   -1    0    0    0    0  0.00000000000E+00  0.00000000000E+00  0.10000000000E+04  0.10000000000E+04  0.00000000000E+00 0. -1.
          2   -1    0    0  501    0 -0.00000000000E+00 -0.00000000000E+00 -0.10630121509E+03  0.10630121509E+03  0.00000000000E+00 0. -1.
    9000006    2    1    2  501    0  0.00000000000E+00  0.00000000000E+00  0.89369878491E+03  0.11063012151E+04  0.65207734230E+03 0.  0.
         13    1    3    3    0    0 -0.46526570912E+01 -0.27651264358E+03  0.73982433071E+03  0.78982335341E+03  0.00000000000E+00 0. -1.
          4    1    3    3  501    0  0.46526570912E+01  0.27651264358E+03  0.15387445420E+03  0.31647786168E+03  0.00000000000E+00 0. -1.
<mgrwt>
<rscale>  0 0.65207734E+03</rscale>
<asrwt>0</asrwt>
<pdfrwt beam="1">0</pdfrwt>
<pdfrwt beam="2">  1        2 0.38655069E+00 0.65207734E+03</pdfrwt>
<totfact> 0.44697758E+00</totfact>
</mgrwt>
</event>
<event>
 5    1  0.2357694E-004  0.6530578E+03  0.7818608E-02  0.9801058E-01
         13   -1    0    0    0    0  0.00000000000E+00  0.00000000000E+00  0.10000000000E+04  0.10000000000E+04  0.00000000000E+00 0. -1.
          2   -1    0    0  501    0 -0.00000000000E+00 -0.00000000000E+00 -0.10662111688E+03  0.10662111688E+03  0.00000000000E+00 0. -1.
    9000006    2    1    2  501    0  0.00000000000E+00  0.00000000000E+00  0.89337888312E+03  0.11066211169E+04  0.65305778268E+03 0.  0.
         13    1    3    3    0    0 -0.14929338236E+03  0.20793959154E+03  0.79019606926E+03  0.83062459368E+03  0.00000000000E+00 0. -1.
          4    1    3    3  501    0  0.14929338236E+03 -0.20793959154E+03  0.10318281386E+03  0.27599652320E+03  0.00000000000E+00 0. -1.
<mgrwt>
<rscale>  0 0.65305778E+03</rscale>
<asrwt>0</asrwt>
<pdfrwt beam="1">0</pdfrwt>
<pdfrwt beam="2">  1        2 0.38771397E+00 0.65305778E+03</pdfrwt>
<totfact> 0.44252301E+00</totfact>
</mgrwt>
</event>
<event>
 5    1  0.2357694E-004  0.6597303E+03  0.7818608E-02  0.9788690E-01
         13   -1    0    0    0    0  0.00000000000E+00  0.00000000000E+00  0.10000000000E+04  0.10000000000E+04  0.00000000000E+00 0. -1.
          2   -1    0    0  501    0 -0.00000000000E+00 -0.00000000000E+00 -0.10881100834E+03  0.10881100834E+03  0.00000000000E+00 0. -1.
    9000006    2    1    2  501    0  0.00000000000E+00  0.00000000000E+00  0.89118899166E+03  0.11088110083E+04  0.65973027319E+03 0.  0.
         13    1    3    3    0    0  0.24341348152E+03  0.22221032461E+03  0.46835900311E+03  0.57270211030E+03  0.00000000000E+00 0. -1.
          4    1    3    3  501    0 -0.24341348152E+03 -0.22221032461E+03  0.42282998855E+03  0.53610889804E+03  0.00000000000E+00 0. -1.
<mgrwt>
<rscale>  0 0.65973027E+03</rscale>
<asrwt>0</asrwt>
<pdfrwt beam="1">0</pdfrwt>
<pdfrwt beam="2">  1        2 0.39567723E+00 0.65973027E+03</pdfrwt>
<totfact> 0.41309142E+00</totfact>
</mgrwt>
</event>
<event>
 5    1  0.2357694E-004  0.6582342E+03  0.7818608E-02  0.9791450E-01
         13   -1    0    0    0    0  0.00000000000E+00  0.00000000000E+00  0.10000000000E+04  0.10000000000E+04  0.00000000000E+00 0. -1.
          2   -1    0    0  501    0 -0.00000000000E+00 -0.00000000000E+00 -0.10831806190E+03  0.10831806190E+03  0.00000000000E+00 0. -1.
    9000006    2    1    2  501    0  0.00000000000E+00  0.00000000000E+00  0.89168193810E+03  0.11083180619E+04  0.65823418903E+03 0.  0.
         13    1    3    3    0    0  0.42899067804E+02 -0.21488024855E+03  0.32357840660E+02  0.22149690988E+03  0.00000000000E+00 0. -1.
          4    1    3    3  501    0 -0.42899067804E+02  0.21488024855E+03  0.85932409744E+03  0.88682115202E+03  0.00000000000E+00 0. -1.
<mgrwt>
<rscale>  0 0.65823419E+03</rscale>
<asrwt>0</asrwt>
<pdfrwt beam="1">0</pdfrwt>
<pdfrwt beam="2">  1        2 0.39388469E+00 0.65823419E+03</pdfrwt>
<totfact> 0.41955746E+00</totfact>
</mgrwt>
</event>
<event>
 5    1  0.2357694E-004  0.7171550E+03  0.7818608E-02  0.9688336E-01
         13   -1    0    0    0    0  0.00000000000E+00  0.00000000000E+00  0.10000000000E+04  0.10000000000E+04  0.00000000000E+00 0. -1.
          2   -1    0    0  501    0 -0.00000000000E+00 -0.00000000000E+00 -0.12857783484E+03  0.12857783484E+03  0.00000000000E+00 0. -1.
    9000006    2    1    2  501    0  0.00000000000E+00  0.00000000000E+00  0.87142216516E+03  0.11285778348E+04  0.71715503161E+03 0.  0.
         13    1    3    3    0    0 -0.32933100074E+03  0.10784896662E+03  0.29073076191E+03  0.45234354596E+03  0.00000000000E+00 0. -1.
          4    1    3    3  501    0  0.32933100074E+03 -0.10784896662E+03  0.58069140325E+03  0.67623428888E+03  0.00000000000E+00 0. -1.
<mgrwt>
<rscale>  0 0.71715503E+03</rscale>
<asrwt>0</asrwt>
<pdfrwt beam="1">0</pdfrwt>
<pdfrwt beam="2">  1        2 0.46755675E+00 0.71715503E+03</pdfrwt>
<totfact> 0.21649397E+00</totfact>
</mgrwt>
</event>
<event>
 5    1  0.2357694E-004  0.6570582E+03  0.7818608E-02  0.9793624E-01
         13   -1    0    0    0    0  0.00000000000E+00  0.00000000000E+00  0.10000000000E+04  0.10000000000E+04  0.00000000000E+00 0. -1.
          2   -1    0    0  501    0 -0.00000000000E+00 -0.00000000000E+00 -0.10793136261E+03  0.10793136261E+03  0.00000000000E+00 0. -1.
    9000006    2    1    2  501    0  0.00000000000E+00  0.00000000000E+00  0.89206863739E+03  0.11079313626E+04  0.65705817889E+03 0.  0.
         13    1    3    3    0    0 -0.18216288346E+03  0.12952569283E+03  0.40044674162E+02  0.22707663275E+03  0.00000000000E+00 0. -1.
          2    1    3    3  501    0  0.18216288346E+03 -0.12952569283E+03  0.85202396323E+03  0.88085472986E+03  0.00000000000E+00 0. -1.
<mgrwt>
<rscale>  0 0.65705818E+03</rscale>
<asrwt>0</asrwt>
<pdfrwt beam="1">0</pdfrwt>
<pdfrwt beam="2">  1        2 0.39247851E+00 0.65705818E+03</pdfrwt>
<totfact> 0.42469399E+00</totfact>
</mgrwt>
</event>
<event>
 5    1  0.2357694E-004  0.6480237E+03  0.7818608E-02  0.9810495E-01
         13   -1    0    0    0    0  0.00000000000E+00  0.00000000000E+00  0.10000000000E+04  0.10000000000E+04  0.00000000000E+00 0. -1.
          2   -1    0    0  501    0 -0.00000000000E+00 -0.00000000000E+00 -0.10498367641E+03  0.10498367641E+03  0.00000000000E+00 0. -1.
    9000006    2    1    2  501    0  0.00000000000E+00  0.00000000000E+00  0.89501632359E+03  0.11049836764E+04  0.64802369220E+03 0.  0.
         13    1    3    3    0    0  0.89345894177E+02  0.57587219300E+02  0.96942260178E+03  0.97523287346E+03  0.00000000000E+00 0. -1.
          4    1    3    3  501    0 -0.89345894177E+02 -0.57587219300E+02 -0.74406278192E+02  0.12975080295E+03  0.00000000000E+00 0. -1.
<mgrwt>
<rscale>  0 0.64802369E+03</rscale>
<asrwt>0</asrwt>
<pdfrwt beam="1">0</pdfrwt>
<pdfrwt beam="2">  1        2 0.38175963E+00 0.64802369E+03</pdfrwt>
<totfact> 0.46575576E+00</totfact>
</mgrwt>
</event>
<event>
 5    1  0.2357694E-004  0.6532617E+03  0.7818608E-02  0.9800678E-01
         13   -1    0    0    0    0  0.00000000000E+00  0.00000000000E+00  0.10000000000E+04  0.10000000000E+04  0.00000000000E+00 0. -1.
          2   -1    0    0  501    0 -0.00000000000E+00 -0.00000000000E+00 -0.10668770130E+03  0.10668770130E+03  0.00000000000E+00 0. -1.
    9000006    2    1    2  501    0  0.00000000000E+00  0.00000000000E+00  0.89331229870E+03  0.11066877013E+04  0.65326166671E+03 0.  0.
         13    1    3    3    0    0  0.30717022300E+02  0.21572974289E+03  0.34448042157E+02  0.22061170648E+03  0.00000000000E+00 0. -1.
          2    1    3    3  501    0 -0.30717022300E+02 -0.21572974289E+03  0.85886425655E+03  0.88607599482E+03  0.00000000000E+00 0. -1.
<mgrwt>
<rscale>  0 0.65326167E+03</rscale>
<asrwt>0</asrwt>
<pdfrwt beam="1">0</pdfrwt>
<pdfrwt beam="2">  1        2 0.38795610E+00 0.65326167E+03</pdfrwt>
<totfact> 0.44160090E+00</totfact>
</mgrwt>
</event>
<event>
 5    1  0.2357694E-004  0.6566491E+03  0.7818608E-02  0.9794382E-01
         13   -1    0    0    0    0  0.00000000000E+00  0.00000000000E+00  0.10000000000E+04  0.10000000000E+04  0.00000000000E+00 0. -1.
          2   -1    0    0  501    0 -0.00000000000E+00 -0.00000000000E+00 -0.10779700076E+03  0.10779700076E+03  0.00000000000E+00 0. -1.
    9000006    2    1    2  501    0  0.00000000000E+00  0.00000000000E+00  0.89220299924E+03  0.11077970008E+04  0.65664907146E+03 0.  0.
         13    1    3    3    0    0 -0.24678824915E+03 -0.21472325709E+03  0.49341354411E+03  0.59200290757E+03  0.00000000000E+00 0. -1.
          4    1    3    3  501    0  0.24678824915E+03  0.21472325709E+03  0.39878945513E+03  0.51579409319E+03  0.00000000000E+00 0. -1.
<mgrwt>
<rscale>  0 0.65664907E+03</rscale>
<asrwt>0</asrwt>
<pdfrwt beam="1">0</pdfrwt>
<pdfrwt beam="2">  1        2 0.39198992E+00 0.65664907E+03</pdfrwt>
<totfact> 0.42649196E+00</totfact>
</mgrwt>
</event>
<event>
 5    1  0.2357694E-004  0.6365083E+03  0.7818608E-02  0.9832430E-01
         13   -1    0    0    0    0  0.00000000000E+00  0.00000000000E+00  0.10000000000E+04  0.10000000000E+04  0.00000000000E+00 0. -1.
          2   -1    0    0  501    0 -0.00000000000E+00 -0.00000000000E+00 -0.10128570314E+03  0.10128570314E+03  0.00000000000E+00 0. -1.
    9000006    2    1    2  501    0  0.00000000000E+00  0.00000000000E+00  0.89871429686E+03  0.11012857031E+04  0.63650829731E+03 0.  0.
         13    1    3    3    0    0 -0.31156720086E+03  0.61913661160E+02  0.48300855518E+03  0.57810439063E+03  0.00000000000E+00 0. -1.
          4    1    3    3  501    0  0.31156720086E+03 -0.61913661160E+02  0.41570574169E+03  0.52318131251E+03  0.00000000000E+00 0. -1.
<mgrwt>
<rscale>  0 0.63650830E+03</rscale>
<asrwt>0</asrwt>
<pdfrwt beam="1">0</pdfrwt>
<pdfrwt beam="2">  1        2 0.36831242E+00 0.63650830E+03</pdfrwt>
<totfact> 0.52236757E+00</totfact>
</mgrwt>
</event>
<event>
 5    1  0.2357694E-004  0.6486761E+03  0.7818608E-02  0.9809267E-01
         13   -1    0    0    0    0  0.00000000000E+00  0.00000000000E+00  0.10000000000E+04  0.10000000000E+04  0.00000000000E+00 0. -1.
          2   -1    0    0  501    0 -0.00000000000E+00 -0.00000000000E+00 -0.10519517163E+03  0.10519517163E+03  0.00000000000E+00 0. -1.
    9000006    2    1    2  501    0  0.00000000000E+00  0.00000000000E+00  0.89480482837E+03  0.11051951716E+04  0.64867610293E+03 0.  0.
         13    1    3    3    0    0  0.93993776547E+02 -0.31031412130E+03  0.46119008856E+03  0.56376057125E+03  0.00000000000E+00 0. -1.
          2    1    3    3  501    0 -0.93993776547E+02  0.31031412130E+03  0.43361473981E+03  0.54143460038E+03  0.00000000000E+00 0. -1.
<mgrwt>
<rscale>  0 0.64867610E+03</rscale>
<asrwt>0</asrwt>
<pdfrwt beam="1">0</pdfrwt>
<pdfrwt beam="2">  1        2 0.38252870E+00 0.64867610E+03</pdfrwt>
<totfact> 0.46269400E+00</totfact>
</mgrwt>
</event>
<event>
 5    1  0.2357694E-004  0.6497999E+03  0.7818608E-02  0.9807155E-01
         13   -1    0    0    0    0  0.00000000000E+00  0.00000000000E+00  0.10000000000E+04  0.10000000000E+04  0.00000000000E+00 0. -1.
          2   -1    0    0  501    0 -0.00000000000E+00 -0.00000000000E+00 -0.10555996892E+03  0.10555996892E+03  0.00000000000E+00 0. -1.
    9000006    2    1    2  501    0  0.00000000000E+00  0.00000000000E+00  0.89444003108E+03  0.11055599689E+04  0.64979987357E+03 0.  0.
         13    1    3    3    0    0  0.12897452196E+03  0.15570041358E+03  0.14509449005E+02  0.20270069120E+03  0.00000000000E+00 0. -1.
          4    1    3    3  501    0 -0.12897452196E+03 -0.15570041358E+03  0.87993058207E+03  0.90285927772E+03  0.00000000000E+00 0. -1.
<mgrwt>
<rscale>  0 0.64979987E+03</rscale>
<asrwt>0</asrwt>
<pdfrwt beam="1">0</pdfrwt>
<pdfrwt beam="2">  1        2 0.38385524E+00 0.64979987E+03</pdfrwt>
<totfact> 0.45745584E+00</totfact>
</mgrwt>
</event>
<event>
 5    1  0.2357694E-004  0.6569686E+03  0.7818608E-02  0.9793790E-01
         13   -1    0    0    0    0  0.00000000000E+00  0.00000000000E+00  0.10000000000E+04  0.10000000000E+04  0.00000000000E+00 0. -1.
          2   -1    0    0  501    0 -0.00000000000E+00 -0.00000000000E+00 -0.10790192123E+03  0.10790192123E+03  0.00000000000E+00 0. -1.
    9000006    2    1    2  501    0  0.00000000000E+00  0.00000000000E+00  0.89209807877E+03  0.11079019212E+04  0.65696855702E+03 0.  0.
         13    1    3    3    0    0  0.14874798901E+03  0.12329528564E+02 -0.47413664858E+02  0.15660790888E+03  0.00000000000E+00 0. -1.
          4    1    3    3  501    0 -0.14874798901E+03 -0.12329528564E+02  0.93951174363E+03  0.95129401235E+03  0.00000000000E+00 0. -1.
<mgrwt>
<rscale>  0 0.65696856E+03</rscale>
<asrwt>0</asrwt>
<pdfrwt beam="1">0</pdfrwt>
<pdfrwt beam="2">  1        2 0.39237145E+00 0.65696856E+03</pdfrwt>
<totfact> 0.42508738E+00</totfact>
</mgrwt>
</event>
<event>
 5    1  0.2357694E-004  0.6491889E+03  0.7818608E-02  0.9808302E-01
         13   -1    0    0    0    0  0.00000000000E+00  0.00000000000E+00  0.10000000000E+04  0.10000000000E+04  0.00000000000E+00 0. -1.
          2   -1    0    0  501    0 -0.00000000000E+00 -0.00000000000E+00 -0.10536155805E+03  0.10536155805E+03  0.00000000000E+00 0. -1.
    9000006    2    1    2  501    0  0.00000000000E+00  0.00000000000E+00  0.89463844195E+03  0.11053615581E+04  0.64918890334E+03 0.  0.
         13    1    3    3    0    0  0.13170846990E+03  0.23251417237E+02  0.95090364291E+03  0.96026323868E+03  0.00000000000E+00 0. -1.
          2    1    3    3  501    0 -0.13170846990E+03 -0.23251417237E+02 -0.56265200968E+02  0.14509831938E+03  0.00000000000E+00 0. -1.
<mgrwt>
<rscale>  0 0.64918890E+03</rscale>
<asrwt>0</asrwt>
<pdfrwt beam="1">0</pdfrwt>
<pdfrwt beam="2">  1        2 0.38313375E+00 0.64918890E+03</pdfrwt>
<totfact> 0.46029812E+00</totfact>
</mgrwt>
</event>
<event>
 5    1  0.2357694E-004  0.6803599E+03  0.7818608E-02  0.9751422E-01
         13   -1    0    0    0    0  0.00000000000E+00  0.00000000000E+00  0.10000000000E+04  0.10000000000E+04  0.00000000000E+00 0. -1.
          2   -1    0    0  501    0 -0.00000000000E+00 -0.00000000000E+00 -0.11572239045E+03  0.11572239045E+03  0.00000000000E+00 0. -1.
    9000006    2    1    2  501    0  0.00000000000E+00  0.00000000000E+00  0.88427760955E+03  0.11157223904E+04  0.68035987668E+03 0.  0.
         13    1    3    3    0    0  0.72934160211E+02 -0.96889218498E+02  0.96334721711E+03  0.97095044832E+03  0.00000000000E+00 0. -1.
          4    1    3    3  501    0 -0.72934160211E+02  0.96889218498E+02 -0.79069607559E+02  0.14477194212E+03  0.00000000000E+00 0. -1.
<mgrwt>
<rscale>  0 0.68035988E+03</rscale>
<asrwt>0</asrwt>
<pdfrwt beam="1">0</pdfrwt>
<pdfrwt beam="2">  1        2 0.42080958E+00 0.68035988E+03</pdfrwt>
<totfact> 0.33136856E+00</totfact>
</mgrwt>
</event>
<event>
 5    1  0.2357694E-004  0.6518502E+03  0.7818608E-02  0.9803314E-01
         13   -1    0    0    0    0  0.00000000000E+00  0.00000000000E+00  0.10000000000E+04  0.10000000000E+04  0.00000000000E+00 0. -1.
          2   -1    0    0  501    0 -0.00000000000E+00 -0.00000000000E+00 -0.10622717908E+03  0.10622717908E+03  0.00000000000E+00 0. -1.
    9000006    2    1    2  501    0  0.00000000000E+00  0.00000000000E+00  0.89377282092E+03  0.11062271791E+04  0.65185022537E+03 0.  0.
         13    1    3    3    0    0  0.16228055298E+03  0.17364665890E+03  0.82536838415E+03  0.85890692719E+03  0.00000000000E+00 0. -1.
          4    1    3    3  501    0 -0.16228055298E+03 -0.17364665890E+03  0.68404436774E+02  0.24732025189E+03  0.00000000000E+00 0. -1.
<mgrwt>
<rscale>  0 0.65185023E+03</rscale>
<asrwt>0</asrwt>
<pdfrwt beam="1">0</pdfrwt>
<pdfrwt beam="2">  1        2 0.38628147E+00 0.65185023E+03</pdfrwt>
<totfact> 0.44801428E+00</totfact>
</mgrwt>
</event>
<event>
 5    1  0.2357694E-004  0.6516618E+03  0.7818608E-02  0.9803666E-01
         13   -1    0    0    0    0  0.00000000000E+00  0.00000000000E+00  0.10000000000E+04  0.10000000000E+04  0.00000000000E+00 0. -1.
          2   -1    0    0  501    0 -0.00000000000E+00 -0.00000000000E+00 -0.10616576151E+03  0.10616576151E+03  0.00000000000E+00 0. -1.
    9000006    2    1    2  501    0  0.00000000000E+00  0.00000000000E+00  0.89383423849E+03  0.11061657615E+04  0.65166175739E+03 0.  0.
         13    1    3    3    0    0  0.24786827085E+03 -0.27596676888E+02  0.90995793209E+02  0.26548162018E+03  0.00000000000E+00 0. -1.
          4    1    3    3  501    0 -0.24786827085E+03  0.27596676888E+02  0.80283844528E+03  0.84068414133E+03  0.00000000000E+00 0. -1.
<mgrwt>
<rscale>  0 0.65166176E+03</rscale>
<asrwt>0</asrwt>
<pdfrwt beam="1">0</pdfrwt>
<pdfrwt beam="2">  1        2 0.38605813E+00 0.65166176E+03</pdfrwt>
<totfact> 0.44887595E+00</totfact>
</mgrwt>
</event>
<event>
 5    1  0.2357694E-004  0.6476147E+03  0.7818608E-02  0.9811265E-01
         13   -1    0    0    0    0  0.00000000000E+00  0.00000000000E+00  0.10000000000E+04  0.10000000000E+04  0.00000000000E+00 0. -1.
          2   -1    0    0  501    0 -0.00000000000E+00 -0.00000000000E+00 -0.10485120871E+03  0.10485120871E+03  0.00000000000E+00 0. -1.
    9000006    2    1    2  501    0  0.00000000000E+00  0.00000000000E+00  0.89514879129E+03  0.11048512087E+04  0.64761472717E+03 0.  0.
         13    1    3    3    0    0  0.69171717060E+02  0.31332972825E+03  0.52176154275E+03  0.61253191961E+03  0.00000000000E+00 0. -1.
          4    1    3    3  501    0 -0.69171717060E+02 -0.31332972825E+03  0.37338724854E+03  0.49231928910E+03  0.00000000000E+00 0. -1.
<mgrwt>
<rscale>  0 0.64761473E+03</rscale>
<asrwt>0</asrwt>
<pdfrwt beam="1">0</pdfrwt>
<pdfrwt beam="2">  1        2 0.38127793E+00 0.64761473E+03</pdfrwt>
<totfact> 0.46768283E+00</totfact>
</mgrwt>
</event>
<event>
 5    1  0.2357694E-004  0.6168563E+03  0.7818608E-02  0.9871039E-01
         13   -1    0    0    0    0  0.00000000000E+00  0.00000000000E+00  0.10000000000E+04  0.10000000000E+04  0.00000000000E+00 0. -1.
          2   -1    0    0  501    0 -0.00000000000E+00 -0.00000000000E+00 -0.95127930291E+02  0.95127930291E+02  0.00000000000E+00 0. -1.
    9000006    2    1    2  501    0  0.00000000000E+00  0.00000000000E+00  0.90487206971E+03  0.10951279303E+04  0.61685632133E+03 0.  0.
         13    1    3    3    0    0  0.14041899036E+03  0.20115555518E+03  0.78431906036E+03  0.82178916924E+03  0.00000000000E+00 0. -1.
          4    1    3    3  501    0 -0.14041899036E+03 -0.20115555518E+03  0.12055300935E+03  0.27333876106E+03  0.00000000000E+00 0. -1.
<mgrwt>
<rscale>  0 0.61685632E+03</rscale>
<asrwt>0</asrwt>
<pdfrwt beam="1">0</pdfrwt>
<pdfrwt beam="2">  1        2 0.34592048E+00 0.61685632E+03</pdfrwt>
<totfact> 0.63086736E+00</totfact>
</mgrwt>
</event>
<event>
 5    1  0.2357694E-004  0.6528640E+03  0.7818608E-02  0.9801420E-01
         13   -1    0    0    0    0  0.00000000000E+00  0.00000000000E+00  0.10000000000E+04  0.10000000000E+04  0.00000000000E+00 0. -1.
          2   -1    0    0  501    0 -0.00000000000E+00 -0.00000000000E+00 -0.10655786510E+03  0.10655786510E+03  0.00000000000E+00 0. -1.
    9000006    2    1    2  501    0  0.00000000000E+00  0.00000000000E+00  0.89344213490E+03  0.11065578651E+04  0.65286404436E+03 0.  0.
         13    1    3    3    0    0 -0.22807546891E+03 -0.22517740399E+03  0.55167782634E+03  0.63802171347E+03  0.00000000000E+00 0. -1.
          2    1    3    3  501    0  0.22807546891E+03  0.22517740399E+03  0.34176430856E+03  0.46853615164E+03  0.00000000000E+00 0. -1.
<mgrwt>
<rscale>  0 0.65286404E+03</rscale>
<asrwt>0</asrwt>
<pdfrwt beam="1">0</pdfrwt>
<pdfrwt beam="2">  1        2 0.38748396E+00 0.65286404E+03</pdfrwt>
<totfact> 0.44340057E+00</totfact>
</mgrwt>
</event>
<event>
 5    1  0.2357694E-004  0.6002715E+03  0.7818608E-02  0.9904843E-01
         13   -1    0    0    0    0  0.00000000000E+00  0.00000000000E+00  0.10000000000E+04  0.10000000000E+04  0.00000000000E+00 0. -1.
          2   -1    0    0  501    0 -0.00000000000E+00 -0.00000000000E+00 -0.90081479775E+02  0.90081479775E+02  0.00000000000E+00 0. -1.
    9000006    2    1    2  501    0  0.00000000000E+00  0.00000000000E+00  0.90991852023E+03  0.10900814798E+04  0.60027153780E+03 0.  0.
         13    1    3    3    0    0 -0.28932441050E+02 -0.43179875083E+02 -0.81846245536E+02  0.96955637616E+02  0.00000000000E+00 0. -1.
          4    1    3    3  501    0  0.28932441050E+02  0.43179875083E+02  0.99176476576E+03  0.99312584216E+03  0.00000000000E+00 0. -1.
<mgrwt>
<rscale>  0 0.60027154E+03</rscale>
<asrwt>0</asrwt>
<pdfrwt beam="1">0</pdfrwt>
<pdfrwt beam="2">  1        2 0.32756971E+00 0.60027154E+03</pdfrwt>
<totfact> 0.73512067E+00</totfact>
</mgrwt>
</event>
<event>
 5    1  0.2357694E-004  0.6732820E+03  0.7818608E-02  0.9764047E-01
         13   -1    0    0    0    0  0.00000000000E+00  0.00000000000E+00  0.10000000000E+04  0.10000000000E+04  0.00000000000E+00 0. -1.
          2   -1    0    0  501    0 -0.00000000000E+00 -0.00000000000E+00 -0.11332717377E+03  0.11332717377E+03  0.00000000000E+00 0. -1.
    9000006    2    1    2  501    0  0.00000000000E+00  0.00000000000E+00  0.88667282623E+03  0.11133271738E+04  0.67328203236E+03 0.  0.
         13    1    3    3    0    0  0.27936662388E+03  0.11952096509E+03  0.68294156797E+03  0.74748923530E+03  0.00000000000E+00 0. -1.
          4    1    3    3  501    0 -0.27936662388E+03 -0.11952096509E+03  0.20373125826E+03  0.36583793847E+03  0.00000000000E+00 0. -1.
<mgrwt>
<rscale>  0 0.67328203E+03</rscale>
<asrwt>0</asrwt>
<pdfrwt beam="1">0</pdfrwt>
<pdfrwt beam="2">  1        2 0.41209968E+00 0.67328203E+03</pdfrwt>
<totfact> 0.35788583E+00</totfact>
</mgrwt>
</event>
<event>
 5    1  0.2357694E-004  0.6664197E+03  0.7818608E-02  0.9776447E-01
         13   -1    0    0    0    0  0.00000000000E+00  0.00000000000E+00  0.10000000000E+04  0.10000000000E+04  0.00000000000E+00 0. -1.
          2   -1    0    0  501    0 -0.00000000000E+00 -0.00000000000E+00 -0.11102880712E+03  0.11102880712E+03  0.00000000000E+00 0. -1.
    9000006    2    1    2  501    0  0.00000000000E+00  0.00000000000E+00  0.88897119288E+03  0.11110288071E+04  0.66641970895E+03 0.  0.
         13    1    3    3    0    0 -0.31347575588E+03  0.26263512883E+02  0.26131032685E+03  0.40894976287E+03  0.00000000000E+00 0. -1.
          2    1    3    3  501    0  0.31347575588E+03 -0.26263512883E+02  0.62766086603E+03  0.70207904425E+03  0.00000000000E+00 0. -1.
<mgrwt>
<rscale>  0 0.66641971E+03</rscale>
<asrwt>0</asrwt>
<pdfrwt beam="1">0</pdfrwt>
<pdfrwt beam="2">  1        2 0.40374197E+00 0.66641971E+03</pdfrwt>
<totfact> 0.38509467E+00</totfact>
</mgrwt>
</event>
<event>
 5    1  0.2357694E-004  0.6473895E+03  0.7818608E-02  0.9811690E-01
         13   -1    0    0    0    0  0.00000000000E+00  0.00000000000E+00  0.10000000000E+04  0.10000000000E+04  0.00000000000E+00 0. -1.
          2   -1    0    0  501    0 -0.00000000000E+00 -0.00000000000E+00 -0.10477829537E+03  0.10477829537E+03  0.00000000000E+00 0. -1.
    9000006    2    1    2  501    0  0.00000000000E+00  0.00000000000E+00  0.89522170463E+03  0.11047782954E+04  0.64738951294E+03 0.  0.
         13    1    3    3    0    0 -0.39841887581E+02  0.25997019487E+03  0.12559769942E+03  0.29145610360E+03  0.00000000000E+00 0. -1.
          4    1    3    3  501    0  0.39841887581E+02 -0.25997019487E+03  0.76962400522E+03  0.81332219177E+03  0.00000000000E+00 0. -1.
<mgrwt>
<rscale>  0 0.64738951E+03</rscale>
<asrwt>0</asrwt>
<pdfrwt beam="1">0</pdfrwt>
<pdfrwt beam="2">  1        2 0.38101279E+00 0.64738951E+03</pdfrwt>
<totfact> 0.46874663E+00</totfact>
</mgrwt>
</event>
<event>
 5    1  0.2357694E-004  0.6319655E+03  0.7818608E-02  0.9841221E-01
         13   -1    0    0    0    0  0.00000000000E+00  0.00000000000E+00  0.10000000000E+04  0.10000000000E+04  0.00000000000E+00 0. -1.
          2   -1    0    0  501    0 -0.00000000000E+00 -0.00000000000E+00 -0.99845096470E+02  0.99845096470E+02  0.00000000000E+00 0. -1.
    9000006    2    1    2  501    0  0.00000000000E+00  0.00000000000E+00  0.90015490353E+03  0.10998450965E+04  0.63196549422E+03 0.  0.
         13    1    3    3    0    0 -0.28984741351E+03 -0.98235053945E+02  0.31322471190E+03  0.43791708015E+03  0.00000000000E+00 0. -1.
          4    1    3    3  501    0  0.28984741351E+03  0.98235053945E+02  0.58693019163E+03  0.66192801632E+03  0.00000000000E+00 0. -1.
<mgrwt>
<rscale>  0 0.63196549E+03</rscale>
<asrwt>0</asrwt>
<pdfrwt beam="1">0</pdfrwt>
<pdfrwt beam="2">  1        2 0.36307384E+00 0.63196549E+03</pdfrwt>
<totfact> 0.54607861E+00</totfact>
</mgrwt>
</event>
<event>
 5    1  0.2357694E-004  0.6152328E+03  0.7818608E-02  0.9874297E-01
         13   -1    0    0    0    0  0.00000000000E+00  0.00000000000E+00  0.10000000000E+04  0.10000000000E+04  0.00000000000E+00 0. -1.
          2   -1    0    0  501    0 -0.00000000000E+00 -0.00000000000E+00 -0.94627852853E+02  0.94627852853E+02  0.00000000000E+00 0. -1.
    9000006    2    1    2  501    0  0.00000000000E+00  0.00000000000E+00  0.90537214715E+03  0.10946278529E+04  0.61523281074E+03 0.  0.
         13    1    3    3    0    0 -0.24949802959E+02  0.14029413841E+03  0.93773815558E+03  0.94850291849E+03  0.00000000000E+00 0. -1.
          4    1    3    3  501    0  0.24949802959E+02 -0.14029413841E+03 -0.32366008438E+02  0.14612493437E+03  0.00000000000E+00 0. -1.
<mgrwt>
<rscale>  0 0.61523281E+03</rscale>
<asrwt>0</asrwt>
<pdfrwt beam="1">0</pdfrwt>
<pdfrwt beam="2">  1        2 0.34410201E+00 0.61523281E+03</pdfrwt>
<totfact> 0.64054072E+00</totfact>
</mgrwt>
</event>
<event>
 5    1  0.2357694E-004  0.6429991E+03  0.7818608E-02  0.9820005E-01
         13   -1    0    0    0    0  0.00000000000E+00  0.00000000000E+00  0.10000000000E+04  0.10000000000E+04  0.00000000000E+00 0. -1.
          2   -1    0    0  501    0 -0.00000000000E+00 -0.00000000000E+00 -0.10336196001E+03  0.10336196001E+03  0.00000000000E+00 0. -1.
    9000006    2    1    2  501    0  0.00000000000E+00  0.00000000000E+00  0.89663803999E+03  0.11033619600E+04  0.64299909801E+03 0.  0.
         13    1    3    3    0    0  0.11541799200E+03  0.16599934344E+03  0.19380487566E+02  0.20310760251E+03  0.00000000000E+00 0. -1.
          4    1    3    3  501    0 -0.11541799200E+03 -0.16599934344E+03  0.87725755243E+03  0.90025435749E+03  0.00000000000E+00 0. -1.
<mgrwt>
<rscale>  0 0.64299910E+03</rscale>
<asrwt>0</asrwt>
<pdfrwt beam="1">0</pdfrwt>
<pdfrwt beam="2">  1        2 0.37586247E+00 0.64299910E+03</pdfrwt>
<totfact> 0.48985276E+00</totfact>
</mgrwt>
</event>
<event>
 5    1  0.2357694E-004  0.6486095E+03  0.7818608E-02  0.9809392E-01
         13   -1    0    0    0    0  0.00000000000E+00  0.00000000000E+00  0.10000000000E+04  0.10000000000E+04  0.00000000000E+00 0. -1.
          2   -1    0    0  501    0 -0.00000000000E+00 -0.00000000000E+00 -0.10517358334E+03  0.10517358334E+03  0.00000000000E+00 0. -1.
    9000006    2    1    2  501    0  0.00000000000E+00  0.00000000000E+00  0.89482641666E+03  0.11051735833E+04  0.64860953844E+03 0.  0.
         13    1    3    3    0    0  0.15170770721E+03 -0.11760547230E+03  0.20192526690E+01  0.19196445744E+03  0.00000000000E+00 0. -1.
          2    1    3    3  501    0 -0.15170770721E+03  0.11760547230E+03  0.89280716399E+03  0.91320912589E+03  0.00000000000E+00 0. -1.
<mgrwt>
<rscale>  0 0.64860954E+03</rscale>
<asrwt>0</asrwt>
<pdfrwt beam="1">0</pdfrwt>
<pdfrwt beam="2">  1        2 0.38245020E+00 0.64860954E+03</pdfrwt>
<totfact> 0.46300569E+00</totfact>
</mgrwt>
</event>
<event>
 5    1  0.2357694E-004  0.6543801E+03  0.7818608E-02  0.9798595E-01
         13   -1    0    0    0    0  0.00000000000E+00  0.00000000000E+00  0.10000000000E+04  0.10000000000E+04  0.00000000000E+00 0. -1.
          2   -1    0    0  501    0 -0.00000000000E+00 -0.00000000000E+00 -0.10705332057E+03  0.10705332057E+03  0.00000000000E+00 0. -1.
    9000006    2    1    2  501    0  0.00000000000E+00  0.00000000000E+00  0.89294667943E+03  0.11070533206E+04  0.65438007479E+03 0.  0.
         13    1    3    3    0    0  0.26399590113E+03 -0.16042115966E+03  0.26407272790E+03  0.40640274347E+03  0.00000000000E+00 0. -1.
          2    1    3    3  501    0 -0.26399590113E+03  0.16042115966E+03  0.62887395153E+03  0.70065057710E+03  0.00000000000E+00 0. -1.
<mgrwt>
<rscale>  0 0.65438007E+03</rscale>
<asrwt>0</asrwt>
<pdfrwt beam="1">0</pdfrwt>
<pdfrwt beam="2">  1        2 0.38928562E+00 0.65438007E+03</pdfrwt>
<totfact> 0.43656846E+00</totfact>
</mgrwt>
</event>
<event>
 5    1  0.2357694E-004  0.6522753E+03  0.7818608E-02  0.9802519E-01
         13   -1    0    0    0    0  0.00000000000E+00  0.00000000000E+00  0.10000000000E+04  0.10000000000E+04  0.00000000000E+00 0. -1.
          2   -1    0    0  501    0 -0.00000000000E+00 -0.00000000000E+00 -0.10636577403E+03  0.10636577403E+03  0.00000000000E+00 0. -1.
    9000006    2    1    2  501    0  0.00000000000E+00  0.00000000000E+00  0.89363422597E+03  0.11063657740E+04  0.65227532232E+03 0.  0.
         13    1    3    3    0    0  0.26588111038E+03 -0.13667409295E+03  0.22570863885E+03  0.37458905776E+03  0.00000000000E+00 0. -1.
          2    1    3    3  501    0 -0.26588111038E+03  0.13667409295E+03  0.66792558712E+03  0.73177671627E+03  0.00000000000E+00 0. -1.
<mgrwt>
<rscale>  0 0.65227532E+03</rscale>
<asrwt>0</asrwt>
<pdfrwt beam="1">0</pdfrwt>
<pdfrwt beam="2">  1        2 0.38678545E+00 0.65227532E+03</pdfrwt>
<totfact> 0.44607535E+00</totfact>
</mgrwt>
</event>
<event>
 5    1  0.2357694E-004  0.6528548E+03  0.7818608E-02  0.9801437E-01
         13   -1    0    0    0    0  0.00000000000E+00  0.00000000000E+00  0.10000000000E+04  0.10000000000E+04  0.00000000000E+00 0. -1.
          2   -1    0    0  501    0 -0.00000000000E+00 -0.00000000000E+00 -0.10655485265E+03  0.10655485265E+03  0.00000000000E+00 0. -1.
    9000006    2    1    2  501    0  0.00000000000E+00  0.00000000000E+00  0.89344514735E+03  0.11065548526E+04  0.65285481587E+03 0.  0.
         13    1    3    3    0    0 -0.28886409224E+03  0.14371435833E+03  0.53076485007E+03  0.62113412935E+03  0.00000000000E+00 0. -1.
          4    1    3    3  501    0  0.28886409224E+03 -0.14371435833E+03  0.36268029728E+03  0.48542072330E+03  0.00000000000E+00 0. -1.
<mgrwt>
<rscale>  0 0.65285482E+03</rscale>
<asrwt>0</asrwt>
<pdfrwt beam="1">0</pdfrwt>
<pdfrwt beam="2">  1        2 0.38747301E+00 0.65285482E+03</pdfrwt>
<totfact> 0.44344241E+00</totfact>
</mgrwt>
</event>
<event>
 5    1  0.2357694E-004  0.6432486E+03  0.7818608E-02  0.9819531E-01
         13   -1    0    0    0    0  0.00000000000E+00  0.00000000000E+00  0.10000000000E+04  0.10000000000E+04  0.00000000000E+00 0. -1.
          2   -1    0    0  501    0 -0.00000000000E+00 -0.00000000000E+00 -0.10344217828E+03  0.10344217828E+03  0.00000000000E+00 0. -1.
    9000006    2    1    2  501    0  0.00000000000E+00  0.00000000000E+00  0.89655782172E+03  0.11034421783E+04  0.64324856248E+03 0.  0.
         13    1    3    3    0    0  0.15903544377E+03  0.22458776769E+03  0.73383465707E+03  0.78373799301E+03  0.00000000000E+00 0. -1.
          4    1    3    3  501    0 -0.15903544377E+03 -0.22458776769E+03  0.16272316465E+03  0.31970418528E+03  0.00000000000E+00 0. -1.
<mgrwt>
<rscale>  0 0.64324856E+03</rscale>
<asrwt>0</asrwt>
<pdfrwt beam="1">0</pdfrwt>
<pdfrwt beam="2">  1        2 0.37615417E+00 0.64324856E+03</pdfrwt>
<totfact> 0.48863459E+00</totfact>
</mgrwt>
</event>
<event>
 5    1  0.2357694E-004  0.6525316E+03  0.7818608E-02  0.9802040E-01
         13   -1    0    0    0    0  0.00000000000E+00  0.00000000000E+00  0.10000000000E+04  0.10000000000E+04  0.00000000000E+00 0. -1.
          2   -1    0    0  501    0 -0.00000000000E+00 -0.00000000000E+00 -0.10644938781E+03  0.10644938781E+03  0.00000000000E+00 0. -1.
    9000006    2    1    2  501    0  0.00000000000E+00  0.00000000000E+00  0.89355061219E+03  0.11064493878E+04  0.65253164770E+03 0.  0.
         13    1    3    3    0    0 -0.24862145461E+03  0.10749039321E+03  0.13836446968E+03  0.30415709559E+03  0.00000000000E+00 0. -1.
          2    1    3    3  501    0  0.24862145461E+03 -0.10749039321E+03  0.75518614250E+03  0.80229229222E+03  0.00000000000E+00 0. -1.
<mgrwt>
<rscale>  0 0.65253165E+03</rscale>
<asrwt>0</asrwt>
<pdfrwt beam="1">0</pdfrwt>
<pdfrwt beam="2">  1        2 0.38708950E+00 0.65253165E+03</pdfrwt>
<totfact> 0.44490928E+00</totfact>
</mgrwt>
</event>
<event>
 5    1  0.2357694E-004  0.6469259E+03  0.7818608E-02  0.9812565E-01
         13   -1    0    0    0    0  0.00000000000E+00  0.00000000000E+00  0.10000000000E+04  0.10000000000E+04  0.00000000000E+00 0. -1.
          2   -1    0    0  501    0 -0.00000000000E+00 -0.00000000000E+00 -0.10462829015E+03  0.10462829015E+03  0.00000000000E+00 0. -1.
    9000006    2    1    2  501    0  0.00000000000E+00  0.00000000000E+00  0.89537170985E+03  0.11046282901E+04  0.64692593130E+03 0.  0.
         13    1    3    3    0    0 -0.12457713387E+03  0.18863930339E+03  0.52650423932E+02  0.23211272306E+03  0.00000000000E+00 0. -1.
          2    1    3    3  501    0  0.12457713387E+03 -0.18863930339E+03  0.84272128592E+03  0.87251556709E+03  0.00000000000E+00 0. -1.
<mgrwt>
<rscale>  0 0.64692593E+03</rscale>
<asrwt>0</asrwt>
<pdfrwt beam="1">0</pdfrwt>
<pdfrwt beam="2">  1        2 0.38046731E+00 0.64692593E+03</pdfrwt>
<totfact> 0.47094211E+00</totfact>
</mgrwt>
</event>
<event>
 5    1  0.2357694E-004  0.6469485E+03  0.7818608E-02  0.9812522E-01
         13   -1    0    0    0    0  0.00000000000E+00  0.00000000000E+00  0.10000000000E+04  0.10000000000E+04  0.00000000000E+00 0. -1.
          2   -1    0    0  501    0 -0.00000000000E+00 -0.00000000000E+00 -0.10463557585E+03  0.10463557585E+03  0.00000000000E+00 0. -1.
    9000006    2    1    2  501    0  0.00000000000E+00  0.00000000000E+00  0.89536442415E+03  0.11046355758E+04  0.64694845498E+03 0.  0.
         13    1    3    3    0    0 -0.14308668383E+03  0.29009849219E+03  0.45136081220E+03  0.55529948411E+03  0.00000000000E+00 0. -1.
          4    1    3    3  501    0  0.14308668383E+03 -0.29009849219E+03  0.44400361195E+03  0.54933609174E+03  0.00000000000E+00 0. -1.
<mgrwt>
<rscale>  0 0.64694845E+03</rscale>
<asrwt>0</asrwt>
<pdfrwt beam="1">0</pdfrwt>
<pdfrwt beam="2">  1        2 0.38049381E+00 0.64694845E+03</pdfrwt>
<totfact> 0.47083526E+00</totfact>
</mgrwt>
</event>
<event>
 5    1  0.2357694E-004  0.6485482E+03  0.7818608E-02  0.9809507E-01
         13   -1    0    0    0    0  0.00000000000E+00  0.00000000000E+00  0.10000000000E+04  0.10000000000E+04  0.00000000000E+00 0. -1.
          2   -1    0    0  501    0 -0.00000000000E+00 -0.00000000000E+00 -0.10515370642E+03  0.10515370642E+03  0.00000000000E+00 0. -1.
    9000006    2    1    2  501    0  0.00000000000E+00  0.00000000000E+00  0.89484629358E+03  0.11051537064E+04  0.64854824469E+03 0.  0.
         13    1    3    3    0    0 -0.13308743762E+03 -0.22696215555E+03  0.77042626150E+03  0.81411345064E+03  0.00000000000E+00 0. -1.
          2    1    3    3  501    0  0.13308743762E+03  0.22696215555E+03  0.12442003208E+03  0.29104025578E+03  0.00000000000E+00 0. -1.
<mgrwt>
<rscale>  0 0.64854824E+03</rscale>
<asrwt>0</asrwt>
<pdfrwt beam="1">0</pdfrwt>
<pdfrwt beam="2">  1        2 0.38237792E+00 0.64854824E+03</pdfrwt>
<totfact> 0.46329283E+00</totfact>
</mgrwt>
</event>
<event>
 5    1  0.2357694E-004  0.6349900E+03  0.7818608E-02  0.9835359E-01
         13   -1    0    0    0    0  0.00000000000E+00  0.00000000000E+00  0.10000000000E+04  0.10000000000E+04  0.00000000000E+00 0. -1.
          2   -1    0    0  501    0 -0.00000000000E+00 -0.00000000000E+00 -0.10080307013E+03  0.10080307013E+03  0.00000000000E+00 0. -1.
    9000006    2    1    2  501    0  0.00000000000E+00  0.00000000000E+00  0.89919692987E+03  0.11008030701E+04  0.63498998457E+03 0.  0.
         13    1    3    3    0    0  0.88753051611E+02 -0.16621259602E+02 -0.78074403791E+02  0.11936910391E+03  0.00000000000E+00 0. -1.
          4    1    3    3  501    0 -0.88753051611E+02  0.16621259602E+02  0.97727133366E+03  0.98143396622E+03  0.00000000000E+00 0. -1.
<mgrwt>
<rscale>  0 0.63498998E+03</rscale>
<asrwt>0</asrwt>
<pdfrwt beam="1">0</pdfrwt>
<pdfrwt beam="2">  1        2 0.36655739E+00 0.63498998E+03</pdfrwt>
<totfact> 0.53020369E+00</totfact>
</mgrwt>
</event>
<event>
 5    1  0.2357694E-004  0.6468921E+03  0.7818608E-02  0.9812629E-01
         13   -1    0    0    0    0  0.00000000000E+00  0.00000000000E+00  0.10000000000E+04  0.10000000000E+04  0.00000000000E+00 0. -1.
          2   -1    0    0  501    0 -0.00000000000E+00 -0.00000000000E+00 -0.10461733878E+03  0.10461733878E+03  0.00000000000E+00 0. -1.
    9000006    2    1    2  501    0  0.00000000000E+00  0.00000000000E+00  0.89538266122E+03  0.11046173388E+04  0.64689207379E+03 0.  0.
         13    1    3    3    0    0  0.15124289905E+03 -0.34398617203E+01  0.93586424082E+03  0.94801272375E+03  0.00000000000E+00 0. -1.
          2    1    3    3  501    0 -0.15124289905E+03  0.34398617203E+01 -0.40481579600E+02  0.15660461503E+03  0.00000000000E+00 0. -1.
<mgrwt>
<rscale>  0 0.64689207E+03</rscale>
<asrwt>0</asrwt>
<pdfrwt beam="1">0</pdfrwt>
<pdfrwt beam="2">  1        2 0.38042749E+00 0.64689207E+03</pdfrwt>
<totfact> 0.47110276E+00</totfact>
</mgrwt>
</event>
<event>
 5    1  0.2357694E-004  0.6493306E+03  0.7818608E-02  0.9808036E-01
         13   -1    0    0    0    0  0.00000000000E+00  0.00000000000E+00  0.10000000000E+04  0.10000000000E+04  0.00000000000E+00 0. -1.
          2   -1    0    0  501    0 -0.00000000000E+00 -0.00000000000E+00 -0.10540755278E+03  0.10540755278E+03  0.00000000000E+00 0. -1.
    9000006    2    1    2  501    0  0.00000000000E+00  0.00000000000E+00  0.89459244722E+03  0.11054075528E+04  0.64933058691E+03 0.  0.
         13    1    3    3    0    0  0.48421022975E+02 -0.30058680606E+03  0.63922424464E+03  0.70802871296E+03  0.00000000000E+00 0. -1.
          4    1    3    3  501    0 -0.48421022975E+02  0.30058680606E+03  0.25536820259E+03  0.39737883982E+03  0.00000000000E+00 0. -1.
<mgrwt>
<rscale>  0 0.64933059E+03</rscale>
<asrwt>0</asrwt>
<pdfrwt beam="1">0</pdfrwt>
<pdfrwt beam="2">  1        2 0.38330100E+00 0.64933059E+03</pdfrwt>
<totfact> 0.45963781E+00</totfact>
</mgrwt>
</event>
<event>
 5    1  0.2357694E-004  0.6481439E+03  0.7818608E-02  0.9810268E-01
         13   -1    0    0    0    0  0.00000000000E+00  0.00000000000E+00  0.10000000000E+04  0.10000000000E+04  0.00000000000E+00 0. -1.
          2   -1    0    0  501    0 -0.00000000000E+00 -0.00000000000E+00 -0.10502261400E+03  0.10502261400E+03  0.00000000000E+00 0. -1.
    9000006    2    1    2  501    0  0.00000000000E+00  0.00000000000E+00  0.89497738600E+03  0.11050226140E+04  0.64814385441E+03 0.  0.
         13    1    3    3    0    0  0.67262341582E+02  0.75827629705E+02 -0.77301936745E+02  0.12747408147E+03  0.00000000000E+00 0. -1.
          2    1    3    3  501    0 -0.67262341582E+02 -0.75827629705E+02  0.97227932274E+03  0.97754853253E+03  0.00000000000E+00 0. -1.
<mgrwt>
<rscale>  0 0.64814385E+03</rscale>
<asrwt>0</asrwt>
<pdfrwt beam="1">0</pdfrwt>
<pdfrwt beam="2">  1        2 0.38190122E+00 0.64814385E+03</pdfrwt>
<totfact> 0.46519070E+00</totfact>
</mgrwt>
</event>
<event>
 5    1  0.2357694E-004  0.6490197E+03  0.7818608E-02  0.9808620E-01
         13   -1    0    0    0    0  0.00000000000E+00  0.00000000000E+00  0.10000000000E+04  0.10000000000E+04  0.00000000000E+00 0. -1.
          2   -1    0    0  501    0 -0.00000000000E+00 -0.00000000000E+00 -0.10530665175E+03  0.10530665175E+03  0.00000000000E+00 0. -1.
    9000006    2    1    2  501    0  0.00000000000E+00  0.00000000000E+00  0.89469334825E+03  0.11053066517E+04  0.64901972774E+03 0.  0.
         13    1    3    3    0    0 -0.27698501224E+03 -0.13967761739E+03  0.28510031826E+03  0.42132259051E+03  0.00000000000E+00 0. -1.
          2    1    3    3  501    0  0.27698501224E+03  0.13967761739E+03  0.60959303000E+03  0.68398406124E+03  0.00000000000E+00 0. -1.
<mgrwt>
<rscale>  0 0.64901973E+03</rscale>
<asrwt>0</asrwt>
<pdfrwt beam="1">0</pdfrwt>
<pdfrwt beam="2">  1        2 0.38293409E+00 0.64901973E+03</pdfrwt>
<totfact> 0.46108749E+00</totfact>
</mgrwt>
</event>
<event>
 5    1  0.2357694E-004  0.6468537E+03  0.7818608E-02  0.9812701E-01
         13   -1    0    0    0    0  0.00000000000E+00  0.00000000000E+00  0.10000000000E+04  0.10000000000E+04  0.00000000000E+00 0. -1.
          2   -1    0    0  501    0 -0.00000000000E+00 -0.00000000000E+00 -0.10460493196E+03  0.10460493196E+03  0.00000000000E+00 0. -1.
    9000006    2    1    2  501    0  0.00000000000E+00  0.00000000000E+00  0.89539506804E+03  0.11046049320E+04  0.64685371440E+03 0.  0.
         13    1    3    3    0    0  0.89812411949E+02  0.16097040230E+03 -0.61258524298E+01  0.18443227978E+03  0.00000000000E+00 0. -1.
          4    1    3    3  501    0 -0.89812411949E+02 -0.16097040230E+03  0.90152092047E+03  0.92017265217E+03  0.00000000000E+00 0. -1.
<mgrwt>
<rscale>  0 0.64685371E+03</rscale>
<asrwt>0</asrwt>
<pdfrwt beam="1">0</pdfrwt>
<pdfrwt beam="2">  1        2 0.38038237E+00 0.64685371E+03</pdfrwt>
<totfact> 0.47128482E+00</totfact>
</mgrwt>
</event>
<event>
 5    1  0.2357694E-004  0.6556610E+03  0.7818608E-02  0.9796214E-01
         13   -1    0    0    0    0  0.00000000000E+00  0.00000000000E+00  0.10000000000E+04  0.10000000000E+04  0.00000000000E+00 0. -1.
          2   -1    0    0  501    0 -0.00000000000E+00 -0.00000000000E+00 -0.10747282804E+03  0.10747282804E+03  0.00000000000E+00 0. -1.
    9000006    2    1    2  501    0  0.00000000000E+00  0.00000000000E+00  0.89252717196E+03  0.11074728280E+04  0.65566097349E+03 0.  0.
         13    1    3    3    0    0 -0.13992315792E+03  0.13495242749E+03  0.89214011396E+03  0.91307427449E+03  0.00000000000E+00 0. -1.
          2    1    3    3  501    0  0.13992315792E+03 -0.13495242749E+03  0.38705800359E+00  0.19439855355E+03  0.00000000000E+00 0. -1.
<mgrwt>
<rscale>  0 0.65566097E+03</rscale>
<asrwt>0</asrwt>
<pdfrwt beam="1">0</pdfrwt>
<pdfrwt beam="2">  1        2 0.39081111E+00 0.65566097E+03</pdfrwt>
<totfact> 0.43085822E+00</totfact>
</mgrwt>
</event>
<event>
 5    1  0.2357694E-004  0.6720740E+03  0.7818608E-02  0.9766218E-01
         13   -1    0    0    0    0  0.00000000000E+00  0.00000000000E+00  0.10000000000E+04  0.10000000000E+04  0.00000000000E+00 0. -1.
          2   -1    0    0  501    0 -0.00000000000E+00 -0.00000000000E+00 -0.11292086251E+03  0.11292086251E+03  0.00000000000E+00 0. -1.
    9000006    2    1    2  501    0  0.00000000000E+00  0.00000000000E+00  0.88707913749E+03  0.11129208625E+04  0.67207399148E+03 0.  0.
         13    1    3    3    0    0  0.31235679561E+03 -0.81108975040E+02  0.59866441739E+03  0.68010625512E+03  0.00000000000E+00 0. -1.
          4    1    3    3  501    0 -0.31235679561E+03  0.81108975040E+02  0.28841472010E+03  0.43281460739E+03  0.00000000000E+00 0. -1.
<mgrwt>
<rscale>  0 0.67207399E+03</rscale>
<asrwt>0</asrwt>
<pdfrwt beam="1">0</pdfrwt>
<pdfrwt beam="2">  1        2 0.41062218E+00 0.67207399E+03</pdfrwt>
<totfact> 0.36256713E+00</totfact>
</mgrwt>
</event>
<event>
 5    1  0.2357694E-004  0.6321938E+03  0.7818608E-02  0.9840777E-01
         13   -1    0    0    0    0  0.00000000000E+00  0.00000000000E+00  0.10000000000E+04  0.10000000000E+04  0.00000000000E+00 0. -1.
          2   -1    0    0  501    0 -0.00000000000E+00 -0.00000000000E+00 -0.99917265353E+02  0.99917265353E+02  0.00000000000E+00 0. -1.
    9000006    2    1    2  501    0  0.00000000000E+00  0.00000000000E+00  0.90008273465E+03  0.10999172654E+04  0.63219384797E+03 0.  0.
         13    1    3    3    0    0 -0.89520695927E+02 -0.19406080409E+03  0.44827345251E+02  0.21836446956E+03  0.00000000000E+00 0. -1.
          4    1    3    3  501    0  0.89520695927E+02  0.19406080409E+03  0.85525538940E+03  0.88155279579E+03  0.00000000000E+00 0. -1.
<mgrwt>
<rscale>  0 0.63219385E+03</rscale>
<asrwt>0</asrwt>
<pdfrwt beam="1">0</pdfrwt>
<pdfrwt beam="2">  1        2 0.36333628E+00 0.63219385E+03</pdfrwt>
<totfact> 0.54486760E+00</totfact>
</mgrwt>
</event>
<event>
 5    1  0.2357694E-004  0.6579529E+03  0.7818608E-02  0.9791970E-01
         13   -1    0    0    0    0  0.00000000000E+00  0.00000000000E+00  0.10000000000E+04  0.10000000000E+04  0.00000000000E+00 0. -1.
          2   -1    0    0  501    0 -0.00000000000E+00 -0.00000000000E+00 -0.10822550109E+03  0.10822550109E+03  0.00000000000E+00 0. -1.
    9000006    2    1    2  501    0  0.00000000000E+00  0.00000000000E+00  0.89177449891E+03  0.11082255011E+04  0.65795288917E+03 0.  0.
         13    1    3    3    0    0  0.11978618389E+03  0.16620357781E+03  0.12339855011E+02  0.20524285895E+03  0.00000000000E+00 0. -1.
          2    1    3    3  501    0 -0.11978618389E+03 -0.16620357781E+03  0.87943464390E+03  0.90298264214E+03  0.00000000000E+00 0. -1.
<mgrwt>
<rscale>  0 0.65795289E+03</rscale>
<asrwt>0</asrwt>
<pdfrwt beam="1">0</pdfrwt>
<pdfrwt beam="2">  1        2 0.39354811E+00 0.65795289E+03</pdfrwt>
<totfact> 0.42078182E+00</totfact>
</mgrwt>
</event>
<event>
 5    1  0.2357694E-004  0.6507407E+03  0.7818608E-02  0.9805390E-01
         13   -1    0    0    0    0  0.00000000000E+00  0.00000000000E+00  0.10000000000E+04  0.10000000000E+04  0.00000000000E+00 0. -1.
          2   -1    0    0  501    0 -0.00000000000E+00 -0.00000000000E+00 -0.10586587561E+03  0.10586587561E+03  0.00000000000E+00 0. -1.
    9000006    2    1    2  501    0  0.00000000000E+00  0.00000000000E+00  0.89413412439E+03  0.11058658756E+04  0.65074073367E+03 0.  0.
         13    1    3    3    0    0  0.29986676312E+03  0.12561211653E+03  0.46905412548E+03  0.57071030486E+03  0.00000000000E+00 0. -1.
          2    1    3    3  501    0 -0.29986676312E+03 -0.12561211653E+03  0.42507999891E+03  0.53515557076E+03  0.00000000000E+00 0. -1.
<mgrwt>
<rscale>  0 0.65074073E+03</rscale>
<asrwt>0</asrwt>
<pdfrwt beam="1">0</pdfrwt>
<pdfrwt beam="2">  1        2 0.38496763E+00 0.65074073E+03</pdfrwt>
<totfact> 0.45310485E+00</totfact>
</mgrwt>
</event>
<event>
 5    1  0.2357694E-004  0.6501903E+03  0.7818608E-02  0.9806422E-01
         13   -1    0    0    0    0  0.00000000000E+00  0.00000000000E+00  0.10000000000E+04  0.10000000000E+04  0.00000000000E+00 0. -1.
          2   -1    0    0  501    0 -0.00000000000E+00 -0.00000000000E+00 -0.10568686784E+03  0.10568686784E+03  0.00000000000E+00 0. -1.
    9000006    2    1    2  501    0  0.00000000000E+00  0.00000000000E+00  0.89431313216E+03  0.11056868678E+04  0.65019033471E+03 0.  0.
         13    1    3    3    0    0 -0.14554730425E+02 -0.19047724346E+03  0.89448255079E+03  0.91465428120E+03  0.00000000000E+00 0. -1.
          2    1    3    3  501    0  0.14554730425E+02  0.19047724346E+03 -0.16941863029E+00  0.19103258663E+03  0.00000000000E+00 0. -1.
<mgrwt>
<rscale>  0 0.65019033E+03</rscale>
<asrwt>0</asrwt>
<pdfrwt beam="1">0</pdfrwt>
<pdfrwt beam="2">  1        2 0.38431669E+00 0.65019033E+03</pdfrwt>
<totfact> 0.45564634E+00</totfact>
</mgrwt>
</event>
<event>
 5    1  0.2357694E-004  0.6284702E+03  0.7818608E-02  0.9848039E-01
         13   -1    0    0    0    0  0.00000000000E+00  0.00000000000E+00  0.10000000000E+04  0.10000000000E+04  0.00000000000E+00 0. -1.
          2   -1    0    0  501    0 -0.00000000000E+00 -0.00000000000E+00 -0.98743707924E+02  0.98743707924E+02  0.00000000000E+00 0. -1.
    9000006    2    1    2  501    0  0.00000000000E+00  0.00000000000E+00  0.90125629208E+03  0.10987437079E+04  0.62847023135E+03 0.  0.
         13    1    3    3    0    0  0.34359301386E+02  0.20201123973E+03  0.34130794831E+02  0.20773544167E+03  0.00000000000E+00 0. -1.
          4    1    3    3  501    0 -0.34359301386E+02 -0.20201123973E+03  0.86712549725E+03  0.89100826626E+03  0.00000000000E+00 0. -1.
<mgrwt>
<rscale>  0 0.62847023E+03</rscale>
<asrwt>0</asrwt>
<pdfrwt beam="1">0</pdfrwt>
<pdfrwt beam="2">  1        2 0.35906879E+00 0.62847023E+03</pdfrwt>
<totfact> 0.56487086E+00</totfact>
</mgrwt>
</event>
<event>
 5    1  0.2357694E-004  0.6493309E+03  0.7818608E-02  0.9808036E-01
         13   -1    0    0    0    0  0.00000000000E+00  0.00000000000E+00  0.10000000000E+04  0.10000000000E+04  0.00000000000E+00 0. -1.
          2   -1    0    0  501    0 -0.00000000000E+00 -0.00000000000E+00 -0.10540765456E+03  0.10540765456E+03  0.00000000000E+00 0. -1.
    9000006    2    1    2  501    0  0.00000000000E+00  0.00000000000E+00  0.89459234544E+03  0.11054076546E+04  0.64933090043E+03 0.  0.
         13    1    3    3    0    0  0.13760032394E+03 -0.21683563765E+03  0.78544940181E+03  0.82636693164E+03  0.00000000000E+00 0. -1.
          2    1    3    3  501    0 -0.13760032394E+03  0.21683563765E+03  0.10914294363E+03  0.27904072292E+03  0.00000000000E+00 0. -1.
<mgrwt>
<rscale>  0 0.64933090E+03</rscale>
<asrwt>0</asrwt>
<pdfrwt beam="1">0</pdfrwt>
<pdfrwt beam="2">  1        2 0.38330137E+00 0.64933090E+03</pdfrwt>
<totfact> 0.45963635E+00</totfact>
</mgrwt>
</event>
<event>
 5    1  0.2357694E-004  0.6401791E+03  0.7818608E-02  0.9825384E-01
         13   -1    0    0    0    0  0.00000000000E+00  0.00000000000E+00  0.10000000000E+04  0.10000000000E+04  0.00000000000E+00 0. -1.
          2   -1    0    0  501    0 -0.00000000000E+00 -0.00000000000E+00 -0.10245732312E+03  0.10245732312E+03  0.00000000000E+00 0. -1.
    9000006    2    1    2  501    0  0.00000000000E+00  0.00000000000E+00  0.89754267688E+03  0.11024573231E+04  0.64017910968E+03 0.  0.
         13    1    3    3    0    0 -0.78146687451E+02  0.20064173695E+03  0.85663576587E+03  0.88328299357E+03  0.00000000000E+00 0. -1.
          2    1    3    3  501    0  0.78146687451E+02 -0.20064173695E+03  0.40906911014E+02  0.21917432955E+03  0.00000000000E+00 0. -1.
<mgrwt>
<rscale>  0 0.64017911E+03</rscale>
<asrwt>0</asrwt>
<pdfrwt beam="1">0</pdfrwt>
<pdfrwt beam="2">  1        2 0.37257287E+00 0.64017911E+03</pdfrwt>
<totfact> 0.50378477E+00</totfact>
</mgrwt>
</event>
<event>
 5    1  0.2357694E-004  0.6616944E+03  0.7818608E-02  0.9785080E-01
         13   -1    0    0    0    0  0.00000000000E+00  0.00000000000E+00  0.10000000000E+04  0.10000000000E+04  0.00000000000E+00 0. -1.
          2   -1    0    0  501    0 -0.00000000000E+00 -0.00000000000E+00 -0.10945987857E+03  0.10945987857E+03  0.00000000000E+00 0. -1.
    9000006    2    1    2  501    0  0.00000000000E+00  0.00000000000E+00  0.89054012143E+03  0.11094598786E+04  0.66169442666E+03 0.  0.
         13    1    3    3    0    0  0.19421904049E+03  0.13312108971E+03  0.55577746113E+02  0.24193211047E+03  0.00000000000E+00 0. -1.
          4    1    3    3  501    0 -0.19421904049E+03 -0.13312108971E+03  0.83496237532E+03  0.86752776809E+03  0.00000000000E+00 0. -1.
<mgrwt>
<rscale>  0 0.66169443E+03</rscale>
<asrwt>0</asrwt>
<pdfrwt beam="1">0</pdfrwt>
<pdfrwt beam="2">  1        2 0.39803676E+00 0.66169443E+03</pdfrwt>
<totfact> 0.40471693E+00</totfact>
</mgrwt>
</event>
<event>
 5    1  0.2357694E-004  0.6492367E+03  0.7818608E-02  0.9808212E-01
         13   -1    0    0    0    0  0.00000000000E+00  0.00000000000E+00  0.10000000000E+04  0.10000000000E+04  0.00000000000E+00 0. -1.
          2   -1    0    0  501    0 -0.00000000000E+00 -0.00000000000E+00 -0.10537708509E+03  0.10537708509E+03  0.00000000000E+00 0. -1.
    9000006    2    1    2  501    0  0.00000000000E+00  0.00000000000E+00  0.89462291491E+03  0.11053770851E+04  0.64923673676E+03 0.  0.
         13    1    3    3    0    0  0.26450684832E+03  0.17931040586E+03  0.35008551838E+03  0.47399996270E+03  0.00000000000E+00 0. -1.
          4    1    3    3  501    0 -0.26450684832E+03 -0.17931040586E+03  0.54453739653E+03  0.63137712239E+03  0.00000000000E+00 0. -1.
<mgrwt>
<rscale>  0 0.64923674E+03</rscale>
<asrwt>0</asrwt>
<pdfrwt beam="1">0</pdfrwt>
<pdfrwt beam="2">  1        2 0.38319021E+00 0.64923674E+03</pdfrwt>
<totfact> 0.46007512E+00</totfact>
</mgrwt>
</event>
<event>
 5    1  0.2357694E-004  0.6605155E+03  0.7818608E-02  0.9787245E-01
         13   -1    0    0    0    0  0.00000000000E+00  0.00000000000E+00  0.10000000000E+04  0.10000000000E+04  0.00000000000E+00 0. -1.
          2   -1    0    0  501    0 -0.00000000000E+00 -0.00000000000E+00 -0.10907016535E+03  0.10907016535E+03  0.00000000000E+00 0. -1.
    9000006    2    1    2  501    0  0.00000000000E+00  0.00000000000E+00  0.89092983465E+03  0.11090701653E+04  0.66051545129E+03 0.  0.
         13    1    3    3    0    0  0.29897118858E+03 -0.11731086778E+03  0.57470697807E+03  0.65835683481E+03  0.00000000000E+00 0. -1.
          4    1    3    3  501    0 -0.29897118858E+03  0.11731086778E+03  0.31622285658E+03  0.45071333053E+03  0.00000000000E+00 0. -1.
<mgrwt>
<rscale>  0 0.66051545E+03</rscale>
<asrwt>0</asrwt>
<pdfrwt beam="1">0</pdfrwt>
<pdfrwt beam="2">  1        2 0.39661962E+00 0.66051545E+03</pdfrwt>
<totfact> 0.40972815E+00</totfact>
</mgrwt>
</event>
<event>
 5    1  0.2357694E-004  0.6520107E+03  0.7818608E-02  0.9803014E-01
         13   -1    0    0    0    0  0.00000000000E+00  0.00000000000E+00  0.10000000000E+04  0.10000000000E+04  0.00000000000E+00 0. -1.
          2   -1    0    0  501    0 -0.00000000000E+00 -0.00000000000E+00 -0.10627949545E+03  0.10627949545E+03  0.00000000000E+00 0. -1.
    9000006    2    1    2  501    0  0.00000000000E+00  0.00000000000E+00  0.89372050455E+03  0.11062794954E+04  0.65201072214E+03 0.  0.
         13    1    3    3    0    0 -0.13752204695E+03  0.26702768829E+03  0.66190498261E+03  0.72686608513E+03  0.00000000000E+00 0. -1.
          2    1    3    3  501    0  0.13752204695E+03 -0.26702768829E+03  0.23181552194E+03  0.37941341031E+03  0.00000000000E+00 0. -1.
<mgrwt>
<rscale>  0 0.65201072E+03</rscale>
<asrwt>0</asrwt>
<pdfrwt beam="1">0</pdfrwt>
<pdfrwt beam="2">  1        2 0.38647171E+00 0.65201072E+03</pdfrwt>
<totfact> 0.44728148E+00</totfact>
</mgrwt>
</event>
<event>
 5    1  0.2357694E-004  0.5453622E+03  0.7818608E-02  0.1002573E+00
         13   -1    0    0    0    0  0.00000000000E+00  0.00000000000E+00  0.10000000000E+04  0.10000000000E+04  0.00000000000E+00 0. -1.
          2   -1    0    0  501    0 -0.00000000000E+00 -0.00000000000E+00 -0.74354980316E+02  0.74354980316E+02  0.00000000000E+00 0. -1.
    9000006    2    1    2  501    0  0.00000000000E+00  0.00000000000E+00  0.92564501968E+03  0.10743549803E+04  0.54536219273E+03 0.  0.
         13    1    3    3    0    0  0.20057342748E+03 -0.91186583223E+02  0.14633309039E+03  0.26449587164E+03  0.00000000000E+00 0. -1.
          2    1    3    3  501    0 -0.20057342748E+03  0.91186583223E+02  0.77931192929E+03  0.80985910868E+03  0.00000000000E+00 0. -1.
<mgrwt>
<rscale>  0 0.54536219E+03</rscale>
<asrwt>0</asrwt>
<pdfrwt beam="1">0</pdfrwt>
<pdfrwt beam="2">  1        2 0.27038232E+00 0.54536219E+03</pdfrwt>
<totfact> 0.11781169E+01</totfact>
</mgrwt>
</event>
<event>
 5    1  0.2357694E-004  0.6586288E+03  0.7818608E-02  0.9790721E-01
         13   -1    0    0    0    0  0.00000000000E+00  0.00000000000E+00  0.10000000000E+04  0.10000000000E+04  0.00000000000E+00 0. -1.
          2   -1    0    0  501    0 -0.00000000000E+00 -0.00000000000E+00 -0.10844796718E+03  0.10844796718E+03  0.00000000000E+00 0. -1.
    9000006    2    1    2  501    0  0.00000000000E+00  0.00000000000E+00  0.89155203282E+03  0.11084479672E+04  0.65862877914E+03 0.  0.
         13    1    3    3    0    0  0.21665498445E+03 -0.96932770120E+02  0.82996603204E+03  0.86323748677E+03  0.00000000000E+00 0. -1.
          4    1    3    3  501    0 -0.21665498445E+03  0.96932770120E+02  0.61586000778E+02  0.24521048041E+03  0.00000000000E+00 0. -1.
<mgrwt>
<rscale>  0 0.65862878E+03</rscale>
<asrwt>0</asrwt>
<pdfrwt beam="1">0</pdfrwt>
<pdfrwt beam="2">  1        2 0.39435708E+00 0.65862878E+03</pdfrwt>
<totfact> 0.41784468E+00</totfact>
</mgrwt>
</event>
<event>
 5    1  0.2357694E-004  0.6604146E+03  0.7818608E-02  0.9787431E-01
         13   -1    0    0    0    0  0.00000000000E+00  0.00000000000E+00  0.10000000000E+04  0.10000000000E+04  0.00000000000E+00 0. -1.
          2   -1    0    0  501    0 -0.00000000000E+00 -0.00000000000E+00 -0.10903685734E+03  0.10903685734E+03  0.00000000000E+00 0. -1.
    9000006    2    1    2  501    0  0.00000000000E+00  0.00000000000E+00  0.89096314266E+03  0.11090368573E+04  0.66041458899E+03 0.  0.
         13    1    3    3    0    0  0.24496655960E+03 -0.15674385496E+03  0.70811744657E+03  0.76551131248E+03  0.00000000000E+00 0. -1.
          4    1    3    3  501    0 -0.24496655960E+03  0.15674385496E+03  0.18284569609E+03  0.34352554486E+03  0.00000000000E+00 0. -1.
<mgrwt>
<rscale>  0 0.66041459E+03</rscale>
<asrwt>0</asrwt>
<pdfrwt beam="1">0</pdfrwt>
<pdfrwt beam="2">  1        2 0.39649850E+00 0.66041459E+03</pdfrwt>
<totfact> 0.41015902E+00</totfact>
</mgrwt>
</event>
<event>
 5    1  0.2357694E-004  0.6535010E+03  0.7818608E-02  0.9800232E-01
         13   -1    0    0    0    0  0.00000000000E+00  0.00000000000E+00  0.10000000000E+04  0.10000000000E+04  0.00000000000E+00 0. -1.
          2   -1    0    0  501    0 -0.00000000000E+00 -0.00000000000E+00 -0.10676587961E+03  0.10676587961E+03  0.00000000000E+00 0. -1.
    9000006    2    1    2  501    0  0.00000000000E+00  0.00000000000E+00  0.89323412039E+03  0.11067658796E+04  0.65350097049E+03 0.  0.
         13    1    3    3    0    0  0.29927767671E+03  0.11769578826E+03  0.34864507538E+03  0.47431299259E+03  0.00000000000E+00 0. -1.
          2    1    3    3  501    0 -0.29927767671E+03 -0.11769578826E+03  0.54458904501E+03  0.63245288702E+03  0.00000000000E+00 0. -1.
<mgrwt>
<rscale>  0 0.65350097E+03</rscale>
<asrwt>0</asrwt>
<pdfrwt beam="1">0</pdfrwt>
<pdfrwt beam="2">  1        2 0.38824038E+00 0.65350097E+03</pdfrwt>
<totfact> 0.44052045E+00</totfact>
</mgrwt>
</event>
<event>
 5    1  0.2357694E-004  0.6341906E+03  0.7818608E-02  0.9836905E-01
         13   -1    0    0    0    0  0.00000000000E+00  0.00000000000E+00  0.10000000000E+04  0.10000000000E+04  0.00000000000E+00 0. -1.
          2   -1    0    0  501    0 -0.00000000000E+00 -0.00000000000E+00 -0.10054941678E+03  0.10054941678E+03  0.00000000000E+00 0. -1.
    9000006    2    1    2  501    0  0.00000000000E+00  0.00000000000E+00  0.89945058322E+03  0.11005494168E+04  0.63419056058E+03 0.  0.
         13    1    3    3    0    0 -0.18216703448E+03  0.38350713328E+02  0.89518875338E+03  0.91434047807E+03  0.00000000000E+00 0. -1.
          2    1    3    3  501    0  0.18216703448E+03 -0.38350713328E+02  0.42618298394E+01  0.18620893871E+03  0.00000000000E+00 0. -1.
<mgrwt>
<rscale>  0 0.63419056E+03</rscale>
<asrwt>0</asrwt>
<pdfrwt beam="1">0</pdfrwt>
<pdfrwt beam="2">  1        2 0.36563501E+00 0.63419056E+03</pdfrwt>
<totfact> 0.53436521E+00</totfact>
</mgrwt>
</event>
<event>
 5    1  0.2357694E-004  0.6307527E+03  0.7818608E-02  0.9843581E-01
         13   -1    0    0    0    0  0.00000000000E+00  0.00000000000E+00  0.10000000000E+04  0.10000000000E+04  0.00000000000E+00 0. -1.
          2   -1    0    0  501    0 -0.00000000000E+00 -0.00000000000E+00 -0.99462246507E+02  0.99462246507E+02  0.00000000000E+00 0. -1.
    9000006    2    1    2  501    0  0.00000000000E+00  0.00000000000E+00  0.90053775349E+03  0.10994622465E+04  0.63075271385E+03 0.  0.
         13    1    3    3    0    0 -0.30693779576E+03 -0.38598768372E+02  0.55717580029E+03  0.63729549490E+03  0.00000000000E+00 0. -1.
          2    1    3    3  501    0  0.30693779576E+03  0.38598768372E+02  0.34336195320E+03  0.46216675161E+03  0.00000000000E+00 0. -1.
<mgrwt>
<rscale>  0 0.63075271E+03</rscale>
<asrwt>0</asrwt>
<pdfrwt beam="1">0</pdfrwt>
<pdfrwt beam="2">  1        2 0.36168166E+00 0.63075271E+03</pdfrwt>
<totfact> 0.55254448E+00</totfact>
</mgrwt>
</event>
<event>
 5    1  0.2357694E-004  0.6522982E+03  0.7818608E-02  0.9802476E-01
         13   -1    0    0    0    0  0.00000000000E+00  0.00000000000E+00  0.10000000000E+04  0.10000000000E+04  0.00000000000E+00 0. -1.
          2   -1    0    0  501    0 -0.00000000000E+00 -0.00000000000E+00 -0.10637322168E+03  0.10637322168E+03  0.00000000000E+00 0. -1.
    9000006    2    1    2  501    0  0.00000000000E+00  0.00000000000E+00  0.89362677832E+03  0.11063732217E+04  0.65229815783E+03 0.  0.
         13    1    3    3    0    0  0.16322503305E+03  0.24390583242E+03  0.20550697860E+03  0.35828143234E+03  0.00000000000E+00 0. -1.
          2    1    3    3  501    0 -0.16322503305E+03 -0.24390583242E+03  0.68811979972E+03  0.74809178934E+03  0.00000000000E+00 0. -1.
<mgrwt>
<rscale>  0 0.65229816E+03</rscale>
<asrwt>0</asrwt>
<pdfrwt beam="1">0</pdfrwt>
<pdfrwt beam="2">  1        2 0.38681253E+00 0.65229816E+03</pdfrwt>
<totfact> 0.44597137E+00</totfact>
</mgrwt>
</event>
<event>
 5    1  0.2357694E-004  0.6512864E+03  0.7818608E-02  0.9804368E-01
         13   -1    0    0    0    0  0.00000000000E+00  0.00000000000E+00  0.10000000000E+04  0.10000000000E+04  0.00000000000E+00 0. -1.
          2   -1    0    0  501    0 -0.00000000000E+00 -0.00000000000E+00 -0.10604349977E+03  0.10604349977E+03  0.00000000000E+00 0. -1.
    9000006    2    1    2  501    0  0.00000000000E+00  0.00000000000E+00  0.89395650023E+03  0.11060434998E+04  0.65128641861E+03 0.  0.
         13    1    3    3    0    0  0.57358524478E+01 -0.27681006470E+03  0.73810106693E+03  0.78832093523E+03  0.00000000000E+00 0. -1.
          4    1    3    3  501    0 -0.57358524478E+01  0.27681006470E+03  0.15585543331E+03  0.31772256454E+03  0.00000000000E+00 0. -1.
<mgrwt>
<rscale>  0 0.65128642E+03</rscale>
<asrwt>0</asrwt>
<pdfrwt beam="1">0</pdfrwt>
<pdfrwt beam="2">  1        2 0.38561354E+00 0.65128642E+03</pdfrwt>
<totfact> 0.45059571E+00</totfact>
</mgrwt>
</event>
<event>
 5    1  0.2357694E-004  0.4810831E+03  0.7818608E-02  0.1018838E+00
         13   -1    0    0    0    0  0.00000000000E+00  0.00000000000E+00  0.10000000000E+04  0.10000000000E+04  0.00000000000E+00 0. -1.
          2   -1    0    0  501    0 -0.00000000000E+00 -0.00000000000E+00 -0.57860241329E+02  0.57860241329E+02  0.00000000000E+00 0. -1.
    9000006    2    1    2  501    0  0.00000000000E+00  0.00000000000E+00  0.94213975867E+03  0.10578602413E+04  0.48108311685E+03 0.  0.
         13    1    3    3    0    0 -0.16239128002E+02  0.22419073653E+03  0.28274417906E+03  0.36120557363E+03  0.00000000000E+00 0. -1.
          4    1    3    3  501    0  0.16239128002E+02 -0.22419073653E+03  0.65939557961E+03  0.69665466770E+03  0.00000000000E+00 0. -1.
<mgrwt>
<rscale>  0 0.48108312E+03</rscale>
<asrwt>0</asrwt>
<pdfrwt beam="1">0</pdfrwt>
<pdfrwt beam="2">  1        2 0.21040132E+00 0.48108312E+03</pdfrwt>
<totfact> 0.19429608E+01</totfact>
</mgrwt>
</event>
<event>
 5    1  0.2357694E-004  0.6571940E+03  0.7818608E-02  0.9793373E-01
         13   -1    0    0    0    0  0.00000000000E+00  0.00000000000E+00  0.10000000000E+04  0.10000000000E+04  0.00000000000E+00 0. -1.
          2   -1    0    0  501    0 -0.00000000000E+00 -0.00000000000E+00 -0.10797599364E+03  0.10797599364E+03  0.00000000000E+00 0. -1.
    9000006    2    1    2  501    0  0.00000000000E+00  0.00000000000E+00  0.89202400636E+03  0.11079759936E+04  0.65719401593E+03 0.  0.
         13    1    3    3    0    0 -0.75379670819E+02  0.15611081218E+03  0.91663208533E+03  0.93288105368E+03  0.00000000000E+00 0. -1.
          2    1    3    3  501    0  0.75379670819E+02 -0.15611081218E+03 -0.24608078976E+02  0.17509493997E+03  0.00000000000E+00 0. -1.
<mgrwt>
<rscale>  0 0.65719402E+03</rscale>
<asrwt>0</asrwt>
<pdfrwt beam="1">0</pdfrwt>
<pdfrwt beam="2">  1        2 0.39264080E+00 0.65719402E+03</pdfrwt>
<totfact> 0.42409828E+00</totfact>
</mgrwt>
</event>
<event>
 5    1  0.2357694E-004  0.6510996E+03  0.7818608E-02  0.9804718E-01
         13   -1    0    0    0    0  0.00000000000E+00  0.00000000000E+00  0.10000000000E+04  0.10000000000E+04  0.00000000000E+00 0. -1.
          2   -1    0    0  501    0 -0.00000000000E+00 -0.00000000000E+00 -0.10598268550E+03  0.10598268550E+03  0.00000000000E+00 0. -1.
    9000006    2    1    2  501    0  0.00000000000E+00  0.00000000000E+00  0.89401731450E+03  0.11059826855E+04  0.65109964062E+03 0.  0.
         13    1    3    3    0    0 -0.29600807472E+03  0.11434512790E+03  0.57052075802E+03  0.65283192623E+03  0.00000000000E+00 0. -1.
          4    1    3    3  501    0  0.29600807472E+03 -0.11434512790E+03  0.32349655648E+03  0.45315075927E+03  0.00000000000E+00 0. -1.
<mgrwt>
<rscale>  0 0.65109964E+03</rscale>
<asrwt>0</asrwt>
<pdfrwt beam="1">0</pdfrwt>
<pdfrwt beam="2">  1        2 0.38539240E+00 0.65109964E+03</pdfrwt>
<totfact> 0.45145335E+00</totfact>
</mgrwt>
</event>
<event>
 5    1  0.2357694E-004  0.6772462E+03  0.7818608E-02  0.9756955E-01
         13   -1    0    0    0    0  0.00000000000E+00  0.00000000000E+00  0.10000000000E+04  0.10000000000E+04  0.00000000000E+00 0. -1.
          2   -1    0    0  501    0 -0.00000000000E+00 -0.00000000000E+00 -0.11466559876E+03  0.11466559876E+03  0.00000000000E+00 0. -1.
    9000006    2    1    2  501    0  0.00000000000E+00  0.00000000000E+00  0.88533440124E+03  0.11146655988E+04  0.67724618495E+03 0.  0.
         13    1    3    3    0    0 -0.22018937566E+03  0.24598491432E+03  0.31869347119E+03  0.45886541361E+03  0.00000000000E+00 0. -1.
          2    1    3    3  501    0  0.22018937566E+03 -0.24598491432E+03  0.56664093006E+03  0.65580018515E+03  0.00000000000E+00 0. -1.
<mgrwt>
<rscale>  0 0.67724618E+03</rscale>
<asrwt>0</asrwt>
<pdfrwt beam="1">0</pdfrwt>
<pdfrwt beam="2">  1        2 0.41696669E+00 0.67724618E+03</pdfrwt>
<totfact> 0.34284479E+00</totfact>
</mgrwt>
</event>
<event>
 5    1  0.2357694E-004  0.6518000E+03  0.7818608E-02  0.9803408E-01
         13   -1    0    0    0    0  0.00000000000E+00  0.00000000000E+00  0.10000000000E+04  0.10000000000E+04  0.00000000000E+00 0. -1.
          2   -1    0    0  501    0 -0.00000000000E+00 -0.00000000000E+00 -0.10621079902E+03  0.10621079902E+03  0.00000000000E+00 0. -1.
    9000006    2    1    2  501    0  0.00000000000E+00  0.00000000000E+00  0.89378920098E+03  0.11062107990E+04  0.65179996631E+03 0.  0.
         13    1    3    3    0    0  0.22154739531E+03  0.92342899612E+02  0.82104241423E+03  0.85540698234E+03  0.00000000000E+00 0. -1.
          2    1    3    3  501    0 -0.22154739531E+03 -0.92342899612E+02  0.72746786751E+02  0.25080381668E+03  0.00000000000E+00 0. -1.
<mgrwt>
<rscale>  0 0.65179997E+03</rscale>
<asrwt>0</asrwt>
<pdfrwt beam="1">0</pdfrwt>
<pdfrwt beam="2">  1        2 0.38622190E+00 0.65179997E+03</pdfrwt>
<totfact> 0.44824394E+00</totfact>
</mgrwt>
</event>
<event>
 5    1  0.2357694E-004  0.6416924E+03  0.7818608E-02  0.9822494E-01
         13   -1    0    0    0    0  0.00000000000E+00  0.00000000000E+00  0.10000000000E+04  0.10000000000E+04  0.00000000000E+00 0. -1.
          2   -1    0    0  501    0 -0.00000000000E+00 -0.00000000000E+00 -0.10294229025E+03  0.10294229025E+03  0.00000000000E+00 0. -1.
    9000006    2    1    2  501    0  0.00000000000E+00  0.00000000000E+00  0.89705770975E+03  0.11029422903E+04  0.64169241931E+03 0.  0.
         13    1    3    3    0    0  0.29205817967E+03  0.77919285995E+02  0.63343310057E+03  0.70185959304E+03  0.00000000000E+00 0. -1.
          2    1    3    3  501    0 -0.29205817967E+03 -0.77919285995E+02  0.26362460918E+03  0.40108269721E+03  0.00000000000E+00 0. -1.
<mgrwt>
<rscale>  0 0.64169242E+03</rscale>
<asrwt>0</asrwt>
<pdfrwt beam="1">0</pdfrwt>
<pdfrwt beam="2">  1        2 0.37433639E+00 0.64169242E+03</pdfrwt>
<totfact> 0.49627149E+00</totfact>
</mgrwt>
</event>
<event>
 5    1  0.2357694E-004  0.6500174E+03  0.7818608E-02  0.9806746E-01
         13   -1    0    0    0    0  0.00000000000E+00  0.00000000000E+00  0.10000000000E+04  0.10000000000E+04  0.00000000000E+00 0. -1.
          2   -1    0    0  501    0 -0.00000000000E+00 -0.00000000000E+00 -0.10563066270E+03  0.10563066270E+03  0.00000000000E+00 0. -1.
    9000006    2    1    2  501    0  0.00000000000E+00  0.00000000000E+00  0.89436933730E+03  0.11056306627E+04  0.65001742345E+03 0.  0.
         13    1    3    3    0    0  0.16375177892E+03  0.19465632306E+03  0.10308910941E+03  0.27446874810E+03  0.00000000000E+00 0. -1.
          2    1    3    3  501    0 -0.16375177892E+03 -0.19465632306E+03  0.79128022790E+03  0.83116191459E+03  0.00000000000E+00 0. -1.
<mgrwt>
<rscale>  0 0.65001742E+03</rscale>
<asrwt>0</asrwt>
<pdfrwt beam="1">0</pdfrwt>
<pdfrwt beam="2">  1        2 0.38411231E+00 0.65001742E+03</pdfrwt>
<totfact> 0.45644699E+00</totfact>
</mgrwt>
</event>
<event>
 5    1  0.2357694E-004  0.6571604E+03  0.7818608E-02  0.9793435E-01
         13   -1    0    0    0    0  0.00000000000E+00  0.00000000000E+00  0.10000000000E+04  0.10000000000E+04  0.00000000000E+00 0. -1.
          2   -1    0    0  501    0 -0.00000000000E+00 -0.00000000000E+00 -0.10796495023E+03  0.10796495023E+03  0.00000000000E+00 0. -1.
    9000006    2    1    2  501    0  0.00000000000E+00  0.00000000000E+00  0.89203504977E+03  0.11079649502E+04  0.65716040729E+03 0.  0.
         13    1    3    3    0    0 -0.16979079976E+02  0.32255241913E+03  0.54768973834E+03  0.63583991832E+03  0.00000000000E+00 0. -1.
          4    1    3    3  501    0  0.16979079976E+02 -0.32255241913E+03  0.34434531143E+03  0.47212503190E+03  0.00000000000E+00 0. -1.
<mgrwt>
<rscale>  0 0.65716041E+03</rscale>
<asrwt>0</asrwt>
<pdfrwt beam="1">0</pdfrwt>
<pdfrwt beam="2">  1        2 0.39260065E+00 0.65716041E+03</pdfrwt>
<totfact> 0.42424561E+00</totfact>
</mgrwt>
</event>
<event>
 5    1  0.2357694E-004  0.6213612E+03  0.7818608E-02  0.9862053E-01
         13   -1    0    0    0    0  0.00000000000E+00  0.00000000000E+00  0.10000000000E+04  0.10000000000E+04  0.00000000000E+00 0. -1.
          2   -1    0    0  501    0 -0.00000000000E+00 -0.00000000000E+00 -0.96522448555E+02  0.96522448555E+02  0.00000000000E+00 0. -1.
    9000006    2    1    2  501    0  0.00000000000E+00  0.00000000000E+00  0.90347755145E+03  0.10965224486E+04  0.62136124293E+03 0.  0.
         13    1    3    3    0    0  0.14198638387E+03  0.17197657818E+02 -0.34971194507E+02  0.14723748532E+03  0.00000000000E+00 0. -1.
          2    1    3    3  501    0 -0.14198638387E+03 -0.17197657818E+02  0.93844874595E+03  0.94928496323E+03  0.00000000000E+00 0. -1.
<mgrwt>
<rscale>  0 0.62136124E+03</rscale>
<asrwt>0</asrwt>
<pdfrwt beam="1">0</pdfrwt>
<pdfrwt beam="2">  1        2 0.35099146E+00 0.62136124E+03</pdfrwt>
<totfact> 0.60460778E+00</totfact>
</mgrwt>
</event>
<event>
 5    1  0.2357694E-004  0.6465093E+03  0.7818608E-02  0.9813351E-01
         13   -1    0    0    0    0  0.00000000000E+00  0.00000000000E+00  0.10000000000E+04  0.10000000000E+04  0.00000000000E+00 0. -1.
          2   -1    0    0  501    0 -0.00000000000E+00 -0.00000000000E+00 -0.10449355398E+03  0.10449355398E+03  0.00000000000E+00 0. -1.
    9000006    2    1    2  501    0  0.00000000000E+00  0.00000000000E+00  0.89550644602E+03  0.11044935540E+04  0.64650925433E+03 0.  0.
         13    1    3    3    0    0 -0.20245423272E+03 -0.70316632497E+02  0.34330638363E+02  0.21705008151E+03  0.00000000000E+00 0. -1.
          4    1    3    3  501    0  0.20245423272E+03  0.70316632497E+02  0.86117580766E+03  0.88744347248E+03  0.00000000000E+00 0. -1.
<mgrwt>
<rscale>  0 0.64650925E+03</rscale>
<asrwt>0</asrwt>
<pdfrwt beam="1">0</pdfrwt>
<pdfrwt beam="2">  1        2 0.37997736E+00 0.64650925E+03</pdfrwt>
<totfact> 0.47292208E+00</totfact>
</mgrwt>
</event>
<event>
 5    1  0.2357694E-004  0.6607372E+03  0.7818608E-02  0.9786838E-01
         13   -1    0    0    0    0  0.00000000000E+00  0.00000000000E+00  0.10000000000E+04  0.10000000000E+04  0.00000000000E+00 0. -1.
          2   -1    0    0  501    0 -0.00000000000E+00 -0.00000000000E+00 -0.10914341437E+03  0.10914341437E+03  0.00000000000E+00 0. -1.
    9000006    2    1    2  501    0  0.00000000000E+00  0.00000000000E+00  0.89085658563E+03  0.11091434144E+04  0.66073720759E+03 0.  0.
         13    1    3    3    0    0  0.20988994961E+03 -0.76287557611E+02  0.85410114547E+03  0.88281501409E+03  0.00000000000E+00 0. -1.
          4    1    3    3  501    0 -0.20988994961E+03  0.76287557611E+02  0.36755440153E+02  0.22632840029E+03  0.00000000000E+00 0. -1.
<mgrwt>
<rscale>  0 0.66073721E+03</rscale>
<asrwt>0</asrwt>
<pdfrwt beam="1">0</pdfrwt>
<pdfrwt beam="2">  1        2 0.39688598E+00 0.66073721E+03</pdfrwt>
<totfact> 0.40878202E+00</totfact>
</mgrwt>
</event>
<event>
 5    1  0.2357694E-004  0.6477151E+03  0.7818608E-02  0.9811076E-01
         13   -1    0    0    0    0  0.00000000000E+00  0.00000000000E+00  0.10000000000E+04  0.10000000000E+04  0.00000000000E+00 0. -1.
          2   -1    0    0  501    0 -0.00000000000E+00 -0.00000000000E+00 -0.10488371617E+03  0.10488371617E+03  0.00000000000E+00 0. -1.
    9000006    2    1    2  501    0  0.00000000000E+00  0.00000000000E+00  0.89511628383E+03  0.11048837162E+04  0.64771511073E+03 0.  0.
         13    1    3    3    0    0  0.28276031990E+03 -0.15395834411E+03  0.38780226126E+03  0.50403091578E+03  0.00000000000E+00 0. -1.
          2    1    3    3  501    0 -0.28276031990E+03  0.15395834411E+03  0.50731402257E+03  0.60085280038E+03  0.00000000000E+00 0. -1.
<mgrwt>
<rscale>  0 0.64771511E+03</rscale>
<asrwt>0</asrwt>
<pdfrwt beam="1">0</pdfrwt>
<pdfrwt beam="2">  1        2 0.38139614E+00 0.64771511E+03</pdfrwt>
<totfact> 0.46720926E+00</totfact>
</mgrwt>
</event>
<event>
 5    1  0.2357694E-004  0.6488208E+03  0.7818608E-02  0.9808994E-01
         13   -1    0    0    0    0  0.00000000000E+00  0.00000000000E+00  0.10000000000E+04  0.10000000000E+04  0.00000000000E+00 0. -1.
          2   -1    0    0  501    0 -0.00000000000E+00 -0.00000000000E+00 -0.10524212332E+03  0.10524212332E+03  0.00000000000E+00 0. -1.
    9000006    2    1    2  501    0  0.00000000000E+00  0.00000000000E+00  0.89475787668E+03  0.11052421233E+04  0.64882084838E+03 0.  0.
         13    1    3    3    0    0 -0.22272145489E+03  0.78354426678E+02  0.82636727646E+03  0.85943419658E+03  0.00000000000E+00 0. -1.
          4    1    3    3  501    0  0.22272145489E+03 -0.78354426678E+02  0.68390600215E+02  0.24580792674E+03  0.00000000000E+00 0. -1.
<mgrwt>
<rscale>  0 0.64882085E+03</rscale>
<asrwt>0</asrwt>
<pdfrwt beam="1">0</pdfrwt>
<pdfrwt beam="2">  1        2 0.38269944E+00 0.64882085E+03</pdfrwt>
<totfact> 0.46201677E+00</totfact>
</mgrwt>
</event>
<event>
 5    1  0.2357694E-004  0.6528190E+03  0.7818608E-02  0.9801504E-01
         13   -1    0    0    0    0  0.00000000000E+00  0.00000000000E+00  0.10000000000E+04  0.10000000000E+04  0.00000000000E+00 0. -1.
          2   -1    0    0  501    0 -0.00000000000E+00 -0.00000000000E+00 -0.10654316857E+03  0.10654316857E+03  0.00000000000E+00 0. -1.
    9000006    2    1    2  501    0  0.00000000000E+00  0.00000000000E+00  0.89345683143E+03  0.11065431686E+04  0.65281902109E+03 0.  0.
         13    1    3    3    0    0 -0.10336874692E+03  0.27472242165E+03  0.20471582061E+03  0.35786320572E+03  0.00000000000E+00 0. -1.
          4    1    3    3  501    0  0.10336874692E+03 -0.27472242165E+03  0.68874101081E+03  0.74867996285E+03  0.00000000000E+00 0. -1.
<mgrwt>
<rscale>  0 0.65281902E+03</rscale>
<asrwt>0</asrwt>
<pdfrwt beam="1">0</pdfrwt>
<pdfrwt beam="2">  1        2 0.38743052E+00 0.65281902E+03</pdfrwt>
<totfact> 0.44360470E+00</totfact>
</mgrwt>
</event>
<event>
 5    1  0.2357694E-004  0.6522269E+03  0.7818608E-02  0.9802609E-01
         13   -1    0    0    0    0  0.00000000000E+00  0.00000000000E+00  0.10000000000E+04  0.10000000000E+04  0.00000000000E+00 0. -1.
          2   -1    0    0  501    0 -0.00000000000E+00 -0.00000000000E+00 -0.10634999529E+03  0.10634999529E+03  0.00000000000E+00 0. -1.
    9000006    2    1    2  501    0  0.00000000000E+00  0.00000000000E+00  0.89365000471E+03  0.11063499953E+04  0.65222693993E+03 0.  0.
         13    1    3    3    0    0  0.21846377177E+03  0.19506870270E+03  0.20353194920E+03  0.35665595845E+03  0.00000000000E+00 0. -1.
          4    1    3    3  501    0 -0.21846377177E+03 -0.19506870270E+03  0.69011805550E+03  0.74969403685E+03  0.00000000000E+00 0. -1.
<mgrwt>
<rscale>  0 0.65222694E+03</rscale>
<asrwt>0</asrwt>
<pdfrwt beam="1">0</pdfrwt>
<pdfrwt beam="2">  1        2 0.38672807E+00 0.65222694E+03</pdfrwt>
<totfact> 0.44629571E+00</totfact>
</mgrwt>
</event>
<event>
 5    1  0.2357694E-004  0.6438010E+03  0.7818608E-02  0.9818481E-01
         13   -1    0    0    0    0  0.00000000000E+00  0.00000000000E+00  0.10000000000E+04  0.10000000000E+04  0.00000000000E+00 0. -1.
          2   -1    0    0  501    0 -0.00000000000E+00 -0.00000000000E+00 -0.10361992880E+03  0.10361992880E+03  0.00000000000E+00 0. -1.
    9000006    2    1    2  501    0  0.00000000000E+00  0.00000000000E+00  0.89638007120E+03  0.11036199288E+04  0.64380099038E+03 0.  0.
         13    1    3    3    0    0  0.19606535468E+03  0.20763976883E+03  0.19355958877E+03  0.34499450910E+03  0.00000000000E+00 0. -1.
          2    1    3    3  501    0 -0.19606535468E+03 -0.20763976883E+03  0.70282048243E+03  0.75862541971E+03  0.00000000000E+00 0. -1.
<mgrwt>
<rscale>  0 0.64380099E+03</rscale>
<asrwt>0</asrwt>
<pdfrwt beam="1">0</pdfrwt>
<pdfrwt beam="2">  1        2 0.37680054E+00 0.64380099E+03</pdfrwt>
<totfact> 0.48594517E+00</totfact>
</mgrwt>
</event>
<event>
 5    1  0.2357694E-004  0.6452774E+03  0.7818608E-02  0.9815681E-01
         13   -1    0    0    0    0  0.00000000000E+00  0.00000000000E+00  0.10000000000E+04  0.10000000000E+04  0.00000000000E+00 0. -1.
          2   -1    0    0  501    0 -0.00000000000E+00 -0.00000000000E+00 -0.10409574384E+03  0.10409574384E+03  0.00000000000E+00 0. -1.
    9000006    2    1    2  501    0  0.00000000000E+00  0.00000000000E+00  0.89590425616E+03  0.11040957438E+04  0.64527744062E+03 0.  0.
         13    1    3    3    0    0 -0.13188535548E+03  0.27271154632E+03  0.25795414043E+03  0.39787645451E+03  0.00000000000E+00 0. -1.
          2    1    3    3  501    0  0.13188535548E+03 -0.27271154632E+03  0.63795011572E+03  0.70621928934E+03  0.00000000000E+00 0. -1.
<mgrwt>
<rscale>  0 0.64527744E+03</rscale>
<asrwt>0</asrwt>
<pdfrwt beam="1">0</pdfrwt>
<pdfrwt beam="2">  1        2 0.37853078E+00 0.64527744E+03</pdfrwt>
<totfact> 0.47881226E+00</totfact>
</mgrwt>
</event>
<event>
 5    1  0.2357694E-004  0.6500622E+03  0.7818608E-02  0.9806662E-01
         13   -1    0    0    0    0  0.00000000000E+00  0.00000000000E+00  0.10000000000E+04  0.10000000000E+04  0.00000000000E+00 0. -1.
          2   -1    0    0  501    0 -0.00000000000E+00 -0.00000000000E+00 -0.10564521988E+03  0.10564521988E+03  0.00000000000E+00 0. -1.
    9000006    2    1    2  501    0  0.00000000000E+00  0.00000000000E+00  0.89435478012E+03  0.11056452199E+04  0.65006221204E+03 0.  0.
         13    1    3    3    0    0  0.55511246954E+02 -0.31475996960E+03  0.34670047383E+03  0.47154698128E+03  0.00000000000E+00 0. -1.
          4    1    3    3  501    0 -0.55511246954E+02  0.31475996960E+03  0.54765430629E+03  0.63409823860E+03  0.00000000000E+00 0. -1.
<mgrwt>
<rscale>  0 0.65006221E+03</rscale>
<asrwt>0</asrwt>
<pdfrwt beam="1">0</pdfrwt>
<pdfrwt beam="2">  1        2 0.38416525E+00 0.65006221E+03</pdfrwt>
<totfact> 0.45623950E+00</totfact>
</mgrwt>
</event>
<event>
 5    1  0.2357694E-004  0.6667271E+03  0.7818608E-02  0.9775888E-01
         13   -1    0    0    0    0  0.00000000000E+00  0.00000000000E+00  0.10000000000E+04  0.10000000000E+04  0.00000000000E+00 0. -1.
          2   -1    0    0  501    0 -0.00000000000E+00 -0.00000000000E+00 -0.11113126399E+03  0.11113126399E+03  0.00000000000E+00 0. -1.
    9000006    2    1    2  501    0  0.00000000000E+00  0.00000000000E+00  0.88886873601E+03  0.11111312640E+04  0.66672712256E+03 0.  0.
         13    1    3    3    0    0 -0.24195395386E+03  0.14888569120E+03  0.15375420000E+03  0.32303098745E+03  0.00000000000E+00 0. -1.
          2    1    3    3  501    0  0.24195395386E+03 -0.14888569120E+03  0.73511453601E+03  0.78810027654E+03  0.00000000000E+00 0. -1.
<mgrwt>
<rscale>  0 0.66672712E+03</rscale>
<asrwt>0</asrwt>
<pdfrwt beam="1">0</pdfrwt>
<pdfrwt beam="2">  1        2 0.40411454E+00 0.66672712E+03</pdfrwt>
<totfact> 0.38384346E+00</totfact>
</mgrwt>
</event>
<event>
 5    1  0.2357694E-004  0.6090167E+03  0.7818608E-02  0.9886874E-01
         13   -1    0    0    0    0  0.00000000000E+00  0.00000000000E+00  0.10000000000E+04  0.10000000000E+04  0.00000000000E+00 0. -1.
          2   -1    0    0  501    0 -0.00000000000E+00 -0.00000000000E+00 -0.92725335703E+02  0.92725335703E+02  0.00000000000E+00 0. -1.
    9000006    2    1    2  501    0  0.00000000000E+00  0.00000000000E+00  0.90727466430E+03  0.10927253357E+04  0.60901670159E+03 0.  0.
         13    1    3    3    0    0 -0.41361392719E+02  0.23594638173E+03  0.79095485031E+03  0.82643271661E+03  0.00000000000E+00 0. -1.
          2    1    3    3  501    0  0.41361392719E+02 -0.23594638173E+03  0.11631981399E+03  0.26629261909E+03  0.00000000000E+00 0. -1.
<mgrwt>
<rscale>  0 0.60901670E+03</rscale>
<asrwt>0</asrwt>
<pdfrwt beam="1">0</pdfrwt>
<pdfrwt beam="2">  1        2 0.33718375E+00 0.60901670E+03</pdfrwt>
<totfact> 0.67862909E+00</totfact>
</mgrwt>
</event>
<event>
 5    1  0.2357694E-004  0.6989739E+03  0.7818608E-02  0.9718989E-01
         13   -1    0    0    0    0  0.00000000000E+00  0.00000000000E+00  0.10000000000E+04  0.10000000000E+04  0.00000000000E+00 0. -1.
          2   -1    0    0  501    0 -0.00000000000E+00 -0.00000000000E+00 -0.12214114148E+03  0.12214114148E+03  0.00000000000E+00 0. -1.
    9000006    2    1    2  501    0  0.00000000000E+00  0.00000000000E+00  0.87785885852E+03  0.11221411415E+04  0.69897393794E+03 0.  0.
         13    1    3    3    0    0  0.71956037911E+02  0.23546718098E+03  0.83711910479E+03  0.87257713717E+03  0.00000000000E+00 0. -1.
          4    1    3    3  501    0 -0.71956037911E+02 -0.23546718098E+03  0.40739753731E+02  0.24956400431E+03  0.00000000000E+00 0. -1.
<mgrwt>
<rscale>  0 0.69897394E+03</rscale>
<asrwt>0</asrwt>
<pdfrwt beam="1">0</pdfrwt>
<pdfrwt beam="2">  1        2 0.44415054E+00 0.69897394E+03</pdfrwt>
<totfact> 0.26867371E+00</totfact>
</mgrwt>
</event>
<event>
 5    1  0.2357694E-004  0.6512455E+03  0.7818608E-02  0.9804445E-01
         13   -1    0    0    0    0  0.00000000000E+00  0.00000000000E+00  0.10000000000E+04  0.10000000000E+04  0.00000000000E+00 0. -1.
          2   -1    0    0  501    0 -0.00000000000E+00 -0.00000000000E+00 -0.10603018265E+03  0.10603018265E+03  0.00000000000E+00 0. -1.
    9000006    2    1    2  501    0  0.00000000000E+00  0.00000000000E+00  0.89396981735E+03  0.11060301826E+04  0.65124552251E+03 0.  0.
         13    1    3    3    0    0  0.20073483391E+03  0.24196388224E+02  0.13493743016E+02  0.20263765654E+03  0.00000000000E+00 0. -1.
          4    1    3    3  501    0 -0.20073483391E+03 -0.24196388224E+02  0.88047607434E+03  0.90339252611E+03  0.00000000000E+00 0. -1.
<mgrwt>
<rscale>  0 0.65124552E+03</rscale>
<asrwt>0</asrwt>
<pdfrwt beam="1">0</pdfrwt>
<pdfrwt beam="2">  1        2 0.38556511E+00 0.65124552E+03</pdfrwt>
<totfact> 0.45078339E+00</totfact>
</mgrwt>
</event>
<event>
 5    1  0.2357694E-004  0.6531736E+03  0.7818608E-02  0.9800842E-01
         13   -1    0    0    0    0  0.00000000000E+00  0.00000000000E+00  0.10000000000E+04  0.10000000000E+04  0.00000000000E+00 0. -1.
          2   -1    0    0  501    0 -0.00000000000E+00 -0.00000000000E+00 -0.10665893416E+03  0.10665893416E+03  0.00000000000E+00 0. -1.
    9000006    2    1    2  501    0  0.00000000000E+00  0.00000000000E+00  0.89334106584E+03  0.11066589342E+04  0.65317358843E+03 0.  0.
         13    1    3    3    0    0  0.56219528311E+02 -0.23958936747E+03  0.82911999651E+02  0.25968846731E+03  0.00000000000E+00 0. -1.
          2    1    3    3  501    0 -0.56219528311E+02  0.23958936747E+03  0.81042906619E+03  0.84697046684E+03  0.00000000000E+00 0. -1.
<mgrwt>
<rscale>  0 0.65317359E+03</rscale>
<asrwt>0</asrwt>
<pdfrwt beam="1">0</pdfrwt>
<pdfrwt beam="2">  1        2 0.38785149E+00 0.65317359E+03</pdfrwt>
<totfact> 0.44199907E+00</totfact>
</mgrwt>
</event>
<event>
 5    1  0.2357694E-004  0.6235745E+03  0.7818608E-02  0.9857668E-01
         13   -1    0    0    0    0  0.00000000000E+00  0.00000000000E+00  0.10000000000E+04  0.10000000000E+04  0.00000000000E+00 0. -1.
          2   -1    0    0  501    0 -0.00000000000E+00 -0.00000000000E+00 -0.97211293454E+02  0.97211293454E+02  0.00000000000E+00 0. -1.
    9000006    2    1    2  501    0  0.00000000000E+00  0.00000000000E+00  0.90278870655E+03  0.10972112935E+04  0.62357451344E+03 0.  0.
         13    1    3    3    0    0  0.24963708204E+03  0.16517650806E+03  0.60488271899E+03  0.67489632928E+03  0.00000000000E+00 0. -1.
          2    1    3    3  501    0 -0.24963708204E+03 -0.16517650806E+03  0.29790598756E+03  0.42231496417E+03  0.00000000000E+00 0. -1.
<mgrwt>
<rscale>  0 0.62357451E+03</rscale>
<asrwt>0</asrwt>
<pdfrwt beam="1">0</pdfrwt>
<pdfrwt beam="2">  1        2 0.35349636E+00 0.62357451E+03</pdfrwt>
<totfact> 0.59201540E+00</totfact>
</mgrwt>
</event>
<event>
 5    1  0.2357694E-004  0.6548442E+03  0.7818608E-02  0.9797732E-01
         13   -1    0    0    0    0  0.00000000000E+00  0.00000000000E+00  0.10000000000E+04  0.10000000000E+04  0.00000000000E+00 0. -1.
          2   -1    0    0  501    0 -0.00000000000E+00 -0.00000000000E+00 -0.10720524052E+03  0.10720524052E+03  0.00000000000E+00 0. -1.
    9000006    2    1    2  501    0  0.00000000000E+00  0.00000000000E+00  0.89279475948E+03  0.11072052405E+04  0.65484422734E+03 0.  0.
         13    1    3    3    0    0 -0.29806920250E+03  0.22153709145E+01  0.21732733132E+03  0.36889202524E+03  0.00000000000E+00 0. -1.
          2    1    3    3  501    0  0.29806920250E+03 -0.22153709145E+01  0.67546742816E+03  0.73831321528E+03  0.00000000000E+00 0. -1.
<mgrwt>
<rscale>  0 0.65484423E+03</rscale>
<asrwt>0</asrwt>
<pdfrwt beam="1">0</pdfrwt>
<pdfrwt beam="2">  1        2 0.38983806E+00 0.65484423E+03</pdfrwt>
<totfact> 0.43449271E+00</totfact>
</mgrwt>
</event>
<event>
 5    1  0.2357694E-004  0.6988055E+03  0.7818608E-02  0.9719277E-01
         13   -1    0    0    0    0  0.00000000000E+00  0.00000000000E+00  0.10000000000E+04  0.10000000000E+04  0.00000000000E+00 0. -1.
          2   -1    0    0  501    0 -0.00000000000E+00 -0.00000000000E+00 -0.12208229811E+03  0.12208229811E+03  0.00000000000E+00 0. -1.
    9000006    2    1    2  501    0  0.00000000000E+00  0.00000000000E+00  0.87791770189E+03  0.11220822981E+04  0.69880554694E+03 0.  0.
         13    1    3    3    0    0  0.27157453115E+03  0.21725358530E+03  0.49294649731E+03  0.60328110820E+03  0.00000000000E+00 0. -1.
          4    1    3    3  501    0 -0.27157453115E+03 -0.21725358530E+03  0.38497120458E+03  0.51880118991E+03  0.00000000000E+00 0. -1.
<mgrwt>
<rscale>  0 0.69880555E+03</rscale>
<asrwt>0</asrwt>
<pdfrwt beam="1">0</pdfrwt>
<pdfrwt beam="2">  1        2 0.44393657E+00 0.69880555E+03</pdfrwt>
<totfact> 0.26919732E+00</totfact>
</mgrwt>
</event>
<event>
 5    1  0.2357694E-004  0.6600310E+03  0.7818608E-02  0.9788137E-01
         13   -1    0    0    0    0  0.00000000000E+00  0.00000000000E+00  0.10000000000E+04  0.10000000000E+04  0.00000000000E+00 0. -1.
          2   -1    0    0  501    0 -0.00000000000E+00 -0.00000000000E+00 -0.10891022379E+03  0.10891022379E+03  0.00000000000E+00 0. -1.
    9000006    2    1    2  501    0  0.00000000000E+00  0.00000000000E+00  0.89108977621E+03  0.11089102238E+04  0.66003098045E+03 0.  0.
         13    1    3    3    0    0 -0.19806322838E+03 -0.26218343475E+03  0.39400620525E+03  0.51304004295E+03  0.00000000000E+00 0. -1.
          2    1    3    3  501    0  0.19806322838E+03  0.26218343475E+03  0.49708357097E+03  0.59587018084E+03  0.00000000000E+00 0. -1.
<mgrwt>
<rscale>  0 0.66003098E+03</rscale>
<asrwt>0</asrwt>
<pdfrwt beam="1">0</pdfrwt>
<pdfrwt beam="2">  1        2 0.39603801E+00 0.66003098E+03</pdfrwt>
<totfact> 0.41180090E+00</totfact>
</mgrwt>
</event>
<event>
 5    1  0.2357694E-004  0.6451039E+03  0.7818608E-02  0.9816010E-01
         13   -1    0    0    0    0  0.00000000000E+00  0.00000000000E+00  0.10000000000E+04  0.10000000000E+04  0.00000000000E+00 0. -1.
          2   -1    0    0  501    0 -0.00000000000E+00 -0.00000000000E+00 -0.10403974629E+03  0.10403974629E+03  0.00000000000E+00 0. -1.
    9000006    2    1    2  501    0  0.00000000000E+00  0.00000000000E+00  0.89596025371E+03  0.11040397463E+04  0.64510385611E+03 0.  0.
         13    1    3    3    0    0 -0.17294564067E+03 -0.25200353117E+03  0.62437844513E+03  0.69517222117E+03  0.00000000000E+00 0. -1.
          2    1    3    3  501    0  0.17294564067E+03  0.25200353117E+03  0.27158180858E+03  0.40886752512E+03  0.00000000000E+00 0. -1.
<mgrwt>
<rscale>  0 0.64510386E+03</rscale>
<asrwt>0</asrwt>
<pdfrwt beam="1">0</pdfrwt>
<pdfrwt beam="2">  1        2 0.37832715E+00 0.64510386E+03</pdfrwt>
<totfact> 0.47964673E+00</totfact>
</mgrwt>
</event>
<event>
 5    1  0.2357694E-004  0.6522576E+03  0.7818608E-02  0.9802552E-01
         13   -1    0    0    0    0  0.00000000000E+00  0.00000000000E+00  0.10000000000E+04  0.10000000000E+04  0.00000000000E+00 0. -1.
          2   -1    0    0  501    0 -0.00000000000E+00 -0.00000000000E+00 -0.10636000204E+03  0.10636000204E+03  0.00000000000E+00 0. -1.
    9000006    2    1    2  501    0  0.00000000000E+00  0.00000000000E+00  0.89363999796E+03  0.11063600020E+04  0.65225762406E+03 0.  0.
         13    1    3    3    0    0  0.10352912171E+03 -0.30533064950E+03  0.36346561447E+03  0.48585217656E+03  0.00000000000E+00 0. -1.
          2    1    3    3  501    0 -0.10352912171E+03  0.30533064950E+03  0.53017438350E+03  0.62050782548E+03  0.00000000000E+00 0. -1.
<mgrwt>
<rscale>  0 0.65225762E+03</rscale>
<asrwt>0</asrwt>
<pdfrwt beam="1">0</pdfrwt>
<pdfrwt beam="2">  1        2 0.38676446E+00 0.65225762E+03</pdfrwt>
<totfact> 0.44615595E+00</totfact>
</mgrwt>
</event>
<event>
 5    1  0.2357694E-004  0.6794880E+03  0.7818608E-02  0.9752968E-01
         13   -1    0    0    0    0  0.00000000000E+00  0.00000000000E+00  0.10000000000E+04  0.10000000000E+04  0.00000000000E+00 0. -1.
          2   -1    0    0  501    0 -0.00000000000E+00 -0.00000000000E+00 -0.11542598211E+03  0.11542598211E+03  0.00000000000E+00 0. -1.
    9000006    2    1    2  501    0  0.00000000000E+00  0.00000000000E+00  0.88457401789E+03  0.11154259821E+04  0.67948798990E+03 0.  0.
         13    1    3    3    0    0  0.27752057266E+03  0.15369789533E+03  0.24268099886E+03  0.39941804978E+03  0.00000000000E+00 0. -1.
          4    1    3    3  501    0 -0.27752057266E+03 -0.15369789533E+03  0.64189301903E+03  0.71600793233E+03  0.00000000000E+00 0. -1.
<mgrwt>
<rscale>  0 0.67948799E+03</rscale>
<asrwt>0</asrwt>
<pdfrwt beam="1">0</pdfrwt>
<pdfrwt beam="2">  1        2 0.41973173E+00 0.67948799E+03</pdfrwt>
<totfact> 0.33455248E+00</totfact>
</mgrwt>
</event>
<event>
 5    1  0.2357694E-004  0.6461654E+03  0.7818608E-02  0.9814001E-01
         13   -1    0    0    0    0  0.00000000000E+00  0.00000000000E+00  0.10000000000E+04  0.10000000000E+04  0.00000000000E+00 0. -1.
          2   -1    0    0  501    0 -0.00000000000E+00 -0.00000000000E+00 -0.10438241831E+03  0.10438241831E+03  0.00000000000E+00 0. -1.
    9000006    2    1    2  501    0  0.00000000000E+00  0.00000000000E+00  0.89561758169E+03  0.11043824183E+04  0.64616536059E+03 0.  0.
         13    1    3    3    0    0  0.23411944668E+03  0.18954480602E+03  0.24817454646E+03  0.39029444566E+03  0.00000000000E+00 0. -1.
          2    1    3    3  501    0 -0.23411944668E+03 -0.18954480602E+03  0.64744303524E+03  0.71408797265E+03  0.00000000000E+00 0. -1.
<mgrwt>
<rscale>  0 0.64616536E+03</rscale>
<asrwt>0</asrwt>
<pdfrwt beam="1">0</pdfrwt>
<pdfrwt beam="2">  1        2 0.37957323E+00 0.64616536E+03</pdfrwt>
<totfact> 0.47456093E+00</totfact>
</mgrwt>
</event>
<event>
 5    1  0.2357694E-004  0.6459620E+03  0.7818608E-02  0.9814386E-01
         13   -1    0    0    0    0  0.00000000000E+00  0.00000000000E+00  0.10000000000E+04  0.10000000000E+04  0.00000000000E+00 0. -1.
          2   -1    0    0  501    0 -0.00000000000E+00 -0.00000000000E+00 -0.10431671066E+03  0.10431671066E+03  0.00000000000E+00 0. -1.
    9000006    2    1    2  501    0  0.00000000000E+00  0.00000000000E+00  0.89568328934E+03  0.11043167107E+04  0.64596195138E+03 0.  0.
         13    1    3    3    0    0  0.28521716818E+03 -0.48599165139E+02  0.69324672045E+03  0.75120019122E+03  0.00000000000E+00 0. -1.
          2    1    3    3  501    0 -0.28521716818E+03  0.48599165139E+02  0.20243656889E+03  0.35311651944E+03  0.00000000000E+00 0. -1.
<mgrwt>
<rscale>  0 0.64596195E+03</rscale>
<asrwt>0</asrwt>
<pdfrwt beam="1">0</pdfrwt>
<pdfrwt beam="2">  1        2 0.37933429E+00 0.64596195E+03</pdfrwt>
<totfact> 0.47553232E+00</totfact>
</mgrwt>
</event>
<event>
 5    1  0.2357694E-004  0.6398778E+03  0.7818608E-02  0.9825960E-01
         13   -1    0    0    0    0  0.00000000000E+00  0.00000000000E+00  0.10000000000E+04  0.10000000000E+04  0.00000000000E+00 0. -1.
          2   -1    0    0  501    0 -0.00000000000E+00 -0.00000000000E+00 -0.10236089957E+03  0.10236089957E+03  0.00000000000E+00 0. -1.
    9000006    2    1    2  501    0  0.00000000000E+00  0.00000000000E+00  0.89763910043E+03  0.11023608996E+04  0.63987779951E+03 0.  0.
         13    1    3    3    0    0  0.30474159865E+03  0.95858210593E+02  0.47888967665E+03  0.57566618876E+03  0.00000000000E+00 0. -1.
          2    1    3    3  501    0 -0.30474159865E+03 -0.95858210593E+02  0.41874942378E+03  0.52669471081E+03  0.00000000000E+00 0. -1.
<mgrwt>
<rscale>  0 0.63987780E+03</rscale>
<asrwt>0</asrwt>
<pdfrwt beam="1">0</pdfrwt>
<pdfrwt beam="2">  1        2 0.37222224E+00 0.63987780E+03</pdfrwt>
<totfact> 0.50529094E+00</totfact>
</mgrwt>
</event>
<event>
 5    1  0.2357694E-004  0.6486563E+03  0.7818608E-02  0.9809304E-01
         13   -1    0    0    0    0  0.00000000000E+00  0.00000000000E+00  0.10000000000E+04  0.10000000000E+04  0.00000000000E+00 0. -1.
          2   -1    0    0  501    0 -0.00000000000E+00 -0.00000000000E+00 -0.10518875669E+03  0.10518875669E+03  0.00000000000E+00 0. -1.
    9000006    2    1    2  501    0  0.00000000000E+00  0.00000000000E+00  0.89481124331E+03  0.11051887567E+04  0.64865632407E+03 0.  0.
         13    1    3    3    0    0  0.31453758341E+03 -0.58235803578E+02  0.35623244310E+03  0.47877641307E+03  0.00000000000E+00 0. -1.
          4    1    3    3  501    0 -0.31453758341E+03  0.58235803578E+02  0.53857880021E+03  0.62641234361E+03  0.00000000000E+00 0. -1.
<mgrwt>
<rscale>  0 0.64865632E+03</rscale>
<asrwt>0</asrwt>
<pdfrwt beam="1">0</pdfrwt>
<pdfrwt beam="2">  1        2 0.38250538E+00 0.64865632E+03</pdfrwt>
<totfact> 0.46278660E+00</totfact>
</mgrwt>
</event>
<event>
 5    1  0.2357694E-004  0.6647213E+03  0.7818608E-02  0.9779541E-01
         13   -1    0    0    0    0  0.00000000000E+00  0.00000000000E+00  0.10000000000E+04  0.10000000000E+04  0.00000000000E+00 0. -1.
          2   -1    0    0  501    0 -0.00000000000E+00 -0.00000000000E+00 -0.11046359928E+03  0.11046359928E+03  0.00000000000E+00 0. -1.
    9000006    2    1    2  501    0  0.00000000000E+00  0.00000000000E+00  0.88953640072E+03  0.11104635993E+04  0.66472129281E+03 0.  0.
         13    1    3    3    0    0 -0.26381789350E+03  0.20146218311E+03  0.47255732757E+03  0.57749226834E+03  0.00000000000E+00 0. -1.
          2    1    3    3  501    0  0.26381789350E+03 -0.20146218311E+03  0.41697907315E+03  0.53297133094E+03  0.00000000000E+00 0. -1.
<mgrwt>
<rscale>  0 0.66472129E+03</rscale>
<asrwt>0</asrwt>
<pdfrwt beam="1">0</pdfrwt>
<pdfrwt beam="2">  1        2 0.40168666E+00 0.66472129E+03</pdfrwt>
<totfact> 0.39206297E+00</totfact>
</mgrwt>
</event>
<event>
 5    1  0.2357694E-004  0.6587446E+03  0.7818608E-02  0.9790508E-01
         13   -1    0    0    0    0  0.00000000000E+00  0.00000000000E+00  0.10000000000E+04  0.10000000000E+04  0.00000000000E+00 0. -1.
          2   -1    0    0  501    0 -0.00000000000E+00 -0.00000000000E+00 -0.10848610415E+03  0.10848610415E+03  0.00000000000E+00 0. -1.
    9000006    2    1    2  501    0  0.00000000000E+00  0.00000000000E+00  0.89151389585E+03  0.11084861042E+04  0.65874457615E+03 0.  0.
         13    1    3    3    0    0 -0.29287047022E+03  0.84227390389E+02  0.65605544942E+03  0.72337826781E+03  0.00000000000E+00 0. -1.
          4    1    3    3  501    0  0.29287047022E+03 -0.84227390389E+02  0.23545844643E+03  0.38510783634E+03  0.00000000000E+00 0. -1.
<mgrwt>
<rscale>  0 0.65874458E+03</rscale>
<asrwt>0</asrwt>
<pdfrwt beam="1">0</pdfrwt>
<pdfrwt beam="2">  1        2 0.39449576E+00 0.65874458E+03</pdfrwt>
<totfact> 0.41734305E+00</totfact>
</mgrwt>
</event>
<event>
 5    1  0.2357694E-004  0.6487047E+03  0.7818608E-02  0.9809213E-01
         13   -1    0    0    0    0  0.00000000000E+00  0.00000000000E+00  0.10000000000E+04  0.10000000000E+04  0.00000000000E+00 0. -1.
          2   -1    0    0  501    0 -0.00000000000E+00 -0.00000000000E+00 -0.10520444986E+03  0.10520444986E+03  0.00000000000E+00 0. -1.
    9000006    2    1    2  501    0  0.00000000000E+00  0.00000000000E+00  0.89479555014E+03  0.11052044499E+04  0.64870470898E+03 0.  0.
         13    1    3    3    0    0 -0.68755300190E+02  0.30403715639E+03  0.29464649168E+03  0.42893174146E+03  0.00000000000E+00 0. -1.
          4    1    3    3  501    0  0.68755300190E+02 -0.30403715639E+03  0.60014905846E+03  0.67627270841E+03  0.00000000000E+00 0. -1.
<mgrwt>
<rscale>  0 0.64870471E+03</rscale>
<asrwt>0</asrwt>
<pdfrwt beam="1">0</pdfrwt>
<pdfrwt beam="2">  1        2 0.38256244E+00 0.64870471E+03</pdfrwt>
<totfact> 0.46256010E+00</totfact>
</mgrwt>
</event>
<event>
 5    1  0.2357694E-004  0.6472062E+03  0.7818608E-02  0.9812036E-01
         13   -1    0    0    0    0  0.00000000000E+00  0.00000000000E+00  0.10000000000E+04  0.10000000000E+04  0.00000000000E+00 0. -1.
          2   -1    0    0  501    0 -0.00000000000E+00 -0.00000000000E+00 -0.10471896917E+03  0.10471896917E+03  0.00000000000E+00 0. -1.
    9000006    2    1    2  501    0  0.00000000000E+00  0.00000000000E+00  0.89528103083E+03  0.11047189692E+04  0.64720620876E+03 0.  0.
         13    1    3    3    0    0 -0.85045443854E+02  0.12036302856E+03 -0.44110790516E+02  0.15383675765E+03  0.00000000000E+00 0. -1.
          2    1    3    3  501    0  0.85045443854E+02 -0.12036302856E+03  0.93939182135E+03  0.95088221152E+03  0.00000000000E+00 0. -1.
<mgrwt>
<rscale>  0 0.64720621E+03</rscale>
<asrwt>0</asrwt>
<pdfrwt beam="1">0</pdfrwt>
<pdfrwt beam="2">  1        2 0.38079705E+00 0.64720621E+03</pdfrwt>
<totfact> 0.46961381E+00</totfact>
</mgrwt>
</event>
<event>
 5    1  0.2357694E-004  0.6492297E+03  0.7818608E-02  0.9808226E-01
         13   -1    0    0    0    0  0.00000000000E+00  0.00000000000E+00  0.10000000000E+04  0.10000000000E+04  0.00000000000E+00 0. -1.
          2   -1    0    0  501    0 -0.00000000000E+00 -0.00000000000E+00 -0.10537479275E+03  0.10537479275E+03  0.00000000000E+00 0. -1.
    9000006    2    1    2  501    0  0.00000000000E+00  0.00000000000E+00  0.89462520725E+03  0.11053747927E+04  0.64922967507E+03 0.  0.
         13    1    3    3    0    0 -0.14420602966E+03 -0.28827680115E+03  0.38190328684E+03  0.49974895054E+03  0.00000000000E+00 0. -1.
          2    1    3    3  501    0  0.14420602966E+03  0.28827680115E+03  0.51272192042E+03  0.60562584221E+03  0.00000000000E+00 0. -1.
<mgrwt>
<rscale>  0 0.64922968E+03</rscale>
<asrwt>0</asrwt>
<pdfrwt beam="1">0</pdfrwt>
<pdfrwt beam="2">  1        2 0.38318187E+00 0.64922968E+03</pdfrwt>
<totfact> 0.46010803E+00</totfact>
</mgrwt>
</event>
<event>
 5    1  0.2357694E-004  0.6470848E+03  0.7818608E-02  0.9812265E-01
         13   -1    0    0    0    0  0.00000000000E+00  0.00000000000E+00  0.10000000000E+04  0.10000000000E+04  0.00000000000E+00 0. -1.
          2   -1    0    0  501    0 -0.00000000000E+00 -0.00000000000E+00 -0.10467967004E+03  0.10467967004E+03  0.00000000000E+00 0. -1.
    9000006    2    1    2  501    0  0.00000000000E+00  0.00000000000E+00  0.89532032996E+03  0.11046796700E+04  0.64708475502E+03 0.  0.
         13    1    3    3    0    0 -0.23673956650E+03 -0.12360241520E+03  0.13586787618E+03  0.29963854753E+03  0.00000000000E+00 0. -1.
          4    1    3    3  501    0  0.23673956650E+03  0.12360241520E+03  0.75945245378E+03  0.80504112251E+03  0.00000000000E+00 0. -1.
<mgrwt>
<rscale>  0 0.64708476E+03</rscale>
<asrwt>0</asrwt>
<pdfrwt beam="1">0</pdfrwt>
<pdfrwt beam="2">  1        2 0.38065415E+00 0.64708476E+03</pdfrwt>
<totfact> 0.47018906E+00</totfact>
</mgrwt>
</event>
<event>
 5    1  0.2357694E-004  0.6517661E+03  0.7818608E-02  0.9803471E-01
         13   -1    0    0    0    0  0.00000000000E+00  0.00000000000E+00  0.10000000000E+04  0.10000000000E+04  0.00000000000E+00 0. -1.
          2   -1    0    0  501    0 -0.00000000000E+00 -0.00000000000E+00 -0.10619975615E+03  0.10619975615E+03  0.00000000000E+00 0. -1.
    9000006    2    1    2  501    0  0.00000000000E+00  0.00000000000E+00  0.89380024385E+03  0.11061997562E+04  0.65176608121E+03 0.  0.
         13    1    3    3    0    0  0.11885856291E+03  0.25623855937E+03  0.72274220550E+03  0.77597799769E+03  0.00000000000E+00 0. -1.
          2    1    3    3  501    0 -0.11885856291E+03 -0.25623855937E+03  0.17105803835E+03  0.33022175847E+03  0.00000000000E+00 0. -1.
<mgrwt>
<rscale>  0 0.65176608E+03</rscale>
<asrwt>0</asrwt>
<pdfrwt beam="1">0</pdfrwt>
<pdfrwt beam="2">  1        2 0.38618175E+00 0.65176608E+03</pdfrwt>
<totfact> 0.44839883E+00</totfact>
</mgrwt>
</event>
<event>
 5    1  0.2357694E-004  0.6555530E+03  0.7818608E-02  0.9796415E-01
         13   -1    0    0    0    0  0.00000000000E+00  0.00000000000E+00  0.10000000000E+04  0.10000000000E+04  0.00000000000E+00 0. -1.
          2   -1    0    0  501    0 -0.00000000000E+00 -0.00000000000E+00 -0.10743743086E+03  0.10743743086E+03  0.00000000000E+00 0. -1.
    9000006    2    1    2  501    0  0.00000000000E+00  0.00000000000E+00  0.89256256914E+03  0.11074374309E+04  0.65555299056E+03 0.  0.
         13    1    3    3    0    0  0.92096534548E+02  0.30957721375E+03  0.54060527005E+03  0.62974112217E+03  0.00000000000E+00 0. -1.
          2    1    3    3  501    0 -0.92096534548E+02 -0.30957721375E+03  0.35195729910E+03  0.47769630869E+03  0.00000000000E+00 0. -1.
<mgrwt>
<rscale>  0 0.65555299E+03</rscale>
<asrwt>0</asrwt>
<pdfrwt beam="1">0</pdfrwt>
<pdfrwt beam="2">  1        2 0.39068239E+00 0.65555299E+03</pdfrwt>
<totfact> 0.43133742E+00</totfact>
</mgrwt>
</event>
<event>
 5    1  0.2357694E-004  0.6491411E+03  0.7818608E-02  0.9808392E-01
         13   -1    0    0    0    0  0.00000000000E+00  0.00000000000E+00  0.10000000000E+04  0.10000000000E+04  0.00000000000E+00 0. -1.
          2   -1    0    0  501    0 -0.00000000000E+00 -0.00000000000E+00 -0.10534605533E+03  0.10534605533E+03  0.00000000000E+00 0. -1.
    9000006    2    1    2  501    0  0.00000000000E+00  0.00000000000E+00  0.89465394467E+03  0.11053460553E+04  0.64914114130E+03 0.  0.
         13    1    3    3    0    0  0.41987644862E+02 -0.77947233811E+02  0.97904054314E+03  0.98303566501E+03  0.00000000000E+00 0. -1.
          2    1    3    3  501    0 -0.41987644862E+02  0.77947233811E+02 -0.84386598466E+02  0.12231039032E+03  0.00000000000E+00 0. -1.
<mgrwt>
<rscale>  0 0.64914114E+03</rscale>
<asrwt>0</asrwt>
<pdfrwt beam="1">0</pdfrwt>
<pdfrwt beam="2">  1        2 0.38307737E+00 0.64914114E+03</pdfrwt>
<totfact> 0.46052088E+00</totfact>
</mgrwt>
</event>
<event>
 5    1  0.2357694E-004  0.6830380E+03  0.7818608E-02  0.9746687E-01
         13   -1    0    0    0    0  0.00000000000E+00  0.00000000000E+00  0.10000000000E+04  0.10000000000E+04  0.00000000000E+00 0. -1.
          2   -1    0    0  501    0 -0.00000000000E+00 -0.00000000000E+00 -0.11663522624E+03  0.11663522624E+03  0.00000000000E+00 0. -1.
    9000006    2    1    2  501    0  0.00000000000E+00  0.00000000000E+00  0.88336477376E+03  0.11166352262E+04  0.68303799670E+03 0.  0.
         13    1    3    3    0    0  0.20443123838E+03  0.20166069001E+03  0.13945942017E+03  0.31923047316E+03  0.00000000000E+00 0. -1.
          2    1    3    3  501    0 -0.20443123838E+03 -0.20166069001E+03  0.74390535359E+03  0.79740475307E+03  0.00000000000E+00 0. -1.
<mgrwt>
<rscale>  0 0.68303800E+03</rscale>
<asrwt>0</asrwt>
<pdfrwt beam="1">0</pdfrwt>
<pdfrwt beam="2">  1        2 0.42412899E+00 0.68303800E+03</pdfrwt>
<totfact> 0.32173121E+00</totfact>
</mgrwt>
</event>
<event>
 5    1  0.2357694E-004  0.6525276E+03  0.7818608E-02  0.9802048E-01
         13   -1    0    0    0    0  0.00000000000E+00  0.00000000000E+00  0.10000000000E+04  0.10000000000E+04  0.00000000000E+00 0. -1.
          2   -1    0    0  501    0 -0.00000000000E+00 -0.00000000000E+00 -0.10644807684E+03  0.10644807684E+03  0.00000000000E+00 0. -1.
    9000006    2    1    2  501    0  0.00000000000E+00  0.00000000000E+00  0.89355192316E+03  0.11064480768E+04  0.65252762957E+03 0.  0.
         13    1    3    3    0    0 -0.35280034503E+01  0.15137401682E+03 -0.43263858647E+02  0.15747476382E+03  0.00000000000E+00 0. -1.
          2    1    3    3  501    0  0.35280034503E+01 -0.15137401682E+03  0.93681578181E+03  0.94897331302E+03  0.00000000000E+00 0. -1.
<mgrwt>
<rscale>  0 0.65252763E+03</rscale>
<asrwt>0</asrwt>
<pdfrwt beam="1">0</pdfrwt>
<pdfrwt beam="2">  1        2 0.38708473E+00 0.65252763E+03</pdfrwt>
<totfact> 0.44492754E+00</totfact>
</mgrwt>
</event>
<event>
 5    1  0.2357694E-004  0.6350725E+03  0.7818608E-02  0.9835200E-01
         13   -1    0    0    0    0  0.00000000000E+00  0.00000000000E+00  0.10000000000E+04  0.10000000000E+04  0.00000000000E+00 0. -1.
          2   -1    0    0  501    0 -0.00000000000E+00 -0.00000000000E+00 -0.10082928462E+03  0.10082928462E+03  0.00000000000E+00 0. -1.
    9000006    2    1    2  501    0  0.00000000000E+00  0.00000000000E+00  0.89917071538E+03  0.11008292846E+04  0.63507254584E+03 0.  0.
         13    1    3    3    0    0 -0.30490050474E+03  0.87960833909E+02  0.46918560182E+03  0.56642435952E+03  0.00000000000E+00 0. -1.
          2    1    3    3  501    0  0.30490050474E+03 -0.87960833909E+02  0.42998511355E+03  0.53440492510E+03  0.00000000000E+00 0. -1.
<mgrwt>
<rscale>  0 0.63507255E+03</rscale>
<asrwt>0</asrwt>
<pdfrwt beam="1">0</pdfrwt>
<pdfrwt beam="2">  1        2 0.36665272E+00 0.63507255E+03</pdfrwt>
<totfact> 0.52977531E+00</totfact>
</mgrwt>
</event>
<event>
 5    1  0.2357694E-004  0.6277331E+03  0.7818608E-02  0.9849482E-01
         13   -1    0    0    0    0  0.00000000000E+00  0.00000000000E+00  0.10000000000E+04  0.10000000000E+04  0.00000000000E+00 0. -1.
          2   -1    0    0  501    0 -0.00000000000E+00 -0.00000000000E+00 -0.98512210504E+02  0.98512210504E+02  0.00000000000E+00 0. -1.
    9000006    2    1    2  501    0  0.00000000000E+00  0.00000000000E+00  0.90148778950E+03  0.10985122105E+04  0.62773309776E+03 0.  0.
         13    1    3    3    0    0 -0.27215437146E+03  0.30155897188E+02  0.71920748753E+03  0.76956922376E+03  0.00000000000E+00 0. -1.
          2    1    3    3  501    0  0.27215437146E+03 -0.30155897188E+02  0.18228030197E+03  0.32894298674E+03  0.00000000000E+00 0. -1.
<mgrwt>
<rscale>  0 0.62773310E+03</rscale>
<asrwt>0</asrwt>
<pdfrwt beam="1">0</pdfrwt>
<pdfrwt beam="2">  1        2 0.35822698E+00 0.62773310E+03</pdfrwt>
<totfact> 0.56889596E+00</totfact>
</mgrwt>
</event>
<event>
 5    1  0.2357694E-004  0.6494182E+03  0.7818608E-02  0.9807872E-01
         13   -1    0    0    0    0  0.00000000000E+00  0.00000000000E+00  0.10000000000E+04  0.10000000000E+04  0.00000000000E+00 0. -1.
          2   -1    0    0  501    0 -0.00000000000E+00 -0.00000000000E+00 -0.10543599478E+03  0.10543599478E+03  0.00000000000E+00 0. -1.
    9000006    2    1    2  501    0  0.00000000000E+00  0.00000000000E+00  0.89456400522E+03  0.11054359948E+04  0.64941818509E+03 0.  0.
         13    1    3    3    0    0 -0.26634566605E+01  0.43261992518E+02 -0.10048960409E+03  0.10943881637E+03  0.00000000000E+00 0. -1.
          4    1    3    3  501    0  0.26634566605E+01 -0.43261992518E+02  0.99505360931E+03  0.99599717841E+03  0.00000000000E+00 0. -1.
<mgrwt>
<rscale>  0 0.64941819E+03</rscale>
<asrwt>0</asrwt>
<pdfrwt beam="1">0</pdfrwt>
<pdfrwt beam="2">  1        2 0.38340443E+00 0.64941819E+03</pdfrwt>
<totfact> 0.45922992E+00</totfact>
</mgrwt>
</event>
<event>
 5    1  0.2357694E-004  0.6448763E+03  0.7818608E-02  0.9816441E-01
         13   -1    0    0    0    0  0.00000000000E+00  0.00000000000E+00  0.10000000000E+04  0.10000000000E+04  0.00000000000E+00 0. -1.
          2   -1    0    0  501    0 -0.00000000000E+00 -0.00000000000E+00 -0.10396634812E+03  0.10396634812E+03  0.00000000000E+00 0. -1.
    9000006    2    1    2  501    0  0.00000000000E+00  0.00000000000E+00  0.89603365188E+03  0.11039663481E+04  0.64487626137E+03 0.  0.
         13    1    3    3    0    0 -0.22923957016E+03 -0.21846291951E+03  0.55200031898E+03  0.63638131642E+03  0.00000000000E+00 0. -1.
          4    1    3    3  501    0  0.22923957016E+03  0.21846291951E+03  0.34403333290E+03  0.46758503170E+03  0.00000000000E+00 0. -1.
<mgrwt>
<rscale>  0 0.64487626E+03</rscale>
<asrwt>0</asrwt>
<pdfrwt beam="1">0</pdfrwt>
<pdfrwt beam="2">  1        2 0.37806024E+00 0.64487626E+03</pdfrwt>
<totfact> 0.48074251E+00</totfact>
</mgrwt>
</event>
<event>
 5    1  0.2357694E-004  0.6551383E+03  0.7818608E-02  0.9797185E-01
         13   -1    0    0    0    0  0.00000000000E+00  0.00000000000E+00  0.10000000000E+04  0.10000000000E+04  0.00000000000E+00 0. -1.
          2   -1    0    0  501    0 -0.00000000000E+00 -0.00000000000E+00 -0.10730153743E+03  0.10730153743E+03  0.00000000000E+00 0. -1.
    9000006    2    1    2  501    0  0.00000000000E+00  0.00000000000E+00  0.89269846257E+03  0.11073015374E+04  0.65513826764E+03 0.  0.
         13    1    3    3    0    0 -0.25946798125E+03  0.10406286145E+03  0.73491410302E+03  0.78628967387E+03  0.00000000000E+00 0. -1.
          4    1    3    3  501    0  0.25946798125E+03 -0.10406286145E+03  0.15778435955E+03  0.32101186356E+03  0.00000000000E+00 0. -1.
<mgrwt>
<rscale>  0 0.65513827E+03</rscale>
<asrwt>0</asrwt>
<pdfrwt beam="1">0</pdfrwt>
<pdfrwt beam="2">  1        2 0.39018823E+00 0.65513827E+03</pdfrwt>
<totfact> 0.43318158E+00</totfact>
</mgrwt>
</event>
<event>
 5    1  0.2357694E-004  0.6569693E+03  0.7818608E-02  0.9793789E-01
         13   -1    0    0    0    0  0.00000000000E+00  0.00000000000E+00  0.10000000000E+04  0.10000000000E+04  0.00000000000E+00 0. -1.
          2   -1    0    0  501    0 -0.00000000000E+00 -0.00000000000E+00 -0.10790216213E+03  0.10790216213E+03  0.00000000000E+00 0. -1.
    9000006    2    1    2  501    0  0.00000000000E+00  0.00000000000E+00  0.89209783787E+03  0.11079021621E+04  0.65696929039E+03 0.  0.
         13    1    3    3    0    0  0.24603488539E+03  0.32721199549E+02  0.83189033816E+02  0.26177138323E+03  0.00000000000E+00 0. -1.
          4    1    3    3  501    0 -0.24603488539E+03 -0.32721199549E+02  0.80890880406E+03  0.84613077890E+03  0.00000000000E+00 0. -1.
<mgrwt>
<rscale>  0 0.65696929E+03</rscale>
<asrwt>0</asrwt>
<pdfrwt beam="1">0</pdfrwt>
<pdfrwt beam="2">  1        2 0.39237233E+00 0.65696929E+03</pdfrwt>
<totfact> 0.42508416E+00</totfact>
</mgrwt>
</event>
<event>
 5    1  0.2357694E-004  0.6064251E+03  0.7818608E-02  0.9892165E-01
         13   -1    0    0    0    0  0.00000000000E+00  0.00000000000E+00  0.10000000000E+04  0.10000000000E+04  0.00000000000E+00 0. -1.
          2   -1    0    0  501    0 -0.00000000000E+00 -0.00000000000E+00 -0.91937853838E+02  0.91937853838E+02  0.00000000000E+00 0. -1.
    9000006    2    1    2  501    0  0.00000000000E+00  0.00000000000E+00  0.90806214616E+03  0.10919378538E+04  0.60642511108E+03 0.  0.
         13    1    3    3    0    0 -0.17904750676E+03  0.22243000841E+03  0.27036190115E+03  0.39322852886E+03  0.00000000000E+00 0. -1.
          2    1    3    3  501    0  0.17904750676E+03 -0.22243000841E+03  0.63770024501E+03  0.69870932497E+03  0.00000000000E+00 0. -1.
<mgrwt>
<rscale>  0 0.60642511E+03</rscale>
<asrwt>0</asrwt>
<pdfrwt beam="1">0</pdfrwt>
<pdfrwt beam="2">  1        2 0.33432017E+00 0.60642511E+03</pdfrwt>
<totfact> 0.69501086E+00</totfact>
</mgrwt>
</event>
<event>
 5    1  0.2357694E-004  0.6456208E+03  0.7818608E-02  0.9815031E-01
         13   -1    0    0    0    0  0.00000000000E+00  0.00000000000E+00  0.10000000000E+04  0.10000000000E+04  0.00000000000E+00 0. -1.
          2   -1    0    0  501    0 -0.00000000000E+00 -0.00000000000E+00 -0.10420654998E+03  0.10420654998E+03  0.00000000000E+00 0. -1.
    9000006    2    1    2  501    0  0.00000000000E+00  0.00000000000E+00  0.89579345002E+03  0.11042065500E+04  0.64562078648E+03 0.  0.
         13    1    3    3    0    0 -0.17227110221E+03 -0.54931527936E+01  0.91471533406E+03  0.93081236012E+03  0.00000000000E+00 0. -1.
          2    1    3    3  501    0  0.17227110221E+03  0.54931527936E+01 -0.18921884042E+02  0.17339418987E+03  0.00000000000E+00 0. -1.
<mgrwt>
<rscale>  0 0.64562079E+03</rscale>
<asrwt>0</asrwt>
<pdfrwt beam="1">0</pdfrwt>
<pdfrwt beam="2">  1        2 0.37893371E+00 0.64562079E+03</pdfrwt>
<totfact> 0.47716493E+00</totfact>
</mgrwt>
</event>
<event>
 5    1  0.2357694E-004  0.6522934E+03  0.7818608E-02  0.9802485E-01
         13   -1    0    0    0    0  0.00000000000E+00  0.00000000000E+00  0.10000000000E+04  0.10000000000E+04  0.00000000000E+00 0. -1.
          2   -1    0    0  501    0 -0.00000000000E+00 -0.00000000000E+00 -0.10637168194E+03  0.10637168194E+03  0.00000000000E+00 0. -1.
    9000006    2    1    2  501    0  0.00000000000E+00  0.00000000000E+00  0.89362831806E+03  0.11063716819E+04  0.65229343686E+03 0.  0.
         13    1    3    3    0    0  0.19780451392E+03  0.61978681367E+02  0.19728153321E+02  0.20822387640E+03  0.00000000000E+00 0. -1.
          2    1    3    3  501    0 -0.19780451392E+03 -0.61978681367E+02  0.87390016474E+03  0.89814780554E+03  0.00000000000E+00 0. -1.
<mgrwt>
<rscale>  0 0.65229344E+03</rscale>
<asrwt>0</asrwt>
<pdfrwt beam="1">0</pdfrwt>
<pdfrwt beam="2">  1        2 0.38680693E+00 0.65229344E+03</pdfrwt>
<totfact> 0.44599287E+00</totfact>
</mgrwt>
</event>
<event>
 5    1  0.2357694E-004  0.6500479E+03  0.7818608E-02  0.9806689E-01
         13   -1    0    0    0    0  0.00000000000E+00  0.00000000000E+00  0.10000000000E+04  0.10000000000E+04  0.00000000000E+00 0. -1.
          2   -1    0    0  501    0 -0.00000000000E+00 -0.00000000000E+00 -0.10564057814E+03  0.10564057814E+03  0.00000000000E+00 0. -1.
    9000006    2    1    2  501    0  0.00000000000E+00  0.00000000000E+00  0.89435942186E+03  0.11056405781E+04  0.65004793099E+03 0.  0.
         13    1    3    3    0    0  0.30278684353E+03 -0.47073946629E+02  0.63150734994E+03  0.70192404297E+03  0.00000000000E+00 0. -1.
          4    1    3    3  501    0 -0.30278684353E+03  0.47073946629E+02  0.26285207191E+03  0.40371653518E+03  0.00000000000E+00 0. -1.
<mgrwt>
<rscale>  0 0.65004793E+03</rscale>
<asrwt>0</asrwt>
<pdfrwt beam="1">0</pdfrwt>
<pdfrwt beam="2">  1        2 0.38414837E+00 0.65004793E+03</pdfrwt>
<totfact> 0.45630565E+00</totfact>
</mgrwt>
</event>
<event>
 5    1  0.2357694E-004  0.6892552E+03  0.7818608E-02  0.9735786E-01
         13   -1    0    0    0    0  0.00000000000E+00  0.00000000000E+00  0.10000000000E+04  0.10000000000E+04  0.00000000000E+00 0. -1.
          2   -1    0    0  501    0 -0.00000000000E+00 -0.00000000000E+00 -0.11876819211E+03  0.11876819211E+03  0.00000000000E+00 0. -1.
    9000006    2    1    2  501    0  0.00000000000E+00  0.00000000000E+00  0.88123180789E+03  0.11187681921E+04  0.68925522736E+03 0.  0.
         13    1    3    3    0    0  0.12144195191E+03  0.32199118595E+03  0.41061076632E+03  0.53574963643E+03  0.00000000000E+00 0. -1.
          4    1    3    3  501    0 -0.12144195191E+03 -0.32199118595E+03  0.47062104157E+03  0.58301855569E+03  0.00000000000E+00 0. -1.
<mgrwt>
<rscale>  0 0.68925523E+03</rscale>
<asrwt>0</asrwt>
<pdfrwt beam="1">0</pdfrwt>
<pdfrwt beam="2">  1        2 0.43188525E+00 0.68925523E+03</pdfrwt>
<totfact> 0.30017233E+00</totfact>
</mgrwt>
</event>
<event>
 5    1  0.2357694E-004  0.6461173E+03  0.7818608E-02  0.9814092E-01
         13   -1    0    0    0    0  0.00000000000E+00  0.00000000000E+00  0.10000000000E+04  0.10000000000E+04  0.00000000000E+00 0. -1.
          2   -1    0    0  501    0 -0.00000000000E+00 -0.00000000000E+00 -0.10436689100E+03  0.10436689100E+03  0.00000000000E+00 0. -1.
    9000006    2    1    2  501    0  0.00000000000E+00  0.00000000000E+00  0.89563310900E+03  0.11043668910E+04  0.64611729896E+03 0.  0.
         13    1    3    3    0    0  0.24410777215E+02 -0.20744842492E+03  0.26580380110E+02  0.21056412718E+03  0.00000000000E+00 0. -1.
          4    1    3    3  501    0 -0.24410777215E+02  0.20744842492E+03  0.86905272888E+03  0.89380276383E+03  0.00000000000E+00 0. -1.
<mgrwt>
<rscale>  0 0.64611730E+03</rscale>
<asrwt>0</asrwt>
<pdfrwt beam="1">0</pdfrwt>
<pdfrwt beam="2">  1        2 0.37951677E+00 0.64611730E+03</pdfrwt>
<totfact> 0.47479032E+00</totfact>
</mgrwt>
</event>
<event>
 5    1  0.2357694E-004  0.6332958E+03  0.7818608E-02  0.9838638E-01
         13   -1    0    0    0    0  0.00000000000E+00  0.00000000000E+00  0.10000000000E+04  0.10000000000E+04  0.00000000000E+00 0. -1.
          2   -1    0    0  501    0 -0.00000000000E+00 -0.00000000000E+00 -0.10026589118E+03  0.10026589118E+03  0.00000000000E+00 0. -1.
    9000006    2    1    2  501    0  0.00000000000E+00  0.00000000000E+00  0.89973410882E+03  0.11002658912E+04  0.63329579561E+03 0.  0.
         13    1    3    3    0    0 -0.92316429864E+02  0.29289359354E+03  0.58395866105E+03  0.65978534250E+03  0.00000000000E+00 0. -1.
          4    1    3    3  501    0  0.92316429864E+02 -0.29289359354E+03  0.31577544777E+03  0.44048054869E+03  0.00000000000E+00 0. -1.
<mgrwt>
<rscale>  0 0.63329580E+03</rscale>
<asrwt>0</asrwt>
<pdfrwt beam="1">0</pdfrwt>
<pdfrwt beam="2">  1        2 0.36460401E+00 0.63329580E+03</pdfrwt>
<totfact> 0.53905237E+00</totfact>
</mgrwt>
</event>
<event>
 5    1  0.2357694E-004  0.6593843E+03  0.7818608E-02  0.9789328E-01
         13   -1    0    0    0    0  0.00000000000E+00  0.00000000000E+00  0.10000000000E+04  0.10000000000E+04  0.00000000000E+00 0. -1.
          2   -1    0    0  501    0 -0.00000000000E+00 -0.00000000000E+00 -0.10869691080E+03  0.10869691080E+03  0.00000000000E+00 0. -1.
    9000006    2    1    2  501    0  0.00000000000E+00  0.00000000000E+00  0.89130308920E+03  0.11086969108E+04  0.65938429099E+03 0.  0.
         13    1    3    3    0    0 -0.17526147405E+03 -0.98829693848E+02  0.65066138686E+01  0.20131127315E+03  0.00000000000E+00 0. -1.
          4    1    3    3  501    0  0.17526147405E+03  0.98829693848E+02  0.88479647533E+03  0.90738563766E+03  0.00000000000E+00 0. -1.
<mgrwt>
<rscale>  0 0.65938429E+03</rscale>
<asrwt>0</asrwt>
<pdfrwt beam="1">0</pdfrwt>
<pdfrwt beam="2">  1        2 0.39526233E+00 0.65938429E+03</pdfrwt>
<totfact> 0.41458001E+00</totfact>
</mgrwt>
</event>
<event>
 5    1  0.2357694E-004  0.4815195E+03  0.7818608E-02  0.1018718E+00
         13   -1    0    0    0    0  0.00000000000E+00  0.00000000000E+00  0.10000000000E+04  0.10000000000E+04  0.00000000000E+00 0. -1.
          2   -1    0    0  501    0 -0.00000000000E+00 -0.00000000000E+00 -0.57965253314E+02  0.57965253314E+02  0.00000000000E+00 0. -1.
    9000006    2    1    2  501    0  0.00000000000E+00  0.00000000000E+00  0.94203474669E+03  0.10579652533E+04  0.48151948378E+03 0.  0.
         13    1    3    3    0    0 -0.73079756110E+01 -0.15279497115E+03  0.87950530974E+03  0.89270896689E+03  0.00000000000E+00 0. -1.
          4    1    3    3  501    0  0.73079756110E+01  0.15279497115E+03  0.62529436948E+02  0.16525628642E+03  0.00000000000E+00 0. -1.
<mgrwt>
<rscale>  0 0.48151948E+03</rscale>
<asrwt>0</asrwt>
<pdfrwt beam="1">0</pdfrwt>
<pdfrwt beam="2">  1        2 0.21078318E+00 0.48151948E+03</pdfrwt>
<totfact> 0.19366420E+01</totfact>
</mgrwt>
</event>
<event>
 5    1  0.2357694E-004  0.6428757E+03  0.7818608E-02  0.9820240E-01
         13   -1    0    0    0    0  0.00000000000E+00  0.00000000000E+00  0.10000000000E+04  0.10000000000E+04  0.00000000000E+00 0. -1.
          2   -1    0    0  501    0 -0.00000000000E+00 -0.00000000000E+00 -0.10332229396E+03  0.10332229396E+03  0.00000000000E+00 0. -1.
    9000006    2    1    2  501    0  0.00000000000E+00  0.00000000000E+00  0.89667770604E+03  0.11033222940E+04  0.64287570794E+03 0.  0.
         13    1    3    3    0    0 -0.94104415557E+02  0.14863625815E+03  0.91004580438E+03  0.92689359925E+03  0.00000000000E+00 0. -1.
          2    1    3    3  501    0  0.94104415557E+02 -0.14863625815E+03 -0.13368098341E+02  0.17642869471E+03  0.00000000000E+00 0. -1.
<mgrwt>
<rscale>  0 0.64287571E+03</rscale>
<asrwt>0</asrwt>
<pdfrwt beam="1">0</pdfrwt>
<pdfrwt beam="2">  1        2 0.37571822E+00 0.64287571E+03</pdfrwt>
<totfact> 0.49045614E+00</totfact>
</mgrwt>
</event>
<event>
 5    1  0.2357694E-004  0.6597132E+03  0.7818608E-02  0.9788722E-01
         13   -1    0    0    0    0  0.00000000000E+00  0.00000000000E+00  0.10000000000E+04  0.10000000000E+04  0.00000000000E+00 0. -1.
          2   -1    0    0  501    0 -0.00000000000E+00 -0.00000000000E+00 -0.10880536313E+03  0.10880536313E+03  0.00000000000E+00 0. -1.
    9000006    2    1    2  501    0  0.00000000000E+00  0.00000000000E+00  0.89119463687E+03  0.11088053631E+04  0.65971315927E+03 0.  0.
         13    1    3    3    0    0  0.55414665908E+02  0.16796018996E+03 -0.22372801733E+02  0.17827493617E+03  0.00000000000E+00 0. -1.
          4    1    3    3  501    0 -0.55414665908E+02 -0.16796018996E+03  0.91356743861E+03  0.93053042696E+03  0.00000000000E+00 0. -1.
<mgrwt>
<rscale>  0 0.65971316E+03</rscale>
<asrwt>0</asrwt>
<pdfrwt beam="1">0</pdfrwt>
<pdfrwt beam="2">  1        2 0.39565670E+00 0.65971316E+03</pdfrwt>
<totfact> 0.41316495E+00</totfact>
</mgrwt>
</event>
<event>
 5    1  0.2357694E-004  0.5759470E+03  0.7818608E-02  0.9956605E-01
         13   -1    0    0    0    0  0.00000000000E+00  0.00000000000E+00  0.10000000000E+04  0.10000000000E+04  0.00000000000E+00 0. -1.
          2   -1    0    0  501    0 -0.00000000000E+00 -0.00000000000E+00 -0.82928724411E+02  0.82928724411E+02  0.00000000000E+00 0. -1.
    9000006    2    1    2  501    0  0.00000000000E+00  0.00000000000E+00  0.91707127559E+03  0.10829287244E+04  0.57594695732E+03 0.  0.
         13    1    3    3    0    0  0.26011192160E+02 -0.28517559403E+03  0.40128733616E+03  0.49298400350E+03  0.00000000000E+00 0. -1.
          4    1    3    3  501    0 -0.26011192160E+02  0.28517559403E+03  0.51578393943E+03  0.58994472091E+03  0.00000000000E+00 0. -1.
<mgrwt>
<rscale>  0 0.57594696E+03</rscale>
<asrwt>0</asrwt>
<pdfrwt beam="1">0</pdfrwt>
<pdfrwt beam="2">  1        2 0.30155963E+00 0.57594696E+03</pdfrwt>
<totfact> 0.91148782E+00</totfact>
</mgrwt>
</event>
<event>
 5    1  0.2357694E-004  0.6347113E+03  0.7818608E-02  0.9835898E-01
         13   -1    0    0    0    0  0.00000000000E+00  0.00000000000E+00  0.10000000000E+04  0.10000000000E+04  0.00000000000E+00 0. -1.
          2   -1    0    0  501    0 -0.00000000000E+00 -0.00000000000E+00 -0.10071461919E+03  0.10071461919E+03  0.00000000000E+00 0. -1.
    9000006    2    1    2  501    0  0.00000000000E+00  0.00000000000E+00  0.89928538081E+03  0.11007146192E+04  0.63471133342E+03 0.  0.
         13    1    3    3    0    0 -0.26340414879E+03 -0.17407351800E+03  0.50533402248E+03  0.59585720566E+03  0.00000000000E+00 0. -1.
          2    1    3    3  501    0  0.26340414879E+03  0.17407351800E+03  0.39395135833E+03  0.50485741353E+03  0.00000000000E+00 0. -1.
<mgrwt>
<rscale>  0 0.63471133E+03</rscale>
<asrwt>0</asrwt>
<pdfrwt beam="1">0</pdfrwt>
<pdfrwt beam="2">  1        2 0.36623575E+00 0.63471133E+03</pdfrwt>
<totfact> 0.53165145E+00</totfact>
</mgrwt>
</event>
<event>
 5    1  0.2357694E-004  0.6492726E+03  0.7818608E-02  0.9808145E-01
         13   -1    0    0    0    0  0.00000000000E+00  0.00000000000E+00  0.10000000000E+04  0.10000000000E+04  0.00000000000E+00 0. -1.
          2   -1    0    0  501    0 -0.00000000000E+00 -0.00000000000E+00 -0.10538874015E+03  0.10538874015E+03  0.00000000000E+00 0. -1.
    9000006    2    1    2  501    0  0.00000000000E+00  0.00000000000E+00  0.89461125985E+03  0.11053887402E+04  0.64927263966E+03 0.  0.
         13    1    3    3    0    0  0.64565164928E+02  0.18487341444E+03  0.88812542884E+03  0.90945786996E+03  0.00000000000E+00 0. -1.
          4    1    3    3  501    0 -0.64565164928E+02 -0.18487341444E+03  0.64858310078E+01  0.19593087019E+03  0.00000000000E+00 0. -1.
<mgrwt>
<rscale>  0 0.64927264E+03</rscale>
<asrwt>0</asrwt>
<pdfrwt beam="1">0</pdfrwt>
<pdfrwt beam="2">  1        2 0.38323259E+00 0.64927264E+03</pdfrwt>
<totfact> 0.45990779E+00</totfact>
</mgrwt>
</event>
<event>
 5    1  0.2357694E-004  0.6289624E+03  0.7818608E-02  0.9847076E-01
         13   -1    0    0    0    0  0.00000000000E+00  0.00000000000E+00  0.10000000000E+04  0.10000000000E+04  0.00000000000E+00 0. -1.
          2   -1    0    0  501    0 -0.00000000000E+00 -0.00000000000E+00 -0.98898415947E+02  0.98898415947E+02  0.00000000000E+00 0. -1.
    9000006    2    1    2  501    0  0.00000000000E+00  0.00000000000E+00  0.90110158405E+03  0.10988984159E+04  0.62896237073E+03 0.  0.
         13    1    3    3    0    0 -0.36290024343E+02 -0.84262882374E+02 -0.74996859755E+02  0.11849779823E+03  0.00000000000E+00 0. -1.
          2    1    3    3  501    0  0.36290024343E+02  0.84262882374E+02  0.97609844381E+03  0.98040061772E+03  0.00000000000E+00 0. -1.
<mgrwt>
<rscale>  0 0.62896237E+03</rscale>
<asrwt>0</asrwt>
<pdfrwt beam="1">0</pdfrwt>
<pdfrwt beam="2">  1        2 0.35963136E+00 0.62896237E+03</pdfrwt>
<totfact> 0.56219562E+00</totfact>
</mgrwt>
</event>
<event>
 5    1  0.2357694E-004  0.4907482E+03  0.7818608E-02  0.1016222E+00
         13   -1    0    0    0    0  0.00000000000E+00  0.00000000000E+00  0.10000000000E+04  0.10000000000E+04  0.00000000000E+00 0. -1.
          2   -1    0    0  501    0 -0.00000000000E+00 -0.00000000000E+00 -0.60208458048E+02  0.60208458048E+02  0.00000000000E+00 0. -1.
    9000006    2    1    2  501    0  0.00000000000E+00  0.00000000000E+00  0.93979154195E+03  0.10602084580E+04  0.49074823707E+03 0.  0.
         13    1    3    3    0    0 -0.16785075961E+03 -0.52641894270E+02  0.10032723142E+03  0.20251074020E+03  0.00000000000E+00 0. -1.
          2    1    3    3  501    0  0.16785075961E+03  0.52641894270E+02  0.83946431053E+03  0.85769771784E+03  0.00000000000E+00 0. -1.
<mgrwt>
<rscale>  0 0.49074824E+03</rscale>
<asrwt>0</asrwt>
<pdfrwt beam="1">0</pdfrwt>
<pdfrwt beam="2">  1        2 0.21894031E+00 0.49074824E+03</pdfrwt>
<totfact> 0.18070278E+01</totfact>
</mgrwt>
</event>
<event>
 5    1  0.2357694E-004  0.5222957E+03  0.7818608E-02  0.1008118E+00
         13   -1    0    0    0    0  0.00000000000E+00  0.00000000000E+00  0.10000000000E+04  0.10000000000E+04  0.00000000000E+00 0. -1.
          2   -1    0    0  501    0 -0.00000000000E+00 -0.00000000000E+00 -0.68198192963E+02  0.68198192963E+02  0.00000000000E+00 0. -1.
    9000006    2    1    2  501    0  0.00000000000E+00  0.00000000000E+00  0.93180180704E+03  0.10681981930E+04  0.52229567474E+03 0.  0.
         13    1    3    3    0    0  0.16474079663E+03 -0.20223501016E+03  0.49174362832E+03  0.55664200830E+03  0.00000000000E+00 0. -1.
          4    1    3    3  501    0 -0.16474079663E+03  0.20223501016E+03  0.44005817871E+03  0.51155618466E+03  0.00000000000E+00 0. -1.
<mgrwt>
<rscale>  0 0.52229567E+03</rscale>
<asrwt>0</asrwt>
<pdfrwt beam="1">0</pdfrwt>
<pdfrwt beam="2">  1        2 0.24799395E+00 0.52229567E+03</pdfrwt>
<totfact> 0.14173122E+01</totfact>
</mgrwt>
</event>
<event>
 5    1  0.2357694E-004  0.6537701E+03  0.7818608E-02  0.9799730E-01
         13   -1    0    0    0    0  0.00000000000E+00  0.00000000000E+00  0.10000000000E+04  0.10000000000E+04  0.00000000000E+00 0. -1.
          2   -1    0    0  501    0 -0.00000000000E+00 -0.00000000000E+00 -0.10685383707E+03  0.10685383707E+03  0.00000000000E+00 0. -1.
    9000006    2    1    2  501    0  0.00000000000E+00  0.00000000000E+00  0.89314616293E+03  0.11068538371E+04  0.65377010354E+03 0.  0.
         13    1    3    3    0    0  0.16587555346E+03  0.25813404899E+03  0.25573334890E+03  0.39943388968E+03  0.00000000000E+00 0. -1.
          4    1    3    3  501    0 -0.16587555346E+03 -0.25813404899E+03  0.63741281403E+03  0.70741994739E+03  0.00000000000E+00 0. -1.
<mgrwt>
<rscale>  0 0.65377010E+03</rscale>
<asrwt>0</asrwt>
<pdfrwt beam="1">0</pdfrwt>
<pdfrwt beam="2">  1        2 0.38856023E+00 0.65377010E+03</pdfrwt>
<totfact> 0.43930771E+00</totfact>
</mgrwt>
</event>
<event>
 5    1  0.2357694E-004  0.6570847E+03  0.7818608E-02  0.9793575E-01
         13   -1    0    0    0    0  0.00000000000E+00  0.00000000000E+00  0.10000000000E+04  0.10000000000E+04  0.00000000000E+00 0. -1.
          2   -1    0    0  501    0 -0.00000000000E+00 -0.00000000000E+00 -0.10794006848E+03  0.10794006848E+03  0.00000000000E+00 0. -1.
    9000006    2    1    2  501    0  0.00000000000E+00  0.00000000000E+00  0.89205993152E+03  0.11079400685E+04  0.65708467788E+03 0.  0.
         13    1    3    3    0    0 -0.16529246302E+03  0.36689531186E+01  0.92474376200E+03  0.93940730512E+03  0.00000000000E+00 0. -1.
          4    1    3    3  501    0  0.16529246302E+03 -0.36689531186E+01 -0.32683830480E+02  0.16853276336E+03  0.00000000000E+00 0. -1.
<mgrwt>
<rscale>  0 0.65708468E+03</rscale>
<asrwt>0</asrwt>
<pdfrwt beam="1">0</pdfrwt>
<pdfrwt beam="2">  1        2 0.39251017E+00 0.65708468E+03</pdfrwt>
<totfact> 0.42457773E+00</totfact>
</mgrwt>
</event>
<event>
 5    1  0.2357694E-004  0.6475082E+03  0.7818608E-02  0.9811466E-01
         13   -1    0    0    0    0  0.00000000000E+00  0.00000000000E+00  0.10000000000E+04  0.10000000000E+04  0.00000000000E+00 0. -1.
          2   -1    0    0  501    0 -0.00000000000E+00 -0.00000000000E+00 -0.10481670174E+03  0.10481670174E+03  0.00000000000E+00 0. -1.
    9000006    2    1    2  501    0  0.00000000000E+00  0.00000000000E+00  0.89518329826E+03  0.11048167017E+04  0.64750815204E+03 0.  0.
         13    1    3    3    0    0 -0.31521642510E+03 -0.52357231110E+02  0.35870181267E+03  0.48038491308E+03  0.00000000000E+00 0. -1.
          4    1    3    3  501    0  0.31521642510E+03  0.52357231110E+02  0.53648148559E+03  0.62443178866E+03  0.00000000000E+00 0. -1.
<mgrwt>
<rscale>  0 0.64750815E+03</rscale>
<asrwt>0</asrwt>
<pdfrwt beam="1">0</pdfrwt>
<pdfrwt beam="2">  1        2 0.38115245E+00 0.64750815E+03</pdfrwt>
<totfact> 0.46818601E+00</totfact>
</mgrwt>
</event>
<event>
 5    1  0.2357694E-004  0.6546148E+03  0.7818608E-02  0.9798158E-01
         13   -1    0    0    0    0  0.00000000000E+00  0.00000000000E+00  0.10000000000E+04  0.10000000000E+04  0.00000000000E+00 0. -1.
          2   -1    0    0  501    0 -0.00000000000E+00 -0.00000000000E+00 -0.10713013405E+03  0.10713013405E+03  0.00000000000E+00 0. -1.
    9000006    2    1    2  501    0  0.00000000000E+00  0.00000000000E+00  0.89286986595E+03  0.11071301341E+04  0.65461479987E+03 0.  0.
         13    1    3    3    0    0  0.18322709968E+03  0.20291927080E+03  0.14209222598E+03  0.30812108205E+03  0.00000000000E+00 0. -1.
          4    1    3    3  501    0 -0.18322709968E+03 -0.20291927080E+03  0.75077763997E+03  0.79900905201E+03  0.00000000000E+00 0. -1.
<mgrwt>
<rscale>  0 0.65461480E+03</rscale>
<asrwt>0</asrwt>
<pdfrwt beam="1">0</pdfrwt>
<pdfrwt beam="2">  1        2 0.38956495E+00 0.65461480E+03</pdfrwt>
<totfact> 0.43551781E+00</totfact>
</mgrwt>
</event>
<event>
 5    1  0.2357694E-004  0.6527129E+03  0.7818608E-02  0.9801702E-01
         13   -1    0    0    0    0  0.00000000000E+00  0.00000000000E+00  0.10000000000E+04  0.10000000000E+04  0.00000000000E+00 0. -1.
          2   -1    0    0  501    0 -0.00000000000E+00 -0.00000000000E+00 -0.10650854864E+03  0.10650854864E+03  0.00000000000E+00 0. -1.
    9000006    2    1    2  501    0  0.00000000000E+00  0.00000000000E+00  0.89349145136E+03  0.11065085486E+04  0.65271294958E+03 0.  0.
         13    1    3    3    0    0 -0.19801720424E+03  0.12976579153E+03  0.65943012150E+02  0.24576097061E+03  0.00000000000E+00 0. -1.
          4    1    3    3  501    0  0.19801720424E+03 -0.12976579153E+03  0.82754843921E+03  0.86074757802E+03  0.00000000000E+00 0. -1.
<mgrwt>
<rscale>  0 0.65271295E+03</rscale>
<asrwt>0</asrwt>
<pdfrwt beam="1">0</pdfrwt>
<pdfrwt beam="2">  1        2 0.38730463E+00 0.65271295E+03</pdfrwt>
<totfact> 0.44408589E+00</totfact>
</mgrwt>
</event>
<event>
 5    1  0.2357694E-004  0.6750077E+03  0.7818608E-02  0.9760953E-01
         13   -1    0    0    0    0  0.00000000000E+00  0.00000000000E+00  0.10000000000E+04  0.10000000000E+04  0.00000000000E+00 0. -1.
          2   -1    0    0  501    0 -0.00000000000E+00 -0.00000000000E+00 -0.11390884971E+03  0.11390884971E+03  0.00000000000E+00 0. -1.
    9000006    2    1    2  501    0  0.00000000000E+00  0.00000000000E+00  0.88609115029E+03  0.11139088497E+04  0.67500770280E+03 0.  0.
         13    1    3    3    0    0  0.16784379835E+03 -0.26560450174E+03  0.64644142142E+03  0.71875155883E+03  0.00000000000E+00 0. -1.
          4    1    3    3  501    0 -0.16784379835E+03  0.26560450174E+03  0.23964972887E+03  0.39515729088E+03  0.00000000000E+00 0. -1.
<mgrwt>
<rscale>  0 0.67500770E+03</rscale>
<asrwt>0</asrwt>
<pdfrwt beam="1">0</pdfrwt>
<pdfrwt beam="2">  1        2 0.41421487E+00 0.67500770E+03</pdfrwt>
<totfact> 0.35127833E+00</totfact>
</mgrwt>
</event>
<event>
 5    1  0.2357694E-004  0.6570078E+03  0.7818608E-02  0.9793718E-01
         13   -1    0    0    0    0  0.00000000000E+00  0.00000000000E+00  0.10000000000E+04  0.10000000000E+04  0.00000000000E+00 0. -1.
          2   -1    0    0  501    0 -0.00000000000E+00 -0.00000000000E+00 -0.10791482023E+03  0.10791482023E+03  0.00000000000E+00 0. -1.
    9000006    2    1    2  501    0  0.00000000000E+00  0.00000000000E+00  0.89208517977E+03  0.11079148202E+04  0.65700782408E+03 0.  0.
         13    1    3    3    0    0  0.52118816615E+02 -0.27410669964E+03  0.15365497740E+03  0.31852897186E+03  0.00000000000E+00 0. -1.
          4    1    3    3  501    0 -0.52118816615E+02  0.27410669964E+03  0.73843020237E+03  0.78938584837E+03  0.00000000000E+00 0. -1.
<mgrwt>
<rscale>  0 0.65700782E+03</rscale>
<asrwt>0</asrwt>
<pdfrwt beam="1">0</pdfrwt>
<pdfrwt beam="2">  1        2 0.39241836E+00 0.65700782E+03</pdfrwt>
<totfact> 0.42491499E+00</totfact>
</mgrwt>
</event>
<event>
 5    1  0.2357694E-004  0.6479160E+03  0.7818608E-02  0.9810697E-01
         13   -1    0    0    0    0  0.00000000000E+00  0.00000000000E+00  0.10000000000E+04  0.10000000000E+04  0.00000000000E+00 0. -1.
          2   -1    0    0  501    0 -0.00000000000E+00 -0.00000000000E+00 -0.10494880094E+03  0.10494880094E+03  0.00000000000E+00 0. -1.
    9000006    2    1    2  501    0  0.00000000000E+00  0.00000000000E+00  0.89505119906E+03  0.11049488009E+04  0.64791604686E+03 0.  0.
         13    1    3    3    0    0 -0.11190138491E+03 -0.22361052366E+03  0.96260143112E+02  0.26793581580E+03  0.00000000000E+00 0. -1.
          2    1    3    3  501    0  0.11190138491E+03  0.22361052366E+03  0.79879105594E+03  0.83701298514E+03  0.00000000000E+00 0. -1.
<mgrwt>
<rscale>  0 0.64791605E+03</rscale>
<asrwt>0</asrwt>
<pdfrwt beam="1">0</pdfrwt>
<pdfrwt beam="2">  1        2 0.38163281E+00 0.64791605E+03</pdfrwt>
<totfact> 0.46626241E+00</totfact>
</mgrwt>
</event>
<event>
 5    1  0.2357694E-004  0.4862471E+03  0.7818608E-02  0.1017432E+00
         13   -1    0    0    0    0  0.00000000000E+00  0.00000000000E+00  0.10000000000E+04  0.10000000000E+04  0.00000000000E+00 0. -1.
          2   -1    0    0  501    0 -0.00000000000E+00 -0.00000000000E+00 -0.59109058008E+02  0.59109058008E+02  0.00000000000E+00 0. -1.
    9000006    2    1    2  501    0  0.00000000000E+00  0.00000000000E+00  0.94089094199E+03  0.10591090580E+04  0.48624708948E+03 0.  0.
         13    1    3    3    0    0 -0.40216550810E+02 -0.16551558359E+03  0.92577512667E+02  0.19386432168E+03  0.00000000000E+00 0. -1.
          2    1    3    3  501    0  0.40216550810E+02  0.16551558359E+03  0.84831342933E+03  0.86524473633E+03  0.00000000000E+00 0. -1.
<mgrwt>
<rscale>  0 0.48624709E+03</rscale>
<asrwt>0</asrwt>
<pdfrwt beam="1">0</pdfrwt>
<pdfrwt beam="2">  1        2 0.21494248E+00 0.48624709E+03</pdfrwt>
<totfact> 0.18692962E+01</totfact>
</mgrwt>
</event>
<event>
 5    1  0.2357694E-004  0.6490045E+03  0.7818608E-02  0.9808649E-01
         13   -1    0    0    0    0  0.00000000000E+00  0.00000000000E+00  0.10000000000E+04  0.10000000000E+04  0.00000000000E+00 0. -1.
          2   -1    0    0  501    0 -0.00000000000E+00 -0.00000000000E+00 -0.10530172640E+03  0.10530172640E+03  0.00000000000E+00 0. -1.
    9000006    2    1    2  501    0  0.00000000000E+00  0.00000000000E+00  0.89469827360E+03  0.11053017264E+04  0.64900454975E+03 0.  0.
         13    1    3    3    0    0 -0.26366030145E+03  0.10460489159E+03  0.17891776061E+03  0.33536622216E+03  0.00000000000E+00 0. -1.
          4    1    3    3  501    0  0.26366030145E+03 -0.10460489159E+03  0.71578051299E+03  0.76993550424E+03  0.00000000000E+00 0. -1.
<mgrwt>
<rscale>  0 0.64900455E+03</rscale>
<asrwt>0</asrwt>
<pdfrwt beam="1">0</pdfrwt>
<pdfrwt beam="2">  1        2 0.38291618E+00 0.64900455E+03</pdfrwt>
<totfact> 0.46115837E+00</totfact>
</mgrwt>
</event>
<event>
 5    1  0.2357694E-004  0.6450391E+03  0.7818608E-02  0.9816133E-01
         13   -1    0    0    0    0  0.00000000000E+00  0.00000000000E+00  0.10000000000E+04  0.10000000000E+04  0.00000000000E+00 0. -1.
          2   -1    0    0  501    0 -0.00000000000E+00 -0.00000000000E+00 -0.10401886251E+03  0.10401886251E+03  0.00000000000E+00 0. -1.
    9000006    2    1    2  501    0  0.00000000000E+00  0.00000000000E+00  0.89598113749E+03  0.11040188625E+04  0.64503910737E+03 0.  0.
         13    1    3    3    0    0 -0.18631516396E+03  0.19438426138E+03  0.14412220395E+03  0.30540103317E+03  0.00000000000E+00 0. -1.
          4    1    3    3  501    0  0.18631516396E+03 -0.19438426138E+03  0.75185893354E+03  0.79861782934E+03  0.00000000000E+00 0. -1.
<mgrwt>
<rscale>  0 0.64503911E+03</rscale>
<asrwt>0</asrwt>
<pdfrwt beam="1">0</pdfrwt>
<pdfrwt beam="2">  1        2 0.37825121E+00 0.64503911E+03</pdfrwt>
<totfact> 0.47995828E+00</totfact>
</mgrwt>
</event>
<event>
 5    1  0.2357694E-004  0.6672798E+03  0.7818608E-02  0.9774884E-01
         13   -1    0    0    0    0  0.00000000000E+00  0.00000000000E+00  0.10000000000E+04  0.10000000000E+04  0.00000000000E+00 0. -1.
          2   -1    0    0  501    0 -0.00000000000E+00 -0.00000000000E+00 -0.11131557022E+03  0.11131557022E+03  0.00000000000E+00 0. -1.
    9000006    2    1    2  501    0  0.00000000000E+00  0.00000000000E+00  0.88868442978E+03  0.11113155702E+04  0.66727976208E+03 0.  0.
         13    1    3    3    0    0  0.25742743108E+02 -0.20995619512E+03  0.14634756813E+02  0.21203412178E+03  0.00000000000E+00 0. -1.
          4    1    3    3  501    0 -0.25742743108E+02  0.20995619512E+03  0.87404967297E+03  0.89928144844E+03  0.00000000000E+00 0. -1.
<mgrwt>
<rscale>  0 0.66727976E+03</rscale>
<asrwt>0</asrwt>
<pdfrwt beam="1">0</pdfrwt>
<pdfrwt beam="2">  1        2 0.40478475E+00 0.66727976E+03</pdfrwt>
<totfact> 0.38160185E+00</totfact>
</mgrwt>
</event>
<event>
 5    1  0.2357694E-004  0.6421551E+03  0.7818608E-02  0.9821612E-01
         13   -1    0    0    0    0  0.00000000000E+00  0.00000000000E+00  0.10000000000E+04  0.10000000000E+04  0.00000000000E+00 0. -1.
          2   -1    0    0  501    0 -0.00000000000E+00 -0.00000000000E+00 -0.10309079618E+03  0.10309079618E+03  0.00000000000E+00 0. -1.
    9000006    2    1    2  501    0  0.00000000000E+00  0.00000000000E+00  0.89690920382E+03  0.11030907962E+04  0.64215510954E+03 0.  0.
         13    1    3    3    0    0  0.30386633541E+02  0.20959441197E+03  0.33908181666E+02  0.21448293594E+03  0.00000000000E+00 0. -1.
          4    1    3    3  501    0 -0.30386633541E+02 -0.20959441197E+03  0.86300102216E+03  0.88860786023E+03  0.00000000000E+00 0. -1.
<mgrwt>
<rscale>  0 0.64215511E+03</rscale>
<asrwt>0</asrwt>
<pdfrwt beam="1">0</pdfrwt>
<pdfrwt beam="2">  1        2 0.37487641E+00 0.64215511E+03</pdfrwt>
<totfact> 0.49399136E+00</totfact>
</mgrwt>
</event>
<event>
 5    1  0.2357694E-004  0.6465259E+03  0.7818608E-02  0.9813320E-01
         13   -1    0    0    0    0  0.00000000000E+00  0.00000000000E+00  0.10000000000E+04  0.10000000000E+04  0.00000000000E+00 0. -1.
          2   -1    0    0  501    0 -0.00000000000E+00 -0.00000000000E+00 -0.10449893157E+03  0.10449893157E+03  0.00000000000E+00 0. -1.
    9000006    2    1    2  501    0  0.00000000000E+00  0.00000000000E+00  0.89550106843E+03  0.11044989316E+04  0.64652588988E+03 0.  0.
         13    1    3    3    0    0  0.27271575771E+03  0.13295691722E+03  0.63834949929E+03  0.70678250515E+03  0.00000000000E+00 0. -1.
          4    1    3    3  501    0 -0.27271575771E+03 -0.13295691722E+03  0.25715156914E+03  0.39771642643E+03  0.00000000000E+00 0. -1.
<mgrwt>
<rscale>  0 0.64652589E+03</rscale>
<asrwt>0</asrwt>
<pdfrwt beam="1">0</pdfrwt>
<pdfrwt beam="2">  1        2 0.37999692E+00 0.64652589E+03</pdfrwt>
<totfact> 0.47284291E+00</totfact>
</mgrwt>
</event>
<event>
 5    1  0.2357694E-004  0.6339961E+03  0.7818608E-02  0.9837282E-01
         13   -1    0    0    0    0  0.00000000000E+00  0.00000000000E+00  0.10000000000E+04  0.10000000000E+04  0.00000000000E+00 0. -1.
          2   -1    0    0  501    0 -0.00000000000E+00 -0.00000000000E+00 -0.10048775022E+03  0.10048775022E+03  0.00000000000E+00 0. -1.
    9000006    2    1    2  501    0  0.00000000000E+00  0.00000000000E+00  0.89951224978E+03  0.11004877502E+04  0.63399605748E+03 0.  0.
         13    1    3    3    0    0 -0.12719046515E+03 -0.20911742480E+03  0.10008807396E+03  0.26443361044E+03  0.00000000000E+00 0. -1.
          2    1    3    3  501    0  0.12719046515E+03  0.20911742480E+03  0.79942417581E+03  0.83605413978E+03  0.00000000000E+00 0. -1.
<mgrwt>
<rscale>  0 0.63399606E+03</rscale>
<asrwt>0</asrwt>
<pdfrwt beam="1">0</pdfrwt>
<pdfrwt beam="2">  1        2 0.36541077E+00 0.63399606E+03</pdfrwt>
<totfact> 0.53538146E+00</totfact>
</mgrwt>
</event>
<event>
 5    1  0.2357694E-004  0.6527605E+03  0.7818608E-02  0.9801613E-01
         13   -1    0    0    0    0  0.00000000000E+00  0.00000000000E+00  0.10000000000E+04  0.10000000000E+04  0.00000000000E+00 0. -1.
          2   -1    0    0  501    0 -0.00000000000E+00 -0.00000000000E+00 -0.10652406437E+03  0.10652406437E+03  0.00000000000E+00 0. -1.
    9000006    2    1    2  501    0  0.00000000000E+00  0.00000000000E+00  0.89347593563E+03  0.11065240644E+04  0.65276049013E+03 0.  0.
         13    1    3    3    0    0 -0.12935705670E+03  0.27866522992E+03  0.25999087965E+03  0.40247088837E+03  0.00000000000E+00 0. -1.
          2    1    3    3  501    0  0.12935705670E+03 -0.27866522992E+03  0.63348505598E+03  0.70405317600E+03  0.00000000000E+00 0. -1.
<mgrwt>
<rscale>  0 0.65276049E+03</rscale>
<asrwt>0</asrwt>
<pdfrwt beam="1">0</pdfrwt>
<pdfrwt beam="2">  1        2 0.38736105E+00 0.65276049E+03</pdfrwt>
<totfact> 0.44387018E+00</totfact>
</mgrwt>
</event>
<event>
 5    1  0.2357694E-004  0.6616081E+03  0.7818608E-02  0.9785238E-01
         13   -1    0    0    0    0  0.00000000000E+00  0.00000000000E+00  0.10000000000E+04  0.10000000000E+04  0.00000000000E+00 0. -1.
          2   -1    0    0  501    0 -0.00000000000E+00 -0.00000000000E+00 -0.10943131748E+03  0.10943131748E+03  0.00000000000E+00 0. -1.
    9000006    2    1    2  501    0  0.00000000000E+00  0.00000000000E+00  0.89056868252E+03  0.11094313175E+04  0.66160809391E+03 0.  0.
         13    1    3    3    0    0  0.24822728999E+03  0.67200855236E+02  0.79421281719E+03  0.83480940426E+03  0.00000000000E+00 0. -1.
          2    1    3    3  501    0 -0.24822728999E+03 -0.67200855236E+02  0.96355865326E+02  0.27462191323E+03  0.00000000000E+00 0. -1.
<mgrwt>
<rscale>  0 0.66160809E+03</rscale>
<asrwt>0</asrwt>
<pdfrwt beam="1">0</pdfrwt>
<pdfrwt beam="2">  1        2 0.39793290E+00 0.66160809E+03</pdfrwt>
<totfact> 0.40508231E+00</totfact>
</mgrwt>
</event>
<event>
 5    1  0.2357694E-004  0.6483736E+03  0.7818608E-02  0.9809836E-01
         13   -1    0    0    0    0  0.00000000000E+00  0.00000000000E+00  0.10000000000E+04  0.10000000000E+04  0.00000000000E+00 0. -1.
          2   -1    0    0  501    0 -0.00000000000E+00 -0.00000000000E+00 -0.10509709692E+03  0.10509709692E+03  0.00000000000E+00 0. -1.
    9000006    2    1    2  501    0  0.00000000000E+00  0.00000000000E+00  0.89490290308E+03  0.11050970969E+04  0.64837364820E+03 0.  0.
         13    1    3    3    0    0  0.22091179849E+03  0.15987313214E+03  0.74626227525E+03  0.79452427562E+03  0.00000000000E+00 0. -1.
          2    1    3    3  501    0 -0.22091179849E+03 -0.15987313214E+03  0.14864062783E+03  0.31057282130E+03  0.00000000000E+00 0. -1.
<mgrwt>
<rscale>  0 0.64837365E+03</rscale>
<asrwt>0</asrwt>
<pdfrwt beam="1">0</pdfrwt>
<pdfrwt beam="2">  1        2 0.38217207E+00 0.64837365E+03</pdfrwt>
<totfact> 0.46411152E+00</totfact>
</mgrwt>
</event>
<event>
 5    1  0.2357694E-004  0.6457054E+03  0.7818608E-02  0.9814871E-01
         13   -1    0    0    0    0  0.00000000000E+00  0.00000000000E+00  0.10000000000E+04  0.10000000000E+04  0.00000000000E+00 0. -1.
          2   -1    0    0  501    0 -0.00000000000E+00 -0.00000000000E+00 -0.10423388050E+03  0.10423388050E+03  0.00000000000E+00 0. -1.
    9000006    2    1    2  501    0  0.00000000000E+00  0.00000000000E+00  0.89576611950E+03  0.11042338805E+04  0.64570544522E+03 0.  0.
         13    1    3    3    0    0 -0.11963993599E+03  0.29696340107E+03  0.51907223333E+03  0.60986634542E+03  0.00000000000E+00 0. -1.
          4    1    3    3  501    0  0.11963993599E+03 -0.29696340107E+03  0.37669388617E+03  0.49436753508E+03  0.00000000000E+00 0. -1.
<mgrwt>
<rscale>  0 0.64570545E+03</rscale>
<asrwt>0</asrwt>
<pdfrwt beam="1">0</pdfrwt>
<pdfrwt beam="2">  1        2 0.37903309E+00 0.64570545E+03</pdfrwt>
<totfact> 0.47675941E+00</totfact>
</mgrwt>
</event>
<event>
 5    1  0.2357694E-004  0.6428227E+03  0.7818608E-02  0.9820341E-01
         13   -1    0    0    0    0  0.00000000000E+00  0.00000000000E+00  0.10000000000E+04  0.10000000000E+04  0.00000000000E+00 0. -1.
          2   -1    0    0  501    0 -0.00000000000E+00 -0.00000000000E+00 -0.10330526563E+03  0.10330526563E+03  0.00000000000E+00 0. -1.
    9000006    2    1    2  501    0  0.00000000000E+00  0.00000000000E+00  0.89669473437E+03  0.11033052656E+04  0.64282273025E+03 0.  0.
         13    1    3    3    0    0  0.29536331758E+03 -0.10590786833E+02  0.66513473474E+03  0.72784330010E+03  0.00000000000E+00 0. -1.
          4    1    3    3  501    0 -0.29536331758E+03  0.10590786833E+02  0.23155999963E+03  0.37546196554E+03  0.00000000000E+00 0. -1.
<mgrwt>
<rscale>  0 0.64282273E+03</rscale>
<asrwt>0</asrwt>
<pdfrwt beam="1">0</pdfrwt>
<pdfrwt beam="2">  1        2 0.37565630E+00 0.64282273E+03</pdfrwt>
<totfact> 0.49071537E+00</totfact>
</mgrwt>
</event>
<event>
 5    1  0.2357694E-004  0.6648510E+03  0.7818608E-02  0.9779305E-01
         13   -1    0    0    0    0  0.00000000000E+00  0.00000000000E+00  0.10000000000E+04  0.10000000000E+04  0.00000000000E+00 0. -1.
          2   -1    0    0  501    0 -0.00000000000E+00 -0.00000000000E+00 -0.11050672844E+03  0.11050672844E+03  0.00000000000E+00 0. -1.
    9000006    2    1    2  501    0  0.00000000000E+00  0.00000000000E+00  0.88949327156E+03  0.11105067284E+04  0.66485104629E+03 0.  0.
         13    1    3    3    0    0  0.31697432671E+03 -0.18258437448E+02  0.60925837726E+03  0.68702391850E+03  0.00000000000E+00 0. -1.
          4    1    3    3  501    0 -0.31697432671E+03  0.18258437448E+02  0.28023489430E+03  0.42348280994E+03  0.00000000000E+00 0. -1.
<mgrwt>
<rscale>  0 0.66485105E+03</rscale>
<asrwt>0</asrwt>
<pdfrwt beam="1">0</pdfrwt>
<pdfrwt beam="2">  1        2 0.40184350E+00 0.66485105E+03</pdfrwt>
<totfact> 0.39152729E+00</totfact>
</mgrwt>
</event>
<event>
 5    1  0.2357694E-004  0.6513829E+03  0.7818608E-02  0.9804188E-01
         13   -1    0    0    0    0  0.00000000000E+00  0.00000000000E+00  0.10000000000E+04  0.10000000000E+04  0.00000000000E+00 0. -1.
          2   -1    0    0  501    0 -0.00000000000E+00 -0.00000000000E+00 -0.10607493346E+03  0.10607493346E+03  0.00000000000E+00 0. -1.
    9000006    2    1    2  501    0  0.00000000000E+00  0.00000000000E+00  0.89392506654E+03  0.11060749335E+04  0.65138293947E+03 0.  0.
         13    1    3    3    0    0  0.11532081498E+03  0.23915799252E+03  0.12666906896E+03  0.29417764834E+03  0.00000000000E+00 0. -1.
          2    1    3    3  501    0 -0.11532081498E+03 -0.23915799252E+03  0.76725599759E+03  0.81189728512E+03  0.00000000000E+00 0. -1.
<mgrwt>
<rscale>  0 0.65138294E+03</rscale>
<asrwt>0</asrwt>
<pdfrwt beam="1">0</pdfrwt>
<pdfrwt beam="2">  1        2 0.38572784E+00 0.65138294E+03</pdfrwt>
<totfact> 0.45015298E+00</totfact>
</mgrwt>
</event>
<event>
 5    1  0.2357694E-004  0.6476706E+03  0.7818608E-02  0.9811160E-01
         13   -1    0    0    0    0  0.00000000000E+00  0.00000000000E+00  0.10000000000E+04  0.10000000000E+04  0.00000000000E+00 0. -1.
          2   -1    0    0  501    0 -0.00000000000E+00 -0.00000000000E+00 -0.10486930951E+03  0.10486930951E+03  0.00000000000E+00 0. -1.
    9000006    2    1    2  501    0  0.00000000000E+00  0.00000000000E+00  0.89513069049E+03  0.11048693095E+04  0.64767062465E+03 0.  0.
         13    1    3    3    0    0 -0.15993322418E+03 -0.15211929465E+03  0.85179959957E+03  0.87993265300E+03  0.00000000000E+00 0. -1.
          2    1    3    3  501    0  0.15993322418E+03  0.15211929465E+03  0.43331090924E+02  0.22493665651E+03  0.00000000000E+00 0. -1.
<mgrwt>
<rscale>  0 0.64767062E+03</rscale>
<asrwt>0</asrwt>
<pdfrwt beam="1">0</pdfrwt>
<pdfrwt beam="2">  1        2 0.38134375E+00 0.64767062E+03</pdfrwt>
<totfact> 0.46741909E+00</totfact>
</mgrwt>
</event>
<event>
 5    1  0.2357694E-004  0.6476476E+03  0.7818608E-02  0.9811203E-01
         13   -1    0    0    0    0  0.00000000000E+00  0.00000000000E+00  0.10000000000E+04  0.10000000000E+04  0.00000000000E+00 0. -1.
          2   -1    0    0  501    0 -0.00000000000E+00 -0.00000000000E+00 -0.10486185266E+03  0.10486185266E+03  0.00000000000E+00 0. -1.
    9000006    2    1    2  501    0  0.00000000000E+00  0.00000000000E+00  0.89513814734E+03  0.11048618527E+04  0.64764759758E+03 0.  0.
         13    1    3    3    0    0 -0.29337978443E+03  0.23546687508E+02  0.67794152205E+03  0.73907432084E+03  0.00000000000E+00 0. -1.
          2    1    3    3  501    0  0.29337978443E+03 -0.23546687508E+02  0.21719662529E+03  0.36578753183E+03  0.00000000000E+00 0. -1.
<mgrwt>
<rscale>  0 0.64764760E+03</rscale>
<asrwt>0</asrwt>
<pdfrwt beam="1">0</pdfrwt>
<pdfrwt beam="2">  1        2 0.38131663E+00 0.64764760E+03</pdfrwt>
<totfact> 0.46752772E+00</totfact>
</mgrwt>
</event>
<event>
 5    1  0.2357694E-004  0.6457370E+03  0.7818608E-02  0.9814811E-01
         13   -1    0    0    0    0  0.00000000000E+00  0.00000000000E+00  0.10000000000E+04  0.10000000000E+04  0.00000000000E+00 0. -1.
          2   -1    0    0  501    0 -0.00000000000E+00 -0.00000000000E+00 -0.10424406337E+03  0.10424406337E+03  0.00000000000E+00 0. -1.
    9000006    2    1    2  501    0  0.00000000000E+00  0.00000000000E+00  0.89575593663E+03  0.11042440634E+04  0.64573698476E+03 0.  0.
         13    1    3    3    0    0  0.50027964103E+02 -0.81803844281E+02 -0.79332585159E+02  0.12445210002E+03  0.00000000000E+00 0. -1.
          4    1    3    3  501    0 -0.50027964103E+02  0.81803844281E+02  0.97508852179E+03  0.97979196335E+03  0.00000000000E+00 0. -1.
<mgrwt>
<rscale>  0 0.64573698E+03</rscale>
<asrwt>0</asrwt>
<pdfrwt beam="1">0</pdfrwt>
<pdfrwt beam="2">  1        2 0.37907012E+00 0.64573698E+03</pdfrwt>
<totfact> 0.47660840E+00</totfact>
</mgrwt>
</event>
<event>
 5    1  0.2357694E-004  0.6382223E+03  0.7818608E-02  0.9829134E-01
         13   -1    0    0    0    0  0.00000000000E+00  0.00000000000E+00  0.10000000000E+04  0.10000000000E+04  0.00000000000E+00 0. -1.
          2   -1    0    0  501    0 -0.00000000000E+00 -0.00000000000E+00 -0.10183191375E+03  0.10183191375E+03  0.00000000000E+00 0. -1.
    9000006    2    1    2  501    0  0.00000000000E+00  0.00000000000E+00  0.89816808625E+03  0.11018319137E+04  0.63822226144E+03 0.  0.
         13    1    3    3    0    0 -0.12382541461E+03  0.13238424465E+03  0.90248749406E+03  0.92051181332E+03  0.00000000000E+00 0. -1.
          4    1    3    3  501    0  0.12382541461E+03 -0.13238424465E+03 -0.43194078098E+01  0.18132010043E+03  0.00000000000E+00 0. -1.
<mgrwt>
<rscale>  0 0.63822226E+03</rscale>
<asrwt>0</asrwt>
<pdfrwt beam="1">0</pdfrwt>
<pdfrwt beam="2">  1        2 0.37029865E+00 0.63822226E+03</pdfrwt>
<totfact> 0.51362748E+00</totfact>
</mgrwt>
</event>
<event>
 5    1  0.2357694E-004  0.6576159E+03  0.7818608E-02  0.9792592E-01
         13   -1    0    0    0    0  0.00000000000E+00  0.00000000000E+00  0.10000000000E+04  0.10000000000E+04  0.00000000000E+00 0. -1.
          2   -1    0    0  501    0 -0.00000000000E+00 -0.00000000000E+00 -0.10811468346E+03  0.10811468346E+03  0.00000000000E+00 0. -1.
    9000006    2    1    2  501    0  0.00000000000E+00  0.00000000000E+00  0.89188531654E+03  0.11081146835E+04  0.65761594706E+03 0.  0.
         13    1    3    3    0    0 -0.29764452937E+03  0.13094320305E+03  0.52808414626E+03  0.62017034258E+03  0.00000000000E+00 0. -1.
          4    1    3    3  501    0  0.29764452937E+03 -0.13094320305E+03  0.36380117029E+03  0.48794434088E+03  0.00000000000E+00 0. -1.
<mgrwt>
<rscale>  0 0.65761595E+03</rscale>
<asrwt>0</asrwt>
<pdfrwt beam="1">0</pdfrwt>
<pdfrwt beam="2">  1        2 0.39314513E+00 0.65761595E+03</pdfrwt>
<totfact> 0.42225191E+00</totfact>
</mgrwt>
</event>
<event>
 5    1  0.2357694E-004  0.6350178E+03  0.7818608E-02  0.9835306E-01
         13   -1    0    0    0    0  0.00000000000E+00  0.00000000000E+00  0.10000000000E+04  0.10000000000E+04  0.00000000000E+00 0. -1.
          2   -1    0    0  501    0 -0.00000000000E+00 -0.00000000000E+00 -0.10081190315E+03  0.10081190315E+03  0.00000000000E+00 0. -1.
    9000006    2    1    2  501    0  0.00000000000E+00  0.00000000000E+00  0.89918809685E+03  0.11008119031E+04  0.63501780494E+03 0.  0.
         13    1    3    3    0    0  0.42668714104E+02 -0.78176639712E+02  0.97790256223E+03  0.98194991082E+03  0.00000000000E+00 0. -1.
          4    1    3    3  501    0 -0.42668714104E+02  0.78176639712E+02 -0.78714465375E+02  0.11886199232E+03  0.00000000000E+00 0. -1.
<mgrwt>
<rscale>  0 0.63501780E+03</rscale>
<asrwt>0</asrwt>
<pdfrwt beam="1">0</pdfrwt>
<pdfrwt beam="2">  1        2 0.36658951E+00 0.63501780E+03</pdfrwt>
<totfact> 0.53005931E+00</totfact>
</mgrwt>
</event>
<event>
 5    1  0.2357694E-004  0.6458697E+03  0.7818608E-02  0.9814560E-01
         13   -1    0    0    0    0  0.00000000000E+00  0.00000000000E+00  0.10000000000E+04  0.10000000000E+04  0.00000000000E+00 0. -1.
          2   -1    0    0  501    0 -0.00000000000E+00 -0.00000000000E+00 -0.10428691823E+03  0.10428691823E+03  0.00000000000E+00 0. -1.
    9000006    2    1    2  501    0  0.00000000000E+00  0.00000000000E+00  0.89571308177E+03  0.11042869182E+04  0.64586970274E+03 0.  0.
         13    1    3    3    0    0  0.12763847109E+03 -0.29654304317E+03  0.43488454681E+03  0.54162156974E+03  0.00000000000E+00 0. -1.
          2    1    3    3  501    0 -0.12763847109E+03  0.29654304317E+03  0.46082853496E+03  0.56266534848E+03  0.00000000000E+00 0. -1.
<mgrwt>
<rscale>  0 0.64586970E+03</rscale>
<asrwt>0</asrwt>
<pdfrwt beam="1">0</pdfrwt>
<pdfrwt beam="2">  1        2 0.37922596E+00 0.64586970E+03</pdfrwt>
<totfact> 0.47597335E+00</totfact>
</mgrwt>
</event>
<event>
 5    1  0.2357694E-004  0.7523737E+03  0.7818608E-02  0.9631634E-01
         13   -1    0    0    0    0  0.00000000000E+00  0.00000000000E+00  0.10000000000E+04  0.10000000000E+04  0.00000000000E+00 0. -1.
          2   -1    0    0  501    0 -0.00000000000E+00 -0.00000000000E+00 -0.14151655883E+03  0.14151655883E+03  0.00000000000E+00 0. -1.
    9000006    2    1    2  501    0  0.00000000000E+00  0.00000000000E+00  0.85848344117E+03  0.11415165588E+04  0.75237373381E+03 0.  0.
         13    1    3    3    0    0  0.35642637681E+03 -0.19823976008E+02  0.60929814370E+03  0.70617064512E+03  0.00000000000E+00 0. -1.
          4    1    3    3  501    0 -0.35642637681E+03  0.19823976008E+02  0.24918529747E+03  0.43534591371E+03  0.00000000000E+00 0. -1.
<mgrwt>
<rscale>  0 0.75237373E+03</rscale>
<asrwt>0</asrwt>
<pdfrwt beam="1">0</pdfrwt>
<pdfrwt beam="2">  1        2 0.51460675E+00 0.75237373E+03</pdfrwt>
<totfact> 0.13748216E+00</totfact>
</mgrwt>
</event>
<event>
 5    1  0.2357694E-004  0.6508565E+03  0.7818608E-02  0.9805173E-01
         13   -1    0    0    0    0  0.00000000000E+00  0.00000000000E+00  0.10000000000E+04  0.10000000000E+04  0.00000000000E+00 0. -1.
          2   -1    0    0  501    0 -0.00000000000E+00 -0.00000000000E+00 -0.10590354272E+03  0.10590354272E+03  0.00000000000E+00 0. -1.
    9000006    2    1    2  501    0  0.00000000000E+00  0.00000000000E+00  0.89409645728E+03  0.11059035427E+04  0.65085649025E+03 0.  0.
         13    1    3    3    0    0  0.39164519653E+02 -0.31602568403E+02  0.99334833596E+03  0.99462228935E+03  0.00000000000E+00 0. -1.
          4    1    3    3  501    0 -0.39164519653E+02  0.31602568403E+02 -0.99251878683E+02  0.11128125337E+03  0.00000000000E+00 0. -1.
<mgrwt>
<rscale>  0 0.65085649E+03</rscale>
<asrwt>0</asrwt>
<pdfrwt beam="1">0</pdfrwt>
<pdfrwt beam="2">  1        2 0.38510460E+00 0.65085649E+03</pdfrwt>
<totfact> 0.45257170E+00</totfact>
</mgrwt>
</event>
<event>
 5    1  0.2357694E-004  0.6719674E+03  0.7818608E-02  0.9766410E-01
         13   -1    0    0    0    0  0.00000000000E+00  0.00000000000E+00  0.10000000000E+04  0.10000000000E+04  0.00000000000E+00 0. -1.
          2   -1    0    0  501    0 -0.00000000000E+00 -0.00000000000E+00 -0.11288503821E+03  0.11288503821E+03  0.00000000000E+00 0. -1.
    9000006    2    1    2  501    0  0.00000000000E+00  0.00000000000E+00  0.88711496179E+03  0.11128850382E+04  0.67196737484E+03 0.  0.
         13    1    3    3    0    0  0.27961397669E+03 -0.87391001315E+02  0.17110102284E+03  0.33925907960E+03  0.00000000000E+00 0. -1.
          4    1    3    3  501    0 -0.27961397669E+03  0.87391001315E+02  0.71601393895E+03  0.77362595862E+03  0.00000000000E+00 0. -1.
<mgrwt>
<rscale>  0 0.67196737E+03</rscale>
<asrwt>0</asrwt>
<pdfrwt beam="1">0</pdfrwt>
<pdfrwt beam="2">  1        2 0.41049191E+00 0.67196737E+03</pdfrwt>
<totfact> 0.36298249E+00</totfact>
</mgrwt>
</event>
<event>
 5    1  0.2357694E-004  0.6548729E+03  0.7818608E-02  0.9797678E-01
         13   -1    0    0    0    0  0.00000000000E+00  0.00000000000E+00  0.10000000000E+04  0.10000000000E+04  0.00000000000E+00 0. -1.
          2   -1    0    0  501    0 -0.00000000000E+00 -0.00000000000E+00 -0.10721464095E+03  0.10721464095E+03  0.00000000000E+00 0. -1.
    9000006    2    1    2  501    0  0.00000000000E+00  0.00000000000E+00  0.89278535905E+03  0.11072146409E+04  0.65487293713E+03 0.  0.
         13    1    3    3    0    0 -0.25260881361E+03 -0.19619689083E+03  0.56486713817E+03  0.64913736333E+03  0.00000000000E+00 0. -1.
          2    1    3    3  501    0  0.25260881361E+03  0.19619689083E+03  0.32791822088E+03  0.45807727762E+03  0.00000000000E+00 0. -1.
<mgrwt>
<rscale>  0 0.65487294E+03</rscale>
<asrwt>0</asrwt>
<pdfrwt beam="1">0</pdfrwt>
<pdfrwt beam="2">  1        2 0.38987224E+00 0.65487294E+03</pdfrwt>
<totfact> 0.43436456E+00</totfact>
</mgrwt>
</event>
<event>
 5    1  0.2357694E-004  0.6490896E+03  0.7818608E-02  0.9808489E-01
         13   -1    0    0    0    0  0.00000000000E+00  0.00000000000E+00  0.10000000000E+04  0.10000000000E+04  0.00000000000E+00 0. -1.
          2   -1    0    0  501    0 -0.00000000000E+00 -0.00000000000E+00 -0.10532932336E+03  0.10532932336E+03  0.00000000000E+00 0. -1.
    9000006    2    1    2  501    0  0.00000000000E+00  0.00000000000E+00  0.89467067664E+03  0.11053293234E+04  0.64908958814E+03 0.  0.
         13    1    3    3    0    0  0.70417712873E+02 -0.29989183900E+03  0.62129349744E+03  0.69346909040E+03  0.00000000000E+00 0. -1.
          4    1    3    3  501    0 -0.70417712873E+02  0.29989183900E+03  0.27337717921E+03  0.41186023296E+03  0.00000000000E+00 0. -1.
<mgrwt>
<rscale>  0 0.64908959E+03</rscale>
<asrwt>0</asrwt>
<pdfrwt beam="1">0</pdfrwt>
<pdfrwt beam="2">  1        2 0.38301653E+00 0.64908959E+03</pdfrwt>
<totfact> 0.46076140E+00</totfact>
</mgrwt>
</event>
<event>
 5    1  0.2357694E-004  0.6199466E+03  0.7818608E-02  0.9864866E-01
         13   -1    0    0    0    0  0.00000000000E+00  0.00000000000E+00  0.10000000000E+04  0.10000000000E+04  0.00000000000E+00 0. -1.
          2   -1    0    0  501    0 -0.00000000000E+00 -0.00000000000E+00 -0.96083441017E+02  0.96083441017E+02  0.00000000000E+00 0. -1.
    9000006    2    1    2  501    0  0.00000000000E+00  0.00000000000E+00  0.90391655898E+03  0.10960834410E+04  0.61994658163E+03 0.  0.
         13    1    3    3    0    0 -0.30639159977E+03 -0.38703506093E+02  0.40485873340E+03  0.50919973272E+03  0.00000000000E+00 0. -1.
          2    1    3    3  501    0  0.30639159977E+03  0.38703506093E+02  0.49905782559E+03  0.58688370830E+03  0.00000000000E+00 0. -1.
<mgrwt>
<rscale>  0 0.61994658E+03</rscale>
<asrwt>0</asrwt>
<pdfrwt beam="1">0</pdfrwt>
<pdfrwt beam="2">  1        2 0.34939507E+00 0.61994658E+03</pdfrwt>
<totfact> 0.61276256E+00</totfact>
</mgrwt>
</event>
<event>
 5    1  0.2357694E-004  0.6542406E+03  0.7818608E-02  0.9798854E-01
         13   -1    0    0    0    0  0.00000000000E+00  0.00000000000E+00  0.10000000000E+04  0.10000000000E+04  0.00000000000E+00 0. -1.
          2   -1    0    0  501    0 -0.00000000000E+00 -0.00000000000E+00 -0.10700768643E+03  0.10700768643E+03  0.00000000000E+00 0. -1.
    9000006    2    1    2  501    0  0.00000000000E+00  0.00000000000E+00  0.89299231357E+03  0.11070076864E+04  0.65424058703E+03 0.  0.
         13    1    3    3    0    0  0.63414585607E+02  0.31871122116E+03  0.51001982476E+03  0.60474661951E+03  0.00000000000E+00 0. -1.
          4    1    3    3  501    0 -0.63414585607E+02 -0.31871122116E+03  0.38297248881E+03  0.50226106692E+03  0.00000000000E+00 0. -1.
<mgrwt>
<rscale>  0 0.65424059E+03</rscale>
<asrwt>0</asrwt>
<pdfrwt beam="1">0</pdfrwt>
<pdfrwt beam="2">  1        2 0.38911968E+00 0.65424059E+03</pdfrwt>
<totfact> 0.43719373E+00</totfact>
</mgrwt>
</event>
<event>
 5    1  0.2357694E-004  0.5270878E+03  0.7818608E-02  0.1006941E+00
         13   -1    0    0    0    0  0.00000000000E+00  0.00000000000E+00  0.10000000000E+04  0.10000000000E+04  0.00000000000E+00 0. -1.
          2   -1    0    0  501    0 -0.00000000000E+00 -0.00000000000E+00 -0.69455397734E+02  0.69455397734E+02  0.00000000000E+00 0. -1.
    9000006    2    1    2  501    0  0.00000000000E+00  0.00000000000E+00  0.93054460227E+03  0.10694553977E+04  0.52708783987E+03 0.  0.
         13    1    3    3    0    0 -0.22967998761E+03 -0.60325520029E+02  0.23336913769E+03  0.33294627119E+03  0.00000000000E+00 0. -1.
          4    1    3    3  501    0  0.22967998761E+03  0.60325520029E+02  0.69717546458E+03  0.73650912655E+03  0.00000000000E+00 0. -1.
<mgrwt>
<rscale>  0 0.52708784E+03</rscale>
<asrwt>0</asrwt>
<pdfrwt beam="1">0</pdfrwt>
<pdfrwt beam="2">  1        2 0.25256562E+00 0.52708784E+03</pdfrwt>
<totfact> 0.13646670E+01</totfact>
</mgrwt>
</event>
<event>
 5    1  0.2357694E-004  0.5758058E+03  0.7818608E-02  0.9956913E-01
         13   -1    0    0    0    0  0.00000000000E+00  0.00000000000E+00  0.10000000000E+04  0.10000000000E+04  0.00000000000E+00 0. -1.
          2   -1    0    0  501    0 -0.00000000000E+00 -0.00000000000E+00 -0.82888084952E+02  0.82888084952E+02  0.00000000000E+00 0. -1.
    9000006    2    1    2  501    0  0.00000000000E+00  0.00000000000E+00  0.91711191505E+03  0.10828880850E+04  0.57580581780E+03 0.  0.
         13    1    3    3    0    0 -0.83835512089E+02  0.13305996727E+03  0.91207974880E+03  0.92553920293E+03  0.00000000000E+00 0. -1.
          4    1    3    3  501    0  0.83835512089E+02 -0.13305996727E+03  0.50321662460E+01  0.15734888203E+03  0.00000000000E+00 0. -1.
<mgrwt>
<rscale>  0 0.57580582E+03</rscale>
<asrwt>0</asrwt>
<pdfrwt beam="1">0</pdfrwt>
<pdfrwt beam="2">  1        2 0.30141185E+00 0.57580582E+03</pdfrwt>
<totfact> 0.91259852E+00</totfact>
</mgrwt>
</event>
<event>
 5    1  0.2357694E-004  0.6525392E+03  0.7818608E-02  0.9802026E-01
         13   -1    0    0    0    0  0.00000000000E+00  0.00000000000E+00  0.10000000000E+04  0.10000000000E+04  0.00000000000E+00 0. -1.
          2   -1    0    0  501    0 -0.00000000000E+00 -0.00000000000E+00 -0.10645186059E+03  0.10645186059E+03  0.00000000000E+00 0. -1.
    9000006    2    1    2  501    0  0.00000000000E+00  0.00000000000E+00  0.89354813941E+03  0.11064518606E+04  0.65253922668E+03 0.  0.
         13    1    3    3    0    0 -0.14207821027E+03  0.12762101852E+03 -0.17732553731E+01  0.19098818454E+03  0.00000000000E+00 0. -1.
          2    1    3    3  501    0  0.14207821027E+03 -0.12762101852E+03  0.89532139478E+03  0.91546367605E+03  0.00000000000E+00 0. -1.
<mgrwt>
<rscale>  0 0.65253923E+03</rscale>
<asrwt>0</asrwt>
<pdfrwt beam="1">0</pdfrwt>
<pdfrwt beam="2">  1        2 0.38709849E+00 0.65253923E+03</pdfrwt>
<totfact> 0.44487483E+00</totfact>
</mgrwt>
</event>
<event>
 5    1  0.2357694E-004  0.6496290E+03  0.7818608E-02  0.9807476E-01
         13   -1    0    0    0    0  0.00000000000E+00  0.00000000000E+00  0.10000000000E+04  0.10000000000E+04  0.00000000000E+00 0. -1.
          2   -1    0    0  501    0 -0.00000000000E+00 -0.00000000000E+00 -0.10550446366E+03  0.10550446366E+03  0.00000000000E+00 0. -1.
    9000006    2    1    2  501    0  0.00000000000E+00  0.00000000000E+00  0.89449553634E+03  0.11055044637E+04  0.64962901310E+03 0.  0.
         13    1    3    3    0    0  0.18408710671E+03  0.22587502476E+03  0.69147593171E+03  0.75036428074E+03  0.00000000000E+00 0. -1.
          2    1    3    3  501    0 -0.18408710671E+03 -0.22587502476E+03  0.20301960462E+03  0.35514018293E+03  0.00000000000E+00 0. -1.
<mgrwt>
<rscale>  0 0.64962901E+03</rscale>
<asrwt>0</asrwt>
<pdfrwt beam="1">0</pdfrwt>
<pdfrwt beam="2">  1        2 0.38365340E+00 0.64962901E+03</pdfrwt>
<totfact> 0.45824936E+00</totfact>
</mgrwt>
</event>
<event>
 5    1  0.2357694E-004  0.6648233E+03  0.7818608E-02  0.9779355E-01
         13   -1    0    0    0    0  0.00000000000E+00  0.00000000000E+00  0.10000000000E+04  0.10000000000E+04  0.00000000000E+00 0. -1.
          2   -1    0    0  501    0 -0.00000000000E+00 -0.00000000000E+00 -0.11049750891E+03  0.11049750891E+03  0.00000000000E+00 0. -1.
    9000006    2    1    2  501    0  0.00000000000E+00  0.00000000000E+00  0.88950249109E+03  0.11104975089E+04  0.66482331158E+03 0.  0.
         13    1    3    3    0    0  0.27250792943E+03  0.71082607383E+02  0.14978069786E+03  0.31897894307E+03  0.00000000000E+00 0. -1.
          4    1    3    3  501    0 -0.27250792943E+03 -0.71082607383E+02  0.73972179324E+03  0.79151856583E+03  0.00000000000E+00 0. -1.
<mgrwt>
<rscale>  0 0.66482331E+03</rscale>
<asrwt>0</asrwt>
<pdfrwt beam="1">0</pdfrwt>
<pdfrwt beam="2">  1        2 0.40180997E+00 0.66482331E+03</pdfrwt>
<totfact> 0.39164174E+00</totfact>
</mgrwt>
</event>
<event>
 5    1  0.2357694E-004  0.6492841E+03  0.7818608E-02  0.9808123E-01
         13   -1    0    0    0    0  0.00000000000E+00  0.00000000000E+00  0.10000000000E+04  0.10000000000E+04  0.00000000000E+00 0. -1.
          2   -1    0    0  501    0 -0.00000000000E+00 -0.00000000000E+00 -0.10539245321E+03  0.10539245321E+03  0.00000000000E+00 0. -1.
    9000006    2    1    2  501    0  0.00000000000E+00  0.00000000000E+00  0.89460754679E+03  0.11053924532E+04  0.64928407714E+03 0.  0.
         13    1    3    3    0    0  0.15938531198E+03  0.28108281264E+03  0.50063317403E+03  0.59585635867E+03  0.00000000000E+00 0. -1.
          2    1    3    3  501    0 -0.15938531198E+03 -0.28108281264E+03  0.39397437277E+03  0.50953609453E+03  0.00000000000E+00 0. -1.
<mgrwt>
<rscale>  0 0.64928408E+03</rscale>
<asrwt>0</asrwt>
<pdfrwt beam="1">0</pdfrwt>
<pdfrwt beam="2">  1        2 0.38324609E+00 0.64928408E+03</pdfrwt>
<totfact> 0.45985449E+00</totfact>
</mgrwt>
</event>
<event>
 5    1  0.2357694E-004  0.6013464E+03  0.7818608E-02  0.9902617E-01
         13   -1    0    0    0    0  0.00000000000E+00  0.00000000000E+00  0.10000000000E+04  0.10000000000E+04  0.00000000000E+00 0. -1.
          2   -1    0    0  501    0 -0.00000000000E+00 -0.00000000000E+00 -0.90404370422E+02  0.90404370422E+02  0.00000000000E+00 0. -1.
    9000006    2    1    2  501    0  0.00000000000E+00  0.00000000000E+00  0.90959562958E+03  0.10904043704E+04  0.60134639077E+03 0.  0.
         13    1    3    3    0    0 -0.24244872518E+03  0.17498251932E+03  0.39733958705E+03  0.49727156952E+03  0.00000000000E+00 0. -1.
          4    1    3    3  501    0  0.24244872518E+03 -0.17498251932E+03  0.51225604252E+03  0.59313280091E+03  0.00000000000E+00 0. -1.
<mgrwt>
<rscale>  0 0.60134639E+03</rscale>
<asrwt>0</asrwt>
<pdfrwt beam="1">0</pdfrwt>
<pdfrwt beam="2">  1        2 0.32874386E+00 0.60134639E+03</pdfrwt>
<totfact> 0.72799001E+00</totfact>
</mgrwt>
</event>
<event>
 5    1  0.2357694E-004  0.6502781E+03  0.7818608E-02  0.9806257E-01
         13   -1    0    0    0    0  0.00000000000E+00  0.00000000000E+00  0.10000000000E+04  0.10000000000E+04  0.00000000000E+00 0. -1.
          2   -1    0    0  501    0 -0.00000000000E+00 -0.00000000000E+00 -0.10571541115E+03  0.10571541115E+03  0.00000000000E+00 0. -1.
    9000006    2    1    2  501    0  0.00000000000E+00  0.00000000000E+00  0.89428458885E+03  0.11057154112E+04  0.65027812865E+03 0.  0.
         13    1    3    3    0    0 -0.31024359815E+03 -0.69726500770E+02  0.33178559680E+03  0.45955909016E+03  0.00000000000E+00 0. -1.
          4    1    3    3  501    0  0.31024359815E+03  0.69726500770E+02  0.56249899205E+03  0.64615632099E+03  0.00000000000E+00 0. -1.
<mgrwt>
<rscale>  0 0.65027813E+03</rscale>
<asrwt>0</asrwt>
<pdfrwt beam="1">0</pdfrwt>
<pdfrwt beam="2">  1        2 0.38442049E+00 0.65027813E+03</pdfrwt>
<totfact> 0.45524023E+00</totfact>
</mgrwt>
</event>
<event>
 5    1  0.2357694E-004  0.6870335E+03  0.7818608E-02  0.9739667E-01
         13   -1    0    0    0    0  0.00000000000E+00  0.00000000000E+00  0.10000000000E+04  0.10000000000E+04  0.00000000000E+00 0. -1.
          2   -1    0    0  501    0 -0.00000000000E+00 -0.00000000000E+00 -0.11800374434E+03  0.11800374434E+03  0.00000000000E+00 0. -1.
    9000006    2    1    2  501    0  0.00000000000E+00  0.00000000000E+00  0.88199625566E+03  0.11180037443E+04  0.68703346161E+03 0.  0.
         13    1    3    3    0    0 -0.20678191340E+03 -0.20698675072E+03  0.14807900628E+03  0.32791716451E+03  0.00000000000E+00 0. -1.
          4    1    3    3  501    0  0.20678191340E+03  0.20698675072E+03  0.73391724938E+03  0.79008657983E+03  0.00000000000E+00 0. -1.
<mgrwt>
<rscale>  0 0.68703346E+03</rscale>
<asrwt>0</asrwt>
<pdfrwt beam="1">0</pdfrwt>
<pdfrwt beam="2">  1        2 0.42910543E+00 0.68703346E+03</pdfrwt>
<totfact> 0.30774735E+00</totfact>
</mgrwt>
</event>
<event>
 5    1  0.2357694E-004  0.6479677E+03  0.7818608E-02  0.9810600E-01
         13   -1    0    0    0    0  0.00000000000E+00  0.00000000000E+00  0.10000000000E+04  0.10000000000E+04  0.00000000000E+00 0. -1.
          2   -1    0    0  501    0 -0.00000000000E+00 -0.00000000000E+00 -0.10496553809E+03  0.10496553809E+03  0.00000000000E+00 0. -1.
    9000006    2    1    2  501    0  0.00000000000E+00  0.00000000000E+00  0.89503446191E+03  0.11049655381E+04  0.64796770935E+03 0.  0.
         13    1    3    3    0    0 -0.80316312014E+02  0.41398214644E+02 -0.83043773964E+02  0.12272241256E+03  0.00000000000E+00 0. -1.
          2    1    3    3  501    0  0.80316312014E+02 -0.41398214644E+02  0.97807823587E+03  0.98224312553E+03  0.00000000000E+00 0. -1.
<mgrwt>
<rscale>  0 0.64796771E+03</rscale>
<asrwt>0</asrwt>
<pdfrwt beam="1">0</pdfrwt>
<pdfrwt beam="2">  1        2 0.38169367E+00 0.64796771E+03</pdfrwt>
<totfact> 0.46601920E+00</totfact>
</mgrwt>
</event>
<event>
 5    1  0.2357694E-004  0.6495865E+03  0.7818608E-02  0.9807555E-01
         13   -1    0    0    0    0  0.00000000000E+00  0.00000000000E+00  0.10000000000E+04  0.10000000000E+04  0.00000000000E+00 0. -1.
          2   -1    0    0  501    0 -0.00000000000E+00 -0.00000000000E+00 -0.10549064513E+03  0.10549064513E+03  0.00000000000E+00 0. -1.
    9000006    2    1    2  501    0  0.00000000000E+00  0.00000000000E+00  0.89450935487E+03  0.11054906451E+04  0.64958646886E+03 0.  0.
         13    1    3    3    0    0  0.14308746975E+03  0.29000482654E+03  0.39580900603E+03  0.51111798312E+03  0.00000000000E+00 0. -1.
          4    1    3    3  501    0 -0.14308746975E+03 -0.29000482654E+03  0.49870034884E+03  0.59437266201E+03  0.00000000000E+00 0. -1.
<mgrwt>
<rscale>  0 0.64958647E+03</rscale>
<asrwt>0</asrwt>
<pdfrwt beam="1">0</pdfrwt>
<pdfrwt beam="2">  1        2 0.38360315E+00 0.64958647E+03</pdfrwt>
<totfact> 0.45844710E+00</totfact>
</mgrwt>
</event>
<event>
 5    1  0.2357694E-004  0.6436884E+03  0.7818608E-02  0.9818695E-01
         13   -1    0    0    0    0  0.00000000000E+00  0.00000000000E+00  0.10000000000E+04  0.10000000000E+04  0.00000000000E+00 0. -1.
          2   -1    0    0  501    0 -0.00000000000E+00 -0.00000000000E+00 -0.10358370436E+03  0.10358370436E+03  0.00000000000E+00 0. -1.
    9000006    2    1    2  501    0  0.00000000000E+00  0.00000000000E+00  0.89641629564E+03  0.11035837044E+04  0.64368844749E+03 0.  0.
         13    1    3    3    0    0 -0.30444434694E+03 -0.10402330138E+03  0.43321298981E+03  0.53961162159E+03  0.00000000000E+00 0. -1.
          2    1    3    3  501    0  0.30444434694E+03  0.10402330138E+03  0.46320330583E+03  0.56397208277E+03  0.00000000000E+00 0. -1.
<mgrwt>
<rscale>  0 0.64368845E+03</rscale>
<asrwt>0</asrwt>
<pdfrwt beam="1">0</pdfrwt>
<pdfrwt beam="2">  1        2 0.37666881E+00 0.64368845E+03</pdfrwt>
<totfact> 0.48649216E+00</totfact>
</mgrwt>
</event>
<event>
 5    1  0.2357694E-004  0.6512800E+03  0.7818608E-02  0.9804380E-01
         13   -1    0    0    0    0  0.00000000000E+00  0.00000000000E+00  0.10000000000E+04  0.10000000000E+04  0.00000000000E+00 0. -1.
          2   -1    0    0  501    0 -0.00000000000E+00 -0.00000000000E+00 -0.10604140847E+03  0.10604140847E+03  0.00000000000E+00 0. -1.
    9000006    2    1    2  501    0  0.00000000000E+00  0.00000000000E+00  0.89395859153E+03  0.11060414085E+04  0.65127999652E+03 0.  0.
         13    1    3    3    0    0 -0.57790454654E+02  0.30682230998E+03  0.60411855927E+03  0.68002860249E+03  0.00000000000E+00 0. -1.
          4    1    3    3  501    0  0.57790454654E+02 -0.30682230998E+03  0.28984003227E+03  0.42601280598E+03  0.00000000000E+00 0. -1.
<mgrwt>
<rscale>  0 0.65128000E+03</rscale>
<asrwt>0</asrwt>
<pdfrwt beam="1">0</pdfrwt>
<pdfrwt beam="2">  1        2 0.38560593E+00 0.65128000E+03</pdfrwt>
<totfact> 0.45062517E+00</totfact>
</mgrwt>
</event>
<event>
 5    1  0.2357694E-004  0.5557232E+03  0.7818608E-02  0.1000178E+00
         13   -1    0    0    0    0  0.00000000000E+00  0.00000000000E+00  0.10000000000E+04  0.10000000000E+04  0.00000000000E+00 0. -1.
          2   -1    0    0  501    0 -0.00000000000E+00 -0.00000000000E+00 -0.77207070049E+02  0.77207070049E+02  0.00000000000E+00 0. -1.
    9000006    2    1    2  501    0  0.00000000000E+00  0.00000000000E+00  0.92279292995E+03  0.10772070700E+04  0.55572320466E+03 0.  0.
         13    1    3    3    0    0 -0.58542969301E+02  0.21543065472E+03  0.78207765821E+03  0.81331611918E+03  0.00000000000E+00 0. -1.
          4    1    3    3  501    0  0.58542969301E+02 -0.21543065472E+03  0.14071527174E+03  0.26389095087E+03  0.00000000000E+00 0. -1.
<mgrwt>
<rscale>  0 0.55572320E+03</rscale>
<asrwt>0</asrwt>
<pdfrwt beam="1">0</pdfrwt>
<pdfrwt beam="2">  1        2 0.28075357E+00 0.55572320E+03</pdfrwt>
<totfact> 0.10817364E+01</totfact>
</mgrwt>
</event>
<event>
 5    1  0.2357694E-004  0.6698903E+03  0.7818608E-02  0.9770156E-01
         13   -1    0    0    0    0  0.00000000000E+00  0.00000000000E+00  0.10000000000E+04  0.10000000000E+04  0.00000000000E+00 0. -1.
          2   -1    0    0  501    0 -0.00000000000E+00 -0.00000000000E+00 -0.11218825102E+03  0.11218825102E+03  0.00000000000E+00 0. -1.
    9000006    2    1    2  501    0  0.00000000000E+00  0.00000000000E+00  0.88781174898E+03  0.11121882510E+04  0.66989029258E+03 0.  0.
         13    1    3    3    0    0  0.16032783470E+03 -0.15407987020E+03  0.28037420161E+02  0.22412433583E+03  0.00000000000E+00 0. -1.
          2    1    3    3  501    0 -0.16032783470E+03  0.15407987020E+03  0.85977432881E+03  0.88806391519E+03  0.00000000000E+00 0. -1.
<mgrwt>
<rscale>  0 0.66989029E+03</rscale>
<asrwt>0</asrwt>
<pdfrwt beam="1">0</pdfrwt>
<pdfrwt beam="2">  1        2 0.40795814E+00 0.66989029E+03</pdfrwt>
<totfact> 0.37114617E+00</totfact>
</mgrwt>
</event>
<event>
 5    1  0.2357694E-004  0.6533434E+03  0.7818608E-02  0.9800526E-01
         13   -1    0    0    0    0  0.00000000000E+00  0.00000000000E+00  0.10000000000E+04  0.10000000000E+04  0.00000000000E+00 0. -1.
          2   -1    0    0  501    0 -0.00000000000E+00 -0.00000000000E+00 -0.10671439448E+03  0.10671439448E+03  0.00000000000E+00 0. -1.
    9000006    2    1    2  501    0  0.00000000000E+00  0.00000000000E+00  0.89328560552E+03  0.11067143945E+04  0.65334338440E+03 0.  0.
         13    1    3    3    0    0 -0.24282274242E+02 -0.26678188031E+03  0.12995504018E+03  0.29774236006E+03  0.00000000000E+00 0. -1.
          4    1    3    3  501    0  0.24282274242E+02  0.26678188031E+03  0.76333056534E+03  0.80897203443E+03  0.00000000000E+00 0. -1.
<mgrwt>
<rscale>  0 0.65334338E+03</rscale>
<asrwt>0</asrwt>
<pdfrwt beam="1">0</pdfrwt>
<pdfrwt beam="2">  1        2 0.38805316E+00 0.65334338E+03</pdfrwt>
<totfact> 0.44123172E+00</totfact>
</mgrwt>
</event>
<event>
 5    1  0.2357694E-004  0.6577249E+03  0.7818608E-02  0.9792391E-01
         13   -1    0    0    0    0  0.00000000000E+00  0.00000000000E+00  0.10000000000E+04  0.10000000000E+04  0.00000000000E+00 0. -1.
          2   -1    0    0  501    0 -0.00000000000E+00 -0.00000000000E+00 -0.10815051704E+03  0.10815051704E+03  0.00000000000E+00 0. -1.
    9000006    2    1    2  501    0  0.00000000000E+00  0.00000000000E+00  0.89184948296E+03  0.11081505170E+04  0.65772491831E+03 0.  0.
         13    1    3    3    0    0 -0.76562695494E+02  0.62487806203E+02 -0.82540677403E+02  0.12876154586E+03  0.00000000000E+00 0. -1.
          4    1    3    3  501    0  0.76562695494E+02 -0.62487806203E+02  0.97439016036E+03  0.97938897118E+03  0.00000000000E+00 0. -1.
<mgrwt>
<rscale>  0 0.65772492E+03</rscale>
<asrwt>0</asrwt>
<pdfrwt beam="1">0</pdfrwt>
<pdfrwt beam="2">  1        2 0.39327544E+00 0.65772492E+03</pdfrwt>
<totfact> 0.42177604E+00</totfact>
</mgrwt>
</event>
<event>
 5    1  0.2357694E-004  0.6533658E+03  0.7818608E-02  0.9800484E-01
         13   -1    0    0    0    0  0.00000000000E+00  0.00000000000E+00  0.10000000000E+04  0.10000000000E+04  0.00000000000E+00 0. -1.
          2   -1    0    0  501    0 -0.00000000000E+00 -0.00000000000E+00 -0.10672171468E+03  0.10672171468E+03  0.00000000000E+00 0. -1.
    9000006    2    1    2  501    0  0.00000000000E+00  0.00000000000E+00  0.89327828532E+03  0.11067217147E+04  0.65336579244E+03 0.  0.
         13    1    3    3    0    0 -0.98940679464E+02  0.29961303923E+03  0.59001448807E+03  0.66908469379E+03  0.00000000000E+00 0. -1.
          4    1    3    3  501    0  0.98940679464E+02 -0.29961303923E+03  0.30326379725E+03  0.43763702089E+03  0.00000000000E+00 0. -1.
<mgrwt>
<rscale>  0 0.65336579E+03</rscale>
<asrwt>0</asrwt>
<pdfrwt beam="1">0</pdfrwt>
<pdfrwt beam="2">  1        2 0.38807978E+00 0.65336579E+03</pdfrwt>
<totfact> 0.44113053E+00</totfact>
</mgrwt>
</event>
<event>
 5    1  0.2357694E-004  0.6490868E+03  0.7818608E-02  0.9808494E-01
         13   -1    0    0    0    0  0.00000000000E+00  0.00000000000E+00  0.10000000000E+04  0.10000000000E+04  0.00000000000E+00 0. -1.
          2   -1    0    0  501    0 -0.00000000000E+00 -0.00000000000E+00 -0.10532842288E+03  0.10532842288E+03  0.00000000000E+00 0. -1.
    9000006    2    1    2  501    0  0.00000000000E+00  0.00000000000E+00  0.89467157712E+03  0.11053284229E+04  0.64908681354E+03 0.  0.
         13    1    3    3    0    0  0.11845996414E+03  0.28344905749E+03  0.62554947348E+03  0.69691339136E+03  0.00000000000E+00 0. -1.
          4    1    3    3  501    0 -0.11845996414E+03 -0.28344905749E+03  0.26912210365E+03  0.40841503151E+03  0.00000000000E+00 0. -1.
<mgrwt>
<rscale>  0 0.64908681E+03</rscale>
<asrwt>0</asrwt>
<pdfrwt beam="1">0</pdfrwt>
<pdfrwt beam="2">  1        2 0.38301325E+00 0.64908681E+03</pdfrwt>
<totfact> 0.46077435E+00</totfact>
</mgrwt>
</event>
<event>
 5    1  0.2357694E-004  0.6433323E+03  0.7818608E-02  0.9819372E-01
         13   -1    0    0    0    0  0.00000000000E+00  0.00000000000E+00  0.10000000000E+04  0.10000000000E+04  0.00000000000E+00 0. -1.
          2   -1    0    0  501    0 -0.00000000000E+00 -0.00000000000E+00 -0.10346911033E+03  0.10346911033E+03  0.00000000000E+00 0. -1.
    9000006    2    1    2  501    0  0.00000000000E+00  0.00000000000E+00  0.89653088967E+03  0.11034691103E+04  0.64333229465E+03 0.  0.
         13    1    3    3    0    0 -0.10799488758E+03 -0.28321555174E+03  0.26356696982E+03  0.40167336490E+03  0.00000000000E+00 0. -1.
          2    1    3    3  501    0  0.10799488758E+03  0.28321555174E+03  0.63296391984E+03  0.70179574544E+03  0.00000000000E+00 0. -1.
<mgrwt>
<rscale>  0 0.64333229E+03</rscale>
<asrwt>0</asrwt>
<pdfrwt beam="1">0</pdfrwt>
<pdfrwt beam="2">  1        2 0.37625210E+00 0.64333229E+03</pdfrwt>
<totfact> 0.48822623E+00</totfact>
</mgrwt>
</event>
<event>
 5    1  0.2357694E-004  0.6447548E+03  0.7818608E-02  0.9816672E-01
         13   -1    0    0    0    0  0.00000000000E+00  0.00000000000E+00  0.10000000000E+04  0.10000000000E+04  0.00000000000E+00 0. -1.
          2   -1    0    0  501    0 -0.00000000000E+00 -0.00000000000E+00 -0.10392717752E+03  0.10392717752E+03  0.00000000000E+00 0. -1.
    9000006    2    1    2  501    0  0.00000000000E+00  0.00000000000E+00  0.89607282248E+03  0.11039271775E+04  0.64475476740E+03 0.  0.
         13    1    3    3    0    0 -0.25931759963E+03  0.13488891986E+03  0.21524139797E+03  0.36300068537E+03  0.00000000000E+00 0. -1.
          4    1    3    3  501    0  0.25931759963E+03 -0.13488891986E+03  0.68083142451E+03  0.74092649215E+03  0.00000000000E+00 0. -1.
<mgrwt>
<rscale>  0 0.64475477E+03</rscale>
<asrwt>0</asrwt>
<pdfrwt beam="1">0</pdfrwt>
<pdfrwt beam="2">  1        2 0.37791781E+00 0.64475477E+03</pdfrwt>
<totfact> 0.48132824E+00</totfact>
</mgrwt>
</event>
<event>
 5    1  0.2357694E-004  0.6513111E+03  0.7818608E-02  0.9804322E-01
         13   -1    0    0    0    0  0.00000000000E+00  0.00000000000E+00  0.10000000000E+04  0.10000000000E+04  0.00000000000E+00 0. -1.
          2   -1    0    0  501    0 -0.00000000000E+00 -0.00000000000E+00 -0.10605154399E+03  0.10605154399E+03  0.00000000000E+00 0. -1.
    9000006    2    1    2  501    0  0.00000000000E+00  0.00000000000E+00  0.89394845601E+03  0.11060515440E+04  0.65131112071E+03 0.  0.
         13    1    3    3    0    0 -0.14239904650E+03 -0.29200282451E+03  0.48526483202E+03  0.58397353978E+03  0.00000000000E+00 0. -1.
          4    1    3    3  501    0  0.14239904650E+03  0.29200282451E+03  0.40868362399E+03  0.52207800421E+03  0.00000000000E+00 0. -1.
<mgrwt>
<rscale>  0 0.65131112E+03</rscale>
<asrwt>0</asrwt>
<pdfrwt beam="1">0</pdfrwt>
<pdfrwt beam="2">  1        2 0.38564279E+00 0.65131112E+03</pdfrwt>
<totfact> 0.45048237E+00</totfact>
</mgrwt>
</event>
<event>
 5    1  0.2357694E-004  0.6509426E+03  0.7818608E-02  0.9805012E-01
         13   -1    0    0    0    0  0.00000000000E+00  0.00000000000E+00  0.10000000000E+04  0.10000000000E+04  0.00000000000E+00 0. -1.
          2   -1    0    0  501    0 -0.00000000000E+00 -0.00000000000E+00 -0.10593158249E+03  0.10593158249E+03  0.00000000000E+00 0. -1.
    9000006    2    1    2  501    0  0.00000000000E+00  0.00000000000E+00  0.89406841751E+03  0.11059315825E+04  0.65094264722E+03 0.  0.
         13    1    3    3    0    0  0.25543263293E+03 -0.17298453387E+03  0.27078218254E+03  0.41047834207E+03  0.00000000000E+00 0. -1.
          4    1    3    3  501    0 -0.25543263293E+03  0.17298453387E+03  0.62328623496E+03  0.69545324043E+03  0.00000000000E+00 0. -1.
<mgrwt>
<rscale>  0 0.65094265E+03</rscale>
<asrwt>0</asrwt>
<pdfrwt beam="1">0</pdfrwt>
<pdfrwt beam="2">  1        2 0.38520657E+00 0.65094265E+03</pdfrwt>
<totfact> 0.45217519E+00</totfact>
</mgrwt>
</event>
<event>
 5    1  0.2357694E-004  0.6601644E+03  0.7818608E-02  0.9787891E-01
         13   -1    0    0    0    0  0.00000000000E+00  0.00000000000E+00  0.10000000000E+04  0.10000000000E+04  0.00000000000E+00 0. -1.
          2   -1    0    0  501    0 -0.00000000000E+00 -0.00000000000E+00 -0.10895426201E+03  0.10895426201E+03  0.00000000000E+00 0. -1.
    9000006    2    1    2  501    0  0.00000000000E+00  0.00000000000E+00  0.89104573799E+03  0.11089542620E+04  0.66016440985E+03 0.  0.
         13    1    3    3    0    0  0.32765086676E+03 -0.17522495425E+02  0.50590594724E+03  0.60299498820E+03  0.00000000000E+00 0. -1.
          4    1    3    3  501    0 -0.32765086676E+03  0.17522495425E+02  0.38513979075E+03  0.50595927381E+03  0.00000000000E+00 0. -1.
<mgrwt>
<rscale>  0 0.66016441E+03</rscale>
<asrwt>0</asrwt>
<pdfrwt beam="1">0</pdfrwt>
<pdfrwt beam="2">  1        2 0.39619815E+00 0.66016441E+03</pdfrwt>
<totfact> 0.41122925E+00</totfact>
</mgrwt>
</event>
<event>
 5    1  0.2357694E-004  0.6525642E+03  0.7818608E-02  0.9801979E-01
         13   -1    0    0    0    0  0.00000000000E+00  0.00000000000E+00  0.10000000000E+04  0.10000000000E+04  0.00000000000E+00 0. -1.
          2   -1    0    0  501    0 -0.00000000000E+00 -0.00000000000E+00 -0.10646001844E+03  0.10646001844E+03  0.00000000000E+00 0. -1.
    9000006    2    1    2  501    0  0.00000000000E+00  0.00000000000E+00  0.89353998156E+03  0.11064600184E+04  0.65256422962E+03 0.  0.
         13    1    3    3    0    0  0.23100446524E+02  0.72634400151E+02 -0.91153752345E+02  0.11882084532E+03  0.00000000000E+00 0. -1.
          4    1    3    3  501    0 -0.23100446524E+02 -0.72634400151E+02  0.98469373390E+03  0.98763917313E+03  0.00000000000E+00 0. -1.
<mgrwt>
<rscale>  0 0.65256423E+03</rscale>
<asrwt>0</asrwt>
<pdfrwt beam="1">0</pdfrwt>
<pdfrwt beam="2">  1        2 0.38712816E+00 0.65256423E+03</pdfrwt>
<totfact> 0.44476122E+00</totfact>
</mgrwt>
</event>
<event>
 5    1  0.2357694E-004  0.6242358E+03  0.7818608E-02  0.9856362E-01
         13   -1    0    0    0    0  0.00000000000E+00  0.00000000000E+00  0.10000000000E+04  0.10000000000E+04  0.00000000000E+00 0. -1.
          2   -1    0    0  501    0 -0.00000000000E+00 -0.00000000000E+00 -0.97417597771E+02  0.97417597771E+02  0.00000000000E+00 0. -1.
    9000006    2    1    2  501    0  0.00000000000E+00  0.00000000000E+00  0.90258240223E+03  0.10974175978E+04  0.62423584572E+03 0.  0.
         13    1    3    3    0    0 -0.24030897174E+03  0.52607579998E+02  0.11357955257E+03  0.27095437648E+03  0.00000000000E+00 0. -1.
          2    1    3    3  501    0  0.24030897174E+03 -0.52607579998E+02  0.78900284966E+03  0.82646322129E+03  0.00000000000E+00 0. -1.
<mgrwt>
<rscale>  0 0.62423585E+03</rscale>
<asrwt>0</asrwt>
<pdfrwt beam="1">0</pdfrwt>
<pdfrwt beam="2">  1        2 0.35424656E+00 0.62423585E+03</pdfrwt>
<totfact> 0.58829176E+00</totfact>
</mgrwt>
</event>
<event>
 5    1  0.2357694E-004  0.6183472E+03  0.7818608E-02  0.9868056E-01
         13   -1    0    0    0    0  0.00000000000E+00  0.00000000000E+00  0.10000000000E+04  0.10000000000E+04  0.00000000000E+00 0. -1.
          2   -1    0    0  501    0 -0.00000000000E+00 -0.00000000000E+00 -0.95588321297E+02  0.95588321297E+02  0.00000000000E+00 0. -1.
    9000006    2    1    2  501    0  0.00000000000E+00  0.00000000000E+00  0.90441167870E+03  0.10955883213E+04  0.61834722057E+03 0.  0.
         13    1    3    3    0    0  0.61601134967E+02 -0.19527104599E+03  0.86264785143E+03  0.88661536013E+03  0.00000000000E+00 0. -1.
          4    1    3    3  501    0 -0.61601134967E+02  0.19527104599E+03  0.41763827269E+02  0.20897296117E+03  0.00000000000E+00 0. -1.
<mgrwt>
<rscale>  0 0.61834722E+03</rscale>
<asrwt>0</asrwt>
<pdfrwt beam="1">0</pdfrwt>
<pdfrwt beam="2">  1        2 0.34759463E+00 0.61834722E+03</pdfrwt>
<totfact> 0.62208256E+00</totfact>
</mgrwt>
</event>
<event>
 5    1  0.2357694E-004  0.6491162E+03  0.7818608E-02  0.9808439E-01
         13   -1    0    0    0    0  0.00000000000E+00  0.00000000000E+00  0.10000000000E+04  0.10000000000E+04  0.00000000000E+00 0. -1.
          2   -1    0    0  501    0 -0.00000000000E+00 -0.00000000000E+00 -0.10533796385E+03  0.10533796385E+03  0.00000000000E+00 0. -1.
    9000006    2    1    2  501    0  0.00000000000E+00  0.00000000000E+00  0.89466203615E+03  0.11053379638E+04  0.64911621100E+03 0.  0.
         13    1    3    3    0    0 -0.54779024616E+02  0.30545514468E+03  0.28547765293E+03  0.42166465025E+03  0.00000000000E+00 0. -1.
          4    1    3    3  501    0  0.54779024616E+02 -0.30545514468E+03  0.60918438323E+03  0.68367331359E+03  0.00000000000E+00 0. -1.
<mgrwt>
<rscale>  0 0.64911621E+03</rscale>
<asrwt>0</asrwt>
<pdfrwt beam="1">0</pdfrwt>
<pdfrwt beam="2">  1        2 0.38304795E+00 0.64911621E+03</pdfrwt>
<totfact> 0.46063718E+00</totfact>
</mgrwt>
</event>
<event>
 5    1  0.2357694E-004  0.6550696E+03  0.7818608E-02  0.9797313E-01
         13   -1    0    0    0    0  0.00000000000E+00  0.00000000000E+00  0.10000000000E+04  0.10000000000E+04  0.00000000000E+00 0. -1.
          2   -1    0    0  501    0 -0.00000000000E+00 -0.00000000000E+00 -0.10727906062E+03  0.10727906062E+03  0.00000000000E+00 0. -1.
    9000006    2    1    2  501    0  0.00000000000E+00  0.00000000000E+00  0.89272093938E+03  0.11072790606E+04  0.65506964705E+03 0.  0.
         13    1    3    3    0    0  0.63800865144E+02  0.65608630912E+02  0.97795019436E+03  0.98222279829E+03  0.00000000000E+00 0. -1.
          2    1    3    3  501    0 -0.63800865144E+02 -0.65608630912E+02 -0.85229254979E+02  0.12505626233E+03  0.00000000000E+00 0. -1.
<mgrwt>
<rscale>  0 0.65506965E+03</rscale>
<asrwt>0</asrwt>
<pdfrwt beam="1">0</pdfrwt>
<pdfrwt beam="2">  1        2 0.39010650E+00 0.65506965E+03</pdfrwt>
<totfact> 0.43348730E+00</totfact>
</mgrwt>
</event>
<event>
 5    1  0.2357694E-004  0.6490821E+03  0.7818608E-02  0.9808503E-01
         13   -1    0    0    0    0  0.00000000000E+00  0.00000000000E+00  0.10000000000E+04  0.10000000000E+04  0.00000000000E+00 0. -1.
          2   -1    0    0  501    0 -0.00000000000E+00 -0.00000000000E+00 -0.10532690448E+03  0.10532690448E+03  0.00000000000E+00 0. -1.
    9000006    2    1    2  501    0  0.00000000000E+00  0.00000000000E+00  0.89467309552E+03  0.11053269045E+04  0.64908213495E+03 0.  0.
         13    1    3    3    0    0 -0.74365155246E+02 -0.17440746659E+03 -0.12067417488E+01  0.18960378937E+03  0.00000000000E+00 0. -1.
          4    1    3    3  501    0  0.74365155246E+02  0.17440746659E+03  0.89587983727E+03  0.91572311511E+03  0.00000000000E+00 0. -1.
<mgrwt>
<rscale>  0 0.64908213E+03</rscale>
<asrwt>0</asrwt>
<pdfrwt beam="1">0</pdfrwt>
<pdfrwt beam="2">  1        2 0.38300773E+00 0.64908213E+03</pdfrwt>
<totfact> 0.46079618E+00</totfact>
</mgrwt>
</event>
<event>
 5    1  0.2357694E-004  0.6486248E+03  0.7818608E-02  0.9809363E-01
         13   -1    0    0    0    0  0.00000000000E+00  0.00000000000E+00  0.10000000000E+04  0.10000000000E+04  0.00000000000E+00 0. -1.
          2   -1    0    0  501    0 -0.00000000000E+00 -0.00000000000E+00 -0.10517853833E+03  0.10517853833E+03  0.00000000000E+00 0. -1.
    9000006    2    1    2  501    0  0.00000000000E+00  0.00000000000E+00  0.89482146167E+03  0.11051785383E+04  0.64862481707E+03 0.  0.
         13    1    3    3    0    0  0.26771950928E+03  0.21308352255E+02  0.13764769945E+03  0.30178580267E+03  0.00000000000E+00 0. -1.
          2    1    3    3  501    0 -0.26771950928E+03 -0.21308352255E+02  0.75717376222E+03  0.80339273566E+03  0.00000000000E+00 0. -1.
<mgrwt>
<rscale>  0 0.64862482E+03</rscale>
<asrwt>0</asrwt>
<pdfrwt beam="1">0</pdfrwt>
<pdfrwt beam="2">  1        2 0.38246822E+00 0.64862482E+03</pdfrwt>
<totfact> 0.46293413E+00</totfact>
</mgrwt>
</event>
<event>
 5    1  0.2357694E-004  0.6314289E+03  0.7818608E-02  0.9842264E-01
         13   -1    0    0    0    0  0.00000000000E+00  0.00000000000E+00  0.10000000000E+04  0.10000000000E+04  0.00000000000E+00 0. -1.
          2   -1    0    0  501    0 -0.00000000000E+00 -0.00000000000E+00 -0.99675603960E+02  0.99675603960E+02  0.00000000000E+00 0. -1.
    9000006    2    1    2  501    0  0.00000000000E+00  0.00000000000E+00  0.90032439604E+03  0.10996756040E+04  0.63142886839E+03 0.  0.
         13    1    3    3    0    0  0.22107388221E+03  0.20085487673E+03  0.62827316372E+03  0.69566048555E+03  0.00000000000E+00 0. -1.
          2    1    3    3  501    0 -0.22107388221E+03 -0.20085487673E+03  0.27205123232E+03  0.40401511841E+03  0.00000000000E+00 0. -1.
<mgrwt>
<rscale>  0 0.63142887E+03</rscale>
<asrwt>0</asrwt>
<pdfrwt beam="1">0</pdfrwt>
<pdfrwt beam="2">  1        2 0.36245751E+00 0.63142887E+03</pdfrwt>
<totfact> 0.54893248E+00</totfact>
</mgrwt>
</event>
<event>
 5    1  0.2357694E-004  0.6371612E+03  0.7818608E-02  0.9831173E-01
         13   -1    0    0    0    0  0.00000000000E+00  0.00000000000E+00  0.10000000000E+04  0.10000000000E+04  0.00000000000E+00 0. -1.
          2   -1    0    0  501    0 -0.00000000000E+00 -0.00000000000E+00 -0.10149360226E+03  0.10149360226E+03  0.00000000000E+00 0. -1.
    9000006    2    1    2  501    0  0.00000000000E+00  0.00000000000E+00  0.89850639774E+03  0.11014936023E+04  0.63716121120E+03 0.  0.
         13    1    3    3    0    0  0.19824835238E+03 -0.13159970317E+03  0.83048590813E+02  0.25202769596E+03  0.00000000000E+00 0. -1.
          2    1    3    3  501    0 -0.19824835238E+03  0.13159970317E+03  0.81545780692E+03  0.84946590630E+03  0.00000000000E+00 0. -1.
<mgrwt>
<rscale>  0 0.63716121E+03</rscale>
<asrwt>0</asrwt>
<pdfrwt beam="1">0</pdfrwt>
<pdfrwt beam="2">  1        2 0.36906842E+00 0.63716121E+03</pdfrwt>
<totfact> 0.51902496E+00</totfact>
</mgrwt>
</event>
<event>
 5    1  0.2357694E-004  0.6506009E+03  0.7818608E-02  0.9805652E-01
         13   -1    0    0    0    0  0.00000000000E+00  0.00000000000E+00  0.10000000000E+04  0.10000000000E+04  0.00000000000E+00 0. -1.
          2   -1    0    0  501    0 -0.00000000000E+00 -0.00000000000E+00 -0.10582039766E+03  0.10582039766E+03  0.00000000000E+00 0. -1.
    9000006    2    1    2  501    0  0.00000000000E+00  0.00000000000E+00  0.89417960234E+03  0.11058203977E+04  0.65060094577E+03 0.  0.
         13    1    3    3    0    0 -0.43925086953E+02  0.12476883111E+03  0.95222611447E+03  0.96136946464E+03  0.00000000000E+00 0. -1.
          2    1    3    3  501    0  0.43925086953E+02 -0.12476883111E+03 -0.58046512126E+02  0.14445093302E+03  0.00000000000E+00 0. -1.
<mgrwt>
<rscale>  0 0.65060095E+03</rscale>
<asrwt>0</asrwt>
<pdfrwt beam="1">0</pdfrwt>
<pdfrwt beam="2">  1        2 0.38480226E+00 0.65060095E+03</pdfrwt>
<totfact> 0.45374931E+00</totfact>
</mgrwt>
</event>
<event>
 5    1  0.2357694E-004  0.6430560E+03  0.7818608E-02  0.9819897E-01
         13   -1    0    0    0    0  0.00000000000E+00  0.00000000000E+00  0.10000000000E+04  0.10000000000E+04  0.00000000000E+00 0. -1.
          2   -1    0    0  501    0 -0.00000000000E+00 -0.00000000000E+00 -0.10338024943E+03  0.10338024943E+03  0.00000000000E+00 0. -1.
    9000006    2    1    2  501    0  0.00000000000E+00  0.00000000000E+00  0.89661975057E+03  0.11033802494E+04  0.64305598336E+03 0.  0.
         13    1    3    3    0    0  0.11017231017E+03 -0.30157532334E+03  0.41885757473E+03  0.52775683935E+03  0.00000000000E+00 0. -1.
          4    1    3    3  501    0 -0.11017231017E+03  0.30157532334E+03  0.47776217584E+03  0.57562341008E+03  0.00000000000E+00 0. -1.
<mgrwt>
<rscale>  0 0.64305598E+03</rscale>
<asrwt>0</asrwt>
<pdfrwt beam="1">0</pdfrwt>
<pdfrwt beam="2">  1        2 0.37592897E+00 0.64305598E+03</pdfrwt>
<totfact> 0.48957478E+00</totfact>
</mgrwt>
</event>
<event>
 5    1  0.2357694E-004  0.6519908E+03  0.7818608E-02  0.9803051E-01
         13   -1    0    0    0    0  0.00000000000E+00  0.00000000000E+00  0.10000000000E+04  0.10000000000E+04  0.00000000000E+00 0. -1.
          2   -1    0    0  501    0 -0.00000000000E+00 -0.00000000000E+00 -0.10627299649E+03  0.10627299649E+03  0.00000000000E+00 0. -1.
    9000006    2    1    2  501    0  0.00000000000E+00  0.00000000000E+00  0.89372700351E+03  0.11062729965E+04  0.65199078672E+03 0.  0.
         13    1    3    3    0    0  0.19354602723E+03 -0.10813214632E+03  0.85238731476E+03  0.88074784138E+03  0.00000000000E+00 0. -1.
          4    1    3    3  501    0 -0.19354602723E+03  0.10813214632E+03  0.41339688749E+02  0.22552515511E+03  0.00000000000E+00 0. -1.
<mgrwt>
<rscale>  0 0.65199079E+03</rscale>
<asrwt>0</asrwt>
<pdfrwt beam="1">0</pdfrwt>
<pdfrwt beam="2">  1        2 0.38644807E+00 0.65199079E+03</pdfrwt>
<totfact> 0.44737246E+00</totfact>
</mgrwt>
</event>
<event>
 5    1  0.2357694E-004  0.5258769E+03  0.7818608E-02  0.1007237E+00
         13   -1    0    0    0    0  0.00000000000E+00  0.00000000000E+00  0.10000000000E+04  0.10000000000E+04  0.00000000000E+00 0. -1.
          2   -1    0    0  501    0 -0.00000000000E+00 -0.00000000000E+00 -0.69136624891E+02  0.69136624891E+02  0.00000000000E+00 0. -1.
    9000006    2    1    2  501    0  0.00000000000E+00  0.00000000000E+00  0.93086337511E+03  0.10691366249E+04  0.52587688632E+03 0.  0.
         13    1    3    3    0    0  0.81946743621E+02  0.63875509513E+02 -0.25631166739E+02  0.10701544848E+03  0.00000000000E+00 0. -1.
          2    1    3    3  501    0 -0.81946743621E+02 -0.63875509513E+02  0.95649454185E+03  0.96212117641E+03  0.00000000000E+00 0. -1.
<mgrwt>
<rscale>  0 0.52587689E+03</rscale>
<asrwt>0</asrwt>
<pdfrwt beam="1">0</pdfrwt>
<pdfrwt beam="2">  1        2 0.25140644E+00 0.52587689E+03</pdfrwt>
<totfact> 0.13778185E+01</totfact>
</mgrwt>
</event>
<event>
 5    1  0.2357694E-004  0.6524820E+03  0.7818608E-02  0.9802133E-01
         13   -1    0    0    0    0  0.00000000000E+00  0.00000000000E+00  0.10000000000E+04  0.10000000000E+04  0.00000000000E+00 0. -1.
          2   -1    0    0  501    0 -0.00000000000E+00 -0.00000000000E+00 -0.10643317483E+03  0.10643317483E+03  0.00000000000E+00 0. -1.
    9000006    2    1    2  501    0  0.00000000000E+00  0.00000000000E+00  0.89356682517E+03  0.11064331748E+04  0.65248195326E+03 0.  0.
         13    1    3    3    0    0  0.31453442368E+03 -0.80431382840E+02  0.50126000816E+03  0.59721244696E+03  0.00000000000E+00 0. -1.
          2    1    3    3  501    0 -0.31453442368E+03  0.80431382840E+02  0.39230681700E+03  0.50922072787E+03  0.00000000000E+00 0. -1.
<mgrwt>
<rscale>  0 0.65248195E+03</rscale>
<asrwt>0</asrwt>
<pdfrwt beam="1">0</pdfrwt>
<pdfrwt beam="2">  1        2 0.38703054E+00 0.65248195E+03</pdfrwt>
<totfact> 0.44513517E+00</totfact>
</mgrwt>
</event>
<event>
 5    1  0.2357694E-004  0.6464362E+03  0.7818608E-02  0.9813489E-01
         13   -1    0    0    0    0  0.00000000000E+00  0.00000000000E+00  0.10000000000E+04  0.10000000000E+04  0.00000000000E+00 0. -1.
          2   -1    0    0  501    0 -0.00000000000E+00 -0.00000000000E+00 -0.10446994980E+03  0.10446994980E+03  0.00000000000E+00 0. -1.
    9000006    2    1    2  501    0  0.00000000000E+00  0.00000000000E+00  0.89553005020E+03  0.11044699498E+04  0.64643622981E+03 0.  0.
         13    1    3    3    0    0 -0.17739325135E+03 -0.26090515426E+03  0.32779979150E+03  0.45496435954E+03  0.00000000000E+00 0. -1.
          4    1    3    3  501    0  0.17739325135E+03  0.26090515426E+03  0.56773025870E+03  0.64950559027E+03  0.00000000000E+00 0. -1.
<mgrwt>
<rscale>  0 0.64643623E+03</rscale>
<asrwt>0</asrwt>
<pdfrwt beam="1">0</pdfrwt>
<pdfrwt beam="2">  1        2 0.37989153E+00 0.64643623E+03</pdfrwt>
<totfact> 0.47326972E+00</totfact>
</mgrwt>
</event>
<event>
 5    1  0.2357694E-004  0.6589998E+03  0.7818608E-02  0.9790037E-01
         13   -1    0    0    0    0  0.00000000000E+00  0.00000000000E+00  0.10000000000E+04  0.10000000000E+04  0.00000000000E+00 0. -1.
          2   -1    0    0  501    0 -0.00000000000E+00 -0.00000000000E+00 -0.10857019581E+03  0.10857019581E+03  0.00000000000E+00 0. -1.
    9000006    2    1    2  501    0  0.00000000000E+00  0.00000000000E+00  0.89142980419E+03  0.11085701958E+04  0.65899983554E+03 0.  0.
         13    1    3    3    0    0 -0.83586281399E+02  0.31508903809E+03  0.36499681356E+03  0.48937760704E+03  0.00000000000E+00 0. -1.
          2    1    3    3  501    0  0.83586281399E+02 -0.31508903809E+03  0.52643299063E+03  0.61919258877E+03  0.00000000000E+00 0. -1.
<mgrwt>
<rscale>  0 0.65899984E+03</rscale>
<asrwt>0</asrwt>
<pdfrwt beam="1">0</pdfrwt>
<pdfrwt beam="2">  1        2 0.39480154E+00 0.65899984E+03</pdfrwt>
<totfact> 0.41623888E+00</totfact>
</mgrwt>
</event>
<event>
 5    1  0.2357694E-004  0.6635346E+03  0.7818608E-02  0.9781709E-01
         13   -1    0    0    0    0  0.00000000000E+00  0.00000000000E+00  0.10000000000E+04  0.10000000000E+04  0.00000000000E+00 0. -1.
          2   -1    0    0  501    0 -0.00000000000E+00 -0.00000000000E+00 -0.11006952956E+03  0.11006952956E+03  0.00000000000E+00 0. -1.
    9000006    2    1    2  501    0  0.00000000000E+00  0.00000000000E+00  0.88993047044E+03  0.11100695296E+04  0.66353456446E+03 0.  0.
         13    1    3    3    0    0 -0.10348137802E+03  0.31655969631E+02  0.96964432616E+03  0.97566419185E+03  0.00000000000E+00 0. -1.
          4    1    3    3  501    0  0.10348137802E+03 -0.31655969631E+02 -0.79713855720E+02  0.13440533771E+03  0.00000000000E+00 0. -1.
<mgrwt>
<rscale>  0 0.66353456E+03</rscale>
<asrwt>0</asrwt>
<pdfrwt beam="1">0</pdfrwt>
<pdfrwt beam="2">  1        2 0.40025368E+00 0.66353456E+03</pdfrwt>
<totfact> 0.39698804E+00</totfact>
</mgrwt>
</event>
<event>
 5    1  0.2357694E-004  0.6541442E+03  0.7818608E-02  0.9799034E-01
         13   -1    0    0    0    0  0.00000000000E+00  0.00000000000E+00  0.10000000000E+04  0.10000000000E+04  0.00000000000E+00 0. -1.
          2   -1    0    0  501    0 -0.00000000000E+00 -0.00000000000E+00 -0.10697617479E+03  0.10697617479E+03  0.00000000000E+00 0. -1.
    9000006    2    1    2  501    0  0.00000000000E+00  0.00000000000E+00  0.89302382521E+03  0.11069761748E+04  0.65414424950E+03 0.  0.
         13    1    3    3    0    0 -0.16353255893E+03  0.27745203327E+03  0.54303915695E+03  0.63135889523E+03  0.00000000000E+00 0. -1.
          4    1    3    3  501    0  0.16353255893E+03 -0.27745203327E+03  0.34998466826E+03  0.47561727956E+03  0.00000000000E+00 0. -1.
<mgrwt>
<rscale>  0 0.65414425E+03</rscale>
<asrwt>0</asrwt>
<pdfrwt beam="1">0</pdfrwt>
<pdfrwt beam="2">  1        2 0.38900509E+00 0.65414425E+03</pdfrwt>
<totfact> 0.43762597E+00</totfact>
</mgrwt>
</event>
<event>
 5    1  0.2357694E-004  0.6579686E+03  0.7818608E-02  0.9791941E-01
         13   -1    0    0    0    0  0.00000000000E+00  0.00000000000E+00  0.10000000000E+04  0.10000000000E+04  0.00000000000E+00 0. -1.
          2   -1    0    0  501    0 -0.00000000000E+00 -0.00000000000E+00 -0.10823065784E+03  0.10823065784E+03  0.00000000000E+00 0. -1.
    9000006    2    1    2  501    0  0.00000000000E+00  0.00000000000E+00  0.89176934216E+03  0.11082306578E+04  0.65796856411E+03 0.  0.
         13    1    3    3    0    0  0.77172577684E+02  0.12294206878E+03 -0.51376296531E+02  0.15398013790E+03  0.00000000000E+00 0. -1.
          4    1    3    3  501    0 -0.77172577684E+02 -0.12294206878E+03  0.94314563869E+03  0.95425051994E+03  0.00000000000E+00 0. -1.
<mgrwt>
<rscale>  0 0.65796856E+03</rscale>
<asrwt>0</asrwt>
<pdfrwt beam="1">0</pdfrwt>
<pdfrwt beam="2">  1        2 0.39356686E+00 0.65796856E+03</pdfrwt>
<totfact> 0.42071352E+00</totfact>
</mgrwt>
</event>
<event>
 5    1  0.2357694E-004  0.6519156E+03  0.7818608E-02  0.9803191E-01
         13   -1    0    0    0    0  0.00000000000E+00  0.00000000000E+00  0.10000000000E+04  0.10000000000E+04  0.00000000000E+00 0. -1.
          2   -1    0    0  501    0 -0.00000000000E+00 -0.00000000000E+00 -0.10624848116E+03  0.10624848116E+03  0.00000000000E+00 0. -1.
    9000006    2    1    2  501    0  0.00000000000E+00  0.00000000000E+00  0.89375151884E+03  0.11062484812E+04  0.65191558090E+03 0.  0.
         13    1    3    3    0    0 -0.72131045605E+02 -0.30517149661E+03  0.59785348447E+03  0.67510096947E+03  0.00000000000E+00 0. -1.
          4    1    3    3  501    0  0.72131045605E+02  0.30517149661E+03  0.29589803437E+03  0.43114751169E+03  0.00000000000E+00 0. -1.
<mgrwt>
<rscale>  0 0.65191558E+03</rscale>
<asrwt>0</asrwt>
<pdfrwt beam="1">0</pdfrwt>
<pdfrwt beam="2">  1        2 0.38635893E+00 0.65191558E+03</pdfrwt>
<totfact> 0.44771577E+00</totfact>
</mgrwt>
</event>
<event>
 5    1  0.2357694E-004  0.6634007E+03  0.7818608E-02  0.9781954E-01
         13   -1    0    0    0    0  0.00000000000E+00  0.00000000000E+00  0.10000000000E+04  0.10000000000E+04  0.00000000000E+00 0. -1.
          2   -1    0    0  501    0 -0.00000000000E+00 -0.00000000000E+00 -0.11002513659E+03  0.11002513659E+03  0.00000000000E+00 0. -1.
    9000006    2    1    2  501    0  0.00000000000E+00  0.00000000000E+00  0.88997486341E+03  0.11100251366E+04  0.66340074341E+03 0.  0.
         13    1    3    3    0    0  0.10202056102E+03  0.21111445686E+03  0.52409245669E+02  0.24025868933E+03  0.00000000000E+00 0. -1.
          2    1    3    3  501    0 -0.10202056102E+03 -0.21111445686E+03  0.83756561774E+03  0.86976644726E+03  0.00000000000E+00 0. -1.
<mgrwt>
<rscale>  0 0.66340074E+03</rscale>
<asrwt>0</asrwt>
<pdfrwt beam="1">0</pdfrwt>
<pdfrwt beam="2">  1        2 0.40009225E+00 0.66340074E+03</pdfrwt>
<totfact> 0.39754632E+00</totfact>
</mgrwt>
</event>
<event>
 5    1  0.2357694E-004  0.6598286E+03  0.7818608E-02  0.9788509E-01
         13   -1    0    0    0    0  0.00000000000E+00  0.00000000000E+00  0.10000000000E+04  0.10000000000E+04  0.00000000000E+00 0. -1.
          2   -1    0    0  501    0 -0.00000000000E+00 -0.00000000000E+00 -0.10884345938E+03  0.10884345938E+03  0.00000000000E+00 0. -1.
    9000006    2    1    2  501    0  0.00000000000E+00  0.00000000000E+00  0.89115654062E+03  0.11088434594E+04  0.65982864253E+03 0.  0.
         13    1    3    3    0    0  0.20703088956E+03  0.24998159964E+03  0.34628817850E+03  0.47462415863E+03  0.00000000000E+00 0. -1.
          2    1    3    3  501    0 -0.20703088956E+03 -0.24998159964E+03  0.54486836213E+03  0.63421930075E+03  0.00000000000E+00 0. -1.
<mgrwt>
<rscale>  0 0.65982864E+03</rscale>
<asrwt>0</asrwt>
<pdfrwt beam="1">0</pdfrwt>
<pdfrwt beam="2">  1        2 0.39579523E+00 0.65982864E+03</pdfrwt>
<totfact> 0.41266892E+00</totfact>
</mgrwt>
</event>
<event>
 5    1  0.2357694E-004  0.6562615E+03  0.7818608E-02  0.9795100E-01
         13   -1    0    0    0    0  0.00000000000E+00  0.00000000000E+00  0.10000000000E+04  0.10000000000E+04  0.00000000000E+00 0. -1.
          2   -1    0    0  501    0 -0.00000000000E+00 -0.00000000000E+00 -0.10766978470E+03  0.10766978470E+03  0.00000000000E+00 0. -1.
    9000006    2    1    2  501    0  0.00000000000E+00  0.00000000000E+00  0.89233021530E+03  0.11076697847E+04  0.65626148660E+03 0.  0.
         13    1    3    3    0    0 -0.26604255236E+03  0.19057725960E+03  0.40581695016E+03  0.52133072860E+03  0.00000000000E+00 0. -1.
          2    1    3    3  501    0  0.26604255236E+03 -0.19057725960E+03  0.48651326514E+03  0.58633905610E+03  0.00000000000E+00 0. -1.
<mgrwt>
<rscale>  0 0.65626149E+03</rscale>
<asrwt>0</asrwt>
<pdfrwt beam="1">0</pdfrwt>
<pdfrwt beam="2">  1        2 0.39152732E+00 0.65626149E+03</pdfrwt>
<totfact> 0.42820064E+00</totfact>
</mgrwt>
</event>
<event>
 5    1  0.2357694E-004  0.6512305E+03  0.7818608E-02  0.9804473E-01
         13   -1    0    0    0    0  0.00000000000E+00  0.00000000000E+00  0.10000000000E+04  0.10000000000E+04  0.00000000000E+00 0. -1.
          2   -1    0    0  501    0 -0.00000000000E+00 -0.00000000000E+00 -0.10602529839E+03  0.10602529839E+03  0.00000000000E+00 0. -1.
    9000006    2    1    2  501    0  0.00000000000E+00  0.00000000000E+00  0.89397470161E+03  0.11060252984E+04  0.65123052258E+03 0.  0.
         13    1    3    3    0    0  0.26855962885E+03 -0.17230275628E+03  0.55722118814E+03  0.64211211371E+03  0.00000000000E+00 0. -1.
          4    1    3    3  501    0 -0.26855962885E+03  0.17230275628E+03  0.33675351348E+03  0.46391318467E+03  0.00000000000E+00 0. -1.
<mgrwt>
<rscale>  0 0.65123052E+03</rscale>
<asrwt>0</asrwt>
<pdfrwt beam="1">0</pdfrwt>
<pdfrwt beam="2">  1        2 0.38554735E+00 0.65123052E+03</pdfrwt>
<totfact> 0.45085224E+00</totfact>
</mgrwt>
</event>
<event>
 5    1  0.2357694E-004  0.6504511E+03  0.7818608E-02  0.9805933E-01
         13   -1    0    0    0    0  0.00000000000E+00  0.00000000000E+00  0.10000000000E+04  0.10000000000E+04  0.00000000000E+00 0. -1.
          2   -1    0    0  501    0 -0.00000000000E+00 -0.00000000000E+00 -0.10577166445E+03  0.10577166445E+03  0.00000000000E+00 0. -1.
    9000006    2    1    2  501    0  0.00000000000E+00  0.00000000000E+00  0.89422833555E+03  0.11057716644E+04  0.65045111867E+03 0.  0.
         13    1    3    3    0    0  0.26064784628E+03 -0.15635828701E+03  0.64380472664E+03  0.71194784903E+03  0.00000000000E+00 0. -1.
          2    1    3    3  501    0 -0.26064784628E+03  0.15635828701E+03  0.25042360891E+03  0.39382381542E+03  0.00000000000E+00 0. -1.
<mgrwt>
<rscale>  0 0.65045112E+03</rscale>
<asrwt>0</asrwt>
<pdfrwt beam="1">0</pdfrwt>
<pdfrwt beam="2">  1        2 0.38462505E+00 0.65045112E+03</pdfrwt>
<totfact> 0.45444082E+00</totfact>
</mgrwt>
</event>
<event>
 5    1  0.2357694E-004  0.6547513E+03  0.7818608E-02  0.9797904E-01
         13   -1    0    0    0    0  0.00000000000E+00  0.00000000000E+00  0.10000000000E+04  0.10000000000E+04  0.00000000000E+00 0. -1.
          2   -1    0    0  501    0 -0.00000000000E+00 -0.00000000000E+00 -0.10717480396E+03  0.10717480396E+03  0.00000000000E+00 0. -1.
    9000006    2    1    2  501    0  0.00000000000E+00  0.00000000000E+00  0.89282519604E+03  0.11071748040E+04  0.65475126256E+03 0.  0.
         13    1    3    3    0    0 -0.15833870746E+03 -0.60026178318E+02 -0.27366726051E+02  0.17153199719E+03  0.00000000000E+00 0. -1.
          2    1    3    3  501    0  0.15833870746E+03  0.60026178318E+02  0.92019192210E+03  0.93564280677E+03  0.00000000000E+00 0. -1.
<mgrwt>
<rscale>  0 0.65475126E+03</rscale>
<asrwt>0</asrwt>
<pdfrwt beam="1">0</pdfrwt>
<pdfrwt beam="2">  1        2 0.38972738E+00 0.65475126E+03</pdfrwt>
<totfact> 0.43490786E+00</totfact>
</mgrwt>
</event>
<event>
 5    1  0.2357694E-004  0.6448472E+03  0.7818608E-02  0.9816496E-01
         13   -1    0    0    0    0  0.00000000000E+00  0.00000000000E+00  0.10000000000E+04  0.10000000000E+04  0.00000000000E+00 0. -1.
          2   -1    0    0  501    0 -0.00000000000E+00 -0.00000000000E+00 -0.10395696536E+03  0.10395696536E+03  0.00000000000E+00 0. -1.
    9000006    2    1    2  501    0  0.00000000000E+00  0.00000000000E+00  0.89604303464E+03  0.11039569654E+04  0.64484716130E+03 0.  0.
         13    1    3    3    0    0 -0.24552294195E+03  0.20230629051E+03  0.35828415430E+03  0.47914182183E+03  0.00000000000E+00 0. -1.
          2    1    3    3  501    0  0.24552294195E+03 -0.20230629051E+03  0.53775888034E+03  0.62481514353E+03  0.00000000000E+00 0. -1.
<mgrwt>
<rscale>  0 0.64484716E+03</rscale>
<asrwt>0</asrwt>
<pdfrwt beam="1">0</pdfrwt>
<pdfrwt beam="2">  1        2 0.37802613E+00 0.64484716E+03</pdfrwt>
<totfact> 0.48088276E+00</totfact>
</mgrwt>
</event>
<event>
 5    1  0.2357694E-004  0.6271086E+03  0.7818608E-02  0.9850707E-01
         13   -1    0    0    0    0  0.00000000000E+00  0.00000000000E+00  0.10000000000E+04  0.10000000000E+04  0.00000000000E+00 0. -1.
          2   -1    0    0  501    0 -0.00000000000E+00 -0.00000000000E+00 -0.98316305110E+02  0.98316305110E+02  0.00000000000E+00 0. -1.
    9000006    2    1    2  501    0  0.00000000000E+00  0.00000000000E+00  0.90168369489E+03  0.10983163051E+04  0.62710861933E+03 0.  0.
         13    1    3    3    0    0 -0.30108280063E+03 -0.46469027258E+02  0.32088295852E+03  0.44246592682E+03  0.00000000000E+00 0. -1.
          2    1    3    3  501    0  0.30108280063E+03  0.46469027258E+02  0.58080073637E+03  0.65585037829E+03  0.00000000000E+00 0. -1.
<mgrwt>
<rscale>  0 0.62710862E+03</rscale>
<asrwt>0</asrwt>
<pdfrwt beam="1">0</pdfrwt>
<pdfrwt beam="2">  1        2 0.35751459E+00 0.62710862E+03</pdfrwt>
<totfact> 0.57232292E+00</totfact>
</mgrwt>
</event>
<event>
 5    1  0.2357694E-004  0.6511694E+03  0.7818608E-02  0.9804587E-01
         13   -1    0    0    0    0  0.00000000000E+00  0.00000000000E+00  0.10000000000E+04  0.10000000000E+04  0.00000000000E+00 0. -1.
          2   -1    0    0  501    0 -0.00000000000E+00 -0.00000000000E+00 -0.10600539940E+03  0.10600539940E+03  0.00000000000E+00 0. -1.
    9000006    2    1    2  501    0  0.00000000000E+00  0.00000000000E+00  0.89399460060E+03  0.11060053994E+04  0.65116940775E+03 0.  0.
         13    1    3    3    0    0  0.25131142375E+02  0.35749407695E+02  0.99499643413E+03  0.99595557049E+03  0.00000000000E+00 0. -1.
          4    1    3    3  501    0 -0.25131142375E+02 -0.35749407695E+02 -0.10100183352E+03  0.11004982891E+03  0.00000000000E+00 0. -1.
<mgrwt>
<rscale>  0 0.65116941E+03</rscale>
<asrwt>0</asrwt>
<pdfrwt beam="1">0</pdfrwt>
<pdfrwt beam="2">  1        2 0.38547499E+00 0.65116941E+03</pdfrwt>
<totfact> 0.45113285E+00</totfact>
</mgrwt>
</event>
<event>
 5    1  0.2357694E-004  0.6667629E+03  0.7818608E-02  0.9775823E-01
         13   -1    0    0    0    0  0.00000000000E+00  0.00000000000E+00  0.10000000000E+04  0.10000000000E+04  0.00000000000E+00 0. -1.
          2   -1    0    0  501    0 -0.00000000000E+00 -0.00000000000E+00 -0.11114320525E+03  0.11114320525E+03  0.00000000000E+00 0. -1.
    9000006    2    1    2  501    0  0.00000000000E+00  0.00000000000E+00  0.88885679475E+03  0.11111432052E+04  0.66676294212E+03 0.  0.
         13    1    3    3    0    0 -0.11074299193E+03 -0.28450409450E+03  0.22124143256E+03  0.37703363448E+03  0.00000000000E+00 0. -1.
          2    1    3    3  501    0  0.11074299193E+03  0.28450409450E+03  0.66761536219E+03  0.73410957076E+03  0.00000000000E+00 0. -1.
<mgrwt>
<rscale>  0 0.66676294E+03</rscale>
<asrwt>0</asrwt>
<pdfrwt beam="1">0</pdfrwt>
<pdfrwt beam="2">  1        2 0.40415796E+00 0.66676294E+03</pdfrwt>
<totfact> 0.38369787E+00</totfact>
</mgrwt>
</event>
<event>
 5    1  0.2357694E-004  0.6589995E+03  0.7818608E-02  0.9790037E-01
         13   -1    0    0    0    0  0.00000000000E+00  0.00000000000E+00  0.10000000000E+04  0.10000000000E+04  0.00000000000E+00 0. -1.
          2   -1    0    0  501    0 -0.00000000000E+00 -0.00000000000E+00 -0.10857009887E+03  0.10857009887E+03  0.00000000000E+00 0. -1.
    9000006    2    1    2  501    0  0.00000000000E+00  0.00000000000E+00  0.89142990113E+03  0.11085700989E+04  0.65899954133E+03 0.  0.
         13    1    3    3    0    0 -0.19114899237E+03 -0.25055014269E+03  0.60756327102E+03  0.68443147179E+03  0.00000000000E+00 0. -1.
          2    1    3    3  501    0  0.19114899237E+03  0.25055014269E+03  0.28386663011E+03  0.42413862707E+03  0.00000000000E+00 0. -1.
<mgrwt>
<rscale>  0 0.65899954E+03</rscale>
<asrwt>0</asrwt>
<pdfrwt beam="1">0</pdfrwt>
<pdfrwt beam="2">  1        2 0.39480119E+00 0.65899954E+03</pdfrwt>
<totfact> 0.41624015E+00</totfact>
</mgrwt>
</event>
<event>
 5    1  0.2357694E-004  0.6571259E+03  0.7818608E-02  0.9793499E-01
         13   -1    0    0    0    0  0.00000000000E+00  0.00000000000E+00  0.10000000000E+04  0.10000000000E+04  0.00000000000E+00 0. -1.
          2   -1    0    0  501    0 -0.00000000000E+00 -0.00000000000E+00 -0.10795362798E+03  0.10795362798E+03  0.00000000000E+00 0. -1.
    9000006    2    1    2  501    0  0.00000000000E+00  0.00000000000E+00  0.89204637202E+03  0.11079536280E+04  0.65712594831E+03 0.  0.
         13    1    3    3    0    0 -0.20535308896E+03 -0.24099383171E+03  0.29801719501E+03  0.43481279488E+03  0.00000000000E+00 0. -1.
          4    1    3    3  501    0  0.20535308896E+03  0.24099383171E+03  0.59402917700E+03  0.67314083311E+03  0.00000000000E+00 0. -1.
<mgrwt>
<rscale>  0 0.65712595E+03</rscale>
<asrwt>0</asrwt>
<pdfrwt beam="1">0</pdfrwt>
<pdfrwt beam="2">  1        2 0.39255948E+00 0.65712595E+03</pdfrwt>
<totfact> 0.42439671E+00</totfact>
</mgrwt>
</event>
<event>
 5    1  0.2357694E-004  0.6458166E+03  0.7818608E-02  0.9814661E-01
         13   -1    0    0    0    0  0.00000000000E+00  0.00000000000E+00  0.10000000000E+04  0.10000000000E+04  0.00000000000E+00 0. -1.
          2   -1    0    0  501    0 -0.00000000000E+00 -0.00000000000E+00 -0.10426978078E+03  0.10426978078E+03  0.00000000000E+00 0. -1.
    9000006    2    1    2  501    0  0.00000000000E+00  0.00000000000E+00  0.89573021922E+03  0.11042697808E+04  0.64581663272E+03 0.  0.
         13    1    3    3    0    0 -0.13340627954E+03  0.26919053342E+03  0.24548419170E+03  0.38797328140E+03  0.00000000000E+00 0. -1.
          4    1    3    3  501    0  0.13340627954E+03 -0.26919053342E+03  0.65024602752E+03  0.71629649937E+03  0.00000000000E+00 0. -1.
<mgrwt>
<rscale>  0 0.64581663E+03</rscale>
<asrwt>0</asrwt>
<pdfrwt beam="1">0</pdfrwt>
<pdfrwt beam="2">  1        2 0.37916364E+00 0.64581663E+03</pdfrwt>
<totfact> 0.47622721E+00</totfact>
</mgrwt>
</event>
<event>
 5    1  0.2357694E-004  0.6515727E+03  0.7818608E-02  0.9803833E-01
         13   -1    0    0    0    0  0.00000000000E+00  0.00000000000E+00  0.10000000000E+04  0.10000000000E+04  0.00000000000E+00 0. -1.
          2   -1    0    0  501    0 -0.00000000000E+00 -0.00000000000E+00 -0.10613676144E+03  0.10613676144E+03  0.00000000000E+00 0. -1.
    9000006    2    1    2  501    0  0.00000000000E+00  0.00000000000E+00  0.89386323856E+03  0.11061367614E+04  0.65157274786E+03 0.  0.
         13    1    3    3    0    0 -0.21072988492E+03 -0.23400319928E+03  0.58868394807E+03  0.66761768430E+03  0.00000000000E+00 0. -1.
          2    1    3    3  501    0  0.21072988492E+03  0.23400319928E+03  0.30517929049E+03  0.43851907714E+03  0.00000000000E+00 0. -1.
<mgrwt>
<rscale>  0 0.65157275E+03</rscale>
<asrwt>0</asrwt>
<pdfrwt beam="1">0</pdfrwt>
<pdfrwt beam="2">  1        2 0.38595267E+00 0.65157275E+03</pdfrwt>
<totfact> 0.44928333E+00</totfact>
</mgrwt>
</event>
<event>
 5    1  0.2357694E-004  0.6560683E+03  0.7818608E-02  0.9795459E-01
         13   -1    0    0    0    0  0.00000000000E+00  0.00000000000E+00  0.10000000000E+04  0.10000000000E+04  0.00000000000E+00 0. -1.
          2   -1    0    0  501    0 -0.00000000000E+00 -0.00000000000E+00 -0.10760641934E+03  0.10760641934E+03  0.00000000000E+00 0. -1.
    9000006    2    1    2  501    0  0.00000000000E+00  0.00000000000E+00  0.89239358066E+03  0.11076064193E+04  0.65606834808E+03 0.  0.
         13    1    3    3    0    0 -0.62752146403E+02  0.32072239607E+03  0.39827514544E+03  0.51519295288E+03  0.00000000000E+00 0. -1.
          4    1    3    3  501    0  0.62752146403E+02 -0.32072239607E+03  0.49411843522E+03  0.59241346646E+03  0.00000000000E+00 0. -1.
<mgrwt>
<rscale>  0 0.65606835E+03</rscale>
<asrwt>0</asrwt>
<pdfrwt beam="1">0</pdfrwt>
<pdfrwt beam="2">  1        2 0.39129690E+00 0.65606835E+03</pdfrwt>
<totfact> 0.42905402E+00</totfact>
</mgrwt>
</event>
<event>
 5    1  0.2357694E-004  0.6514361E+03  0.7818608E-02  0.9804088E-01
         13   -1    0    0    0    0  0.00000000000E+00  0.00000000000E+00  0.10000000000E+04  0.10000000000E+04  0.00000000000E+00 0. -1.
          2   -1    0    0  501    0 -0.00000000000E+00 -0.00000000000E+00 -0.10609225292E+03  0.10609225292E+03  0.00000000000E+00 0. -1.
    9000006    2    1    2  501    0  0.00000000000E+00  0.00000000000E+00  0.89390774708E+03  0.11060922529E+04  0.65143611480E+03 0.  0.
         13    1    3    3    0    0 -0.17467794362E+03 -0.25210429387E+03  0.26077463435E+03  0.40258212689E+03  0.00000000000E+00 0. -1.
          4    1    3    3  501    0  0.17467794362E+03  0.25210429387E+03  0.63313311273E+03  0.70351012602E+03  0.00000000000E+00 0. -1.
<mgrwt>
<rscale>  0 0.65143611E+03</rscale>
<asrwt>0</asrwt>
<pdfrwt beam="1">0</pdfrwt>
<pdfrwt beam="2">  1        2 0.38579082E+00 0.65143611E+03</pdfrwt>
<totfact> 0.44990922E+00</totfact>
</mgrwt>
</event>
<event>
 5    1  0.2357694E-004  0.6558704E+03  0.7818608E-02  0.9795826E-01
         13   -1    0    0    0    0  0.00000000000E+00  0.00000000000E+00  0.10000000000E+04  0.10000000000E+04  0.00000000000E+00 0. -1.
          2   -1    0    0  501    0 -0.00000000000E+00 -0.00000000000E+00 -0.10754148719E+03  0.10754148719E+03  0.00000000000E+00 0. -1.
    9000006    2    1    2  501    0  0.00000000000E+00  0.00000000000E+00  0.89245851281E+03  0.11075414872E+04  0.65587037497E+03 0.  0.
         13    1    3    3    0    0  0.45623895897E+02  0.23909282458E+03  0.81732940987E+03  0.85280377748E+03  0.00000000000E+00 0. -1.
          2    1    3    3  501    0 -0.45623895897E+02 -0.23909282458E+03  0.75129102942E+02  0.25473770971E+03  0.00000000000E+00 0. -1.
<mgrwt>
<rscale>  0 0.65587037E+03</rscale>
<asrwt>0</asrwt>
<pdfrwt beam="1">0</pdfrwt>
<pdfrwt beam="2">  1        2 0.39106078E+00 0.65587037E+03</pdfrwt>
<totfact> 0.42993010E+00</totfact>
</mgrwt>
</event>
<event>
 5    1  0.2357694E-004  0.6500296E+03  0.7818608E-02  0.9806724E-01
         13   -1    0    0    0    0  0.00000000000E+00  0.00000000000E+00  0.10000000000E+04  0.10000000000E+04  0.00000000000E+00 0. -1.
          2   -1    0    0  501    0 -0.00000000000E+00 -0.00000000000E+00 -0.10563462929E+03  0.10563462929E+03  0.00000000000E+00 0. -1.
    9000006    2    1    2  501    0  0.00000000000E+00  0.00000000000E+00  0.89436537071E+03  0.11056346293E+04  0.65002962790E+03 0.  0.
         13    1    3    3    0    0  0.21817167297E+03 -0.18866819730E+03  0.19238791825E+03  0.34670979024E+03  0.00000000000E+00 0. -1.
          2    1    3    3  501    0 -0.21817167297E+03  0.18866819730E+03  0.70197745246E+03  0.75892483905E+03  0.00000000000E+00 0. -1.
<mgrwt>
<rscale>  0 0.65002963E+03</rscale>
<asrwt>0</asrwt>
<pdfrwt beam="1">0</pdfrwt>
<pdfrwt beam="2">  1        2 0.38412673E+00 0.65002963E+03</pdfrwt>
<totfact> 0.45639044E+00</totfact>
</mgrwt>
</event>
<event>
 5    1  0.2357694E-004  0.6491989E+03  0.7818608E-02  0.9808283E-01
         13   -1    0    0    0    0  0.00000000000E+00  0.00000000000E+00  0.10000000000E+04  0.10000000000E+04  0.00000000000E+00 0. -1.
          2   -1    0    0  501    0 -0.00000000000E+00 -0.00000000000E+00 -0.10536481868E+03  0.10536481868E+03  0.00000000000E+00 0. -1.
    9000006    2    1    2  501    0  0.00000000000E+00  0.00000000000E+00  0.89463518132E+03  0.11053648187E+04  0.64919894849E+03 0.  0.
         13    1    3    3    0    0  0.91384675950E+00  0.24059112585E+03  0.76310082000E+02  0.25240474158E+03  0.00000000000E+00 0. -1.
          4    1    3    3  501    0 -0.91384675950E+00 -0.24059112585E+03  0.81832509932E+03  0.85296007710E+03  0.00000000000E+00 0. -1.
<mgrwt>
<rscale>  0 0.64919895E+03</rscale>
<asrwt>0</asrwt>
<pdfrwt beam="1">0</pdfrwt>
<pdfrwt beam="2">  1        2 0.38314560E+00 0.64919895E+03</pdfrwt>
<totfact> 0.46025128E+00</totfact>
</mgrwt>
</event>
<event>
 5    1  0.2357694E-004  0.6541544E+03  0.7818608E-02  0.9799015E-01
         13   -1    0    0    0    0  0.00000000000E+00  0.00000000000E+00  0.10000000000E+04  0.10000000000E+04  0.00000000000E+00 0. -1.
          2   -1    0    0  501    0 -0.00000000000E+00 -0.00000000000E+00 -0.10697949206E+03  0.10697949206E+03  0.00000000000E+00 0. -1.
    9000006    2    1    2  501    0  0.00000000000E+00  0.00000000000E+00  0.89302050794E+03  0.11069794921E+04  0.65415439173E+03 0.  0.
         13    1    3    3    0    0  0.17019231882E+03  0.23939551050E+03  0.69000238762E+03  0.74991928283E+03  0.00000000000E+00 0. -1.
          2    1    3    3  501    0 -0.17019231882E+03 -0.23939551050E+03  0.20301812032E+03  0.35706020923E+03  0.00000000000E+00 0. -1.
<mgrwt>
<rscale>  0 0.65415439E+03</rscale>
<asrwt>0</asrwt>
<pdfrwt beam="1">0</pdfrwt>
<pdfrwt beam="2">  1        2 0.38901716E+00 0.65415439E+03</pdfrwt>
<totfact> 0.43758045E+00</totfact>
</mgrwt>
</event>
<event>
 5    1  0.2357694E-004  0.6495774E+03  0.7818608E-02  0.9807572E-01
         13   -1    0    0    0    0  0.00000000000E+00  0.00000000000E+00  0.10000000000E+04  0.10000000000E+04  0.00000000000E+00 0. -1.
          2   -1    0    0  501    0 -0.00000000000E+00 -0.00000000000E+00 -0.10548770188E+03  0.10548770188E+03  0.00000000000E+00 0. -1.
    9000006    2    1    2  501    0  0.00000000000E+00  0.00000000000E+00  0.89451229812E+03  0.11054877019E+04  0.64957740687E+03 0.  0.
         13    1    3    3    0    0  0.17367503342E+03 -0.12859754572E+03  0.85989010920E+03  0.88662920429E+03  0.00000000000E+00 0. -1.
          4    1    3    3  501    0 -0.17367503342E+03  0.12859754572E+03  0.34622188917E+02  0.21885849758E+03  0.00000000000E+00 0. -1.
<mgrwt>
<rscale>  0 0.64957741E+03</rscale>
<asrwt>0</asrwt>
<pdfrwt beam="1">0</pdfrwt>
<pdfrwt beam="2">  1        2 0.38359245E+00 0.64957741E+03</pdfrwt>
<totfact> 0.45848923E+00</totfact>
</mgrwt>
</event>
<event>
 5    1  0.2357694E-004  0.6592028E+03  0.7818608E-02  0.9789662E-01
         13   -1    0    0    0    0  0.00000000000E+00  0.00000000000E+00  0.10000000000E+04  0.10000000000E+04  0.00000000000E+00 0. -1.
          2   -1    0    0  501    0 -0.00000000000E+00 -0.00000000000E+00 -0.10863708549E+03  0.10863708549E+03  0.00000000000E+00 0. -1.
    9000006    2    1    2  501    0  0.00000000000E+00  0.00000000000E+00  0.89136291451E+03  0.11086370855E+04  0.65920280791E+03 0.  0.
         13    1    3    3    0    0  0.18461521943E+03 -0.30486057856E+02 -0.10652441855E+02  0.18741839154E+03  0.00000000000E+00 0. -1.
          4    1    3    3  501    0 -0.18461521943E+03  0.30486057856E+02  0.90201535637E+03  0.92121869395E+03  0.00000000000E+00 0. -1.
<mgrwt>
<rscale>  0 0.65920281E+03</rscale>
<asrwt>0</asrwt>
<pdfrwt beam="1">0</pdfrwt>
<pdfrwt beam="2">  1        2 0.39504478E+00 0.65920281E+03</pdfrwt>
<totfact> 0.41536246E+00</totfact>
</mgrwt>
</event>
<event>
 5    1  0.2357694E-004  0.6426238E+03  0.7818608E-02  0.9820719E-01
         13   -1    0    0    0    0  0.00000000000E+00  0.00000000000E+00  0.10000000000E+04  0.10000000000E+04  0.00000000000E+00 0. -1.
          2   -1    0    0  501    0 -0.00000000000E+00 -0.00000000000E+00 -0.10324132409E+03  0.10324132409E+03  0.00000000000E+00 0. -1.
    9000006    2    1    2  501    0  0.00000000000E+00  0.00000000000E+00  0.89675867591E+03  0.11032413241E+04  0.64262375957E+03 0.  0.
         13    1    3    3    0    0 -0.25196204293E+03 -0.15846210623E+03  0.65614627076E+03  0.72050193534E+03  0.00000000000E+00 0. -1.
          2    1    3    3  501    0  0.25196204293E+03  0.15846210623E+03  0.24061240515E+03  0.38273938875E+03  0.00000000000E+00 0. -1.
<mgrwt>
<rscale>  0 0.64262376E+03</rscale>
<asrwt>0</asrwt>
<pdfrwt beam="1">0</pdfrwt>
<pdfrwt beam="2">  1        2 0.37542379E+00 0.64262376E+03</pdfrwt>
<totfact> 0.49168995E+00</totfact>
</mgrwt>
</event>
<event>
 5    1  0.2357694E-004  0.6468448E+03  0.7818608E-02  0.9812718E-01
         13   -1    0    0    0    0  0.00000000000E+00  0.00000000000E+00  0.10000000000E+04  0.10000000000E+04  0.00000000000E+00 0. -1.
          2   -1    0    0  501    0 -0.00000000000E+00 -0.00000000000E+00 -0.10460205811E+03  0.10460205811E+03  0.00000000000E+00 0. -1.
    9000006    2    1    2  501    0  0.00000000000E+00  0.00000000000E+00  0.89539794189E+03  0.11046020581E+04  0.64684482872E+03 0.  0.
         13    1    3    3    0    0  0.11394379932E+03  0.29695175311E+03  0.54783533835E+03  0.63347224961E+03  0.00000000000E+00 0. -1.
          2    1    3    3  501    0 -0.11394379932E+03 -0.29695175311E+03  0.34756260354E+03  0.47112980850E+03  0.00000000000E+00 0. -1.
<mgrwt>
<rscale>  0 0.64684483E+03</rscale>
<asrwt>0</asrwt>
<pdfrwt beam="1">0</pdfrwt>
<pdfrwt beam="2">  1        2 0.38037192E+00 0.64684483E+03</pdfrwt>
<totfact> 0.47132700E+00</totfact>
</mgrwt>
</event>
<event>
 5    1  0.2357694E-004  0.6560067E+03  0.7818608E-02  0.9795573E-01
         13   -1    0    0    0    0  0.00000000000E+00  0.00000000000E+00  0.10000000000E+04  0.10000000000E+04  0.00000000000E+00 0. -1.
          2   -1    0    0  501    0 -0.00000000000E+00 -0.00000000000E+00 -0.10758619798E+03  0.10758619798E+03  0.00000000000E+00 0. -1.
    9000006    2    1    2  501    0  0.00000000000E+00  0.00000000000E+00  0.89241380202E+03  0.11075861980E+04  0.65600670111E+03 0.  0.
         13    1    3    3    0    0  0.25569397375E+03 -0.25478469595E+02  0.10201972585E+03  0.27647167140E+03  0.00000000000E+00 0. -1.
          4    1    3    3  501    0 -0.25569397375E+03  0.25478469595E+02  0.79039407617E+03  0.83111452657E+03  0.00000000000E+00 0. -1.
<mgrwt>
<rscale>  0 0.65600670E+03</rscale>
<asrwt>0</asrwt>
<pdfrwt beam="1">0</pdfrwt>
<pdfrwt beam="2">  1        2 0.39122336E+00 0.65600670E+03</pdfrwt>
<totfact> 0.42932668E+00</totfact>
</mgrwt>
</event>
<event>
 5    1  0.2357694E-004  0.6566122E+03  0.7818608E-02  0.9794450E-01
         13   -1    0    0    0    0  0.00000000000E+00  0.00000000000E+00  0.10000000000E+04  0.10000000000E+04  0.00000000000E+00 0. -1.
          2   -1    0    0  501    0 -0.00000000000E+00 -0.00000000000E+00 -0.10778489040E+03  0.10778489040E+03  0.00000000000E+00 0. -1.
    9000006    2    1    2  501    0  0.00000000000E+00  0.00000000000E+00  0.89221510960E+03  0.11077848904E+04  0.65661218509E+03 0.  0.
         13    1    3    3    0    0 -0.21520467754E+02  0.22863473083E+03  0.50270036464E+02  0.23508306455E+03  0.00000000000E+00 0. -1.
          2    1    3    3  501    0  0.21520467754E+02 -0.22863473083E+03  0.84194507313E+03  0.87270182585E+03  0.00000000000E+00 0. -1.
<mgrwt>
<rscale>  0 0.65661219E+03</rscale>
<asrwt>0</asrwt>
<pdfrwt beam="1">0</pdfrwt>
<pdfrwt beam="2">  1        2 0.39194588E+00 0.65661219E+03</pdfrwt>
<totfact> 0.42665435E+00</totfact>
</mgrwt>
</event>
<event>
 5    1  0.2357694E-004  0.6307123E+03  0.7818608E-02  0.9843660E-01
         13   -1    0    0    0    0  0.00000000000E+00  0.00000000000E+00  0.10000000000E+04  0.10000000000E+04  0.00000000000E+00 0. -1.
          2   -1    0    0  501    0 -0.00000000000E+00 -0.00000000000E+00 -0.99449491992E+02  0.99449491992E+02  0.00000000000E+00 0. -1.
    9000006    2    1    2  501    0  0.00000000000E+00  0.00000000000E+00  0.90055050801E+03  0.10994494920E+04  0.63071227035E+03 0.  0.
         13    1    3    3    0    0  0.16022740165E+03  0.22466597992E+03  0.71637188924E+03  0.76768242553E+03  0.00000000000E+00 0. -1.
          4    1    3    3  501    0 -0.16022740165E+03 -0.22466597992E+03  0.18417861876E+03  0.33176706646E+03  0.00000000000E+00 0. -1.
<mgrwt>
<rscale>  0 0.63071227E+03</rscale>
<asrwt>0</asrwt>
<pdfrwt beam="1">0</pdfrwt>
<pdfrwt beam="2">  1        2 0.36163528E+00 0.63071227E+03</pdfrwt>
<totfact> 0.55276110E+00</totfact>
</mgrwt>
</event>
<event>
 5    1  0.2357694E-004  0.6492569E+03  0.7818608E-02  0.9808175E-01
         13   -1    0    0    0    0  0.00000000000E+00  0.00000000000E+00  0.10000000000E+04  0.10000000000E+04  0.00000000000E+00 0. -1.
          2   -1    0    0  501    0 -0.00000000000E+00 -0.00000000000E+00 -0.10538363133E+03  0.10538363133E+03  0.00000000000E+00 0. -1.
    9000006    2    1    2  501    0  0.00000000000E+00  0.00000000000E+00  0.89461636867E+03  0.11053836313E+04  0.64925690239E+03 0.  0.
         13    1    3    3    0    0 -0.70700434823E+02 -0.31699019715E+02  0.98402660461E+03  0.98707230632E+03  0.00000000000E+00 0. -1.
          4    1    3    3  501    0  0.70700434823E+02  0.31699019715E+02 -0.89410235931E+02  0.11831132500E+03  0.00000000000E+00 0. -1.
<mgrwt>
<rscale>  0 0.64925690E+03</rscale>
<asrwt>0</asrwt>
<pdfrwt beam="1">0</pdfrwt>
<pdfrwt beam="2">  1        2 0.38321401E+00 0.64925690E+03</pdfrwt>
<totfact> 0.45998113E+00</totfact>
</mgrwt>
</event>
<event>
 5    1  0.2357694E-004  0.6487877E+03  0.7818608E-02  0.9809057E-01
         13   -1    0    0    0    0  0.00000000000E+00  0.00000000000E+00  0.10000000000E+04  0.10000000000E+04  0.00000000000E+00 0. -1.
          2   -1    0    0  501    0 -0.00000000000E+00 -0.00000000000E+00 -0.10523136431E+03  0.10523136431E+03  0.00000000000E+00 0. -1.
    9000006    2    1    2  501    0  0.00000000000E+00  0.00000000000E+00  0.89476863569E+03  0.11052313643E+04  0.64878768272E+03 0.  0.
         13    1    3    3    0    0  0.99223910682E+02  0.30850204268E+03  0.42255304808E+03  0.53251288551E+03  0.00000000000E+00 0. -1.
          4    1    3    3  501    0 -0.99223910682E+02 -0.30850204268E+03  0.47221558761E+03  0.57271847880E+03  0.00000000000E+00 0. -1.
<mgrwt>
<rscale>  0 0.64878768E+03</rscale>
<asrwt>0</asrwt>
<pdfrwt beam="1">0</pdfrwt>
<pdfrwt beam="2">  1        2 0.38266031E+00 0.64878768E+03</pdfrwt>
<totfact> 0.46217188E+00</totfact>
</mgrwt>
</event>
<event>
 5    1  0.2357694E-004  0.7036476E+03  0.7818608E-02  0.9711015E-01
         13   -1    0    0    0    0  0.00000000000E+00  0.00000000000E+00  0.10000000000E+04  0.10000000000E+04  0.00000000000E+00 0. -1.
          2   -1    0    0  501    0 -0.00000000000E+00 -0.00000000000E+00 -0.12377999302E+03  0.12377999302E+03  0.00000000000E+00 0. -1.
    9000006    2    1    2  501    0  0.00000000000E+00  0.00000000000E+00  0.87622000698E+03  0.11237799930E+04  0.70364761925E+03 0.  0.
         13    1    3    3    0    0 -0.21040583224E+03 -0.41861399115E+02 -0.72342238663E+01  0.21465163631E+03  0.00000000000E+00 0. -1.
          4    1    3    3  501    0  0.21040583224E+03  0.41861399115E+02  0.88345423085E+03  0.90912835671E+03  0.00000000000E+00 0. -1.
<mgrwt>
<rscale>  0 0.70364762E+03</rscale>
<asrwt>0</asrwt>
<pdfrwt beam="1">0</pdfrwt>
<pdfrwt beam="2">  1        2 0.45011001E+00 0.70364762E+03</pdfrwt>
<totfact> 0.25444428E+00</totfact>
</mgrwt>
</event>
<event>
 5    1  0.2357694E-004  0.4936801E+03  0.7818608E-02  0.1015442E+00
         13   -1    0    0    0    0  0.00000000000E+00  0.00000000000E+00  0.10000000000E+04  0.10000000000E+04  0.00000000000E+00 0. -1.
          2   -1    0    0  501    0 -0.00000000000E+00 -0.00000000000E+00 -0.60930015226E+02  0.60930015226E+02  0.00000000000E+00 0. -1.
    9000006    2    1    2  501    0  0.00000000000E+00  0.00000000000E+00  0.93906998477E+03  0.10609300152E+04  0.49368012002E+03 0.  0.
         13    1    3    3    0    0  0.80242820419E+02  0.18589301905E+03  0.77295766141E+03  0.79903608873E+03  0.00000000000E+00 0. -1.
          4    1    3    3  501    0 -0.80242820419E+02 -0.18589301905E+03  0.16611232337E+03  0.26189392650E+03  0.00000000000E+00 0. -1.
<mgrwt>
<rscale>  0 0.49368012E+03</rscale>
<asrwt>0</asrwt>
<pdfrwt beam="1">0</pdfrwt>
<pdfrwt beam="2">  1        2 0.22156416E+00 0.49368012E+03</pdfrwt>
<totfact> 0.17674141E+01</totfact>
</mgrwt>
</event>
<event>
 5    1  0.2357694E-004  0.6539201E+03  0.7818608E-02  0.9799451E-01
         13   -1    0    0    0    0  0.00000000000E+00  0.00000000000E+00  0.10000000000E+04  0.10000000000E+04  0.00000000000E+00 0. -1.
          2   -1    0    0  501    0 -0.00000000000E+00 -0.00000000000E+00 -0.10690287363E+03  0.10690287363E+03  0.00000000000E+00 0. -1.
    9000006    2    1    2  501    0  0.00000000000E+00  0.00000000000E+00  0.89309712637E+03  0.11069028736E+04  0.65392009796E+03 0.  0.
         13    1    3    3    0    0 -0.30779447452E+03 -0.80297339097E+02  0.31855201369E+03  0.45017828317E+03  0.00000000000E+00 0. -1.
          2    1    3    3  501    0  0.30779447452E+03  0.80297339097E+02  0.57454511268E+03  0.65672459046E+03  0.00000000000E+00 0. -1.
<mgrwt>
<rscale>  0 0.65392010E+03</rscale>
<asrwt>0</asrwt>
<pdfrwt beam="1">0</pdfrwt>
<pdfrwt beam="2">  1        2 0.38873854E+00 0.65392010E+03</pdfrwt>
<totfact> 0.43863292E+00</totfact>
</mgrwt>
</event>
<event>
 5    1  0.2357694E-004  0.6712345E+03  0.7818608E-02  0.9767730E-01
         13   -1    0    0    0    0  0.00000000000E+00  0.00000000000E+00  0.10000000000E+04  0.10000000000E+04  0.00000000000E+00 0. -1.
          2   -1    0    0  501    0 -0.00000000000E+00 -0.00000000000E+00 -0.11263893393E+03  0.11263893393E+03  0.00000000000E+00 0. -1.
    9000006    2    1    2  501    0  0.00000000000E+00  0.00000000000E+00  0.88736106607E+03  0.11126389339E+04  0.67123448639E+03 0.  0.
         13    1    3    3    0    0  0.27594987658E+03 -0.18409812508E+03  0.35918384794E+03  0.48893096718E+03  0.00000000000E+00 0. -1.
          4    1    3    3  501    0 -0.27594987658E+03  0.18409812508E+03  0.52817721813E+03  0.62370796675E+03  0.00000000000E+00 0. -1.
<mgrwt>
<rscale>  0 0.67123449E+03</rscale>
<asrwt>0</asrwt>
<pdfrwt beam="1">0</pdfrwt>
<pdfrwt beam="2">  1        2 0.40959699E+00 0.67123449E+03</pdfrwt>
<totfact> 0.36584739E+00</totfact>
</mgrwt>
</event>
<event>
 5    1  0.2357694E-004  0.5465213E+03  0.7818608E-02  0.1002302E+00
         13   -1    0    0    0    0  0.00000000000E+00  0.00000000000E+00  0.10000000000E+04  0.10000000000E+04  0.00000000000E+00 0. -1.
          2   -1    0    0  501    0 -0.00000000000E+00 -0.00000000000E+00 -0.74671391822E+02  0.74671391822E+02  0.00000000000E+00 0. -1.
    9000006    2    1    2  501    0  0.00000000000E+00  0.00000000000E+00  0.92532860818E+03  0.10746713918E+04  0.54652133288E+03 0.  0.
         13    1    3    3    0    0 -0.17631135399E+03  0.32846826527E+02  0.57251281859E+02  0.18826129935E+03  0.00000000000E+00 0. -1.
          2    1    3    3  501    0  0.17631135399E+03 -0.32846826527E+02  0.86807732632E+03  0.88641009247E+03  0.00000000000E+00 0. -1.
<mgrwt>
<rscale>  0 0.54652133E+03</rscale>
<asrwt>0</asrwt>
<pdfrwt beam="1">0</pdfrwt>
<pdfrwt beam="2">  1        2 0.27153291E+00 0.54652133E+03</pdfrwt>
<totfact> 0.11670094E+01</totfact>
</mgrwt>
</event>
<event>
 5    1  0.2357694E-004  0.6542247E+03  0.7818608E-02  0.9798884E-01
         13   -1    0    0    0    0  0.00000000000E+00  0.00000000000E+00  0.10000000000E+04  0.10000000000E+04  0.00000000000E+00 0. -1.
          2   -1    0    0  501    0 -0.00000000000E+00 -0.00000000000E+00 -0.10700250214E+03  0.10700250214E+03  0.00000000000E+00 0. -1.
    9000006    2    1    2  501    0  0.00000000000E+00  0.00000000000E+00  0.89299749786E+03  0.11070025021E+04  0.65422473858E+03 0.  0.
         13    1    3    3    0    0  0.32255010841E+03  0.41263659130E+02  0.50659128493E+03  0.60197673707E+03  0.00000000000E+00 0. -1.
          4    1    3    3  501    0 -0.32255010841E+03 -0.41263659130E+02  0.38640621293E+03  0.50502576507E+03  0.00000000000E+00 0. -1.
<mgrwt>
<rscale>  0 0.65422474E+03</rscale>
<asrwt>0</asrwt>
<pdfrwt beam="1">0</pdfrwt>
<pdfrwt beam="2">  1        2 0.38910083E+00 0.65422474E+03</pdfrwt>
<totfact> 0.43726482E+00</totfact>
</mgrwt>
</event>
<event>
 5    1  0.2357694E-004  0.5945930E+03  0.7818608E-02  0.9916688E-01
         13   -1    0    0    0    0  0.00000000000E+00  0.00000000000E+00  0.10000000000E+04  0.10000000000E+04  0.00000000000E+00 0. -1.
          2   -1    0    0  501    0 -0.00000000000E+00 -0.00000000000E+00 -0.88385207785E+02  0.88385207785E+02  0.00000000000E+00 0. -1.
    9000006    2    1    2  501    0  0.00000000000E+00  0.00000000000E+00  0.91161479221E+03  0.10883852078E+04  0.59459299621E+03 0.  0.
         13    1    3    3    0    0 -0.19637034771E+03 -0.19000655848E+03  0.24138897861E+03  0.36459901909E+03  0.00000000000E+00 0. -1.
          2    1    3    3  501    0  0.19637034771E+03  0.19000655848E+03  0.67022581361E+03  0.72378618870E+03  0.00000000000E+00 0. -1.
<mgrwt>
<rscale>  0 0.59459300E+03</rscale>
<asrwt>0</asrwt>
<pdfrwt beam="1">0</pdfrwt>
<pdfrwt beam="2">  1        2 0.32140143E+00 0.59459300E+03</pdfrwt>
<totfact> 0.77369396E+00</totfact>
</mgrwt>
</event>
<event>
 5    1  0.2357694E-004  0.6484994E+03  0.7818608E-02  0.9809599E-01
         13   -1    0    0    0    0  0.00000000000E+00  0.00000000000E+00  0.10000000000E+04  0.10000000000E+04  0.00000000000E+00 0. -1.
          2   -1    0    0  501    0 -0.00000000000E+00 -0.00000000000E+00 -0.10513787484E+03  0.10513787484E+03  0.00000000000E+00 0. -1.
    9000006    2    1    2  501    0  0.00000000000E+00  0.00000000000E+00  0.89486212516E+03  0.11051378748E+04  0.64849942125E+03 0.  0.
         13    1    3    3    0    0 -0.15768333194E+03 -0.27486503165E+03  0.56454765282E+03  0.64740163044E+03  0.00000000000E+00 0. -1.
          2    1    3    3  501    0  0.15768333194E+03  0.27486503165E+03  0.33031447234E+03  0.45773624440E+03  0.00000000000E+00 0. -1.
<mgrwt>
<rscale>  0 0.64849942E+03</rscale>
<asrwt>0</asrwt>
<pdfrwt beam="1">0</pdfrwt>
<pdfrwt beam="2">  1        2 0.38232035E+00 0.64849942E+03</pdfrwt>
<totfact> 0.46352166E+00</totfact>
</mgrwt>
</event>
<event>
 5    1  0.2357694E-004  0.6489138E+03  0.7818608E-02  0.9808820E-01
         13   -1    0    0    0    0  0.00000000000E+00  0.00000000000E+00  0.10000000000E+04  0.10000000000E+04  0.00000000000E+00 0. -1.
          2   -1    0    0  501    0 -0.00000000000E+00 -0.00000000000E+00 -0.10527226690E+03  0.10527226690E+03  0.00000000000E+00 0. -1.
    9000006    2    1    2  501    0  0.00000000000E+00  0.00000000000E+00  0.89472773310E+03  0.11052722669E+04  0.64891375975E+03 0.  0.
         13    1    3    3    0    0  0.75942557734E+02 -0.18286339644E+03  0.88515928044E+03  0.90703541584E+03  0.00000000000E+00 0. -1.
          4    1    3    3  501    0 -0.75942557734E+02  0.18286339644E+03  0.95684526613E+01  0.19823685106E+03  0.00000000000E+00 0. -1.
<mgrwt>
<rscale>  0 0.64891376E+03</rscale>
<asrwt>0</asrwt>
<pdfrwt beam="1">0</pdfrwt>
<pdfrwt beam="2">  1        2 0.38280905E+00 0.64891376E+03</pdfrwt>
<totfact> 0.46158246E+00</totfact>
</mgrwt>
</event>
<event>
 5    1  0.2357694E-004  0.6488886E+03  0.7818608E-02  0.9808867E-01
         13   -1    0    0    0    0  0.00000000000E+00  0.00000000000E+00  0.10000000000E+04  0.10000000000E+04  0.00000000000E+00 0. -1.
          2   -1    0    0  501    0 -0.00000000000E+00 -0.00000000000E+00 -0.10526411760E+03  0.10526411760E+03  0.00000000000E+00 0. -1.
    9000006    2    1    2  501    0  0.00000000000E+00  0.00000000000E+00  0.89473588240E+03  0.11052641176E+04  0.64888864254E+03 0.  0.
         13    1    3    3    0    0 -0.20292334804E+03  0.12419728001E+03  0.71627787152E+02  0.24846204828E+03  0.00000000000E+00 0. -1.
          4    1    3    3  501    0  0.20292334804E+03 -0.12419728001E+03  0.82310809524E+03  0.85680206933E+03  0.00000000000E+00 0. -1.
<mgrwt>
<rscale>  0 0.64888864E+03</rscale>
<asrwt>0</asrwt>
<pdfrwt beam="1">0</pdfrwt>
<pdfrwt beam="2">  1        2 0.38277942E+00 0.64888864E+03</pdfrwt>
<totfact> 0.46169984E+00</totfact>
</mgrwt>
</event>
<event>
 5    1  0.2357694E-004  0.6510788E+03  0.7818608E-02  0.9804757E-01
         13   -1    0    0    0    0  0.00000000000E+00  0.00000000000E+00  0.10000000000E+04  0.10000000000E+04  0.00000000000E+00 0. -1.
          2   -1    0    0  501    0 -0.00000000000E+00 -0.00000000000E+00 -0.10597589695E+03  0.10597589695E+03  0.00000000000E+00 0. -1.
    9000006    2    1    2  501    0  0.00000000000E+00  0.00000000000E+00  0.89402410305E+03  0.11059758970E+04  0.65107878772E+03 0.  0.
         13    1    3    3    0    0  0.61294761370E+02 -0.30838528310E+03  0.30370360891E+03  0.43714346920E+03  0.00000000000E+00 0. -1.
          2    1    3    3  501    0 -0.61294761370E+02  0.30838528310E+03  0.59032049414E+03  0.66883242775E+03  0.00000000000E+00 0. -1.
<mgrwt>
<rscale>  0 0.65107879E+03</rscale>
<asrwt>0</asrwt>
<pdfrwt beam="1">0</pdfrwt>
<pdfrwt beam="2">  1        2 0.38536771E+00 0.65107879E+03</pdfrwt>
<totfact> 0.45154918E+00</totfact>
</mgrwt>
</event>
<event>
 5    1  0.2357694E-004  0.6470924E+03  0.7818608E-02  0.9812250E-01
         13   -1    0    0    0    0  0.00000000000E+00  0.00000000000E+00  0.10000000000E+04  0.10000000000E+04  0.00000000000E+00 0. -1.
          2   -1    0    0  501    0 -0.00000000000E+00 -0.00000000000E+00 -0.10468213542E+03  0.10468213542E+03  0.00000000000E+00 0. -1.
    9000006    2    1    2  501    0  0.00000000000E+00  0.00000000000E+00  0.89531786458E+03  0.11046821354E+04  0.64709237491E+03 0.  0.
         13    1    3    3    0    0 -0.49739980227E+02 -0.24869562572E+03  0.79061528789E+03  0.83029880967E+03  0.00000000000E+00 0. -1.
          2    1    3    3  501    0  0.49739980227E+02  0.24869562572E+03  0.10470257669E+03  0.27438332575E+03  0.00000000000E+00 0. -1.
<mgrwt>
<rscale>  0 0.64709237E+03</rscale>
<asrwt>0</asrwt>
<pdfrwt beam="1">0</pdfrwt>
<pdfrwt beam="2">  1        2 0.38066311E+00 0.64709237E+03</pdfrwt>
<totfact> 0.47015295E+00</totfact>
</mgrwt>
</event>
<event>
 5    1  0.2357694E-004  0.6503126E+03  0.7818608E-02  0.9806193E-01
         13   -1    0    0    0    0  0.00000000000E+00  0.00000000000E+00  0.10000000000E+04  0.10000000000E+04  0.00000000000E+00 0. -1.
          2   -1    0    0  501    0 -0.00000000000E+00 -0.00000000000E+00 -0.10572661744E+03  0.10572661744E+03  0.00000000000E+00 0. -1.
    9000006    2    1    2  501    0  0.00000000000E+00  0.00000000000E+00  0.89427338256E+03  0.11057266174E+04  0.65031259387E+03 0.  0.
         13    1    3    3    0    0  0.18400992812E+03 -0.25528254778E+03  0.30798413542E+03  0.44032154219E+03  0.00000000000E+00 0. -1.
          2    1    3    3  501    0 -0.18400992812E+03  0.25528254778E+03  0.58628924714E+03  0.66540507524E+03  0.00000000000E+00 0. -1.
<mgrwt>
<rscale>  0 0.65031259E+03</rscale>
<asrwt>0</asrwt>
<pdfrwt beam="1">0</pdfrwt>
<pdfrwt beam="2">  1        2 0.38446124E+00 0.65031259E+03</pdfrwt>
<totfact> 0.45508088E+00</totfact>
</mgrwt>
</event>
<event>
 5    1  0.2357694E-004  0.6540354E+03  0.7818608E-02  0.9799236E-01
         13   -1    0    0    0    0  0.00000000000E+00  0.00000000000E+00  0.10000000000E+04  0.10000000000E+04  0.00000000000E+00 0. -1.
          2   -1    0    0  501    0 -0.00000000000E+00 -0.00000000000E+00 -0.10694058350E+03  0.10694058350E+03  0.00000000000E+00 0. -1.
    9000006    2    1    2  501    0  0.00000000000E+00  0.00000000000E+00  0.89305941650E+03  0.11069405835E+04  0.65403542258E+03 0.  0.
         13    1    3    3    0    0 -0.15250644868E+03  0.23658905205E+03  0.72825479927E+03  0.78076094235E+03  0.00000000000E+00 0. -1.
          2    1    3    3  501    0  0.15250644868E+03 -0.23658905205E+03  0.16480461723E+03  0.32617964115E+03  0.00000000000E+00 0. -1.
<mgrwt>
<rscale>  0 0.65403542E+03</rscale>
<asrwt>0</asrwt>
<pdfrwt beam="1">0</pdfrwt>
<pdfrwt beam="2">  1        2 0.38887567E+00 0.65403542E+03</pdfrwt>
<totfact> 0.43811463E+00</totfact>
</mgrwt>
</event>
<event>
 5    1  0.2357694E-004  0.6521306E+03  0.7818608E-02  0.9802790E-01
         13   -1    0    0    0    0  0.00000000000E+00  0.00000000000E+00  0.10000000000E+04  0.10000000000E+04  0.00000000000E+00 0. -1.
          2   -1    0    0  501    0 -0.00000000000E+00 -0.00000000000E+00 -0.10631856518E+03  0.10631856518E+03  0.00000000000E+00 0. -1.
    9000006    2    1    2  501    0  0.00000000000E+00  0.00000000000E+00  0.89368143482E+03  0.11063185652E+04  0.65213055496E+03 0.  0.
         13    1    3    3    0    0 -0.10126607313E+03  0.29697811165E+03  0.29636345062E+03  0.43160411401E+03  0.00000000000E+00 0. -1.
          2    1    3    3  501    0  0.10126607313E+03 -0.29697811165E+03  0.59731798420E+03  0.67471445117E+03  0.00000000000E+00 0. -1.
<mgrwt>
<rscale>  0 0.65213055E+03</rscale>
<asrwt>0</asrwt>
<pdfrwt beam="1">0</pdfrwt>
<pdfrwt beam="2">  1        2 0.38661378E+00 0.65213055E+03</pdfrwt>
<totfact> 0.44673494E+00</totfact>
</mgrwt>
</event>
<event>
 5    1  0.2357694E-004  0.6462547E+03  0.7818608E-02  0.9813832E-01
         13   -1    0    0    0    0  0.00000000000E+00  0.00000000000E+00  0.10000000000E+04  0.10000000000E+04  0.00000000000E+00 0. -1.
          2   -1    0    0  501    0 -0.00000000000E+00 -0.00000000000E+00 -0.10441129976E+03  0.10441129976E+03  0.00000000000E+00 0. -1.
    9000006    2    1    2  501    0  0.00000000000E+00  0.00000000000E+00  0.89558870024E+03  0.11044112998E+04  0.64625474780E+03 0.  0.
         13    1    3    3    0    0  0.16000769535E+03 -0.24756875631E+03  0.22160291838E+03  0.36878259870E+03  0.00000000000E+00 0. -1.
          4    1    3    3  501    0 -0.16000769535E+03  0.24756875631E+03  0.67398578186E+03  0.73562870106E+03  0.00000000000E+00 0. -1.
<mgrwt>
<rscale>  0 0.64625475E+03</rscale>
<asrwt>0</asrwt>
<pdfrwt beam="1">0</pdfrwt>
<pdfrwt beam="2">  1        2 0.37967825E+00 0.64625475E+03</pdfrwt>
<totfact> 0.47413454E+00</totfact>
</mgrwt>
</event>
<event>
 5    1  0.2357694E-004  0.7101457E+03  0.7818608E-02  0.9700037E-01
         13   -1    0    0    0    0  0.00000000000E+00  0.00000000000E+00  0.10000000000E+04  0.10000000000E+04  0.00000000000E+00 0. -1.
          2   -1    0    0  501    0 -0.00000000000E+00 -0.00000000000E+00 -0.12607671660E+03  0.12607671660E+03  0.00000000000E+00 0. -1.
    9000006    2    1    2  501    0  0.00000000000E+00  0.00000000000E+00  0.87392328340E+03  0.11260767166E+04  0.71014566563E+03 0.  0.
         13    1    3    3    0    0  0.32993218504E+03  0.52059968917E+02  0.62797891604E+03  0.71128264851E+03  0.00000000000E+00 0. -1.
          2    1    3    3  501    0 -0.32993218504E+03 -0.52059968917E+02  0.24594436736E+03  0.41479406809E+03  0.00000000000E+00 0. -1.
<mgrwt>
<rscale>  0 0.71014567E+03</rscale>
<asrwt>0</asrwt>
<pdfrwt beam="1">0</pdfrwt>
<pdfrwt beam="2">  1        2 0.45846175E+00 0.71014567E+03</pdfrwt>
<totfact> 0.23561228E+00</totfact>
</mgrwt>
</event>
<event>
 5    1  0.2357694E-004  0.6434349E+03  0.7818608E-02  0.9819177E-01
         13   -1    0    0    0    0  0.00000000000E+00  0.00000000000E+00  0.10000000000E+04  0.10000000000E+04  0.00000000000E+00 0. -1.
          2   -1    0    0  501    0 -0.00000000000E+00 -0.00000000000E+00 -0.10350211885E+03  0.10350211885E+03  0.00000000000E+00 0. -1.
    9000006    2    1    2  501    0  0.00000000000E+00  0.00000000000E+00  0.89649788115E+03  0.11035021189E+04  0.64343490378E+03 0.  0.
         13    1    3    3    0    0 -0.24848652665E+03 -0.10853154450E+03  0.74518711563E+03  0.79298706634E+03  0.00000000000E+00 0. -1.
          4    1    3    3  501    0  0.24848652665E+03  0.10853154450E+03  0.15131076551E+03  0.31051505251E+03  0.00000000000E+00 0. -1.
<mgrwt>
<rscale>  0 0.64343490E+03</rscale>
<asrwt>0</asrwt>
<pdfrwt beam="1">0</pdfrwt>
<pdfrwt beam="2">  1        2 0.37637213E+00 0.64343490E+03</pdfrwt>
<totfact> 0.48772616E+00</totfact>
</mgrwt>
</event>
<event>
 5    1  0.2357694E-004  0.6399978E+03  0.7818608E-02  0.9825731E-01
         13   -1    0    0    0    0  0.00000000000E+00  0.00000000000E+00  0.10000000000E+04  0.10000000000E+04  0.00000000000E+00 0. -1.
          2   -1    0    0  501    0 -0.00000000000E+00 -0.00000000000E+00 -0.10239929561E+03  0.10239929561E+03  0.00000000000E+00 0. -1.
    9000006    2    1    2  501    0  0.00000000000E+00  0.00000000000E+00  0.89760070439E+03  0.11023992956E+04  0.63999779879E+03 0.  0.
         13    1    3    3    0    0  0.10871781222E+03 -0.28134320174E+03  0.63292101715E+03  0.70111523576E+03  0.00000000000E+00 0. -1.
          2    1    3    3  501    0 -0.10871781222E+03  0.28134320174E+03  0.26467968724E+03  0.40128405986E+03  0.00000000000E+00 0. -1.
<mgrwt>
<rscale>  0 0.63999780E+03</rscale>
<asrwt>0</asrwt>
<pdfrwt beam="1">0</pdfrwt>
<pdfrwt beam="2">  1        2 0.37236186E+00 0.63999780E+03</pdfrwt>
<totfact> 0.50469069E+00</totfact>
</mgrwt>
</event>
<event>
 5    1  0.2357694E-004  0.6452399E+03  0.7818608E-02  0.9815752E-01
         13   -1    0    0    0    0  0.00000000000E+00  0.00000000000E+00  0.10000000000E+04  0.10000000000E+04  0.00000000000E+00 0. -1.
          2   -1    0    0  501    0 -0.00000000000E+00 -0.00000000000E+00 -0.10408363607E+03  0.10408363607E+03  0.00000000000E+00 0. -1.
    9000006    2    1    2  501    0  0.00000000000E+00  0.00000000000E+00  0.89591636393E+03  0.11040836361E+04  0.64523991218E+03 0.  0.
         13    1    3    3    0    0 -0.13175398835E+03 -0.27553024454E+03  0.27007064539E+03  0.40769373628E+03  0.00000000000E+00 0. -1.
          2    1    3    3  501    0  0.13175398835E+03  0.27553024454E+03  0.62584571855E+03  0.69638989979E+03  0.00000000000E+00 0. -1.
<mgrwt>
<rscale>  0 0.64523991E+03</rscale>
<asrwt>0</asrwt>
<pdfrwt beam="1">0</pdfrwt>
<pdfrwt beam="2">  1        2 0.37848675E+00 0.64523991E+03</pdfrwt>
<totfact> 0.47899258E+00</totfact>
</mgrwt>
</event>
<event>
 5    1  0.2357694E-004  0.6174055E+03  0.7818608E-02  0.9869939E-01
         13   -1    0    0    0    0  0.00000000000E+00  0.00000000000E+00  0.10000000000E+04  0.10000000000E+04  0.00000000000E+00 0. -1.
          2   -1    0    0  501    0 -0.00000000000E+00 -0.00000000000E+00 -0.95297397183E+02  0.95297397183E+02  0.00000000000E+00 0. -1.
    9000006    2    1    2  501    0  0.00000000000E+00  0.00000000000E+00  0.90470260282E+03  0.10952973972E+04  0.61740553021E+03 0.  0.
         13    1    3    3    0    0  0.19114820883E+03  0.21630122358E+03  0.25823016399E+03  0.38730695146E+03  0.00000000000E+00 0. -1.
          2    1    3    3  501    0 -0.19114820883E+03 -0.21630122358E+03  0.64647243883E+03  0.70799044572E+03  0.00000000000E+00 0. -1.
<mgrwt>
<rscale>  0 0.61740553E+03</rscale>
<asrwt>0</asrwt>
<pdfrwt beam="1">0</pdfrwt>
<pdfrwt beam="2">  1        2 0.34653672E+00 0.61740553E+03</pdfrwt>
<totfact> 0.62762035E+00</totfact>
</mgrwt>
</event>
<event>
 5    1  0.2357694E-004  0.6419360E+03  0.7818608E-02  0.9822029E-01
         13   -1    0    0    0    0  0.00000000000E+00  0.00000000000E+00  0.10000000000E+04  0.10000000000E+04  0.00000000000E+00 0. -1.
          2   -1    0    0  501    0 -0.00000000000E+00 -0.00000000000E+00 -0.10302045214E+03  0.10302045214E+03  0.00000000000E+00 0. -1.
    9000006    2    1    2  501    0  0.00000000000E+00  0.00000000000E+00  0.89697954786E+03  0.11030204521E+04  0.64193598479E+03 0.  0.
         13    1    3    3    0    0  0.80980338225E+02 -0.19520737510E+03  0.86357499617E+03  0.88905877673E+03  0.00000000000E+00 0. -1.
          2    1    3    3  501    0 -0.80980338225E+02  0.19520737510E+03  0.33404551687E+02  0.21396167541E+03  0.00000000000E+00 0. -1.
<mgrwt>
<rscale>  0 0.64193598E+03</rscale>
<asrwt>0</asrwt>
<pdfrwt beam="1">0</pdfrwt>
<pdfrwt beam="2">  1        2 0.37462062E+00 0.64193598E+03</pdfrwt>
<totfact> 0.49507021E+00</totfact>
</mgrwt>
</event>
<event>
 5    1  0.2357694E-004  0.6709723E+03  0.7818608E-02  0.9768203E-01
         13   -1    0    0    0    0  0.00000000000E+00  0.00000000000E+00  0.10000000000E+04  0.10000000000E+04  0.00000000000E+00 0. -1.
          2   -1    0    0  501    0 -0.00000000000E+00 -0.00000000000E+00 -0.11255095370E+03  0.11255095370E+03  0.00000000000E+00 0. -1.
    9000006    2    1    2  501    0  0.00000000000E+00  0.00000000000E+00  0.88744904630E+03  0.11125509537E+04  0.67097229064E+03 0.  0.
         13    1    3    3    0    0  0.25018966824E+03  0.98943463720E+02  0.11141246402E+03  0.29119995921E+03  0.00000000000E+00 0. -1.
          4    1    3    3  501    0 -0.25018966824E+03 -0.98943463720E+02  0.77603658228E+03  0.82135099449E+03  0.00000000000E+00 0. -1.
<mgrwt>
<rscale>  0 0.67097229E+03</rscale>
<asrwt>0</asrwt>
<pdfrwt beam="1">0</pdfrwt>
<pdfrwt beam="2">  1        2 0.40927706E+00 0.67097229E+03</pdfrwt>
<totfact> 0.36687645E+00</totfact>
</mgrwt>
</event>
<event>
 5    1  0.2357694E-004  0.6397439E+03  0.7818608E-02  0.9826217E-01
         13   -1    0    0    0    0  0.00000000000E+00  0.00000000000E+00  0.10000000000E+04  0.10000000000E+04  0.00000000000E+00 0. -1.
          2   -1    0    0  501    0 -0.00000000000E+00 -0.00000000000E+00 -0.10231805359E+03  0.10231805359E+03  0.00000000000E+00 0. -1.
    9000006    2    1    2  501    0  0.00000000000E+00  0.00000000000E+00  0.89768194641E+03  0.11023180536E+04  0.63974386622E+03 0.  0.
         13    1    3    3    0    0  0.19685080096E+03  0.15579521147E+03  0.10727615855E+03  0.27300285703E+03  0.00000000000E+00 0. -1.
          4    1    3    3  501    0 -0.19685080096E+03 -0.15579521147E+03  0.79040578786E+03  0.82931519656E+03  0.00000000000E+00 0. -1.
<mgrwt>
<rscale>  0 0.63974387E+03</rscale>
<asrwt>0</asrwt>
<pdfrwt beam="1">0</pdfrwt>
<pdfrwt beam="2">  1        2 0.37206643E+00 0.63974387E+03</pdfrwt>
<totfact> 0.50596153E+00</totfact>
</mgrwt>
</event>
<event>
 5    1  0.2357694E-004  0.6525863E+03  0.7818608E-02  0.9801938E-01
         13   -1    0    0    0    0  0.00000000000E+00  0.00000000000E+00  0.10000000000E+04  0.10000000000E+04  0.00000000000E+00 0. -1.
          2   -1    0    0  501    0 -0.00000000000E+00 -0.00000000000E+00 -0.10646722556E+03  0.10646722556E+03  0.00000000000E+00 0. -1.
    9000006    2    1    2  501    0  0.00000000000E+00  0.00000000000E+00  0.89353277444E+03  0.11064672256E+04  0.65258631785E+03 0.  0.
         13    1    3    3    0    0 -0.77878552282E+02 -0.11841086444E+03  0.94508804635E+03  0.95565559543E+03  0.00000000000E+00 0. -1.
          2    1    3    3  501    0  0.77878552282E+02  0.11841086444E+03 -0.51555271908E+02  0.15081163013E+03  0.00000000000E+00 0. -1.
<mgrwt>
<rscale>  0 0.65258632E+03</rscale>
<asrwt>0</asrwt>
<pdfrwt beam="1">0</pdfrwt>
<pdfrwt beam="2">  1        2 0.38715436E+00 0.65258632E+03</pdfrwt>
<totfact> 0.44466087E+00</totfact>
</mgrwt>
</event>
<event>
 5    1  0.2357694E-004  0.6558432E+03  0.7818608E-02  0.9795876E-01
         13   -1    0    0    0    0  0.00000000000E+00  0.00000000000E+00  0.10000000000E+04  0.10000000000E+04  0.00000000000E+00 0. -1.
          2   -1    0    0  501    0 -0.00000000000E+00 -0.00000000000E+00 -0.10753259179E+03  0.10753259179E+03  0.00000000000E+00 0. -1.
    9000006    2    1    2  501    0  0.00000000000E+00  0.00000000000E+00  0.89246740821E+03  0.11075325918E+04  0.65584324893E+03 0.  0.
         13    1    3    3    0    0 -0.79589888553E+02  0.31766828152E+03  0.47473771666E+03  0.57673528335E+03  0.00000000000E+00 0. -1.
          4    1    3    3  501    0  0.79589888553E+02 -0.31766828152E+03  0.41772969155E+03  0.53079730844E+03  0.00000000000E+00 0. -1.
<mgrwt>
<rscale>  0 0.65584325E+03</rscale>
<asrwt>0</asrwt>
<pdfrwt beam="1">0</pdfrwt>
<pdfrwt beam="2">  1        2 0.39102843E+00 0.65584325E+03</pdfrwt>
<totfact> 0.43005024E+00</totfact>
</mgrwt>
</event>
<event>
 5    1  0.2357694E-004  0.5759309E+03  0.7818608E-02  0.9956640E-01
         13   -1    0    0    0    0  0.00000000000E+00  0.00000000000E+00  0.10000000000E+04  0.10000000000E+04  0.00000000000E+00 0. -1.
          2   -1    0    0  501    0 -0.00000000000E+00 -0.00000000000E+00 -0.82924101350E+02  0.82924101350E+02  0.00000000000E+00 0. -1.
    9000006    2    1    2  501    0  0.00000000000E+00  0.00000000000E+00  0.91707589865E+03  0.10829241014E+04  0.57593090332E+03 0.  0.
         13    1    3    3    0    0  0.26755091087E+03 -0.10583511052E+03  0.48074946924E+03  0.56027190961E+03  0.00000000000E+00 0. -1.
          4    1    3    3  501    0 -0.26755091087E+03  0.10583511052E+03  0.43632642941E+03  0.52265219174E+03  0.00000000000E+00 0. -1.
<mgrwt>
<rscale>  0 0.57593090E+03</rscale>
<asrwt>0</asrwt>
<pdfrwt beam="1">0</pdfrwt>
<pdfrwt beam="2">  1        2 0.30154282E+00 0.57593090E+03</pdfrwt>
<totfact> 0.91161411E+00</totfact>
</mgrwt>
</event>
<event>
 5    1  0.2357694E-004  0.6456554E+03  0.7818608E-02  0.9814966E-01
         13   -1    0    0    0    0  0.00000000000E+00  0.00000000000E+00  0.10000000000E+04  0.10000000000E+04  0.00000000000E+00 0. -1.
          2   -1    0    0  501    0 -0.00000000000E+00 -0.00000000000E+00 -0.10421772925E+03  0.10421772925E+03  0.00000000000E+00 0. -1.
    9000006    2    1    2  501    0  0.00000000000E+00  0.00000000000E+00  0.89578227075E+03  0.11042177292E+04  0.64565541661E+03 0.  0.
         13    1    3    3    0    0  0.30742056140E+03  0.98530958628E+02  0.44548592903E+03  0.55015767226E+03  0.00000000000E+00 0. -1.
          4    1    3    3  501    0 -0.30742056140E+03 -0.98530958628E+02  0.45029634172E+03  0.55406005699E+03  0.00000000000E+00 0. -1.
<mgrwt>
<rscale>  0 0.64565542E+03</rscale>
<asrwt>0</asrwt>
<pdfrwt beam="1">0</pdfrwt>
<pdfrwt beam="2">  1        2 0.37897436E+00 0.64565542E+03</pdfrwt>
<totfact> 0.47699902E+00</totfact>
</mgrwt>
</event>
<event>
 5    1  0.2357694E-004  0.6450204E+03  0.7818608E-02  0.9816168E-01
         13   -1    0    0    0    0  0.00000000000E+00  0.00000000000E+00  0.10000000000E+04  0.10000000000E+04  0.00000000000E+00 0. -1.
          2   -1    0    0  501    0 -0.00000000000E+00 -0.00000000000E+00 -0.10401282801E+03  0.10401282801E+03  0.00000000000E+00 0. -1.
    9000006    2    1    2  501    0  0.00000000000E+00  0.00000000000E+00  0.89598717199E+03  0.11040128280E+04  0.64502039661E+03 0.  0.
         13    1    3    3    0    0  0.13357120145E+03  0.11967307942E+03 -0.10796267691E+02  0.17966488580E+03  0.00000000000E+00 0. -1.
          2    1    3    3  501    0 -0.13357120145E+03 -0.11967307942E+03  0.90678343968E+03  0.92434794221E+03  0.00000000000E+00 0. -1.
<mgrwt>
<rscale>  0 0.64502040E+03</rscale>
<asrwt>0</asrwt>
<pdfrwt beam="1">0</pdfrwt>
<pdfrwt beam="2">  1        2 0.37822926E+00 0.64502040E+03</pdfrwt>
<totfact> 0.48004834E+00</totfact>
</mgrwt>
</event>
<event>
 5    1  0.2357694E-004  0.6326057E+03  0.7818608E-02  0.9839977E-01
         13   -1    0    0    0    0  0.00000000000E+00  0.00000000000E+00  0.10000000000E+04  0.10000000000E+04  0.00000000000E+00 0. -1.
          2   -1    0    0  501    0 -0.00000000000E+00 -0.00000000000E+00 -0.10004750489E+03  0.10004750489E+03  0.00000000000E+00 0. -1.
    9000006    2    1    2  501    0  0.00000000000E+00  0.00000000000E+00  0.89995249511E+03  0.11000475049E+04  0.63260573786E+03 0.  0.
         13    1    3    3    0    0  0.25197684707E+03  0.14608194133E+03  0.66447151527E+03  0.72550303903E+03  0.00000000000E+00 0. -1.
          4    1    3    3  501    0 -0.25197684707E+03 -0.14608194133E+03  0.23548097984E+03  0.37454446586E+03  0.00000000000E+00 0. -1.
<mgrwt>
<rscale>  0 0.63260574E+03</rscale>
<asrwt>0</asrwt>
<pdfrwt beam="1">0</pdfrwt>
<pdfrwt beam="2">  1        2 0.36380988E+00 0.63260574E+03</pdfrwt>
<totfact> 0.54268842E+00</totfact>
</mgrwt>
</event>
<event>
 5    1  0.2357694E-004  0.6263873E+03  0.7818608E-02  0.9852124E-01
         13   -1    0    0    0    0  0.00000000000E+00  0.00000000000E+00  0.10000000000E+04  0.10000000000E+04  0.00000000000E+00 0. -1.
          2   -1    0    0  501    0 -0.00000000000E+00 -0.00000000000E+00 -0.98090259674E+02  0.98090259674E+02  0.00000000000E+00 0. -1.
    9000006    2    1    2  501    0  0.00000000000E+00  0.00000000000E+00  0.90190974033E+03  0.10980902597E+04  0.62638729129E+03 0.  0.
         13    1    3    3    0    0  0.17443592847E+03 -0.84310090053E+02  0.19567775968E+02  0.19472796995E+03  0.00000000000E+00 0. -1.
          2    1    3    3  501    0 -0.17443592847E+03  0.84310090053E+02  0.88234196436E+03  0.90336228972E+03  0.00000000000E+00 0. -1.
<mgrwt>
<rscale>  0 0.62638729E+03</rscale>
<asrwt>0</asrwt>
<pdfrwt beam="1">0</pdfrwt>
<pdfrwt beam="2">  1        2 0.35669261E+00 0.62638729E+03</pdfrwt>
<totfact> 0.57630106E+00</totfact>
</mgrwt>
</event>
<event>
 5    1  0.2357694E-004  0.6561198E+03  0.7818608E-02  0.9795363E-01
         13   -1    0    0    0    0  0.00000000000E+00  0.00000000000E+00  0.10000000000E+04  0.10000000000E+04  0.00000000000E+00 0. -1.
          2   -1    0    0  501    0 -0.00000000000E+00 -0.00000000000E+00 -0.10762329624E+03  0.10762329624E+03  0.00000000000E+00 0. -1.
    9000006    2    1    2  501    0  0.00000000000E+00  0.00000000000E+00  0.89237670376E+03  0.11076232962E+04  0.65611979467E+03 0.  0.
         13    1    3    3    0    0  0.23159279271E+03  0.12070676638E+03  0.78135127134E+03  0.82384170464E+03  0.00000000000E+00 0. -1.
          4    1    3    3  501    0 -0.23159279271E+03 -0.12070676638E+03  0.11102543242E+03  0.28378159160E+03  0.00000000000E+00 0. -1.
<mgrwt>
<rscale>  0 0.65611979E+03</rscale>
<asrwt>0</asrwt>
<pdfrwt beam="1">0</pdfrwt>
<pdfrwt beam="2">  1        2 0.39135827E+00 0.65611979E+03</pdfrwt>
<totfact> 0.42882658E+00</totfact>
</mgrwt>
</event>
<event>
 5    1  0.2357694E-004  0.6610259E+03  0.7818608E-02  0.9786307E-01
         13   -1    0    0    0    0  0.00000000000E+00  0.00000000000E+00  0.10000000000E+04  0.10000000000E+04  0.00000000000E+00 0. -1.
          2   -1    0    0  501    0 -0.00000000000E+00 -0.00000000000E+00 -0.10923881356E+03  0.10923881356E+03  0.00000000000E+00 0. -1.
    9000006    2    1    2  501    0  0.00000000000E+00  0.00000000000E+00  0.89076118644E+03  0.11092388136E+04  0.66102591043E+03 0.  0.
         13    1    3    3    0    0 -0.22346268275E+03 -0.10808089482E+03  0.79188207221E+02  0.26055291702E+03  0.00000000000E+00 0. -1.
          2    1    3    3  501    0  0.22346268275E+03  0.10808089482E+03  0.81157297921E+03  0.84868589655E+03  0.00000000000E+00 0. -1.
<mgrwt>
<rscale>  0 0.66102591E+03</rscale>
<asrwt>0</asrwt>
<pdfrwt beam="1">0</pdfrwt>
<pdfrwt beam="2">  1        2 0.39723289E+00 0.66102591E+03</pdfrwt>
<totfact> 0.40755273E+00</totfact>
</mgrwt>
</event>
<event>
 5    1  0.2357694E-004  0.6552477E+03  0.7818608E-02  0.9796982E-01
         13   -1    0    0    0    0  0.00000000000E+00  0.00000000000E+00  0.10000000000E+04  0.10000000000E+04  0.00000000000E+00 0. -1.
          2   -1    0    0  501    0 -0.00000000000E+00 -0.00000000000E+00 -0.10733739569E+03  0.10733739569E+03  0.00000000000E+00 0. -1.
    9000006    2    1    2  501    0  0.00000000000E+00  0.00000000000E+00  0.89266260431E+03  0.11073373957E+04  0.65524772626E+03 0.  0.
         13    1    3    3    0    0  0.25569118836E+03 -0.89143596136E+02  0.75800190114E+03  0.80491704335E+03  0.00000000000E+00 0. -1.
          4    1    3    3  501    0 -0.25569118836E+03  0.89143596136E+02  0.13466070317E+03  0.30242035235E+03  0.00000000000E+00 0. -1.
<mgrwt>
<rscale>  0 0.65524773E+03</rscale>
<asrwt>0</asrwt>
<pdfrwt beam="1">0</pdfrwt>
<pdfrwt beam="2">  1        2 0.39031863E+00 0.65524773E+03</pdfrwt>
<totfact> 0.43269427E+00</totfact>
</mgrwt>
</event>
<event>
 5    1  0.2357694E-004  0.6539007E+03  0.7818608E-02  0.9799487E-01
         13   -1    0    0    0    0  0.00000000000E+00  0.00000000000E+00  0.10000000000E+04  0.10000000000E+04  0.00000000000E+00 0. -1.
          2   -1    0    0  501    0 -0.00000000000E+00 -0.00000000000E+00 -0.10689652232E+03  0.10689652232E+03  0.00000000000E+00 0. -1.
    9000006    2    1    2  501    0  0.00000000000E+00  0.00000000000E+00  0.89310347768E+03  0.11068965223E+04  0.65390067233E+03 0.  0.
         13    1    3    3    0    0 -0.61114935102E+02 -0.22940327394E+03  0.66017219113E+02  0.24641260236E+03  0.00000000000E+00 0. -1.
          4    1    3    3  501    0  0.61114935102E+02  0.22940327394E+03  0.82708625857E+03  0.86048391995E+03  0.00000000000E+00 0. -1.
<mgrwt>
<rscale>  0 0.65390067E+03</rscale>
<asrwt>0</asrwt>
<pdfrwt beam="1">0</pdfrwt>
<pdfrwt beam="2">  1        2 0.38871545E+00 0.65390067E+03</pdfrwt>
<totfact> 0.43872027E+00</totfact>
</mgrwt>
</event>
<event>
 5    1  0.2357694E-004  0.6580301E+03  0.7818608E-02  0.9791827E-01
         13   -1    0    0    0    0  0.00000000000E+00  0.00000000000E+00  0.10000000000E+04  0.10000000000E+04  0.00000000000E+00 0. -1.
          2   -1    0    0  501    0 -0.00000000000E+00 -0.00000000000E+00 -0.10825091149E+03  0.10825091149E+03  0.00000000000E+00 0. -1.
    9000006    2    1    2  501    0  0.00000000000E+00  0.00000000000E+00  0.89174908851E+03  0.11082509115E+04  0.65803012541E+03 0.  0.
         13    1    3    3    0    0  0.26826503594E+03 -0.48133565250E+02  0.75627827858E+03  0.80389041807E+03  0.00000000000E+00 0. -1.
          2    1    3    3  501    0 -0.26826503594E+03  0.48133565250E+02  0.13547080993E+03  0.30436049342E+03  0.00000000000E+00 0. -1.
<mgrwt>
<rscale>  0 0.65803013E+03</rscale>
<asrwt>0</asrwt>
<pdfrwt beam="1">0</pdfrwt>
<pdfrwt beam="2">  1        2 0.39364051E+00 0.65803013E+03</pdfrwt>
<totfact> 0.42044538E+00</totfact>
</mgrwt>
</event>
<event>
 5    1  0.2357694E-004  0.6498514E+03  0.7818608E-02  0.9807058E-01
         13   -1    0    0    0    0  0.00000000000E+00  0.00000000000E+00  0.10000000000E+04  0.10000000000E+04  0.00000000000E+00 0. -1.
          2   -1    0    0  501    0 -0.00000000000E+00 -0.00000000000E+00 -0.10557672511E+03  0.10557672511E+03  0.00000000000E+00 0. -1.
    9000006    2    1    2  501    0  0.00000000000E+00  0.00000000000E+00  0.89442327489E+03  0.11055767251E+04  0.64985144489E+03 0.  0.
         13    1    3    3    0    0 -0.31740351760E+03 -0.29112786132E+02  0.33982650575E+03  0.46591265417E+03  0.00000000000E+00 0. -1.
          2    1    3    3  501    0  0.31740351760E+03  0.29112786132E+02  0.55459676914E+03  0.63966407094E+03  0.00000000000E+00 0. -1.
<mgrwt>
<rscale>  0 0.64985144E+03</rscale>
<asrwt>0</asrwt>
<pdfrwt beam="1">0</pdfrwt>
<pdfrwt beam="2">  1        2 0.38391617E+00 0.64985144E+03</pdfrwt>
<totfact> 0.45721653E+00</totfact>
</mgrwt>
</event>
<event>
 5    1  0.2357694E-004  0.6500209E+03  0.7818608E-02  0.9806740E-01
         13   -1    0    0    0    0  0.00000000000E+00  0.00000000000E+00  0.10000000000E+04  0.10000000000E+04  0.00000000000E+00 0. -1.
          2   -1    0    0  501    0 -0.00000000000E+00 -0.00000000000E+00 -0.10563177903E+03  0.10563177903E+03  0.00000000000E+00 0. -1.
    9000006    2    1    2  501    0  0.00000000000E+00  0.00000000000E+00  0.89436822097E+03  0.11056317790E+04  0.65002085820E+03 0.  0.
         13    1    3    3    0    0  0.11575589980E+03  0.29745391135E+03  0.55139249497E+03  0.63711218889E+03  0.00000000000E+00 0. -1.
          4    1    3    3  501    0 -0.11575589980E+03 -0.29745391135E+03  0.34297572600E+03  0.46851959014E+03  0.00000000000E+00 0. -1.
<mgrwt>
<rscale>  0 0.65002086E+03</rscale>
<asrwt>0</asrwt>
<pdfrwt beam="1">0</pdfrwt>
<pdfrwt beam="2">  1        2 0.38411637E+00 0.65002086E+03</pdfrwt>
<totfact> 0.45643107E+00</totfact>
</mgrwt>
</event>
<event>
 5    1  0.2357694E-004  0.6579264E+03  0.7818608E-02  0.9792018E-01
         13   -1    0    0    0    0  0.00000000000E+00  0.00000000000E+00  0.10000000000E+04  0.10000000000E+04  0.00000000000E+00 0. -1.
          2   -1    0    0  501    0 -0.00000000000E+00 -0.00000000000E+00 -0.10821679365E+03  0.10821679365E+03  0.00000000000E+00 0. -1.
    9000006    2    1    2  501    0  0.00000000000E+00  0.00000000000E+00  0.89178320635E+03  0.11082167937E+04  0.65792642036E+03 0.  0.
         13    1    3    3    0    0  0.95508968651E+02  0.23179209697E+03  0.87119514899E+02  0.26540412428E+03  0.00000000000E+00 0. -1.
          2    1    3    3  501    0 -0.95508968651E+02 -0.23179209697E+03  0.80466369145E+03  0.84281266937E+03  0.00000000000E+00 0. -1.
<mgrwt>
<rscale>  0 0.65792642E+03</rscale>
<asrwt>0</asrwt>
<pdfrwt beam="1">0</pdfrwt>
<pdfrwt beam="2">  1        2 0.39351644E+00 0.65792642E+03</pdfrwt>
<totfact> 0.42089716E+00</totfact>
</mgrwt>
</event>
<event>
 5    1  0.2357694E-004  0.5412522E+03  0.7818608E-02  0.1003539E+00
         13   -1    0    0    0    0  0.00000000000E+00  0.00000000000E+00  0.10000000000E+04  0.10000000000E+04  0.00000000000E+00 0. -1.
          2   -1    0    0  501    0 -0.00000000000E+00 -0.00000000000E+00 -0.73238489349E+02  0.73238489349E+02  0.00000000000E+00 0. -1.
    9000006    2    1    2  501    0  0.00000000000E+00  0.00000000000E+00  0.92676151065E+03  0.10732384893E+04  0.54125221237E+03 0.  0.
         13    1    3    3    0    0  0.60677447898E+02 -0.23864075369E+03  0.24073825560E+03  0.34436328160E+03  0.00000000000E+00 0. -1.
          4    1    3    3  501    0 -0.60677447898E+02  0.23864075369E+03  0.68602325505E+03  0.72887520775E+03  0.00000000000E+00 0. -1.
<mgrwt>
<rscale>  0 0.54125221E+03</rscale>
<asrwt>0</asrwt>
<pdfrwt beam="1">0</pdfrwt>
<pdfrwt beam="2">  1        2 0.26632234E+00 0.54125221E+03</pdfrwt>
<totfact> 0.12181789E+01</totfact>
</mgrwt>
</event>
<event>
 5    1  0.2357694E-004  0.6490283E+03  0.7818608E-02  0.9808604E-01
         13   -1    0    0    0    0  0.00000000000E+00  0.00000000000E+00  0.10000000000E+04  0.10000000000E+04  0.00000000000E+00 0. -1.
          2   -1    0    0  501    0 -0.00000000000E+00 -0.00000000000E+00 -0.10530942299E+03  0.10530942299E+03  0.00000000000E+00 0. -1.
    9000006    2    1    2  501    0  0.00000000000E+00  0.00000000000E+00  0.89469057701E+03  0.11053094230E+04  0.64902826747E+03 0.  0.
         13    1    3    3    0    0  0.78277693891E+02 -0.31431844462E+03  0.41388877189E+03  0.52557339876E+03  0.00000000000E+00 0. -1.
          4    1    3    3  501    0 -0.78277693891E+02  0.31431844462E+03  0.48080180511E+03  0.57973602423E+03  0.00000000000E+00 0. -1.
<mgrwt>
<rscale>  0 0.64902827E+03</rscale>
<asrwt>0</asrwt>
<pdfrwt beam="1">0</pdfrwt>
<pdfrwt beam="2">  1        2 0.38294416E+00 0.64902827E+03</pdfrwt>
<totfact> 0.46104762E+00</totfact>
</mgrwt>
</event>
<event>
 5    1  0.2357694E-004  0.6485281E+03  0.7818608E-02  0.9809545E-01
         13   -1    0    0    0    0  0.00000000000E+00  0.00000000000E+00  0.10000000000E+04  0.10000000000E+04  0.00000000000E+00 0. -1.
          2   -1    0    0  501    0 -0.00000000000E+00 -0.00000000000E+00 -0.10514716476E+03  0.10514716476E+03  0.00000000000E+00 0. -1.
    9000006    2    1    2  501    0  0.00000000000E+00  0.00000000000E+00  0.89485283524E+03  0.11051471648E+04  0.64852807112E+03 0.  0.
         13    1    3    3    0    0  0.32095435402E+03  0.37251345148E+02  0.49402636477E+03  0.59030619950E+03  0.00000000000E+00 0. -1.
          2    1    3    3  501    0 -0.32095435402E+03 -0.37251345148E+02  0.40082647047E+03  0.51484096526E+03  0.00000000000E+00 0. -1.
<mgrwt>
<rscale>  0 0.64852807E+03</rscale>
<asrwt>0</asrwt>
<pdfrwt beam="1">0</pdfrwt>
<pdfrwt beam="2">  1        2 0.38235413E+00 0.64852807E+03</pdfrwt>
<totfact> 0.46338737E+00</totfact>
</mgrwt>
</event>
<event>
 5    1  0.2357694E-004  0.6588608E+03  0.7818608E-02  0.9790293E-01
         13   -1    0    0    0    0  0.00000000000E+00  0.00000000000E+00  0.10000000000E+04  0.10000000000E+04  0.00000000000E+00 0. -1.
          2   -1    0    0  501    0 -0.00000000000E+00 -0.00000000000E+00 -0.10852439614E+03  0.10852439614E+03  0.00000000000E+00 0. -1.
    9000006    2    1    2  501    0  0.00000000000E+00  0.00000000000E+00  0.89147560386E+03  0.11085243961E+04  0.65886082337E+03 0.  0.
         13    1    3    3    0    0  0.41916864898E+02 -0.31400196282E+03  0.59781577583E+03  0.67656334371E+03  0.00000000000E+00 0. -1.
          2    1    3    3  501    0 -0.41916864898E+02  0.31400196282E+03  0.29365982802E+03  0.43196105243E+03  0.00000000000E+00 0. -1.
<mgrwt>
<rscale>  0 0.65886082E+03</rscale>
<asrwt>0</asrwt>
<pdfrwt beam="1">0</pdfrwt>
<pdfrwt beam="2">  1        2 0.39463500E+00 0.65886082E+03</pdfrwt>
<totfact> 0.41683993E+00</totfact>
</mgrwt>
</event>
<event>
 5    1  0.2357694E-004  0.6514128E+03  0.7818608E-02  0.9804132E-01
         13   -1    0    0    0    0  0.00000000000E+00  0.00000000000E+00  0.10000000000E+04  0.10000000000E+04  0.00000000000E+00 0. -1.
          2   -1    0    0  501    0 -0.00000000000E+00 -0.00000000000E+00 -0.10608467132E+03  0.10608467132E+03  0.00000000000E+00 0. -1.
    9000006    2    1    2  501    0  0.00000000000E+00  0.00000000000E+00  0.89391532868E+03  0.11060846713E+04  0.65141283783E+03 0.  0.
         13    1    3    3    0    0  0.23908256733E+03  0.14040810300E+03  0.15675855904E+03  0.31850927023E+03  0.00000000000E+00 0. -1.
          2    1    3    3  501    0 -0.23908256733E+03 -0.14040810300E+03  0.73715676964E+03  0.78757540109E+03  0.00000000000E+00 0. -1.
<mgrwt>
<rscale>  0 0.65141284E+03</rscale>
<asrwt>0</asrwt>
<pdfrwt beam="1">0</pdfrwt>
<pdfrwt beam="2">  1        2 0.38576325E+00 0.65141284E+03</pdfrwt>
<totfact> 0.45001591E+00</totfact>
</mgrwt>
</event>
<event>
 5    1  0.2357694E-004  0.5420272E+03  0.7818608E-02  0.1003356E+00
         13   -1    0    0    0    0  0.00000000000E+00  0.00000000000E+00  0.10000000000E+04  0.10000000000E+04  0.00000000000E+00 0. -1.
          2   -1    0    0  501    0 -0.00000000000E+00 -0.00000000000E+00 -0.73448360424E+02  0.73448360424E+02  0.00000000000E+00 0. -1.
    9000006    2    1    2  501    0  0.00000000000E+00  0.00000000000E+00  0.92655163958E+03  0.10734483604E+04  0.54202715956E+03 0.  0.
         13    1    3    3    0    0  0.79167095626E+02 -0.37469180095E+02  0.97119792364E+03  0.97513936202E+03  0.00000000000E+00 0. -1.
          2    1    3    3  501    0 -0.79167095626E+02  0.37469180095E+02 -0.44646284060E+02  0.98308998404E+02  0.00000000000E+00 0. -1.
<mgrwt>
<rscale>  0 0.54202716E+03</rscale>
<asrwt>0</asrwt>
<pdfrwt beam="1">0</pdfrwt>
<pdfrwt beam="2">  1        2 0.26708551E+00 0.54202716E+03</pdfrwt>
<totfact> 0.12105435E+01</totfact>
</mgrwt>
</event>
<event>
 5    1  0.2357694E-004  0.6817631E+03  0.7818608E-02  0.9748938E-01
         13   -1    0    0    0    0  0.00000000000E+00  0.00000000000E+00  0.10000000000E+04  0.10000000000E+04  0.00000000000E+00 0. -1.
          2   -1    0    0  501    0 -0.00000000000E+00 -0.00000000000E+00 -0.11620023581E+03  0.11620023581E+03  0.00000000000E+00 0. -1.
    9000006    2    1    2  501    0  0.00000000000E+00  0.00000000000E+00  0.88379976419E+03  0.11162002358E+04  0.68176311372E+03 0.  0.
         13    1    3    3    0    0  0.33813962577E+03  0.40623808753E+02  0.46571211905E+03  0.57695448537E+03  0.00000000000E+00 0. -1.
          2    1    3    3  501    0 -0.33813962577E+03 -0.40623808753E+02  0.41808764514E+03  0.53924575044E+03  0.00000000000E+00 0. -1.
<mgrwt>
<rscale>  0 0.68176311E+03</rscale>
<asrwt>0</asrwt>
<pdfrwt beam="1">0</pdfrwt>
<pdfrwt beam="2">  1        2 0.42254720E+00 0.68176311E+03</pdfrwt>
<totfact> 0.32629224E+00</totfact>
</mgrwt>
</event>
<event>
 5    1  0.2357694E-004  0.6504314E+03  0.7818608E-02  0.9805970E-01
         13   -1    0    0    0    0  0.00000000000E+00  0.00000000000E+00  0.10000000000E+04  0.10000000000E+04  0.00000000000E+00 0. -1.
          2   -1    0    0  501    0 -0.00000000000E+00 -0.00000000000E+00 -0.10576525090E+03  0.10576525090E+03  0.00000000000E+00 0. -1.
    9000006    2    1    2  501    0  0.00000000000E+00  0.00000000000E+00  0.89423474910E+03  0.11057652509E+04  0.65043139808E+03 0.  0.
         13    1    3    3    0    0 -0.22972418708E+03 -0.17970293925E+03  0.20252940111E+03  0.35508380253E+03  0.00000000000E+00 0. -1.
          4    1    3    3  501    0  0.22972418708E+03  0.17970293925E+03  0.69170534798E+03  0.75068144837E+03  0.00000000000E+00 0. -1.
<mgrwt>
<rscale>  0 0.65043140E+03</rscale>
<asrwt>0</asrwt>
<pdfrwt beam="1">0</pdfrwt>
<pdfrwt beam="2">  1        2 0.38460172E+00 0.65043140E+03</pdfrwt>
<totfact> 0.45453190E+00</totfact>
</mgrwt>
</event>
<event>
 5    1  0.2357694E-004  0.6378944E+03  0.7818608E-02  0.9829763E-01
         13   -1    0    0    0    0  0.00000000000E+00  0.00000000000E+00  0.10000000000E+04  0.10000000000E+04  0.00000000000E+00 0. -1.
          2   -1    0    0  501    0 -0.00000000000E+00 -0.00000000000E+00 -0.10172732305E+03  0.10172732305E+03  0.00000000000E+00 0. -1.
    9000006    2    1    2  501    0  0.00000000000E+00  0.00000000000E+00  0.89827267695E+03  0.11017273231E+04  0.63789442089E+03 0.  0.
         13    1    3    3    0    0  0.27359645225E+03  0.46683769801E+02  0.72053745440E+03  0.77214546314E+03  0.00000000000E+00 0. -1.
          2    1    3    3  501    0 -0.27359645225E+03 -0.46683769801E+02  0.17773522255E+03  0.32958185991E+03  0.00000000000E+00 0. -1.
<mgrwt>
<rscale>  0 0.63789442E+03</rscale>
<asrwt>0</asrwt>
<pdfrwt beam="1">0</pdfrwt>
<pdfrwt beam="2">  1        2 0.36991832E+00 0.63789442E+03</pdfrwt>
<totfact> 0.51529061E+00</totfact>
</mgrwt>
</event>
<event>
 5    1  0.2357694E-004  0.6486193E+03  0.7818608E-02  0.9809373E-01
         13   -1    0    0    0    0  0.00000000000E+00  0.00000000000E+00  0.10000000000E+04  0.10000000000E+04  0.00000000000E+00 0. -1.
          2   -1    0    0  501    0 -0.00000000000E+00 -0.00000000000E+00 -0.10517674115E+03  0.10517674115E+03  0.00000000000E+00 0. -1.
    9000006    2    1    2  501    0  0.00000000000E+00  0.00000000000E+00  0.89482325885E+03  0.11051767411E+04  0.64861927553E+03 0.  0.
         13    1    3    3    0    0 -0.31323506393E+03  0.73694526459E+02  0.37862731577E+03  0.49689609855E+03  0.00000000000E+00 0. -1.
          2    1    3    3  501    0  0.31323506393E+03 -0.73694526459E+02  0.51619594308E+03  0.60828064260E+03  0.00000000000E+00 0. -1.
<mgrwt>
<rscale>  0 0.64861928E+03</rscale>
<asrwt>0</asrwt>
<pdfrwt beam="1">0</pdfrwt>
<pdfrwt beam="2">  1        2 0.38246168E+00 0.64861928E+03</pdfrwt>
<totfact> 0.46296008E+00</totfact>
</mgrwt>
</event>
<event>
 5    1  0.2357694E-004  0.6526692E+03  0.7818608E-02  0.9801783E-01
         13   -1    0    0    0    0  0.00000000000E+00  0.00000000000E+00  0.10000000000E+04  0.10000000000E+04  0.00000000000E+00 0. -1.
          2   -1    0    0  501    0 -0.00000000000E+00 -0.00000000000E+00 -0.10649427468E+03  0.10649427468E+03  0.00000000000E+00 0. -1.
    9000006    2    1    2  501    0  0.00000000000E+00  0.00000000000E+00  0.89350572532E+03  0.11064942747E+04  0.65266921079E+03 0.  0.
         13    1    3    3    0    0 -0.89476925519E+02  0.31378586392E+03  0.45549430714E+03  0.56030594538E+03  0.00000000000E+00 0. -1.
          4    1    3    3  501    0  0.89476925519E+02 -0.31378586392E+03  0.43801141819E+03  0.54618832930E+03  0.00000000000E+00 0. -1.
<mgrwt>
<rscale>  0 0.65266921E+03</rscale>
<asrwt>0</asrwt>
<pdfrwt beam="1">0</pdfrwt>
<pdfrwt beam="2">  1        2 0.38725272E+00 0.65266921E+03</pdfrwt>
<totfact> 0.44428443E+00</totfact>
</mgrwt>
</event>
<event>
 5    1  0.2357694E-004  0.6482494E+03  0.7818608E-02  0.9810070E-01
         13   -1    0    0    0    0  0.00000000000E+00  0.00000000000E+00  0.10000000000E+04  0.10000000000E+04  0.00000000000E+00 0. -1.
          2   -1    0    0  501    0 -0.00000000000E+00 -0.00000000000E+00 -0.10505680541E+03  0.10505680541E+03  0.00000000000E+00 0. -1.
    9000006    2    1    2  501    0  0.00000000000E+00  0.00000000000E+00  0.89494319459E+03  0.11050568054E+04  0.64824935143E+03 0.  0.
         13    1    3    3    0    0 -0.10103005767E+03 -0.27150436070E+03  0.69529642899E+03  0.75323224480E+03  0.00000000000E+00 0. -1.
          2    1    3    3  501    0  0.10103005767E+03  0.27150436070E+03  0.19964676560E+03  0.35182456061E+03  0.00000000000E+00 0. -1.
<mgrwt>
<rscale>  0 0.64824935E+03</rscale>
<asrwt>0</asrwt>
<pdfrwt beam="1">0</pdfrwt>
<pdfrwt beam="2">  1        2 0.38202555E+00 0.64824935E+03</pdfrwt>
<totfact> 0.46469502E+00</totfact>
</mgrwt>
</event>
<event>
 5    1  0.2357694E-004  0.6464622E+03  0.7818608E-02  0.9813440E-01
         13   -1    0    0    0    0  0.00000000000E+00  0.00000000000E+00  0.10000000000E+04  0.10000000000E+04  0.00000000000E+00 0. -1.
          2   -1    0    0  501    0 -0.00000000000E+00 -0.00000000000E+00 -0.10447833030E+03  0.10447833030E+03  0.00000000000E+00 0. -1.
    9000006    2    1    2  501    0  0.00000000000E+00  0.00000000000E+00  0.89552166970E+03  0.11044783303E+04  0.64646215759E+03 0.  0.
         13    1    3    3    0    0 -0.67315754880E+02  0.23308836894E+03  0.82858892358E+02  0.25637315506E+03  0.00000000000E+00 0. -1.
          4    1    3    3  501    0  0.67315754880E+02 -0.23308836894E+03  0.81266277734E+03  0.84810517524E+03  0.00000000000E+00 0. -1.
<mgrwt>
<rscale>  0 0.64646216E+03</rscale>
<asrwt>0</asrwt>
<pdfrwt beam="1">0</pdfrwt>
<pdfrwt beam="2">  1        2 0.37992200E+00 0.64646216E+03</pdfrwt>
<totfact> 0.47314627E+00</totfact>
</mgrwt>
</event>
<event>
 5    1  0.2357694E-004  0.6454548E+03  0.7818608E-02  0.9815345E-01
         13   -1    0    0    0    0  0.00000000000E+00  0.00000000000E+00  0.10000000000E+04  0.10000000000E+04  0.00000000000E+00 0. -1.
          2   -1    0    0  501    0 -0.00000000000E+00 -0.00000000000E+00 -0.10415298442E+03  0.10415298442E+03  0.00000000000E+00 0. -1.
    9000006    2    1    2  501    0  0.00000000000E+00  0.00000000000E+00  0.89584701558E+03  0.11041529844E+04  0.64545483009E+03 0.  0.
         13    1    3    3    0    0  0.16246630215E+03 -0.27882237749E+03  0.45471611497E+03  0.55758762785E+03  0.00000000000E+00 0. -1.
          2    1    3    3  501    0 -0.16246630215E+03  0.27882237749E+03  0.44113090061E+03  0.54656535657E+03  0.00000000000E+00 0. -1.
<mgrwt>
<rscale>  0 0.64545483E+03</rscale>
<asrwt>0</asrwt>
<pdfrwt beam="1">0</pdfrwt>
<pdfrwt beam="2">  1        2 0.37873892E+00 0.64545483E+03</pdfrwt>
<totfact> 0.47796063E+00</totfact>
</mgrwt>
</event>
<event>
 5    1  0.2357694E-004  0.6404440E+03  0.7818608E-02  0.9824877E-01
         13   -1    0    0    0    0  0.00000000000E+00  0.00000000000E+00  0.10000000000E+04  0.10000000000E+04  0.00000000000E+00 0. -1.
          2   -1    0    0  501    0 -0.00000000000E+00 -0.00000000000E+00 -0.10254212255E+03  0.10254212255E+03  0.00000000000E+00 0. -1.
    9000006    2    1    2  501    0  0.00000000000E+00  0.00000000000E+00  0.89745787745E+03  0.11025421226E+04  0.64044397898E+03 0.  0.
         13    1    3    3    0    0 -0.50255707675E+02  0.29069561834E+03  0.66314413160E+03  0.72580280927E+03  0.00000000000E+00 0. -1.
          2    1    3    3  501    0  0.50255707675E+02 -0.29069561834E+03  0.23431374585E+03  0.37673931328E+03  0.00000000000E+00 0. -1.
<mgrwt>
<rscale>  0 0.64044398E+03</rscale>
<asrwt>0</asrwt>
<pdfrwt beam="1">0</pdfrwt>
<pdfrwt beam="2">  1        2 0.37288123E+00 0.64044398E+03</pdfrwt>
<totfact> 0.50246357E+00</totfact>
</mgrwt>
</event>
<event>
 5    1  0.2357694E-004  0.6402712E+03  0.7818608E-02  0.9825208E-01
         13   -1    0    0    0    0  0.00000000000E+00  0.00000000000E+00  0.10000000000E+04  0.10000000000E+04  0.00000000000E+00 0. -1.
          2   -1    0    0  501    0 -0.00000000000E+00 -0.00000000000E+00 -0.10248680416E+03  0.10248680416E+03  0.00000000000E+00 0. -1.
    9000006    2    1    2  501    0  0.00000000000E+00  0.00000000000E+00  0.89751319584E+03  0.11024868042E+04  0.64027120553E+03 0.  0.
         13    1    3    3    0    0 -0.38447048941E+02  0.24590224296E+03  0.79545762927E+03  0.83348600986E+03  0.00000000000E+00 0. -1.
          2    1    3    3  501    0  0.38447048941E+02 -0.24590224296E+03  0.10205556657E+03  0.26900079430E+03  0.00000000000E+00 0. -1.
<mgrwt>
<rscale>  0 0.64027121E+03</rscale>
<asrwt>0</asrwt>
<pdfrwt beam="1">0</pdfrwt>
<pdfrwt beam="2">  1        2 0.37268007E+00 0.64027121E+03</pdfrwt>
<totfact> 0.50332509E+00</totfact>
</mgrwt>
</event>
<event>
 5    1  0.2357694E-004  0.6388831E+03  0.7818608E-02  0.9827866E-01
         13   -1    0    0    0    0  0.00000000000E+00  0.00000000000E+00  0.10000000000E+04  0.10000000000E+04  0.00000000000E+00 0. -1.
          2   -1    0    0  501    0 -0.00000000000E+00 -0.00000000000E+00 -0.10204291274E+03  0.10204291274E+03  0.00000000000E+00 0. -1.
    9000006    2    1    2  501    0  0.00000000000E+00  0.00000000000E+00  0.89795708726E+03  0.11020429127E+04  0.63888312777E+03 0.  0.
         13    1    3    3    0    0  0.21080703650E+03  0.23238021753E+03  0.34544201880E+03  0.46665871950E+03  0.00000000000E+00 0. -1.
          2    1    3    3  501    0 -0.21080703650E+03 -0.23238021753E+03  0.55251506846E+03  0.63538419324E+03  0.00000000000E+00 0. -1.
<mgrwt>
<rscale>  0 0.63888313E+03</rscale>
<asrwt>0</asrwt>
<pdfrwt beam="1">0</pdfrwt>
<pdfrwt beam="2">  1        2 0.37106592E+00 0.63888313E+03</pdfrwt>
<totfact> 0.51028726E+00</totfact>
</mgrwt>
</event>
<event>
 5    1  0.2357694E-004  0.6503834E+03  0.7818608E-02  0.9806060E-01
         13   -1    0    0    0    0  0.00000000000E+00  0.00000000000E+00  0.10000000000E+04  0.10000000000E+04  0.00000000000E+00 0. -1.
          2   -1    0    0  501    0 -0.00000000000E+00 -0.00000000000E+00 -0.10574964673E+03  0.10574964673E+03  0.00000000000E+00 0. -1.
    9000006    2    1    2  501    0  0.00000000000E+00  0.00000000000E+00  0.89425035327E+03  0.11057496467E+04  0.65038341533E+03 0.  0.
         13    1    3    3    0    0 -0.32436648957E+03 -0.23016022317E+02  0.45138909695E+03  0.55632317378E+03  0.00000000000E+00 0. -1.
          2    1    3    3  501    0  0.32436648957E+03  0.23016022317E+02  0.44286125632E+03  0.54942647296E+03  0.00000000000E+00 0. -1.
<mgrwt>
<rscale>  0 0.65038342E+03</rscale>
<asrwt>0</asrwt>
<pdfrwt beam="1">0</pdfrwt>
<pdfrwt beam="2">  1        2 0.38454498E+00 0.65038342E+03</pdfrwt>
<totfact> 0.45475356E+00</totfact>
</mgrwt>
</event>
<event>
 5    1  0.2357694E-004  0.6561192E+03  0.7818608E-02  0.9795364E-01
         13   -1    0    0    0    0  0.00000000000E+00  0.00000000000E+00  0.10000000000E+04  0.10000000000E+04  0.00000000000E+00 0. -1.
          2   -1    0    0  501    0 -0.00000000000E+00 -0.00000000000E+00 -0.10762311044E+03  0.10762311044E+03  0.00000000000E+00 0. -1.
    9000006    2    1    2  501    0  0.00000000000E+00  0.00000000000E+00  0.89237688956E+03  0.11076231104E+04  0.65611922831E+03 0.  0.
         13    1    3    3    0    0 -0.11461815259E+02 -0.29358687983E+03  0.69255602667E+03  0.75230211969E+03  0.00000000000E+00 0. -1.
          2    1    3    3  501    0  0.11461815259E+02  0.29358687983E+03  0.19982086289E+03  0.35532099075E+03  0.00000000000E+00 0. -1.
<mgrwt>
<rscale>  0 0.65611923E+03</rscale>
<asrwt>0</asrwt>
<pdfrwt beam="1">0</pdfrwt>
<pdfrwt beam="2">  1        2 0.39135759E+00 0.65611923E+03</pdfrwt>
<totfact> 0.42882908E+00</totfact>
</mgrwt>
</event>
<event>
 5    1  0.2357694E-004  0.6353819E+03  0.7818608E-02  0.9834602E-01
         13   -1    0    0    0    0  0.00000000000E+00  0.00000000000E+00  0.10000000000E+04  0.10000000000E+04  0.00000000000E+00 0. -1.
          2   -1    0    0  501    0 -0.00000000000E+00 -0.00000000000E+00 -0.10092754505E+03  0.10092754505E+03  0.00000000000E+00 0. -1.
    9000006    2    1    2  501    0  0.00000000000E+00  0.00000000000E+00  0.89907245495E+03  0.11009275450E+04  0.63538191680E+03 0.  0.
         13    1    3    3    0    0  0.74648699645E+02 -0.30874883715E+03  0.45891081038E+03  0.55811952544E+03  0.00000000000E+00 0. -1.
          2    1    3    3  501    0 -0.74648699645E+02  0.30874883715E+03  0.44016164457E+03  0.54280801961E+03  0.00000000000E+00 0. -1.
<mgrwt>
<rscale>  0 0.63538192E+03</rscale>
<asrwt>0</asrwt>
<pdfrwt beam="1">0</pdfrwt>
<pdfrwt beam="2">  1        2 0.36701003E+00 0.63538192E+03</pdfrwt>
<totfact> 0.52817243E+00</totfact>
</mgrwt>
</event>
<event>
 5    1  0.2357694E-004  0.6373030E+03  0.7818608E-02  0.9830900E-01
         13   -1    0    0    0    0  0.00000000000E+00  0.00000000000E+00  0.10000000000E+04  0.10000000000E+04  0.00000000000E+00 0. -1.
          2   -1    0    0  501    0 -0.00000000000E+00 -0.00000000000E+00 -0.10153877244E+03  0.10153877244E+03  0.00000000000E+00 0. -1.
    9000006    2    1    2  501    0  0.00000000000E+00  0.00000000000E+00  0.89846122756E+03  0.11015387724E+04  0.63730298112E+03 0.  0.
         13    1    3    3    0    0  0.16939259152E+03  0.22265687612E+03  0.71288875456E+03  0.76582002515E+03  0.00000000000E+00 0. -1.
          4    1    3    3  501    0 -0.16939259152E+03 -0.22265687612E+03  0.18557247301E+03  0.33571874729E+03  0.00000000000E+00 0. -1.
<mgrwt>
<rscale>  0 0.63730298E+03</rscale>
<asrwt>0</asrwt>
<pdfrwt beam="1">0</pdfrwt>
<pdfrwt beam="2">  1        2 0.36923268E+00 0.63730298E+03</pdfrwt>
<totfact> 0.51830131E+00</totfact>
</mgrwt>
</event>
<event>
 5    1  0.2357694E-004  0.6587095E+03  0.7818608E-02  0.9790572E-01
         13   -1    0    0    0    0  0.00000000000E+00  0.00000000000E+00  0.10000000000E+04  0.10000000000E+04  0.00000000000E+00 0. -1.
          2   -1    0    0  501    0 -0.00000000000E+00 -0.00000000000E+00 -0.10847453750E+03  0.10847453750E+03  0.00000000000E+00 0. -1.
    9000006    2    1    2  501    0  0.00000000000E+00  0.00000000000E+00  0.89152546250E+03  0.11084745375E+04  0.65870945796E+03 0.  0.
         13    1    3    3    0    0 -0.15638058497E+03  0.10691311926E+03 -0.76230878549E+01  0.18958748349E+03  0.00000000000E+00 0. -1.
          4    1    3    3  501    0  0.15638058497E+03 -0.10691311926E+03  0.89914855035E+03  0.91888705401E+03  0.00000000000E+00 0. -1.
<mgrwt>
<rscale>  0 0.65870946E+03</rscale>
<asrwt>0</asrwt>
<pdfrwt beam="1">0</pdfrwt>
<pdfrwt beam="2">  1        2 0.39445370E+00 0.65870946E+03</pdfrwt>
<totfact> 0.41749514E+00</totfact>
</mgrwt>
</event>
<event>
 5    1  0.2357694E-004  0.6471890E+03  0.7818608E-02  0.9812068E-01
         13   -1    0    0    0    0  0.00000000000E+00  0.00000000000E+00  0.10000000000E+04  0.10000000000E+04  0.00000000000E+00 0. -1.
          2   -1    0    0  501    0 -0.00000000000E+00 -0.00000000000E+00 -0.10471339635E+03  0.10471339635E+03  0.00000000000E+00 0. -1.
    9000006    2    1    2  501    0  0.00000000000E+00  0.00000000000E+00  0.89528660365E+03  0.11047133963E+04  0.64718898739E+03 0.  0.
         13    1    3    3    0    0  0.92199704839E+02 -0.24285035518E+03  0.77702681250E+03  0.81929710602E+03  0.00000000000E+00 0. -1.
          4    1    3    3  501    0 -0.92199704839E+02  0.24285035518E+03  0.11825979115E+03  0.28541629033E+03  0.00000000000E+00 0. -1.
<mgrwt>
<rscale>  0 0.64718899E+03</rscale>
<asrwt>0</asrwt>
<pdfrwt beam="1">0</pdfrwt>
<pdfrwt beam="2">  1        2 0.38077679E+00 0.64718899E+03</pdfrwt>
<totfact> 0.46969535E+00</totfact>
</mgrwt>
</event>
<event>
 5    1  0.2357694E-004  0.6445194E+03  0.7818608E-02  0.9817118E-01
         13   -1    0    0    0    0  0.00000000000E+00  0.00000000000E+00  0.10000000000E+04  0.10000000000E+04  0.00000000000E+00 0. -1.
          2   -1    0    0  501    0 -0.00000000000E+00 -0.00000000000E+00 -0.10385131852E+03  0.10385131852E+03  0.00000000000E+00 0. -1.
    9000006    2    1    2  501    0  0.00000000000E+00  0.00000000000E+00  0.89614868148E+03  0.11038513185E+04  0.64451941326E+03 0.  0.
         13    1    3    3    0    0 -0.62226579432E+01  0.27397751201E+02 -0.10174976557E+03  0.10555743951E+03  0.00000000000E+00 0. -1.
          2    1    3    3  501    0  0.62226579432E+01 -0.27397751201E+02  0.99789844705E+03  0.99829387901E+03  0.00000000000E+00 0. -1.
<mgrwt>
<rscale>  0 0.64451941E+03</rscale>
<asrwt>0</asrwt>
<pdfrwt beam="1">0</pdfrwt>
<pdfrwt beam="2">  1        2 0.37764195E+00 0.64451941E+03</pdfrwt>
<totfact> 0.48246441E+00</totfact>
</mgrwt>
</event>
<event>
 5    1  0.2357694E-004  0.6527590E+03  0.7818608E-02  0.9801616E-01
         13   -1    0    0    0    0  0.00000000000E+00  0.00000000000E+00  0.10000000000E+04  0.10000000000E+04  0.00000000000E+00 0. -1.
          2   -1    0    0  501    0 -0.00000000000E+00 -0.00000000000E+00 -0.10652356208E+03  0.10652356208E+03  0.00000000000E+00 0. -1.
    9000006    2    1    2  501    0  0.00000000000E+00  0.00000000000E+00  0.89347643792E+03  0.11065235621E+04  0.65275895117E+03 0.  0.
         13    1    3    3    0    0  0.13223425275E+03  0.26814708476E+03  0.66863316908E+03  0.73243366352E+03  0.00000000000E+00 0. -1.
          4    1    3    3  501    0 -0.13223425275E+03 -0.26814708476E+03  0.22484326884E+03  0.37408989857E+03  0.00000000000E+00 0. -1.
<mgrwt>
<rscale>  0 0.65275895E+03</rscale>
<asrwt>0</asrwt>
<pdfrwt beam="1">0</pdfrwt>
<pdfrwt beam="2">  1        2 0.38735922E+00 0.65275895E+03</pdfrwt>
<totfact> 0.44387716E+00</totfact>
</mgrwt>
</event>
<event>
 5    1  0.2357694E-004  0.6613981E+03  0.7818608E-02  0.9785623E-01
         13   -1    0    0    0    0  0.00000000000E+00  0.00000000000E+00  0.10000000000E+04  0.10000000000E+04  0.00000000000E+00 0. -1.
          2   -1    0    0  501    0 -0.00000000000E+00 -0.00000000000E+00 -0.10936186592E+03  0.10936186592E+03  0.00000000000E+00 0. -1.
    9000006    2    1    2  501    0  0.00000000000E+00  0.00000000000E+00  0.89063813408E+03  0.11093618659E+04  0.66139811286E+03 0.  0.
         13    1    3    3    0    0  0.31236769151E+03 -0.84511973177E+02  0.33099156689E+03  0.46289444333E+03  0.00000000000E+00 0. -1.
          2    1    3    3  501    0 -0.31236769151E+03  0.84511973177E+02  0.55964656719E+03  0.64646742259E+03  0.00000000000E+00 0. -1.
<mgrwt>
<rscale>  0 0.66139811E+03</rscale>
<asrwt>0</asrwt>
<pdfrwt beam="1">0</pdfrwt>
<pdfrwt beam="2">  1        2 0.39768035E+00 0.66139811E+03</pdfrwt>
<totfact> 0.40597203E+00</totfact>
</mgrwt>
</event>
<event>
 5    1  0.2357694E-004  0.6476006E+03  0.7818608E-02  0.9811292E-01
         13   -1    0    0    0    0  0.00000000000E+00  0.00000000000E+00  0.10000000000E+04  0.10000000000E+04  0.00000000000E+00 0. -1.
          2   -1    0    0  501    0 -0.00000000000E+00 -0.00000000000E+00 -0.10484663903E+03  0.10484663903E+03  0.00000000000E+00 0. -1.
    9000006    2    1    2  501    0  0.00000000000E+00  0.00000000000E+00  0.89515336097E+03  0.11048466390E+04  0.64760061466E+03 0.  0.
         13    1    3    3    0    0 -0.14115937383E+03  0.18490947102E+03  0.83183525954E+03  0.86375192058E+03  0.00000000000E+00 0. -1.
          2    1    3    3  501    0  0.14115937383E+03 -0.18490947102E+03  0.63318101435E+02  0.24109471845E+03  0.00000000000E+00 0. -1.
<mgrwt>
<rscale>  0 0.64760061E+03</rscale>
<asrwt>0</asrwt>
<pdfrwt beam="1">0</pdfrwt>
<pdfrwt beam="2">  1        2 0.38126131E+00 0.64760061E+03</pdfrwt>
<totfact> 0.46774944E+00</totfact>
</mgrwt>
</event>
<event>
 5    1  0.2357694E-004  0.6632126E+03  0.7818608E-02  0.9782298E-01
         13   -1    0    0    0    0  0.00000000000E+00  0.00000000000E+00  0.10000000000E+04  0.10000000000E+04  0.00000000000E+00 0. -1.
          2   -1    0    0  501    0 -0.00000000000E+00 -0.00000000000E+00 -0.10996272382E+03  0.10996272382E+03  0.00000000000E+00 0. -1.
    9000006    2    1    2  501    0  0.00000000000E+00  0.00000000000E+00  0.89003727618E+03  0.11099627238E+04  0.66321255664E+03 0.  0.
         13    1    3    3    0    0  0.42109245959E+02  0.31010993583E+03  0.62851713373E+03  0.70212188991E+03  0.00000000000E+00 0. -1.
          4    1    3    3  501    0 -0.42109245959E+02 -0.31010993583E+03  0.26152014245E+03  0.40784083391E+03  0.00000000000E+00 0. -1.
<mgrwt>
<rscale>  0 0.66321256E+03</rscale>
<asrwt>0</asrwt>
<pdfrwt beam="1">0</pdfrwt>
<pdfrwt beam="2">  1        2 0.39986529E+00 0.66321256E+03</pdfrwt>
<totfact> 0.39833242E+00</totfact>
</mgrwt>
</event>
<event>
 5    1  0.2357694E-004  0.6706299E+03  0.7818608E-02  0.9768821E-01
         13   -1    0    0    0    0  0.00000000000E+00  0.00000000000E+00  0.10000000000E+04  0.10000000000E+04  0.00000000000E+00 0. -1.
          2   -1    0    0  501    0 -0.00000000000E+00 -0.00000000000E+00 -0.11243611373E+03  0.11243611373E+03  0.00000000000E+00 0. -1.
    9000006    2    1    2  501    0  0.00000000000E+00  0.00000000000E+00  0.88756388627E+03  0.11124361137E+04  0.67062989416E+03 0.  0.
         13    1    3    3    0    0  0.68609097461E+02 -0.10117733562E+03  0.96171875207E+03  0.96945707464E+03  0.00000000000E+00 0. -1.
          2    1    3    3  501    0 -0.68609097461E+02  0.10117733562E+03 -0.74154865803E+02  0.14297903909E+03  0.00000000000E+00 0. -1.
<mgrwt>
<rscale>  0 0.67062989E+03</rscale>
<asrwt>0</asrwt>
<pdfrwt beam="1">0</pdfrwt>
<pdfrwt beam="2">  1        2 0.40885946E+00 0.67062989E+03</pdfrwt>
<totfact> 0.36822357E+00</totfact>
</mgrwt>
</event>
<event>
 5    1  0.2357694E-004  0.6528825E+03  0.7818608E-02  0.9801385E-01
         13   -1    0    0    0    0  0.00000000000E+00  0.00000000000E+00  0.10000000000E+04  0.10000000000E+04  0.00000000000E+00 0. -1.
          2   -1    0    0  501    0 -0.00000000000E+00 -0.00000000000E+00 -0.10656388271E+03  0.10656388271E+03  0.00000000000E+00 0. -1.
    9000006    2    1    2  501    0  0.00000000000E+00  0.00000000000E+00  0.89343611729E+03  0.11065638827E+04  0.65288247857E+03 0.  0.
         13    1    3    3    0    0 -0.14025907817E+03 -0.36448452155E+02 -0.49056151276E+02  0.15299543997E+03  0.00000000000E+00 0. -1.
          4    1    3    3  501    0  0.14025907817E+03  0.36448452155E+02  0.94249226857E+03  0.95356844274E+03  0.00000000000E+00 0. -1.
<mgrwt>
<rscale>  0 0.65288248E+03</rscale>
<asrwt>0</asrwt>
<pdfrwt beam="1">0</pdfrwt>
<pdfrwt beam="2">  1        2 0.38750585E+00 0.65288248E+03</pdfrwt>
<totfact> 0.44331702E+00</totfact>
</mgrwt>
</event>
<event>
 5    1  0.2357694E-004  0.6604029E+03  0.7818608E-02  0.9787452E-01
         13   -1    0    0    0    0  0.00000000000E+00  0.00000000000E+00  0.10000000000E+04  0.10000000000E+04  0.00000000000E+00 0. -1.
          2   -1    0    0  501    0 -0.00000000000E+00 -0.00000000000E+00 -0.10903300558E+03  0.10903300558E+03  0.00000000000E+00 0. -1.
    9000006    2    1    2  501    0  0.00000000000E+00  0.00000000000E+00  0.89096699442E+03  0.11090330056E+04  0.66040292421E+03 0.  0.
         13    1    3    3    0    0 -0.29723408177E+03  0.13464675946E+02  0.68594781235E+03  0.74769900236E+03  0.00000000000E+00 0. -1.
          4    1    3    3  501    0  0.29723408177E+03 -0.13464675946E+02  0.20501918207E+03  0.36133400321E+03  0.00000000000E+00 0. -1.
<mgrwt>
<rscale>  0 0.66040292E+03</rscale>
<asrwt>0</asrwt>
<pdfrwt beam="1">0</pdfrwt>
<pdfrwt beam="2">  1        2 0.39648449E+00 0.66040292E+03</pdfrwt>
<totfact> 0.41020888E+00</totfact>
</mgrwt>
</event>
<event>
 5    1  0.2357694E-004  0.6500232E+03  0.7818608E-02  0.9806736E-01
         13   -1    0    0    0    0  0.00000000000E+00  0.00000000000E+00  0.10000000000E+04  0.10000000000E+04  0.00000000000E+00 0. -1.
          2   -1    0    0  501    0 -0.00000000000E+00 -0.00000000000E+00 -0.10563252987E+03  0.10563252987E+03  0.00000000000E+00 0. -1.
    9000006    2    1    2  501    0  0.00000000000E+00  0.00000000000E+00  0.89436747013E+03  0.11056325299E+04  0.65002316842E+03 0.  0.
         13    1    3    3    0    0 -0.12723390825E+03  0.13982839561E+03 -0.24883845001E+01  0.18906781769E+03  0.00000000000E+00 0. -1.
          4    1    3    3  501    0  0.12723390825E+03 -0.13982839561E+03  0.89685585463E+03  0.91656471218E+03  0.00000000000E+00 0. -1.
<mgrwt>
<rscale>  0 0.65002317E+03</rscale>
<asrwt>0</asrwt>
<pdfrwt beam="1">0</pdfrwt>
<pdfrwt beam="2">  1        2 0.38411910E+00 0.65002317E+03</pdfrwt>
<totfact> 0.45642037E+00</totfact>
</mgrwt>
</event>
<event>
 5    1  0.2357694E-004  0.6514667E+03  0.7818608E-02  0.9804031E-01
         13   -1    0    0    0    0  0.00000000000E+00  0.00000000000E+00  0.10000000000E+04  0.10000000000E+04  0.00000000000E+00 0. -1.
          2   -1    0    0  501    0 -0.00000000000E+00 -0.00000000000E+00 -0.10610221421E+03  0.10610221421E+03  0.00000000000E+00 0. -1.
    9000006    2    1    2  501    0  0.00000000000E+00  0.00000000000E+00  0.89389778579E+03  0.11061022142E+04  0.65146669665E+03 0.  0.
         13    1    3    3    0    0 -0.95500984988E+02 -0.28365689906E+02  0.97349817527E+03  0.97858251964E+03  0.00000000000E+00 0. -1.
          2    1    3    3  501    0  0.95500984988E+02  0.28365689906E+02 -0.79600389478E+02  0.12751969457E+03  0.00000000000E+00 0. -1.
<mgrwt>
<rscale>  0 0.65146670E+03</rscale>
<asrwt>0</asrwt>
<pdfrwt beam="1">0</pdfrwt>
<pdfrwt beam="2">  1        2 0.38582705E+00 0.65146670E+03</pdfrwt>
<totfact> 0.44976907E+00</totfact>
</mgrwt>
</event>
<event>
 5    1  0.2357694E-004  0.6665854E+03  0.7818608E-02  0.9776146E-01
         13   -1    0    0    0    0  0.00000000000E+00  0.00000000000E+00  0.10000000000E+04  0.10000000000E+04  0.00000000000E+00 0. -1.
          2   -1    0    0  501    0 -0.00000000000E+00 -0.00000000000E+00 -0.11108403153E+03  0.11108403153E+03  0.00000000000E+00 0. -1.
    9000006    2    1    2  501    0  0.00000000000E+00  0.00000000000E+00  0.88891596847E+03  0.11110840315E+04  0.66658542296E+03 0.  0.
         13    1    3    3    0    0 -0.24152756992E+03  0.22717608084E+03  0.50072409340E+03  0.60055737149E+03  0.00000000000E+00 0. -1.
          4    1    3    3  501    0  0.24152756992E+03 -0.22717608084E+03  0.38819187508E+03  0.51052666004E+03  0.00000000000E+00 0. -1.
<mgrwt>
<rscale>  0 0.66658542E+03</rscale>
<asrwt>0</asrwt>
<pdfrwt beam="1">0</pdfrwt>
<pdfrwt beam="2">  1        2 0.40394278E+00 0.66658542E+03</pdfrwt>
<totfact> 0.38441982E+00</totfact>
</mgrwt>
</event>
<event>
 5    1  0.2357694E-004  0.6511453E+03  0.7818608E-02  0.9804633E-01
         13   -1    0    0    0    0  0.00000000000E+00  0.00000000000E+00  0.10000000000E+04  0.10000000000E+04  0.00000000000E+00 0. -1.
          4   -1    0    0  501    0 -0.00000000000E+00 -0.00000000000E+00 -0.10599753827E+03  0.10599753827E+03  0.00000000000E+00 0. -1.
    9000006    2    1    2  501    0  0.00000000000E+00  0.00000000000E+00  0.89400246173E+03  0.11059975383E+04  0.65114526266E+03 0.  0.
         13    1    3    3    0    0 -0.28295993733E+03 -0.15838782855E+03  0.49636157005E+03  0.59289783149E+03  0.00000000000E+00 0. -1.
          2    1    3    3  501    0  0.28295993733E+03  0.15838782855E+03  0.39764089168E+03  0.51309970678E+03  0.00000000000E+00 0. -1.
<mgrwt>
<rscale>  0 0.65114526E+03</rscale>
<asrwt>0</asrwt>
<pdfrwt beam="1">0</pdfrwt>
<pdfrwt beam="2">  1        4 0.38544641E+00 0.65114526E+03</pdfrwt>
<totfact> 0.40313043E-02</totfact>
</mgrwt>
</event>
<event>
 5    1  0.2357694E-004  0.5274966E+03  0.7818608E-02  0.1006841E+00
         13   -1    0    0    0    0  0.00000000000E+00  0.00000000000E+00  0.10000000000E+04  0.10000000000E+04  0.00000000000E+00 0. -1.
          2   -1    0    0  501    0 -0.00000000000E+00 -0.00000000000E+00 -0.69563156590E+02  0.69563156590E+02  0.00000000000E+00 0. -1.
    9000006    2    1    2  501    0  0.00000000000E+00  0.00000000000E+00  0.93043684341E+03  0.10695631566E+04  0.52749656526E+03 0.  0.
         13    1    3    3    0    0  0.13839961682E+03  0.22445058969E+03  0.45399568298E+03  0.52501866759E+03  0.00000000000E+00 0. -1.
          2    1    3    3  501    0 -0.13839961682E+03 -0.22445058969E+03  0.47644116043E+03  0.54454448900E+03  0.00000000000E+00 0. -1.
<mgrwt>
<rscale>  0 0.52749657E+03</rscale>
<asrwt>0</asrwt>
<pdfrwt beam="1">0</pdfrwt>
<pdfrwt beam="2">  1        2 0.25295747E+00 0.52749657E+03</pdfrwt>
<totfact> 0.13602510E+01</totfact>
</mgrwt>
</event>
<event>
 5    1  0.2357694E-004  0.6462111E+03  0.7818608E-02  0.9813915E-01
         13   -1    0    0    0    0  0.00000000000E+00  0.00000000000E+00  0.10000000000E+04  0.10000000000E+04  0.00000000000E+00 0. -1.
          2   -1    0    0  501    0 -0.00000000000E+00 -0.00000000000E+00 -0.10439718315E+03  0.10439718315E+03  0.00000000000E+00 0. -1.
    9000006    2    1    2  501    0  0.00000000000E+00  0.00000000000E+00  0.89560281685E+03  0.11043971831E+04  0.64621105885E+03 0.  0.
         13    1    3    3    0    0 -0.66370752678E+01 -0.29437249267E+03  0.22044216977E+03  0.36782328015E+03  0.00000000000E+00 0. -1.
          4    1    3    3  501    0  0.66370752678E+01  0.29437249267E+03  0.67516064709E+03  0.73657390300E+03  0.00000000000E+00 0. -1.
<mgrwt>
<rscale>  0 0.64621106E+03</rscale>
<asrwt>0</asrwt>
<pdfrwt beam="1">0</pdfrwt>
<pdfrwt beam="2">  1        2 0.37962692E+00 0.64621106E+03</pdfrwt>
<totfact> 0.47434291E+00</totfact>
</mgrwt>
</event>
<event>
 5    1  0.2357694E-004  0.6535955E+03  0.7818608E-02  0.9800056E-01
         13   -1    0    0    0    0  0.00000000000E+00  0.00000000000E+00  0.10000000000E+04  0.10000000000E+04  0.00000000000E+00 0. -1.
          2   -1    0    0  501    0 -0.00000000000E+00 -0.00000000000E+00 -0.10679675887E+03  0.10679675887E+03  0.00000000000E+00 0. -1.
    9000006    2    1    2  501    0  0.00000000000E+00  0.00000000000E+00  0.89320324113E+03  0.11067967589E+04  0.65359546776E+03 0.  0.
         13    1    3    3    0    0  0.64163332977E+02  0.28426876133E+03  0.19616713684E+03  0.35129362013E+03  0.00000000000E+00 0. -1.
          4    1    3    3  501    0 -0.64163332977E+02 -0.28426876133E+03  0.69703610429E+03  0.75550313874E+03  0.00000000000E+00 0. -1.
<mgrwt>
<rscale>  0 0.65359547E+03</rscale>
<asrwt>0</asrwt>
<pdfrwt beam="1">0</pdfrwt>
<pdfrwt beam="2">  1        2 0.38835267E+00 0.65359547E+03</pdfrwt>
<totfact> 0.44009435E+00</totfact>
</mgrwt>
</event>
<event>
 5    1  0.2357694E-004  0.6435357E+03  0.7818608E-02  0.9818985E-01
         13   -1    0    0    0    0  0.00000000000E+00  0.00000000000E+00  0.10000000000E+04  0.10000000000E+04  0.00000000000E+00 0. -1.
          2   -1    0    0  501    0 -0.00000000000E+00 -0.00000000000E+00 -0.10353453340E+03  0.10353453340E+03  0.00000000000E+00 0. -1.
    9000006    2    1    2  501    0  0.00000000000E+00  0.00000000000E+00  0.89646546660E+03  0.11035345334E+04  0.64353565062E+03 0.  0.
         13    1    3    3    0    0  0.12330091205E+02  0.13823790608E+03 -0.49569667609E+02  0.14737334146E+03  0.00000000000E+00 0. -1.
          4    1    3    3  501    0 -0.12330091205E+02 -0.13823790608E+03  0.94603513421E+03  0.95616119194E+03  0.00000000000E+00 0. -1.
<mgrwt>
<rscale>  0 0.64353565E+03</rscale>
<asrwt>0</asrwt>
<pdfrwt beam="1">0</pdfrwt>
<pdfrwt beam="2">  1        2 0.37649001E+00 0.64353565E+03</pdfrwt>
<totfact> 0.48723554E+00</totfact>
</mgrwt>
</event>
<event>
 5    1  0.2357694E-004  0.6333461E+03  0.7818608E-02  0.9838541E-01
         13   -1    0    0    0    0  0.00000000000E+00  0.00000000000E+00  0.10000000000E+04  0.10000000000E+04  0.00000000000E+00 0. -1.
          2   -1    0    0  501    0 -0.00000000000E+00 -0.00000000000E+00 -0.10028181706E+03  0.10028181706E+03  0.00000000000E+00 0. -1.
    9000006    2    1    2  501    0  0.00000000000E+00  0.00000000000E+00  0.89971818294E+03  0.11002818171E+04  0.63334608884E+03 0.  0.
         13    1    3    3    0    0 -0.37386985768E+02  0.75532395049E+02 -0.80440880137E+02  0.11650607110E+03  0.00000000000E+00 0. -1.
          2    1    3    3  501    0  0.37386985768E+02 -0.75532395049E+02  0.98015906308E+03  0.98377574596E+03  0.00000000000E+00 0. -1.
<mgrwt>
<rscale>  0 0.63334609E+03</rscale>
<asrwt>0</asrwt>
<pdfrwt beam="1">0</pdfrwt>
<pdfrwt beam="2">  1        2 0.36466192E+00 0.63334609E+03</pdfrwt>
<totfact> 0.53878809E+00</totfact>
</mgrwt>
</event>
<event>
 5    1  0.2357694E-004  0.5919939E+03  0.7818608E-02  0.9922157E-01
         13   -1    0    0    0    0  0.00000000000E+00  0.00000000000E+00  0.10000000000E+04  0.10000000000E+04  0.00000000000E+00 0. -1.
          2   -1    0    0  501    0 -0.00000000000E+00 -0.00000000000E+00 -0.87614207640E+02  0.87614207640E+02  0.00000000000E+00 0. -1.
    9000006    2    1    2  501    0  0.00000000000E+00  0.00000000000E+00  0.91238579236E+03  0.10876142076E+04  0.59199394470E+03 0.  0.
         13    1    3    3    0    0  0.52994158948E+02 -0.16361267834E+03  0.13595320182E+02  0.17251759947E+03  0.00000000000E+00 0. -1.
          4    1    3    3  501    0 -0.52994158948E+02  0.16361267834E+03  0.89879047218E+03  0.91509660817E+03  0.00000000000E+00 0. -1.
<mgrwt>
<rscale>  0 0.59199394E+03</rscale>
<asrwt>0</asrwt>
<pdfrwt beam="1">0</pdfrwt>
<pdfrwt beam="2">  1        2 0.31859779E+00 0.59199394E+03</pdfrwt>
<totfact> 0.79186759E+00</totfact>
</mgrwt>
</event>
<event>
 5    1  0.2357694E-004  0.6374276E+03  0.7818608E-02  0.9830661E-01
         13   -1    0    0    0    0  0.00000000000E+00  0.00000000000E+00  0.10000000000E+04  0.10000000000E+04  0.00000000000E+00 0. -1.
          2   -1    0    0  501    0 -0.00000000000E+00 -0.00000000000E+00 -0.10157847483E+03  0.10157847483E+03  0.00000000000E+00 0. -1.
    9000006    2    1    2  501    0  0.00000000000E+00  0.00000000000E+00  0.89842152517E+03  0.11015784748E+04  0.63742756397E+03 0.  0.
         13    1    3    3    0    0  0.13617277883E+03 -0.28804188204E+03  0.46339047374E+03  0.56235387671E+03  0.00000000000E+00 0. -1.
          4    1    3    3  501    0 -0.13617277883E+03  0.28804188204E+03  0.43503105143E+03  0.53922459812E+03  0.00000000000E+00 0. -1.
<mgrwt>
<rscale>  0 0.63742756E+03</rscale>
<asrwt>0</asrwt>
<pdfrwt beam="1">0</pdfrwt>
<pdfrwt beam="2">  1        2 0.36937705E+00 0.63742756E+03</pdfrwt>
<totfact> 0.51766602E+00</totfact>
</mgrwt>
</event>
<event>
 5    1  0.2357694E-004  0.6467503E+03  0.7818608E-02  0.9812896E-01
         13   -1    0    0    0    0  0.00000000000E+00  0.00000000000E+00  0.10000000000E+04  0.10000000000E+04  0.00000000000E+00 0. -1.
          2   -1    0    0  501    0 -0.00000000000E+00 -0.00000000000E+00 -0.10457147857E+03  0.10457147857E+03  0.00000000000E+00 0. -1.
    9000006    2    1    2  501    0  0.00000000000E+00  0.00000000000E+00  0.89542852143E+03  0.11045714786E+04  0.64675027195E+03 0.  0.
         13    1    3    3    0    0  0.22918033503E+03 -0.20934374232E+03  0.29284198693E+03  0.42673745760E+03  0.00000000000E+00 0. -1.
          4    1    3    3  501    0 -0.22918033503E+03  0.20934374232E+03  0.60258653450E+03  0.67783402096E+03  0.00000000000E+00 0. -1.
<mgrwt>
<rscale>  0 0.64675027E+03</rscale>
<asrwt>0</asrwt>
<pdfrwt beam="1">0</pdfrwt>
<pdfrwt beam="2">  1        2 0.38026072E+00 0.64675027E+03</pdfrwt>
<totfact> 0.47177604E+00</totfact>
</mgrwt>
</event>
<event>
 5    1  0.2357694E-004  0.6307425E+03  0.7818608E-02  0.9843601E-01
         13   -1    0    0    0    0  0.00000000000E+00  0.00000000000E+00  0.10000000000E+04  0.10000000000E+04  0.00000000000E+00 0. -1.
          2   -1    0    0  501    0 -0.00000000000E+00 -0.00000000000E+00 -0.99459027530E+02  0.99459027530E+02  0.00000000000E+00 0. -1.
    9000006    2    1    2  501    0  0.00000000000E+00  0.00000000000E+00  0.90054097247E+03  0.10994590275E+04  0.63074250699E+03 0.  0.
         13    1    3    3    0    0  0.77116967035E+02 -0.23783149834E+03  0.78533117043E+03  0.82416982197E+03  0.00000000000E+00 0. -1.
          2    1    3    3  501    0 -0.77116967035E+02  0.23783149834E+03  0.11520980204E+03  0.27528920556E+03  0.00000000000E+00 0. -1.
<mgrwt>
<rscale>  0 0.63074251E+03</rscale>
<asrwt>0</asrwt>
<pdfrwt beam="1">0</pdfrwt>
<pdfrwt beam="2">  1        2 0.36166995E+00 0.63074251E+03</pdfrwt>
<totfact> 0.55259915E+00</totfact>
</mgrwt>
</event>
<event>
 5    1  0.2357694E-004  0.7252243E+03  0.7818608E-02  0.9675042E-01
         13   -1    0    0    0    0  0.00000000000E+00  0.00000000000E+00  0.10000000000E+04  0.10000000000E+04  0.00000000000E+00 0. -1.
          2   -1    0    0  501    0 -0.00000000000E+00 -0.00000000000E+00 -0.13148757832E+03  0.13148757832E+03  0.00000000000E+00 0. -1.
    9000006    2    1    2  501    0  0.00000000000E+00  0.00000000000E+00  0.86851242168E+03  0.11314875783E+04  0.72522431929E+03 0.  0.
         13    1    3    3    0    0 -0.16709825212E+03  0.11094049066E+03  0.90557289059E+03  0.92751920654E+03  0.00000000000E+00 0. -1.
          4    1    3    3  501    0  0.16709825212E+03 -0.11094049066E+03 -0.37060468914E+02  0.20396837178E+03  0.00000000000E+00 0. -1.
<mgrwt>
<rscale>  0 0.72522432E+03</rscale>
<asrwt>0</asrwt>
<pdfrwt beam="1">0</pdfrwt>
<pdfrwt beam="2">  1        2 0.47813766E+00 0.72522432E+03</pdfrwt>
<totfact> 0.19596522E+00</totfact>
</mgrwt>
</event>
<event>
 5    1  0.2357694E-004  0.6475004E+03  0.7818608E-02  0.9811481E-01
         13   -1    0    0    0    0  0.00000000000E+00  0.00000000000E+00  0.10000000000E+04  0.10000000000E+04  0.00000000000E+00 0. -1.
          2   -1    0    0  501    0 -0.00000000000E+00 -0.00000000000E+00 -0.10481418009E+03  0.10481418009E+03  0.00000000000E+00 0. -1.
    9000006    2    1    2  501    0  0.00000000000E+00  0.00000000000E+00  0.89518581991E+03  0.11048141801E+04  0.64750036320E+03 0.  0.
         13    1    3    3    0    0 -0.48159543734E+02  0.28517401459E+03  0.69585820284E+03  0.75356632005E+03  0.00000000000E+00 0. -1.
          4    1    3    3  501    0  0.48159543734E+02 -0.28517401459E+03  0.19932761707E+03  0.35124786003E+03  0.00000000000E+00 0. -1.
<mgrwt>
<rscale>  0 0.64750036E+03</rscale>
<asrwt>0</asrwt>
<pdfrwt beam="1">0</pdfrwt>
<pdfrwt beam="2">  1        2 0.38114328E+00 0.64750036E+03</pdfrwt>
<totfact> 0.46822280E+00</totfact>
</mgrwt>
</event>
<event>
 5    1  0.2357694E-004  0.6454298E+03  0.7818608E-02  0.9815393E-01
         13   -1    0    0    0    0  0.00000000000E+00  0.00000000000E+00  0.10000000000E+04  0.10000000000E+04  0.00000000000E+00 0. -1.
          2   -1    0    0  501    0 -0.00000000000E+00 -0.00000000000E+00 -0.10414489804E+03  0.10414489804E+03  0.00000000000E+00 0. -1.
    9000006    2    1    2  501    0  0.00000000000E+00  0.00000000000E+00  0.89585510196E+03  0.11041448980E+04  0.64542977322E+03 0.  0.
         13    1    3    3    0    0 -0.96345858213E+02  0.73335536886E+01 -0.78818058928E+02  0.12469399271E+03  0.00000000000E+00 0. -1.
          4    1    3    3  501    0  0.96345858213E+02 -0.73335536886E+01  0.97467316089E+03  0.97945090533E+03  0.00000000000E+00 0. -1.
<mgrwt>
<rscale>  0 0.64542977E+03</rscale>
<asrwt>0</asrwt>
<pdfrwt beam="1">0</pdfrwt>
<pdfrwt beam="2">  1        2 0.37870952E+00 0.64542977E+03</pdfrwt>
<totfact> 0.47808086E+00</totfact>
</mgrwt>
</event>
<event>
 5    1  0.2357694E-004  0.6517066E+03  0.7818608E-02  0.9803582E-01
         13   -1    0    0    0    0  0.00000000000E+00  0.00000000000E+00  0.10000000000E+04  0.10000000000E+04  0.00000000000E+00 0. -1.
          2   -1    0    0  501    0 -0.00000000000E+00 -0.00000000000E+00 -0.10618038737E+03  0.10618038737E+03  0.00000000000E+00 0. -1.
    9000006    2    1    2  501    0  0.00000000000E+00  0.00000000000E+00  0.89381961263E+03  0.11061803874E+04  0.65170664373E+03 0.  0.
         13    1    3    3    0    0 -0.19332571998E+03  0.22484088479E+03  0.67622381224E+03  0.73838127124E+03  0.00000000000E+00 0. -1.
          2    1    3    3  501    0  0.19332571998E+03 -0.22484088479E+03  0.21759580039E+03  0.36779911613E+03  0.00000000000E+00 0. -1.
<mgrwt>
<rscale>  0 0.65170664E+03</rscale>
<asrwt>0</asrwt>
<pdfrwt beam="1">0</pdfrwt>
<pdfrwt beam="2">  1        2 0.38611131E+00 0.65170664E+03</pdfrwt>
<totfact> 0.44867062E+00</totfact>
</mgrwt>
</event>
<event>
 5    1  0.2357694E-004  0.6516399E+03  0.7818608E-02  0.9803707E-01
         13   -1    0    0    0    0  0.00000000000E+00  0.00000000000E+00  0.10000000000E+04  0.10000000000E+04  0.00000000000E+00 0. -1.
          2   -1    0    0  501    0 -0.00000000000E+00 -0.00000000000E+00 -0.10615862727E+03  0.10615862727E+03  0.00000000000E+00 0. -1.
    9000006    2    1    2  501    0  0.00000000000E+00  0.00000000000E+00  0.89384137273E+03  0.11061586273E+04  0.65163986149E+03 0.  0.
         13    1    3    3    0    0  0.17959011272E+02  0.15975085678E+03  0.92799278379E+03  0.94181392488E+03  0.00000000000E+00 0. -1.
          2    1    3    3  501    0 -0.17959011272E+02 -0.15975085678E+03 -0.34151411060E+02  0.16434470240E+03  0.00000000000E+00 0. -1.
<mgrwt>
<rscale>  0 0.65163986E+03</rscale>
<asrwt>0</asrwt>
<pdfrwt beam="1">0</pdfrwt>
<pdfrwt beam="2">  1        2 0.38603219E+00 0.65163986E+03</pdfrwt>
<totfact> 0.44897614E+00</totfact>
</mgrwt>
</event>
<event>
 5    1  0.2357694E-004  0.6477916E+03  0.7818608E-02  0.9810932E-01
         13   -1    0    0    0    0  0.00000000000E+00  0.00000000000E+00  0.10000000000E+04  0.10000000000E+04  0.00000000000E+00 0. -1.
          2   -1    0    0  501    0 -0.00000000000E+00 -0.00000000000E+00 -0.10490849797E+03  0.10490849797E+03  0.00000000000E+00 0. -1.
    9000006    2    1    2  501    0  0.00000000000E+00  0.00000000000E+00  0.89509150203E+03  0.11049084980E+04  0.64779162689E+03 0.  0.
         13    1    3    3    0    0  0.24112877557E+03  0.14192344003E+03  0.16924095358E+03  0.32699824098E+03  0.00000000000E+00 0. -1.
          4    1    3    3  501    0 -0.24112877557E+03 -0.14192344003E+03  0.72585054845E+03  0.77791025699E+03  0.00000000000E+00 0. -1.
<mgrwt>
<rscale>  0 0.64779163E+03</rscale>
<asrwt>0</asrwt>
<pdfrwt beam="1">0</pdfrwt>
<pdfrwt beam="2">  1        2 0.38148625E+00 0.64779163E+03</pdfrwt>
<totfact> 0.46684853E+00</totfact>
</mgrwt>
</event>
<event>
 5    1  0.2357694E-004  0.6487898E+03  0.7818608E-02  0.9809053E-01
         13   -1    0    0    0    0  0.00000000000E+00  0.00000000000E+00  0.10000000000E+04  0.10000000000E+04  0.00000000000E+00 0. -1.
          2   -1    0    0  501    0 -0.00000000000E+00 -0.00000000000E+00 -0.10523205296E+03  0.10523205296E+03  0.00000000000E+00 0. -1.
    9000006    2    1    2  501    0  0.00000000000E+00  0.00000000000E+00  0.89476794704E+03  0.11052320530E+04  0.64878980559E+03 0.  0.
         13    1    3    3    0    0 -0.24761699061E+03 -0.18858901815E+03  0.60306880002E+03  0.67865452873E+03  0.00000000000E+00 0. -1.
          2    1    3    3  501    0  0.24761699061E+03  0.18858901815E+03  0.29169914702E+03  0.42657752423E+03  0.00000000000E+00 0. -1.
<mgrwt>
<rscale>  0 0.64878981E+03</rscale>
<asrwt>0</asrwt>
<pdfrwt beam="1">0</pdfrwt>
<pdfrwt beam="2">  1        2 0.38266282E+00 0.64878981E+03</pdfrwt>
<totfact> 0.46216195E+00</totfact>
</mgrwt>
</event>
<event>
 5    1  0.2357694E-004  0.6578116E+03  0.7818608E-02  0.9792231E-01
         13   -1    0    0    0    0  0.00000000000E+00  0.00000000000E+00  0.10000000000E+04  0.10000000000E+04  0.00000000000E+00 0. -1.
          2   -1    0    0  501    0 -0.00000000000E+00 -0.00000000000E+00 -0.10817902180E+03  0.10817902180E+03  0.00000000000E+00 0. -1.
    9000006    2    1    2  501    0  0.00000000000E+00  0.00000000000E+00  0.89182097820E+03  0.11081790218E+04  0.65781158944E+03 0.  0.
         13    1    3    3    0    0 -0.31448893284E+03  0.18307277431E+02  0.28661951573E+03  0.42589810058E+03  0.00000000000E+00 0. -1.
          2    1    3    3  501    0  0.31448893284E+03 -0.18307277431E+02  0.60520146247E+03  0.68228092122E+03  0.00000000000E+00 0. -1.
<mgrwt>
<rscale>  0 0.65781159E+03</rscale>
<asrwt>0</asrwt>
<pdfrwt beam="1">0</pdfrwt>
<pdfrwt beam="2">  1        2 0.39337909E+00 0.65781159E+03</pdfrwt>
<totfact> 0.42139784E+00</totfact>
</mgrwt>
</event>
<event>
 5    1  0.2357694E-004  0.6575726E+03  0.7818608E-02  0.9792673E-01
         13   -1    0    0    0    0  0.00000000000E+00  0.00000000000E+00  0.10000000000E+04  0.10000000000E+04  0.00000000000E+00 0. -1.
          2   -1    0    0  501    0 -0.00000000000E+00 -0.00000000000E+00 -0.10810044341E+03  0.10810044341E+03  0.00000000000E+00 0. -1.
    9000006    2    1    2  501    0  0.00000000000E+00  0.00000000000E+00  0.89189955659E+03  0.11081004434E+04  0.65757263754E+03 0.  0.
         13    1    3    3    0    0 -0.84374739080E+02 -0.78323677224E+02 -0.73025438115E+02  0.13633198312E+03  0.00000000000E+00 0. -1.
          2    1    3    3  501    0  0.84374739080E+02  0.78323677224E+02  0.96492499471E+03  0.97176846029E+03  0.00000000000E+00 0. -1.
<mgrwt>
<rscale>  0 0.65757264E+03</rscale>
<asrwt>0</asrwt>
<pdfrwt beam="1">0</pdfrwt>
<pdfrwt beam="2">  1        2 0.39309335E+00 0.65757264E+03</pdfrwt>
<totfact> 0.42244115E+00</totfact>
</mgrwt>
</event>
<event>
 5    1  0.2357694E-004  0.6725358E+03  0.7818608E-02  0.9765388E-01
         13   -1    0    0    0    0  0.00000000000E+00  0.00000000000E+00  0.10000000000E+04  0.10000000000E+04  0.00000000000E+00 0. -1.
          2   -1    0    0  501    0 -0.00000000000E+00 -0.00000000000E+00 -0.11307608571E+03  0.11307608571E+03  0.00000000000E+00 0. -1.
    9000006    2    1    2  501    0  0.00000000000E+00  0.00000000000E+00  0.88692391429E+03  0.11130760857E+04  0.67253575580E+03 0.  0.
         13    1    3    3    0    0 -0.28492040436E+03  0.11807652374E+03  0.66522783353E+03  0.73324605200E+03  0.00000000000E+00 0. -1.
          2    1    3    3  501    0  0.28492040436E+03 -0.11807652374E+03  0.22169608076E+03  0.37983003370E+03  0.00000000000E+00 0. -1.
<mgrwt>
<rscale>  0 0.67253576E+03</rscale>
<asrwt>0</asrwt>
<pdfrwt beam="1">0</pdfrwt>
<pdfrwt beam="2">  1        2 0.41118663E+00 0.67253576E+03</pdfrwt>
<totfact> 0.36077233E+00</totfact>
</mgrwt>
</event>
<event>
 5    1  0.2357694E-004  0.6605674E+03  0.7818608E-02  0.9787150E-01
         13   -1    0    0    0    0  0.00000000000E+00  0.00000000000E+00  0.10000000000E+04  0.10000000000E+04  0.00000000000E+00 0. -1.
          2   -1    0    0  501    0 -0.00000000000E+00 -0.00000000000E+00 -0.10908730836E+03  0.10908730836E+03  0.00000000000E+00 0. -1.
    9000006    2    1    2  501    0  0.00000000000E+00  0.00000000000E+00  0.89091269164E+03  0.11090873084E+04  0.66056735723E+03 0.  0.
         13    1    3    3    0    0  0.34707857458E+02 -0.60067829137E+02 -0.96716478137E+02  0.11902460506E+03  0.00000000000E+00 0. -1.
          2    1    3    3  501    0 -0.34707857458E+02  0.60067829137E+02  0.98762916978E+03  0.99006270330E+03  0.00000000000E+00 0. -1.
<mgrwt>
<rscale>  0 0.66056736E+03</rscale>
<asrwt>0</asrwt>
<pdfrwt beam="1">0</pdfrwt>
<pdfrwt beam="2">  1        2 0.39668196E+00 0.66056736E+03</pdfrwt>
<totfact> 0.40950654E+00</totfact>
</mgrwt>
</event>
<event>
 5    1  0.2357694E-004  0.6619530E+03  0.7818608E-02  0.9784605E-01
         13   -1    0    0    0    0  0.00000000000E+00  0.00000000000E+00  0.10000000000E+04  0.10000000000E+04  0.00000000000E+00 0. -1.
          2   -1    0    0  501    0 -0.00000000000E+00 -0.00000000000E+00 -0.10954542985E+03  0.10954542985E+03  0.00000000000E+00 0. -1.
    9000006    2    1    2  501    0  0.00000000000E+00  0.00000000000E+00  0.89045457015E+03  0.11095454298E+04  0.66195295859E+03 0.  0.
         13    1    3    3    0    0 -0.24853897112E+03  0.31454054983E+02  0.82676595708E+02  0.26381129092E+03  0.00000000000E+00 0. -1.
          4    1    3    3  501    0  0.24853897112E+03 -0.31454054983E+02  0.80777797445E+03  0.84573413892E+03  0.00000000000E+00 0. -1.
<mgrwt>
<rscale>  0 0.66195296E+03</rscale>
<asrwt>0</asrwt>
<pdfrwt beam="1">0</pdfrwt>
<pdfrwt beam="2">  1        2 0.39834786E+00 0.66195296E+03</pdfrwt>
<totfact> 0.40362426E+00</totfact>
</mgrwt>
</event>
<event>
 5    1  0.2357694E-004  0.6471380E+03  0.7818608E-02  0.9812164E-01
         13   -1    0    0    0    0  0.00000000000E+00  0.00000000000E+00  0.10000000000E+04  0.10000000000E+04  0.00000000000E+00 0. -1.
          2   -1    0    0  501    0 -0.00000000000E+00 -0.00000000000E+00 -0.10469689573E+03  0.10469689573E+03  0.00000000000E+00 0. -1.
    9000006    2    1    2  501    0  0.00000000000E+00  0.00000000000E+00  0.89530310427E+03  0.11046968957E+04  0.64713799373E+03 0.  0.
         13    1    3    3    0    0 -0.30948706766E+03 -0.69184574728E+02  0.33797249128E+03  0.46345890356E+03  0.00000000000E+00 0. -1.
          2    1    3    3  501    0  0.30948706766E+03  0.69184574728E+02  0.55733061299E+03  0.64123799217E+03  0.00000000000E+00 0. -1.
<mgrwt>
<rscale>  0 0.64713799E+03</rscale>
<asrwt>0</asrwt>
<pdfrwt beam="1">0</pdfrwt>
<pdfrwt beam="2">  1        2 0.38071679E+00 0.64713799E+03</pdfrwt>
<totfact> 0.46993684E+00</totfact>
</mgrwt>
</event>
<event>
 5    1  0.2357694E-004  0.6477521E+03  0.7818608E-02  0.9811006E-01
         13   -1    0    0    0    0  0.00000000000E+00  0.00000000000E+00  0.10000000000E+04  0.10000000000E+04  0.00000000000E+00 0. -1.
          2   -1    0    0  501    0 -0.00000000000E+00 -0.00000000000E+00 -0.10489568383E+03  0.10489568383E+03  0.00000000000E+00 0. -1.
    9000006    2    1    2  501    0  0.00000000000E+00  0.00000000000E+00  0.89510431617E+03  0.11048956838E+04  0.64775206314E+03 0.  0.
         13    1    3    3    0    0 -0.16595121296E+03 -0.51095140343E+02  0.91389361556E+03  0.93024301073E+03  0.00000000000E+00 0. -1.
          2    1    3    3  501    0  0.16595121296E+03  0.51095140343E+02 -0.18789299384E+02  0.17465267310E+03  0.00000000000E+00 0. -1.
<mgrwt>
<rscale>  0 0.64775206E+03</rscale>
<asrwt>0</asrwt>
<pdfrwt beam="1">0</pdfrwt>
<pdfrwt beam="2">  1        2 0.38143965E+00 0.64775206E+03</pdfrwt>
<totfact> 0.46703503E+00</totfact>
</mgrwt>
</event>
<event>
 5    1  0.2357694E-004  0.6325439E+03  0.7818608E-02  0.9840097E-01
         13   -1    0    0    0    0  0.00000000000E+00  0.00000000000E+00  0.10000000000E+04  0.10000000000E+04  0.00000000000E+00 0. -1.
          2   -1    0    0  501    0 -0.00000000000E+00 -0.00000000000E+00 -0.10002793953E+03  0.10002793953E+03  0.00000000000E+00 0. -1.
    9000006    2    1    2  501    0  0.00000000000E+00  0.00000000000E+00  0.89997206047E+03  0.11000279395E+04  0.63254387841E+03 0.  0.
         13    1    3    3    0    0 -0.26872078499E+03  0.16069765173E+03  0.37234269501E+03  0.48649119014E+03  0.00000000000E+00 0. -1.
          4    1    3    3  501    0  0.26872078499E+03 -0.16069765173E+03  0.52762936546E+03  0.61353674939E+03  0.00000000000E+00 0. -1.
<mgrwt>
<rscale>  0 0.63254388E+03</rscale>
<asrwt>0</asrwt>
<pdfrwt beam="1">0</pdfrwt>
<pdfrwt beam="2">  1        2 0.36373873E+00 0.63254388E+03</pdfrwt>
<totfact> 0.54301528E+00</totfact>
</mgrwt>
</event>
<event>
 5    1  0.2357694E-004  0.6513249E+03  0.7818608E-02  0.9804296E-01
         13   -1    0    0    0    0  0.00000000000E+00  0.00000000000E+00  0.10000000000E+04  0.10000000000E+04  0.00000000000E+00 0. -1.
          2   -1    0    0  501    0 -0.00000000000E+00 -0.00000000000E+00 -0.10605603149E+03  0.10605603149E+03  0.00000000000E+00 0. -1.
    9000006    2    1    2  501    0  0.00000000000E+00  0.00000000000E+00  0.89394396851E+03  0.11060560315E+04  0.65132490047E+03 0.  0.
         13    1    3    3    0    0 -0.14594774129E+03 -0.26635782729E+03  0.64652456823E+03  0.71431173354E+03  0.00000000000E+00 0. -1.
          2    1    3    3  501    0  0.14594774129E+03  0.26635782729E+03  0.24741940027E+03  0.39174429795E+03  0.00000000000E+00 0. -1.
<mgrwt>
<rscale>  0 0.65132490E+03</rscale>
<asrwt>0</asrwt>
<pdfrwt beam="1">0</pdfrwt>
<pdfrwt beam="2">  1        2 0.38565911E+00 0.65132490E+03</pdfrwt>
<totfact> 0.45041916E+00</totfact>
</mgrwt>
</event>
<event>
 5    1  0.2357694E-004  0.6631501E+03  0.7818608E-02  0.9782412E-01
         13   -1    0    0    0    0  0.00000000000E+00  0.00000000000E+00  0.10000000000E+04  0.10000000000E+04  0.00000000000E+00 0. -1.
          2   -1    0    0  501    0 -0.00000000000E+00 -0.00000000000E+00 -0.10994201475E+03  0.10994201475E+03  0.00000000000E+00 0. -1.
    9000006    2    1    2  501    0  0.00000000000E+00  0.00000000000E+00  0.89005798525E+03  0.11099420147E+04  0.66315010290E+03 0.  0.
         13    1    3    3    0    0 -0.25326838545E+03  0.11525527037E+03  0.14322888406E+03  0.31295872834E+03  0.00000000000E+00 0. -1.
          4    1    3    3  501    0  0.25326838545E+03 -0.11525527037E+03  0.74682910119E+03  0.79698328640E+03  0.00000000000E+00 0. -1.
<mgrwt>
<rscale>  0 0.66315010E+03</rscale>
<asrwt>0</asrwt>
<pdfrwt beam="1">0</pdfrwt>
<pdfrwt beam="2">  1        2 0.39978999E+00 0.66315010E+03</pdfrwt>
<totfact> 0.39859356E+00</totfact>
</mgrwt>
</event>
<event>
 5    1  0.2357694E-004  0.6815915E+03  0.7818608E-02  0.9749242E-01
         13   -1    0    0    0    0  0.00000000000E+00  0.00000000000E+00  0.10000000000E+04  0.10000000000E+04  0.00000000000E+00 0. -1.
          2   -1    0    0  501    0 -0.00000000000E+00 -0.00000000000E+00 -0.11614173935E+03  0.11614173935E+03  0.00000000000E+00 0. -1.
    9000006    2    1    2  501    0  0.00000000000E+00  0.00000000000E+00  0.88385826065E+03  0.11161417393E+04  0.68159148865E+03 0.  0.
         13    1    3    3    0    0 -0.10240770497E+03 -0.32367708977E+03  0.39314373147E+03  0.51943834097E+03  0.00000000000E+00 0. -1.
          2    1    3    3  501    0  0.10240770497E+03  0.32367708977E+03  0.49071452918E+03  0.59670339838E+03  0.00000000000E+00 0. -1.
<mgrwt>
<rscale>  0 0.68159149E+03</rscale>
<asrwt>0</asrwt>
<pdfrwt beam="1">0</pdfrwt>
<pdfrwt beam="2">  1        2 0.42233449E+00 0.68159149E+03</pdfrwt>
<totfact> 0.32690994E+00</totfact>
</mgrwt>
</event>
<event>
 5    1  0.2357694E-004  0.6434974E+03  0.7818608E-02  0.9819058E-01
         13   -1    0    0    0    0  0.00000000000E+00  0.00000000000E+00  0.10000000000E+04  0.10000000000E+04  0.00000000000E+00 0. -1.
          2   -1    0    0  501    0 -0.00000000000E+00 -0.00000000000E+00 -0.10352223260E+03  0.10352223260E+03  0.00000000000E+00 0. -1.
    9000006    2    1    2  501    0  0.00000000000E+00  0.00000000000E+00  0.89647776740E+03  0.11035222326E+04  0.64349742067E+03 0.  0.
         13    1    3    3    0    0 -0.27518983140E+03 -0.95050615597E+02  0.21336782365E+03  0.36095691017E+03  0.00000000000E+00 0. -1.
          2    1    3    3  501    0  0.27518983140E+03  0.95050615597E+02  0.68310994375E+03  0.74256532244E+03  0.00000000000E+00 0. -1.
<mgrwt>
<rscale>  0 0.64349742E+03</rscale>
<asrwt>0</asrwt>
<pdfrwt beam="1">0</pdfrwt>
<pdfrwt beam="2">  1        2 0.37644528E+00 0.64349742E+03</pdfrwt>
<totfact> 0.48742167E+00</totfact>
</mgrwt>
</event>
<event>
 5    1  0.2357694E-004  0.6455739E+03  0.7818608E-02  0.9815120E-01
         13   -1    0    0    0    0  0.00000000000E+00  0.00000000000E+00  0.10000000000E+04  0.10000000000E+04  0.00000000000E+00 0. -1.
          2   -1    0    0  501    0 -0.00000000000E+00 -0.00000000000E+00 -0.10419141691E+03  0.10419141691E+03  0.00000000000E+00 0. -1.
    9000006    2    1    2  501    0  0.00000000000E+00  0.00000000000E+00  0.89580858309E+03  0.11041914169E+04  0.64557390565E+03 0.  0.
         13    1    3    3    0    0 -0.16001409849E+03  0.10777415300E+03  0.52712223544E+01  0.19299628379E+03  0.00000000000E+00 0. -1.
          2    1    3    3  501    0  0.16001409849E+03 -0.10777415300E+03  0.89053736073E+03  0.91119513313E+03  0.00000000000E+00 0. -1.
<mgrwt>
<rscale>  0 0.64557391E+03</rscale>
<asrwt>0</asrwt>
<pdfrwt beam="1">0</pdfrwt>
<pdfrwt beam="2">  1        2 0.37887868E+00 0.64557391E+03</pdfrwt>
<totfact> 0.47738961E+00</totfact>
</mgrwt>
</event>
<event>
 5    1  0.2357694E-004  0.6285573E+03  0.7818608E-02  0.9847868E-01
         13   -1    0    0    0    0  0.00000000000E+00  0.00000000000E+00  0.10000000000E+04  0.10000000000E+04  0.00000000000E+00 0. -1.
          2   -1    0    0  501    0 -0.00000000000E+00 -0.00000000000E+00 -0.98771058795E+02  0.98771058795E+02  0.00000000000E+00 0. -1.
    9000006    2    1    2  501    0  0.00000000000E+00  0.00000000000E+00  0.90122894120E+03  0.10987710588E+04  0.62855726484E+03 0.  0.
         13    1    3    3    0    0 -0.13238624314E+03  0.11933955567E+03  0.90310503145E+03  0.92052525482E+03  0.00000000000E+00 0. -1.
          4    1    3    3  501    0  0.13238624314E+03 -0.11933955567E+03 -0.18760902490E+01  0.17824580398E+03  0.00000000000E+00 0. -1.
<mgrwt>
<rscale>  0 0.62855726E+03</rscale>
<asrwt>0</asrwt>
<pdfrwt beam="1">0</pdfrwt>
<pdfrwt beam="2">  1        2 0.35916824E+00 0.62855726E+03</pdfrwt>
<totfact> 0.56439705E+00</totfact>
</mgrwt>
</event>
<event>
 5    1  0.2357694E-004  0.6529737E+03  0.7818608E-02  0.9801215E-01
         13   -1    0    0    0    0  0.00000000000E+00  0.00000000000E+00  0.10000000000E+04  0.10000000000E+04  0.00000000000E+00 0. -1.
          2   -1    0    0  501    0 -0.00000000000E+00 -0.00000000000E+00 -0.10659367884E+03  0.10659367884E+03  0.00000000000E+00 0. -1.
    9000006    2    1    2  501    0  0.00000000000E+00  0.00000000000E+00  0.89340632116E+03  0.11065936788E+04  0.65297374784E+03 0.  0.
         13    1    3    3    0    0  0.22103177274E+03  0.10822059588E+03  0.81028191764E+03  0.84683146374E+03  0.00000000000E+00 0. -1.
          4    1    3    3  501    0 -0.22103177274E+03 -0.10822059588E+03  0.83124403523E+02  0.25976221510E+03  0.00000000000E+00 0. -1.
<mgrwt>
<rscale>  0 0.65297375E+03</rscale>
<asrwt>0</asrwt>
<pdfrwt beam="1">0</pdfrwt>
<pdfrwt beam="2">  1        2 0.38761419E+00 0.65297375E+03</pdfrwt>
<totfact> 0.44290349E+00</totfact>
</mgrwt>
</event>
<event>
 5    1  0.2357694E-004  0.6519121E+03  0.7818608E-02  0.9803198E-01
         13   -1    0    0    0    0  0.00000000000E+00  0.00000000000E+00  0.10000000000E+04  0.10000000000E+04  0.00000000000E+00 0. -1.
          2   -1    0    0  501    0 -0.00000000000E+00 -0.00000000000E+00 -0.10624736263E+03  0.10624736263E+03  0.00000000000E+00 0. -1.
    9000006    2    1    2  501    0  0.00000000000E+00  0.00000000000E+00  0.89375263737E+03  0.11062473626E+04  0.65191214940E+03 0.  0.
         13    1    3    3    0    0  0.14031061399E+03 -0.12172802906E+03 -0.76422939208E+01  0.18591176971E+03  0.00000000000E+00 0. -1.
          2    1    3    3  501    0 -0.14031061399E+03  0.12172802906E+03  0.90139493129E+03  0.92033559293E+03  0.00000000000E+00 0. -1.
<mgrwt>
<rscale>  0 0.65191215E+03</rscale>
<asrwt>0</asrwt>
<pdfrwt beam="1">0</pdfrwt>
<pdfrwt beam="2">  1        2 0.38635486E+00 0.65191215E+03</pdfrwt>
<totfact> 0.44773144E+00</totfact>
</mgrwt>
</event>
<event>
 5    1  0.2357694E-004  0.6388145E+03  0.7818608E-02  0.9827997E-01
         13   -1    0    0    0    0  0.00000000000E+00  0.00000000000E+00  0.10000000000E+04  0.10000000000E+04  0.00000000000E+00 0. -1.
          2   -1    0    0  501    0 -0.00000000000E+00 -0.00000000000E+00 -0.10202099969E+03  0.10202099969E+03  0.00000000000E+00 0. -1.
    9000006    2    1    2  501    0  0.00000000000E+00  0.00000000000E+00  0.89797900031E+03  0.11020209997E+04  0.63881452610E+03 0.  0.
         13    1    3    3    0    0 -0.18171026555E+03  0.82917463546E+02  0.87897670749E+03  0.90138447883E+03  0.00000000000E+00 0. -1.
          4    1    3    3  501    0  0.18171026555E+03 -0.82917463546E+02  0.19002292820E+02  0.20063652085E+03  0.00000000000E+00 0. -1.
<mgrwt>
<rscale>  0 0.63881453E+03</rscale>
<asrwt>0</asrwt>
<pdfrwt beam="1">0</pdfrwt>
<pdfrwt beam="2">  1        2 0.37098624E+00 0.63881453E+03</pdfrwt>
<totfact> 0.51063322E+00</totfact>
</mgrwt>
</event>
<event>
 5    1  0.2357694E-004  0.6611969E+03  0.7818608E-02  0.9785993E-01
         13   -1    0    0    0    0  0.00000000000E+00  0.00000000000E+00  0.10000000000E+04  0.10000000000E+04  0.00000000000E+00 0. -1.
          2   -1    0    0  501    0 -0.00000000000E+00 -0.00000000000E+00 -0.10929532823E+03  0.10929532823E+03  0.00000000000E+00 0. -1.
    9000006    2    1    2  501    0  0.00000000000E+00  0.00000000000E+00  0.89070467177E+03  0.11092953282E+04  0.66119687908E+03 0.  0.
         13    1    3    3    0    0  0.37871871020E+02  0.20186289113E+03  0.87998048227E+03  0.90363076232E+03  0.00000000000E+00 0. -1.
          2    1    3    3  501    0 -0.37871871020E+02 -0.20186289113E+03  0.10724189506E+02  0.20566456591E+03  0.00000000000E+00 0. -1.
<mgrwt>
<rscale>  0 0.66119688E+03</rscale>
<asrwt>0</asrwt>
<pdfrwt beam="1">0</pdfrwt>
<pdfrwt beam="2">  1        2 0.39743840E+00 0.66119688E+03</pdfrwt>
<totfact> 0.40682607E+00</totfact>
</mgrwt>
</event>
<event>
 5    1  0.2357694E-004  0.6460062E+03  0.7818608E-02  0.9814302E-01
         13   -1    0    0    0    0  0.00000000000E+00  0.00000000000E+00  0.10000000000E+04  0.10000000000E+04  0.00000000000E+00 0. -1.
          4   -1    0    0  501    0 -0.00000000000E+00 -0.00000000000E+00 -0.10433099313E+03  0.10433099313E+03  0.00000000000E+00 0. -1.
    9000006    2    1    2  501    0  0.00000000000E+00  0.00000000000E+00  0.89566900687E+03  0.11043309931E+04  0.64600617066E+03 0.  0.
         13    1    3    3    0    0  0.27042006058E+02  0.10581309960E+03  0.96747903455E+03  0.97362383107E+03  0.00000000000E+00 0. -1.
          2    1    3    3  501    0 -0.27042006058E+02 -0.10581309960E+03 -0.71810027684E+02  0.13070716206E+03  0.00000000000E+00 0. -1.
<mgrwt>
<rscale>  0 0.64600617E+03</rscale>
<asrwt>0</asrwt>
<pdfrwt beam="1">0</pdfrwt>
<pdfrwt beam="2">  1        4 0.37938623E+00 0.64600617E+03</pdfrwt>
<totfact> 0.44292358E-02</totfact>
</mgrwt>
</event>
<event>
 5    1  0.2357694E-004  0.6516235E+03  0.7818608E-02  0.9803738E-01
         13   -1    0    0    0    0  0.00000000000E+00  0.00000000000E+00  0.10000000000E+04  0.10000000000E+04  0.00000000000E+00 0. -1.
          2   -1    0    0  501    0 -0.00000000000E+00 -0.00000000000E+00 -0.10615328546E+03  0.10615328546E+03  0.00000000000E+00 0. -1.
    9000006    2    1    2  501    0  0.00000000000E+00  0.00000000000E+00  0.89384671454E+03  0.11061532855E+04  0.65162346630E+03 0.  0.
         13    1    3    3    0    0  0.25087893721E+03 -0.11045376239E+03  0.74586785359E+03  0.79464402709E+03  0.00000000000E+00 0. -1.
          4    1    3    3  501    0 -0.25087893721E+03  0.11045376239E+03  0.14797886095E+03  0.31150925837E+03  0.00000000000E+00 0. -1.
<mgrwt>
<rscale>  0 0.65162347E+03</rscale>
<asrwt>0</asrwt>
<pdfrwt beam="1">0</pdfrwt>
<pdfrwt beam="2">  1        2 0.38601276E+00 0.65162347E+03</pdfrwt>
<totfact> 0.44905116E+00</totfact>
</mgrwt>
</event>
<event>
 5    1  0.2357694E-004  0.6453639E+03  0.7818608E-02  0.9815518E-01
         13   -1    0    0    0    0  0.00000000000E+00  0.00000000000E+00  0.10000000000E+04  0.10000000000E+04  0.00000000000E+00 0. -1.
          2   -1    0    0  501    0 -0.00000000000E+00 -0.00000000000E+00 -0.10412362604E+03  0.10412362604E+03  0.00000000000E+00 0. -1.
    9000006    2    1    2  501    0  0.00000000000E+00  0.00000000000E+00  0.89587637396E+03  0.11041236260E+04  0.64536385409E+03 0.  0.
         13    1    3    3    0    0  0.11426310119E+03  0.40670698090E+02  0.95951932753E+03  0.96715433198E+03  0.00000000000E+00 0. -1.
          4    1    3    3  501    0 -0.11426310119E+03 -0.40670698090E+02 -0.63642953570E+02  0.13696929406E+03  0.00000000000E+00 0. -1.
<mgrwt>
<rscale>  0 0.64536385E+03</rscale>
<asrwt>0</asrwt>
<pdfrwt beam="1">0</pdfrwt>
<pdfrwt beam="2">  1        2 0.37863217E+00 0.64536385E+03</pdfrwt>
<totfact> 0.47839726E+00</totfact>
</mgrwt>
</event>
<event>
 5    1  0.2357694E-004  0.6539400E+03  0.7818608E-02  0.9799414E-01
         13   -1    0    0    0    0  0.00000000000E+00  0.00000000000E+00  0.10000000000E+04  0.10000000000E+04  0.00000000000E+00 0. -1.
          2   -1    0    0  501    0 -0.00000000000E+00 -0.00000000000E+00 -0.10690937104E+03  0.10690937104E+03  0.00000000000E+00 0. -1.
    9000006    2    1    2  501    0  0.00000000000E+00  0.00000000000E+00  0.89309062896E+03  0.11069093710E+04  0.65393996984E+03 0.  0.
         13    1    3    3    0    0  0.19678957777E+03  0.71511747433E+02  0.87163757433E+03  0.89643300303E+03  0.00000000000E+00 0. -1.
          2    1    3    3  501    0 -0.19678957777E+03 -0.71511747433E+02  0.21453054635E+02  0.21047636801E+03  0.00000000000E+00 0. -1.
<mgrwt>
<rscale>  0 0.65393997E+03</rscale>
<asrwt>0</asrwt>
<pdfrwt beam="1">0</pdfrwt>
<pdfrwt beam="2">  1        2 0.38876217E+00 0.65393997E+03</pdfrwt>
<totfact> 0.43854358E+00</totfact>
</mgrwt>
</event>
<event>
 5    1  0.2357694E-004  0.6458720E+03  0.7818608E-02  0.9814556E-01
         13   -1    0    0    0    0  0.00000000000E+00  0.00000000000E+00  0.10000000000E+04  0.10000000000E+04  0.00000000000E+00 0. -1.
          2   -1    0    0  501    0 -0.00000000000E+00 -0.00000000000E+00 -0.10428764438E+03  0.10428764438E+03  0.00000000000E+00 0. -1.
    9000006    2    1    2  501    0  0.00000000000E+00  0.00000000000E+00  0.89571235562E+03  0.11042876444E+04  0.64587195133E+03 0.  0.
         13    1    3    3    0    0 -0.46053959428E+02 -0.31910914258E+03  0.47919814967E+03  0.57756599510E+03  0.00000000000E+00 0. -1.
          2    1    3    3  501    0  0.46053959428E+02  0.31910914258E+03  0.41651420595E+03  0.52672164927E+03  0.00000000000E+00 0. -1.
<mgrwt>
<rscale>  0 0.64587195E+03</rscale>
<asrwt>0</asrwt>
<pdfrwt beam="1">0</pdfrwt>
<pdfrwt beam="2">  1        2 0.37922860E+00 0.64587195E+03</pdfrwt>
<totfact> 0.47596259E+00</totfact>
</mgrwt>
</event>
<event>
 5    1  0.2357694E-004  0.6482732E+03  0.7818608E-02  0.9810025E-01
         13   -1    0    0    0    0  0.00000000000E+00  0.00000000000E+00  0.10000000000E+04  0.10000000000E+04  0.00000000000E+00 0. -1.
          2   -1    0    0  501    0 -0.00000000000E+00 -0.00000000000E+00 -0.10506452033E+03  0.10506452033E+03  0.00000000000E+00 0. -1.
    9000006    2    1    2  501    0  0.00000000000E+00  0.00000000000E+00  0.89493547967E+03  0.11050645203E+04  0.64827315331E+03 0.  0.
         13    1    3    3    0    0 -0.31641765549E+03  0.70300850100E+02  0.44998349349E+03  0.55456964093E+03  0.00000000000E+00 0. -1.
          2    1    3    3  501    0  0.31641765549E+03 -0.70300850100E+02  0.44495198618E+03  0.55049487939E+03  0.00000000000E+00 0. -1.
<mgrwt>
<rscale>  0 0.64827315E+03</rscale>
<asrwt>0</asrwt>
<pdfrwt beam="1">0</pdfrwt>
<pdfrwt beam="2">  1        2 0.38205361E+00 0.64827315E+03</pdfrwt>
<totfact> 0.46458324E+00</totfact>
</mgrwt>
</event>
<event>
 5    1  0.2357694E-004  0.6468612E+03  0.7818608E-02  0.9812687E-01
         13   -1    0    0    0    0  0.00000000000E+00  0.00000000000E+00  0.10000000000E+04  0.10000000000E+04  0.00000000000E+00 0. -1.
          2   -1    0    0  501    0 -0.00000000000E+00 -0.00000000000E+00 -0.10460734154E+03  0.10460734154E+03  0.00000000000E+00 0. -1.
    9000006    2    1    2  501    0  0.00000000000E+00  0.00000000000E+00  0.89539265846E+03  0.11046073415E+04  0.64686116453E+03 0.  0.
         13    1    3    3    0    0  0.16520828731E+03 -0.27088780045E+03  0.55479371168E+03  0.63911660998E+03  0.00000000000E+00 0. -1.
          4    1    3    3  501    0 -0.16520828731E+03  0.27088780045E+03  0.34059894678E+03  0.46549073157E+03  0.00000000000E+00 0. -1.
<mgrwt>
<rscale>  0 0.64686116E+03</rscale>
<asrwt>0</asrwt>
<pdfrwt beam="1">0</pdfrwt>
<pdfrwt beam="2">  1        2 0.38039114E+00 0.64686116E+03</pdfrwt>
<totfact> 0.47124945E+00</totfact>
</mgrwt>
</event>
<event>
 5    1  0.2357694E-004  0.6522902E+03  0.7818608E-02  0.9802491E-01
         13   -1    0    0    0    0  0.00000000000E+00  0.00000000000E+00  0.10000000000E+04  0.10000000000E+04  0.00000000000E+00 0. -1.
          2   -1    0    0  501    0 -0.00000000000E+00 -0.00000000000E+00 -0.10637062125E+03  0.10637062125E+03  0.00000000000E+00 0. -1.
    9000006    2    1    2  501    0  0.00000000000E+00  0.00000000000E+00  0.89362937875E+03  0.11063706212E+04  0.65229018465E+03 0.  0.
         13    1    3    3    0    0  0.91103700694E+02  0.36994195166E+02  0.97426055615E+03  0.97920992950E+03  0.00000000000E+00 0. -1.
          4    1    3    3  501    0 -0.91103700694E+02 -0.36994195166E+02 -0.80631177403E+02  0.12716069175E+03  0.00000000000E+00 0. -1.
<mgrwt>
<rscale>  0 0.65229018E+03</rscale>
<asrwt>0</asrwt>
<pdfrwt beam="1">0</pdfrwt>
<pdfrwt beam="2">  1        2 0.38680307E+00 0.65229018E+03</pdfrwt>
<totfact> 0.44600767E+00</totfact>
</mgrwt>
</event>
<event>
 5    1  0.2357694E-004  0.6469090E+03  0.7818608E-02  0.9812597E-01
         13   -1    0    0    0    0  0.00000000000E+00  0.00000000000E+00  0.10000000000E+04  0.10000000000E+04  0.00000000000E+00 0. -1.
          2   -1    0    0  501    0 -0.00000000000E+00 -0.00000000000E+00 -0.10462281012E+03  0.10462281012E+03  0.00000000000E+00 0. -1.
    9000006    2    1    2  501    0  0.00000000000E+00  0.00000000000E+00  0.89537718988E+03  0.11046228101E+04  0.64690898935E+03 0.  0.
         13    1    3    3    0    0  0.13176627834E+03  0.26037343325E+03  0.20945079647E+03  0.35920232877E+03  0.00000000000E+00 0. -1.
          2    1    3    3  501    0 -0.13176627834E+03 -0.26037343325E+03  0.68592639341E+03  0.74542048136E+03  0.00000000000E+00 0. -1.
<mgrwt>
<rscale>  0 0.64690899E+03</rscale>
<asrwt>0</asrwt>
<pdfrwt beam="1">0</pdfrwt>
<pdfrwt beam="2">  1        2 0.38044738E+00 0.64690899E+03</pdfrwt>
<totfact> 0.47102249E+00</totfact>
</mgrwt>
</event>
<event>
 5    1  0.2357694E-004  0.6163269E+03  0.7818608E-02  0.9872100E-01
         13   -1    0    0    0    0  0.00000000000E+00  0.00000000000E+00  0.10000000000E+04  0.10000000000E+04  0.00000000000E+00 0. -1.
          2   -1    0    0  501    0 -0.00000000000E+00 -0.00000000000E+00 -0.94964709708E+02  0.94964709708E+02  0.00000000000E+00 0. -1.
    9000006    2    1    2  501    0  0.00000000000E+00  0.00000000000E+00  0.90503529029E+03  0.10949647097E+04  0.61632689284E+03 0.  0.
         13    1    3    3    0    0  0.71995900100E+02  0.16132162235E+03  0.39254685893E+01  0.17670168299E+03  0.00000000000E+00 0. -1.
          2    1    3    3  501    0 -0.71995900100E+02 -0.16132162235E+03  0.90110982170E+03  0.91826302672E+03  0.00000000000E+00 0. -1.
<mgrwt>
<rscale>  0 0.61632689E+03</rscale>
<asrwt>0</asrwt>
<pdfrwt beam="1">0</pdfrwt>
<pdfrwt beam="2">  1        2 0.34532695E+00 0.61632689E+03</pdfrwt>
<totfact> 0.63400953E+00</totfact>
</mgrwt>
</event>
<event>
 5    1  0.2357694E-004  0.6510915E+03  0.7818608E-02  0.9804733E-01
         13   -1    0    0    0    0  0.00000000000E+00  0.00000000000E+00  0.10000000000E+04  0.10000000000E+04  0.00000000000E+00 0. -1.
          2   -1    0    0  501    0 -0.00000000000E+00 -0.00000000000E+00 -0.10598002303E+03  0.10598002303E+03  0.00000000000E+00 0. -1.
    9000006    2    1    2  501    0  0.00000000000E+00  0.00000000000E+00  0.89401997697E+03  0.11059800230E+04  0.65109146218E+03 0.  0.
         13    1    3    3    0    0 -0.75192480010E+02 -0.93243439958E+02  0.96120555941E+03  0.96864047799E+03  0.00000000000E+00 0. -1.
          4    1    3    3  501    0  0.75192480010E+02  0.93243439958E+02 -0.67185582445E+02  0.13733954505E+03  0.00000000000E+00 0. -1.
<mgrwt>
<rscale>  0 0.65109146E+03</rscale>
<asrwt>0</asrwt>
<pdfrwt beam="1">0</pdfrwt>
<pdfrwt beam="2">  1        2 0.38538271E+00 0.65109146E+03</pdfrwt>
<totfact> 0.45149094E+00</totfact>
</mgrwt>
</event>
<event>
 5    1  0.2357694E-004  0.6637351E+03  0.7818608E-02  0.9781342E-01
         13   -1    0    0    0    0  0.00000000000E+00  0.00000000000E+00  0.10000000000E+04  0.10000000000E+04  0.00000000000E+00 0. -1.
          2   -1    0    0  501    0 -0.00000000000E+00 -0.00000000000E+00 -0.11013607357E+03  0.11013607357E+03  0.00000000000E+00 0. -1.
    9000006    2    1    2  501    0  0.00000000000E+00  0.00000000000E+00  0.88986392643E+03  0.11101360736E+04  0.66373510852E+03 0.  0.
         13    1    3    3    0    0  0.30579769362E+03 -0.12887381844E+03  0.43837197816E+03  0.54980967774E+03  0.00000000000E+00 0. -1.
          4    1    3    3  501    0 -0.30579769362E+03  0.12887381844E+03  0.45149194827E+03  0.56032639583E+03  0.00000000000E+00 0. -1.
<mgrwt>
<rscale>  0 0.66373511E+03</rscale>
<asrwt>0</asrwt>
<pdfrwt beam="1">0</pdfrwt>
<pdfrwt beam="2">  1        2 0.40049566E+00 0.66373511E+03</pdfrwt>
<totfact> 0.39615250E+00</totfact>
</mgrwt>
</event>
<event>
 5    1  0.2357694E-004  0.6491030E+03  0.7818608E-02  0.9808464E-01
         13   -1    0    0    0    0  0.00000000000E+00  0.00000000000E+00  0.10000000000E+04  0.10000000000E+04  0.00000000000E+00 0. -1.
          2   -1    0    0  501    0 -0.00000000000E+00 -0.00000000000E+00 -0.10533367162E+03  0.10533367162E+03  0.00000000000E+00 0. -1.
    9000006    2    1    2  501    0  0.00000000000E+00  0.00000000000E+00  0.89466632838E+03  0.11053336716E+04  0.64910298604E+03 0.  0.
         13    1    3    3    0    0  0.16425799281E+03 -0.24174267129E+03  0.68763284998E+03  0.74716741343E+03  0.00000000000E+00 0. -1.
          4    1    3    3  501    0 -0.16425799281E+03  0.24174267129E+03  0.20703347840E+03  0.35816625819E+03  0.00000000000E+00 0. -1.
<mgrwt>
<rscale>  0 0.64910299E+03</rscale>
<asrwt>0</asrwt>
<pdfrwt beam="1">0</pdfrwt>
<pdfrwt beam="2">  1        2 0.38303234E+00 0.64910299E+03</pdfrwt>
<totfact> 0.46069888E+00</totfact>
</mgrwt>
</event>
<event>
 5    1  0.2357694E-004  0.6488603E+03  0.7818608E-02  0.9808920E-01
         13   -1    0    0    0    0  0.00000000000E+00  0.00000000000E+00  0.10000000000E+04  0.10000000000E+04  0.00000000000E+00 0. -1.
          2   -1    0    0  501    0 -0.00000000000E+00 -0.00000000000E+00 -0.10525490994E+03  0.10525490994E+03  0.00000000000E+00 0. -1.
    9000006    2    1    2  501    0  0.00000000000E+00  0.00000000000E+00  0.89474509006E+03  0.11052549099E+04  0.64886026211E+03 0.  0.
         13    1    3    3    0    0 -0.21023378876E+03  0.23089500369E+03  0.29747363689E+03  0.43127869564E+03  0.00000000000E+00 0. -1.
          2    1    3    3  501    0  0.21023378876E+03 -0.23089500369E+03  0.59727145317E+03  0.67397621430E+03  0.00000000000E+00 0. -1.
<mgrwt>
<rscale>  0 0.64886026E+03</rscale>
<asrwt>0</asrwt>
<pdfrwt beam="1">0</pdfrwt>
<pdfrwt beam="2">  1        2 0.38274593E+00 0.64886026E+03</pdfrwt>
<totfact> 0.46183250E+00</totfact>
</mgrwt>
</event>
<event>
 5    1  0.2357694E-004  0.6261211E+03  0.7818608E-02  0.9852647E-01
         13   -1    0    0    0    0  0.00000000000E+00  0.00000000000E+00  0.10000000000E+04  0.10000000000E+04  0.00000000000E+00 0. -1.
          2   -1    0    0  501    0 -0.00000000000E+00 -0.00000000000E+00 -0.98006920092E+02  0.98006920092E+02  0.00000000000E+00 0. -1.
    9000006    2    1    2  501    0  0.00000000000E+00  0.00000000000E+00  0.90199307991E+03  0.10980069201E+04  0.62612113873E+03 0.  0.
         13    1    3    3    0    0  0.24293124954E+03  0.16169516367E+03  0.25223575386E+03  0.38572502315E+03  0.00000000000E+00 0. -1.
          2    1    3    3  501    0 -0.24293124954E+03 -0.16169516367E+03  0.64975732605E+03  0.71228189694E+03  0.00000000000E+00 0. -1.
<mgrwt>
<rscale>  0 0.62612114E+03</rscale>
<asrwt>0</asrwt>
<pdfrwt beam="1">0</pdfrwt>
<pdfrwt beam="2">  1        2 0.35638955E+00 0.62612114E+03</pdfrwt>
<totfact> 0.57777426E+00</totfact>
</mgrwt>
</event>
<event>
 5    1  0.2357694E-004  0.6245209E+03  0.7818608E-02  0.9855800E-01
         13   -1    0    0    0    0  0.00000000000E+00  0.00000000000E+00  0.10000000000E+04  0.10000000000E+04  0.00000000000E+00 0. -1.
          2   -1    0    0  501    0 -0.00000000000E+00 -0.00000000000E+00 -0.97506586768E+02  0.97506586768E+02  0.00000000000E+00 0. -1.
    9000006    2    1    2  501    0  0.00000000000E+00  0.00000000000E+00  0.90249341323E+03  0.10975065868E+04  0.62452089402E+03 0.  0.
         13    1    3    3    0    0  0.17391180687E+03 -0.25181989586E+03  0.34223371132E+03  0.45911054189E+03  0.00000000000E+00 0. -1.
          2    1    3    3  501    0 -0.17391180687E+03  0.25181989586E+03  0.56025970192E+03  0.63839604487E+03  0.00000000000E+00 0. -1.
<mgrwt>
<rscale>  0 0.62452089E+03</rscale>
<asrwt>0</asrwt>
<pdfrwt beam="1">0</pdfrwt>
<pdfrwt beam="2">  1        2 0.35457015E+00 0.62452089E+03</pdfrwt>
<totfact> 0.58669229E+00</totfact>
</mgrwt>
</event>
<event>
 5    1  0.2357694E-004  0.6458405E+03  0.7818608E-02  0.9814616E-01
         13   -1    0    0    0    0  0.00000000000E+00  0.00000000000E+00  0.10000000000E+04  0.10000000000E+04  0.00000000000E+00 0. -1.
          2   -1    0    0  501    0 -0.00000000000E+00 -0.00000000000E+00 -0.10427747797E+03  0.10427747797E+03  0.00000000000E+00 0. -1.
    9000006    2    1    2  501    0  0.00000000000E+00  0.00000000000E+00  0.89572252203E+03  0.11042774780E+04  0.64584046937E+03 0.  0.
         13    1    3    3    0    0 -0.19104294545E+03 -0.19450242204E+03  0.15196243396E+03  0.31212366223E+03  0.00000000000E+00 0. -1.
          2    1    3    3  501    0  0.19104294545E+03  0.19450242204E+03  0.74376008807E+03  0.79215381574E+03  0.00000000000E+00 0. -1.
<mgrwt>
<rscale>  0 0.64584047E+03</rscale>
<asrwt>0</asrwt>
<pdfrwt beam="1">0</pdfrwt>
<pdfrwt beam="2">  1        2 0.37919163E+00 0.64584047E+03</pdfrwt>
<totfact> 0.47611317E+00</totfact>
</mgrwt>
</event>
<event>
 5    1  0.2357694E-004  0.6533271E+03  0.7818608E-02  0.9800556E-01
         13   -1    0    0    0    0  0.00000000000E+00  0.00000000000E+00  0.10000000000E+04  0.10000000000E+04  0.00000000000E+00 0. -1.
          2   -1    0    0  501    0 -0.00000000000E+00 -0.00000000000E+00 -0.10670907427E+03  0.10670907427E+03  0.00000000000E+00 0. -1.
    9000006    2    1    2  501    0  0.00000000000E+00  0.00000000000E+00  0.89329092573E+03  0.11067090743E+04  0.65332709808E+03 0.  0.
         13    1    3    3    0    0 -0.18595256836E+03  0.16265537494E+03  0.80866921413E+03  0.84556550696E+03  0.00000000000E+00 0. -1.
          2    1    3    3  501    0  0.18595256836E+03 -0.16265537494E+03  0.84621711602E+02  0.26114356732E+03  0.00000000000E+00 0. -1.
<mgrwt>
<rscale>  0 0.65332710E+03</rscale>
<asrwt>0</asrwt>
<pdfrwt beam="1">0</pdfrwt>
<pdfrwt beam="2">  1        2 0.38803382E+00 0.65332710E+03</pdfrwt>
<totfact> 0.44130528E+00</totfact>
</mgrwt>
</event>
<event>
 5    1  0.2357694E-004  0.6498010E+03  0.7818608E-02  0.9807153E-01
         13   -1    0    0    0    0  0.00000000000E+00  0.00000000000E+00  0.10000000000E+04  0.10000000000E+04  0.00000000000E+00 0. -1.
          2   -1    0    0  501    0 -0.00000000000E+00 -0.00000000000E+00 -0.10556032181E+03  0.10556032181E+03  0.00000000000E+00 0. -1.
    9000006    2    1    2  501    0  0.00000000000E+00  0.00000000000E+00  0.89443967819E+03  0.11055603218E+04  0.64980095971E+03 0.  0.
         13    1    3    3    0    0 -0.97263871752E+02  0.30792691863E+03  0.38632378152E+03  0.50351297116E+03  0.00000000000E+00 0. -1.
          2    1    3    3  501    0  0.97263871752E+02 -0.30792691863E+03  0.50811589667E+03  0.60204735064E+03  0.00000000000E+00 0. -1.
<mgrwt>
<rscale>  0 0.64980096E+03</rscale>
<asrwt>0</asrwt>
<pdfrwt beam="1">0</pdfrwt>
<pdfrwt beam="2">  1        2 0.38385653E+00 0.64980096E+03</pdfrwt>
<totfact> 0.45745080E+00</totfact>
</mgrwt>
</event>
<event>
 5    1  0.2357694E-004  0.6567297E+03  0.7818608E-02  0.9794233E-01
         13   -1    0    0    0    0  0.00000000000E+00  0.00000000000E+00  0.10000000000E+04  0.10000000000E+04  0.00000000000E+00 0. -1.
          2   -1    0    0  501    0 -0.00000000000E+00 -0.00000000000E+00 -0.10782348458E+03  0.10782348458E+03  0.00000000000E+00 0. -1.
    9000006    2    1    2  501    0  0.00000000000E+00  0.00000000000E+00  0.89217651542E+03  0.11078234846E+04  0.65672973005E+03 0.  0.
         13    1    3    3    0    0 -0.88612035747E+02 -0.17663737799E+03  0.37185432044E+01  0.19765293761E+03  0.00000000000E+00 0. -1.
          2    1    3    3  501    0  0.88612035747E+02  0.17663737799E+03  0.88845797221E+03  0.91017054697E+03  0.00000000000E+00 0. -1.
<mgrwt>
<rscale>  0 0.65672973E+03</rscale>
<asrwt>0</asrwt>
<pdfrwt beam="1">0</pdfrwt>
<pdfrwt beam="2">  1        2 0.39208623E+00 0.65672973E+03</pdfrwt>
<totfact> 0.42613702E+00</totfact>
</mgrwt>
</event>
<event>
 5    1  0.2357694E-004  0.6416763E+03  0.7818608E-02  0.9822525E-01
         13   -1    0    0    0    0  0.00000000000E+00  0.00000000000E+00  0.10000000000E+04  0.10000000000E+04  0.00000000000E+00 0. -1.
          2   -1    0    0  501    0 -0.00000000000E+00 -0.00000000000E+00 -0.10293712185E+03  0.10293712185E+03  0.00000000000E+00 0. -1.
    9000006    2    1    2  501    0  0.00000000000E+00  0.00000000000E+00  0.89706287815E+03  0.11029371219E+04  0.64167631047E+03 0.  0.
         13    1    3    3    0    0  0.30711759379E+03 -0.75159259073E+02  0.35490621331E+03  0.47531941985E+03  0.00000000000E+00 0. -1.
          2    1    3    3  501    0 -0.30711759379E+03  0.75159259073E+02  0.54215666483E+03  0.62761770200E+03  0.00000000000E+00 0. -1.
<mgrwt>
<rscale>  0 0.64167631E+03</rscale>
<asrwt>0</asrwt>
<pdfrwt beam="1">0</pdfrwt>
<pdfrwt beam="2">  1        2 0.37431760E+00 0.64167631E+03</pdfrwt>
<totfact> 0.49635102E+00</totfact>
</mgrwt>
</event>
<event>
 5    1  0.2357694E-004  0.5931115E+03  0.7818608E-02  0.9919802E-01
         13   -1    0    0    0    0  0.00000000000E+00  0.00000000000E+00  0.10000000000E+04  0.10000000000E+04  0.00000000000E+00 0. -1.
          2   -1    0    0  501    0 -0.00000000000E+00 -0.00000000000E+00 -0.87945300864E+02  0.87945300864E+02  0.00000000000E+00 0. -1.
    9000006    2    1    2  501    0  0.00000000000E+00  0.00000000000E+00  0.91205469914E+03  0.10879453009E+04  0.59311145956E+03 0.  0.
         13    1    3    3    0    0  0.10103854667E+02 -0.91403346286E+02  0.97318539129E+03  0.97752057033E+03  0.00000000000E+00 0. -1.
          4    1    3    3  501    0 -0.10103854667E+02  0.91403346286E+02 -0.61130692153E+02  0.11042473054E+03  0.00000000000E+00 0. -1.
<mgrwt>
<rscale>  0 0.59311146E+03</rscale>
<asrwt>0</asrwt>
<pdfrwt beam="1">0</pdfrwt>
<pdfrwt beam="2">  1        2 0.31980177E+00 0.59311146E+03</pdfrwt>
<totfact> 0.78401344E+00</totfact>
</mgrwt>
</event>
<event>
 5    1  0.2357694E-004  0.6343185E+03  0.7818608E-02  0.9836658E-01
         13   -1    0    0    0    0  0.00000000000E+00  0.00000000000E+00  0.10000000000E+04  0.10000000000E+04  0.00000000000E+00 0. -1.
          2   -1    0    0  501    0 -0.00000000000E+00 -0.00000000000E+00 -0.10058997533E+03  0.10058997533E+03  0.00000000000E+00 0. -1.
    9000006    2    1    2  501    0  0.00000000000E+00  0.00000000000E+00  0.89941002467E+03  0.11005899753E+04  0.63431845420E+03 0.  0.
         13    1    3    3    0    0 -0.24634249157E+03 -0.15404947765E+02  0.79527703599E+03  0.83269892490E+03  0.00000000000E+00 0. -1.
          4    1    3    3  501    0  0.24634249157E+03  0.15404947765E+02  0.10413298868E+03  0.26789105043E+03  0.00000000000E+00 0. -1.
<mgrwt>
<rscale>  0 0.63431845E+03</rscale>
<asrwt>0</asrwt>
<pdfrwt beam="1">0</pdfrwt>
<pdfrwt beam="2">  1        2 0.36578250E+00 0.63431845E+03</pdfrwt>
<totfact> 0.53369779E+00</totfact>
</mgrwt>
</event>
<event>
 5    1  0.2357694E-004  0.6796319E+03  0.7818608E-02  0.9752713E-01
         13   -1    0    0    0    0  0.00000000000E+00  0.00000000000E+00  0.10000000000E+04  0.10000000000E+04  0.00000000000E+00 0. -1.
          2   -1    0    0  501    0 -0.00000000000E+00 -0.00000000000E+00 -0.11547488976E+03  0.11547488976E+03  0.00000000000E+00 0. -1.
    9000006    2    1    2  501    0  0.00000000000E+00  0.00000000000E+00  0.88452511024E+03  0.11154748898E+04  0.67963192909E+03 0.  0.
         13    1    3    3    0    0 -0.12801675174E+03 -0.69178494078E+02  0.94627821303E+03  0.95740086130E+03  0.00000000000E+00 0. -1.
          4    1    3    3  501    0  0.12801675174E+03  0.69178494078E+02 -0.61753102786E+02  0.15807402846E+03  0.00000000000E+00 0. -1.
<mgrwt>
<rscale>  0 0.67963193E+03</rscale>
<asrwt>0</asrwt>
<pdfrwt beam="1">0</pdfrwt>
<pdfrwt beam="2">  1        2 0.41990958E+00 0.67963193E+03</pdfrwt>
<totfact> 0.33402527E+00</totfact>
</mgrwt>
</event>
<event>
 5    1  0.2357694E-004  0.6475251E+03  0.7818608E-02  0.9811434E-01
         13   -1    0    0    0    0  0.00000000000E+00  0.00000000000E+00  0.10000000000E+04  0.10000000000E+04  0.00000000000E+00 0. -1.
          2   -1    0    0  501    0 -0.00000000000E+00 -0.00000000000E+00 -0.10482219841E+03  0.10482219841E+03  0.00000000000E+00 0. -1.
    9000006    2    1    2  501    0  0.00000000000E+00  0.00000000000E+00  0.89517780159E+03  0.11048221984E+04  0.64752512972E+03 0.  0.
         13    1    3    3    0    0 -0.28772969937E+03 -0.13922322757E+03  0.53543388885E+03  0.62358715214E+03  0.00000000000E+00 0. -1.
          4    1    3    3  501    0  0.28772969937E+03  0.13922322757E+03  0.35974391275E+03  0.48123504626E+03  0.00000000000E+00 0. -1.
<mgrwt>
<rscale>  0 0.64752513E+03</rscale>
<asrwt>0</asrwt>
<pdfrwt beam="1">0</pdfrwt>
<pdfrwt beam="2">  1        2 0.38117243E+00 0.64752513E+03</pdfrwt>
<totfact> 0.46810583E+00</totfact>
</mgrwt>
</event>
<event>
 5    1  0.2357694E-004  0.6548012E+03  0.7818608E-02  0.9797812E-01
         13   -1    0    0    0    0  0.00000000000E+00  0.00000000000E+00  0.10000000000E+04  0.10000000000E+04  0.00000000000E+00 0. -1.
          4   -1    0    0  501    0 -0.00000000000E+00 -0.00000000000E+00 -0.10719115369E+03  0.10719115369E+03  0.00000000000E+00 0. -1.
    9000006    2    1    2  501    0  0.00000000000E+00  0.00000000000E+00  0.89280884631E+03  0.11071911537E+04  0.65480120246E+03 0.  0.
         13    1    3    3    0    0 -0.25212799582E+03  0.16140796187E+03  0.67053454210E+03  0.73432801157E+03  0.00000000000E+00 0. -1.
          4    1    3    3  501    0  0.25212799582E+03 -0.16140796187E+03  0.22227430421E+03  0.37286314211E+03  0.00000000000E+00 0. -1.
<mgrwt>
<rscale>  0 0.65480120E+03</rscale>
<asrwt>0</asrwt>
<pdfrwt beam="1">0</pdfrwt>
<pdfrwt beam="2">  1        4 0.38978684E+00 0.65480120E+03</pdfrwt>
<totfact> 0.37665639E-02</totfact>
</mgrwt>
</event>
<event>
 5    1  0.2357694E-004  0.6116678E+03  0.7818608E-02  0.9881491E-01
         13   -1    0    0    0    0  0.00000000000E+00  0.00000000000E+00  0.10000000000E+04  0.10000000000E+04  0.00000000000E+00 0. -1.
          2   -1    0    0  501    0 -0.00000000000E+00 -0.00000000000E+00 -0.93534363124E+02  0.93534363124E+02  0.00000000000E+00 0. -1.
    9000006    2    1    2  501    0  0.00000000000E+00  0.00000000000E+00  0.90646563688E+03  0.10935343631E+04  0.61166776317E+03 0.  0.
         13    1    3    3    0    0 -0.12759248216E+03  0.26845908252E+03  0.58195681112E+03  0.65347061946E+03  0.00000000000E+00 0. -1.
          2    1    3    3  501    0  0.12759248216E+03 -0.26845908252E+03  0.32450882575E+03  0.44006374366E+03  0.00000000000E+00 0. -1.
<mgrwt>
<rscale>  0 0.61166776E+03</rscale>
<asrwt>0</asrwt>
<pdfrwt beam="1">0</pdfrwt>
<pdfrwt beam="2">  1        2 0.34012567E+00 0.61166776E+03</pdfrwt>
<totfact> 0.66217906E+00</totfact>
</mgrwt>
</event>
<event>
 5    1  0.2357694E-004  0.6468511E+03  0.7818608E-02  0.9812706E-01
         13   -1    0    0    0    0  0.00000000000E+00  0.00000000000E+00  0.10000000000E+04  0.10000000000E+04  0.00000000000E+00 0. -1.
          2   -1    0    0  501    0 -0.00000000000E+00 -0.00000000000E+00 -0.10460410072E+03  0.10460410072E+03  0.00000000000E+00 0. -1.
    9000006    2    1    2  501    0  0.00000000000E+00  0.00000000000E+00  0.89539589928E+03  0.11046041007E+04  0.64685114431E+03 0.  0.
         13    1    3    3    0    0  0.75097289923E+02  0.11666761738E+03  0.94659635397E+03  0.95671082008E+03  0.00000000000E+00 0. -1.
          2    1    3    3  501    0 -0.75097289923E+02 -0.11666761738E+03 -0.51200454694E+02  0.14789328065E+03  0.00000000000E+00 0. -1.
<mgrwt>
<rscale>  0 0.64685114E+03</rscale>
<asrwt>0</asrwt>
<pdfrwt beam="1">0</pdfrwt>
<pdfrwt beam="2">  1        2 0.38037935E+00 0.64685114E+03</pdfrwt>
<totfact> 0.47129702E+00</totfact>
</mgrwt>
</event>
<event>
 5    1  0.2357694E-004  0.6431902E+03  0.7818608E-02  0.9819642E-01
         13   -1    0    0    0    0  0.00000000000E+00  0.00000000000E+00  0.10000000000E+04  0.10000000000E+04  0.00000000000E+00 0. -1.
          2   -1    0    0  501    0 -0.00000000000E+00 -0.00000000000E+00 -0.10342339913E+03  0.10342339913E+03  0.00000000000E+00 0. -1.
    9000006    2    1    2  501    0  0.00000000000E+00  0.00000000000E+00  0.89657660087E+03  0.11034233991E+04  0.64319017134E+03 0.  0.
         13    1    3    3    0    0 -0.28889889477E+03  0.29915679979E+02  0.68516983924E+03  0.74418762951E+03  0.00000000000E+00 0. -1.
          2    1    3    3  501    0  0.28889889477E+03 -0.29915679979E+02  0.21140676163E+03  0.35923576961E+03  0.00000000000E+00 0. -1.
<mgrwt>
<rscale>  0 0.64319017E+03</rscale>
<asrwt>0</asrwt>
<pdfrwt beam="1">0</pdfrwt>
<pdfrwt beam="2">  1        2 0.37608588E+00 0.64319017E+03</pdfrwt>
<totfact> 0.48891952E+00</totfact>
</mgrwt>
</event>
<event>
 5    1  0.2357694E-004  0.6467725E+03  0.7818608E-02  0.9812854E-01
         13   -1    0    0    0    0  0.00000000000E+00  0.00000000000E+00  0.10000000000E+04  0.10000000000E+04  0.00000000000E+00 0. -1.
          2   -1    0    0  501    0 -0.00000000000E+00 -0.00000000000E+00 -0.10457868235E+03  0.10457868235E+03  0.00000000000E+00 0. -1.
    9000006    2    1    2  501    0  0.00000000000E+00  0.00000000000E+00  0.89542131765E+03  0.11045786824E+04  0.64677254844E+03 0.  0.
         13    1    3    3    0    0  0.24632502677E+02  0.13605751482E+03  0.94697117506E+03  0.95701244188E+03  0.00000000000E+00 0. -1.
          2    1    3    3  501    0 -0.24632502677E+02 -0.13605751482E+03 -0.51549857414E+02  0.14756624047E+03  0.00000000000E+00 0. -1.
<mgrwt>
<rscale>  0 0.64677255E+03</rscale>
<asrwt>0</asrwt>
<pdfrwt beam="1">0</pdfrwt>
<pdfrwt beam="2">  1        2 0.38028692E+00 0.64677255E+03</pdfrwt>
<totfact> 0.47167022E+00</totfact>
</mgrwt>
</event>
<event>
 5    1  0.2357694E-004  0.6582153E+03  0.7818608E-02  0.9791485E-01
         13   -1    0    0    0    0  0.00000000000E+00  0.00000000000E+00  0.10000000000E+04  0.10000000000E+04  0.00000000000E+00 0. -1.
          2   -1    0    0  501    0 -0.00000000000E+00 -0.00000000000E+00 -0.10831183602E+03  0.10831183602E+03  0.00000000000E+00 0. -1.
    9000006    2    1    2  501    0  0.00000000000E+00  0.00000000000E+00  0.89168816398E+03  0.11083118360E+04  0.65821527183E+03 0.  0.
         13    1    3    3    0    0 -0.41778680987E+02 -0.32266405990E+03  0.52926140966E+03  0.62126901862E+03  0.00000000000E+00 0. -1.
          4    1    3    3  501    0  0.41778680987E+02  0.32266405990E+03  0.36242675432E+03  0.48704281740E+03  0.00000000000E+00 0. -1.
<mgrwt>
<rscale>  0 0.65821527E+03</rscale>
<asrwt>0</asrwt>
<pdfrwt beam="1">0</pdfrwt>
<pdfrwt beam="2">  1        2 0.39386205E+00 0.65821527E+03</pdfrwt>
<totfact> 0.41963971E+00</totfact>
</mgrwt>
</event>
<event>
 5    1  0.2357694E-004  0.6465818E+03  0.7818608E-02  0.9813214E-01
         13   -1    0    0    0    0  0.00000000000E+00  0.00000000000E+00  0.10000000000E+04  0.10000000000E+04  0.00000000000E+00 0. -1.
          2   -1    0    0  501    0 -0.00000000000E+00 -0.00000000000E+00 -0.10451700996E+03  0.10451700996E+03  0.00000000000E+00 0. -1.
    9000006    2    1    2  501    0  0.00000000000E+00  0.00000000000E+00  0.89548299004E+03  0.11045170100E+04  0.64658181218E+03 0.  0.
         13    1    3    3    0    0  0.20724299320E+03  0.20231199788E+02  0.25291080790E+02  0.20975842878E+03  0.00000000000E+00 0. -1.
          2    1    3    3  501    0 -0.20724299320E+03 -0.20231199788E+02  0.87019190925E+03  0.89475858118E+03  0.00000000000E+00 0. -1.
<mgrwt>
<rscale>  0 0.64658181E+03</rscale>
<asrwt>0</asrwt>
<pdfrwt beam="1">0</pdfrwt>
<pdfrwt beam="2">  1        2 0.38006266E+00 0.64658181E+03</pdfrwt>
<totfact> 0.47257684E+00</totfact>
</mgrwt>
</event>
<event>
 5    1  0.2357694E-004  0.6522639E+03  0.7818608E-02  0.9802540E-01
         13   -1    0    0    0    0  0.00000000000E+00  0.00000000000E+00  0.10000000000E+04  0.10000000000E+04  0.00000000000E+00 0. -1.
          2   -1    0    0  501    0 -0.00000000000E+00 -0.00000000000E+00 -0.10636205930E+03  0.10636205930E+03  0.00000000000E+00 0. -1.
    9000006    2    1    2  501    0  0.00000000000E+00  0.00000000000E+00  0.89363794070E+03  0.11063620593E+04  0.65226393215E+03 0.  0.
         13    1    3    3    0    0 -0.26786004923E+03  0.17584917461E+03  0.54985621101E+03  0.63640693819E+03  0.00000000000E+00 0. -1.
          2    1    3    3  501    0  0.26786004923E+03 -0.17584917461E+03  0.34378172969E+03  0.46995512111E+03  0.00000000000E+00 0. -1.
<mgrwt>
<rscale>  0 0.65226393E+03</rscale>
<asrwt>0</asrwt>
<pdfrwt beam="1">0</pdfrwt>
<pdfrwt beam="2">  1        2 0.38677194E+00 0.65226393E+03</pdfrwt>
<totfact> 0.44612722E+00</totfact>
</mgrwt>
</event>
<event>
 5    1  0.2357694E-004  0.6813488E+03  0.7818608E-02  0.9749671E-01
         13   -1    0    0    0    0  0.00000000000E+00  0.00000000000E+00  0.10000000000E+04  0.10000000000E+04  0.00000000000E+00 0. -1.
          2   -1    0    0  501    0 -0.00000000000E+00 -0.00000000000E+00 -0.11605904201E+03  0.11605904201E+03  0.00000000000E+00 0. -1.
    9000006    2    1    2  501    0  0.00000000000E+00  0.00000000000E+00  0.88394095799E+03  0.11160590420E+04  0.68134878589E+03 0.  0.
         13    1    3    3    0    0 -0.17940141597E+03  0.27964705835E+03  0.31861052925E+03  0.46032598736E+03  0.00000000000E+00 0. -1.
          2    1    3    3  501    0  0.17940141597E+03 -0.27964705835E+03  0.56533042874E+03  0.65573305465E+03  0.00000000000E+00 0. -1.
<mgrwt>
<rscale>  0 0.68134879E+03</rscale>
<asrwt>0</asrwt>
<pdfrwt beam="1">0</pdfrwt>
<pdfrwt beam="2">  1        2 0.42203377E+00 0.68134879E+03</pdfrwt>
<totfact> 0.32778497E+00</totfact>
</mgrwt>
</event>
<event>
 5    1  0.2357694E-004  0.6218675E+03  0.7818608E-02  0.9861049E-01
         13   -1    0    0    0    0  0.00000000000E+00  0.00000000000E+00  0.10000000000E+04  0.10000000000E+04  0.00000000000E+00 0. -1.
          2   -1    0    0  501    0 -0.00000000000E+00 -0.00000000000E+00 -0.96679798874E+02  0.96679798874E+02  0.00000000000E+00 0. -1.
    9000006    2    1    2  501    0  0.00000000000E+00  0.00000000000E+00  0.90332020113E+03  0.10966797989E+04  0.62186750638E+03 0.  0.
         13    1    3    3    0    0 -0.20656009324E+03 -0.22845364815E+03  0.52692895915E+03  0.61033783224E+03  0.00000000000E+00 0. -1.
          2    1    3    3  501    0  0.20656009324E+03  0.22845364815E+03  0.37639124198E+03  0.48634196664E+03  0.00000000000E+00 0. -1.
<mgrwt>
<rscale>  0 0.62186751E+03</rscale>
<asrwt>0</asrwt>
<pdfrwt beam="1">0</pdfrwt>
<pdfrwt beam="2">  1        2 0.35156365E+00 0.62186751E+03</pdfrwt>
<totfact> 0.60170960E+00</totfact>
</mgrwt>
</event>
<event>
 5    1  0.2357694E-004  0.6439435E+03  0.7818608E-02  0.9818211E-01
         13   -1    0    0    0    0  0.00000000000E+00  0.00000000000E+00  0.10000000000E+04  0.10000000000E+04  0.00000000000E+00 0. -1.
          2   -1    0    0  501    0 -0.00000000000E+00 -0.00000000000E+00 -0.10366579262E+03  0.10366579262E+03  0.00000000000E+00 0. -1.
    9000006    2    1    2  501    0  0.00000000000E+00  0.00000000000E+00  0.89633420738E+03  0.11036657926E+04  0.64394345284E+03 0.  0.
         13    1    3    3    0    0 -0.31599218129E+03  0.59460215783E+01  0.55353299901E+03  0.63740504768E+03  0.00000000000E+00 0. -1.
          4    1    3    3  501    0  0.31599218129E+03 -0.59460215783E+01  0.34280120837E+03  0.46626074494E+03  0.00000000000E+00 0. -1.
<mgrwt>
<rscale>  0 0.64394345E+03</rscale>
<asrwt>0</asrwt>
<pdfrwt beam="1">0</pdfrwt>
<pdfrwt beam="2">  1        2 0.37696731E+00 0.64394345E+03</pdfrwt>
<totfact> 0.48525344E+00</totfact>
</mgrwt>
</event>
<event>
 5    1  0.2357694E-004  0.6328865E+03  0.7818608E-02  0.9839432E-01
         13   -1    0    0    0    0  0.00000000000E+00  0.00000000000E+00  0.10000000000E+04  0.10000000000E+04  0.00000000000E+00 0. -1.
          2   -1    0    0  501    0 -0.00000000000E+00 -0.00000000000E+00 -0.10013633037E+03  0.10013633037E+03  0.00000000000E+00 0. -1.
    9000006    2    1    2  501    0  0.00000000000E+00  0.00000000000E+00  0.89986366963E+03  0.11001363304E+04  0.63288649967E+03 0.  0.
         13    1    3    3    0    0  0.20209629401E+03 -0.23392026877E+03  0.56750365102E+03  0.64623679725E+03  0.00000000000E+00 0. -1.
          4    1    3    3  501    0 -0.20209629401E+03  0.23392026877E+03  0.33236001861E+03  0.45389953312E+03  0.00000000000E+00 0. -1.
<mgrwt>
<rscale>  0 0.63288650E+03</rscale>
<asrwt>0</asrwt>
<pdfrwt beam="1">0</pdfrwt>
<pdfrwt beam="2">  1        2 0.36413288E+00 0.63288650E+03</pdfrwt>
<totfact> 0.54120680E+00</totfact>
</mgrwt>
</event>
<event>
 5    1  0.2357694E-004  0.6410359E+03  0.7818608E-02  0.9823747E-01
         13   -1    0    0    0    0  0.00000000000E+00  0.00000000000E+00  0.10000000000E+04  0.10000000000E+04  0.00000000000E+00 0. -1.
          2   -1    0    0  501    0 -0.00000000000E+00 -0.00000000000E+00 -0.10273176571E+03  0.10273176571E+03  0.00000000000E+00 0. -1.
    9000006    2    1    2  501    0  0.00000000000E+00  0.00000000000E+00  0.89726823429E+03  0.11027317657E+04  0.64103592944E+03 0.  0.
         13    1    3    3    0    0  0.15551077787E+03 -0.78257769011E+02  0.91157807783E+03  0.92805305474E+03  0.00000000000E+00 0. -1.
          4    1    3    3  501    0 -0.15551077787E+03  0.78257769011E+02 -0.14309843537E+02  0.17467871097E+03  0.00000000000E+00 0. -1.
<mgrwt>
<rscale>  0 0.64103593E+03</rscale>
<asrwt>0</asrwt>
<pdfrwt beam="1">0</pdfrwt>
<pdfrwt beam="2">  1        2 0.37357084E+00 0.64103593E+03</pdfrwt>
<totfact> 0.49952034E+00</totfact>
</mgrwt>
</event>
<event>
 5    1  0.2357694E-004  0.6542431E+03  0.7818608E-02  0.9798850E-01
         13   -1    0    0    0    0  0.00000000000E+00  0.00000000000E+00  0.10000000000E+04  0.10000000000E+04  0.00000000000E+00 0. -1.
          2   -1    0    0  501    0 -0.00000000000E+00 -0.00000000000E+00 -0.10700849882E+03  0.10700849882E+03  0.00000000000E+00 0. -1.
    9000006    2    1    2  501    0  0.00000000000E+00  0.00000000000E+00  0.89299150118E+03  0.11070084988E+04  0.65424307048E+03 0.  0.
         13    1    3    3    0    0 -0.83073371926E+02 -0.29144639469E+03  0.65487373215E+03  0.72159669564E+03  0.00000000000E+00 0. -1.
          4    1    3    3  501    0  0.83073371926E+02  0.29144639469E+03  0.23811776903E+03  0.38541180318E+03  0.00000000000E+00 0. -1.
<mgrwt>
<rscale>  0 0.65424307E+03</rscale>
<asrwt>0</asrwt>
<pdfrwt beam="1">0</pdfrwt>
<pdfrwt beam="2">  1        2 0.38912263E+00 0.65424307E+03</pdfrwt>
<totfact> 0.43718259E+00</totfact>
</mgrwt>
</event>
<event>
 5    1  0.2357694E-004  0.6573363E+03  0.7818608E-02  0.9793110E-01
         13   -1    0    0    0    0  0.00000000000E+00  0.00000000000E+00  0.10000000000E+04  0.10000000000E+04  0.00000000000E+00 0. -1.
          2   -1    0    0  501    0 -0.00000000000E+00 -0.00000000000E+00 -0.10802274686E+03  0.10802274686E+03  0.00000000000E+00 0. -1.
    9000006    2    1    2  501    0  0.00000000000E+00  0.00000000000E+00  0.89197725314E+03  0.11080227469E+04  0.65733628184E+03 0.  0.
         13    1    3    3    0    0  0.28860093213E+02  0.22877254123E+03  0.84077407015E+03  0.87182040447E+03  0.00000000000E+00 0. -1.
          2    1    3    3  501    0 -0.28860093213E+02 -0.22877254123E+03  0.51203182992E+02  0.23620234239E+03  0.00000000000E+00 0. -1.
<mgrwt>
<rscale>  0 0.65733628E+03</rscale>
<asrwt>0</asrwt>
<pdfrwt beam="1">0</pdfrwt>
<pdfrwt beam="2">  1        2 0.39281082E+00 0.65733628E+03</pdfrwt>
<totfact> 0.42347504E+00</totfact>
</mgrwt>
</event>
<event>
 5    1  0.2357694E-004  0.6041853E+03  0.7818608E-02  0.9896761E-01
         13   -1    0    0    0    0  0.00000000000E+00  0.00000000000E+00  0.10000000000E+04  0.10000000000E+04  0.00000000000E+00 0. -1.
          2   -1    0    0  501    0 -0.00000000000E+00 -0.00000000000E+00 -0.91259955837E+02  0.91259955837E+02  0.00000000000E+00 0. -1.
    9000006    2    1    2  501    0  0.00000000000E+00  0.00000000000E+00  0.90874004416E+03  0.10912599558E+04  0.60418525582E+03 0.  0.
         13    1    3    3    0    0 -0.17149635867E+03 -0.19774254802E+03  0.72677725063E+03  0.77247542898E+03  0.00000000000E+00 0. -1.
          4    1    3    3  501    0  0.17149635867E+03  0.19774254802E+03  0.18196279353E+03  0.31878452686E+03  0.00000000000E+00 0. -1.
<mgrwt>
<rscale>  0 0.60418526E+03</rscale>
<asrwt>0</asrwt>
<pdfrwt beam="1">0</pdfrwt>
<pdfrwt beam="2">  1        2 0.33185508E+00 0.60418526E+03</pdfrwt>
<totfact> 0.70941139E+00</totfact>
</mgrwt>
</event>
<event>
 5    1  0.2357694E-004  0.6527692E+03  0.7818608E-02  0.9801597E-01
         13   -1    0    0    0    0  0.00000000000E+00  0.00000000000E+00  0.10000000000E+04  0.10000000000E+04  0.00000000000E+00 0. -1.
          2   -1    0    0  501    0 -0.00000000000E+00 -0.00000000000E+00 -0.10652690437E+03  0.10652690437E+03  0.00000000000E+00 0. -1.
    9000006    2    1    2  501    0  0.00000000000E+00  0.00000000000E+00  0.89347309563E+03  0.11065269044E+04  0.65276919159E+03 0.  0.
         13    1    3    3    0    0 -0.25902816854E+03  0.19502475405E+03  0.51008664716E+03  0.60441594486E+03  0.00000000000E+00 0. -1.
          2    1    3    3  501    0  0.25902816854E+03 -0.19502475405E+03  0.38338644847E+03  0.50211095951E+03  0.00000000000E+00 0. -1.
<mgrwt>
<rscale>  0 0.65276919E+03</rscale>
<asrwt>0</asrwt>
<pdfrwt beam="1">0</pdfrwt>
<pdfrwt beam="2">  1        2 0.38737138E+00 0.65276919E+03</pdfrwt>
<totfact> 0.44383070E+00</totfact>
</mgrwt>
</event>
<event>
 5    1  0.2357694E-004  0.6572408E+03  0.7818608E-02  0.9793286E-01
         13   -1    0    0    0    0  0.00000000000E+00  0.00000000000E+00  0.10000000000E+04  0.10000000000E+04  0.00000000000E+00 0. -1.
          2   -1    0    0  501    0 -0.00000000000E+00 -0.00000000000E+00 -0.10799136530E+03  0.10799136530E+03  0.00000000000E+00 0. -1.
    9000006    2    1    2  501    0  0.00000000000E+00  0.00000000000E+00  0.89200863470E+03  0.11079913653E+04  0.65724079394E+03 0.  0.
         13    1    3    3    0    0  0.18921897628E+03  0.26654553690E+03  0.50294972392E+03  0.59984061968E+03  0.00000000000E+00 0. -1.
          2    1    3    3  501    0 -0.18921897628E+03 -0.26654553690E+03  0.38905891078E+03  0.50815074562E+03  0.00000000000E+00 0. -1.
<mgrwt>
<rscale>  0 0.65724079E+03</rscale>
<asrwt>0</asrwt>
<pdfrwt beam="1">0</pdfrwt>
<pdfrwt beam="2">  1        2 0.39269670E+00 0.65724079E+03</pdfrwt>
<totfact> 0.42389328E+00</totfact>
</mgrwt>
</event>
<event>
 5    1  0.2357694E-004  0.6478434E+03  0.7818608E-02  0.9810834E-01
         13   -1    0    0    0    0  0.00000000000E+00  0.00000000000E+00  0.10000000000E+04  0.10000000000E+04  0.00000000000E+00 0. -1.
          2   -1    0    0  501    0 -0.00000000000E+00 -0.00000000000E+00 -0.10492527975E+03  0.10492527975E+03  0.00000000000E+00 0. -1.
    9000006    2    1    2  501    0  0.00000000000E+00  0.00000000000E+00  0.89507472025E+03  0.11049252798E+04  0.64784343711E+03 0.  0.
         13    1    3    3    0    0  0.25306208341E+03  0.97346298349E+02  0.74980166161E+03  0.79732004341E+03  0.00000000000E+00 0. -1.
          4    1    3    3  501    0 -0.25306208341E+03 -0.97346298349E+02  0.14527305863E+03  0.30760523635E+03  0.00000000000E+00 0. -1.
<mgrwt>
<rscale>  0 0.64784344E+03</rscale>
<asrwt>0</asrwt>
<pdfrwt beam="1">0</pdfrwt>
<pdfrwt beam="2">  1        2 0.38154728E+00 0.64784344E+03</pdfrwt>
<totfact> 0.46660440E+00</totfact>
</mgrwt>
</event>
<event>
 5    1  0.2357694E-004  0.8074479E+03  0.7818608E-02  0.9549299E-01
         13   -1    0    0    0    0  0.00000000000E+00  0.00000000000E+00  0.10000000000E+04  0.10000000000E+04  0.00000000000E+00 0. -1.
          2   -1    0    0  501    0 -0.00000000000E+00 -0.00000000000E+00 -0.16299304767E+03  0.16299304767E+03  0.00000000000E+00 0. -1.
    9000006    2    1    2  501    0  0.00000000000E+00  0.00000000000E+00  0.83700695233E+03  0.11629930477E+04  0.80744794921E+03 0.  0.
         13    1    3    3    0    0  0.28644088943E+03 -0.98018328632E+02  0.33805216141E+02  0.30462890297E+03  0.00000000000E+00 0. -1.
          2    1    3    3  501    0 -0.28644088943E+03  0.98018328632E+02  0.80320173619E+03  0.85836414470E+03  0.00000000000E+00 0. -1.
<mgrwt>
<rscale>  0 0.80744795E+03</rscale>
<asrwt>0</asrwt>
<pdfrwt beam="1">0</pdfrwt>
<pdfrwt beam="2">  1        2 0.59270324E+00 0.80744795E+03</pdfrwt>
<totfact> 0.59847230E-01</totfact>
</mgrwt>
</event>
<event>
 5    1  0.2357694E-004  0.6583628E+03  0.7818608E-02  0.9791212E-01
         13   -1    0    0    0    0  0.00000000000E+00  0.00000000000E+00  0.10000000000E+04  0.10000000000E+04  0.00000000000E+00 0. -1.
          2   -1    0    0  501    0 -0.00000000000E+00 -0.00000000000E+00 -0.10836039227E+03  0.10836039227E+03  0.00000000000E+00 0. -1.
    9000006    2    1    2  501    0  0.00000000000E+00  0.00000000000E+00  0.89163960773E+03  0.11083603923E+04  0.65836279441E+03 0.  0.
         13    1    3    3    0    0  0.24270684917E+03  0.13371342679E+03  0.14667329490E+03  0.31352663456E+03  0.00000000000E+00 0. -1.
          4    1    3    3  501    0 -0.24270684917E+03 -0.13371342679E+03  0.74496631284E+03  0.79483375771E+03  0.00000000000E+00 0. -1.
<mgrwt>
<rscale>  0 0.65836279E+03</rscale>
<asrwt>0</asrwt>
<pdfrwt beam="1">0</pdfrwt>
<pdfrwt beam="2">  1        2 0.39403862E+00 0.65836279E+03</pdfrwt>
<totfact> 0.41899865E+00</totfact>
</mgrwt>
</event>
<event>
 5    1  0.2357694E-004  0.7040246E+03  0.7818608E-02  0.9710374E-01
         13   -1    0    0    0    0  0.00000000000E+00  0.00000000000E+00  0.10000000000E+04  0.10000000000E+04  0.00000000000E+00 0. -1.
          2   -1    0    0  501    0 -0.00000000000E+00 -0.00000000000E+00 -0.12391267264E+03  0.12391267264E+03  0.00000000000E+00 0. -1.
    9000006    2    1    2  501    0  0.00000000000E+00  0.00000000000E+00  0.87608732736E+03  0.11239126726E+04  0.70402463775E+03 0.  0.
         13    1    3    3    0    0  0.30603983966E+03  0.16450728298E+03  0.52820404736E+03  0.63223614675E+03  0.00000000000E+00 0. -1.
          2    1    3    3  501    0 -0.30603983966E+03 -0.16450728298E+03  0.34788328000E+03  0.49167652589E+03  0.00000000000E+00 0. -1.
<mgrwt>
<rscale>  0 0.70402464E+03</rscale>
<asrwt>0</asrwt>
<pdfrwt beam="1">0</pdfrwt>
<pdfrwt beam="2">  1        2 0.45059249E+00 0.70402464E+03</pdfrwt>
<totfact> 0.25332172E+00</totfact>
</mgrwt>
</event>
<event>
 5    1  0.2357694E-004  0.6519770E+03  0.7818608E-02  0.9803076E-01
         13   -1    0    0    0    0  0.00000000000E+00  0.00000000000E+00  0.10000000000E+04  0.10000000000E+04  0.00000000000E+00 0. -1.
          2   -1    0    0  501    0 -0.00000000000E+00 -0.00000000000E+00 -0.10626851673E+03  0.10626851673E+03  0.00000000000E+00 0. -1.
    9000006    2    1    2  501    0  0.00000000000E+00  0.00000000000E+00  0.89373148327E+03  0.11062685167E+04  0.65197704478E+03 0.  0.
         13    1    3    3    0    0  0.19156121783E+03  0.10880137311E+03  0.85457270169E+03  0.88251228969E+03  0.00000000000E+00 0. -1.
          4    1    3    3  501    0 -0.19156121783E+03 -0.10880137311E+03  0.39158781576E+02  0.22375622704E+03  0.00000000000E+00 0. -1.
<mgrwt>
<rscale>  0 0.65197704E+03</rscale>
<asrwt>0</asrwt>
<pdfrwt beam="1">0</pdfrwt>
<pdfrwt beam="2">  1        2 0.38643178E+00 0.65197704E+03</pdfrwt>
<totfact> 0.44743517E+00</totfact>
</mgrwt>
</event>
<event>
 5    1  0.2357694E-004  0.6555613E+03  0.7818608E-02  0.9796399E-01
         13   -1    0    0    0    0  0.00000000000E+00  0.00000000000E+00  0.10000000000E+04  0.10000000000E+04  0.00000000000E+00 0. -1.
          2   -1    0    0  501    0 -0.00000000000E+00 -0.00000000000E+00 -0.10744013884E+03  0.10744013884E+03  0.00000000000E+00 0. -1.
    9000006    2    1    2  501    0  0.00000000000E+00  0.00000000000E+00  0.89255986116E+03  0.11074401388E+04  0.65556125218E+03 0.  0.
         13    1    3    3    0    0  0.60326036110E+02 -0.17358823775E+03  0.90478750875E+03  0.92326190374E+03  0.00000000000E+00 0. -1.
          4    1    3    3  501    0 -0.60326036110E+02  0.17358823775E+03 -0.12227647587E+02  0.18417823509E+03  0.00000000000E+00 0. -1.
<mgrwt>
<rscale>  0 0.65556125E+03</rscale>
<asrwt>0</asrwt>
<pdfrwt beam="1">0</pdfrwt>
<pdfrwt beam="2">  1        2 0.39069224E+00 0.65556125E+03</pdfrwt>
<totfact> 0.43130074E+00</totfact>
</mgrwt>
</event>
<event>
 5    1  0.2357694E-004  0.6403629E+03  0.7818608E-02  0.9825032E-01
         13   -1    0    0    0    0  0.00000000000E+00  0.00000000000E+00  0.10000000000E+04  0.10000000000E+04  0.00000000000E+00 0. -1.
          2   -1    0    0  501    0 -0.00000000000E+00 -0.00000000000E+00 -0.10251615511E+03  0.10251615511E+03  0.00000000000E+00 0. -1.
    9000006    2    1    2  501    0  0.00000000000E+00  0.00000000000E+00  0.89748384489E+03  0.11025161551E+04  0.64036288184E+03 0.  0.
         13    1    3    3    0    0 -0.28611570068E+03 -0.10143493099E+03  0.27345815517E+03  0.40857141608E+03  0.00000000000E+00 0. -1.
          2    1    3    3  501    0  0.28611570068E+03  0.10143493099E+03  0.62402568972E+03  0.69394473903E+03  0.00000000000E+00 0. -1.
<mgrwt>
<rscale>  0 0.64036288E+03</rscale>
<asrwt>0</asrwt>
<pdfrwt beam="1">0</pdfrwt>
<pdfrwt beam="2">  1        2 0.37278680E+00 0.64036288E+03</pdfrwt>
<totfact> 0.50286781E+00</totfact>
</mgrwt>
</event>
<event>
 5    1  0.2357694E-004  0.6585799E+03  0.7818608E-02  0.9790811E-01
         13   -1    0    0    0    0  0.00000000000E+00  0.00000000000E+00  0.10000000000E+04  0.10000000000E+04  0.00000000000E+00 0. -1.
          2   -1    0    0  501    0 -0.00000000000E+00 -0.00000000000E+00 -0.10843188719E+03  0.10843188719E+03  0.00000000000E+00 0. -1.
    9000006    2    1    2  501    0  0.00000000000E+00  0.00000000000E+00  0.89156811281E+03  0.11084318872E+04  0.65857994864E+03 0.  0.
         13    1    3    3    0    0 -0.16895423624E+03  0.15195286432E+03  0.44675447531E+02  0.23158389955E+03  0.00000000000E+00 0. -1.
          4    1    3    3  501    0  0.16895423624E+03 -0.15195286432E+03  0.84689266528E+03  0.87684798764E+03  0.00000000000E+00 0. -1.
<mgrwt>
<rscale>  0 0.65857995E+03</rscale>
<asrwt>0</asrwt>
<pdfrwt beam="1">0</pdfrwt>
<pdfrwt beam="2">  1        2 0.39429860E+00 0.65857995E+03</pdfrwt>
<totfact> 0.41805635E+00</totfact>
</mgrwt>
</event>
<event>
 5    1  0.2357694E-004  0.6535530E+03  0.7818608E-02  0.9800135E-01
         13   -1    0    0    0    0  0.00000000000E+00  0.00000000000E+00  0.10000000000E+04  0.10000000000E+04  0.00000000000E+00 0. -1.
          2   -1    0    0  501    0 -0.00000000000E+00 -0.00000000000E+00 -0.10678288792E+03  0.10678288792E+03  0.00000000000E+00 0. -1.
    9000006    2    1    2  501    0  0.00000000000E+00  0.00000000000E+00  0.89321711208E+03  0.11067828879E+04  0.65355302134E+03 0.  0.
         13    1    3    3    0    0 -0.49197463492E+02 -0.32035509035E+03  0.51715019826E+03  0.61032131037E+03  0.00000000000E+00 0. -1.
          4    1    3    3  501    0  0.49197463492E+02  0.32035509035E+03  0.37606691381E+03  0.49646157756E+03  0.00000000000E+00 0. -1.
<mgrwt>
<rscale>  0 0.65355302E+03</rscale>
<asrwt>0</asrwt>
<pdfrwt beam="1">0</pdfrwt>
<pdfrwt beam="2">  1        2 0.38830223E+00 0.65355302E+03</pdfrwt>
<totfact> 0.44028571E+00</totfact>
</mgrwt>
</event>
<event>
 5    1  0.2357694E-004  0.6460744E+03  0.7818608E-02  0.9814173E-01
         13   -1    0    0    0    0  0.00000000000E+00  0.00000000000E+00  0.10000000000E+04  0.10000000000E+04  0.00000000000E+00 0. -1.
          2   -1    0    0  501    0 -0.00000000000E+00 -0.00000000000E+00 -0.10435303150E+03  0.10435303150E+03  0.00000000000E+00 0. -1.
    9000006    2    1    2  501    0  0.00000000000E+00  0.00000000000E+00  0.89564696850E+03  0.11043530315E+04  0.64607439665E+03 0.  0.
         13    1    3    3    0    0  0.16071929481E+02  0.29465539650E+03  0.22317251244E+03  0.36998118860E+03  0.00000000000E+00 0. -1.
          4    1    3    3  501    0 -0.16071929481E+02 -0.29465539650E+03  0.67247445605E+03  0.73437184290E+03  0.00000000000E+00 0. -1.
<mgrwt>
<rscale>  0 0.64607440E+03</rscale>
<asrwt>0</asrwt>
<pdfrwt beam="1">0</pdfrwt>
<pdfrwt beam="2">  1        2 0.37946637E+00 0.64607440E+03</pdfrwt>
<totfact> 0.47499515E+00</totfact>
</mgrwt>
</event>
<event>
 5    1  0.2357694E-004  0.6499599E+03  0.7818608E-02  0.9806854E-01
         13   -1    0    0    0    0  0.00000000000E+00  0.00000000000E+00  0.10000000000E+04  0.10000000000E+04  0.00000000000E+00 0. -1.
          2   -1    0    0  501    0 -0.00000000000E+00 -0.00000000000E+00 -0.10561195595E+03  0.10561195595E+03  0.00000000000E+00 0. -1.
    9000006    2    1    2  501    0  0.00000000000E+00  0.00000000000E+00  0.89438804405E+03  0.11056119559E+04  0.64995986321E+03 0.  0.
         13    1    3    3    0    0  0.30054528236E+03 -0.12316624800E+03  0.42898689921E+03  0.53807727241E+03  0.00000000000E+00 0. -1.
          2    1    3    3  501    0 -0.30054528236E+03  0.12316624800E+03  0.46540114484E+03  0.56753468353E+03  0.00000000000E+00 0. -1.
<mgrwt>
<rscale>  0 0.64995986E+03</rscale>
<asrwt>0</asrwt>
<pdfrwt beam="1">0</pdfrwt>
<pdfrwt beam="2">  1        2 0.38404429E+00 0.64995986E+03</pdfrwt>
<totfact> 0.45671375E+00</totfact>
</mgrwt>
</event>
<event>
 5    1  0.2357694E-004  0.6772023E+03  0.7818608E-02  0.9757034E-01
         13   -1    0    0    0    0  0.00000000000E+00  0.00000000000E+00  0.10000000000E+04  0.10000000000E+04  0.00000000000E+00 0. -1.
          4   -1    0    0  501    0 -0.00000000000E+00 -0.00000000000E+00 -0.11465075551E+03  0.11465075551E+03  0.00000000000E+00 0. -1.
    9000006    2    1    2  501    0  0.00000000000E+00  0.00000000000E+00  0.88534924449E+03  0.11146507555E+04  0.67720234942E+03 0.  0.
         13    1    3    3    0    0 -0.27702711075E+03 -0.19200808932E+03  0.38960334210E+03  0.51517170985E+03  0.00000000000E+00 0. -1.
          2    1    3    3  501    0  0.27702711075E+03  0.19200808932E+03  0.49574590239E+03  0.59947904566E+03  0.00000000000E+00 0. -1.
<mgrwt>
<rscale>  0 0.67720235E+03</rscale>
<asrwt>0</asrwt>
<pdfrwt beam="1">0</pdfrwt>
<pdfrwt beam="2">  1        4 0.41691272E+00 0.67720235E+03</pdfrwt>
<totfact> 0.24387281E-02</totfact>
</mgrwt>
</event>
<event>
 5    1  0.2357694E-004  0.6594311E+03  0.7818608E-02  0.9789242E-01
         13   -1    0    0    0    0  0.00000000000E+00  0.00000000000E+00  0.10000000000E+04  0.10000000000E+04  0.00000000000E+00 0. -1.
          2   -1    0    0  501    0 -0.00000000000E+00 -0.00000000000E+00 -0.10871235520E+03  0.10871235520E+03  0.00000000000E+00 0. -1.
    9000006    2    1    2  501    0  0.00000000000E+00  0.00000000000E+00  0.89128764480E+03  0.11087123552E+04  0.65943113424E+03 0.  0.
         13    1    3    3    0    0  0.26522518325E+03  0.27593414299E+01  0.77494302755E+03  0.81907796195E+03  0.00000000000E+00 0. -1.
          2    1    3    3  501    0 -0.26522518325E+03 -0.27593414299E+01  0.11634461725E+03  0.28963439325E+03  0.00000000000E+00 0. -1.
<mgrwt>
<rscale>  0 0.65943113E+03</rscale>
<asrwt>0</asrwt>
<pdfrwt beam="1">0</pdfrwt>
<pdfrwt beam="2">  1        2 0.39531849E+00 0.65943113E+03</pdfrwt>
<totfact> 0.41437823E+00</totfact>
</mgrwt>
</event>
<event>
 5    1  0.2357694E-004  0.6417489E+03  0.7818608E-02  0.9822386E-01
         13   -1    0    0    0    0  0.00000000000E+00  0.00000000000E+00  0.10000000000E+04  0.10000000000E+04  0.00000000000E+00 0. -1.
          2   -1    0    0  501    0 -0.00000000000E+00 -0.00000000000E+00 -0.10296041938E+03  0.10296041938E+03  0.00000000000E+00 0. -1.
    9000006    2    1    2  501    0  0.00000000000E+00  0.00000000000E+00  0.89703958062E+03  0.11029604194E+04  0.64174892092E+03 0.  0.
         13    1    3    3    0    0  0.19922008718E+03  0.18472472893E+03  0.74194894607E+03  0.79012663997E+03  0.00000000000E+00 0. -1.
          2    1    3    3  501    0 -0.19922008718E+03 -0.18472472893E+03  0.15509063456E+03  0.31283377941E+03  0.00000000000E+00 0. -1.
<mgrwt>
<rscale>  0 0.64174892E+03</rscale>
<asrwt>0</asrwt>
<pdfrwt beam="1">0</pdfrwt>
<pdfrwt beam="2">  1        2 0.37440231E+00 0.64174892E+03</pdfrwt>
<totfact> 0.49599263E+00</totfact>
</mgrwt>
</event>
<event>
 5    1  0.2357694E-004  0.6369367E+03  0.7818608E-02  0.9831605E-01
         13   -1    0    0    0    0  0.00000000000E+00  0.00000000000E+00  0.10000000000E+04  0.10000000000E+04  0.00000000000E+00 0. -1.
          2   -1    0    0  501    0 -0.00000000000E+00 -0.00000000000E+00 -0.10142207830E+03  0.10142207830E+03  0.00000000000E+00 0. -1.
    9000006    2    1    2  501    0  0.00000000000E+00  0.00000000000E+00  0.89857792170E+03  0.11014220783E+04  0.63693666341E+03 0.  0.
         13    1    3    3    0    0 -0.70304961632E+02  0.11459162211E+03  0.94852422322E+03  0.95800429515E+03  0.00000000000E+00 0. -1.
          4    1    3    3  501    0  0.70304961632E+02 -0.11459162211E+03 -0.49946301521E+02  0.14341778315E+03  0.00000000000E+00 0. -1.
<mgrwt>
<rscale>  0 0.63693666E+03</rscale>
<asrwt>0</asrwt>
<pdfrwt beam="1">0</pdfrwt>
<pdfrwt beam="2">  1        2 0.36880834E+00 0.63693666E+03</pdfrwt>
<totfact> 0.52017270E+00</totfact>
</mgrwt>
</event>
<event>
 5    1  0.2357694E-004  0.6487274E+03  0.7818608E-02  0.9809170E-01
         13   -1    0    0    0    0  0.00000000000E+00  0.00000000000E+00  0.10000000000E+04  0.10000000000E+04  0.00000000000E+00 0. -1.
          2   -1    0    0  501    0 -0.00000000000E+00 -0.00000000000E+00 -0.10521179766E+03  0.10521179766E+03  0.00000000000E+00 0. -1.
    9000006    2    1    2  501    0  0.00000000000E+00  0.00000000000E+00  0.89478820234E+03  0.11052117977E+04  0.64872736233E+03 0.  0.
         13    1    3    3    0    0 -0.23928037729E+03 -0.47755052204E+02  0.81150028828E+03  0.84738914428E+03  0.00000000000E+00 0. -1.
          2    1    3    3  501    0  0.23928037729E+03  0.47755052204E+02  0.83287914059E+02  0.25782265338E+03  0.00000000000E+00 0. -1.
<mgrwt>
<rscale>  0 0.64872736E+03</rscale>
<asrwt>0</asrwt>
<pdfrwt beam="1">0</pdfrwt>
<pdfrwt beam="2">  1        2 0.38258916E+00 0.64872736E+03</pdfrwt>
<totfact> 0.46245408E+00</totfact>
</mgrwt>
</event>
<event>
 5    1  0.2357694E-004  0.6489093E+03  0.7818608E-02  0.9808828E-01
         13   -1    0    0    0    0  0.00000000000E+00  0.00000000000E+00  0.10000000000E+04  0.10000000000E+04  0.00000000000E+00 0. -1.
          2   -1    0    0  501    0 -0.00000000000E+00 -0.00000000000E+00 -0.10527083556E+03  0.10527083556E+03  0.00000000000E+00 0. -1.
    9000006    2    1    2  501    0  0.00000000000E+00  0.00000000000E+00  0.89472916444E+03  0.11052708356E+04  0.64890934823E+03 0.  0.
         13    1    3    3    0    0  0.22801970235E+03 -0.21991461225E+03  0.32794797160E+03  0.45596632926E+03  0.00000000000E+00 0. -1.
          4    1    3    3  501    0 -0.22801970235E+03  0.21991461225E+03  0.56678119284E+03  0.64930450630E+03  0.00000000000E+00 0. -1.
<mgrwt>
<rscale>  0 0.64890935E+03</rscale>
<asrwt>0</asrwt>
<pdfrwt beam="1">0</pdfrwt>
<pdfrwt beam="2">  1        2 0.38280385E+00 0.64890935E+03</pdfrwt>
<totfact> 0.46160308E+00</totfact>
</mgrwt>
</event>
<event>
 5    1  0.2357694E-004  0.6569907E+03  0.7818608E-02  0.9793749E-01
         13   -1    0    0    0    0  0.00000000000E+00  0.00000000000E+00  0.10000000000E+04  0.10000000000E+04  0.00000000000E+00 0. -1.
          2   -1    0    0  501    0 -0.00000000000E+00 -0.00000000000E+00 -0.10790920407E+03  0.10790920407E+03  0.00000000000E+00 0. -1.
    9000006    2    1    2  501    0  0.00000000000E+00  0.00000000000E+00  0.89209079593E+03  0.11079092041E+04  0.65699072771E+03 0.  0.
         13    1    3    3    0    0 -0.18556383292E+03  0.25453336061E+03  0.28886233626E+03  0.42739047376E+03  0.00000000000E+00 0. -1.
          4    1    3    3  501    0  0.18556383292E+03 -0.25453336061E+03  0.60322845967E+03  0.68051873031E+03  0.00000000000E+00 0. -1.
<mgrwt>
<rscale>  0 0.65699073E+03</rscale>
<asrwt>0</asrwt>
<pdfrwt beam="1">0</pdfrwt>
<pdfrwt beam="2">  1        2 0.39239793E+00 0.65699073E+03</pdfrwt>
<totfact> 0.42499004E+00</totfact>
</mgrwt>
</event>
<event>
 5    1  0.2357694E-004  0.5913610E+03  0.7818608E-02  0.9923493E-01
         13   -1    0    0    0    0  0.00000000000E+00  0.00000000000E+00  0.10000000000E+04  0.10000000000E+04  0.00000000000E+00 0. -1.
          2   -1    0    0  501    0 -0.00000000000E+00 -0.00000000000E+00 -0.87426962396E+02  0.87426962396E+02  0.00000000000E+00 0. -1.
    9000006    2    1    2  501    0  0.00000000000E+00  0.00000000000E+00  0.91257303760E+03  0.10874269624E+04  0.59136101460E+03 0.  0.
         13    1    3    3    0    0 -0.11527600152E+03  0.25021914714E+01 -0.44382467033E+02  0.12355007433E+03  0.00000000000E+00 0. -1.
          4    1    3    3  501    0  0.11527600152E+03 -0.25021914714E+01  0.95695550464E+03  0.96387688806E+03  0.00000000000E+00 0. -1.
<mgrwt>
<rscale>  0 0.59136101E+03</rscale>
<asrwt>0</asrwt>
<pdfrwt beam="1">0</pdfrwt>
<pdfrwt beam="2">  1        2 0.31791690E+00 0.59136101E+03</pdfrwt>
<totfact> 0.79634273E+00</totfact>
</mgrwt>
</event>
<event>
 5    1  0.2357694E-004  0.6501785E+03  0.7818608E-02  0.9806444E-01
         13   -1    0    0    0    0  0.00000000000E+00  0.00000000000E+00  0.10000000000E+04  0.10000000000E+04  0.00000000000E+00 0. -1.
          2   -1    0    0  501    0 -0.00000000000E+00 -0.00000000000E+00 -0.10568300890E+03  0.10568300890E+03  0.00000000000E+00 0. -1.
    9000006    2    1    2  501    0  0.00000000000E+00  0.00000000000E+00  0.89431699110E+03  0.11056830089E+04  0.65017846442E+03 0.  0.
         13    1    3    3    0    0  0.29068536365E+03  0.47124291824E+02  0.21296932943E+03  0.36342071322E+03  0.00000000000E+00 0. -1.
          4    1    3    3  501    0 -0.29068536365E+03 -0.47124291824E+02  0.68134766167E+03  0.74226229567E+03  0.00000000000E+00 0. -1.
<mgrwt>
<rscale>  0 0.65017846E+03</rscale>
<asrwt>0</asrwt>
<pdfrwt beam="1">0</pdfrwt>
<pdfrwt beam="2">  1        2 0.38430266E+00 0.65017846E+03</pdfrwt>
<totfact> 0.45570127E+00</totfact>
</mgrwt>
</event>
<event>
 5    1  0.2357694E-004  0.6275384E+03  0.7818608E-02  0.9849864E-01
         13   -1    0    0    0    0  0.00000000000E+00  0.00000000000E+00  0.10000000000E+04  0.10000000000E+04  0.00000000000E+00 0. -1.
          2   -1    0    0  501    0 -0.00000000000E+00 -0.00000000000E+00 -0.98451104270E+02  0.98451104270E+02  0.00000000000E+00 0. -1.
    9000006    2    1    2  501    0  0.00000000000E+00  0.00000000000E+00  0.90154889573E+03  0.10984511043E+04  0.62753837897E+03 0.  0.
         13    1    3    3    0    0 -0.17613795754E+03  0.22554048336E+03  0.22553494081E+03  0.36436122083E+03  0.00000000000E+00 0. -1.
          4    1    3    3  501    0  0.17613795754E+03 -0.22554048336E+03  0.67601395492E+03  0.73408988344E+03  0.00000000000E+00 0. -1.
<mgrwt>
<rscale>  0 0.62753838E+03</rscale>
<asrwt>0</asrwt>
<pdfrwt beam="1">0</pdfrwt>
<pdfrwt beam="2">  1        2 0.35800477E+00 0.62753838E+03</pdfrwt>
<totfact> 0.56996284E+00</totfact>
</mgrwt>
</event>
<event>
 5    1  0.2357694E-004  0.6584819E+03  0.7818608E-02  0.9790992E-01
         13   -1    0    0    0    0  0.00000000000E+00  0.00000000000E+00  0.10000000000E+04  0.10000000000E+04  0.00000000000E+00 0. -1.
          2   -1    0    0  501    0 -0.00000000000E+00 -0.00000000000E+00 -0.10839961076E+03  0.10839961076E+03  0.00000000000E+00 0. -1.
    9000006    2    1    2  501    0  0.00000000000E+00  0.00000000000E+00  0.89160038924E+03  0.11083996108E+04  0.65848192310E+03 0.  0.
         13    1    3    3    0    0 -0.28511927098E+03  0.16121395664E+03  0.38955112140E+03  0.50895286097E+03  0.00000000000E+00 0. -1.
          4    1    3    3  501    0  0.28511927098E+03 -0.16121395664E+03  0.50204926784E+03  0.59944674979E+03  0.00000000000E+00 0. -1.
<mgrwt>
<rscale>  0 0.65848192E+03</rscale>
<asrwt>0</asrwt>
<pdfrwt beam="1">0</pdfrwt>
<pdfrwt beam="2">  1        2 0.39418123E+00 0.65848192E+03</pdfrwt>
<totfact> 0.41848152E+00</totfact>
</mgrwt>
</event>
<event>
 5    1  0.2357694E-004  0.6436515E+03  0.7818608E-02  0.9818765E-01
         13   -1    0    0    0    0  0.00000000000E+00  0.00000000000E+00  0.10000000000E+04  0.10000000000E+04  0.00000000000E+00 0. -1.
          2   -1    0    0  501    0 -0.00000000000E+00 -0.00000000000E+00 -0.10357181792E+03  0.10357181792E+03  0.00000000000E+00 0. -1.
    9000006    2    1    2  501    0  0.00000000000E+00  0.00000000000E+00  0.89642818208E+03  0.11035718179E+04  0.64365151417E+03 0.  0.
         13    1    3    3    0    0 -0.11797201022E+03 -0.29894785753E+03  0.47713874518E+03  0.57528132150E+03  0.00000000000E+00 0. -1.
          4    1    3    3  501    0  0.11797201022E+03  0.29894785753E+03  0.41928943689E+03  0.52829049642E+03  0.00000000000E+00 0. -1.
<mgrwt>
<rscale>  0 0.64365151E+03</rscale>
<asrwt>0</asrwt>
<pdfrwt beam="1">0</pdfrwt>
<pdfrwt beam="2">  1        2 0.37662559E+00 0.64365151E+03</pdfrwt>
<totfact> 0.48667177E+00</totfact>
</mgrwt>
</event>
<event>
 5    1  0.2357694E-004  0.6568837E+03  0.7818608E-02  0.9793948E-01
         13   -1    0    0    0    0  0.00000000000E+00  0.00000000000E+00  0.10000000000E+04  0.10000000000E+04  0.00000000000E+00 0. -1.
          2   -1    0    0  501    0 -0.00000000000E+00 -0.00000000000E+00 -0.10787404207E+03  0.10787404207E+03  0.00000000000E+00 0. -1.
    9000006    2    1    2  501    0  0.00000000000E+00  0.00000000000E+00  0.89212595793E+03  0.11078740421E+04  0.65688367941E+03 0.  0.
         13    1    3    3    0    0 -0.10352422553E+03  0.31169978882E+03  0.44583391622E+03  0.55375256611E+03  0.00000000000E+00 0. -1.
          2    1    3    3  501    0  0.10352422553E+03 -0.31169978882E+03  0.44629204171E+03  0.55412147595E+03  0.00000000000E+00 0. -1.
<mgrwt>
<rscale>  0 0.65688368E+03</rscale>
<asrwt>0</asrwt>
<pdfrwt beam="1">0</pdfrwt>
<pdfrwt beam="2">  1        2 0.39227007E+00 0.65688368E+03</pdfrwt>
<totfact> 0.42546019E+00</totfact>
</mgrwt>
</event>
<event>
 5    1  0.2357694E-004  0.6477250E+03  0.7818608E-02  0.9811057E-01
         13   -1    0    0    0    0  0.00000000000E+00  0.00000000000E+00  0.10000000000E+04  0.10000000000E+04  0.00000000000E+00 0. -1.
          2   -1    0    0  501    0 -0.00000000000E+00 -0.00000000000E+00 -0.10488691352E+03  0.10488691352E+03  0.00000000000E+00 0. -1.
    9000006    2    1    2  501    0  0.00000000000E+00  0.00000000000E+00  0.89511308648E+03  0.11048869135E+04  0.64772498335E+03 0.  0.
         13    1    3    3    0    0  0.23885489605E+03  0.21466318938E+03  0.51901632612E+03  0.61033588541E+03  0.00000000000E+00 0. -1.
          4    1    3    3  501    0 -0.23885489605E+03 -0.21466318938E+03  0.37609676037E+03  0.49455102811E+03  0.00000000000E+00 0. -1.
<mgrwt>
<rscale>  0 0.64772498E+03</rscale>
<asrwt>0</asrwt>
<pdfrwt beam="1">0</pdfrwt>
<pdfrwt beam="2">  1        2 0.38140776E+00 0.64772498E+03</pdfrwt>
<totfact> 0.46716271E+00</totfact>
</mgrwt>
</event>
<event>
 5    1  0.2357694E-004  0.6570723E+03  0.7818608E-02  0.9793598E-01
         13   -1    0    0    0    0  0.00000000000E+00  0.00000000000E+00  0.10000000000E+04  0.10000000000E+04  0.00000000000E+00 0. -1.
          2   -1    0    0  501    0 -0.00000000000E+00 -0.00000000000E+00 -0.10793598955E+03  0.10793598955E+03  0.00000000000E+00 0. -1.
    9000006    2    1    2  501    0  0.00000000000E+00  0.00000000000E+00  0.89206401045E+03  0.11079359896E+04  0.65707226255E+03 0.  0.
         13    1    3    3    0    0 -0.16867106992E+02  0.32600645935E+03  0.38359178827E+03  0.50369372724E+03  0.00000000000E+00 0. -1.
          4    1    3    3  501    0  0.16867106992E+02 -0.32600645935E+03  0.50847222218E+03  0.60424226231E+03  0.00000000000E+00 0. -1.
<mgrwt>
<rscale>  0 0.65707226E+03</rscale>
<asrwt>0</asrwt>
<pdfrwt beam="1">0</pdfrwt>
<pdfrwt beam="2">  1        2 0.39249534E+00 0.65707226E+03</pdfrwt>
<totfact> 0.42463220E+00</totfact>
</mgrwt>
</event>
<event>
 5    1  0.2357694E-004  0.6566424E+03  0.7818608E-02  0.9794394E-01
         13   -1    0    0    0    0  0.00000000000E+00  0.00000000000E+00  0.10000000000E+04  0.10000000000E+04  0.00000000000E+00 0. -1.
          2   -1    0    0  501    0 -0.00000000000E+00 -0.00000000000E+00 -0.10779480286E+03  0.10779480286E+03  0.00000000000E+00 0. -1.
    9000006    2    1    2  501    0  0.00000000000E+00  0.00000000000E+00  0.89220519714E+03  0.11077948029E+04  0.65664237712E+03 0.  0.
         13    1    3    3    0    0  0.16284658286E+03  0.27432549854E+02 -0.32627860230E+02  0.16833339420E+03  0.00000000000E+00 0. -1.
          4    1    3    3  501    0 -0.16284658286E+03 -0.27432549854E+02  0.92483305737E+03  0.93946140865E+03  0.00000000000E+00 0. -1.
<mgrwt>
<rscale>  0 0.65664238E+03</rscale>
<asrwt>0</asrwt>
<pdfrwt beam="1">0</pdfrwt>
<pdfrwt beam="2">  1        2 0.39198193E+00 0.65664238E+03</pdfrwt>
<totfact> 0.42652143E+00</totfact>
</mgrwt>
</event>
<event>
 5    1  0.2357694E-004  0.6124419E+03  0.7818608E-02  0.9879924E-01
         13   -1    0    0    0    0  0.00000000000E+00  0.00000000000E+00  0.10000000000E+04  0.10000000000E+04  0.00000000000E+00 0. -1.
          2   -1    0    0  501    0 -0.00000000000E+00 -0.00000000000E+00 -0.93771258726E+02  0.93771258726E+02  0.00000000000E+00 0. -1.
    9000006    2    1    2  501    0  0.00000000000E+00  0.00000000000E+00  0.90622874127E+03  0.10937712587E+04  0.61244186247E+03 0.  0.
         13    1    3    3    0    0  0.48233582254E+00 -0.19989964212E+03  0.38830703092E+02  0.20363674293E+03  0.00000000000E+00 0. -1.
          4    1    3    3  501    0 -0.48233582254E+00  0.19989964212E+03  0.86739803818E+03  0.89013451580E+03  0.00000000000E+00 0. -1.
<mgrwt>
<rscale>  0 0.61244186E+03</rscale>
<asrwt>0</asrwt>
<pdfrwt beam="1">0</pdfrwt>
<pdfrwt beam="2">  1        2 0.34098711E+00 0.61244186E+03</pdfrwt>
<totfact> 0.65743390E+00</totfact>
</mgrwt>
</event>
<event>
 5    1  0.2357694E-004  0.6522882E+03  0.7818608E-02  0.9802495E-01
         13   -1    0    0    0    0  0.00000000000E+00  0.00000000000E+00  0.10000000000E+04  0.10000000000E+04  0.00000000000E+00 0. -1.
          2   -1    0    0  501    0 -0.00000000000E+00 -0.00000000000E+00 -0.10636998703E+03  0.10636998703E+03  0.00000000000E+00 0. -1.
    9000006    2    1    2  501    0  0.00000000000E+00  0.00000000000E+00  0.89363001297E+03  0.11063699870E+04  0.65228824005E+03 0.  0.
         13    1    3    3    0    0  0.32499442020E+03 -0.27358131498E+02  0.44746422832E+03  0.55370937877E+03  0.00000000000E+00 0. -1.
          4    1    3    3  501    0 -0.32499442020E+03  0.27358131498E+02  0.44616578465E+03  0.55266060825E+03  0.00000000000E+00 0. -1.
<mgrwt>
<rscale>  0 0.65228824E+03</rscale>
<asrwt>0</asrwt>
<pdfrwt beam="1">0</pdfrwt>
<pdfrwt beam="2">  1        2 0.38680077E+00 0.65228824E+03</pdfrwt>
<totfact> 0.44601653E+00</totfact>
</mgrwt>
</event>
<event>
 5    1  0.2357694E-004  0.6371715E+03  0.7818608E-02  0.9831153E-01
         13   -1    0    0    0    0  0.00000000000E+00  0.00000000000E+00  0.10000000000E+04  0.10000000000E+04  0.00000000000E+00 0. -1.
          2   -1    0    0  501    0 -0.00000000000E+00 -0.00000000000E+00 -0.10149687957E+03  0.10149687957E+03  0.00000000000E+00 0. -1.
    9000006    2    1    2  501    0  0.00000000000E+00  0.00000000000E+00  0.89850312043E+03  0.11014968796E+04  0.63717149831E+03 0.  0.
         13    1    3    3    0    0  0.22283700922E+03 -0.15333998787E+03  0.15829359587E+03  0.31341082791E+03  0.00000000000E+00 0. -1.
          4    1    3    3  501    0 -0.22283700922E+03  0.15333998787E+03  0.74020952456E+03  0.78808605165E+03  0.00000000000E+00 0. -1.
<mgrwt>
<rscale>  0 0.63717150E+03</rscale>
<asrwt>0</asrwt>
<pdfrwt beam="1">0</pdfrwt>
<pdfrwt beam="2">  1        2 0.36908034E+00 0.63717150E+03</pdfrwt>
<totfact> 0.51897242E+00</totfact>
</mgrwt>
</event>
<event>
 5    1  0.2357694E-004  0.6507918E+03  0.7818608E-02  0.9805295E-01
         13   -1    0    0    0    0  0.00000000000E+00  0.00000000000E+00  0.10000000000E+04  0.10000000000E+04  0.00000000000E+00 0. -1.
          2   -1    0    0  501    0 -0.00000000000E+00 -0.00000000000E+00 -0.10588249126E+03  0.10588249126E+03  0.00000000000E+00 0. -1.
    9000006    2    1    2  501    0  0.00000000000E+00  0.00000000000E+00  0.89411750874E+03  0.11058824913E+04  0.65079179852E+03 0.  0.
         13    1    3    3    0    0 -0.28647858295E+03  0.98463591243E+02  0.64896269416E+03  0.71618268319E+03  0.00000000000E+00 0. -1.
          2    1    3    3  501    0  0.28647858295E+03 -0.98463591243E+02  0.24515481458E+03  0.38969980806E+03  0.00000000000E+00 0. -1.
<mgrwt>
<rscale>  0 0.65079180E+03</rscale>
<asrwt>0</asrwt>
<pdfrwt beam="1">0</pdfrwt>
<pdfrwt beam="2">  1        2 0.38502805E+00 0.65079180E+03</pdfrwt>
<totfact> 0.45286960E+00</totfact>
</mgrwt>
</event>
<event>
 5    1  0.2357694E-004  0.6155415E+03  0.7818608E-02  0.9873677E-01
         13   -1    0    0    0    0  0.00000000000E+00  0.00000000000E+00  0.10000000000E+04  0.10000000000E+04  0.00000000000E+00 0. -1.
          2   -1    0    0  501    0 -0.00000000000E+00 -0.00000000000E+00 -0.94722835879E+02  0.94722835879E+02  0.00000000000E+00 0. -1.
    9000006    2    1    2  501    0  0.00000000000E+00  0.00000000000E+00  0.90527716412E+03  0.10947228359E+04  0.61554150430E+03 0.  0.
         13    1    3    3    0    0 -0.17868190536E+03  0.24928938515E+03  0.40728181208E+03  0.50985379797E+03  0.00000000000E+00 0. -1.
          4    1    3    3  501    0  0.17868190536E+03 -0.24928938515E+03  0.49799535205E+03  0.58486903791E+03  0.00000000000E+00 0. -1.
<mgrwt>
<rscale>  0 0.61554150E+03</rscale>
<asrwt>0</asrwt>
<pdfrwt beam="1">0</pdfrwt>
<pdfrwt beam="2">  1        2 0.34444740E+00 0.61554150E+03</pdfrwt>
<totfact> 0.63869279E+00</totfact>
</mgrwt>
</event>
<event>
 5    1  0.2357694E-004  0.6507289E+03  0.7818608E-02  0.9805413E-01
         13   -1    0    0    0    0  0.00000000000E+00  0.00000000000E+00  0.10000000000E+04  0.10000000000E+04  0.00000000000E+00 0. -1.
          2   -1    0    0  501    0 -0.00000000000E+00 -0.00000000000E+00 -0.10586200913E+03  0.10586200913E+03  0.00000000000E+00 0. -1.
    9000006    2    1    2  501    0  0.00000000000E+00  0.00000000000E+00  0.89413799087E+03  0.11058620091E+04  0.65072885024E+03 0.  0.
         13    1    3    3    0    0 -0.15191103269E+03  0.21465942658E+03  0.77265943368E+03  0.81618517000E+03  0.00000000000E+00 0. -1.
          4    1    3    3  501    0  0.15191103269E+03 -0.21465942658E+03  0.12147855719E+03  0.28967683914E+03  0.00000000000E+00 0. -1.
<mgrwt>
<rscale>  0 0.65072885E+03</rscale>
<asrwt>0</asrwt>
<pdfrwt beam="1">0</pdfrwt>
<pdfrwt beam="2">  1        2 0.38495357E+00 0.65072885E+03</pdfrwt>
<totfact> 0.45315960E+00</totfact>
</mgrwt>
</event>
<event>
 5    1  0.2357694E-004  0.6490717E+03  0.7818608E-02  0.9808523E-01
         13   -1    0    0    0    0  0.00000000000E+00  0.00000000000E+00  0.10000000000E+04  0.10000000000E+04  0.00000000000E+00 0. -1.
          2   -1    0    0  501    0 -0.00000000000E+00 -0.00000000000E+00 -0.10532352297E+03  0.10532352297E+03  0.00000000000E+00 0. -1.
    9000006    2    1    2  501    0  0.00000000000E+00  0.00000000000E+00  0.89467647703E+03  0.11053235230E+04  0.64907171552E+03 0.  0.
         13    1    3    3    0    0  0.22693486735E+03 -0.22311479137E+03  0.55563009398E+03  0.64031589507E+03  0.00000000000E+00 0. -1.
          4    1    3    3  501    0 -0.22693486735E+03  0.22311479137E+03  0.33904638305E+03  0.46500762790E+03  0.00000000000E+00 0. -1.
<mgrwt>
<rscale>  0 0.64907172E+03</rscale>
<asrwt>0</asrwt>
<pdfrwt beam="1">0</pdfrwt>
<pdfrwt beam="2">  1        2 0.38299544E+00 0.64907172E+03</pdfrwt>
<totfact> 0.46084481E+00</totfact>
</mgrwt>
</event>
<event>
 5    1  0.2357694E-004  0.6425756E+03  0.7818608E-02  0.9820811E-01
         13   -1    0    0    0    0  0.00000000000E+00  0.00000000000E+00  0.10000000000E+04  0.10000000000E+04  0.00000000000E+00 0. -1.
          2   -1    0    0  501    0 -0.00000000000E+00 -0.00000000000E+00 -0.10322586163E+03  0.10322586163E+03  0.00000000000E+00 0. -1.
    9000006    2    1    2  501    0  0.00000000000E+00  0.00000000000E+00  0.89677413837E+03  0.11032258616E+04  0.64257563487E+03 0.  0.
         13    1    3    3    0    0 -0.25351457599E+02  0.30389210318E+03  0.62206173219E+03  0.69278705634E+03  0.00000000000E+00 0. -1.
          4    1    3    3  501    0  0.25351457599E+02 -0.30389210318E+03  0.27471240618E+03  0.41043880529E+03  0.00000000000E+00 0. -1.
<mgrwt>
<rscale>  0 0.64257563E+03</rscale>
<asrwt>0</asrwt>
<pdfrwt beam="1">0</pdfrwt>
<pdfrwt beam="2">  1        2 0.37536756E+00 0.64257563E+03</pdfrwt>
<totfact> 0.49192590E+00</totfact>
</mgrwt>
</event>
<event>
 5    1  0.2357694E-004  0.6470895E+03  0.7818608E-02  0.9812256E-01
         13   -1    0    0    0    0  0.00000000000E+00  0.00000000000E+00  0.10000000000E+04  0.10000000000E+04  0.00000000000E+00 0. -1.
          2   -1    0    0  501    0 -0.00000000000E+00 -0.00000000000E+00 -0.10468119578E+03  0.10468119578E+03  0.00000000000E+00 0. -1.
    9000006    2    1    2  501    0  0.00000000000E+00  0.00000000000E+00  0.89531880422E+03  0.11046811958E+04  0.64708947071E+03 0.  0.
         13    1    3    3    0    0 -0.35461209293E+02  0.66346544876E+02 -0.89543205334E+02  0.11695019027E+03  0.00000000000E+00 0. -1.
          4    1    3    3  501    0  0.35461209293E+02 -0.66346544876E+02  0.98486200956E+03  0.98773100551E+03  0.00000000000E+00 0. -1.
<mgrwt>
<rscale>  0 0.64708947E+03</rscale>
<asrwt>0</asrwt>
<pdfrwt beam="1">0</pdfrwt>
<pdfrwt beam="2">  1        2 0.38065970E+00 0.64708947E+03</pdfrwt>
<totfact> 0.47016672E+00</totfact>
</mgrwt>
</event>
<event>
 5    1  0.2357694E-004  0.6130814E+03  0.7818608E-02  0.9878632E-01
         13   -1    0    0    0    0  0.00000000000E+00  0.00000000000E+00  0.10000000000E+04  0.10000000000E+04  0.00000000000E+00 0. -1.
          2   -1    0    0  501    0 -0.00000000000E+00 -0.00000000000E+00 -0.93967211735E+02  0.93967211735E+02  0.00000000000E+00 0. -1.
    9000006    2    1    2  501    0  0.00000000000E+00  0.00000000000E+00  0.90603278827E+03  0.10939672117E+04  0.61308143581E+03 0.  0.
         13    1    3    3    0    0 -0.13960700027E+02 -0.25631785201E+03  0.75199091796E+03  0.79459680536E+03  0.00000000000E+00 0. -1.
          4    1    3    3  501    0  0.13960700027E+02  0.25631785201E+03  0.15404187031E+03  0.29937040637E+03  0.00000000000E+00 0. -1.
<mgrwt>
<rscale>  0 0.61308144E+03</rscale>
<asrwt>0</asrwt>
<pdfrwt beam="1">0</pdfrwt>
<pdfrwt beam="2">  1        2 0.34169967E+00 0.61308144E+03</pdfrwt>
<totfact> 0.65353300E+00</totfact>
</mgrwt>
</event>
<event>
 5    1  0.2357694E-004  0.6479686E+03  0.7818608E-02  0.9810599E-01
         13   -1    0    0    0    0  0.00000000000E+00  0.00000000000E+00  0.10000000000E+04  0.10000000000E+04  0.00000000000E+00 0. -1.
          2   -1    0    0  501    0 -0.00000000000E+00 -0.00000000000E+00 -0.10496581071E+03  0.10496581071E+03  0.00000000000E+00 0. -1.
    9000006    2    1    2  501    0  0.00000000000E+00  0.00000000000E+00  0.89503418929E+03  0.11049658107E+04  0.64796855081E+03 0.  0.
         13    1    3    3    0    0 -0.24146739176E+03 -0.19510682610E+03  0.60559024754E+03  0.68052385909E+03  0.00000000000E+00 0. -1.
          4    1    3    3  501    0  0.24146739176E+03  0.19510682610E+03  0.28944394175E+03  0.42444195162E+03  0.00000000000E+00 0. -1.
<mgrwt>
<rscale>  0 0.64796855E+03</rscale>
<asrwt>0</asrwt>
<pdfrwt beam="1">0</pdfrwt>
<pdfrwt beam="2">  1        2 0.38169466E+00 0.64796855E+03</pdfrwt>
<totfact> 0.46601524E+00</totfact>
</mgrwt>
</event>
<event>
 5    1  0.2357694E-004  0.5804265E+03  0.7818608E-02  0.9946868E-01
         13   -1    0    0    0    0  0.00000000000E+00  0.00000000000E+00  0.10000000000E+04  0.10000000000E+04  0.00000000000E+00 0. -1.
          2   -1    0    0  501    0 -0.00000000000E+00 -0.00000000000E+00 -0.84223742844E+02  0.84223742844E+02  0.00000000000E+00 0. -1.
    9000006    2    1    2  501    0  0.00000000000E+00  0.00000000000E+00  0.91577625716E+03  0.10842237428E+04  0.58042654262E+03 0.  0.
         13    1    3    3    0    0 -0.28550080804E+03 -0.88599621733E+01  0.36200914285E+03  0.46112886467E+03  0.00000000000E+00 0. -1.
          4    1    3    3  501    0  0.28550080804E+03  0.88599621733E+01  0.55376711431E+03  0.62309487818E+03  0.00000000000E+00 0. -1.
<mgrwt>
<rscale>  0 0.58042654E+03</rscale>
<asrwt>0</asrwt>
<pdfrwt beam="1">0</pdfrwt>
<pdfrwt beam="2">  1        2 0.30626880E+00 0.58042654E+03</pdfrwt>
<totfact> 0.87677958E+00</totfact>
</mgrwt>
</event>
<event>
 5    1  0.2357694E-004  0.6457665E+03  0.7818608E-02  0.9814756E-01
         13   -1    0    0    0    0  0.00000000000E+00  0.00000000000E+00  0.10000000000E+04  0.10000000000E+04  0.00000000000E+00 0. -1.
          2   -1    0    0  501    0 -0.00000000000E+00 -0.00000000000E+00 -0.10425359749E+03  0.10425359749E+03  0.00000000000E+00 0. -1.
    9000006    2    1    2  501    0  0.00000000000E+00  0.00000000000E+00  0.89574640251E+03  0.11042535975E+04  0.64576651352E+03 0.  0.
         13    1    3    3    0    0 -0.23659556073E+02  0.14301404295E+03  0.94123036817E+03  0.95232735813E+03  0.00000000000E+00 0. -1.
          4    1    3    3  501    0  0.23659556073E+02 -0.14301404295E+03 -0.45483965666E+02  0.15192623936E+03  0.00000000000E+00 0. -1.
<mgrwt>
<rscale>  0 0.64576651E+03</rscale>
<asrwt>0</asrwt>
<pdfrwt beam="1">0</pdfrwt>
<pdfrwt beam="2">  1        2 0.37910479E+00 0.64576651E+03</pdfrwt>
<totfact> 0.47646705E+00</totfact>
</mgrwt>
</event>
<event>
 5    1  0.2357694E-004  0.6325976E+03  0.7818608E-02  0.9839993E-01
         13   -1    0    0    0    0  0.00000000000E+00  0.00000000000E+00  0.10000000000E+04  0.10000000000E+04  0.00000000000E+00 0. -1.
          2   -1    0    0  501    0 -0.00000000000E+00 -0.00000000000E+00 -0.10004491723E+03  0.10004491723E+03  0.00000000000E+00 0. -1.
    9000006    2    1    2  501    0  0.00000000000E+00  0.00000000000E+00  0.89995508277E+03  0.11000449172E+04  0.63259755684E+03 0.  0.
         13    1    3    3    0    0  0.16558065786E+03  0.11522344816E+03  0.87361936729E+03  0.89660704668E+03  0.00000000000E+00 0. -1.
          2    1    3    3  501    0 -0.16558065786E+03 -0.11522344816E+03  0.26335715482E+02  0.20343787055E+03  0.00000000000E+00 0. -1.
<mgrwt>
<rscale>  0 0.63259756E+03</rscale>
<asrwt>0</asrwt>
<pdfrwt beam="1">0</pdfrwt>
<pdfrwt beam="2">  1        2 0.36380047E+00 0.63259756E+03</pdfrwt>
<totfact> 0.54273164E+00</totfact>
</mgrwt>
</event>
<event>
 5    1  0.2357694E-004  0.6604333E+03  0.7818608E-02  0.9787397E-01
         13   -1    0    0    0    0  0.00000000000E+00  0.00000000000E+00  0.10000000000E+04  0.10000000000E+04  0.00000000000E+00 0. -1.
          2   -1    0    0  501    0 -0.00000000000E+00 -0.00000000000E+00 -0.10904302087E+03  0.10904302087E+03  0.00000000000E+00 0. -1.
    9000006    2    1    2  501    0  0.00000000000E+00  0.00000000000E+00  0.89095697913E+03  0.11090430209E+04  0.66043325437E+03 0.  0.
         13    1    3    3    0    0  0.17605277230E+03  0.25553512225E+03  0.63509611354E+03  0.70685207135E+03  0.00000000000E+00 0. -1.
          2    1    3    3  501    0 -0.17605277230E+03 -0.25553512225E+03  0.25586086559E+03  0.40219094952E+03  0.00000000000E+00 0. -1.
<mgrwt>
<rscale>  0 0.66043325E+03</rscale>
<asrwt>0</asrwt>
<pdfrwt beam="1">0</pdfrwt>
<pdfrwt beam="2">  1        2 0.39652091E+00 0.66043325E+03</pdfrwt>
<totfact> 0.41007926E+00</totfact>
</mgrwt>
</event>
<event>
 5    1  0.2357694E-004  0.6542262E+03  0.7818608E-02  0.9798881E-01
         13   -1    0    0    0    0  0.00000000000E+00  0.00000000000E+00  0.10000000000E+04  0.10000000000E+04  0.00000000000E+00 0. -1.
          2   -1    0    0  501    0 -0.00000000000E+00 -0.00000000000E+00 -0.10700297223E+03  0.10700297223E+03  0.00000000000E+00 0. -1.
    9000006    2    1    2  501    0  0.00000000000E+00  0.00000000000E+00  0.89299702777E+03  0.11070029722E+04  0.65422617567E+03 0.  0.
         13    1    3    3    0    0  0.11289748055E+03 -0.38741437893E+02 -0.68839785496E+02  0.13778844723E+03  0.00000000000E+00 0. -1.
          4    1    3    3  501    0 -0.11289748055E+03  0.38741437893E+02  0.96183681326E+03  0.96921452500E+03  0.00000000000E+00 0. -1.
<mgrwt>
<rscale>  0 0.65422618E+03</rscale>
<asrwt>0</asrwt>
<pdfrwt beam="1">0</pdfrwt>
<pdfrwt beam="2">  1        2 0.38910254E+00 0.65422618E+03</pdfrwt>
<totfact> 0.43725837E+00</totfact>
</mgrwt>
</event>
<event>
 5    1  0.2357694E-004  0.6296881E+03  0.7818608E-02  0.9845658E-01
         13   -1    0    0    0    0  0.00000000000E+00  0.00000000000E+00  0.10000000000E+04  0.10000000000E+04  0.00000000000E+00 0. -1.
          2   -1    0    0  501    0 -0.00000000000E+00 -0.00000000000E+00 -0.99126783258E+02  0.99126783258E+02  0.00000000000E+00 0. -1.
    9000006    2    1    2  501    0  0.00000000000E+00  0.00000000000E+00  0.90087321674E+03  0.10991267833E+04  0.62968812362E+03 0.  0.
         13    1    3    3    0    0  0.82225203271E+02 -0.16594878792E+02  0.98013601921E+03  0.98371895896E+03  0.00000000000E+00 0. -1.
          4    1    3    3  501    0 -0.82225203271E+02  0.16594878792E+02 -0.79262802468E+02  0.11540782430E+03  0.00000000000E+00 0. -1.
<mgrwt>
<rscale>  0 0.62968812E+03</rscale>
<asrwt>0</asrwt>
<pdfrwt beam="1">0</pdfrwt>
<pdfrwt beam="2">  1        2 0.36046179E+00 0.62968812E+03</pdfrwt>
<totfact> 0.55826803E+00</totfact>
</mgrwt>
</event>
<event>
 5    1  0.2357694E-004  0.6477607E+03  0.7818608E-02  0.9810990E-01
         13   -1    0    0    0    0  0.00000000000E+00  0.00000000000E+00  0.10000000000E+04  0.10000000000E+04  0.00000000000E+00 0. -1.
          2   -1    0    0  501    0 -0.00000000000E+00 -0.00000000000E+00 -0.10489849431E+03  0.10489849431E+03  0.00000000000E+00 0. -1.
    9000006    2    1    2  501    0  0.00000000000E+00  0.00000000000E+00  0.89510150569E+03  0.11048984943E+04  0.64776074074E+03 0.  0.
         13    1    3    3    0    0  0.20265302460E+03  0.18831330390E+03  0.16025793918E+03  0.31970729719E+03  0.00000000000E+00 0. -1.
          2    1    3    3  501    0 -0.20265302460E+03 -0.18831330390E+03  0.73484356651E+03  0.78519119712E+03  0.00000000000E+00 0. -1.
<mgrwt>
<rscale>  0 0.64776074E+03</rscale>
<asrwt>0</asrwt>
<pdfrwt beam="1">0</pdfrwt>
<pdfrwt beam="2">  1        2 0.38144987E+00 0.64776074E+03</pdfrwt>
<totfact> 0.46699412E+00</totfact>
</mgrwt>
</event>
<event>
 5    1  0.2357694E-004  0.6498121E+03  0.7818608E-02  0.9807132E-01
         13   -1    0    0    0    0  0.00000000000E+00  0.00000000000E+00  0.10000000000E+04  0.10000000000E+04  0.00000000000E+00 0. -1.
          2   -1    0    0  501    0 -0.00000000000E+00 -0.00000000000E+00 -0.10556392710E+03  0.10556392710E+03  0.00000000000E+00 0. -1.
    9000006    2    1    2  501    0  0.00000000000E+00  0.00000000000E+00  0.89443607290E+03  0.11055639271E+04  0.64981205620E+03 0.  0.
         13    1    3    3    0    0  0.30424828631E+03 -0.72654065584E+02  0.59668897361E+03  0.67370866419E+03  0.00000000000E+00 0. -1.
          4    1    3    3  501    0 -0.30424828631E+03  0.72654065584E+02  0.29774709929E+03  0.43185526291E+03  0.00000000000E+00 0. -1.
<mgrwt>
<rscale>  0 0.64981206E+03</rscale>
<asrwt>0</asrwt>
<pdfrwt beam="1">0</pdfrwt>
<pdfrwt beam="2">  1        2 0.38386964E+00 0.64981206E+03</pdfrwt>
<totfact> 0.45739930E+00</totfact>
</mgrwt>
</event>
<event>
 5    1  0.2357694E-004  0.6415034E+03  0.7818608E-02  0.9822854E-01
         13   -1    0    0    0    0  0.00000000000E+00  0.00000000000E+00  0.10000000000E+04  0.10000000000E+04  0.00000000000E+00 0. -1.
          2   -1    0    0  501    0 -0.00000000000E+00 -0.00000000000E+00 -0.10288165688E+03  0.10288165688E+03  0.00000000000E+00 0. -1.
    9000006    2    1    2  501    0  0.00000000000E+00  0.00000000000E+00  0.89711834312E+03  0.11028816569E+04  0.64150341193E+03 0.  0.
         13    1    3    3    0    0  0.13817565330E+03 -0.26148516829E+03  0.66200949246E+03  0.72506797785E+03  0.00000000000E+00 0. -1.
          2    1    3    3  501    0 -0.13817565330E+03  0.26148516829E+03  0.23510885066E+03  0.37781367903E+03  0.00000000000E+00 0. -1.
<mgrwt>
<rscale>  0 0.64150341E+03</rscale>
<asrwt>0</asrwt>
<pdfrwt beam="1">0</pdfrwt>
<pdfrwt beam="2">  1        2 0.37411590E+00 0.64150341E+03</pdfrwt>
<totfact> 0.49720521E+00</totfact>
</mgrwt>
</event>
<event>
 5    1  0.2357694E-004  0.6435716E+03  0.7818608E-02  0.9818917E-01
         13   -1    0    0    0    0  0.00000000000E+00  0.00000000000E+00  0.10000000000E+04  0.10000000000E+04  0.00000000000E+00 0. -1.
          2   -1    0    0  501    0 -0.00000000000E+00 -0.00000000000E+00 -0.10354608640E+03  0.10354608640E+03  0.00000000000E+00 0. -1.
    9000006    2    1    2  501    0  0.00000000000E+00  0.00000000000E+00  0.89645391360E+03  0.11035460864E+04  0.64357155436E+03 0.  0.
         13    1    3    3    0    0  0.55216883070E+02  0.29578748637E+03  0.25266638937E+03  0.39291149842E+03  0.00000000000E+00 0. -1.
          4    1    3    3  501    0 -0.55216883070E+02 -0.29578748637E+03  0.64378752424E+03  0.71063458798E+03  0.00000000000E+00 0. -1.
<mgrwt>
<rscale>  0 0.64357155E+03</rscale>
<asrwt>0</asrwt>
<pdfrwt beam="1">0</pdfrwt>
<pdfrwt beam="2">  1        2 0.37653202E+00 0.64357155E+03</pdfrwt>
<totfact> 0.48706079E+00</totfact>
</mgrwt>
</event>
<event>
 5    1  0.2357694E-004  0.6425726E+03  0.7818608E-02  0.9820817E-01
         13   -1    0    0    0    0  0.00000000000E+00  0.00000000000E+00  0.10000000000E+04  0.10000000000E+04  0.00000000000E+00 0. -1.
          2   -1    0    0  501    0 -0.00000000000E+00 -0.00000000000E+00 -0.10322488988E+03  0.10322488988E+03  0.00000000000E+00 0. -1.
    9000006    2    1    2  501    0  0.00000000000E+00  0.00000000000E+00  0.89677511012E+03  0.11032248899E+04  0.64257261032E+03 0.  0.
         13    1    3    3    0    0 -0.31915605237E+03 -0.35157594584E+02  0.42894440748E+03  0.53580775184E+03  0.00000000000E+00 0. -1.
          2    1    3    3  501    0  0.31915605237E+03  0.35157594584E+02  0.46783070263E+03  0.56741713804E+03  0.00000000000E+00 0. -1.
<mgrwt>
<rscale>  0 0.64257261E+03</rscale>
<asrwt>0</asrwt>
<pdfrwt beam="1">0</pdfrwt>
<pdfrwt beam="2">  1        2 0.37536403E+00 0.64257261E+03</pdfrwt>
<totfact> 0.49194073E+00</totfact>
</mgrwt>
</event>
<event>
 5    1  0.2357694E-004  0.6554337E+03  0.7818608E-02  0.9796636E-01
         13   -1    0    0    0    0  0.00000000000E+00  0.00000000000E+00  0.10000000000E+04  0.10000000000E+04  0.00000000000E+00 0. -1.
          2   -1    0    0  501    0 -0.00000000000E+00 -0.00000000000E+00 -0.10739833792E+03  0.10739833792E+03  0.00000000000E+00 0. -1.
    9000006    2    1    2  501    0  0.00000000000E+00  0.00000000000E+00  0.89260166208E+03  0.11073983379E+04  0.65543371266E+03 0.  0.
         13    1    3    3    0    0  0.26555044805E+03 -0.83432406286E+01  0.12213446198E+03  0.29240977570E+03  0.00000000000E+00 0. -1.
          4    1    3    3  501    0 -0.26555044805E+03  0.83432406286E+01  0.77046720010E+03  0.81498856222E+03  0.00000000000E+00 0. -1.
<mgrwt>
<rscale>  0 0.65543371E+03</rscale>
<asrwt>0</asrwt>
<pdfrwt beam="1">0</pdfrwt>
<pdfrwt beam="2">  1        2 0.39054023E+00 0.65543371E+03</pdfrwt>
<totfact> 0.43186721E+00</totfact>
</mgrwt>
</event>
<event>
 5    1  0.2357694E-004  0.6511947E+03  0.7818608E-02  0.9804540E-01
         13   -1    0    0    0    0  0.00000000000E+00  0.00000000000E+00  0.10000000000E+04  0.10000000000E+04  0.00000000000E+00 0. -1.
          2   -1    0    0  501    0 -0.00000000000E+00 -0.00000000000E+00 -0.10601363474E+03  0.10601363474E+03  0.00000000000E+00 0. -1.
    9000006    2    1    2  501    0  0.00000000000E+00  0.00000000000E+00  0.89398636526E+03  0.11060136347E+04  0.65119470127E+03 0.  0.
         13    1    3    3    0    0 -0.32173755916E+03 -0.30893828582E+02  0.51373441816E+03  0.60695348917E+03  0.00000000000E+00 0. -1.
          4    1    3    3  501    0  0.32173755916E+03  0.30893828582E+02  0.38025194710E+03  0.49906014557E+03  0.00000000000E+00 0. -1.
<mgrwt>
<rscale>  0 0.65119470E+03</rscale>
<asrwt>0</asrwt>
<pdfrwt beam="1">0</pdfrwt>
<pdfrwt beam="2">  1        2 0.38550494E+00 0.65119470E+03</pdfrwt>
<totfact> 0.45101670E+00</totfact>
</mgrwt>
</event>
<event>
 5    1  0.2357694E-004  0.6566440E+03  0.7818608E-02  0.9794391E-01
         13   -1    0    0    0    0  0.00000000000E+00  0.00000000000E+00  0.10000000000E+04  0.10000000000E+04  0.00000000000E+00 0. -1.
          2   -1    0    0  501    0 -0.00000000000E+00 -0.00000000000E+00 -0.10779533140E+03  0.10779533140E+03  0.00000000000E+00 0. -1.
    9000006    2    1    2  501    0  0.00000000000E+00  0.00000000000E+00  0.89220466860E+03  0.11077953314E+04  0.65664398696E+03 0.  0.
         13    1    3    3    0    0  0.20743907556E+03 -0.14112780270E+03  0.80337330688E+03  0.84163929148E+03  0.00000000000E+00 0. -1.
          4    1    3    3  501    0 -0.20743907556E+03  0.14112780270E+03  0.88831361719E+02  0.26615603992E+03  0.00000000000E+00 0. -1.
<mgrwt>
<rscale>  0 0.65664399E+03</rscale>
<asrwt>0</asrwt>
<pdfrwt beam="1">0</pdfrwt>
<pdfrwt beam="2">  1        2 0.39198385E+00 0.65664399E+03</pdfrwt>
<totfact> 0.42651434E+00</totfact>
</mgrwt>
</event>
<event>
 5    1  0.2357694E-004  0.6548819E+03  0.7818608E-02  0.9797661E-01
         13   -1    0    0    0    0  0.00000000000E+00  0.00000000000E+00  0.10000000000E+04  0.10000000000E+04  0.00000000000E+00 0. -1.
          2   -1    0    0  501    0 -0.00000000000E+00 -0.00000000000E+00 -0.10721758833E+03  0.10721758833E+03  0.00000000000E+00 0. -1.
    9000006    2    1    2  501    0  0.00000000000E+00  0.00000000000E+00  0.89278241167E+03  0.11072175883E+04  0.65488193845E+03 0.  0.
         13    1    3    3    0    0  0.23210957306E+03  0.17312728657E+03  0.70485297859E+03  0.76201419454E+03  0.00000000000E+00 0. -1.
          4    1    3    3  501    0 -0.23210957306E+03 -0.17312728657E+03  0.18792943308E+03  0.34520339378E+03  0.00000000000E+00 0. -1.
<mgrwt>
<rscale>  0 0.65488194E+03</rscale>
<asrwt>0</asrwt>
<pdfrwt beam="1">0</pdfrwt>
<pdfrwt beam="2">  1        2 0.38988296E+00 0.65488194E+03</pdfrwt>
<totfact> 0.43432439E+00</totfact>
</mgrwt>
</event>
<event>
 5    1  0.2357694E-004  0.6277304E+03  0.7818608E-02  0.9849488E-01
         13   -1    0    0    0    0  0.00000000000E+00  0.00000000000E+00  0.10000000000E+04  0.10000000000E+04  0.00000000000E+00 0. -1.
          2   -1    0    0  501    0 -0.00000000000E+00 -0.00000000000E+00 -0.98511373906E+02  0.98511373906E+02  0.00000000000E+00 0. -1.
    9000006    2    1    2  501    0  0.00000000000E+00  0.00000000000E+00  0.90148862609E+03  0.10985113739E+04  0.62773043229E+03 0.  0.
         13    1    3    3    0    0  0.25971300593E+03  0.87253398695E+02  0.18277906847E+03  0.32935116351E+03  0.00000000000E+00 0. -1.
          4    1    3    3  501    0 -0.25971300593E+03 -0.87253398695E+02  0.71870955762E+03  0.76916021040E+03  0.00000000000E+00 0. -1.
<mgrwt>
<rscale>  0 0.62773043E+03</rscale>
<asrwt>0</asrwt>
<pdfrwt beam="1">0</pdfrwt>
<pdfrwt beam="2">  1        2 0.35822393E+00 0.62773043E+03</pdfrwt>
<totfact> 0.56891055E+00</totfact>
</mgrwt>
</event>
<event>
 5    1  0.2357694E-004  0.6586107E+03  0.7818608E-02  0.9790755E-01
         13   -1    0    0    0    0  0.00000000000E+00  0.00000000000E+00  0.10000000000E+04  0.10000000000E+04  0.00000000000E+00 0. -1.
          2   -1    0    0  501    0 -0.00000000000E+00 -0.00000000000E+00 -0.10844202523E+03  0.10844202523E+03  0.00000000000E+00 0. -1.
    9000006    2    1    2  501    0  0.00000000000E+00  0.00000000000E+00  0.89155797477E+03  0.11084420252E+04  0.65861073551E+03 0.  0.
         13    1    3    3    0    0  0.31769606419E+03  0.51457913071E+02  0.32841075450E+03  0.45981771354E+03  0.00000000000E+00 0. -1.
          4    1    3    3  501    0 -0.31769606419E+03 -0.51457913071E+02  0.56314722027E+03  0.64862431169E+03  0.00000000000E+00 0. -1.
<mgrwt>
<rscale>  0 0.65861074E+03</rscale>
<asrwt>0</asrwt>
<pdfrwt beam="1">0</pdfrwt>
<pdfrwt beam="2">  1        2 0.39433547E+00 0.65861074E+03</pdfrwt>
<totfact> 0.41792289E+00</totfact>
</mgrwt>
</event>
<event>
 5    1  0.2357694E-004  0.6437393E+03  0.7818608E-02  0.9818598E-01
         13   -1    0    0    0    0  0.00000000000E+00  0.00000000000E+00  0.10000000000E+04  0.10000000000E+04  0.00000000000E+00 0. -1.
          2   -1    0    0  501    0 -0.00000000000E+00 -0.00000000000E+00 -0.10360008003E+03  0.10360008003E+03  0.00000000000E+00 0. -1.
    9000006    2    1    2  501    0  0.00000000000E+00  0.00000000000E+00  0.89639991997E+03  0.11036000800E+04  0.64373932623E+03 0.  0.
         13    1    3    3    0    0  0.78806932720E+01 -0.31202643844E+03  0.31345664419E+03  0.44235468959E+03  0.00000000000E+00 0. -1.
          2    1    3    3  501    0 -0.78806932720E+01  0.31202643844E+03  0.58294327577E+03  0.66124539044E+03  0.00000000000E+00 0. -1.
<mgrwt>
<rscale>  0 0.64373933E+03</rscale>
<asrwt>0</asrwt>
<pdfrwt beam="1">0</pdfrwt>
<pdfrwt beam="2">  1        2 0.37672836E+00 0.64373933E+03</pdfrwt>
<totfact> 0.48624482E+00</totfact>
</mgrwt>
</event>
<event>
 5    1  0.2357694E-004  0.6569591E+03  0.7818608E-02  0.9793808E-01
         13   -1    0    0    0    0  0.00000000000E+00  0.00000000000E+00  0.10000000000E+04  0.10000000000E+04  0.00000000000E+00 0. -1.
          2   -1    0    0  501    0 -0.00000000000E+00 -0.00000000000E+00 -0.10789881294E+03  0.10789881294E+03  0.00000000000E+00 0. -1.
    9000006    2    1    2  501    0  0.00000000000E+00  0.00000000000E+00  0.89210118706E+03  0.11078988129E+04  0.65695909443E+03 0.  0.
         13    1    3    3    0    0 -0.43615017687E+02 -0.57830805478E+01 -0.10290737542E+03  0.11191801332E+03  0.00000000000E+00 0. -1.
          2    1    3    3  501    0  0.43615017687E+02  0.57830805478E+01  0.99500856249E+03  0.99598079962E+03  0.00000000000E+00 0. -1.
<mgrwt>
<rscale>  0 0.65695909E+03</rscale>
<asrwt>0</asrwt>
<pdfrwt beam="1">0</pdfrwt>
<pdfrwt beam="2">  1        2 0.39236015E+00 0.65695909E+03</pdfrwt>
<totfact> 0.42512893E+00</totfact>
</mgrwt>
</event>
<event>
 5    1  0.2357694E-004  0.6500742E+03  0.7818608E-02  0.9806640E-01
         13   -1    0    0    0    0  0.00000000000E+00  0.00000000000E+00  0.10000000000E+04  0.10000000000E+04  0.00000000000E+00 0. -1.
          2   -1    0    0  501    0 -0.00000000000E+00 -0.00000000000E+00 -0.10564911360E+03  0.10564911360E+03  0.00000000000E+00 0. -1.
    9000006    2    1    2  501    0  0.00000000000E+00  0.00000000000E+00  0.89435088640E+03  0.11056491136E+04  0.65007419146E+03 0.  0.
         13    1    3    3    0    0 -0.24806169579E+02  0.22486874432E+03  0.50235890502E+02  0.23174326941E+03  0.00000000000E+00 0. -1.
          2    1    3    3  501    0  0.24806169579E+02 -0.22486874432E+03  0.84411499590E+03  0.87390584419E+03  0.00000000000E+00 0. -1.
<mgrwt>
<rscale>  0 0.65007419E+03</rscale>
<asrwt>0</asrwt>
<pdfrwt beam="1">0</pdfrwt>
<pdfrwt beam="2">  1        2 0.38417941E+00 0.65007419E+03</pdfrwt>
<totfact> 0.45618401E+00</totfact>
</mgrwt>
</event>
<event>
 5    1  0.2357694E-004  0.6560987E+03  0.7818608E-02  0.9795402E-01
         13   -1    0    0    0    0  0.00000000000E+00  0.00000000000E+00  0.10000000000E+04  0.10000000000E+04  0.00000000000E+00 0. -1.
          2   -1    0    0  501    0 -0.00000000000E+00 -0.00000000000E+00 -0.10761636661E+03  0.10761636661E+03  0.00000000000E+00 0. -1.
    9000006    2    1    2  501    0  0.00000000000E+00  0.00000000000E+00  0.89238363339E+03  0.11076163666E+04  0.65609867125E+03 0.  0.
         13    1    3    3    0    0 -0.10582597644E+03 -0.28447266745E+03  0.23606504404E+03  0.38451338186E+03  0.00000000000E+00 0. -1.
          2    1    3    3  501    0  0.10582597644E+03  0.28447266745E+03  0.65631858935E+03  0.72310298474E+03  0.00000000000E+00 0. -1.
<mgrwt>
<rscale>  0 0.65609867E+03</rscale>
<asrwt>0</asrwt>
<pdfrwt beam="1">0</pdfrwt>
<pdfrwt beam="2">  1        2 0.39133307E+00 0.65609867E+03</pdfrwt>
<totfact> 0.42891995E+00</totfact>
</mgrwt>
</event>
<event>
 5    1  0.2357694E-004  0.6465986E+03  0.7818608E-02  0.9813183E-01
         13   -1    0    0    0    0  0.00000000000E+00  0.00000000000E+00  0.10000000000E+04  0.10000000000E+04  0.00000000000E+00 0. -1.
          2   -1    0    0  501    0 -0.00000000000E+00 -0.00000000000E+00 -0.10452244569E+03  0.10452244569E+03  0.00000000000E+00 0. -1.
    9000006    2    1    2  501    0  0.00000000000E+00  0.00000000000E+00  0.89547755431E+03  0.11045224457E+04  0.64659862570E+03 0.  0.
         13    1    3    3    0    0  0.85934059555E+02  0.27157958127E+02 -0.82631039139E+02  0.12227062571E+03  0.00000000000E+00 0. -1.
          2    1    3    3  501    0 -0.85934059555E+02 -0.27157958127E+02  0.97810859345E+03  0.98225181998E+03  0.00000000000E+00 0. -1.
<mgrwt>
<rscale>  0 0.64659863E+03</rscale>
<asrwt>0</asrwt>
<pdfrwt beam="1">0</pdfrwt>
<pdfrwt beam="2">  1        2 0.38008242E+00 0.64659863E+03</pdfrwt>
<totfact> 0.47249687E+00</totfact>
</mgrwt>
</event>
<event>
 5    1  0.2357694E-004  0.6535511E+03  0.7818608E-02  0.9800139E-01
         13   -1    0    0    0    0  0.00000000000E+00  0.00000000000E+00  0.10000000000E+04  0.10000000000E+04  0.00000000000E+00 0. -1.
          2   -1    0    0  501    0 -0.00000000000E+00 -0.00000000000E+00 -0.10678224675E+03  0.10678224675E+03  0.00000000000E+00 0. -1.
    9000006    2    1    2  501    0  0.00000000000E+00  0.00000000000E+00  0.89321775325E+03  0.11067822468E+04  0.65355105922E+03 0.  0.
         13    1    3    3    0    0  0.24502223304E+03  0.21396051030E+03  0.49927756478E+03  0.59589687140E+03  0.00000000000E+00 0. -1.
          4    1    3    3  501    0 -0.24502223304E+03 -0.21396051030E+03  0.39394018847E+03  0.51088537535E+03  0.00000000000E+00 0. -1.
<mgrwt>
<rscale>  0 0.65355106E+03</rscale>
<asrwt>0</asrwt>
<pdfrwt beam="1">0</pdfrwt>
<pdfrwt beam="2">  1        2 0.38829990E+00 0.65355106E+03</pdfrwt>
<totfact> 0.44029456E+00</totfact>
</mgrwt>
</event>
<event>
 5    1  0.2357694E-004  0.6334843E+03  0.7818608E-02  0.9838273E-01
         13   -1    0    0    0    0  0.00000000000E+00  0.00000000000E+00  0.10000000000E+04  0.10000000000E+04  0.00000000000E+00 0. -1.
          2   -1    0    0  501    0 -0.00000000000E+00 -0.00000000000E+00 -0.10032559115E+03  0.10032559115E+03  0.00000000000E+00 0. -1.
    9000006    2    1    2  501    0  0.00000000000E+00  0.00000000000E+00  0.89967440885E+03  0.11003255912E+04  0.63348430495E+03 0.  0.
         13    1    3    3    0    0  0.30556811590E+03 -0.48150973950E+01  0.30523708297E+03  0.43193140131E+03  0.00000000000E+00 0. -1.
          2    1    3    3  501    0 -0.30556811590E+03  0.48150973950E+01  0.59443732587E+03  0.66839418984E+03  0.00000000000E+00 0. -1.
<mgrwt>
<rscale>  0 0.63348430E+03</rscale>
<asrwt>0</asrwt>
<pdfrwt beam="1">0</pdfrwt>
<pdfrwt beam="2">  1        2 0.36482110E+00 0.63348430E+03</pdfrwt>
<totfact> 0.53806230E+00</totfact>
</mgrwt>
</event>
<event>
 5    1  0.2357694E-004  0.6508125E+03  0.7818608E-02  0.9805256E-01
         13   -1    0    0    0    0  0.00000000000E+00  0.00000000000E+00  0.10000000000E+04  0.10000000000E+04  0.00000000000E+00 0. -1.
          2   -1    0    0  501    0 -0.00000000000E+00 -0.00000000000E+00 -0.10588921675E+03  0.10588921675E+03  0.00000000000E+00 0. -1.
    9000006    2    1    2  501    0  0.00000000000E+00  0.00000000000E+00  0.89411078325E+03  0.11058892167E+04  0.65081246684E+03 0.  0.
         13    1    3    3    0    0 -0.77350951325E+01 -0.29404092006E+03  0.68354549635E+03  0.74414671937E+03  0.00000000000E+00 0. -1.
          4    1    3    3  501    0  0.77350951325E+01  0.29404092006E+03  0.21056528690E+03  0.36174249738E+03  0.00000000000E+00 0. -1.
<mgrwt>
<rscale>  0 0.65081247E+03</rscale>
<asrwt>0</asrwt>
<pdfrwt beam="1">0</pdfrwt>
<pdfrwt beam="2">  1        2 0.38505251E+00 0.65081247E+03</pdfrwt>
<totfact> 0.45277440E+00</totfact>
</mgrwt>
</event>
<event>
 5    1  0.2357694E-004  0.5181900E+03  0.7818608E-02  0.1009137E+00
         13   -1    0    0    0    0  0.00000000000E+00  0.00000000000E+00  0.10000000000E+04  0.10000000000E+04  0.00000000000E+00 0. -1.
          2   -1    0    0  501    0 -0.00000000000E+00 -0.00000000000E+00 -0.67130207686E+02  0.67130207686E+02  0.00000000000E+00 0. -1.
    9000006    2    1    2  501    0  0.00000000000E+00  0.00000000000E+00  0.93286979231E+03  0.10671302077E+04  0.51818995624E+03 0.  0.
         13    1    3    3    0    0 -0.19832029002E+03  0.15681013676E+02  0.80826934924E+03  0.83239183835E+03  0.00000000000E+00 0. -1.
          4    1    3    3  501    0  0.19832029002E+03 -0.15681013676E+02  0.12460044307E+03  0.23473836934E+03  0.00000000000E+00 0. -1.
<mgrwt>
<rscale>  0 0.51818996E+03</rscale>
<asrwt>0</asrwt>
<pdfrwt beam="1">0</pdfrwt>
<pdfrwt beam="2">  1        2 0.24411036E+00 0.51818996E+03</pdfrwt>
<totfact> 0.14637168E+01</totfact>
</mgrwt>
</event>
<event>
 5    1  0.2357694E-004  0.6302230E+03  0.7818608E-02  0.9844614E-01
         13   -1    0    0    0    0  0.00000000000E+00  0.00000000000E+00  0.10000000000E+04  0.10000000000E+04  0.00000000000E+00 0. -1.
          2   -1    0    0  501    0 -0.00000000000E+00 -0.00000000000E+00 -0.99295255702E+02  0.99295255702E+02  0.00000000000E+00 0. -1.
    9000006    2    1    2  501    0  0.00000000000E+00  0.00000000000E+00  0.90070474430E+03  0.10992952557E+04  0.63022299451E+03 0.  0.
         13    1    3    3    0    0 -0.18463254130E+02 -0.10286715678E+03  0.96888871482E+03  0.97450904840E+03  0.00000000000E+00 0. -1.
          2    1    3    3  501    0  0.18463254130E+02  0.10286715678E+03 -0.68183970527E+02  0.12478620730E+03  0.00000000000E+00 0. -1.
<mgrwt>
<rscale>  0 0.63022299E+03</rscale>
<asrwt>0</asrwt>
<pdfrwt beam="1">0</pdfrwt>
<pdfrwt beam="2">  1        2 0.36107442E+00 0.63022299E+03</pdfrwt>
<totfact> 0.55538681E+00</totfact>
</mgrwt>
</event>
<event>
 5    1  0.2357694E-004  0.6523632E+03  0.7818608E-02  0.9802355E-01
         13   -1    0    0    0    0  0.00000000000E+00  0.00000000000E+00  0.10000000000E+04  0.10000000000E+04  0.00000000000E+00 0. -1.
          2   -1    0    0  501    0 -0.00000000000E+00 -0.00000000000E+00 -0.10639443177E+03  0.10639443177E+03  0.00000000000E+00 0. -1.
    9000006    2    1    2  501    0  0.00000000000E+00  0.00000000000E+00  0.89360556823E+03  0.11063944318E+04  0.65236318648E+03 0.  0.
         13    1    3    3    0    0 -0.17215432007E+03 -0.17906783241E+03  0.80534111520E+03  0.84277915871E+03  0.00000000000E+00 0. -1.
          4    1    3    3  501    0  0.17215432007E+03  0.17906783241E+03  0.88264453031E+02  0.26361527306E+03  0.00000000000E+00 0. -1.
<mgrwt>
<rscale>  0 0.65236319E+03</rscale>
<asrwt>0</asrwt>
<pdfrwt beam="1">0</pdfrwt>
<pdfrwt beam="2">  1        2 0.38688966E+00 0.65236319E+03</pdfrwt>
<totfact> 0.44567538E+00</totfact>
</mgrwt>
</event>
<event>
 5    1  0.2357694E-004  0.6444441E+03  0.7818608E-02  0.9817261E-01
         13   -1    0    0    0    0  0.00000000000E+00  0.00000000000E+00  0.10000000000E+04  0.10000000000E+04  0.00000000000E+00 0. -1.
          2   -1    0    0  501    0 -0.00000000000E+00 -0.00000000000E+00 -0.10382705145E+03  0.10382705145E+03  0.00000000000E+00 0. -1.
    9000006    2    1    2  501    0  0.00000000000E+00  0.00000000000E+00  0.89617294855E+03  0.11038270515E+04  0.64444410604E+03 0.  0.
         13    1    3    3    0    0 -0.28013752193E+03 -0.58036454612E+02  0.70203594163E+03  0.75808952281E+03  0.00000000000E+00 0. -1.
          2    1    3    3  501    0  0.28013752193E+03  0.58036454612E+02  0.19413700692E+03  0.34573752864E+03  0.00000000000E+00 0. -1.
<mgrwt>
<rscale>  0 0.64444411E+03</rscale>
<asrwt>0</asrwt>
<pdfrwt beam="1">0</pdfrwt>
<pdfrwt beam="2">  1        2 0.37755371E+00 0.64444411E+03</pdfrwt>
<totfact> 0.48282839E+00</totfact>
</mgrwt>
</event>
<event>
 5    1  0.2357694E-004  0.6469829E+03  0.7818608E-02  0.9812457E-01
         13   -1    0    0    0    0  0.00000000000E+00  0.00000000000E+00  0.10000000000E+04  0.10000000000E+04  0.00000000000E+00 0. -1.
          2   -1    0    0  501    0 -0.00000000000E+00 -0.00000000000E+00 -0.10464671249E+03  0.10464671249E+03  0.00000000000E+00 0. -1.
    9000006    2    1    2  501    0  0.00000000000E+00  0.00000000000E+00  0.89535328751E+03  0.11046467125E+04  0.64698288227E+03 0.  0.
         13    1    3    3    0    0  0.26385338642E+03 -0.15932743692E+03  0.61533831396E+03  0.68821877503E+03  0.00000000000E+00 0. -1.
          2    1    3    3  501    0 -0.26385338642E+03  0.15932743692E+03  0.28001497355E+03  0.41642793745E+03  0.00000000000E+00 0. -1.
<mgrwt>
<rscale>  0 0.64698288E+03</rscale>
<asrwt>0</asrwt>
<pdfrwt beam="1">0</pdfrwt>
<pdfrwt beam="2">  1        2 0.38053430E+00 0.64698288E+03</pdfrwt>
<totfact> 0.47067198E+00</totfact>
</mgrwt>
</event>
<event>
 5    1  0.2357694E-004  0.6397598E+03  0.7818608E-02  0.9826186E-01
         13   -1    0    0    0    0  0.00000000000E+00  0.00000000000E+00  0.10000000000E+04  0.10000000000E+04  0.00000000000E+00 0. -1.
          2   -1    0    0  501    0 -0.00000000000E+00 -0.00000000000E+00 -0.10232314613E+03  0.10232314613E+03  0.00000000000E+00 0. -1.
    9000006    2    1    2  501    0  0.00000000000E+00  0.00000000000E+00  0.89767685387E+03  0.11023231461E+04  0.63975978659E+03 0.  0.
         13    1    3    3    0    0 -0.23078140534E+03 -0.14426207570E+03  0.73844810552E+03  0.78700521478E+03  0.00000000000E+00 0. -1.
          4    1    3    3  501    0  0.23078140534E+03  0.14426207570E+03  0.15922874834E+03  0.31531793136E+03  0.00000000000E+00 0. -1.
<mgrwt>
<rscale>  0 0.63975979E+03</rscale>
<asrwt>0</asrwt>
<pdfrwt beam="1">0</pdfrwt>
<pdfrwt beam="2">  1        2 0.37208495E+00 0.63975979E+03</pdfrwt>
<totfact> 0.50588178E+00</totfact>
</mgrwt>
</event>
<event>
 5    1  0.2357694E-004  0.6415398E+03  0.7818608E-02  0.9822785E-01
         13   -1    0    0    0    0  0.00000000000E+00  0.00000000000E+00  0.10000000000E+04  0.10000000000E+04  0.00000000000E+00 0. -1.
          2   -1    0    0  501    0 -0.00000000000E+00 -0.00000000000E+00 -0.10289334343E+03  0.10289334343E+03  0.00000000000E+00 0. -1.
    9000006    2    1    2  501    0  0.00000000000E+00  0.00000000000E+00  0.89710665657E+03  0.11028933434E+04  0.64153984578E+03 0.  0.
         13    1    3    3    0    0 -0.78600885466E+02  0.20724238440E+03  0.49929651084E+02  0.22720139776E+03  0.00000000000E+00 0. -1.
          4    1    3    3  501    0  0.78600885466E+02 -0.20724238440E+03  0.84717700549E+03  0.87569194567E+03  0.00000000000E+00 0. -1.
<mgrwt>
<rscale>  0 0.64153985E+03</rscale>
<asrwt>0</asrwt>
<pdfrwt beam="1">0</pdfrwt>
<pdfrwt beam="2">  1        2 0.37415840E+00 0.64153985E+03</pdfrwt>
<totfact> 0.49702512E+00</totfact>
</mgrwt>
</event>
<event>
 5    1  0.2357694E-004  0.6428687E+03  0.7818608E-02  0.9820253E-01
         13   -1    0    0    0    0  0.00000000000E+00  0.00000000000E+00  0.10000000000E+04  0.10000000000E+04  0.00000000000E+00 0. -1.
          2   -1    0    0  501    0 -0.00000000000E+00 -0.00000000000E+00 -0.10332004754E+03  0.10332004754E+03  0.00000000000E+00 0. -1.
    9000006    2    1    2  501    0  0.00000000000E+00  0.00000000000E+00  0.89667995246E+03  0.11033200475E+04  0.64286871922E+03 0.  0.
         13    1    3    3    0    0 -0.17413151927E+03 -0.25323201977E+03  0.28668643382E+03  0.42028246832E+03  0.00000000000E+00 0. -1.
          2    1    3    3  501    0  0.17413151927E+03  0.25323201977E+03  0.60999351864E+03  0.68303757922E+03  0.00000000000E+00 0. -1.
<mgrwt>
<rscale>  0 0.64286872E+03</rscale>
<asrwt>0</asrwt>
<pdfrwt beam="1">0</pdfrwt>
<pdfrwt beam="2">  1        2 0.37571006E+00 0.64286872E+03</pdfrwt>
<totfact> 0.49049033E+00</totfact>
</mgrwt>
</event>
<event>
 5    1  0.2357694E-004  0.6486535E+03  0.7818608E-02  0.9809309E-01
         13   -1    0    0    0    0  0.00000000000E+00  0.00000000000E+00  0.10000000000E+04  0.10000000000E+04  0.00000000000E+00 0. -1.
          2   -1    0    0  501    0 -0.00000000000E+00 -0.00000000000E+00 -0.10518784845E+03  0.10518784845E+03  0.00000000000E+00 0. -1.
    9000006    2    1    2  501    0  0.00000000000E+00  0.00000000000E+00  0.89481215155E+03  0.11051878484E+04  0.64865352369E+03 0.  0.
         13    1    3    3    0    0 -0.27199669491E+03  0.10977555992E+03  0.68321709201E+03  0.74351763289E+03  0.00000000000E+00 0. -1.
          2    1    3    3  501    0  0.27199669491E+03 -0.10977555992E+03  0.21159505954E+03  0.36167021556E+03  0.00000000000E+00 0. -1.
<mgrwt>
<rscale>  0 0.64865352E+03</rscale>
<asrwt>0</asrwt>
<pdfrwt beam="1">0</pdfrwt>
<pdfrwt beam="2">  1        2 0.38250207E+00 0.64865352E+03</pdfrwt>
<totfact> 0.46279971E+00</totfact>
</mgrwt>
</event>
<event>
 5    1  0.2357694E-004  0.6529906E+03  0.7818608E-02  0.9801184E-01
         13   -1    0    0    0    0  0.00000000000E+00  0.00000000000E+00  0.10000000000E+04  0.10000000000E+04  0.00000000000E+00 0. -1.
          2   -1    0    0  501    0 -0.00000000000E+00 -0.00000000000E+00 -0.10659917171E+03  0.10659917171E+03  0.00000000000E+00 0. -1.
    9000006    2    1    2  501    0  0.00000000000E+00  0.00000000000E+00  0.89340082829E+03  0.11065991717E+04  0.65299057179E+03 0.  0.
         13    1    3    3    0    0 -0.27168325209E+03 -0.17952820251E+03  0.40670468146E+03  0.52100946526E+03  0.00000000000E+00 0. -1.
          2    1    3    3  501    0  0.27168325209E+03  0.17952820251E+03  0.48669614683E+03  0.58558970646E+03  0.00000000000E+00 0. -1.
<mgrwt>
<rscale>  0 0.65299057E+03</rscale>
<asrwt>0</asrwt>
<pdfrwt beam="1">0</pdfrwt>
<pdfrwt beam="2">  1        2 0.38763417E+00 0.65299057E+03</pdfrwt>
<totfact> 0.44282730E+00</totfact>
</mgrwt>
</event>
<event>
 5    1  0.2357694E-004  0.6362303E+03  0.7818608E-02  0.9832966E-01
         13   -1    0    0    0    0  0.00000000000E+00  0.00000000000E+00  0.10000000000E+04  0.10000000000E+04  0.00000000000E+00 0. -1.
          2   -1    0    0  501    0 -0.00000000000E+00 -0.00000000000E+00 -0.10119726031E+03  0.10119726031E+03  0.00000000000E+00 0. -1.
    9000006    2    1    2  501    0  0.00000000000E+00  0.00000000000E+00  0.89880273969E+03  0.11011972603E+04  0.63623033663E+03 0.  0.
         13    1    3    3    0    0 -0.59905742353E+02  0.23991673334E+03  0.10302839215E+03  0.26788726452E+03  0.00000000000E+00 0. -1.
          2    1    3    3  501    0  0.59905742353E+02 -0.23991673334E+03  0.79577434753E+03  0.83330999580E+03  0.00000000000E+00 0. -1.
<mgrwt>
<rscale>  0 0.63623034E+03</rscale>
<asrwt>0</asrwt>
<pdfrwt beam="1">0</pdfrwt>
<pdfrwt beam="2">  1        2 0.36799081E+00 0.63623034E+03</pdfrwt>
<totfact> 0.52379554E+00</totfact>
</mgrwt>
</event>
<event>
 5    1  0.2357694E-004  0.6827877E+03  0.7818608E-02  0.9747129E-01
         13   -1    0    0    0    0  0.00000000000E+00  0.00000000000E+00  0.10000000000E+04  0.10000000000E+04  0.00000000000E+00 0. -1.
          2   -1    0    0  501    0 -0.00000000000E+00 -0.00000000000E+00 -0.11654977449E+03  0.11654977449E+03  0.00000000000E+00 0. -1.
    9000006    2    1    2  501    0  0.00000000000E+00  0.00000000000E+00  0.88345022551E+03  0.11165497745E+04  0.68278774006E+03 0.  0.
         13    1    3    3    0    0  0.27318667969E+03  0.79482904905E+02  0.13317537450E+03  0.31414037388E+03  0.00000000000E+00 0. -1.
          2    1    3    3  501    0 -0.27318667969E+03 -0.79482904905E+02  0.75027485101E+03  0.80240940061E+03  0.00000000000E+00 0. -1.
<mgrwt>
<rscale>  0 0.68278774E+03</rscale>
<asrwt>0</asrwt>
<pdfrwt beam="1">0</pdfrwt>
<pdfrwt beam="2">  1        2 0.42381826E+00 0.68278774E+03</pdfrwt>
<totfact> 0.32262272E+00</totfact>
</mgrwt>
</event>
<event>
 5    1  0.2357694E-004  0.6300619E+03  0.7818608E-02  0.9844928E-01
         13   -1    0    0    0    0  0.00000000000E+00  0.00000000000E+00  0.10000000000E+04  0.10000000000E+04  0.00000000000E+00 0. -1.
          2   -1    0    0  501    0 -0.00000000000E+00 -0.00000000000E+00 -0.99244499705E+02  0.99244499705E+02  0.00000000000E+00 0. -1.
    9000006    2    1    2  501    0  0.00000000000E+00  0.00000000000E+00  0.90075550030E+03  0.10992444997E+04  0.63006190078E+03 0.  0.
         13    1    3    3    0    0 -0.21643174163E+03 -0.36103988492E+02  0.84475723965E+03  0.87278920176E+03  0.00000000000E+00 0. -1.
          2    1    3    3  501    0  0.21643174163E+03  0.36103988492E+02  0.55998260643E+02  0.22645529794E+03  0.00000000000E+00 0. -1.
<mgrwt>
<rscale>  0 0.63006190E+03</rscale>
<asrwt>0</asrwt>
<pdfrwt beam="1">0</pdfrwt>
<pdfrwt beam="2">  1        2 0.36088985E+00 0.63006190E+03</pdfrwt>
<totfact> 0.55625339E+00</totfact>
</mgrwt>
</event>
<event>
 5    1  0.2357694E-004  0.6602024E+03  0.7818608E-02  0.9787821E-01
         13   -1    0    0    0    0  0.00000000000E+00  0.00000000000E+00  0.10000000000E+04  0.10000000000E+04  0.00000000000E+00 0. -1.
          2   -1    0    0  501    0 -0.00000000000E+00 -0.00000000000E+00 -0.10896680390E+03  0.10896680390E+03  0.00000000000E+00 0. -1.
    9000006    2    1    2  501    0  0.00000000000E+00  0.00000000000E+00  0.89103319610E+03  0.11089668039E+04  0.66020240504E+03 0.  0.
         13    1    3    3    0    0 -0.11305410277E+02  0.12648978847E+03  0.95732502362E+03  0.96571148887E+03  0.00000000000E+00 0. -1.
          4    1    3    3  501    0  0.11305410277E+02 -0.12648978847E+03 -0.66291827526E+02  0.14325531503E+03  0.00000000000E+00 0. -1.
<mgrwt>
<rscale>  0 0.66020241E+03</rscale>
<asrwt>0</asrwt>
<pdfrwt beam="1">0</pdfrwt>
<pdfrwt beam="2">  1        2 0.39624376E+00 0.66020241E+03</pdfrwt>
<totfact> 0.41106658E+00</totfact>
</mgrwt>
</event>
<event>
 5    1  0.2357694E-004  0.6591955E+03  0.7818608E-02  0.9789676E-01
         13   -1    0    0    0    0  0.00000000000E+00  0.00000000000E+00  0.10000000000E+04  0.10000000000E+04  0.00000000000E+00 0. -1.
          2   -1    0    0  501    0 -0.00000000000E+00 -0.00000000000E+00 -0.10863466117E+03  0.10863466117E+03  0.00000000000E+00 0. -1.
    9000006    2    1    2  501    0  0.00000000000E+00  0.00000000000E+00  0.89136533883E+03  0.11086346612E+04  0.65919545256E+03 0.  0.
         13    1    3    3    0    0 -0.24256349061E+03  0.14358694812E+03  0.73297225908E+03  0.78530413932E+03  0.00000000000E+00 0. -1.
          4    1    3    3  501    0  0.24256349061E+03 -0.14358694812E+03  0.15839307975E+03  0.32333052185E+03  0.00000000000E+00 0. -1.
<mgrwt>
<rscale>  0 0.65919545E+03</rscale>
<asrwt>0</asrwt>
<pdfrwt beam="1">0</pdfrwt>
<pdfrwt beam="2">  1        2 0.39503596E+00 0.65919545E+03</pdfrwt>
<totfact> 0.41539419E+00</totfact>
</mgrwt>
</event>
<event>
 5    1  0.2357694E-004  0.6581413E+03  0.7818608E-02  0.9791621E-01
         13   -1    0    0    0    0  0.00000000000E+00  0.00000000000E+00  0.10000000000E+04  0.10000000000E+04  0.00000000000E+00 0. -1.
          2   -1    0    0  501    0 -0.00000000000E+00 -0.00000000000E+00 -0.10828750133E+03  0.10828750133E+03  0.00000000000E+00 0. -1.
    9000006    2    1    2  501    0  0.00000000000E+00  0.00000000000E+00  0.89171249867E+03  0.11082875013E+04  0.65814132626E+03 0.  0.
         13    1    3    3    0    0 -0.26050288036E+02 -0.31873701929E+03  0.31524739580E+03  0.44905770847E+03  0.00000000000E+00 0. -1.
          4    1    3    3  501    0  0.26050288036E+02  0.31873701929E+03  0.57646510286E+03  0.65922979286E+03  0.00000000000E+00 0. -1.
<mgrwt>
<rscale>  0 0.65814133E+03</rscale>
<asrwt>0</asrwt>
<pdfrwt beam="1">0</pdfrwt>
<pdfrwt beam="2">  1        2 0.39377356E+00 0.65814133E+03</pdfrwt>
<totfact> 0.41996135E+00</totfact>
</mgrwt>
</event>
<event>
 5    1  0.2357694E-004  0.6427285E+03  0.7818608E-02  0.9820520E-01
         13   -1    0    0    0    0  0.00000000000E+00  0.00000000000E+00  0.10000000000E+04  0.10000000000E+04  0.00000000000E+00 0. -1.
          2   -1    0    0  501    0 -0.00000000000E+00 -0.00000000000E+00 -0.10327499406E+03  0.10327499406E+03  0.00000000000E+00 0. -1.
    9000006    2    1    2  501    0  0.00000000000E+00  0.00000000000E+00  0.89672500594E+03  0.11032749941E+04  0.64272854010E+03 0.  0.
         13    1    3    3    0    0  0.16888834137E+03 -0.22547691654E+03  0.18292451771E+03  0.33589357082E+03  0.00000000000E+00 0. -1.
          4    1    3    3  501    0 -0.16888834137E+03  0.22547691654E+03  0.71380048823E+03  0.76738142324E+03  0.00000000000E+00 0. -1.
<mgrwt>
<rscale>  0 0.64272854E+03</rscale>
<asrwt>0</asrwt>
<pdfrwt beam="1">0</pdfrwt>
<pdfrwt beam="2">  1        2 0.37554622E+00 0.64272854E+03</pdfrwt>
<totfact> 0.49117653E+00</totfact>
</mgrwt>
</event>
<event>
 5    1  0.2357694E-004  0.6502076E+03  0.7818608E-02  0.9806390E-01
         13   -1    0    0    0    0  0.00000000000E+00  0.00000000000E+00  0.10000000000E+04  0.10000000000E+04  0.00000000000E+00 0. -1.
          2   -1    0    0  501    0 -0.00000000000E+00 -0.00000000000E+00 -0.10569246768E+03  0.10569246768E+03  0.00000000000E+00 0. -1.
    9000006    2    1    2  501    0  0.00000000000E+00  0.00000000000E+00  0.89430753232E+03  0.11056924677E+04  0.65020755973E+03 0.  0.
         13    1    3    3    0    0  0.17590976036E+03 -0.21716455534E+02 -0.16302118834E+02  0.17799327883E+03  0.00000000000E+00 0. -1.
          2    1    3    3  501    0 -0.17590976036E+03  0.21716455534E+02  0.91060965115E+03  0.92769918885E+03  0.00000000000E+00 0. -1.
<mgrwt>
<rscale>  0 0.65020756E+03</rscale>
<asrwt>0</asrwt>
<pdfrwt beam="1">0</pdfrwt>
<pdfrwt beam="2">  1        2 0.38433706E+00 0.65020756E+03</pdfrwt>
<totfact> 0.45556664E+00</totfact>
</mgrwt>
</event>
<event>
 5    1  0.2357694E-004  0.6510362E+03  0.7818608E-02  0.9804837E-01
         13   -1    0    0    0    0  0.00000000000E+00  0.00000000000E+00  0.10000000000E+04  0.10000000000E+04  0.00000000000E+00 0. -1.
          2   -1    0    0  501    0 -0.00000000000E+00 -0.00000000000E+00 -0.10596203677E+03  0.10596203677E+03  0.00000000000E+00 0. -1.
    9000006    2    1    2  501    0  0.00000000000E+00  0.00000000000E+00  0.89403796323E+03  0.11059620368E+04  0.65103621026E+03 0.  0.
         13    1    3    3    0    0 -0.91479872772E+02  0.25737204902E+03  0.14622073155E+03  0.30982162783E+03  0.00000000000E+00 0. -1.
          4    1    3    3  501    0  0.91479872772E+02 -0.25737204902E+03  0.74781723168E+03  0.79614040894E+03  0.00000000000E+00 0. -1.
<mgrwt>
<rscale>  0 0.65103621E+03</rscale>
<asrwt>0</asrwt>
<pdfrwt beam="1">0</pdfrwt>
<pdfrwt beam="2">  1        2 0.38531731E+00 0.65103621E+03</pdfrwt>
<totfact> 0.45174489E+00</totfact>
</mgrwt>
</event>
<event>
 5    1  0.2357694E-004  0.6421362E+03  0.7818608E-02  0.9821648E-01
         13   -1    0    0    0    0  0.00000000000E+00  0.00000000000E+00  0.10000000000E+04  0.10000000000E+04  0.00000000000E+00 0. -1.
          2   -1    0    0  501    0 -0.00000000000E+00 -0.00000000000E+00 -0.10308473944E+03  0.10308473944E+03  0.00000000000E+00 0. -1.
    9000006    2    1    2  501    0  0.00000000000E+00  0.00000000000E+00  0.89691526056E+03  0.11030847394E+04  0.64213624549E+03 0.  0.
         13    1    3    3    0    0  0.84476128162E+02  0.21694383068E+03  0.68649196145E+02  0.24272114459E+03  0.00000000000E+00 0. -1.
          4    1    3    3  501    0 -0.84476128162E+02 -0.21694383068E+03  0.82826606441E+03  0.86036359486E+03  0.00000000000E+00 0. -1.
<mgrwt>
<rscale>  0 0.64213625E+03</rscale>
<asrwt>0</asrwt>
<pdfrwt beam="1">0</pdfrwt>
<pdfrwt beam="2">  1        2 0.37485439E+00 0.64213625E+03</pdfrwt>
<totfact> 0.49408417E+00</totfact>
</mgrwt>
</event>
<event>
 5    1  0.2357694E-004  0.6556884E+03  0.7818608E-02  0.9796163E-01
         13   -1    0    0    0    0  0.00000000000E+00  0.00000000000E+00  0.10000000000E+04  0.10000000000E+04  0.00000000000E+00 0. -1.
          2   -1    0    0  501    0 -0.00000000000E+00 -0.00000000000E+00 -0.10748181958E+03  0.10748181958E+03  0.00000000000E+00 0. -1.
    9000006    2    1    2  501    0  0.00000000000E+00  0.00000000000E+00  0.89251818042E+03  0.11074818196E+04  0.65568840034E+03 0.  0.
         13    1    3    3    0    0 -0.25898803915E+03 -0.15595872178E+03  0.66046659508E+03  0.72637046370E+03  0.00000000000E+00 0. -1.
          4    1    3    3  501    0  0.25898803915E+03  0.15595872178E+03  0.23205158534E+03  0.38111135588E+03  0.00000000000E+00 0. -1.
<mgrwt>
<rscale>  0 0.65568840E+03</rscale>
<asrwt>0</asrwt>
<pdfrwt beam="1">0</pdfrwt>
<pdfrwt beam="2">  1        2 0.39084380E+00 0.65568840E+03</pdfrwt>
<totfact> 0.43073657E+00</totfact>
</mgrwt>
</event>
<event>
 5    1  0.2357694E-004  0.6616722E+03  0.7818608E-02  0.9785120E-01
         13   -1    0    0    0    0  0.00000000000E+00  0.00000000000E+00  0.10000000000E+04  0.10000000000E+04  0.00000000000E+00 0. -1.
          2   -1    0    0  501    0 -0.00000000000E+00 -0.00000000000E+00 -0.10945251443E+03  0.10945251443E+03  0.00000000000E+00 0. -1.
    9000006    2    1    2  501    0  0.00000000000E+00  0.00000000000E+00  0.89054748557E+03  0.11094525144E+04  0.66167216786E+03 0.  0.
         13    1    3    3    0    0 -0.24027169898E+03 -0.12002103892E+03  0.12136768585E+03  0.29472979877E+03  0.00000000000E+00 0. -1.
          4    1    3    3  501    0  0.24027169898E+03  0.12002103892E+03  0.76917979972E+03  0.81472271566E+03  0.00000000000E+00 0. -1.
<mgrwt>
<rscale>  0 0.66167217E+03</rscale>
<asrwt>0</asrwt>
<pdfrwt beam="1">0</pdfrwt>
<pdfrwt beam="2">  1        2 0.39800998E+00 0.66167217E+03</pdfrwt>
<totfact> 0.40481111E+00</totfact>
</mgrwt>
</event>
<event>
 5    1  0.2357694E-004  0.6841104E+03  0.7818608E-02  0.9744798E-01
         13   -1    0    0    0    0  0.00000000000E+00  0.00000000000E+00  0.10000000000E+04  0.10000000000E+04  0.00000000000E+00 0. -1.
          2   -1    0    0  501    0 -0.00000000000E+00 -0.00000000000E+00 -0.11700175736E+03  0.11700175736E+03  0.00000000000E+00 0. -1.
    9000006    2    1    2  501    0  0.00000000000E+00  0.00000000000E+00  0.88299824264E+03  0.11170017574E+04  0.68411039272E+03 0.  0.
         13    1    3    3    0    0 -0.31984678258E+03  0.57194130177E+02  0.61605104934E+03  0.69648548316E+03  0.00000000000E+00 0. -1.
          2    1    3    3  501    0  0.31984678258E+03 -0.57194130177E+02  0.26694719330E+03  0.42051627420E+03  0.00000000000E+00 0. -1.
<mgrwt>
<rscale>  0 0.68411039E+03</rscale>
<asrwt>0</asrwt>
<pdfrwt beam="1">0</pdfrwt>
<pdfrwt beam="2">  1        2 0.42546183E+00 0.68411039E+03</pdfrwt>
<totfact> 0.31793190E+00</totfact>
</mgrwt>
</event>
<event>
 5    1  0.2357694E-004  0.6492403E+03  0.7818608E-02  0.9808206E-01
         13   -1    0    0    0    0  0.00000000000E+00  0.00000000000E+00  0.10000000000E+04  0.10000000000E+04  0.00000000000E+00 0. -1.
          2   -1    0    0  501    0 -0.00000000000E+00 -0.00000000000E+00 -0.10537823968E+03  0.10537823968E+03  0.00000000000E+00 0. -1.
    9000006    2    1    2  501    0  0.00000000000E+00  0.00000000000E+00  0.89462176032E+03  0.11053782397E+04  0.64924029351E+03 0.  0.
         13    1    3    3    0    0 -0.74474029828E+01  0.11389095614E+03 -0.70090661666E+02  0.13393772640E+03  0.00000000000E+00 0. -1.
          4    1    3    3  501    0  0.74474029828E+01 -0.11389095614E+03  0.96471242199E+03  0.97144051328E+03  0.00000000000E+00 0. -1.
<mgrwt>
<rscale>  0 0.64924029E+03</rscale>
<asrwt>0</asrwt>
<pdfrwt beam="1">0</pdfrwt>
<pdfrwt beam="2">  1        2 0.38319441E+00 0.64924029E+03</pdfrwt>
<totfact> 0.46005854E+00</totfact>
</mgrwt>
</event>
<event>
 5    1  0.2357694E-004  0.6500829E+03  0.7818608E-02  0.9806624E-01
         13   -1    0    0    0    0  0.00000000000E+00  0.00000000000E+00  0.10000000000E+04  0.10000000000E+04  0.00000000000E+00 0. -1.
          2   -1    0    0  501    0 -0.00000000000E+00 -0.00000000000E+00 -0.10565194320E+03  0.10565194320E+03  0.00000000000E+00 0. -1.
    9000006    2    1    2  501    0  0.00000000000E+00  0.00000000000E+00  0.89434805680E+03  0.11056519432E+04  0.65008289687E+03 0.  0.
         13    1    3    3    0    0  0.19625045809E+03  0.25239331975E+03  0.34748833079E+03  0.47219145502E+03  0.00000000000E+00 0. -1.
          2    1    3    3  501    0 -0.19625045809E+03 -0.25239331975E+03  0.54685972601E+03  0.63346048818E+03  0.00000000000E+00 0. -1.
<mgrwt>
<rscale>  0 0.65008290E+03</rscale>
<asrwt>0</asrwt>
<pdfrwt beam="1">0</pdfrwt>
<pdfrwt beam="2">  1        2 0.38418969E+00 0.65008290E+03</pdfrwt>
<totfact> 0.45614370E+00</totfact>
</mgrwt>
</event>
<event>
 5    1  0.2357694E-004  0.6486389E+03  0.7818608E-02  0.9809337E-01
         13   -1    0    0    0    0  0.00000000000E+00  0.00000000000E+00  0.10000000000E+04  0.10000000000E+04  0.00000000000E+00 0. -1.
          2   -1    0    0  501    0 -0.00000000000E+00 -0.00000000000E+00 -0.10518311110E+03  0.10518311110E+03  0.00000000000E+00 0. -1.
    9000006    2    1    2  501    0  0.00000000000E+00  0.00000000000E+00  0.89481688890E+03  0.11051831111E+04  0.64863891681E+03 0.  0.
         13    1    3    3    0    0 -0.34686049248E+02 -0.51579155750E+02 -0.94939411723E+02  0.11347697220E+03  0.00000000000E+00 0. -1.
          4    1    3    3  501    0  0.34686049248E+02  0.51579155750E+02  0.98975630062E+03  0.99170613891E+03  0.00000000000E+00 0. -1.
<mgrwt>
<rscale>  0 0.64863892E+03</rscale>
<asrwt>0</asrwt>
<pdfrwt beam="1">0</pdfrwt>
<pdfrwt beam="2">  1        2 0.38248485E+00 0.64863892E+03</pdfrwt>
<totfact> 0.46286810E+00</totfact>
</mgrwt>
</event>
<event>
 5    1  0.2357694E-004  0.6496093E+03  0.7818608E-02  0.9807513E-01
         13   -1    0    0    0    0  0.00000000000E+00  0.00000000000E+00  0.10000000000E+04  0.10000000000E+04  0.00000000000E+00 0. -1.
          2   -1    0    0  501    0 -0.00000000000E+00 -0.00000000000E+00 -0.10549806491E+03  0.10549806491E+03  0.00000000000E+00 0. -1.
    9000006    2    1    2  501    0  0.00000000000E+00  0.00000000000E+00  0.89450193509E+03  0.11054980649E+04  0.64960931307E+03 0.  0.
         13    1    3    3    0    0  0.28466946511E+03 -0.13880399445E+03  0.32459444501E+03  0.45350281915E+03  0.00000000000E+00 0. -1.
          2    1    3    3  501    0 -0.28466946511E+03  0.13880399445E+03  0.56990749008E+03  0.65199524576E+03  0.00000000000E+00 0. -1.
<mgrwt>
<rscale>  0 0.64960931E+03</rscale>
<asrwt>0</asrwt>
<pdfrwt beam="1">0</pdfrwt>
<pdfrwt beam="2">  1        2 0.38363014E+00 0.64960931E+03</pdfrwt>
<totfact> 0.45834091E+00</totfact>
</mgrwt>
</event>
<event>
 5    1  0.2357694E-004  0.6464417E+03  0.7818608E-02  0.9813479E-01
         13   -1    0    0    0    0  0.00000000000E+00  0.00000000000E+00  0.10000000000E+04  0.10000000000E+04  0.00000000000E+00 0. -1.
          2   -1    0    0  501    0 -0.00000000000E+00 -0.00000000000E+00 -0.10447173106E+03  0.10447173106E+03  0.00000000000E+00 0. -1.
    9000006    2    1    2  501    0  0.00000000000E+00  0.00000000000E+00  0.89552826894E+03  0.11044717311E+04  0.64644174079E+03 0.  0.
         13    1    3    3    0    0  0.23215483723E+03  0.19993946704E+03  0.27185855139E+03  0.40960802103E+03  0.00000000000E+00 0. -1.
          4    1    3    3  501    0 -0.23215483723E+03 -0.19993946704E+03  0.62366971755E+03  0.69486371003E+03  0.00000000000E+00 0. -1.
<mgrwt>
<rscale>  0 0.64644174E+03</rscale>
<asrwt>0</asrwt>
<pdfrwt beam="1">0</pdfrwt>
<pdfrwt beam="2">  1        2 0.37989800E+00 0.64644174E+03</pdfrwt>
<totfact> 0.47324348E+00</totfact>
</mgrwt>
</event>
<event>
 5    1  0.2357694E-004  0.6475925E+03  0.7818608E-02  0.9811307E-01
         13   -1    0    0    0    0  0.00000000000E+00  0.00000000000E+00  0.10000000000E+04  0.10000000000E+04  0.00000000000E+00 0. -1.
          2   -1    0    0  501    0 -0.00000000000E+00 -0.00000000000E+00 -0.10484401105E+03  0.10484401105E+03  0.00000000000E+00 0. -1.
    9000006    2    1    2  501    0  0.00000000000E+00  0.00000000000E+00  0.89515598895E+03  0.11048440111E+04  0.64759249857E+03 0.  0.
         13    1    3    3    0    0 -0.99682370963E+02 -0.30134554610E+03  0.33835831092E+03  0.46393109381E+03  0.00000000000E+00 0. -1.
          2    1    3    3  501    0  0.99682370963E+02  0.30134554610E+03  0.55679767802E+03  0.64091291724E+03  0.00000000000E+00 0. -1.
<mgrwt>
<rscale>  0 0.64759250E+03</rscale>
<asrwt>0</asrwt>
<pdfrwt beam="1">0</pdfrwt>
<pdfrwt beam="2">  1        2 0.38125175E+00 0.64759250E+03</pdfrwt>
<totfact> 0.46778775E+00</totfact>
</mgrwt>
</event>
<event>
 5    1  0.2357694E-004  0.6429881E+03  0.7818608E-02  0.9820026E-01
         13   -1    0    0    0    0  0.00000000000E+00  0.00000000000E+00  0.10000000000E+04  0.10000000000E+04  0.00000000000E+00 0. -1.
          2   -1    0    0  501    0 -0.00000000000E+00 -0.00000000000E+00 -0.10335840949E+03  0.10335840949E+03  0.00000000000E+00 0. -1.
    9000006    2    1    2  501    0  0.00000000000E+00  0.00000000000E+00  0.89664159051E+03  0.11033584095E+04  0.64298805429E+03 0.  0.
         13    1    3    3    0    0  0.14775176983E+02 -0.29943368053E+03  0.64754944806E+03  0.71358189619E+03  0.00000000000E+00 0. -1.
          2    1    3    3  501    0 -0.14775176983E+02  0.29943368053E+03  0.24909214245E+03  0.38977651330E+03  0.00000000000E+00 0. -1.
<mgrwt>
<rscale>  0 0.64298805E+03</rscale>
<asrwt>0</asrwt>
<pdfrwt beam="1">0</pdfrwt>
<pdfrwt beam="2">  1        2 0.37584955E+00 0.64298805E+03</pdfrwt>
<totfact> 0.48990674E+00</totfact>
</mgrwt>
</event>
<event>
 5    1  0.2357694E-004  0.6441393E+03  0.7818608E-02  0.9817839E-01
         13   -1    0    0    0    0  0.00000000000E+00  0.00000000000E+00  0.10000000000E+04  0.10000000000E+04  0.00000000000E+00 0. -1.
          2   -1    0    0  501    0 -0.00000000000E+00 -0.00000000000E+00 -0.10372886087E+03  0.10372886087E+03  0.00000000000E+00 0. -1.
    9000006    2    1    2  501    0  0.00000000000E+00  0.00000000000E+00  0.89627113913E+03  0.11037288609E+04  0.64413930441E+03 0.  0.
         13    1    3    3    0    0  0.18219565873E+03 -0.26168108048E+03  0.37042875773E+03  0.48876345045E+03  0.00000000000E+00 0. -1.
          4    1    3    3  501    0 -0.18219565873E+03  0.26168108048E+03  0.52584238140E+03  0.61496541043E+03  0.00000000000E+00 0. -1.
<mgrwt>
<rscale>  0 0.64413930E+03</rscale>
<asrwt>0</asrwt>
<pdfrwt beam="1">0</pdfrwt>
<pdfrwt beam="2">  1        2 0.37719665E+00 0.64413930E+03</pdfrwt>
<totfact> 0.48430368E+00</totfact>
</mgrwt>
</event>
<event>
 5    1  0.2357694E-004  0.6765890E+03  0.7818608E-02  0.9758128E-01
         13   -1    0    0    0    0  0.00000000000E+00  0.00000000000E+00  0.10000000000E+04  0.10000000000E+04  0.00000000000E+00 0. -1.
          2   -1    0    0  501    0 -0.00000000000E+00 -0.00000000000E+00 -0.11444315577E+03  0.11444315577E+03  0.00000000000E+00 0. -1.
    9000006    2    1    2  501    0  0.00000000000E+00  0.00000000000E+00  0.88555684423E+03  0.11144431558E+04  0.67658896169E+03 0.  0.
         13    1    3    3    0    0  0.18982228025E+03  0.20690602521E+03  0.13199245996E+03  0.31026538774E+03  0.00000000000E+00 0. -1.
          2    1    3    3  501    0 -0.18982228025E+03 -0.20690602521E+03  0.75356438427E+03  0.80417776803E+03  0.00000000000E+00 0. -1.
<mgrwt>
<rscale>  0 0.67658896E+03</rscale>
<asrwt>0</asrwt>
<pdfrwt beam="1">0</pdfrwt>
<pdfrwt beam="2">  1        2 0.41615781E+00 0.67658896E+03</pdfrwt>
<totfact> 0.34530490E+00</totfact>
</mgrwt>
</event>
<event>
 5    1  0.2357694E-004  0.6388209E+03  0.7818608E-02  0.9827985E-01
         13   -1    0    0    0    0  0.00000000000E+00  0.00000000000E+00  0.10000000000E+04  0.10000000000E+04  0.00000000000E+00 0. -1.
          2   -1    0    0  501    0 -0.00000000000E+00 -0.00000000000E+00 -0.10202302356E+03  0.10202302356E+03  0.00000000000E+00 0. -1.
    9000006    2    1    2  501    0  0.00000000000E+00  0.00000000000E+00  0.89797697644E+03  0.11020230236E+04  0.63882086241E+03 0.  0.
         13    1    3    3    0    0 -0.13751131477E+03 -0.24480554526E+03  0.71165511032E+03  0.76504386327E+03  0.00000000000E+00 0. -1.
          4    1    3    3  501    0  0.13751131477E+03  0.24480554526E+03  0.18632186612E+03  0.33697916030E+03  0.00000000000E+00 0. -1.
<mgrwt>
<rscale>  0 0.63882086E+03</rscale>
<asrwt>0</asrwt>
<pdfrwt beam="1">0</pdfrwt>
<pdfrwt beam="2">  1        2 0.37099360E+00 0.63882086E+03</pdfrwt>
<totfact> 0.51060126E+00</totfact>
</mgrwt>
</event>
<event>
 5    1  0.2357694E-004  0.6585816E+03  0.7818608E-02  0.9790808E-01
         13   -1    0    0    0    0  0.00000000000E+00  0.00000000000E+00  0.10000000000E+04  0.10000000000E+04  0.00000000000E+00 0. -1.
          2   -1    0    0  501    0 -0.00000000000E+00 -0.00000000000E+00 -0.10843243013E+03  0.10843243013E+03  0.00000000000E+00 0. -1.
    9000006    2    1    2  501    0  0.00000000000E+00  0.00000000000E+00  0.89156756987E+03  0.11084324301E+04  0.65858159747E+03 0.  0.
         13    1    3    3    0    0  0.94590822374E+02  0.23752511727E+03  0.96505922158E+02  0.27327458357E+03  0.00000000000E+00 0. -1.
          4    1    3    3  501    0 -0.94590822374E+02 -0.23752511727E+03  0.79506164771E+03  0.83515784656E+03  0.00000000000E+00 0. -1.
<mgrwt>
<rscale>  0 0.65858160E+03</rscale>
<asrwt>0</asrwt>
<pdfrwt beam="1">0</pdfrwt>
<pdfrwt beam="2">  1        2 0.39430058E+00 0.65858160E+03</pdfrwt>
<totfact> 0.41804920E+00</totfact>
</mgrwt>
</event>
<event>
 5    1  0.2357694E-004  0.6545553E+03  0.7818608E-02  0.9798269E-01
         13   -1    0    0    0    0  0.00000000000E+00  0.00000000000E+00  0.10000000000E+04  0.10000000000E+04  0.00000000000E+00 0. -1.
          2   -1    0    0  501    0 -0.00000000000E+00 -0.00000000000E+00 -0.10711064619E+03  0.10711064619E+03  0.00000000000E+00 0. -1.
    9000006    2    1    2  501    0  0.00000000000E+00  0.00000000000E+00  0.89288935381E+03  0.11071106462E+04  0.65455525722E+03 0.  0.
         13    1    3    3    0    0 -0.21118577714E+03 -0.23812622313E+03  0.31755297847E+03  0.44960363071E+03  0.00000000000E+00 0. -1.
          4    1    3    3  501    0  0.21118577714E+03  0.23812622313E+03  0.57533637534E+03  0.65750701548E+03  0.00000000000E+00 0. -1.
<mgrwt>
<rscale>  0 0.65455526E+03</rscale>
<asrwt>0</asrwt>
<pdfrwt beam="1">0</pdfrwt>
<pdfrwt beam="2">  1        2 0.38949408E+00 0.65455526E+03</pdfrwt>
<totfact> 0.43578414E+00</totfact>
</mgrwt>
</event>
<event>
 5    1  0.2357694E-004  0.6199785E+03  0.7818608E-02  0.9864802E-01
         13   -1    0    0    0    0  0.00000000000E+00  0.00000000000E+00  0.10000000000E+04  0.10000000000E+04  0.00000000000E+00 0. -1.
          2   -1    0    0  501    0 -0.00000000000E+00 -0.00000000000E+00 -0.96093338405E+02  0.96093338405E+02  0.00000000000E+00 0. -1.
    9000006    2    1    2  501    0  0.00000000000E+00  0.00000000000E+00  0.90390666160E+03  0.10960933384E+04  0.61997851061E+03 0.  0.
         13    1    3    3    0    0  0.28625771582E+03 -0.37522554564E+01  0.24175426718E+03  0.37470346273E+03  0.00000000000E+00 0. -1.
          2    1    3    3  501    0 -0.28625771582E+03  0.37522554564E+01  0.66215239442E+03  0.72138987567E+03  0.00000000000E+00 0. -1.
<mgrwt>
<rscale>  0 0.61997851E+03</rscale>
<asrwt>0</asrwt>
<pdfrwt beam="1">0</pdfrwt>
<pdfrwt beam="2">  1        2 0.34943106E+00 0.61997851E+03</pdfrwt>
<totfact> 0.61257758E+00</totfact>
</mgrwt>
</event>
<event>
 5    1  0.2357694E-004  0.6400685E+03  0.7818608E-02  0.9825595E-01
         13   -1    0    0    0    0  0.00000000000E+00  0.00000000000E+00  0.10000000000E+04  0.10000000000E+04  0.00000000000E+00 0. -1.
          2   -1    0    0  501    0 -0.00000000000E+00 -0.00000000000E+00 -0.10242192405E+03  0.10242192405E+03  0.00000000000E+00 0. -1.
    9000006    2    1    2  501    0  0.00000000000E+00  0.00000000000E+00  0.89757807595E+03  0.11024219241E+04  0.64006850900E+03 0.  0.
         13    1    3    3    0    0  0.39399416264E+02 -0.26209164513E+03  0.75774605797E+03  0.80275988491E+03  0.00000000000E+00 0. -1.
          4    1    3    3  501    0 -0.39399416264E+02  0.26209164513E+03  0.13983201797E+03  0.29966203914E+03  0.00000000000E+00 0. -1.
<mgrwt>
<rscale>  0 0.64006851E+03</rscale>
<asrwt>0</asrwt>
<pdfrwt beam="1">0</pdfrwt>
<pdfrwt beam="2">  1        2 0.37244415E+00 0.64006851E+03</pdfrwt>
<totfact> 0.50433724E+00</totfact>
</mgrwt>
</event>
<event>
 5    1  0.2357694E-004  0.6471102E+03  0.7818608E-02  0.9812217E-01
         13   -1    0    0    0    0  0.00000000000E+00  0.00000000000E+00  0.10000000000E+04  0.10000000000E+04  0.00000000000E+00 0. -1.
          2   -1    0    0  501    0 -0.00000000000E+00 -0.00000000000E+00 -0.10468791383E+03  0.10468791383E+03  0.00000000000E+00 0. -1.
    9000006    2    1    2  501    0  0.00000000000E+00  0.00000000000E+00  0.89531208617E+03  0.11046879138E+04  0.64711023429E+03 0.  0.
         13    1    3    3    0    0  0.97191550761E+02 -0.23607603864E+03  0.78697948309E+03  0.82735409612E+03  0.00000000000E+00 0. -1.
          4    1    3    3  501    0 -0.97191550761E+02  0.23607603864E+03  0.10833260308E+03  0.27733381771E+03  0.00000000000E+00 0. -1.
<mgrwt>
<rscale>  0 0.64711023E+03</rscale>
<asrwt>0</asrwt>
<pdfrwt beam="1">0</pdfrwt>
<pdfrwt beam="2">  1        2 0.38068413E+00 0.64711023E+03</pdfrwt>
<totfact> 0.47006834E+00</totfact>
</mgrwt>
</event>
<event>
 5    1  0.2357694E-004  0.6362043E+03  0.7818608E-02  0.9833016E-01
         13   -1    0    0    0    0  0.00000000000E+00  0.00000000000E+00  0.10000000000E+04  0.10000000000E+04  0.00000000000E+00 0. -1.
          2   -1    0    0  501    0 -0.00000000000E+00 -0.00000000000E+00 -0.10118897291E+03  0.10118897291E+03  0.00000000000E+00 0. -1.
    9000006    2    1    2  501    0  0.00000000000E+00  0.00000000000E+00  0.89881102709E+03  0.11011889729E+04  0.63620428452E+03 0.  0.
         13    1    3    3    0    0  0.59137930254E+02  0.30580795453E+03  0.56122010001E+03  0.64185964237E+03  0.00000000000E+00 0. -1.
          4    1    3    3  501    0 -0.59137930254E+02 -0.30580795453E+03  0.33759092708E+03  0.45932933054E+03  0.00000000000E+00 0. -1.
<mgrwt>
<rscale>  0 0.63620428E+03</rscale>
<asrwt>0</asrwt>
<pdfrwt beam="1">0</pdfrwt>
<pdfrwt beam="2">  1        2 0.36796068E+00 0.63620428E+03</pdfrwt>
<totfact> 0.52392953E+00</totfact>
</mgrwt>
</event>
<event>
 5    1  0.2357694E-004  0.6377265E+03  0.7818608E-02  0.9830086E-01
         13   -1    0    0    0    0  0.00000000000E+00  0.00000000000E+00  0.10000000000E+04  0.10000000000E+04  0.00000000000E+00 0. -1.
          2   -1    0    0  501    0 -0.00000000000E+00 -0.00000000000E+00 -0.10167378779E+03  0.10167378779E+03  0.00000000000E+00 0. -1.
    9000006    2    1    2  501    0  0.00000000000E+00  0.00000000000E+00  0.89832621221E+03  0.11016737878E+04  0.63772654888E+03 0.  0.
         13    1    3    3    0    0 -0.27246959474E+03 -0.68340706727E+02  0.18852403352E+03  0.33830672985E+03  0.00000000000E+00 0. -1.
          4    1    3    3  501    0  0.27246959474E+03  0.68340706727E+02  0.70980217870E+03  0.76336705793E+03  0.00000000000E+00 0. -1.
<mgrwt>
<rscale>  0 0.63772655E+03</rscale>
<asrwt>0</asrwt>
<pdfrwt beam="1">0</pdfrwt>
<pdfrwt beam="2">  1        2 0.36972364E+00 0.63772655E+03</pdfrwt>
<totfact> 0.51614381E+00</totfact>
</mgrwt>
</event>
<event>
 5    1  0.2357694E-004  0.6502983E+03  0.7818608E-02  0.9806220E-01
         13   -1    0    0    0    0  0.00000000000E+00  0.00000000000E+00  0.10000000000E+04  0.10000000000E+04  0.00000000000E+00 0. -1.
          2   -1    0    0  501    0 -0.00000000000E+00 -0.00000000000E+00 -0.10572196525E+03  0.10572196525E+03  0.00000000000E+00 0. -1.
    9000006    2    1    2  501    0  0.00000000000E+00  0.00000000000E+00  0.89427803475E+03  0.11057219653E+04  0.65029828618E+03 0.  0.
         13    1    3    3    0    0 -0.15973017121E+03 -0.11479552541E+03  0.88735789899E+03  0.90889811373E+03  0.00000000000E+00 0. -1.
          4    1    3    3  501    0  0.15973017121E+03  0.11479552541E+03  0.69201357584E+01  0.19682385152E+03  0.00000000000E+00 0. -1.
<mgrwt>
<rscale>  0 0.65029829E+03</rscale>
<asrwt>0</asrwt>
<pdfrwt beam="1">0</pdfrwt>
<pdfrwt beam="2">  1        2 0.38444432E+00 0.65029829E+03</pdfrwt>
<totfact> 0.45514702E+00</totfact>
</mgrwt>
</event>
<event>
 5    1  0.2357694E-004  0.6523370E+03  0.7818608E-02  0.9802404E-01
         13   -1    0    0    0    0  0.00000000000E+00  0.00000000000E+00  0.10000000000E+04  0.10000000000E+04  0.00000000000E+00 0. -1.
          2   -1    0    0  501    0 -0.00000000000E+00 -0.00000000000E+00 -0.10638587478E+03  0.10638587478E+03  0.00000000000E+00 0. -1.
    9000006    2    1    2  501    0  0.00000000000E+00  0.00000000000E+00  0.89361412522E+03  0.11063858748E+04  0.65233695214E+03 0.  0.
         13    1    3    3    0    0 -0.20162197951E+03  0.15139916642E+02  0.88088993190E+03  0.90379627783E+03  0.00000000000E+00 0. -1.
          2    1    3    3  501    0  0.20162197951E+03 -0.15139916642E+02  0.12724193318E+02  0.20258959695E+03  0.00000000000E+00 0. -1.
<mgrwt>
<rscale>  0 0.65233695E+03</rscale>
<asrwt>0</asrwt>
<pdfrwt beam="1">0</pdfrwt>
<pdfrwt beam="2">  1        2 0.38685854E+00 0.65233695E+03</pdfrwt>
<totfact> 0.44579477E+00</totfact>
</mgrwt>
</event>
<event>
 5    1  0.2357694E-004  0.6568460E+03  0.7818608E-02  0.9794017E-01
         13   -1    0    0    0    0  0.00000000000E+00  0.00000000000E+00  0.10000000000E+04  0.10000000000E+04  0.00000000000E+00 0. -1.
          2   -1    0    0  501    0 -0.00000000000E+00 -0.00000000000E+00 -0.10786166672E+03  0.10786166672E+03  0.00000000000E+00 0. -1.
    9000006    2    1    2  501    0  0.00000000000E+00  0.00000000000E+00  0.89213833328E+03  0.11078616667E+04  0.65684599937E+03 0.  0.
         13    1    3    3    0    0 -0.15532148220E+03 -0.23736004463E+03  0.16689554682E+03  0.32911802923E+03  0.00000000000E+00 0. -1.
          2    1    3    3  501    0  0.15532148220E+03  0.23736004463E+03  0.72524278646E+03  0.77874363749E+03  0.00000000000E+00 0. -1.
<mgrwt>
<rscale>  0 0.65684600E+03</rscale>
<asrwt>0</asrwt>
<pdfrwt beam="1">0</pdfrwt>
<pdfrwt beam="2">  1        2 0.39222507E+00 0.65684600E+03</pdfrwt>
<totfact> 0.42562578E+00</totfact>
</mgrwt>
</event>
<event>
 5    1  0.2357694E-004  0.6495096E+03  0.7818608E-02  0.9807700E-01
         13   -1    0    0    0    0  0.00000000000E+00  0.00000000000E+00  0.10000000000E+04  0.10000000000E+04  0.00000000000E+00 0. -1.
          2   -1    0    0  501    0 -0.00000000000E+00 -0.00000000000E+00 -0.10546568468E+03  0.10546568468E+03  0.00000000000E+00 0. -1.
    9000006    2    1    2  501    0  0.00000000000E+00  0.00000000000E+00  0.89453431532E+03  0.11054656847E+04  0.64950961404E+03 0.  0.
         13    1    3    3    0    0  0.29361631885E+03  0.88085316337E+02  0.62975557638E+03  0.70040106485E+03  0.00000000000E+00 0. -1.
          4    1    3    3  501    0 -0.29361631885E+03 -0.88085316337E+02  0.26477873894E+03  0.40506461984E+03  0.00000000000E+00 0. -1.
<mgrwt>
<rscale>  0 0.64950961E+03</rscale>
<asrwt>0</asrwt>
<pdfrwt beam="1">0</pdfrwt>
<pdfrwt beam="2">  1        2 0.38351239E+00 0.64950961E+03</pdfrwt>
<totfact> 0.45880449E+00</totfact>
</mgrwt>
</event>
<event>
 5    1  0.2357694E-004  0.6763326E+03  0.7818608E-02  0.9758585E-01
         13   -1    0    0    0    0  0.00000000000E+00  0.00000000000E+00  0.10000000000E+04  0.10000000000E+04  0.00000000000E+00 0. -1.
          2   -1    0    0  501    0 -0.00000000000E+00 -0.00000000000E+00 -0.11435643623E+03  0.11435643623E+03  0.00000000000E+00 0. -1.
    9000006    2    1    2  501    0  0.00000000000E+00  0.00000000000E+00  0.88564356377E+03  0.11143564362E+04  0.67633256977E+03 0.  0.
         13    1    3    3    0    0 -0.26769216880E+03  0.17653077314E+03  0.61977482501E+03  0.69781304432E+03  0.00000000000E+00 0. -1.
          4    1    3    3  501    0  0.26769216880E+03 -0.17653077314E+03  0.26586873876E+03  0.41654339192E+03  0.00000000000E+00 0. -1.
<mgrwt>
<rscale>  0 0.67633257E+03</rscale>
<asrwt>0</asrwt>
<pdfrwt beam="1">0</pdfrwt>
<pdfrwt beam="2">  1        2 0.41584246E+00 0.67633257E+03</pdfrwt>
<totfact> 0.34626822E+00</totfact>
</mgrwt>
</event>
<event>
 5    1  0.2357694E-004  0.7058139E+03  0.7818608E-02  0.9707341E-01
         13   -1    0    0    0    0  0.00000000000E+00  0.00000000000E+00  0.10000000000E+04  0.10000000000E+04  0.00000000000E+00 0. -1.
          2   -1    0    0  501    0 -0.00000000000E+00 -0.00000000000E+00 -0.12454331477E+03  0.12454331477E+03  0.00000000000E+00 0. -1.
    9000006    2    1    2  501    0  0.00000000000E+00  0.00000000000E+00  0.87545668523E+03  0.11245433148E+04  0.70581389832E+03 0.  0.
         13    1    3    3    0    0 -0.32392518079E+03  0.11217963960E+03  0.30412706692E+03  0.45826309815E+03  0.00000000000E+00 0. -1.
          2    1    3    3  501    0  0.32392518079E+03 -0.11217963960E+03  0.57132961831E+03  0.66628021661E+03  0.00000000000E+00 0. -1.
<mgrwt>
<rscale>  0 0.70581390E+03</rscale>
<asrwt>0</asrwt>
<pdfrwt beam="1">0</pdfrwt>
<pdfrwt beam="2">  1        2 0.45288574E+00 0.70581390E+03</pdfrwt>
<totfact> 0.24804497E+00</totfact>
</mgrwt>
</event>
<event>
 5    1  0.2357694E-004  0.6472482E+03  0.7818608E-02  0.9811957E-01
         13   -1    0    0    0    0  0.00000000000E+00  0.00000000000E+00  0.10000000000E+04  0.10000000000E+04  0.00000000000E+00 0. -1.
          2   -1    0    0  501    0 -0.00000000000E+00 -0.00000000000E+00 -0.10473254382E+03  0.10473254382E+03  0.00000000000E+00 0. -1.
    9000006    2    1    2  501    0  0.00000000000E+00  0.00000000000E+00  0.89526745618E+03  0.11047325438E+04  0.64724815586E+03 0.  0.
         13    1    3    3    0    0 -0.19124529607E+02  0.47037790030E+02  0.99315856737E+03  0.99445575128E+03  0.00000000000E+00 0. -1.
          4    1    3    3  501    0  0.19124529607E+02 -0.47037790030E+02 -0.97891111183E+02  0.11027679254E+03  0.00000000000E+00 0. -1.
<mgrwt>
<rscale>  0 0.64724816E+03</rscale>
<asrwt>0</asrwt>
<pdfrwt beam="1">0</pdfrwt>
<pdfrwt beam="2">  1        2 0.38084642E+00 0.64724816E+03</pdfrwt>
<totfact> 0.46941526E+00</totfact>
</mgrwt>
</event>
<event>
 5    1  0.2357694E-004  0.6496824E+03  0.7818608E-02  0.9807375E-01
         13   -1    0    0    0    0  0.00000000000E+00  0.00000000000E+00  0.10000000000E+04  0.10000000000E+04  0.00000000000E+00 0. -1.
          2   -1    0    0  501    0 -0.00000000000E+00 -0.00000000000E+00 -0.10552181127E+03  0.10552181127E+03  0.00000000000E+00 0. -1.
    9000006    2    1    2  501    0  0.00000000000E+00  0.00000000000E+00  0.89447818873E+03  0.11055218113E+04  0.64968241863E+03 0.  0.
         13    1    3    3    0    0 -0.14591075918E+02  0.32268169771E+03  0.38865161105E+03  0.50535774685E+03  0.00000000000E+00 0. -1.
          4    1    3    3  501    0  0.14591075918E+02 -0.32268169771E+03  0.50582657768E+03  0.60016406442E+03  0.00000000000E+00 0. -1.
<mgrwt>
<rscale>  0 0.64968242E+03</rscale>
<asrwt>0</asrwt>
<pdfrwt beam="1">0</pdfrwt>
<pdfrwt beam="2">  1        2 0.38371649E+00 0.64968242E+03</pdfrwt>
<totfact> 0.45800122E+00</totfact>
</mgrwt>
</event>
<event>
 5    1  0.2357694E-004  0.6437959E+03  0.7818608E-02  0.9818491E-01
         13   -1    0    0    0    0  0.00000000000E+00  0.00000000000E+00  0.10000000000E+04  0.10000000000E+04  0.00000000000E+00 0. -1.
          2   -1    0    0  501    0 -0.00000000000E+00 -0.00000000000E+00 -0.10361827426E+03  0.10361827426E+03  0.00000000000E+00 0. -1.
    9000006    2    1    2  501    0  0.00000000000E+00  0.00000000000E+00  0.89638172574E+03  0.11036182743E+04  0.64379585044E+03 0.  0.
         13    1    3    3    0    0  0.18073309525E+03 -0.24844995827E+03  0.61285074844E+03  0.68554932233E+03  0.00000000000E+00 0. -1.
          2    1    3    3  501    0 -0.18073309525E+03  0.24844995827E+03  0.28353097730E+03  0.41806895194E+03  0.00000000000E+00 0. -1.
<mgrwt>
<rscale>  0 0.64379585E+03</rscale>
<asrwt>0</asrwt>
<pdfrwt beam="1">0</pdfrwt>
<pdfrwt beam="2">  1        2 0.37679452E+00 0.64379585E+03</pdfrwt>
<totfact> 0.48597015E+00</totfact>
</mgrwt>
</event>
<event>
 5    1  0.2357694E-004  0.6444241E+03  0.7818608E-02  0.9817299E-01
         13   -1    0    0    0    0  0.00000000000E+00  0.00000000000E+00  0.10000000000E+04  0.10000000000E+04  0.00000000000E+00 0. -1.
          2   -1    0    0  501    0 -0.00000000000E+00 -0.00000000000E+00 -0.10382059243E+03  0.10382059243E+03  0.00000000000E+00 0. -1.
    9000006    2    1    2  501    0  0.00000000000E+00  0.00000000000E+00  0.89617940757E+03  0.11038205924E+04  0.64442406048E+03 0.  0.
         13    1    3    3    0    0 -0.21157072412E+03  0.18852587295E+03  0.71076081728E+03  0.76516999122E+03  0.00000000000E+00 0. -1.
          2    1    3    3  501    0  0.21157072412E+03 -0.18852587295E+03  0.18541859029E+03  0.33865060122E+03  0.00000000000E+00 0. -1.
<mgrwt>
<rscale>  0 0.64442406E+03</rscale>
<asrwt>0</asrwt>
<pdfrwt beam="1">0</pdfrwt>
<pdfrwt beam="2">  1        2 0.37753022E+00 0.64442406E+03</pdfrwt>
<totfact> 0.48292531E+00</totfact>
</mgrwt>
</event>
<event>
 5    1  0.2357694E-004  0.6480280E+03  0.7818608E-02  0.9810487E-01
         13   -1    0    0    0    0  0.00000000000E+00  0.00000000000E+00  0.10000000000E+04  0.10000000000E+04  0.00000000000E+00 0. -1.
          2   -1    0    0  501    0 -0.00000000000E+00 -0.00000000000E+00 -0.10498507284E+03  0.10498507284E+03  0.00000000000E+00 0. -1.
    9000006    2    1    2  501    0  0.00000000000E+00  0.00000000000E+00  0.89501492716E+03  0.11049850728E+04  0.64802800198E+03 0.  0.
         13    1    3    3    0    0  0.22333951272E+03  0.14963537504E+03  0.75591718964E+03  0.80229800012E+03  0.00000000000E+00 0. -1.
          2    1    3    3  501    0 -0.22333951272E+03 -0.14963537504E+03  0.13909773752E+03  0.30268707272E+03  0.00000000000E+00 0. -1.
<mgrwt>
<rscale>  0 0.64802800E+03</rscale>
<asrwt>0</asrwt>
<pdfrwt beam="1">0</pdfrwt>
<pdfrwt beam="2">  1        2 0.38176471E+00 0.64802800E+03</pdfrwt>
<totfact> 0.46573549E+00</totfact>
</mgrwt>
</event>
<event>
 5    1  0.2357694E-004  0.6416490E+03  0.7818608E-02  0.9822577E-01
         13   -1    0    0    0    0  0.00000000000E+00  0.00000000000E+00  0.10000000000E+04  0.10000000000E+04  0.00000000000E+00 0. -1.
          2   -1    0    0  501    0 -0.00000000000E+00 -0.00000000000E+00 -0.10292837442E+03  0.10292837442E+03  0.00000000000E+00 0. -1.
    9000006    2    1    2  501    0  0.00000000000E+00  0.00000000000E+00  0.89707162558E+03  0.11029283744E+04  0.64164904557E+03 0.  0.
         13    1    3    3    0    0 -0.31816500971E+03  0.11620265899E+02  0.51652182335E+03  0.60676090676E+03  0.00000000000E+00 0. -1.
          2    1    3    3  501    0  0.31816500971E+03 -0.11620265899E+02  0.38054980223E+03  0.49616746766E+03  0.00000000000E+00 0. -1.
<mgrwt>
<rscale>  0 0.64164905E+03</rscale>
<asrwt>0</asrwt>
<pdfrwt beam="1">0</pdfrwt>
<pdfrwt beam="2">  1        2 0.37428579E+00 0.64164905E+03</pdfrwt>
<totfact> 0.49648565E+00</totfact>
</mgrwt>
</event>
<event>
 5    1  0.2357694E-004  0.6521186E+03  0.7818608E-02  0.9802812E-01
         13   -1    0    0    0    0  0.00000000000E+00  0.00000000000E+00  0.10000000000E+04  0.10000000000E+04  0.00000000000E+00 0. -1.
          2   -1    0    0  501    0 -0.00000000000E+00 -0.00000000000E+00 -0.10631467935E+03  0.10631467935E+03  0.00000000000E+00 0. -1.
    9000006    2    1    2  501    0  0.00000000000E+00  0.00000000000E+00  0.89368532065E+03  0.11063146793E+04  0.65211863751E+03 0.  0.
         13    1    3    3    0    0  0.33483850326E+02  0.38314994758E+02 -0.99537313420E+02  0.11178946202E+03  0.00000000000E+00 0. -1.
          2    1    3    3  501    0 -0.33483850326E+02 -0.38314994758E+02  0.99322263407E+03  0.99452521732E+03  0.00000000000E+00 0. -1.
<mgrwt>
<rscale>  0 0.65211864E+03</rscale>
<asrwt>0</asrwt>
<pdfrwt beam="1">0</pdfrwt>
<pdfrwt beam="2">  1        2 0.38659965E+00 0.65211864E+03</pdfrwt>
<totfact> 0.44678927E+00</totfact>
</mgrwt>
</event>
<event>
 5    1  0.2357694E-004  0.6786821E+03  0.7818608E-02  0.9754400E-01
         13   -1    0    0    0    0  0.00000000000E+00  0.00000000000E+00  0.10000000000E+04  0.10000000000E+04  0.00000000000E+00 0. -1.
          2   -1    0    0  501    0 -0.00000000000E+00 -0.00000000000E+00 -0.11515234309E+03  0.11515234309E+03  0.00000000000E+00 0. -1.
    9000006    2    1    2  501    0  0.00000000000E+00  0.00000000000E+00  0.88484765691E+03  0.11151523431E+04  0.67868208489E+03 0.  0.
         13    1    3    3    0    0  0.19868318420E+02 -0.30005031016E+03  0.70080275019E+03  0.76259388496E+03  0.00000000000E+00 0. -1.
          4    1    3    3  501    0 -0.19868318420E+02  0.30005031016E+03  0.18404490673E+03  0.35255845813E+03  0.00000000000E+00 0. -1.
<mgrwt>
<rscale>  0 0.67868208E+03</rscale>
<asrwt>0</asrwt>
<pdfrwt beam="1">0</pdfrwt>
<pdfrwt beam="2">  1        2 0.41873668E+00 0.67868208E+03</pdfrwt>
<totfact> 0.33751589E+00</totfact>
</mgrwt>
</event>
<event>
 5    1  0.2357694E-004  0.6617237E+03  0.7818608E-02  0.9785026E-01
         13   -1    0    0    0    0  0.00000000000E+00  0.00000000000E+00  0.10000000000E+04  0.10000000000E+04  0.00000000000E+00 0. -1.
          2   -1    0    0  501    0 -0.00000000000E+00 -0.00000000000E+00 -0.10946955665E+03  0.10946955665E+03  0.00000000000E+00 0. -1.
    9000006    2    1    2  501    0  0.00000000000E+00  0.00000000000E+00  0.89053044335E+03  0.11094695567E+04  0.66172367845E+03 0.  0.
         13    1    3    3    0    0  0.25945268378E+03  0.98766598903E+02  0.14347535390E+03  0.31249914136E+03  0.00000000000E+00 0. -1.
          4    1    3    3  501    0 -0.25945268378E+03 -0.98766598903E+02  0.74705508945E+03  0.79697041529E+03  0.00000000000E+00 0. -1.
<mgrwt>
<rscale>  0 0.66172368E+03</rscale>
<asrwt>0</asrwt>
<pdfrwt beam="1">0</pdfrwt>
<pdfrwt beam="2">  1        2 0.39807195E+00 0.66172368E+03</pdfrwt>
<totfact> 0.40459319E+00</totfact>
</mgrwt>
</event>
<event>
 5    1  0.2357694E-004  0.6199802E+03  0.7818608E-02  0.9864799E-01
         13   -1    0    0    0    0  0.00000000000E+00  0.00000000000E+00  0.10000000000E+04  0.10000000000E+04  0.00000000000E+00 0. -1.
          2   -1    0    0  501    0 -0.00000000000E+00 -0.00000000000E+00 -0.96093875259E+02  0.96093875259E+02  0.00000000000E+00 0. -1.
    9000006    2    1    2  501    0  0.00000000000E+00  0.00000000000E+00  0.90390612474E+03  0.10960938753E+04  0.61998024246E+03 0.  0.
         13    1    3    3    0    0 -0.15262585710E+03 -0.20300501542E+03  0.76617192307E+03  0.80717105018E+03  0.00000000000E+00 0. -1.
          2    1    3    3  501    0  0.15262585710E+03  0.20300501542E+03  0.13773420167E+03  0.28892282508E+03  0.00000000000E+00 0. -1.
<mgrwt>
<rscale>  0 0.61998024E+03</rscale>
<asrwt>0</asrwt>
<pdfrwt beam="1">0</pdfrwt>
<pdfrwt beam="2">  1        2 0.34943301E+00 0.61998024E+03</pdfrwt>
<totfact> 0.61256755E+00</totfact>
</mgrwt>
</event>
<event>
 5    1  0.2357694E-004  0.6452170E+03  0.7818608E-02  0.9815796E-01
         13   -1    0    0    0    0  0.00000000000E+00  0.00000000000E+00  0.10000000000E+04  0.10000000000E+04  0.00000000000E+00 0. -1.
          2   -1    0    0  501    0 -0.00000000000E+00 -0.00000000000E+00 -0.10407625663E+03  0.10407625663E+03  0.00000000000E+00 0. -1.
    9000006    2    1    2  501    0  0.00000000000E+00  0.00000000000E+00  0.89592374337E+03  0.11040762566E+04  0.64521703829E+03 0.  0.
         13    1    3    3    0    0  0.58916457319E+02 -0.21538133934E+03  0.84639636091E+03  0.87535539642E+03  0.00000000000E+00 0. -1.
          4    1    3    3  501    0 -0.58916457319E+02  0.21538133934E+03  0.49527382462E+02  0.22872086020E+03  0.00000000000E+00 0. -1.
<mgrwt>
<rscale>  0 0.64521704E+03</rscale>
<asrwt>0</asrwt>
<pdfrwt beam="1">0</pdfrwt>
<pdfrwt beam="2">  1        2 0.37845991E+00 0.64521704E+03</pdfrwt>
<totfact> 0.47910251E+00</totfact>
</mgrwt>
</event>
<event>
 5    1  0.2357694E-004  0.6486776E+03  0.7818608E-02  0.9809264E-01
         13   -1    0    0    0    0  0.00000000000E+00  0.00000000000E+00  0.10000000000E+04  0.10000000000E+04  0.00000000000E+00 0. -1.
          2   -1    0    0  501    0 -0.00000000000E+00 -0.00000000000E+00 -0.10519566420E+03  0.10519566420E+03  0.00000000000E+00 0. -1.
    9000006    2    1    2  501    0  0.00000000000E+00  0.00000000000E+00  0.89480433580E+03  0.11051956642E+04  0.64867762164E+03 0.  0.
         13    1    3    3    0    0 -0.29758042125E+03  0.12829184290E+03  0.47043519397E+03  0.57124616041E+03  0.00000000000E+00 0. -1.
          4    1    3    3  501    0  0.29758042125E+03 -0.12829184290E+03  0.42436914183E+03  0.53394950379E+03  0.00000000000E+00 0. -1.
<mgrwt>
<rscale>  0 0.64867762E+03</rscale>
<asrwt>0</asrwt>
<pdfrwt beam="1">0</pdfrwt>
<pdfrwt beam="2">  1        2 0.38253049E+00 0.64867762E+03</pdfrwt>
<totfact> 0.46268689E+00</totfact>
</mgrwt>
</event>
<event>
 5    1  0.2357694E-004  0.6526383E+03  0.7818608E-02  0.9801841E-01
         13   -1    0    0    0    0  0.00000000000E+00  0.00000000000E+00  0.10000000000E+04  0.10000000000E+04  0.00000000000E+00 0. -1.
          2   -1    0    0  501    0 -0.00000000000E+00 -0.00000000000E+00 -0.10648419540E+03  0.10648419540E+03  0.00000000000E+00 0. -1.
    9000006    2    1    2  501    0  0.00000000000E+00  0.00000000000E+00  0.89351580460E+03  0.11064841954E+04  0.65263832372E+03 0.  0.
         13    1    3    3    0    0 -0.17810547150E+03  0.18060637016E+03  0.98708900320E+02  0.27218314960E+03  0.00000000000E+00 0. -1.
          4    1    3    3  501    0  0.17810547150E+03 -0.18060637016E+03  0.79480690428E+03  0.83430104580E+03  0.00000000000E+00 0. -1.
<mgrwt>
<rscale>  0 0.65263832E+03</rscale>
<asrwt>0</asrwt>
<pdfrwt beam="1">0</pdfrwt>
<pdfrwt beam="2">  1        2 0.38721607E+00 0.65263832E+03</pdfrwt>
<totfact> 0.44442467E+00</totfact>
</mgrwt>
</event>
<event>
 5    1  0.2357694E-004  0.6570088E+03  0.7818608E-02  0.9793716E-01
         13   -1    0    0    0    0  0.00000000000E+00  0.00000000000E+00  0.10000000000E+04  0.10000000000E+04  0.00000000000E+00 0. -1.
          2   -1    0    0  501    0 -0.00000000000E+00 -0.00000000000E+00 -0.10791513111E+03  0.10791513111E+03  0.00000000000E+00 0. -1.
    9000006    2    1    2  501    0  0.00000000000E+00  0.00000000000E+00  0.89208486889E+03  0.11079151311E+04  0.65700877046E+03 0.  0.
         13    1    3    3    0    0  0.24906969785E+03  0.12818840939E+03  0.15667013900E+03  0.32095718584E+03  0.00000000000E+00 0. -1.
          2    1    3    3  501    0 -0.24906969785E+03 -0.12818840939E+03  0.73541472989E+03  0.78695794527E+03  0.00000000000E+00 0. -1.
<mgrwt>
<rscale>  0 0.65700877E+03</rscale>
<asrwt>0</asrwt>
<pdfrwt beam="1">0</pdfrwt>
<pdfrwt beam="2">  1        2 0.39241949E+00 0.65700877E+03</pdfrwt>
<totfact> 0.42491083E+00</totfact>
</mgrwt>
</event>
<event>
 5    1  0.2357694E-004  0.6367570E+03  0.7818608E-02  0.9831951E-01
         13   -1    0    0    0    0  0.00000000000E+00  0.00000000000E+00  0.10000000000E+04  0.10000000000E+04  0.00000000000E+00 0. -1.
          2   -1    0    0  501    0 -0.00000000000E+00 -0.00000000000E+00 -0.10136487068E+03  0.10136487068E+03  0.00000000000E+00 0. -1.
    9000006    2    1    2  501    0  0.00000000000E+00  0.00000000000E+00  0.89863512932E+03  0.11013648707E+04  0.63675700446E+03 0.  0.
         13    1    3    3    0    0  0.79670278045E+02 -0.15722664686E+03  0.90790991738E+03  0.92486106512E+03  0.00000000000E+00 0. -1.
          2    1    3    3  501    0 -0.79670278045E+02  0.15722664686E+03 -0.92747880645E+01  0.17650380556E+03  0.00000000000E+00 0. -1.
<mgrwt>
<rscale>  0 0.63675700E+03</rscale>
<asrwt>0</asrwt>
<pdfrwt beam="1">0</pdfrwt>
<pdfrwt beam="2">  1        2 0.36860031E+00 0.63675700E+03</pdfrwt>
<totfact> 0.52109239E+00</totfact>
</mgrwt>
</event>
<event>
 5    1  0.2357694E-004  0.6458110E+03  0.7818608E-02  0.9814672E-01
         13   -1    0    0    0    0  0.00000000000E+00  0.00000000000E+00  0.10000000000E+04  0.10000000000E+04  0.00000000000E+00 0. -1.
          2   -1    0    0  501    0 -0.00000000000E+00 -0.00000000000E+00 -0.10426795056E+03  0.10426795056E+03  0.00000000000E+00 0. -1.
    9000006    2    1    2  501    0  0.00000000000E+00  0.00000000000E+00  0.89573204944E+03  0.11042679506E+04  0.64581096480E+03 0.  0.
         13    1    3    3    0    0 -0.26568461296E+03  0.72733502955E+02  0.15976305791E+03  0.31843792282E+03  0.00000000000E+00 0. -1.
          4    1    3    3  501    0  0.26568461296E+03 -0.72733502955E+02  0.73596899153E+03  0.78583002775E+03  0.00000000000E+00 0. -1.
<mgrwt>
<rscale>  0 0.64581096E+03</rscale>
<asrwt>0</asrwt>
<pdfrwt beam="1">0</pdfrwt>
<pdfrwt beam="2">  1        2 0.37915698E+00 0.64581096E+03</pdfrwt>
<totfact> 0.47625433E+00</totfact>
</mgrwt>
</event>
<event>
 5    1  0.2357694E-004  0.6465070E+03  0.7818608E-02  0.9813356E-01
         13   -1    0    0    0    0  0.00000000000E+00  0.00000000000E+00  0.10000000000E+04  0.10000000000E+04  0.00000000000E+00 0. -1.
          2   -1    0    0  501    0 -0.00000000000E+00 -0.00000000000E+00 -0.10449281317E+03  0.10449281317E+03  0.00000000000E+00 0. -1.
    9000006    2    1    2  501    0  0.00000000000E+00  0.00000000000E+00  0.89550718683E+03  0.11044928132E+04  0.64650696260E+03 0.  0.
         13    1    3    3    0    0 -0.14405217733E+03  0.28937827858E+03  0.45016677376E+03  0.55420297915E+03  0.00000000000E+00 0. -1.
          2    1    3    3  501    0  0.14405217733E+03 -0.28937827858E+03  0.44534041307E+03  0.55028983402E+03  0.00000000000E+00 0. -1.
<mgrwt>
<rscale>  0 0.64650696E+03</rscale>
<asrwt>0</asrwt>
<pdfrwt beam="1">0</pdfrwt>
<pdfrwt beam="2">  1        2 0.37997467E+00 0.64650696E+03</pdfrwt>
<totfact> 0.47293299E+00</totfact>
</mgrwt>
</event>
<event>
 5    1  0.2357694E-004  0.6511494E+03  0.7818608E-02  0.9804625E-01
         13   -1    0    0    0    0  0.00000000000E+00  0.00000000000E+00  0.10000000000E+04  0.10000000000E+04  0.00000000000E+00 0. -1.
          2   -1    0    0  501    0 -0.00000000000E+00 -0.00000000000E+00 -0.10599889287E+03  0.10599889287E+03  0.00000000000E+00 0. -1.
    9000006    2    1    2  501    0  0.00000000000E+00  0.00000000000E+00  0.89400110713E+03  0.11059988929E+04  0.65114942330E+03 0.  0.
         13    1    3    3    0    0  0.39967150779E+02 -0.31378804808E+02  0.99322328462E+03  0.99452224492E+03  0.00000000000E+00 0. -1.
          2    1    3    3  501    0 -0.39967150779E+02  0.31378804808E+02 -0.99222177486E+02  0.11147664795E+03  0.00000000000E+00 0. -1.
<mgrwt>
<rscale>  0 0.65114942E+03</rscale>
<asrwt>0</asrwt>
<pdfrwt beam="1">0</pdfrwt>
<pdfrwt beam="2">  1        2 0.38545133E+00 0.65114942E+03</pdfrwt>
<totfact> 0.45122464E+00</totfact>
</mgrwt>
</event>
<event>
 5    1  0.2357694E-004  0.6715168E+03  0.7818608E-02  0.9767222E-01
         13   -1    0    0    0    0  0.00000000000E+00  0.00000000000E+00  0.10000000000E+04  0.10000000000E+04  0.00000000000E+00 0. -1.
          2   -1    0    0  501    0 -0.00000000000E+00 -0.00000000000E+00 -0.11273370575E+03  0.11273370575E+03  0.00000000000E+00 0. -1.
    9000006    2    1    2  501    0  0.00000000000E+00  0.00000000000E+00  0.88726629425E+03  0.11127337058E+04  0.67151680769E+03 0.  0.
         13    1    3    3    0    0 -0.24129765763E+03  0.23254949018E+03  0.47798960454E+03  0.58376184100E+03  0.00000000000E+00 0. -1.
          2    1    3    3  501    0  0.24129765763E+03 -0.23254949018E+03  0.40927668971E+03  0.52897186475E+03  0.00000000000E+00 0. -1.
<mgrwt>
<rscale>  0 0.67151681E+03</rscale>
<asrwt>0</asrwt>
<pdfrwt beam="1">0</pdfrwt>
<pdfrwt beam="2">  1        2 0.40994161E+00 0.67151681E+03</pdfrwt>
<totfact> 0.36474177E+00</totfact>
</mgrwt>
</event>
<event>
 5    1  0.2357694E-004  0.6415671E+03  0.7818608E-02  0.9822733E-01
         13   -1    0    0    0    0  0.00000000000E+00  0.00000000000E+00  0.10000000000E+04  0.10000000000E+04  0.00000000000E+00 0. -1.
          2   -1    0    0  501    0 -0.00000000000E+00 -0.00000000000E+00 -0.10290209073E+03  0.10290209073E+03  0.00000000000E+00 0. -1.
    9000006    2    1    2  501    0  0.00000000000E+00  0.00000000000E+00  0.89709790927E+03  0.11029020907E+04  0.64156711490E+03 0.  0.
         13    1    3    3    0    0  0.61175586357E+02 -0.25537907475E+03  0.76525638119E+03  0.80906010478E+03  0.00000000000E+00 0. -1.
          2    1    3    3  501    0 -0.61175586357E+02  0.25537907475E+03  0.13184152808E+03  0.29384198596E+03  0.00000000000E+00 0. -1.
<mgrwt>
<rscale>  0 0.64156711E+03</rscale>
<asrwt>0</asrwt>
<pdfrwt beam="1">0</pdfrwt>
<pdfrwt beam="2">  1        2 0.37419021E+00 0.64156711E+03</pdfrwt>
<totfact> 0.49689036E+00</totfact>
</mgrwt>
</event>
<event>
 5    1  0.2357694E-004  0.6491795E+03  0.7818608E-02  0.9808320E-01
         13   -1    0    0    0    0  0.00000000000E+00  0.00000000000E+00  0.10000000000E+04  0.10000000000E+04  0.00000000000E+00 0. -1.
          2   -1    0    0  501    0 -0.00000000000E+00 -0.00000000000E+00 -0.10535850989E+03  0.10535850989E+03  0.00000000000E+00 0. -1.
    9000006    2    1    2  501    0  0.00000000000E+00  0.00000000000E+00  0.89464149011E+03  0.11053585099E+04  0.64917951260E+03 0.  0.
         13    1    3    3    0    0  0.18862751013E+03 -0.19746975958E+02  0.89584016929E+03  0.91569639594E+03  0.00000000000E+00 0. -1.
          2    1    3    3  501    0 -0.18862751013E+03  0.19746975958E+02 -0.11986791814E+01  0.18966211395E+03  0.00000000000E+00 0. -1.
<mgrwt>
<rscale>  0 0.64917951E+03</rscale>
<asrwt>0</asrwt>
<pdfrwt beam="1">0</pdfrwt>
<pdfrwt beam="2">  1        2 0.38312266E+00 0.64917951E+03</pdfrwt>
<totfact> 0.46034191E+00</totfact>
</mgrwt>
</event>
<event>
 5    1  0.2357694E-004  0.6156560E+03  0.7818608E-02  0.9873447E-01
         13   -1    0    0    0    0  0.00000000000E+00  0.00000000000E+00  0.10000000000E+04  0.10000000000E+04  0.00000000000E+00 0. -1.
          2   -1    0    0  501    0 -0.00000000000E+00 -0.00000000000E+00 -0.94758092504E+02  0.94758092504E+02  0.00000000000E+00 0. -1.
    9000006    2    1    2  501    0  0.00000000000E+00  0.00000000000E+00  0.90524190750E+03  0.10947580925E+04  0.61565604847E+03 0.  0.
         13    1    3    3    0    0  0.20067840366E+03  0.16161262519E+03  0.15312459818E+03  0.29972921927E+03  0.00000000000E+00 0. -1.
          4    1    3    3  501    0 -0.20067840366E+03 -0.16161262519E+03  0.75211730931E+03  0.79502887324E+03  0.00000000000E+00 0. -1.
<mgrwt>
<rscale>  0 0.61565605E+03</rscale>
<asrwt>0</asrwt>
<pdfrwt beam="1">0</pdfrwt>
<pdfrwt beam="2">  1        2 0.34457561E+00 0.61565605E+03</pdfrwt>
<totfact> 0.63800813E+00</totfact>
</mgrwt>
</event>
<event>
 5    1  0.2357694E-004  0.6528632E+03  0.7818608E-02  0.9801421E-01
         13   -1    0    0    0    0  0.00000000000E+00  0.00000000000E+00  0.10000000000E+04  0.10000000000E+04  0.00000000000E+00 0. -1.
          2   -1    0    0  501    0 -0.00000000000E+00 -0.00000000000E+00 -0.10655759261E+03  0.10655759261E+03  0.00000000000E+00 0. -1.
    9000006    2    1    2  501    0  0.00000000000E+00  0.00000000000E+00  0.89344240739E+03  0.11065575926E+04  0.65286320959E+03 0.  0.
         13    1    3    3    0    0  0.83496981973E+01 -0.17208495176E+03 -0.23219850692E+02  0.17384507341E+03  0.00000000000E+00 0. -1.
          4    1    3    3  501    0 -0.83496981973E+01  0.17208495176E+03  0.91666225808E+03  0.93271251920E+03  0.00000000000E+00 0. -1.
<mgrwt>
<rscale>  0 0.65286321E+03</rscale>
<asrwt>0</asrwt>
<pdfrwt beam="1">0</pdfrwt>
<pdfrwt beam="2">  1        2 0.38748297E+00 0.65286321E+03</pdfrwt>
<totfact> 0.44340436E+00</totfact>
</mgrwt>
</event>
<event>
 5    1  0.2357694E-004  0.6553924E+03  0.7818608E-02  0.9796713E-01
         13   -1    0    0    0    0  0.00000000000E+00  0.00000000000E+00  0.10000000000E+04  0.10000000000E+04  0.00000000000E+00 0. -1.
          2   -1    0    0  501    0 -0.00000000000E+00 -0.00000000000E+00 -0.10738480247E+03  0.10738480247E+03  0.00000000000E+00 0. -1.
    9000006    2    1    2  501    0  0.00000000000E+00  0.00000000000E+00  0.89261519753E+03  0.11073848025E+04  0.65539240907E+03 0.  0.
         13    1    3    3    0    0 -0.65667843756E+02  0.97708122728E+02  0.96303624892E+03  0.97020511217E+03  0.00000000000E+00 0. -1.
          2    1    3    3  501    0  0.65667843756E+02 -0.97708122728E+02 -0.70421051386E+02  0.13717969029E+03  0.00000000000E+00 0. -1.
<mgrwt>
<rscale>  0 0.65539241E+03</rscale>
<asrwt>0</asrwt>
<pdfrwt beam="1">0</pdfrwt>
<pdfrwt beam="2">  1        2 0.39049101E+00 0.65539241E+03</pdfrwt>
<totfact> 0.43205078E+00</totfact>
</mgrwt>
</event>
<event>
 5    1  0.2357694E-004  0.6538585E+03  0.7818608E-02  0.9799566E-01
         13   -1    0    0    0    0  0.00000000000E+00  0.00000000000E+00  0.10000000000E+04  0.10000000000E+04  0.00000000000E+00 0. -1.
          2   -1    0    0  501    0 -0.00000000000E+00 -0.00000000000E+00 -0.10688272332E+03  0.10688272332E+03  0.00000000000E+00 0. -1.
    9000006    2    1    2  501    0  0.00000000000E+00  0.00000000000E+00  0.89311727668E+03  0.11068827233E+04  0.65385846580E+03 0.  0.
         13    1    3    3    0    0  0.90792883294E+00  0.19271708162E+03  0.89361794035E+03  0.91416285267E+03  0.00000000000E+00 0. -1.
          4    1    3    3  501    0 -0.90792883294E+00 -0.19271708162E+03 -0.50066367699E+00  0.19271987066E+03  0.00000000000E+00 0. -1.
<mgrwt>
<rscale>  0 0.65385847E+03</rscale>
<asrwt>0</asrwt>
<pdfrwt beam="1">0</pdfrwt>
<pdfrwt beam="2">  1        2 0.38866527E+00 0.65385847E+03</pdfrwt>
<totfact> 0.43891010E+00</totfact>
</mgrwt>
</event>
<event>
 5    1  0.2357694E-004  0.6758145E+03  0.7818608E-02  0.9759511E-01
         13   -1    0    0    0    0  0.00000000000E+00  0.00000000000E+00  0.10000000000E+04  0.10000000000E+04  0.00000000000E+00 0. -1.
          2   -1    0    0  501    0 -0.00000000000E+00 -0.00000000000E+00 -0.11418131449E+03  0.11418131449E+03  0.00000000000E+00 0. -1.
    9000006    2    1    2  501    0  0.00000000000E+00  0.00000000000E+00  0.88581868551E+03  0.11141813145E+04  0.67581451447E+03 0.  0.
         13    1    3    3    0    0  0.10773421818E+02 -0.18719426223E+03 -0.20544663227E+02  0.18862619546E+03  0.00000000000E+00 0. -1.
          2    1    3    3  501    0 -0.10773421818E+02  0.18719426223E+03  0.90636334873E+03  0.92555511903E+03  0.00000000000E+00 0. -1.
<mgrwt>
<rscale>  0 0.67581451E+03</rscale>
<asrwt>0</asrwt>
<pdfrwt beam="1">0</pdfrwt>
<pdfrwt beam="2">  1        2 0.41520566E+00 0.67581451E+03</pdfrwt>
<totfact> 0.34822084E+00</totfact>
</mgrwt>
</event>
<event>
 5    1  0.2357694E-004  0.6361497E+03  0.7818608E-02  0.9833121E-01
         13   -1    0    0    0    0  0.00000000000E+00  0.00000000000E+00  0.10000000000E+04  0.10000000000E+04  0.00000000000E+00 0. -1.
          2   -1    0    0  501    0 -0.00000000000E+00 -0.00000000000E+00 -0.10117162192E+03  0.10117162192E+03  0.00000000000E+00 0. -1.
    9000006    2    1    2  501    0  0.00000000000E+00  0.00000000000E+00  0.89882837808E+03  0.11011716219E+04  0.63614973685E+03 0.  0.
         13    1    3    3    0    0 -0.13755169203E+02  0.31313858969E+03  0.35577009828E+03  0.47414907346E+03  0.00000000000E+00 0. -1.
          4    1    3    3  501    0  0.13755169203E+02 -0.31313858969E+03  0.54305827979E+03  0.62702254846E+03  0.00000000000E+00 0. -1.
<mgrwt>
<rscale>  0 0.63614974E+03</rscale>
<asrwt>0</asrwt>
<pdfrwt beam="1">0</pdfrwt>
<pdfrwt beam="2">  1        2 0.36789758E+00 0.63614974E+03</pdfrwt>
<totfact> 0.52421016E+00</totfact>
</mgrwt>
</event>
<event>
 5    1  0.2357694E-004  0.6308825E+03  0.7818608E-02  0.9843328E-01
         13   -1    0    0    0    0  0.00000000000E+00  0.00000000000E+00  0.10000000000E+04  0.10000000000E+04  0.00000000000E+00 0. -1.
          2   -1    0    0  501    0 -0.00000000000E+00 -0.00000000000E+00 -0.99503192530E+02  0.99503192530E+02  0.00000000000E+00 0. -1.
    9000006    2    1    2  501    0  0.00000000000E+00  0.00000000000E+00  0.90049680747E+03  0.10995031925E+04  0.63088253274E+03 0.  0.
         13    1    3    3    0    0 -0.11154377610E+03 -0.14090587909E+03 -0.15600108719E+01  0.17971898726E+03  0.00000000000E+00 0. -1.
          2    1    3    3  501    0  0.11154377610E+03  0.14090587909E+03  0.90205681834E+03  0.91978420527E+03  0.00000000000E+00 0. -1.
<mgrwt>
<rscale>  0 0.63088253E+03</rscale>
<asrwt>0</asrwt>
<pdfrwt beam="1">0</pdfrwt>
<pdfrwt beam="2">  1        2 0.36183055E+00 0.63088253E+03</pdfrwt>
<totfact> 0.55184960E+00</totfact>
</mgrwt>
</event>
<event>
 5    1  0.2357694E-004  0.6558074E+03  0.7818608E-02  0.9795943E-01
         13   -1    0    0    0    0  0.00000000000E+00  0.00000000000E+00  0.10000000000E+04  0.10000000000E+04  0.00000000000E+00 0. -1.
          2   -1    0    0  501    0 -0.00000000000E+00 -0.00000000000E+00 -0.10752082854E+03  0.10752082854E+03  0.00000000000E+00 0. -1.
    9000006    2    1    2  501    0  0.00000000000E+00  0.00000000000E+00  0.89247917146E+03  0.11075208285E+04  0.65580737580E+03 0.  0.
         13    1    3    3    0    0 -0.37379337893E+02 -0.15359109906E+02  0.99577841798E+03  0.99659810098E+03  0.00000000000E+00 0. -1.
          4    1    3    3  501    0  0.37379337893E+02  0.15359109906E+02 -0.10329924652E+03  0.11092272756E+03  0.00000000000E+00 0. -1.
<mgrwt>
<rscale>  0 0.65580738E+03</rscale>
<asrwt>0</asrwt>
<pdfrwt beam="1">0</pdfrwt>
<pdfrwt beam="2">  1        2 0.39098566E+00 0.65580738E+03</pdfrwt>
<totfact> 0.43020917E+00</totfact>
</mgrwt>
</event>
<event>
 5    1  0.2357694E-004  0.6524696E+03  0.7818608E-02  0.9802156E-01
         13   -1    0    0    0    0  0.00000000000E+00  0.00000000000E+00  0.10000000000E+04  0.10000000000E+04  0.00000000000E+00 0. -1.
          2   -1    0    0  501    0 -0.00000000000E+00 -0.00000000000E+00 -0.10642915701E+03  0.10642915701E+03  0.00000000000E+00 0. -1.
    9000006    2    1    2  501    0  0.00000000000E+00  0.00000000000E+00  0.89357084299E+03  0.11064291570E+04  0.65246963765E+03 0.  0.
         13    1    3    3    0    0 -0.15436733335E+02 -0.23715369679E+03  0.82577446391E+03  0.85929251939E+03  0.00000000000E+00 0. -1.
          2    1    3    3  501    0  0.15436733335E+02  0.23715369679E+03  0.67796379073E+02  0.24713663762E+03  0.00000000000E+00 0. -1.
<mgrwt>
<rscale>  0 0.65246964E+03</rscale>
<asrwt>0</asrwt>
<pdfrwt beam="1">0</pdfrwt>
<pdfrwt beam="2">  1        2 0.38701593E+00 0.65246964E+03</pdfrwt>
<totfact> 0.44519116E+00</totfact>
</mgrwt>
</event>
<event>
 5    1  0.2357694E-004  0.6511911E+03  0.7818608E-02  0.9804547E-01
         13   -1    0    0    0    0  0.00000000000E+00  0.00000000000E+00  0.10000000000E+04  0.10000000000E+04  0.00000000000E+00 0. -1.
          2   -1    0    0  501    0 -0.00000000000E+00 -0.00000000000E+00 -0.10601244919E+03  0.10601244919E+03  0.00000000000E+00 0. -1.
    9000006    2    1    2  501    0  0.00000000000E+00  0.00000000000E+00  0.89398755081E+03  0.11060124492E+04  0.65119106011E+03 0.  0.
         13    1    3    3    0    0 -0.23485780452E+03  0.12509481277E+03  0.12831206148E+03  0.29541646137E+03  0.00000000000E+00 0. -1.
          2    1    3    3  501    0  0.23485780452E+03 -0.12509481277E+03  0.76567548932E+03  0.81059598782E+03  0.00000000000E+00 0. -1.
<mgrwt>
<rscale>  0 0.65119106E+03</rscale>
<asrwt>0</asrwt>
<pdfrwt beam="1">0</pdfrwt>
<pdfrwt beam="2">  1        2 0.38550063E+00 0.65119106E+03</pdfrwt>
<totfact> 0.45103342E+00</totfact>
</mgrwt>
</event>
<event>
 5    1  0.2357694E-004  0.6532882E+03  0.7818608E-02  0.9800629E-01
         13   -1    0    0    0    0  0.00000000000E+00  0.00000000000E+00  0.10000000000E+04  0.10000000000E+04  0.00000000000E+00 0. -1.
          2   -1    0    0  501    0 -0.00000000000E+00 -0.00000000000E+00 -0.10669635745E+03  0.10669635745E+03  0.00000000000E+00 0. -1.
    9000006    2    1    2  501    0  0.00000000000E+00  0.00000000000E+00  0.89330364255E+03  0.11066963574E+04  0.65328816749E+03 0.  0.
         13    1    3    3    0    0  0.23914767544E+03  0.12169246690E+03  0.13110671117E+03  0.29864634081E+03  0.00000000000E+00 0. -1.
          4    1    3    3  501    0 -0.23914767544E+03 -0.12169246690E+03  0.76219693139E+03  0.80805001663E+03  0.00000000000E+00 0. -1.
<mgrwt>
<rscale>  0 0.65328817E+03</rscale>
<asrwt>0</asrwt>
<pdfrwt beam="1">0</pdfrwt>
<pdfrwt beam="2">  1        2 0.38798757E+00 0.65328817E+03</pdfrwt>
<totfact> 0.44148115E+00</totfact>
</mgrwt>
</event>
<event>
 5    1  0.2357694E-004  0.6594620E+03  0.7818608E-02  0.9789185E-01
         13   -1    0    0    0    0  0.00000000000E+00  0.00000000000E+00  0.10000000000E+04  0.10000000000E+04  0.00000000000E+00 0. -1.
          2   -1    0    0  501    0 -0.00000000000E+00 -0.00000000000E+00 -0.10872254573E+03  0.10872254573E+03  0.00000000000E+00 0. -1.
    9000006    2    1    2  501    0  0.00000000000E+00  0.00000000000E+00  0.89127745427E+03  0.11087225457E+04  0.65946204056E+03 0.  0.
         13    1    3    3    0    0 -0.30594323633E+02  0.75865113316E+02  0.98266951703E+03  0.98606840927E+03  0.00000000000E+00 0. -1.
          2    1    3    3  501    0  0.30594323633E+02 -0.75865113316E+02 -0.91392062762E+02  0.12265413647E+03  0.00000000000E+00 0. -1.
<mgrwt>
<rscale>  0 0.65946204E+03</rscale>
<asrwt>0</asrwt>
<pdfrwt beam="1">0</pdfrwt>
<pdfrwt beam="2">  1        2 0.39535555E+00 0.65946204E+03</pdfrwt>
<totfact> 0.41424514E+00</totfact>
</mgrwt>
</event>
<event>
 5    1  0.2357694E-004  0.6442323E+03  0.7818608E-02  0.9817663E-01
         13   -1    0    0    0    0  0.00000000000E+00  0.00000000000E+00  0.10000000000E+04  0.10000000000E+04  0.00000000000E+00 0. -1.
          2   -1    0    0  501    0 -0.00000000000E+00 -0.00000000000E+00 -0.10375879857E+03  0.10375879857E+03  0.00000000000E+00 0. -1.
    9000006    2    1    2  501    0  0.00000000000E+00  0.00000000000E+00  0.89624120143E+03  0.11037587986E+04  0.64423225181E+03 0.  0.
         13    1    3    3    0    0 -0.45816755306E+02  0.10051479157E+03 -0.70292621866E+02  0.13093300225E+03  0.00000000000E+00 0. -1.
          4    1    3    3  501    0  0.45816755306E+02 -0.10051479157E+03  0.96653382330E+03  0.97282579631E+03  0.00000000000E+00 0. -1.
<mgrwt>
<rscale>  0 0.64423225E+03</rscale>
<asrwt>0</asrwt>
<pdfrwt beam="1">0</pdfrwt>
<pdfrwt beam="2">  1        2 0.37730552E+00 0.64423225E+03</pdfrwt>
<totfact> 0.48385344E+00</totfact>
</mgrwt>
</event>
<event>
 5    1  0.2357694E-004  0.6500141E+03  0.7818608E-02  0.9806753E-01
         13   -1    0    0    0    0  0.00000000000E+00  0.00000000000E+00  0.10000000000E+04  0.10000000000E+04  0.00000000000E+00 0. -1.
          2   -1    0    0  501    0 -0.00000000000E+00 -0.00000000000E+00 -0.10562959274E+03  0.10562959274E+03  0.00000000000E+00 0. -1.
    9000006    2    1    2  501    0  0.00000000000E+00  0.00000000000E+00  0.89437040726E+03  0.11056295927E+04  0.65001413135E+03 0.  0.
         13    1    3    3    0    0 -0.22740063118E+03 -0.94118572867E+02  0.80824871870E+03  0.84488777012E+03  0.00000000000E+00 0. -1.
          2    1    3    3  501    0  0.22740063118E+03  0.94118572867E+02  0.86121688565E+02  0.26074182262E+03  0.00000000000E+00 0. -1.
<mgrwt>
<rscale>  0 0.65001413E+03</rscale>
<asrwt>0</asrwt>
<pdfrwt beam="1">0</pdfrwt>
<pdfrwt beam="2">  1        2 0.38410842E+00 0.65001413E+03</pdfrwt>
<totfact> 0.45646224E+00</totfact>
</mgrwt>
</event>
<event>
 5    1  0.2357694E-004  0.6597207E+03  0.7818608E-02  0.9788708E-01
         13   -1    0    0    0    0  0.00000000000E+00  0.00000000000E+00  0.10000000000E+04  0.10000000000E+04  0.00000000000E+00 0. -1.
          2   -1    0    0  501    0 -0.00000000000E+00 -0.00000000000E+00 -0.10880783794E+03  0.10880783794E+03  0.00000000000E+00 0. -1.
    9000006    2    1    2  501    0  0.00000000000E+00  0.00000000000E+00  0.89119216206E+03  0.11088078379E+04  0.65972066192E+03 0.  0.
         13    1    3    3    0    0 -0.30666854431E+03 -0.88849201370E+02  0.58488394623E+03  0.66635501589E+03  0.00000000000E+00 0. -1.
          2    1    3    3  501    0  0.30666854431E+03  0.88849201370E+02  0.30630821583E+03  0.44245282205E+03  0.00000000000E+00 0. -1.
<mgrwt>
<rscale>  0 0.65972066E+03</rscale>
<asrwt>0</asrwt>
<pdfrwt beam="1">0</pdfrwt>
<pdfrwt beam="2">  1        2 0.39566570E+00 0.65972066E+03</pdfrwt>
<totfact> 0.41313271E+00</totfact>
</mgrwt>
</event>
<event>
 5    1  0.2357694E-004  0.6352481E+03  0.7818608E-02  0.9834861E-01
         13   -1    0    0    0    0  0.00000000000E+00  0.00000000000E+00  0.10000000000E+04  0.10000000000E+04  0.00000000000E+00 0. -1.
          2   -1    0    0  501    0 -0.00000000000E+00 -0.00000000000E+00 -0.10088504561E+03  0.10088504561E+03  0.00000000000E+00 0. -1.
    9000006    2    1    2  501    0  0.00000000000E+00  0.00000000000E+00  0.89911495439E+03  0.11008850456E+04  0.63524812667E+03 0.  0.
         13    1    3    3    0    0  0.24704891439E+03  0.11738092571E+03  0.72939056211E+03  0.77898783041E+03  0.00000000000E+00 0. -1.
          2    1    3    3  501    0 -0.24704891439E+03 -0.11738092571E+03  0.16972439228E+03  0.32189721520E+03  0.00000000000E+00 0. -1.
<mgrwt>
<rscale>  0 0.63524813E+03</rscale>
<asrwt>0</asrwt>
<pdfrwt beam="1">0</pdfrwt>
<pdfrwt beam="2">  1        2 0.36685548E+00 0.63524813E+03</pdfrwt>
<totfact> 0.52886516E+00</totfact>
</mgrwt>
</event>
<event>
 5    1  0.2357694E-004  0.5967094E+03  0.7818608E-02  0.9912257E-01
         13   -1    0    0    0    0  0.00000000000E+00  0.00000000000E+00  0.10000000000E+04  0.10000000000E+04  0.00000000000E+00 0. -1.
          2   -1    0    0  501    0 -0.00000000000E+00 -0.00000000000E+00 -0.89015534961E+02  0.89015534961E+02  0.00000000000E+00 0. -1.
    9000006    2    1    2  501    0  0.00000000000E+00  0.00000000000E+00  0.91098446504E+03  0.10890155350E+04  0.59670942664E+03 0.  0.
         13    1    3    3    0    0  0.44215757458E+02 -0.17886907942E+02  0.99299695939E+03  0.99414180882E+03  0.00000000000E+00 0. -1.
          2    1    3    3  501    0 -0.44215757458E+02  0.17886907942E+02 -0.82012494348E+02  0.94873726144E+02  0.00000000000E+00 0. -1.
<mgrwt>
<rscale>  0 0.59670943E+03</rscale>
<asrwt>0</asrwt>
<pdfrwt beam="1">0</pdfrwt>
<pdfrwt beam="2">  1        2 0.32369354E+00 0.59670943E+03</pdfrwt>
<totfact> 0.75913559E+00</totfact>
</mgrwt>
</event>
<event>
 5    1  0.2357694E-004  0.6443140E+03  0.7818608E-02  0.9817507E-01
         13   -1    0    0    0    0  0.00000000000E+00  0.00000000000E+00  0.10000000000E+04  0.10000000000E+04  0.00000000000E+00 0. -1.
          2   -1    0    0  501    0 -0.00000000000E+00 -0.00000000000E+00 -0.10378514289E+03  0.10378514289E+03  0.00000000000E+00 0. -1.
    9000006    2    1    2  501    0  0.00000000000E+00  0.00000000000E+00  0.89621485711E+03  0.11037851429E+04  0.64431403178E+03 0.  0.
         13    1    3    3    0    0  0.27308201872E+03  0.12236803774E+03  0.24369722930E+03  0.38592235641E+03  0.00000000000E+00 0. -1.
          4    1    3    3  501    0 -0.27308201872E+03 -0.12236803774E+03  0.65251762781E+03  0.71786278648E+03  0.00000000000E+00 0. -1.
<mgrwt>
<rscale>  0 0.64431403E+03</rscale>
<asrwt>0</asrwt>
<pdfrwt beam="1">0</pdfrwt>
<pdfrwt beam="2">  1        2 0.37740132E+00 0.64431403E+03</pdfrwt>
<totfact> 0.48345755E+00</totfact>
</mgrwt>
</event>
<event>
 5    1  0.2357694E-004  0.6531884E+03  0.7818608E-02  0.9800815E-01
         13   -1    0    0    0    0  0.00000000000E+00  0.00000000000E+00  0.10000000000E+04  0.10000000000E+04  0.00000000000E+00 0. -1.
          2   -1    0    0  501    0 -0.00000000000E+00 -0.00000000000E+00 -0.10666377382E+03  0.10666377382E+03  0.00000000000E+00 0. -1.
    9000006    2    1    2  501    0  0.00000000000E+00  0.00000000000E+00  0.89333622618E+03  0.11066637738E+04  0.65318840719E+03 0.  0.
         13    1    3    3    0    0  0.23178685252E+03 -0.10057661751E+03  0.79727111652E+03  0.83635042550E+03  0.00000000000E+00 0. -1.
          2    1    3    3  501    0 -0.23178685252E+03  0.10057661751E+03  0.96065109653E+02  0.27031334832E+03  0.00000000000E+00 0. -1.
<mgrwt>
<rscale>  0 0.65318841E+03</rscale>
<asrwt>0</asrwt>
<pdfrwt beam="1">0</pdfrwt>
<pdfrwt beam="2">  1        2 0.38786909E+00 0.65318841E+03</pdfrwt>
<totfact> 0.44193206E+00</totfact>
</mgrwt>
</event>
<event>
 5    1  0.2357694E-004  0.6423768E+03  0.7818608E-02  0.9821190E-01
         13   -1    0    0    0    0  0.00000000000E+00  0.00000000000E+00  0.10000000000E+04  0.10000000000E+04  0.00000000000E+00 0. -1.
          2   -1    0    0  501    0 -0.00000000000E+00 -0.00000000000E+00 -0.10316198457E+03  0.10316198457E+03  0.00000000000E+00 0. -1.
    9000006    2    1    2  501    0  0.00000000000E+00  0.00000000000E+00  0.89683801543E+03  0.11031619846E+04  0.64237678840E+03 0.  0.
         13    1    3    3    0    0 -0.13962546779E+03 -0.28826259197E+03  0.48946930365E+03  0.58495366688E+03  0.00000000000E+00 0. -1.
          2    1    3    3  501    0  0.13962546779E+03  0.28826259197E+03  0.40736871178E+03  0.51820831768E+03  0.00000000000E+00 0. -1.
<mgrwt>
<rscale>  0 0.64237679E+03</rscale>
<asrwt>0</asrwt>
<pdfrwt beam="1">0</pdfrwt>
<pdfrwt beam="2">  1        2 0.37513528E+00 0.64237679E+03</pdfrwt>
<totfact> 0.49290174E+00</totfact>
</mgrwt>
</event>
<event>
 5    1  0.2357694E-004  0.6535325E+03  0.7818608E-02  0.9800173E-01
         13   -1    0    0    0    0  0.00000000000E+00  0.00000000000E+00  0.10000000000E+04  0.10000000000E+04  0.00000000000E+00 0. -1.
          2   -1    0    0  501    0 -0.00000000000E+00 -0.00000000000E+00 -0.10677618723E+03  0.10677618723E+03  0.00000000000E+00 0. -1.
    9000006    2    1    2  501    0  0.00000000000E+00  0.00000000000E+00  0.89322381277E+03  0.11067761872E+04  0.65353251557E+03 0.  0.
         13    1    3    3    0    0 -0.16298951607E+03  0.18943515543E+03  0.90065043383E+02  0.26563691855E+03  0.00000000000E+00 0. -1.
          2    1    3    3  501    0  0.16298951607E+03 -0.18943515543E+03  0.80315876939E+03  0.84113926867E+03  0.00000000000E+00 0. -1.
<mgrwt>
<rscale>  0 0.65353252E+03</rscale>
<asrwt>0</asrwt>
<pdfrwt beam="1">0</pdfrwt>
<pdfrwt beam="2">  1        2 0.38827786E+00 0.65353252E+03</pdfrwt>
<totfact> 0.44037818E+00</totfact>
</mgrwt>
</event>
<event>
 5    1  0.2357694E-004  0.6500990E+03  0.7818608E-02  0.9806593E-01
         13   -1    0    0    0    0  0.00000000000E+00  0.00000000000E+00  0.10000000000E+04  0.10000000000E+04  0.00000000000E+00 0. -1.
          2   -1    0    0  501    0 -0.00000000000E+00 -0.00000000000E+00 -0.10565717438E+03  0.10565717438E+03  0.00000000000E+00 0. -1.
    9000006    2    1    2  501    0  0.00000000000E+00  0.00000000000E+00  0.89434282562E+03  0.11056571744E+04  0.65009899057E+03 0.  0.
         13    1    3    3    0    0 -0.16649257150E+03 -0.12551624311E+03  0.87128001266E+03  0.89588111047E+03  0.00000000000E+00 0. -1.
          4    1    3    3  501    0  0.16649257150E+03  0.12551624311E+03  0.23062812960E+02  0.20977606391E+03  0.00000000000E+00 0. -1.
<mgrwt>
<rscale>  0 0.65009899E+03</rscale>
<asrwt>0</asrwt>
<pdfrwt beam="1">0</pdfrwt>
<pdfrwt beam="2">  1        2 0.38420872E+00 0.65009899E+03</pdfrwt>
<totfact> 0.45606917E+00</totfact>
</mgrwt>
</event>
<event>
 5    1  0.2357694E-004  0.6497441E+03  0.7818608E-02  0.9807260E-01
         13   -1    0    0    0    0  0.00000000000E+00  0.00000000000E+00  0.10000000000E+04  0.10000000000E+04  0.00000000000E+00 0. -1.
          2   -1    0    0  501    0 -0.00000000000E+00 -0.00000000000E+00 -0.10554184357E+03  0.10554184357E+03  0.00000000000E+00 0. -1.
    9000006    2    1    2  501    0  0.00000000000E+00  0.00000000000E+00  0.89445815643E+03  0.11055418436E+04  0.64974408368E+03 0.  0.
         13    1    3    3    0    0 -0.28791229581E+03 -0.89569092431E+02  0.65300362053E+03  0.71925644997E+03  0.00000000000E+00 0. -1.
          2    1    3    3  501    0  0.28791229581E+03  0.89569092431E+02  0.24145453590E+03  0.38628539360E+03  0.00000000000E+00 0. -1.
<mgrwt>
<rscale>  0 0.64974408E+03</rscale>
<asrwt>0</asrwt>
<pdfrwt beam="1">0</pdfrwt>
<pdfrwt beam="2">  1        2 0.38378933E+00 0.64974408E+03</pdfrwt>
<totfact> 0.45771483E+00</totfact>
</mgrwt>
</event>
<event>
 5    1  0.2357694E-004  0.6470140E+03  0.7818608E-02  0.9812398E-01
         13   -1    0    0    0    0  0.00000000000E+00  0.00000000000E+00  0.10000000000E+04  0.10000000000E+04  0.00000000000E+00 0. -1.
          2   -1    0    0  501    0 -0.00000000000E+00 -0.00000000000E+00 -0.10465678475E+03  0.10465678475E+03  0.00000000000E+00 0. -1.
    9000006    2    1    2  501    0  0.00000000000E+00  0.00000000000E+00  0.89534321525E+03  0.11046567847E+04  0.64701401761E+03 0.  0.
         13    1    3    3    0    0 -0.62253134632E+02  0.11062738154E+03 -0.60359821986E+02  0.14056023061E+03  0.00000000000E+00 0. -1.
          2    1    3    3  501    0  0.62253134632E+02 -0.11062738154E+03  0.95570303724E+03  0.96409655414E+03  0.00000000000E+00 0. -1.
<mgrwt>
<rscale>  0 0.64701402E+03</rscale>
<asrwt>0</asrwt>
<pdfrwt beam="1">0</pdfrwt>
<pdfrwt beam="2">  1        2 0.38057093E+00 0.64701402E+03</pdfrwt>
<totfact> 0.47052434E+00</totfact>
</mgrwt>
</event>
<event>
 5    1  0.2357694E-004  0.6507884E+03  0.7818608E-02  0.9805301E-01
         13   -1    0    0    0    0  0.00000000000E+00  0.00000000000E+00  0.10000000000E+04  0.10000000000E+04  0.00000000000E+00 0. -1.
          2   -1    0    0  501    0 -0.00000000000E+00 -0.00000000000E+00 -0.10588139637E+03  0.10588139637E+03  0.00000000000E+00 0. -1.
    9000006    2    1    2  501    0  0.00000000000E+00  0.00000000000E+00  0.89411860363E+03  0.11058813964E+04  0.65078843374E+03 0.  0.
         13    1    3    3    0    0 -0.19965859164E+03 -0.29014444203E+02  0.88088232390E+03  0.90369190532E+03  0.00000000000E+00 0. -1.
          2    1    3    3  501    0  0.19965859164E+03  0.29014444203E+02  0.13236279727E+02  0.20218949105E+03  0.00000000000E+00 0. -1.
<mgrwt>
<rscale>  0 0.65078843E+03</rscale>
<asrwt>0</asrwt>
<pdfrwt beam="1">0</pdfrwt>
<pdfrwt beam="2">  1        2 0.38502407E+00 0.65078843E+03</pdfrwt>
<totfact> 0.45288509E+00</totfact>
</mgrwt>
</event>
<event>
 5    1  0.2357694E-004  0.6767631E+03  0.7818608E-02  0.9757817E-01
         13   -1    0    0    0    0  0.00000000000E+00  0.00000000000E+00  0.10000000000E+04  0.10000000000E+04  0.00000000000E+00 0. -1.
          2   -1    0    0  501    0 -0.00000000000E+00 -0.00000000000E+00 -0.11450206598E+03  0.11450206598E+03  0.00000000000E+00 0. -1.
    9000006    2    1    2  501    0  0.00000000000E+00  0.00000000000E+00  0.88549793402E+03  0.11145020660E+04  0.67676307812E+03 0.  0.
         13    1    3    3    0    0 -0.28397810732E+03  0.11325573834E+03  0.68157450936E+03  0.74700350703E+03  0.00000000000E+00 0. -1.
          2    1    3    3  501    0  0.28397810732E+03 -0.11325573834E+03  0.20392342466E+03  0.36749855895E+03  0.00000000000E+00 0. -1.
<mgrwt>
<rscale>  0 0.67676308E+03</rscale>
<asrwt>0</asrwt>
<pdfrwt beam="1">0</pdfrwt>
<pdfrwt beam="2">  1        2 0.41637203E+00 0.67676308E+03</pdfrwt>
<totfact> 0.34465186E+00</totfact>
</mgrwt>
</event>
<event>
 5    1  0.2357694E-004  0.6232222E+03  0.7818608E-02  0.9858365E-01
         13   -1    0    0    0    0  0.00000000000E+00  0.00000000000E+00  0.10000000000E+04  0.10000000000E+04  0.00000000000E+00 0. -1.
          2   -1    0    0  501    0 -0.00000000000E+00 -0.00000000000E+00 -0.97101489916E+02  0.97101489916E+02  0.00000000000E+00 0. -1.
    9000006    2    1    2  501    0  0.00000000000E+00  0.00000000000E+00  0.90289851008E+03  0.10971014899E+04  0.62322223939E+03 0.  0.
         13    1    3    3    0    0  0.46999453989E+02 -0.95725921991E+02  0.96687720704E+03  0.97274042494E+03  0.00000000000E+00 0. -1.
          2    1    3    3  501    0 -0.46999453989E+02  0.95725921991E+02 -0.63978696961E+02  0.12436106497E+03  0.00000000000E+00 0. -1.
<mgrwt>
<rscale>  0 0.62322224E+03</rscale>
<asrwt>0</asrwt>
<pdfrwt beam="1">0</pdfrwt>
<pdfrwt beam="2">  1        2 0.35309707E+00 0.62322224E+03</pdfrwt>
<totfact> 0.59400619E+00</totfact>
</mgrwt>
</event>
<event>
 5    1  0.2357694E-004  0.6503851E+03  0.7818608E-02  0.9806057E-01
         13   -1    0    0    0    0  0.00000000000E+00  0.00000000000E+00  0.10000000000E+04  0.10000000000E+04  0.00000000000E+00 0. -1.
          2   -1    0    0  501    0 -0.00000000000E+00 -0.00000000000E+00 -0.10575018522E+03  0.10575018522E+03  0.00000000000E+00 0. -1.
    9000006    2    1    2  501    0  0.00000000000E+00  0.00000000000E+00  0.89424981478E+03  0.11057501852E+04  0.65038507122E+03 0.  0.
         13    1    3    3    0    0  0.30020028162E+03 -0.64932653977E+02  0.62876017960E+03  0.69976840604E+03  0.00000000000E+00 0. -1.
          2    1    3    3  501    0 -0.30020028162E+03  0.64932653977E+02  0.26548963518E+03  0.40598177918E+03  0.00000000000E+00 0. -1.
<mgrwt>
<rscale>  0 0.65038507E+03</rscale>
<asrwt>0</asrwt>
<pdfrwt beam="1">0</pdfrwt>
<pdfrwt beam="2">  1        2 0.38454694E+00 0.65038507E+03</pdfrwt>
<totfact> 0.45474591E+00</totfact>
</mgrwt>
</event>
<event>
 5    1  0.2357694E-004  0.6484997E+03  0.7818608E-02  0.9809598E-01
         13   -1    0    0    0    0  0.00000000000E+00  0.00000000000E+00  0.10000000000E+04  0.10000000000E+04  0.00000000000E+00 0. -1.
          2   -1    0    0  501    0 -0.00000000000E+00 -0.00000000000E+00 -0.10513797302E+03  0.10513797302E+03  0.00000000000E+00 0. -1.
    9000006    2    1    2  501    0  0.00000000000E+00  0.00000000000E+00  0.89486202698E+03  0.11051379730E+04  0.64849972405E+03 0.  0.
         13    1    3    3    0    0 -0.21149245883E+03  0.24509173703E+03  0.41605652511E+03  0.52716416019E+03  0.00000000000E+00 0. -1.
          4    1    3    3  501    0  0.21149245883E+03 -0.24509173703E+03  0.47880550187E+03  0.57797381283E+03  0.00000000000E+00 0. -1.
<mgrwt>
<rscale>  0 0.64849972E+03</rscale>
<asrwt>0</asrwt>
<pdfrwt beam="1">0</pdfrwt>
<pdfrwt beam="2">  1        2 0.38232071E+00 0.64849972E+03</pdfrwt>
<totfact> 0.46352024E+00</totfact>
</mgrwt>
</event>
<event>
 5    1  0.2357694E-004  0.6644545E+03  0.7818608E-02  0.9780028E-01
         13   -1    0    0    0    0  0.00000000000E+00  0.00000000000E+00  0.10000000000E+04  0.10000000000E+04  0.00000000000E+00 0. -1.
          2   -1    0    0  501    0 -0.00000000000E+00 -0.00000000000E+00 -0.11037495938E+03  0.11037495938E+03  0.00000000000E+00 0. -1.
    9000006    2    1    2  501    0  0.00000000000E+00  0.00000000000E+00  0.88962504062E+03  0.11103749594E+04  0.66445454135E+03 0.  0.
         13    1    3    3    0    0 -0.23780681178E+03 -0.18990587164E+03  0.22211815341E+03  0.37676623242E+03  0.00000000000E+00 0. -1.
          4    1    3    3  501    0  0.23780681178E+03  0.18990587164E+03  0.66750688720E+03  0.73360872696E+03  0.00000000000E+00 0. -1.
<mgrwt>
<rscale>  0 0.66445454E+03</rscale>
<asrwt>0</asrwt>
<pdfrwt beam="1">0</pdfrwt>
<pdfrwt beam="2">  1        2 0.40136434E+00 0.66445454E+03</pdfrwt>
<totfact> 0.39316599E+00</totfact>
</mgrwt>
</event>
<event>
 5    1  0.2357694E-004  0.5782146E+03  0.7818608E-02  0.9951664E-01
         13   -1    0    0    0    0  0.00000000000E+00  0.00000000000E+00  0.10000000000E+04  0.10000000000E+04  0.00000000000E+00 0. -1.
          2   -1    0    0  501    0 -0.00000000000E+00 -0.00000000000E+00 -0.83583023417E+02  0.83583023417E+02  0.00000000000E+00 0. -1.
    9000006    2    1    2  501    0  0.00000000000E+00  0.00000000000E+00  0.91641697658E+03  0.10835830234E+04  0.57821457407E+03 0.  0.
         13    1    3    3    0    0  0.18092056692E+03 -0.20346360349E+03  0.27600123635E+03  0.38769365735E+03  0.00000000000E+00 0. -1.
          4    1    3    3  501    0 -0.18092056692E+03  0.20346360349E+03  0.64041574023E+03  0.69588936607E+03  0.00000000000E+00 0. -1.
<mgrwt>
<rscale>  0 0.57821457E+03</rscale>
<asrwt>0</asrwt>
<pdfrwt beam="1">0</pdfrwt>
<pdfrwt beam="2">  1        2 0.30393891E+00 0.57821457E+03</pdfrwt>
<totfact> 0.89378745E+00</totfact>
</mgrwt>
</event>
<event>
 5    1  0.2357694E-004  0.6515512E+03  0.7818608E-02  0.9803873E-01
         13   -1    0    0    0    0  0.00000000000E+00  0.00000000000E+00  0.10000000000E+04  0.10000000000E+04  0.00000000000E+00 0. -1.
          2   -1    0    0  501    0 -0.00000000000E+00 -0.00000000000E+00 -0.10612972886E+03  0.10612972886E+03  0.00000000000E+00 0. -1.
    9000006    2    1    2  501    0  0.00000000000E+00  0.00000000000E+00  0.89387027114E+03  0.11061297289E+04  0.65155116104E+03 0.  0.
         13    1    3    3    0    0 -0.29407735264E+03  0.13996689679E+03  0.45980930263E+03  0.56346855841E+03  0.00000000000E+00 0. -1.
          2    1    3    3  501    0  0.29407735264E+03 -0.13996689679E+03  0.43406096851E+03  0.54266117045E+03  0.00000000000E+00 0. -1.
<mgrwt>
<rscale>  0 0.65155116E+03</rscale>
<asrwt>0</asrwt>
<pdfrwt beam="1">0</pdfrwt>
<pdfrwt beam="2">  1        2 0.38592710E+00 0.65155116E+03</pdfrwt>
<totfact> 0.44938217E+00</totfact>
</mgrwt>
</event>
<event>
 5    1  0.2357694E-004  0.6543216E+03  0.7818608E-02  0.9798704E-01
         13   -1    0    0    0    0  0.00000000000E+00  0.00000000000E+00  0.10000000000E+04  0.10000000000E+04  0.00000000000E+00 0. -1.
          2   -1    0    0  501    0 -0.00000000000E+00 -0.00000000000E+00 -0.10703417713E+03  0.10703417713E+03  0.00000000000E+00 0. -1.
    9000006    2    1    2  501    0  0.00000000000E+00  0.00000000000E+00  0.89296582287E+03  0.11070341771E+04  0.65432156354E+03 0.  0.
         13    1    3    3    0    0 -0.32687819194E+03 -0.12553104337E+02  0.45531387055E+03  0.56064039589E+03  0.00000000000E+00 0. -1.
          4    1    3    3  501    0  0.32687819194E+03  0.12553104337E+02  0.43765195233E+03  0.54639378123E+03  0.00000000000E+00 0. -1.
<mgrwt>
<rscale>  0 0.65432156E+03</rscale>
<asrwt>0</asrwt>
<pdfrwt beam="1">0</pdfrwt>
<pdfrwt beam="2">  1        2 0.38921601E+00 0.65432156E+03</pdfrwt>
<totfact> 0.43683066E+00</totfact>
</mgrwt>
</event>
<event>
 5    1  0.2357694E-004  0.6474434E+03  0.7818608E-02  0.9811588E-01
         13   -1    0    0    0    0  0.00000000000E+00  0.00000000000E+00  0.10000000000E+04  0.10000000000E+04  0.00000000000E+00 0. -1.
          2   -1    0    0  501    0 -0.00000000000E+00 -0.00000000000E+00 -0.10479572957E+03  0.10479572957E+03  0.00000000000E+00 0. -1.
    9000006    2    1    2  501    0  0.00000000000E+00  0.00000000000E+00  0.89520427043E+03  0.11047957296E+04  0.64744337073E+03 0.  0.
         13    1    3    3    0    0  0.28921672284E+03 -0.14538301760E+03  0.45380061034E+03  0.55742042349E+03  0.00000000000E+00 0. -1.
          2    1    3    3  501    0 -0.28921672284E+03  0.14538301760E+03  0.44140366009E+03  0.54737530609E+03  0.00000000000E+00 0. -1.
<mgrwt>
<rscale>  0 0.64744337E+03</rscale>
<asrwt>0</asrwt>
<pdfrwt beam="1">0</pdfrwt>
<pdfrwt beam="2">  1        2 0.38107618E+00 0.64744337E+03</pdfrwt>
<totfact> 0.46849207E+00</totfact>
</mgrwt>
</event>
<event>
 5    1  0.2357694E-004  0.4792203E+03  0.7818608E-02  0.1019350E+00
         13   -1    0    0    0    0  0.00000000000E+00  0.00000000000E+00  0.10000000000E+04  0.10000000000E+04  0.00000000000E+00 0. -1.
          2   -1    0    0  501    0 -0.00000000000E+00 -0.00000000000E+00 -0.57413013272E+02  0.57413013272E+02  0.00000000000E+00 0. -1.
    9000006    2    1    2  501    0  0.00000000000E+00  0.00000000000E+00  0.94258698673E+03  0.10574130133E+04  0.47922025530E+03 0.  0.
         13    1    3    3    0    0  0.90017834744E+02  0.90934836908E+02  0.24284106638E+02  0.13023852337E+03  0.00000000000E+00 0. -1.
          2    1    3    3  501    0 -0.90017834744E+02 -0.90934836908E+02  0.91830288009E+03  0.92717448990E+03  0.00000000000E+00 0. -1.
<mgrwt>
<rscale>  0 0.47922026E+03</rscale>
<asrwt>0</asrwt>
<pdfrwt beam="1">0</pdfrwt>
<pdfrwt beam="2">  1        2 0.20877503E+00 0.47922026E+03</pdfrwt>
<totfact> 0.19701361E+01</totfact>
</mgrwt>
</event>
<event>
 5    1  0.2357694E-004  0.6428586E+03  0.7818608E-02  0.9820273E-01
         13   -1    0    0    0    0  0.00000000000E+00  0.00000000000E+00  0.10000000000E+04  0.10000000000E+04  0.00000000000E+00 0. -1.
          2   -1    0    0  501    0 -0.00000000000E+00 -0.00000000000E+00 -0.10331679001E+03  0.10331679001E+03  0.00000000000E+00 0. -1.
    9000006    2    1    2  501    0  0.00000000000E+00  0.00000000000E+00  0.89668320999E+03  0.11033167900E+04  0.64285858481E+03 0.  0.
         13    1    3    3    0    0 -0.10325633394E+03  0.30433482818E+03  0.43815445648E+03  0.54337913640E+03  0.00000000000E+00 0. -1.
          2    1    3    3  501    0  0.10325633394E+03 -0.30433482818E+03  0.45852875350E+03  0.55993765361E+03  0.00000000000E+00 0. -1.
<mgrwt>
<rscale>  0 0.64285858E+03</rscale>
<asrwt>0</asrwt>
<pdfrwt beam="1">0</pdfrwt>
<pdfrwt beam="2">  1        2 0.37569821E+00 0.64285858E+03</pdfrwt>
<totfact> 0.49053992E+00</totfact>
</mgrwt>
</event>
<event>
 5    1  0.2357694E-004  0.6534695E+03  0.7818608E-02  0.9800291E-01
         13   -1    0    0    0    0  0.00000000000E+00  0.00000000000E+00  0.10000000000E+04  0.10000000000E+04  0.00000000000E+00 0. -1.
          2   -1    0    0  501    0 -0.00000000000E+00 -0.00000000000E+00 -0.10675560419E+03  0.10675560419E+03  0.00000000000E+00 0. -1.
    9000006    2    1    2  501    0  0.00000000000E+00  0.00000000000E+00  0.89324439581E+03  0.11067556042E+04  0.65346952243E+03 0.  0.
         13    1    3    3    0    0 -0.25479723022E+02  0.12316853106E+03 -0.64110989794E+02  0.14117337689E+03  0.00000000000E+00 0. -1.
          2    1    3    3  501    0  0.25479723022E+02 -0.12316853106E+03  0.95735538561E+03  0.96558222730E+03  0.00000000000E+00 0. -1.
<mgrwt>
<rscale>  0 0.65346952E+03</rscale>
<asrwt>0</asrwt>
<pdfrwt beam="1">0</pdfrwt>
<pdfrwt beam="2">  1        2 0.38820302E+00 0.65346952E+03</pdfrwt>
<totfact> 0.44066232E+00</totfact>
</mgrwt>
</event>
<event>
 5    1  0.2357694E-004  0.6567015E+03  0.7818608E-02  0.9794285E-01
         13   -1    0    0    0    0  0.00000000000E+00  0.00000000000E+00  0.10000000000E+04  0.10000000000E+04  0.00000000000E+00 0. -1.
          2   -1    0    0  501    0 -0.00000000000E+00 -0.00000000000E+00 -0.10781420668E+03  0.10781420668E+03  0.00000000000E+00 0. -1.
    9000006    2    1    2  501    0  0.00000000000E+00  0.00000000000E+00  0.89218579332E+03  0.11078142067E+04  0.65670147459E+03 0.  0.
         13    1    3    3    0    0 -0.13690230410E+03  0.12793365077E+03  0.90095621921E+03  0.92023440970E+03  0.00000000000E+00 0. -1.
          4    1    3    3  501    0  0.13690230410E+03 -0.12793365077E+03 -0.87704258898E+01  0.18757979698E+03  0.00000000000E+00 0. -1.
<mgrwt>
<rscale>  0 0.65670147E+03</rscale>
<asrwt>0</asrwt>
<pdfrwt beam="1">0</pdfrwt>
<pdfrwt beam="2">  1        2 0.39205249E+00 0.65670147E+03</pdfrwt>
<totfact> 0.42626134E+00</totfact>
</mgrwt>
</event>
<event>
 5    1  0.2357694E-004  0.6459741E+03  0.7818608E-02  0.9814363E-01
         13   -1    0    0    0    0  0.00000000000E+00  0.00000000000E+00  0.10000000000E+04  0.10000000000E+04  0.00000000000E+00 0. -1.
          2   -1    0    0  501    0 -0.00000000000E+00 -0.00000000000E+00 -0.10432063189E+03  0.10432063189E+03  0.00000000000E+00 0. -1.
    9000006    2    1    2  501    0  0.00000000000E+00  0.00000000000E+00  0.89567936811E+03  0.11043206319E+04  0.64597409202E+03 0.  0.
         13    1    3    3    0    0  0.29326987949E+03 -0.39902785812E+02  0.22677798042E+03  0.37286419369E+03  0.00000000000E+00 0. -1.
          4    1    3    3  501    0 -0.29326987949E+03  0.39902785812E+02  0.66890138769E+03  0.73145643820E+03  0.00000000000E+00 0. -1.
<mgrwt>
<rscale>  0 0.64597409E+03</rscale>
<asrwt>0</asrwt>
<pdfrwt beam="1">0</pdfrwt>
<pdfrwt beam="2">  1        2 0.37934855E+00 0.64597409E+03</pdfrwt>
<totfact> 0.47547430E+00</totfact>
</mgrwt>
</event>
<event>
 5    1  0.2357694E-004  0.6727359E+03  0.7818608E-02  0.9765028E-01
         13   -1    0    0    0    0  0.00000000000E+00  0.00000000000E+00  0.10000000000E+04  0.10000000000E+04  0.00000000000E+00 0. -1.
          2   -1    0    0  501    0 -0.00000000000E+00 -0.00000000000E+00 -0.11314339423E+03  0.11314339423E+03  0.00000000000E+00 0. -1.
    9000006    2    1    2  501    0  0.00000000000E+00  0.00000000000E+00  0.88685660577E+03  0.11131433942E+04  0.67273588943E+03 0.  0.
         13    1    3    3    0    0 -0.51546759166E+02 -0.16178520886E+03 -0.37024667080E+02  0.17378822791E+03  0.00000000000E+00 0. -1.
          2    1    3    3  501    0  0.51546759166E+02  0.16178520886E+03  0.92388127285E+03  0.93935516633E+03  0.00000000000E+00 0. -1.
<mgrwt>
<rscale>  0 0.67273589E+03</rscale>
<asrwt>0</asrwt>
<pdfrwt beam="1">0</pdfrwt>
<pdfrwt beam="2">  1        2 0.41143139E+00 0.67273589E+03</pdfrwt>
<totfact> 0.35999652E+00</totfact>
</mgrwt>
</event>
<event>
 5    1  0.2357694E-004  0.6519170E+03  0.7818608E-02  0.9803189E-01
         13   -1    0    0    0    0  0.00000000000E+00  0.00000000000E+00  0.10000000000E+04  0.10000000000E+04  0.00000000000E+00 0. -1.
          2   -1    0    0  501    0 -0.00000000000E+00 -0.00000000000E+00 -0.10624894691E+03  0.10624894691E+03  0.00000000000E+00 0. -1.
    9000006    2    1    2  501    0  0.00000000000E+00  0.00000000000E+00  0.89375105309E+03  0.11062489469E+04  0.65191700978E+03 0.  0.
         13    1    3    3    0    0 -0.56599201853E+02 -0.13779313447E+02 -0.97344532249E+02  0.11344292436E+03  0.00000000000E+00 0. -1.
          4    1    3    3  501    0  0.56599201853E+02  0.13779313447E+02  0.99109558534E+03  0.99280602255E+03  0.00000000000E+00 0. -1.
<mgrwt>
<rscale>  0 0.65191701E+03</rscale>
<asrwt>0</asrwt>
<pdfrwt beam="1">0</pdfrwt>
<pdfrwt beam="2">  1        2 0.38636062E+00 0.65191701E+03</pdfrwt>
<totfact> 0.44770925E+00</totfact>
</mgrwt>
</event>
<event>
 5    1  0.2357694E-004  0.6415062E+03  0.7818608E-02  0.9822849E-01
         13   -1    0    0    0    0  0.00000000000E+00  0.00000000000E+00  0.10000000000E+04  0.10000000000E+04  0.00000000000E+00 0. -1.
          2   -1    0    0  501    0 -0.00000000000E+00 -0.00000000000E+00 -0.10288254333E+03  0.10288254333E+03  0.00000000000E+00 0. -1.
    9000006    2    1    2  501    0  0.00000000000E+00  0.00000000000E+00  0.89711745667E+03  0.11028825433E+04  0.64150617559E+03 0.  0.
         13    1    3    3    0    0  0.53513874126E+02 -0.86857795840E+02 -0.74245982163E+02  0.12617637374E+03  0.00000000000E+00 0. -1.
          4    1    3    3  501    0 -0.53513874126E+02  0.86857795840E+02  0.97136343883E+03  0.97670616959E+03  0.00000000000E+00 0. -1.
<mgrwt>
<rscale>  0 0.64150618E+03</rscale>
<asrwt>0</asrwt>
<pdfrwt beam="1">0</pdfrwt>
<pdfrwt beam="2">  1        2 0.37411913E+00 0.64150618E+03</pdfrwt>
<totfact> 0.49719155E+00</totfact>
</mgrwt>
</event>
<event>
 5    1  0.2357694E-004  0.6772181E+03  0.7818608E-02  0.9757005E-01
         13   -1    0    0    0    0  0.00000000000E+00  0.00000000000E+00  0.10000000000E+04  0.10000000000E+04  0.00000000000E+00 0. -1.
          2   -1    0    0  501    0 -0.00000000000E+00 -0.00000000000E+00 -0.11465609137E+03  0.11465609137E+03  0.00000000000E+00 0. -1.
    9000006    2    1    2  501    0  0.00000000000E+00  0.00000000000E+00  0.88534390863E+03  0.11146560914E+04  0.67721810777E+03 0.  0.
         13    1    3    3    0    0 -0.63585036275E+02 -0.26043712441E+03  0.10221607821E+03  0.28691231980E+03  0.00000000000E+00 0. -1.
          2    1    3    3  501    0  0.63585036275E+02  0.26043712441E+03  0.78312783041E+03  0.82774377157E+03  0.00000000000E+00 0. -1.
<mgrwt>
<rscale>  0 0.67721811E+03</rscale>
<asrwt>0</asrwt>
<pdfrwt beam="1">0</pdfrwt>
<pdfrwt beam="2">  1        2 0.41693212E+00 0.67721811E+03</pdfrwt>
<totfact> 0.34294962E+00</totfact>
</mgrwt>
</event>
<event>
 5    1  0.2357694E-004  0.6459192E+03  0.7818608E-02  0.9814467E-01
         13   -1    0    0    0    0  0.00000000000E+00  0.00000000000E+00  0.10000000000E+04  0.10000000000E+04  0.00000000000E+00 0. -1.
          2   -1    0    0  501    0 -0.00000000000E+00 -0.00000000000E+00 -0.10430291335E+03  0.10430291335E+03  0.00000000000E+00 0. -1.
    9000006    2    1    2  501    0  0.00000000000E+00  0.00000000000E+00  0.89569708665E+03  0.11043029134E+04  0.64591923133E+03 0.  0.
         13    1    3    3    0    0  0.39921812097E+02 -0.30224671568E+02  0.99332319436E+03  0.99458446112E+03  0.00000000000E+00 0. -1.
          2    1    3    3  501    0 -0.39921812097E+02  0.30224671568E+02 -0.97626107711E+02  0.10971845223E+03  0.00000000000E+00 0. -1.
<mgrwt>
<rscale>  0 0.64591923E+03</rscale>
<asrwt>0</asrwt>
<pdfrwt beam="1">0</pdfrwt>
<pdfrwt beam="2">  1        2 0.37928412E+00 0.64591923E+03</pdfrwt>
<totfact> 0.47573652E+00</totfact>
</mgrwt>
</event>
<event>
 5    1  0.2357694E-004  0.6408544E+03  0.7818608E-02  0.9824093E-01
         13   -1    0    0    0    0  0.00000000000E+00  0.00000000000E+00  0.10000000000E+04  0.10000000000E+04  0.00000000000E+00 0. -1.
          2   -1    0    0  501    0 -0.00000000000E+00 -0.00000000000E+00 -0.10267359959E+03  0.10267359959E+03  0.00000000000E+00 0. -1.
    9000006    2    1    2  501    0  0.00000000000E+00  0.00000000000E+00  0.89732640041E+03  0.11026735996E+04  0.64085442835E+03 0.  0.
         13    1    3    3    0    0  0.11519910233E+03  0.16814582038E+03  0.87407927399E+03  0.89752906766E+03  0.00000000000E+00 0. -1.
          2    1    3    3  501    0 -0.11519910233E+03 -0.16814582038E+03  0.23247126428E+02  0.20514453192E+03  0.00000000000E+00 0. -1.
<mgrwt>
<rscale>  0 0.64085443E+03</rscale>
<asrwt>0</asrwt>
<pdfrwt beam="1">0</pdfrwt>
<pdfrwt beam="2">  1        2 0.37335933E+00 0.64085443E+03</pdfrwt>
<totfact> 0.50042138E+00</totfact>
</mgrwt>
</event>
<event>
 5    1  0.2357694E-004  0.6594007E+03  0.7818608E-02  0.9789298E-01
         13   -1    0    0    0    0  0.00000000000E+00  0.00000000000E+00  0.10000000000E+04  0.10000000000E+04  0.00000000000E+00 0. -1.
          2   -1    0    0  501    0 -0.00000000000E+00 -0.00000000000E+00 -0.10870233651E+03  0.10870233651E+03  0.00000000000E+00 0. -1.
    9000006    2    1    2  501    0  0.00000000000E+00  0.00000000000E+00  0.89129766349E+03  0.11087023365E+04  0.65940074768E+03 0.  0.
         13    1    3    3    0    0  0.69875295865E+02  0.16025474265E+03 -0.24350478363E+02  0.17651369723E+03  0.00000000000E+00 0. -1.
          4    1    3    3  501    0 -0.69875295865E+02 -0.16025474265E+03  0.91564814185E+03  0.93218863928E+03  0.00000000000E+00 0. -1.
<mgrwt>
<rscale>  0 0.65940075E+03</rscale>
<asrwt>0</asrwt>
<pdfrwt beam="1">0</pdfrwt>
<pdfrwt beam="2">  1        2 0.39528206E+00 0.65940075E+03</pdfrwt>
<totfact> 0.41450911E+00</totfact>
</mgrwt>
</event>
<event>
 5    1  0.2357694E-004  0.6444506E+03  0.7818608E-02  0.9817248E-01
         13   -1    0    0    0    0  0.00000000000E+00  0.00000000000E+00  0.10000000000E+04  0.10000000000E+04  0.00000000000E+00 0. -1.
          2   -1    0    0  501    0 -0.00000000000E+00 -0.00000000000E+00 -0.10382914997E+03  0.10382914997E+03  0.00000000000E+00 0. -1.
    9000006    2    1    2  501    0  0.00000000000E+00  0.00000000000E+00  0.89617085003E+03  0.11038291500E+04  0.64445061865E+03 0.  0.
         13    1    3    3    0    0  0.20941403496E+03  0.11722418631E+03  0.79795244369E+02  0.25290913174E+03  0.00000000000E+00 0. -1.
          4    1    3    3  501    0 -0.20941403496E+03 -0.11722418631E+03  0.81637560566E+03  0.85092001822E+03  0.00000000000E+00 0. -1.
<mgrwt>
<rscale>  0 0.64445062E+03</rscale>
<asrwt>0</asrwt>
<pdfrwt beam="1">0</pdfrwt>
<pdfrwt beam="2">  1        2 0.37756134E+00 0.64445062E+03</pdfrwt>
<totfact> 0.48279690E+00</totfact>
</mgrwt>
</event>
<event>
 5    1  0.2357694E-004  0.5969512E+03  0.7818608E-02  0.9911752E-01
         13   -1    0    0    0    0  0.00000000000E+00  0.00000000000E+00  0.10000000000E+04  0.10000000000E+04  0.00000000000E+00 0. -1.
          2   -1    0    0  501    0 -0.00000000000E+00 -0.00000000000E+00 -0.89087672243E+02  0.89087672243E+02  0.00000000000E+00 0. -1.
    9000006    2    1    2  501    0  0.00000000000E+00  0.00000000000E+00  0.91091232776E+03  0.10890876722E+04  0.59695116129E+03 0.  0.
         13    1    3    3    0    0  0.22610839413E+03  0.15612638115E+03  0.24279443721E+03  0.36667368535E+03  0.00000000000E+00 0. -1.
          2    1    3    3  501    0 -0.22610839413E+03 -0.15612638115E+03  0.66811789055E+03  0.72241398689E+03  0.00000000000E+00 0. -1.
<mgrwt>
<rscale>  0 0.59695116E+03</rscale>
<asrwt>0</asrwt>
<pdfrwt beam="1">0</pdfrwt>
<pdfrwt beam="2">  1        2 0.32395585E+00 0.59695116E+03</pdfrwt>
<totfact> 0.75748708E+00</totfact>
</mgrwt>
</event>
<event>
 5    1  0.2357694E-004  0.6447924E+03  0.7818608E-02  0.9816600E-01
         13   -1    0    0    0    0  0.00000000000E+00  0.00000000000E+00  0.10000000000E+04  0.10000000000E+04  0.00000000000E+00 0. -1.
          2   -1    0    0  501    0 -0.00000000000E+00 -0.00000000000E+00 -0.10393930546E+03  0.10393930546E+03  0.00000000000E+00 0. -1.
    9000006    2    1    2  501    0  0.00000000000E+00  0.00000000000E+00  0.89606069454E+03  0.11039393055E+04  0.64479238663E+03 0.  0.
         13    1    3    3    0    0 -0.45819042621E+02  0.65641296545E+02 -0.86653356931E+02  0.11797020279E+03  0.00000000000E+00 0. -1.
          2    1    3    3  501    0  0.45819042621E+02 -0.65641296545E+02  0.98271405147E+03  0.98596910267E+03  0.00000000000E+00 0. -1.
<mgrwt>
<rscale>  0 0.64479239E+03</rscale>
<asrwt>0</asrwt>
<pdfrwt beam="1">0</pdfrwt>
<pdfrwt beam="2">  1        2 0.37796191E+00 0.64479239E+03</pdfrwt>
<totfact> 0.48114682E+00</totfact>
</mgrwt>
</event>
<event>
 5    1  0.2357694E-004  0.6658583E+03  0.7818608E-02  0.9777469E-01
         13   -1    0    0    0    0  0.00000000000E+00  0.00000000000E+00  0.10000000000E+04  0.10000000000E+04  0.00000000000E+00 0. -1.
          2   -1    0    0  501    0 -0.00000000000E+00 -0.00000000000E+00 -0.11084181614E+03  0.11084181614E+03  0.00000000000E+00 0. -1.
    9000006    2    1    2  501    0  0.00000000000E+00  0.00000000000E+00  0.88915818386E+03  0.11108418161E+04  0.66585829165E+03 0.  0.
         13    1    3    3    0    0  0.17383144011E+03 -0.26042716324E+02  0.91628290213E+03  0.93298979061E+03  0.00000000000E+00 0. -1.
          4    1    3    3  501    0 -0.17383144011E+03  0.26042716324E+02 -0.27124718270E+02  0.17785202553E+03  0.00000000000E+00 0. -1.
<mgrwt>
<rscale>  0 0.66585829E+03</rscale>
<asrwt>0</asrwt>
<pdfrwt beam="1">0</pdfrwt>
<pdfrwt beam="2">  1        2 0.40306200E+00 0.66585829E+03</pdfrwt>
<totfact> 0.38738765E+00</totfact>
</mgrwt>
</event>
<event>
 5    1  0.2357694E-004  0.6491528E+03  0.7818608E-02  0.9808370E-01
         13   -1    0    0    0    0  0.00000000000E+00  0.00000000000E+00  0.10000000000E+04  0.10000000000E+04  0.00000000000E+00 0. -1.
          2   -1    0    0  501    0 -0.00000000000E+00 -0.00000000000E+00 -0.10534983388E+03  0.10534983388E+03  0.00000000000E+00 0. -1.
    9000006    2    1    2  501    0  0.00000000000E+00  0.00000000000E+00  0.89465016612E+03  0.11053498339E+04  0.64915278289E+03 0.  0.
         13    1    3    3    0    0 -0.17309558790E+03  0.22968725988E+03  0.70348409007E+03  0.76000538477E+03  0.00000000000E+00 0. -1.
          2    1    3    3  501    0  0.17309558790E+03 -0.22968725988E+03  0.19116607605E+03  0.34534444911E+03  0.00000000000E+00 0. -1.
<mgrwt>
<rscale>  0 0.64915278E+03</rscale>
<asrwt>0</asrwt>
<pdfrwt beam="1">0</pdfrwt>
<pdfrwt beam="2">  1        2 0.38309111E+00 0.64915278E+03</pdfrwt>
<totfact> 0.46046657E+00</totfact>
</mgrwt>
</event>
<event>
 5    1  0.2357694E-004  0.6625940E+03  0.7818608E-02  0.9783430E-01
         13   -1    0    0    0    0  0.00000000000E+00  0.00000000000E+00  0.10000000000E+04  0.10000000000E+04  0.00000000000E+00 0. -1.
          2   -1    0    0  501    0 -0.00000000000E+00 -0.00000000000E+00 -0.10975771770E+03  0.10975771770E+03  0.00000000000E+00 0. -1.
    9000006    2    1    2  501    0  0.00000000000E+00  0.00000000000E+00  0.89024228230E+03  0.11097577177E+04  0.66259404675E+03 0.  0.
         13    1    3    3    0    0  0.86312949312E+02  0.13370073750E+03 -0.41548145640E+02  0.16447510703E+03  0.00000000000E+00 0. -1.
          4    1    3    3  501    0 -0.86312949312E+02 -0.13370073750E+03  0.93179042794E+03  0.94528261067E+03  0.00000000000E+00 0. -1.
<mgrwt>
<rscale>  0 0.66259405E+03</rscale>
<asrwt>0</asrwt>
<pdfrwt beam="1">0</pdfrwt>
<pdfrwt beam="2">  1        2 0.39911982E+00 0.66259405E+03</pdfrwt>
<totfact> 0.40092433E+00</totfact>
</mgrwt>
</event>
<event>
 5    1  0.2357694E-004  0.6517451E+03  0.7818608E-02  0.9803510E-01
         13   -1    0    0    0    0  0.00000000000E+00  0.00000000000E+00  0.10000000000E+04  0.10000000000E+04  0.00000000000E+00 0. -1.
          2   -1    0    0  501    0 -0.00000000000E+00 -0.00000000000E+00 -0.10619293362E+03  0.10619293362E+03  0.00000000000E+00 0. -1.
    9000006    2    1    2  501    0  0.00000000000E+00  0.00000000000E+00  0.89380706638E+03  0.11061929336E+04  0.65174514536E+03 0.  0.
         13    1    3    3    0    0  0.26033952386E+03 -0.12619414441E+03  0.70144608370E+03  0.75876757844E+03  0.00000000000E+00 0. -1.
          2    1    3    3  501    0 -0.26033952386E+03  0.12619414441E+03  0.19236098268E+03  0.34742535518E+03  0.00000000000E+00 0. -1.
<mgrwt>
<rscale>  0 0.65174515E+03</rscale>
<asrwt>0</asrwt>
<pdfrwt beam="1">0</pdfrwt>
<pdfrwt beam="2">  1        2 0.38615694E+00 0.65174515E+03</pdfrwt>
<totfact> 0.44849455E+00</totfact>
</mgrwt>
</event>
<event>
 5    1  0.2357694E-004  0.6521927E+03  0.7818608E-02  0.9802673E-01
         13   -1    0    0    0    0  0.00000000000E+00  0.00000000000E+00  0.10000000000E+04  0.10000000000E+04  0.00000000000E+00 0. -1.
          2   -1    0    0  501    0 -0.00000000000E+00 -0.00000000000E+00 -0.10633884073E+03  0.10633884073E+03  0.00000000000E+00 0. -1.
    9000006    2    1    2  501    0  0.00000000000E+00  0.00000000000E+00  0.89366115927E+03  0.11063388407E+04  0.65219273450E+03 0.  0.
         13    1    3    3    0    0 -0.19263175119E+02 -0.80862804396E+02  0.98172576680E+03  0.98523872450E+03  0.00000000000E+00 0. -1.
          4    1    3    3  501    0  0.19263175119E+02  0.80862804396E+02 -0.88064607538E+02  0.12110011623E+03  0.00000000000E+00 0. -1.
<mgrwt>
<rscale>  0 0.65219273E+03</rscale>
<asrwt>0</asrwt>
<pdfrwt beam="1">0</pdfrwt>
<pdfrwt beam="2">  1        2 0.38668751E+00 0.65219273E+03</pdfrwt>
<totfact> 0.44645155E+00</totfact>
</mgrwt>
</event>
<event>
 5    1  0.2357694E-004  0.6427938E+03  0.7818608E-02  0.9820396E-01
         13   -1    0    0    0    0  0.00000000000E+00  0.00000000000E+00  0.10000000000E+04  0.10000000000E+04  0.00000000000E+00 0. -1.
          2   -1    0    0  501    0 -0.00000000000E+00 -0.00000000000E+00 -0.10329598212E+03  0.10329598212E+03  0.00000000000E+00 0. -1.
    9000006    2    1    2  501    0  0.00000000000E+00  0.00000000000E+00  0.89670401788E+03  0.11032959821E+04  0.64279384603E+03 0.  0.
         13    1    3    3    0    0 -0.13016023182E+03 -0.19161792742E+03  0.83075607648E+03  0.86244696919E+03  0.00000000000E+00 0. -1.
          2    1    3    3  501    0  0.13016023182E+03  0.19161792742E+03  0.65947941395E+02  0.24084901293E+03  0.00000000000E+00 0. -1.
<mgrwt>
<rscale>  0 0.64279385E+03</rscale>
<asrwt>0</asrwt>
<pdfrwt beam="1">0</pdfrwt>
<pdfrwt beam="2">  1        2 0.37562255E+00 0.64279385E+03</pdfrwt>
<totfact> 0.49085676E+00</totfact>
</mgrwt>
</event>
<event>
 5    1  0.2357694E-004  0.6438329E+03  0.7818608E-02  0.9818421E-01
         13   -1    0    0    0    0  0.00000000000E+00  0.00000000000E+00  0.10000000000E+04  0.10000000000E+04  0.00000000000E+00 0. -1.
          2   -1    0    0  501    0 -0.00000000000E+00 -0.00000000000E+00 -0.10363020538E+03  0.10363020538E+03  0.00000000000E+00 0. -1.
    9000006    2    1    2  501    0  0.00000000000E+00  0.00000000000E+00  0.89636979462E+03  0.11036302054E+04  0.64383291427E+03 0.  0.
         13    1    3    3    0    0 -0.79287087538E+02 -0.74102623018E+02  0.96769745041E+03  0.97376382994E+03  0.00000000000E+00 0. -1.
          4    1    3    3  501    0  0.79287087538E+02  0.74102623018E+02 -0.71327655780E+02  0.12986637543E+03  0.00000000000E+00 0. -1.
<mgrwt>
<rscale>  0 0.64383291E+03</rscale>
<asrwt>0</asrwt>
<pdfrwt beam="1">0</pdfrwt>
<pdfrwt beam="2">  1        2 0.37683791E+00 0.64383291E+03</pdfrwt>
<totfact> 0.48579010E+00</totfact>
</mgrwt>
</event>
<event>
 5    1  0.2357694E-004  0.6480178E+03  0.7818608E-02  0.9810506E-01
         13   -1    0    0    0    0  0.00000000000E+00  0.00000000000E+00  0.10000000000E+04  0.10000000000E+04  0.00000000000E+00 0. -1.
          2   -1    0    0  501    0 -0.00000000000E+00 -0.00000000000E+00 -0.10498176065E+03  0.10498176065E+03  0.00000000000E+00 0. -1.
    9000006    2    1    2  501    0  0.00000000000E+00  0.00000000000E+00  0.89501823935E+03  0.11049817606E+04  0.64801777953E+03 0.  0.
         13    1    3    3    0    0 -0.59197113466E+02  0.53648102568E+02  0.98294219994E+03  0.98618344418E+03  0.00000000000E+00 0. -1.
          4    1    3    3  501    0  0.59197113466E+02 -0.53648102568E+02 -0.87923960584E+02  0.11879831647E+03  0.00000000000E+00 0. -1.
<mgrwt>
<rscale>  0 0.64801778E+03</rscale>
<asrwt>0</asrwt>
<pdfrwt beam="1">0</pdfrwt>
<pdfrwt beam="2">  1        2 0.38175266E+00 0.64801778E+03</pdfrwt>
<totfact> 0.46578358E+00</totfact>
</mgrwt>
</event>
<event>
 5    1  0.2357694E-004  0.6450927E+03  0.7818608E-02  0.9816031E-01
         13   -1    0    0    0    0  0.00000000000E+00  0.00000000000E+00  0.10000000000E+04  0.10000000000E+04  0.00000000000E+00 0. -1.
          2   -1    0    0  501    0 -0.00000000000E+00 -0.00000000000E+00 -0.10403614271E+03  0.10403614271E+03  0.00000000000E+00 0. -1.
    9000006    2    1    2  501    0  0.00000000000E+00  0.00000000000E+00  0.89596385729E+03  0.11040361427E+04  0.64509268393E+03 0.  0.
         13    1    3    3    0    0 -0.30891024476E+03  0.88747909639E+02  0.40160189744E+03  0.51437905752E+03  0.00000000000E+00 0. -1.
          2    1    3    3  501    0  0.30891024476E+03 -0.88747909639E+02  0.49436195984E+03  0.58965708520E+03  0.00000000000E+00 0. -1.
<mgrwt>
<rscale>  0 0.64509268E+03</rscale>
<asrwt>0</asrwt>
<pdfrwt beam="1">0</pdfrwt>
<pdfrwt beam="2">  1        2 0.37831404E+00 0.64509268E+03</pdfrwt>
<totfact> 0.47970048E+00</totfact>
</mgrwt>
</event>
<event>
 5    1  0.2357694E-004  0.6355134E+03  0.7818608E-02  0.9834348E-01
         13   -1    0    0    0    0  0.00000000000E+00  0.00000000000E+00  0.10000000000E+04  0.10000000000E+04  0.00000000000E+00 0. -1.
          2   -1    0    0  501    0 -0.00000000000E+00 -0.00000000000E+00 -0.10096932980E+03  0.10096932980E+03  0.00000000000E+00 0. -1.
    9000006    2    1    2  501    0  0.00000000000E+00  0.00000000000E+00  0.89903067020E+03  0.11009693298E+04  0.63551342961E+03 0.  0.
         13    1    3    3    0    0 -0.23147423700E+03  0.60767239944E+02  0.87378193889E+02  0.25477034485E+03  0.00000000000E+00 0. -1.
          4    1    3    3  501    0  0.23147423700E+03 -0.60767239944E+02  0.81165247631E+03  0.84619898496E+03  0.00000000000E+00 0. -1.
<mgrwt>
<rscale>  0 0.63551343E+03</rscale>
<asrwt>0</asrwt>
<pdfrwt beam="1">0</pdfrwt>
<pdfrwt beam="2">  1        2 0.36716197E+00 0.63551343E+03</pdfrwt>
<totfact> 0.52749216E+00</totfact>
</mgrwt>
</event>
<event>
 5    1  0.2357694E-004  0.5753224E+03  0.7818608E-02  0.9957970E-01
         13   -1    0    0    0    0  0.00000000000E+00  0.00000000000E+00  0.10000000000E+04  0.10000000000E+04  0.00000000000E+00 0. -1.
          2   -1    0    0  501    0 -0.00000000000E+00 -0.00000000000E+00 -0.82748968561E+02  0.82748968561E+02  0.00000000000E+00 0. -1.
    9000006    2    1    2  501    0  0.00000000000E+00  0.00000000000E+00  0.91725103144E+03  0.10827489686E+04  0.57532240895E+03 0.  0.
         13    1    3    3    0    0 -0.92344119760E+02 -0.19871212679E+03  0.10787341367E+03  0.24423476240E+03  0.00000000000E+00 0. -1.
          2    1    3    3  501    0  0.92344119760E+02  0.19871212679E+03  0.80937761777E+03  0.83851420616E+03  0.00000000000E+00 0. -1.
<mgrwt>
<rscale>  0 0.57532241E+03</rscale>
<asrwt>0</asrwt>
<pdfrwt beam="1">0</pdfrwt>
<pdfrwt beam="2">  1        2 0.30090597E+00 0.57532241E+03</pdfrwt>
<totfact> 0.91641067E+00</totfact>
</mgrwt>
</event>
<event>
 5    1  0.2357694E-004  0.6536743E+03  0.7818608E-02  0.9799909E-01
         13   -1    0    0    0    0  0.00000000000E+00  0.00000000000E+00  0.10000000000E+04  0.10000000000E+04  0.00000000000E+00 0. -1.
          2   -1    0    0  501    0 -0.00000000000E+00 -0.00000000000E+00 -0.10682253696E+03  0.10682253696E+03  0.00000000000E+00 0. -1.
    9000006    2    1    2  501    0  0.00000000000E+00  0.00000000000E+00  0.89317746304E+03  0.11068225370E+04  0.65367434386E+03 0.  0.
         13    1    3    3    0    0  0.22826392395E+03 -0.16413706065E+03  0.16438656499E+03  0.32568134182E+03  0.00000000000E+00 0. -1.
          4    1    3    3  501    0 -0.22826392395E+03  0.16413706065E+03  0.72879089806E+03  0.78114119514E+03  0.00000000000E+00 0. -1.
<mgrwt>
<rscale>  0 0.65367434E+03</rscale>
<asrwt>0</asrwt>
<pdfrwt beam="1">0</pdfrwt>
<pdfrwt beam="2">  1        2 0.38844641E+00 0.65367434E+03</pdfrwt>
<totfact> 0.43973893E+00</totfact>
</mgrwt>
</event>
<event>
 5    1  0.2357694E-004  0.6505134E+03  0.7818608E-02  0.9805816E-01
         13   -1    0    0    0    0  0.00000000000E+00  0.00000000000E+00  0.10000000000E+04  0.10000000000E+04  0.00000000000E+00 0. -1.
          2   -1    0    0  501    0 -0.00000000000E+00 -0.00000000000E+00 -0.10579190774E+03  0.10579190774E+03  0.00000000000E+00 0. -1.
    9000006    2    1    2  501    0  0.00000000000E+00  0.00000000000E+00  0.89420809226E+03  0.11057919077E+04  0.65051335955E+03 0.  0.
         13    1    3    3    0    0  0.14916268284E+03  0.24689741538E+03  0.70256132065E+03  0.75947366573E+03  0.00000000000E+00 0. -1.
          2    1    3    3  501    0 -0.14916268284E+03 -0.24689741538E+03  0.19164677161E+03  0.34631824200E+03  0.00000000000E+00 0. -1.
<mgrwt>
<rscale>  0 0.65051336E+03</rscale>
<asrwt>0</asrwt>
<pdfrwt beam="1">0</pdfrwt>
<pdfrwt beam="2">  1        2 0.38469866E+00 0.65051336E+03</pdfrwt>
<totfact> 0.45415346E+00</totfact>
</mgrwt>
</event>
<event>
 5    1  0.2357694E-004  0.6915782E+03  0.7818608E-02  0.9731744E-01
         13   -1    0    0    0    0  0.00000000000E+00  0.00000000000E+00  0.10000000000E+04  0.10000000000E+04  0.00000000000E+00 0. -1.
          2   -1    0    0  501    0 -0.00000000000E+00 -0.00000000000E+00 -0.11957010199E+03  0.11957010199E+03  0.00000000000E+00 0. -1.
    9000006    2    1    2  501    0  0.00000000000E+00  0.00000000000E+00  0.88042989801E+03  0.11195701020E+04  0.69157820090E+03 0.  0.
         13    1    3    3    0    0  0.20526885367E+03  0.19605753485E+03  0.12053059677E+03  0.30838528502E+03  0.00000000000E+00 0. -1.
          2    1    3    3  501    0 -0.20526885367E+03 -0.19605753485E+03  0.75989930124E+03  0.81118481697E+03  0.00000000000E+00 0. -1.
<mgrwt>
<rscale>  0 0.69157820E+03</rscale>
<asrwt>0</asrwt>
<pdfrwt beam="1">0</pdfrwt>
<pdfrwt beam="2">  1        2 0.43480129E+00 0.69157820E+03</pdfrwt>
<totfact> 0.29240351E+00</totfact>
</mgrwt>
</event>
<event>
 5    1  0.2357694E-004  0.6497157E+03  0.7818608E-02  0.9807313E-01
         13   -1    0    0    0    0  0.00000000000E+00  0.00000000000E+00  0.10000000000E+04  0.10000000000E+04  0.00000000000E+00 0. -1.
          2   -1    0    0  501    0 -0.00000000000E+00 -0.00000000000E+00 -0.10553261742E+03  0.10553261742E+03  0.00000000000E+00 0. -1.
    9000006    2    1    2  501    0  0.00000000000E+00  0.00000000000E+00  0.89446738258E+03  0.11055326174E+04  0.64971568372E+03 0.  0.
         13    1    3    3    0    0 -0.11210353209E+03  0.26243166451E+03  0.71136021077E+03  0.76646652236E+03  0.00000000000E+00 0. -1.
          2    1    3    3  501    0  0.11210353209E+03 -0.26243166451E+03  0.18310717182E+03  0.33906609505E+03  0.00000000000E+00 0. -1.
<mgrwt>
<rscale>  0 0.64971568E+03</rscale>
<asrwt>0</asrwt>
<pdfrwt beam="1">0</pdfrwt>
<pdfrwt beam="2">  1        2 0.38375578E+00 0.64971568E+03</pdfrwt>
<totfact> 0.45784671E+00</totfact>
</mgrwt>
</event>
<event>
 5    1  0.2357694E-004  0.6459924E+03  0.7818608E-02  0.9814328E-01
         13   -1    0    0    0    0  0.00000000000E+00  0.00000000000E+00  0.10000000000E+04  0.10000000000E+04  0.00000000000E+00 0. -1.
          2   -1    0    0  501    0 -0.00000000000E+00 -0.00000000000E+00 -0.10432655821E+03  0.10432655821E+03  0.00000000000E+00 0. -1.
    9000006    2    1    2  501    0  0.00000000000E+00  0.00000000000E+00  0.89567344179E+03  0.11043265582E+04  0.64599244025E+03 0.  0.
         13    1    3    3    0    0 -0.25473589102E+03  0.15016120399E+03  0.22568147181E+03  0.37198237603E+03  0.00000000000E+00 0. -1.
          4    1    3    3  501    0  0.25473589102E+03 -0.15016120399E+03  0.66999196997E+03  0.73234418219E+03  0.00000000000E+00 0. -1.
<mgrwt>
<rscale>  0 0.64599244E+03</rscale>
<asrwt>0</asrwt>
<pdfrwt beam="1">0</pdfrwt>
<pdfrwt beam="2">  1        2 0.37937010E+00 0.64599244E+03</pdfrwt>
<totfact> 0.47538662E+00</totfact>
</mgrwt>
</event>
<event>
 5    1  0.2357694E-004  0.6397205E+03  0.7818608E-02  0.9826261E-01
         13   -1    0    0    0    0  0.00000000000E+00  0.00000000000E+00  0.10000000000E+04  0.10000000000E+04  0.00000000000E+00 0. -1.
          2   -1    0    0  501    0 -0.00000000000E+00 -0.00000000000E+00 -0.10231057085E+03  0.10231057085E+03  0.00000000000E+00 0. -1.
    9000006    2    1    2  501    0  0.00000000000E+00  0.00000000000E+00  0.89768942915E+03  0.11023105709E+04  0.63972047287E+03 0.  0.
         13    1    3    3    0    0 -0.10052415270E+03  0.93094097110E+02  0.94687785278E+03  0.95673887988E+03  0.00000000000E+00 0. -1.
          4    1    3    3  501    0  0.10052415270E+03 -0.93094097110E+02 -0.49188423632E+02  0.14557169097E+03  0.00000000000E+00 0. -1.
<mgrwt>
<rscale>  0 0.63972047E+03</rscale>
<asrwt>0</asrwt>
<pdfrwt beam="1">0</pdfrwt>
<pdfrwt beam="2">  1        2 0.37203922E+00 0.63972047E+03</pdfrwt>
<totfact> 0.50607873E+00</totfact>
</mgrwt>
</event>
<event>
 5    1  0.2357694E-004  0.6794876E+03  0.7818608E-02  0.9752969E-01
         13   -1    0    0    0    0  0.00000000000E+00  0.00000000000E+00  0.10000000000E+04  0.10000000000E+04  0.00000000000E+00 0. -1.
          2   -1    0    0  501    0 -0.00000000000E+00 -0.00000000000E+00 -0.11542586032E+03  0.11542586032E+03  0.00000000000E+00 0. -1.
    9000006    2    1    2  501    0  0.00000000000E+00  0.00000000000E+00  0.88457413968E+03  0.11154258603E+04  0.67948763143E+03 0.  0.
         13    1    3    3    0    0  0.20779214040E+03  0.26580281757E+03  0.50789130151E+03  0.60973952274E+03  0.00000000000E+00 0. -1.
          2    1    3    3  501    0 -0.20779214040E+03 -0.26580281757E+03  0.37668283818E+03  0.50568633758E+03  0.00000000000E+00 0. -1.
<mgrwt>
<rscale>  0 0.67948763E+03</rscale>
<asrwt>0</asrwt>
<pdfrwt beam="1">0</pdfrwt>
<pdfrwt beam="2">  1        2 0.41973129E+00 0.67948763E+03</pdfrwt>
<totfact> 0.33455380E+00</totfact>
</mgrwt>
</event>
<event>
 5    1  0.2357694E-004  0.6493098E+03  0.7818608E-02  0.9808075E-01
         13   -1    0    0    0    0  0.00000000000E+00  0.00000000000E+00  0.10000000000E+04  0.10000000000E+04  0.00000000000E+00 0. -1.
          2   -1    0    0  501    0 -0.00000000000E+00 -0.00000000000E+00 -0.10540081136E+03  0.10540081136E+03  0.00000000000E+00 0. -1.
    9000006    2    1    2  501    0  0.00000000000E+00  0.00000000000E+00  0.89459918864E+03  0.11054008114E+04  0.64930982238E+03 0.  0.
         13    1    3    3    0    0  0.10329260645E+03  0.27047080988E+03  0.19722864968E+03  0.35031837205E+03  0.00000000000E+00 0. -1.
          4    1    3    3  501    0 -0.10329260645E+03 -0.27047080988E+03  0.69737053896E+03  0.75508243931E+03  0.00000000000E+00 0. -1.
<mgrwt>
<rscale>  0 0.64930982E+03</rscale>
<asrwt>0</asrwt>
<pdfrwt beam="1">0</pdfrwt>
<pdfrwt beam="2">  1        2 0.38327649E+00 0.64930982E+03</pdfrwt>
<totfact> 0.45973454E+00</totfact>
</mgrwt>
</event>
<event>
 5    1  0.2357694E-004  0.6545143E+03  0.7818608E-02  0.9798345E-01
         13   -1    0    0    0    0  0.00000000000E+00  0.00000000000E+00  0.10000000000E+04  0.10000000000E+04  0.00000000000E+00 0. -1.
          2   -1    0    0  501    0 -0.00000000000E+00 -0.00000000000E+00 -0.10709722845E+03  0.10709722845E+03  0.00000000000E+00 0. -1.
    9000006    2    1    2  501    0  0.00000000000E+00  0.00000000000E+00  0.89290277155E+03  0.11070972284E+04  0.65451425790E+03 0.  0.
         13    1    3    3    0    0 -0.11149735628E+03 -0.32687270612E+02  0.96393651277E+03  0.97091385755E+03  0.00000000000E+00 0. -1.
          4    1    3    3  501    0  0.11149735628E+03  0.32687270612E+02 -0.71033741221E+02  0.13618337090E+03  0.00000000000E+00 0. -1.
<mgrwt>
<rscale>  0 0.65451426E+03</rscale>
<asrwt>0</asrwt>
<pdfrwt beam="1">0</pdfrwt>
<pdfrwt beam="2">  1        2 0.38944529E+00 0.65451426E+03</pdfrwt>
<totfact> 0.43596761E+00</totfact>
</mgrwt>
</event>
<event>
 5    1  0.2357694E-004  0.6514733E+03  0.7818608E-02  0.9804019E-01
         13   -1    0    0    0    0  0.00000000000E+00  0.00000000000E+00  0.10000000000E+04  0.10000000000E+04  0.00000000000E+00 0. -1.
          2   -1    0    0  501    0 -0.00000000000E+00 -0.00000000000E+00 -0.10610435063E+03  0.10610435063E+03  0.00000000000E+00 0. -1.
    9000006    2    1    2  501    0  0.00000000000E+00  0.00000000000E+00  0.89389564937E+03  0.11061043506E+04  0.65147325542E+03 0.  0.
         13    1    3    3    0    0 -0.22246781929E+03 -0.20747472354E+03  0.64470669167E+03  0.71287054211E+03  0.00000000000E+00 0. -1.
          4    1    3    3  501    0  0.22246781929E+03  0.20747472354E+03  0.24918895770E+03  0.39323380852E+03  0.00000000000E+00 0. -1.
<mgrwt>
<rscale>  0 0.65147326E+03</rscale>
<asrwt>0</asrwt>
<pdfrwt beam="1">0</pdfrwt>
<pdfrwt beam="2">  1        2 0.38583482E+00 0.65147326E+03</pdfrwt>
<totfact> 0.44973902E+00</totfact>
</mgrwt>
</event>
<event>
 5    1  0.2357694E-004  0.6606028E+03  0.7818608E-02  0.9787085E-01
         13   -1    0    0    0    0  0.00000000000E+00  0.00000000000E+00  0.10000000000E+04  0.10000000000E+04  0.00000000000E+00 0. -1.
          2   -1    0    0  501    0 -0.00000000000E+00 -0.00000000000E+00 -0.10909902975E+03  0.10909902975E+03  0.00000000000E+00 0. -1.
    9000006    2    1    2  501    0  0.00000000000E+00  0.00000000000E+00  0.89090097025E+03  0.11090990298E+04  0.66060284514E+03 0.  0.
         13    1    3    3    0    0  0.14073922325E+03  0.21895308995E+03  0.78685804313E+03  0.82879042260E+03  0.00000000000E+00 0. -1.
          4    1    3    3  501    0 -0.14073922325E+03 -0.21895308995E+03  0.10404292712E+03  0.28030860715E+03  0.00000000000E+00 0. -1.
<mgrwt>
<rscale>  0 0.66060285E+03</rscale>
<asrwt>0</asrwt>
<pdfrwt beam="1">0</pdfrwt>
<pdfrwt beam="2">  1        2 0.39672458E+00 0.66060285E+03</pdfrwt>
<totfact> 0.40935508E+00</totfact>
</mgrwt>
</event>
<event>
 5    1  0.2357694E-004  0.6480985E+03  0.7818608E-02  0.9810354E-01
         13   -1    0    0    0    0  0.00000000000E+00  0.00000000000E+00  0.10000000000E+04  0.10000000000E+04  0.00000000000E+00 0. -1.
          2   -1    0    0  501    0 -0.00000000000E+00 -0.00000000000E+00 -0.10500791954E+03  0.10500791954E+03  0.00000000000E+00 0. -1.
    9000006    2    1    2  501    0  0.00000000000E+00  0.00000000000E+00  0.89499208046E+03  0.11050079195E+04  0.64809850963E+03 0.  0.
         13    1    3    3    0    0 -0.11576919400E+03 -0.19908028290E+03  0.83619285392E+03  0.86732574865E+03  0.00000000000E+00 0. -1.
          4    1    3    3  501    0  0.11576919400E+03  0.19908028290E+03  0.58799226536E+02  0.23768217090E+03  0.00000000000E+00 0. -1.
<mgrwt>
<rscale>  0 0.64809851E+03</rscale>
<asrwt>0</asrwt>
<pdfrwt beam="1">0</pdfrwt>
<pdfrwt beam="2">  1        2 0.38184779E+00 0.64809851E+03</pdfrwt>
<totfact> 0.46540387E+00</totfact>
</mgrwt>
</event>
<event>
 5    1  0.2357694E-004  0.6536392E+03  0.7818608E-02  0.9799974E-01
         13   -1    0    0    0    0  0.00000000000E+00  0.00000000000E+00  0.10000000000E+04  0.10000000000E+04  0.00000000000E+00 0. -1.
          2   -1    0    0  501    0 -0.00000000000E+00 -0.00000000000E+00 -0.10681105488E+03  0.10681105488E+03  0.00000000000E+00 0. -1.
    9000006    2    1    2  501    0  0.00000000000E+00  0.00000000000E+00  0.89318894512E+03  0.11068110549E+04  0.65363921203E+03 0.  0.
         13    1    3    3    0    0  0.15483695992E+03  0.28469870467E+03  0.37508926959E+03  0.49570131810E+03  0.00000000000E+00 0. -1.
          2    1    3    3  501    0 -0.15483695992E+03 -0.28469870467E+03  0.51809967553E+03  0.61110973678E+03  0.00000000000E+00 0. -1.
<mgrwt>
<rscale>  0 0.65363921E+03</rscale>
<asrwt>0</asrwt>
<pdfrwt beam="1">0</pdfrwt>
<pdfrwt beam="2">  1        2 0.38840465E+00 0.65363921E+03</pdfrwt>
<totfact> 0.43989721E+00</totfact>
</mgrwt>
</event>
<event>
 5    1  0.2357694E-004  0.6292944E+03  0.7818608E-02  0.9846427E-01
         13   -1    0    0    0    0  0.00000000000E+00  0.00000000000E+00  0.10000000000E+04  0.10000000000E+04  0.00000000000E+00 0. -1.
          2   -1    0    0  501    0 -0.00000000000E+00 -0.00000000000E+00 -0.99002852697E+02  0.99002852697E+02  0.00000000000E+00 0. -1.
    9000006    2    1    2  501    0  0.00000000000E+00  0.00000000000E+00  0.90099714730E+03  0.10990028527E+04  0.62929437530E+03 0.  0.
         13    1    3    3    0    0 -0.11252608026E+03 -0.10537409704E+03  0.92952646608E+03  0.94222357761E+03  0.00000000000E+00 0. -1.
          2    1    3    3  501    0  0.11252608026E+03  0.10537409704E+03 -0.28529318779E+02  0.15677927508E+03  0.00000000000E+00 0. -1.
<mgrwt>
<rscale>  0 0.62929438E+03</rscale>
<asrwt>0</asrwt>
<pdfrwt beam="1">0</pdfrwt>
<pdfrwt beam="2">  1        2 0.36001113E+00 0.62929438E+03</pdfrwt>
<totfact> 0.56039630E+00</totfact>
</mgrwt>
</event>
<event>
 5    1  0.2357694E-004  0.6437226E+03  0.7818608E-02  0.9818630E-01
         13   -1    0    0    0    0  0.00000000000E+00  0.00000000000E+00  0.10000000000E+04  0.10000000000E+04  0.00000000000E+00 0. -1.
          2   -1    0    0  501    0 -0.00000000000E+00 -0.00000000000E+00 -0.10359470943E+03  0.10359470943E+03  0.00000000000E+00 0. -1.
    9000006    2    1    2  501    0  0.00000000000E+00  0.00000000000E+00  0.89640529057E+03  0.11035947094E+04  0.64372264036E+03 0.  0.
         13    1    3    3    0    0  0.14469724488E+01  0.62358432292E+02 -0.93133726110E+02  0.11209174254E+03  0.00000000000E+00 0. -1.
          4    1    3    3  501    0 -0.14469724488E+01 -0.62358432292E+02  0.98953901668E+03  0.99150296689E+03  0.00000000000E+00 0. -1.
<mgrwt>
<rscale>  0 0.64372264E+03</rscale>
<asrwt>0</asrwt>
<pdfrwt beam="1">0</pdfrwt>
<pdfrwt beam="2">  1        2 0.37670883E+00 0.64372264E+03</pdfrwt>
<totfact> 0.48632593E+00</totfact>
</mgrwt>
</event>
<event>
 5    1  0.2357694E-004  0.6647628E+03  0.7818608E-02  0.9779466E-01
         13   -1    0    0    0    0  0.00000000000E+00  0.00000000000E+00  0.10000000000E+04  0.10000000000E+04  0.00000000000E+00 0. -1.
          2   -1    0    0  501    0 -0.00000000000E+00 -0.00000000000E+00 -0.11047738876E+03  0.11047738876E+03  0.00000000000E+00 0. -1.
    9000006    2    1    2  501    0  0.00000000000E+00  0.00000000000E+00  0.88952261124E+03  0.11104773888E+04  0.66476278102E+03 0.  0.
         13    1    3    3    0    0  0.30743629571E+03  0.77499199498E+02  0.61142688627E+03  0.68874236046E+03  0.00000000000E+00 0. -1.
          4    1    3    3  501    0 -0.30743629571E+03 -0.77499199498E+02  0.27809572497E+03  0.42173502830E+03  0.00000000000E+00 0. -1.
<mgrwt>
<rscale>  0 0.66476278E+03</rscale>
<asrwt>0</asrwt>
<pdfrwt beam="1">0</pdfrwt>
<pdfrwt beam="2">  1        2 0.40173681E+00 0.66476278E+03</pdfrwt>
<totfact> 0.39189163E+00</totfact>
</mgrwt>
</event>
<event>
 5    1  0.2357694E-004  0.5939609E+03  0.7818608E-02  0.9918015E-01
         13   -1    0    0    0    0  0.00000000000E+00  0.00000000000E+00  0.10000000000E+04  0.10000000000E+04  0.00000000000E+00 0. -1.
          2   -1    0    0  501    0 -0.00000000000E+00 -0.00000000000E+00 -0.88197384052E+02  0.88197384052E+02  0.00000000000E+00 0. -1.
    9000006    2    1    2  501    0  0.00000000000E+00  0.00000000000E+00  0.91180261595E+03  0.10881973841E+04  0.59396088778E+03 0.  0.
         13    1    3    3    0    0  0.11636872693E+02  0.84498359247E+02  0.97707576081E+03  0.98079173726E+03  0.00000000000E+00 0. -1.
          4    1    3    3  501    0 -0.11636872693E+02 -0.84498359247E+02 -0.65273144864E+02  0.10740564679E+03  0.00000000000E+00 0. -1.
<mgrwt>
<rscale>  0 0.59396089E+03</rscale>
<asrwt>0</asrwt>
<pdfrwt beam="1">0</pdfrwt>
<pdfrwt beam="2">  1        2 0.32071844E+00 0.59396089E+03</pdfrwt>
<totfact> 0.77808383E+00</totfact>
</mgrwt>
</event>
<event>
 5    1  0.2357694E-004  0.6464405E+03  0.7818608E-02  0.9813481E-01
         13   -1    0    0    0    0  0.00000000000E+00  0.00000000000E+00  0.10000000000E+04  0.10000000000E+04  0.00000000000E+00 0. -1.
          2   -1    0    0  501    0 -0.00000000000E+00 -0.00000000000E+00 -0.10447133994E+03  0.10447133994E+03  0.00000000000E+00 0. -1.
    9000006    2    1    2  501    0  0.00000000000E+00  0.00000000000E+00  0.89552866006E+03  0.11044713399E+04  0.64644053073E+03 0.  0.
         13    1    3    3    0    0 -0.11867448355E+03 -0.29342734961E+03  0.33588285253E+03  0.46151980800E+03  0.00000000000E+00 0. -1.
          2    1    3    3  501    0  0.11867448355E+03  0.29342734961E+03  0.55964580753E+03  0.64295153195E+03  0.00000000000E+00 0. -1.
<mgrwt>
<rscale>  0 0.64644053E+03</rscale>
<asrwt>0</asrwt>
<pdfrwt beam="1">0</pdfrwt>
<pdfrwt beam="2">  1        2 0.37989658E+00 0.64644053E+03</pdfrwt>
<totfact> 0.47324924E+00</totfact>
</mgrwt>
</event>
<event>
 5    1  0.2357694E-004  0.5871759E+03  0.7818608E-02  0.9932375E-01
         13   -1    0    0    0    0  0.00000000000E+00  0.00000000000E+00  0.10000000000E+04  0.10000000000E+04  0.00000000000E+00 0. -1.
          2   -1    0    0  501    0 -0.00000000000E+00 -0.00000000000E+00 -0.86193897483E+02  0.86193897483E+02  0.00000000000E+00 0. -1.
    9000006    2    1    2  501    0  0.00000000000E+00  0.00000000000E+00  0.91380610252E+03  0.10861938975E+04  0.58717594461E+03 0.  0.
         13    1    3    3    0    0  0.11977298115E+03 -0.48752347981E+02  0.94447932437E+03  0.95329090660E+03  0.00000000000E+00 0. -1.
          2    1    3    3  501    0 -0.11977298115E+03  0.48752347981E+02 -0.30673221850E+02  0.13290299088E+03  0.00000000000E+00 0. -1.
<mgrwt>
<rscale>  0 0.58717594E+03</rscale>
<asrwt>0</asrwt>
<pdfrwt beam="1">0</pdfrwt>
<pdfrwt beam="2">  1        2 0.31343302E+00 0.58717594E+03</pdfrwt>
<totfact> 0.82642555E+00</totfact>
</mgrwt>
</event>
<event>
 5    1  0.2357694E-004  0.6620607E+03  0.7818608E-02  0.9784408E-01
         13   -1    0    0    0    0  0.00000000000E+00  0.00000000000E+00  0.10000000000E+04  0.10000000000E+04  0.00000000000E+00 0. -1.
          2   -1    0    0  501    0 -0.00000000000E+00 -0.00000000000E+00 -0.10958108136E+03  0.10958108136E+03  0.00000000000E+00 0. -1.
    9000006    2    1    2  501    0  0.00000000000E+00  0.00000000000E+00  0.89041891864E+03  0.11095810814E+04  0.66206066598E+03 0.  0.
         13    1    3    3    0    0  0.37872555692E+02  0.23040481344E+03  0.83847041532E+03  0.87037540515E+03  0.00000000000E+00 0. -1.
          2    1    3    3  501    0 -0.37872555692E+02 -0.23040481344E+03  0.51948503323E+02  0.23920567621E+03  0.00000000000E+00 0. -1.
<mgrwt>
<rscale>  0 0.66206067E+03</rscale>
<asrwt>0</asrwt>
<pdfrwt beam="1">0</pdfrwt>
<pdfrwt beam="2">  1        2 0.39847750E+00 0.66206067E+03</pdfrwt>
<totfact> 0.40316969E+00</totfact>
</mgrwt>
</event>
<event>
 5    1  0.2357694E-004  0.6547245E+03  0.7818608E-02  0.9797954E-01
         13   -1    0    0    0    0  0.00000000000E+00  0.00000000000E+00  0.10000000000E+04  0.10000000000E+04  0.00000000000E+00 0. -1.
          2   -1    0    0  501    0 -0.00000000000E+00 -0.00000000000E+00 -0.10716604695E+03  0.10716604695E+03  0.00000000000E+00 0. -1.
    9000006    2    1    2  501    0  0.00000000000E+00  0.00000000000E+00  0.89283395305E+03  0.11071660469E+04  0.65472451290E+03 0.  0.
         13    1    3    3    0    0  0.26342536117E+03  0.19401588480E+03  0.46576905498E+03  0.56918880615E+03  0.00000000000E+00 0. -1.
          4    1    3    3  501    0 -0.26342536117E+03 -0.19401588480E+03  0.42706489807E+03  0.53797724080E+03  0.00000000000E+00 0. -1.
<mgrwt>
<rscale>  0 0.65472451E+03</rscale>
<asrwt>0</asrwt>
<pdfrwt beam="1">0</pdfrwt>
<pdfrwt beam="2">  1        2 0.38969554E+00 0.65472451E+03</pdfrwt>
<totfact> 0.43502737E+00</totfact>
</mgrwt>
</event>
<event>
 5    1  0.2357694E-004  0.6349140E+03  0.7818608E-02  0.9835506E-01
         13   -1    0    0    0    0  0.00000000000E+00  0.00000000000E+00  0.10000000000E+04  0.10000000000E+04  0.00000000000E+00 0. -1.
          2   -1    0    0  501    0 -0.00000000000E+00 -0.00000000000E+00 -0.10077894609E+03  0.10077894609E+03  0.00000000000E+00 0. -1.
    9000006    2    1    2  501    0  0.00000000000E+00  0.00000000000E+00  0.89922105391E+03  0.11007789461E+04  0.63491399761E+03 0.  0.
         13    1    3    3    0    0 -0.50884547129E+02  0.37080638036E+02  0.98906642248E+03  0.99106841284E+03  0.00000000000E+00 0. -1.
          4    1    3    3  501    0  0.50884547129E+02 -0.37080638036E+02 -0.89845368569E+02  0.10971053325E+03  0.00000000000E+00 0. -1.
<mgrwt>
<rscale>  0 0.63491400E+03</rscale>
<asrwt>0</asrwt>
<pdfrwt beam="1">0</pdfrwt>
<pdfrwt beam="2">  1        2 0.36646967E+00 0.63491400E+03</pdfrwt>
<totfact> 0.53059819E+00</totfact>
</mgrwt>
</event>
<event>
 5    1  0.2357694E-004  0.6295183E+03  0.7818608E-02  0.9845989E-01
         13   -1    0    0    0    0  0.00000000000E+00  0.00000000000E+00  0.10000000000E+04  0.10000000000E+04  0.00000000000E+00 0. -1.
          2   -1    0    0  501    0 -0.00000000000E+00 -0.00000000000E+00 -0.99073332516E+02  0.99073332516E+02  0.00000000000E+00 0. -1.
    9000006    2    1    2  501    0  0.00000000000E+00  0.00000000000E+00  0.90092666748E+03  0.10990733325E+04  0.62951833179E+03 0.  0.
         13    1    3    3    0    0  0.26914084519E+03 -0.74945009035E+02  0.70358680007E+03  0.75702571565E+03  0.00000000000E+00 0. -1.
          2    1    3    3  501    0 -0.26914084519E+03  0.74945009035E+02  0.19733986741E+03  0.34204761686E+03  0.00000000000E+00 0. -1.
<mgrwt>
<rscale>  0 0.62951833E+03</rscale>
<asrwt>0</asrwt>
<pdfrwt beam="1">0</pdfrwt>
<pdfrwt beam="2">  1        2 0.36026742E+00 0.62951833E+03</pdfrwt>
<totfact> 0.55918503E+00</totfact>
</mgrwt>
</event>
<event>
 5    1  0.2357694E-004  0.6497479E+03  0.7818608E-02  0.9807252E-01
         13   -1    0    0    0    0  0.00000000000E+00  0.00000000000E+00  0.10000000000E+04  0.10000000000E+04  0.00000000000E+00 0. -1.
          2   -1    0    0  501    0 -0.00000000000E+00 -0.00000000000E+00 -0.10554307207E+03  0.10554307207E+03  0.00000000000E+00 0. -1.
    9000006    2    1    2  501    0  0.00000000000E+00  0.00000000000E+00  0.89445692793E+03  0.11055430721E+04  0.64974786516E+03 0.  0.
         13    1    3    3    0    0  0.45693038891E+01  0.24500884979E+03  0.81014136945E+03  0.84639190303E+03  0.00000000000E+00 0. -1.
          2    1    3    3  501    0 -0.45693038891E+01 -0.24500884979E+03  0.84315558480E+02  0.25915116904E+03  0.00000000000E+00 0. -1.
<mgrwt>
<rscale>  0 0.64974787E+03</rscale>
<asrwt>0</asrwt>
<pdfrwt beam="1">0</pdfrwt>
<pdfrwt beam="2">  1        2 0.38379380E+00 0.64974787E+03</pdfrwt>
<totfact> 0.45769727E+00</totfact>
</mgrwt>
</event>
<event>
 5    1  0.2357694E-004  0.6720990E+03  0.7818608E-02  0.9766173E-01
         13   -1    0    0    0    0  0.00000000000E+00  0.00000000000E+00  0.10000000000E+04  0.10000000000E+04  0.00000000000E+00 0. -1.
          2   -1    0    0  501    0 -0.00000000000E+00 -0.00000000000E+00 -0.11292927452E+03  0.11292927452E+03  0.00000000000E+00 0. -1.
    9000006    2    1    2  501    0  0.00000000000E+00  0.00000000000E+00  0.88707072548E+03  0.11129292745E+04  0.67209902400E+03 0.  0.
         13    1    3    3    0    0 -0.27259828338E+03  0.15321025560E+03  0.64732601183E+03  0.71889788713E+03  0.00000000000E+00 0. -1.
          2    1    3    3  501    0  0.27259828338E+03 -0.15321025560E+03  0.23974471365E+03  0.39403138739E+03  0.00000000000E+00 0. -1.
<mgrwt>
<rscale>  0 0.67209902E+03</rscale>
<asrwt>0</asrwt>
<pdfrwt beam="1">0</pdfrwt>
<pdfrwt beam="2">  1        2 0.41065277E+00 0.67209902E+03</pdfrwt>
<totfact> 0.36246966E+00</totfact>
</mgrwt>
</event>
<event>
 5    1  0.2357694E-004  0.6405819E+03  0.7818608E-02  0.9824614E-01
         13   -1    0    0    0    0  0.00000000000E+00  0.00000000000E+00  0.10000000000E+04  0.10000000000E+04  0.00000000000E+00 0. -1.
          2   -1    0    0  501    0 -0.00000000000E+00 -0.00000000000E+00 -0.10258630390E+03  0.10258630390E+03  0.00000000000E+00 0. -1.
    9000006    2    1    2  501    0  0.00000000000E+00  0.00000000000E+00  0.89741369610E+03  0.11025863039E+04  0.64058193512E+03 0.  0.
         13    1    3    3    0    0  0.62116034889E+02 -0.21398083204E+03  0.52674821497E+02  0.22895596758E+03  0.00000000000E+00 0. -1.
          4    1    3    3  501    0 -0.62116034889E+02  0.21398083204E+03  0.84473887460E+03  0.87363033632E+03  0.00000000000E+00 0. -1.
<mgrwt>
<rscale>  0 0.64058194E+03</rscale>
<asrwt>0</asrwt>
<pdfrwt beam="1">0</pdfrwt>
<pdfrwt beam="2">  1        2 0.37304189E+00 0.64058194E+03</pdfrwt>
<totfact> 0.50177647E+00</totfact>
</mgrwt>
</event>
<event>
 5    1  0.2357694E-004  0.6477369E+03  0.7818608E-02  0.9811035E-01
         13   -1    0    0    0    0  0.00000000000E+00  0.00000000000E+00  0.10000000000E+04  0.10000000000E+04  0.00000000000E+00 0. -1.
          2   -1    0    0  501    0 -0.00000000000E+00 -0.00000000000E+00 -0.10489076320E+03  0.10489076320E+03  0.00000000000E+00 0. -1.
    9000006    2    1    2  501    0  0.00000000000E+00  0.00000000000E+00  0.89510923680E+03  0.11048907632E+04  0.64773687002E+03 0.  0.
         13    1    3    3    0    0 -0.61003534789E+02 -0.31539086717E+03  0.37726665186E+03  0.49550273153E+03  0.00000000000E+00 0. -1.
          2    1    3    3  501    0  0.61003534789E+02  0.31539086717E+03  0.51784258495E+03  0.60938803166E+03  0.00000000000E+00 0. -1.
<mgrwt>
<rscale>  0 0.64773687E+03</rscale>
<asrwt>0</asrwt>
<pdfrwt beam="1">0</pdfrwt>
<pdfrwt beam="2">  1        2 0.38142176E+00 0.64773687E+03</pdfrwt>
<totfact> 0.46710666E+00</totfact>
</mgrwt>
</event>
<event>
 5    1  0.2357694E-004  0.6482701E+03  0.7818608E-02  0.9810031E-01
         13   -1    0    0    0    0  0.00000000000E+00  0.00000000000E+00  0.10000000000E+04  0.10000000000E+04  0.00000000000E+00 0. -1.
          2   -1    0    0  501    0 -0.00000000000E+00 -0.00000000000E+00 -0.10506353067E+03  0.10506353067E+03  0.00000000000E+00 0. -1.
    9000006    2    1    2  501    0  0.00000000000E+00  0.00000000000E+00  0.89493646933E+03  0.11050635307E+04  0.64827010010E+03 0.  0.
         13    1    3    3    0    0  0.26891886998E+03 -0.18093629465E+03  0.44257818637E+03  0.54857155632E+03  0.00000000000E+00 0. -1.
          4    1    3    3  501    0 -0.26891886998E+03  0.18093629465E+03  0.45235828296E+03  0.55649197435E+03  0.00000000000E+00 0. -1.
<mgrwt>
<rscale>  0 0.64827010E+03</rscale>
<asrwt>0</asrwt>
<pdfrwt beam="1">0</pdfrwt>
<pdfrwt beam="2">  1        2 0.38205001E+00 0.64827010E+03</pdfrwt>
<totfact> 0.46459758E+00</totfact>
</mgrwt>
</event>
<event>
 5    1  0.2357694E-004  0.6425818E+03  0.7818608E-02  0.9820799E-01
         13   -1    0    0    0    0  0.00000000000E+00  0.00000000000E+00  0.10000000000E+04  0.10000000000E+04  0.00000000000E+00 0. -1.
          2   -1    0    0  501    0 -0.00000000000E+00 -0.00000000000E+00 -0.10322785167E+03  0.10322785167E+03  0.00000000000E+00 0. -1.
    9000006    2    1    2  501    0  0.00000000000E+00  0.00000000000E+00  0.89677214833E+03  0.11032278517E+04  0.64258182877E+03 0.  0.
         13    1    3    3    0    0 -0.52802202769E+02  0.22602016415E+03  0.82980380574E+03  0.86165395795E+03  0.00000000000E+00 0. -1.
          4    1    3    3  501    0  0.52802202769E+02 -0.22602016415E+03  0.66968342591E+02  0.24157389372E+03  0.00000000000E+00 0. -1.
<mgrwt>
<rscale>  0 0.64258183E+03</rscale>
<asrwt>0</asrwt>
<pdfrwt beam="1">0</pdfrwt>
<pdfrwt beam="2">  1        2 0.37537480E+00 0.64258183E+03</pdfrwt>
<totfact> 0.49189553E+00</totfact>
</mgrwt>
</event>
<event>
 5    1  0.2357694E-004  0.6311275E+03  0.7818608E-02  0.9842851E-01
         13   -1    0    0    0    0  0.00000000000E+00  0.00000000000E+00  0.10000000000E+04  0.10000000000E+04  0.00000000000E+00 0. -1.
          2   -1    0    0  501    0 -0.00000000000E+00 -0.00000000000E+00 -0.99580493412E+02  0.99580493412E+02  0.00000000000E+00 0. -1.
    9000006    2    1    2  501    0  0.00000000000E+00  0.00000000000E+00  0.90041950659E+03  0.10995804934E+04  0.63112754151E+03 0.  0.
         13    1    3    3    0    0  0.28438608629E+03 -0.45431552356E+02  0.22545965848E+03  0.36574790448E+03  0.00000000000E+00 0. -1.
          2    1    3    3  501    0 -0.28438608629E+03  0.45431552356E+02  0.67495984811E+03  0.73383258894E+03  0.00000000000E+00 0. -1.
<mgrwt>
<rscale>  0 0.63112754E+03</rscale>
<asrwt>0</asrwt>
<pdfrwt beam="1">0</pdfrwt>
<pdfrwt beam="2">  1        2 0.36211165E+00 0.63112754E+03</pdfrwt>
<totfact> 0.55053994E+00</totfact>
</mgrwt>
</event>
<event>
 5    1  0.2357694E-004  0.6605369E+03  0.7818608E-02  0.9787206E-01
         13   -1    0    0    0    0  0.00000000000E+00  0.00000000000E+00  0.10000000000E+04  0.10000000000E+04  0.00000000000E+00 0. -1.
          2   -1    0    0  501    0 -0.00000000000E+00 -0.00000000000E+00 -0.10907725984E+03  0.10907725984E+03  0.00000000000E+00 0. -1.
    9000006    2    1    2  501    0  0.00000000000E+00  0.00000000000E+00  0.89092274016E+03  0.11090772598E+04  0.66053693263E+03 0.  0.
         13    1    3    3    0    0  0.13211067174E+03  0.94458021131E+02  0.92832216684E+03  0.94242113346E+03  0.00000000000E+00 0. -1.
          2    1    3    3  501    0 -0.13211067174E+03 -0.94458021131E+02 -0.37399426684E+02  0.16665612638E+03  0.00000000000E+00 0. -1.
<mgrwt>
<rscale>  0 0.66053693E+03</rscale>
<asrwt>0</asrwt>
<pdfrwt beam="1">0</pdfrwt>
<pdfrwt beam="2">  1        2 0.39664542E+00 0.66053693E+03</pdfrwt>
<totfact> 0.40963642E+00</totfact>
</mgrwt>
</event>
<event>
 5    1  0.2357694E-004  0.6464219E+03  0.7818608E-02  0.9813517E-01
         13   -1    0    0    0    0  0.00000000000E+00  0.00000000000E+00  0.10000000000E+04  0.10000000000E+04  0.00000000000E+00 0. -1.
          2   -1    0    0  501    0 -0.00000000000E+00 -0.00000000000E+00 -0.10446531354E+03  0.10446531354E+03  0.00000000000E+00 0. -1.
    9000006    2    1    2  501    0  0.00000000000E+00  0.00000000000E+00  0.89553468646E+03  0.11044653135E+04  0.64642188557E+03 0.  0.
         13    1    3    3    0    0  0.20016865729E+03  0.16409695909E+03  0.77850065148E+03  0.82040146739E+03  0.00000000000E+00 0. -1.
          4    1    3    3  501    0 -0.20016865729E+03 -0.16409695909E+03  0.11703403499E+03  0.28406384615E+03  0.00000000000E+00 0. -1.
<mgrwt>
<rscale>  0 0.64642189E+03</rscale>
<asrwt>0</asrwt>
<pdfrwt beam="1">0</pdfrwt>
<pdfrwt beam="2">  1        2 0.37987467E+00 0.64642189E+03</pdfrwt>
<totfact> 0.47333803E+00</totfact>
</mgrwt>
</event>
<event>
 5    1  0.2357694E-004  0.6555061E+03  0.7818608E-02  0.9796502E-01
         13   -1    0    0    0    0  0.00000000000E+00  0.00000000000E+00  0.10000000000E+04  0.10000000000E+04  0.00000000000E+00 0. -1.
          2   -1    0    0  501    0 -0.00000000000E+00 -0.00000000000E+00 -0.10742206474E+03  0.10742206474E+03  0.00000000000E+00 0. -1.
    9000006    2    1    2  501    0  0.00000000000E+00  0.00000000000E+00  0.89257793526E+03  0.11074220647E+04  0.65550610903E+03 0.  0.
         13    1    3    3    0    0 -0.27913432089E+03  0.16860886025E+03  0.39084247291E+03  0.50902137036E+03  0.00000000000E+00 0. -1.
          2    1    3    3  501    0  0.27913432089E+03 -0.16860886025E+03  0.50173546235E+03  0.59840069438E+03  0.00000000000E+00 0. -1.
<mgrwt>
<rscale>  0 0.65550611E+03</rscale>
<asrwt>0</asrwt>
<pdfrwt beam="1">0</pdfrwt>
<pdfrwt beam="2">  1        2 0.39062651E+00 0.65550611E+03</pdfrwt>
<totfact> 0.43154559E+00</totfact>
</mgrwt>
</event>
<event>
 5    1  0.2357694E-004  0.6479772E+03  0.7818608E-02  0.9810582E-01
         13   -1    0    0    0    0  0.00000000000E+00  0.00000000000E+00  0.10000000000E+04  0.10000000000E+04  0.00000000000E+00 0. -1.
          2   -1    0    0  501    0 -0.00000000000E+00 -0.00000000000E+00 -0.10496859722E+03  0.10496859722E+03  0.00000000000E+00 0. -1.
    9000006    2    1    2  501    0  0.00000000000E+00  0.00000000000E+00  0.89503140278E+03  0.11049685972E+04  0.64797715151E+03 0.  0.
         13    1    3    3    0    0 -0.31257042891E+03  0.60385729312E+01  0.30249992792E+03  0.43502062455E+03  0.00000000000E+00 0. -1.
          2    1    3    3  501    0  0.31257042891E+03 -0.60385729312E+01  0.59253147486E+03  0.66994797267E+03  0.00000000000E+00 0. -1.
<mgrwt>
<rscale>  0 0.64797715E+03</rscale>
<asrwt>0</asrwt>
<pdfrwt beam="1">0</pdfrwt>
<pdfrwt beam="2">  1        2 0.38170479E+00 0.64797715E+03</pdfrwt>
<totfact> 0.46597476E+00</totfact>
</mgrwt>
</event>
<event>
 5    1  0.2357694E-004  0.6382331E+03  0.7818608E-02  0.9829113E-01
         13   -1    0    0    0    0  0.00000000000E+00  0.00000000000E+00  0.10000000000E+04  0.10000000000E+04  0.00000000000E+00 0. -1.
          2   -1    0    0  501    0 -0.00000000000E+00 -0.00000000000E+00 -0.10183536768E+03  0.10183536768E+03  0.00000000000E+00 0. -1.
    9000006    2    1    2  501    0  0.00000000000E+00  0.00000000000E+00  0.89816463232E+03  0.11018353677E+04  0.63823308496E+03 0.  0.
         13    1    3    3    0    0  0.21441356774E+01 -0.18500978850E+03  0.21535069470E+00  0.18502233793E+03  0.00000000000E+00 0. -1.
          2    1    3    3  501    0 -0.21441356774E+01  0.18500978850E+03  0.89794928162E+03  0.91681302975E+03  0.00000000000E+00 0. -1.
<mgrwt>
<rscale>  0 0.63823308E+03</rscale>
<asrwt>0</asrwt>
<pdfrwt beam="1">0</pdfrwt>
<pdfrwt beam="2">  1        2 0.37031121E+00 0.63823308E+03</pdfrwt>
<totfact> 0.51357264E+00</totfact>
</mgrwt>
</event>
<event>
 5    1  0.2357694E-004  0.6502395E+03  0.7818608E-02  0.9806330E-01
         13   -1    0    0    0    0  0.00000000000E+00  0.00000000000E+00  0.10000000000E+04  0.10000000000E+04  0.00000000000E+00 0. -1.
          2   -1    0    0  501    0 -0.00000000000E+00 -0.00000000000E+00 -0.10570284386E+03  0.10570284386E+03  0.00000000000E+00 0. -1.
    9000006    2    1    2  501    0  0.00000000000E+00  0.00000000000E+00  0.89429715614E+03  0.11057028439E+04  0.65023947547E+03 0.  0.
         13    1    3    3    0    0  0.25747615383E+03 -0.17789081638E+03  0.59697911962E+03  0.67403500028E+03  0.00000000000E+00 0. -1.
          4    1    3    3  501    0 -0.25747615383E+03  0.17789081638E+03  0.29731803652E+03  0.43166784358E+03  0.00000000000E+00 0. -1.
<mgrwt>
<rscale>  0 0.65023948E+03</rscale>
<asrwt>0</asrwt>
<pdfrwt beam="1">0</pdfrwt>
<pdfrwt beam="2">  1        2 0.38437479E+00 0.65023948E+03</pdfrwt>
<totfact> 0.45541900E+00</totfact>
</mgrwt>
</event>
<event>
 5    1  0.2357694E-004  0.6597394E+03  0.7818608E-02  0.9788674E-01
         13   -1    0    0    0    0  0.00000000000E+00  0.00000000000E+00  0.10000000000E+04  0.10000000000E+04  0.00000000000E+00 0. -1.
          2   -1    0    0  501    0 -0.00000000000E+00 -0.00000000000E+00 -0.10881400265E+03  0.10881400265E+03  0.00000000000E+00 0. -1.
    9000006    2    1    2  501    0  0.00000000000E+00  0.00000000000E+00  0.89118599735E+03  0.11088140026E+04  0.65973935049E+03 0.  0.
         13    1    3    3    0    0  0.29283726450E+03  0.13799244714E+03  0.55213336271E+03  0.64003658424E+03  0.00000000000E+00 0. -1.
          2    1    3    3  501    0 -0.29283726450E+03 -0.13799244714E+03  0.33905263464E+03  0.46877741841E+03  0.00000000000E+00 0. -1.
<mgrwt>
<rscale>  0 0.65973935E+03</rscale>
<asrwt>0</asrwt>
<pdfrwt beam="1">0</pdfrwt>
<pdfrwt beam="2">  1        2 0.39568812E+00 0.65973935E+03</pdfrwt>
<totfact> 0.41305242E+00</totfact>
</mgrwt>
</event>
<event>
 5    1  0.2357694E-004  0.6563200E+03  0.7818608E-02  0.9794992E-01
         13   -1    0    0    0    0  0.00000000000E+00  0.00000000000E+00  0.10000000000E+04  0.10000000000E+04  0.00000000000E+00 0. -1.
          2   -1    0    0  501    0 -0.00000000000E+00 -0.00000000000E+00 -0.10768900029E+03  0.10768900029E+03  0.00000000000E+00 0. -1.
    9000006    2    1    2  501    0  0.00000000000E+00  0.00000000000E+00  0.89231099971E+03  0.11076890003E+04  0.65632004478E+03 0.  0.
         13    1    3    3    0    0 -0.71054305359E+02 -0.26907154307E+02  0.98495102470E+03  0.98787713321E+03  0.00000000000E+00 0. -1.
          2    1    3    3  501    0  0.71054305359E+02  0.26907154307E+02 -0.92640024995E+02  0.11981186708E+03  0.00000000000E+00 0. -1.
<mgrwt>
<rscale>  0 0.65632004E+03</rscale>
<asrwt>0</asrwt>
<pdfrwt beam="1">0</pdfrwt>
<pdfrwt beam="2">  1        2 0.39159719E+00 0.65632004E+03</pdfrwt>
<totfact> 0.42794215E+00</totfact>
</mgrwt>
</event>
<event>
 5    1  0.2357694E-004  0.6772812E+03  0.7818608E-02  0.9756893E-01
         13   -1    0    0    0    0  0.00000000000E+00  0.00000000000E+00  0.10000000000E+04  0.10000000000E+04  0.00000000000E+00 0. -1.
          2   -1    0    0  501    0 -0.00000000000E+00 -0.00000000000E+00 -0.11467744365E+03  0.11467744365E+03  0.00000000000E+00 0. -1.
    9000006    2    1    2  501    0  0.00000000000E+00  0.00000000000E+00  0.88532255635E+03  0.11146774437E+04  0.67728116364E+03 0.  0.
         13    1    3    3    0    0 -0.79252784824E+02 -0.32472807900E+03  0.53202317653E+03  0.62831360765E+03  0.00000000000E+00 0. -1.
          4    1    3    3  501    0  0.79252784824E+02  0.32472807900E+03  0.35329937982E+03  0.48636383600E+03  0.00000000000E+00 0. -1.
<mgrwt>
<rscale>  0 0.67728116E+03</rscale>
<asrwt>0</asrwt>
<pdfrwt beam="1">0</pdfrwt>
<pdfrwt beam="2">  1        2 0.41700977E+00 0.67728116E+03</pdfrwt>
<totfact> 0.34271423E+00</totfact>
</mgrwt>
</event>
<event>
 5    1  0.2357694E-004  0.6407871E+03  0.7818608E-02  0.9824222E-01
         13   -1    0    0    0    0  0.00000000000E+00  0.00000000000E+00  0.10000000000E+04  0.10000000000E+04  0.00000000000E+00 0. -1.
          2   -1    0    0  501    0 -0.00000000000E+00 -0.00000000000E+00 -0.10265202957E+03  0.10265202957E+03  0.00000000000E+00 0. -1.
    9000006    2    1    2  501    0  0.00000000000E+00  0.00000000000E+00  0.89734797043E+03  0.11026520296E+04  0.64078710838E+03 0.  0.
         13    1    3    3    0    0 -0.25964559953E+03  0.18768555929E+03  0.44314521353E+03  0.54682665150E+03  0.00000000000E+00 0. -1.
          2    1    3    3  501    0  0.25964559953E+03 -0.18768555929E+03  0.45420275691E+03  0.55582537807E+03  0.00000000000E+00 0. -1.
<mgrwt>
<rscale>  0 0.64078711E+03</rscale>
<asrwt>0</asrwt>
<pdfrwt beam="1">0</pdfrwt>
<pdfrwt beam="2">  1        2 0.37328089E+00 0.64078711E+03</pdfrwt>
<totfact> 0.50075590E+00</totfact>
</mgrwt>
</event>
<event>
 5    1  0.2357694E-004  0.6415055E+03  0.7818608E-02  0.9822850E-01
         13   -1    0    0    0    0  0.00000000000E+00  0.00000000000E+00  0.10000000000E+04  0.10000000000E+04  0.00000000000E+00 0. -1.
          2   -1    0    0  501    0 -0.00000000000E+00 -0.00000000000E+00 -0.10288233731E+03  0.10288233731E+03  0.00000000000E+00 0. -1.
    9000006    2    1    2  501    0  0.00000000000E+00  0.00000000000E+00  0.89711766269E+03  0.11028823373E+04  0.64150553328E+03 0.  0.
         13    1    3    3    0    0  0.23430518876E+02  0.12300848943E+03 -0.59124195622E+02  0.13847652579E+03  0.00000000000E+00 0. -1.
          2    1    3    3  501    0 -0.23430518876E+02 -0.12300848943E+03  0.95624185832E+03  0.96440581151E+03  0.00000000000E+00 0. -1.
<mgrwt>
<rscale>  0 0.64150553E+03</rscale>
<asrwt>0</asrwt>
<pdfrwt beam="1">0</pdfrwt>
<pdfrwt beam="2">  1        2 0.37411838E+00 0.64150553E+03</pdfrwt>
<totfact> 0.49719472E+00</totfact>
</mgrwt>
</event>
<event>
 5    1  0.2357694E-004  0.6400799E+03  0.7818608E-02  0.9825574E-01
         13   -1    0    0    0    0  0.00000000000E+00  0.00000000000E+00  0.10000000000E+04  0.10000000000E+04  0.00000000000E+00 0. -1.
          2   -1    0    0  501    0 -0.00000000000E+00 -0.00000000000E+00 -0.10242556992E+03  0.10242556992E+03  0.00000000000E+00 0. -1.
    9000006    2    1    2  501    0  0.00000000000E+00  0.00000000000E+00  0.89757443008E+03  0.11024255699E+04  0.64007990100E+03 0.  0.
         13    1    3    3    0    0  0.23037595820E+03  0.21902187029E+03  0.38476146508E+03  0.49908420812E+03  0.00000000000E+00 0. -1.
          4    1    3    3  501    0 -0.23037595820E+03 -0.21902187029E+03  0.51281296500E+03  0.60334136180E+03  0.00000000000E+00 0. -1.
<mgrwt>
<rscale>  0 0.64007990E+03</rscale>
<asrwt>0</asrwt>
<pdfrwt beam="1">0</pdfrwt>
<pdfrwt beam="2">  1        2 0.37245740E+00 0.64007990E+03</pdfrwt>
<totfact> 0.50428031E+00</totfact>
</mgrwt>
</event>
<event>
 5    1  0.2357694E-004  0.5301419E+03  0.7818608E-02  0.1006198E+00
         13   -1    0    0    0    0  0.00000000000E+00  0.00000000000E+00  0.10000000000E+04  0.10000000000E+04  0.00000000000E+00 0. -1.
          2   -1    0    0  501    0 -0.00000000000E+00 -0.00000000000E+00 -0.70262612600E+02  0.70262612600E+02  0.00000000000E+00 0. -1.
    9000006    2    1    2  501    0  0.00000000000E+00  0.00000000000E+00  0.92973738740E+03  0.10702626126E+04  0.53014191534E+03 0.  0.
         13    1    3    3    0    0 -0.16670084578E+03  0.93084280046E+01  0.88050501775E+03  0.89619468035E+03  0.00000000000E+00 0. -1.
          2    1    3    3  501    0  0.16670084578E+03 -0.93084280046E+01  0.49232369654E+02  0.17406793225E+03  0.00000000000E+00 0. -1.
<mgrwt>
<rscale>  0 0.53014192E+03</rscale>
<asrwt>0</asrwt>
<pdfrwt beam="1">0</pdfrwt>
<pdfrwt beam="2">  1        2 0.25550095E+00 0.53014192E+03</pdfrwt>
<totfact> 0.13319470E+01</totfact>
</mgrwt>
</event>
<event>
 5    1  0.2357694E-004  0.6492873E+03  0.7818608E-02  0.9808117E-01
         13   -1    0    0    0    0  0.00000000000E+00  0.00000000000E+00  0.10000000000E+04  0.10000000000E+04  0.00000000000E+00 0. -1.
          2   -1    0    0  501    0 -0.00000000000E+00 -0.00000000000E+00 -0.10539349337E+03  0.10539349337E+03  0.00000000000E+00 0. -1.
    9000006    2    1    2  501    0  0.00000000000E+00  0.00000000000E+00  0.89460650663E+03  0.11053934934E+04  0.64928728117E+03 0.  0.
         13    1    3    3    0    0  0.13436667055E+03  0.12688750568E+03  0.90170276413E+03  0.92044701971E+03  0.00000000000E+00 0. -1.
          4    1    3    3  501    0 -0.13436667055E+03 -0.12688750568E+03 -0.70962575025E+01  0.18494647366E+03  0.00000000000E+00 0. -1.
<mgrwt>
<rscale>  0 0.64928728E+03</rscale>
<asrwt>0</asrwt>
<pdfrwt beam="1">0</pdfrwt>
<pdfrwt beam="2">  1        2 0.38324987E+00 0.64928728E+03</pdfrwt>
<totfact> 0.45983956E+00</totfact>
</mgrwt>
</event>
<event>
 5    1  0.2357694E-004  0.5802385E+03  0.7818608E-02  0.9947275E-01
         13   -1    0    0    0    0  0.00000000000E+00  0.00000000000E+00  0.10000000000E+04  0.10000000000E+04  0.00000000000E+00 0. -1.
          2   -1    0    0  501    0 -0.00000000000E+00 -0.00000000000E+00 -0.84169173389E+02  0.84169173389E+02  0.00000000000E+00 0. -1.
    9000006    2    1    2  501    0  0.00000000000E+00  0.00000000000E+00  0.91583082661E+03  0.10841691734E+04  0.58023847990E+03 0.  0.
         13    1    3    3    0    0 -0.13815885217E+03  0.25145962849E+03  0.53826826252E+03  0.60996109354E+03  0.00000000000E+00 0. -1.
          4    1    3    3  501    0  0.13815885217E+03 -0.25145962849E+03  0.37756256409E+03  0.47420807985E+03  0.00000000000E+00 0. -1.
<mgrwt>
<rscale>  0 0.58023848E+03</rscale>
<asrwt>0</asrwt>
<pdfrwt beam="1">0</pdfrwt>
<pdfrwt beam="2">  1        2 0.30607037E+00 0.58023848E+03</pdfrwt>
<totfact> 0.87821577E+00</totfact>
</mgrwt>
</event>
<event>
 5    1  0.2357694E-004  0.6480889E+03  0.7818608E-02  0.9810372E-01
         13   -1    0    0    0    0  0.00000000000E+00  0.00000000000E+00  0.10000000000E+04  0.10000000000E+04  0.00000000000E+00 0. -1.
          2   -1    0    0  501    0 -0.00000000000E+00 -0.00000000000E+00 -0.10500479506E+03  0.10500479506E+03  0.00000000000E+00 0. -1.
    9000006    2    1    2  501    0  0.00000000000E+00  0.00000000000E+00  0.89499520494E+03  0.11050047951E+04  0.64808886754E+03 0.  0.
         13    1    3    3    0    0  0.31210785085E+03  0.53865772402E+02  0.56428793457E+03  0.64709636461E+03  0.00000000000E+00 0. -1.
          2    1    3    3  501    0 -0.31210785085E+03 -0.53865772402E+02  0.33070727037E+03  0.45790843045E+03  0.00000000000E+00 0. -1.
<mgrwt>
<rscale>  0 0.64808887E+03</rscale>
<asrwt>0</asrwt>
<pdfrwt beam="1">0</pdfrwt>
<pdfrwt beam="2">  1        2 0.38183642E+00 0.64808887E+03</pdfrwt>
<totfact> 0.46544921E+00</totfact>
</mgrwt>
</event>
<event>
 5    1  0.2357694E-004  0.6520729E+03  0.7818608E-02  0.9802897E-01
         13   -1    0    0    0    0  0.00000000000E+00  0.00000000000E+00  0.10000000000E+04  0.10000000000E+04  0.00000000000E+00 0. -1.
          2   -1    0    0  501    0 -0.00000000000E+00 -0.00000000000E+00 -0.10629976325E+03  0.10629976325E+03  0.00000000000E+00 0. -1.
    9000006    2    1    2  501    0  0.00000000000E+00  0.00000000000E+00  0.89370023675E+03  0.11062997633E+04  0.65207288933E+03 0.  0.
         13    1    3    3    0    0  0.32816173462E+02  0.15928461059E+03 -0.32571487417E+02  0.16585954963E+03  0.00000000000E+00 0. -1.
          4    1    3    3  501    0 -0.32816173462E+02 -0.15928461059E+03  0.92627172417E+03  0.94044021362E+03  0.00000000000E+00 0. -1.
<mgrwt>
<rscale>  0 0.65207289E+03</rscale>
<asrwt>0</asrwt>
<pdfrwt beam="1">0</pdfrwt>
<pdfrwt beam="2">  1        2 0.38654541E+00 0.65207289E+03</pdfrwt>
<totfact> 0.44699788E+00</totfact>
</mgrwt>
</event>
<event>
 5    1  0.2357694E-004  0.6457969E+03  0.7818608E-02  0.9814698E-01
         13   -1    0    0    0    0  0.00000000000E+00  0.00000000000E+00  0.10000000000E+04  0.10000000000E+04  0.00000000000E+00 0. -1.
          2   -1    0    0  501    0 -0.00000000000E+00 -0.00000000000E+00 -0.10426341188E+03  0.10426341188E+03  0.00000000000E+00 0. -1.
    9000006    2    1    2  501    0  0.00000000000E+00  0.00000000000E+00  0.89573658812E+03  0.11042634119E+04  0.64579690889E+03 0.  0.
         13    1    3    3    0    0 -0.10392988305E+03 -0.30382466472E+03  0.38981734539E+03  0.50504297861E+03  0.00000000000E+00 0. -1.
          4    1    3    3  501    0  0.10392988305E+03  0.30382466472E+03  0.50591924273E+03  0.59922043327E+03  0.00000000000E+00 0. -1.
<mgrwt>
<rscale>  0 0.64579691E+03</rscale>
<asrwt>0</asrwt>
<pdfrwt beam="1">0</pdfrwt>
<pdfrwt beam="2">  1        2 0.37914048E+00 0.64579691E+03</pdfrwt>
<totfact> 0.47632158E+00</totfact>
</mgrwt>
</event>
<event>
 5    1  0.2357694E-004  0.6503642E+03  0.7818608E-02  0.9806096E-01
         13   -1    0    0    0    0  0.00000000000E+00  0.00000000000E+00  0.10000000000E+04  0.10000000000E+04  0.00000000000E+00 0. -1.
          2   -1    0    0  501    0 -0.00000000000E+00 -0.00000000000E+00 -0.10574340588E+03  0.10574340588E+03  0.00000000000E+00 0. -1.
    9000006    2    1    2  501    0  0.00000000000E+00  0.00000000000E+00  0.89425659412E+03  0.11057434059E+04  0.65036422375E+03 0.  0.
         13    1    3    3    0    0  0.11170240986E+03  0.21997557859E+03  0.80729891432E+03  0.84415532967E+03  0.00000000000E+00 0. -1.
          2    1    3    3  501    0 -0.11170240986E+03 -0.21997557859E+03  0.86957679798E+02  0.26158807622E+03  0.00000000000E+00 0. -1.
<mgrwt>
<rscale>  0 0.65036422E+03</rscale>
<asrwt>0</asrwt>
<pdfrwt beam="1">0</pdfrwt>
<pdfrwt beam="2">  1        2 0.38452229E+00 0.65036422E+03</pdfrwt>
<totfact> 0.45484224E+00</totfact>
</mgrwt>
</event>
<event>
 5    1  0.2357694E-004  0.6495210E+03  0.7818608E-02  0.9807678E-01
         13   -1    0    0    0    0  0.00000000000E+00  0.00000000000E+00  0.10000000000E+04  0.10000000000E+04  0.00000000000E+00 0. -1.
          2   -1    0    0  501    0 -0.00000000000E+00 -0.00000000000E+00 -0.10546939073E+03  0.10546939073E+03  0.00000000000E+00 0. -1.
    9000006    2    1    2  501    0  0.00000000000E+00  0.00000000000E+00  0.89453060927E+03  0.11054693907E+04  0.64952102576E+03 0.  0.
         13    1    3    3    0    0  0.29620849010E+03 -0.95208136283E+02  0.28883213581E+03  0.42453275669E+03  0.00000000000E+00 0. -1.
          4    1    3    3  501    0 -0.29620849010E+03  0.95208136283E+02  0.60569847346E+03  0.68093663404E+03  0.00000000000E+00 0. -1.
<mgrwt>
<rscale>  0 0.64952103E+03</rscale>
<asrwt>0</asrwt>
<pdfrwt beam="1">0</pdfrwt>
<pdfrwt beam="2">  1        2 0.38352587E+00 0.64952103E+03</pdfrwt>
<totfact> 0.45875141E+00</totfact>
</mgrwt>
</event>
<event>
 5    1  0.2357694E-004  0.6384960E+03  0.7818608E-02  0.9828608E-01
         13   -1    0    0    0    0  0.00000000000E+00  0.00000000000E+00  0.10000000000E+04  0.10000000000E+04  0.00000000000E+00 0. -1.
          2   -1    0    0  501    0 -0.00000000000E+00 -0.00000000000E+00 -0.10191927615E+03  0.10191927615E+03  0.00000000000E+00 0. -1.
    9000006    2    1    2  501    0  0.00000000000E+00  0.00000000000E+00  0.89808072385E+03  0.11019192762E+04  0.63849597071E+03 0.  0.
         13    1    3    3    0    0  0.84798579419E+02  0.12969257861E+01  0.98020363859E+03  0.98386566878E+03  0.00000000000E+00 0. -1.
          2    1    3    3  501    0 -0.84798579419E+02 -0.12969257861E+01 -0.82122914745E+02  0.11805360737E+03  0.00000000000E+00 0. -1.
<mgrwt>
<rscale>  0 0.63849597E+03</rscale>
<asrwt>0</asrwt>
<pdfrwt beam="1">0</pdfrwt>
<pdfrwt beam="2">  1        2 0.37061633E+00 0.63849597E+03</pdfrwt>
<totfact> 0.51224206E+00</totfact>
</mgrwt>
</event>
<event>
 5    1  0.2357694E-004  0.6472095E+03  0.7818608E-02  0.9812029E-01
         13   -1    0    0    0    0  0.00000000000E+00  0.00000000000E+00  0.10000000000E+04  0.10000000000E+04  0.00000000000E+00 0. -1.
          2   -1    0    0  501    0 -0.00000000000E+00 -0.00000000000E+00 -0.10472003371E+03  0.10472003371E+03  0.00000000000E+00 0. -1.
    9000006    2    1    2  501    0  0.00000000000E+00  0.00000000000E+00  0.89527996629E+03  0.11047200337E+04  0.64720949842E+03 0.  0.
         13    1    3    3    0    0  0.10740459141E+03 -0.24182313314E+03  0.12965343296E+03  0.29465944183E+03  0.00000000000E+00 0. -1.
          2    1    3    3  501    0 -0.10740459141E+03  0.24182313314E+03  0.76562653333E+03  0.81006059188E+03  0.00000000000E+00 0. -1.
<mgrwt>
<rscale>  0 0.64720950E+03</rscale>
<asrwt>0</asrwt>
<pdfrwt beam="1">0</pdfrwt>
<pdfrwt beam="2">  1        2 0.38080093E+00 0.64720950E+03</pdfrwt>
<totfact> 0.46959824E+00</totfact>
</mgrwt>
</event>
<event>
 5    1  0.2357694E-004  0.6513963E+03  0.7818608E-02  0.9804163E-01
         13   -1    0    0    0    0  0.00000000000E+00  0.00000000000E+00  0.10000000000E+04  0.10000000000E+04  0.00000000000E+00 0. -1.
          2   -1    0    0  501    0 -0.00000000000E+00 -0.00000000000E+00 -0.10607927639E+03  0.10607927639E+03  0.00000000000E+00 0. -1.
    9000006    2    1    2  501    0  0.00000000000E+00  0.00000000000E+00  0.89392072361E+03  0.11060792764E+04  0.65139627383E+03 0.  0.
         13    1    3    3    0    0  0.17553401088E+03 -0.70306085708E+02  0.89725129850E+03  0.91695966505E+03  0.00000000000E+00 0. -1.
          4    1    3    3  501    0 -0.17553401088E+03  0.70306085708E+02 -0.33305748940E+01  0.18911961134E+03  0.00000000000E+00 0. -1.
<mgrwt>
<rscale>  0 0.65139627E+03</rscale>
<asrwt>0</asrwt>
<pdfrwt beam="1">0</pdfrwt>
<pdfrwt beam="2">  1        2 0.38574364E+00 0.65139627E+03</pdfrwt>
<totfact> 0.45009185E+00</totfact>
</mgrwt>
</event>
<event>
 5    1  0.2357694E-004  0.6469778E+03  0.7818608E-02  0.9812467E-01
         13   -1    0    0    0    0  0.00000000000E+00  0.00000000000E+00  0.10000000000E+04  0.10000000000E+04  0.00000000000E+00 0. -1.
          2   -1    0    0  501    0 -0.00000000000E+00 -0.00000000000E+00 -0.10464507205E+03  0.10464507205E+03  0.00000000000E+00 0. -1.
    9000006    2    1    2  501    0  0.00000000000E+00  0.00000000000E+00  0.89535492795E+03  0.11046450721E+04  0.64697781121E+03 0.  0.
         13    1    3    3    0    0  0.15831892504E+03  0.71933304398E+02  0.91341017125E+03  0.92981580071E+03  0.00000000000E+00 0. -1.
          4    1    3    3  501    0 -0.15831892504E+03 -0.71933304398E+02 -0.18055243299E+02  0.17482927134E+03  0.00000000000E+00 0. -1.
<mgrwt>
<rscale>  0 0.64697781E+03</rscale>
<asrwt>0</asrwt>
<pdfrwt beam="1">0</pdfrwt>
<pdfrwt beam="2">  1        2 0.38052834E+00 0.64697781E+03</pdfrwt>
<totfact> 0.47069602E+00</totfact>
</mgrwt>
</event>
<event>
 5    1  0.2357694E-004  0.6526250E+03  0.7818608E-02  0.9801866E-01
         13   -1    0    0    0    0  0.00000000000E+00  0.00000000000E+00  0.10000000000E+04  0.10000000000E+04  0.00000000000E+00 0. -1.
          2   -1    0    0  501    0 -0.00000000000E+00 -0.00000000000E+00 -0.10647985216E+03  0.10647985216E+03  0.00000000000E+00 0. -1.
    9000006    2    1    2  501    0  0.00000000000E+00  0.00000000000E+00  0.89352014784E+03  0.11064798522E+04  0.65262501381E+03 0.  0.
         13    1    3    3    0    0 -0.18251617796E+03  0.25555196601E+03  0.29644046276E+03  0.43185172283E+03  0.00000000000E+00 0. -1.
          2    1    3    3  501    0  0.18251617796E+03 -0.25555196601E+03  0.59707968508E+03  0.67462812933E+03  0.00000000000E+00 0. -1.
<mgrwt>
<rscale>  0 0.65262501E+03</rscale>
<asrwt>0</asrwt>
<pdfrwt beam="1">0</pdfrwt>
<pdfrwt beam="2">  1        2 0.38720028E+00 0.65262501E+03</pdfrwt>
<totfact> 0.44448511E+00</totfact>
</mgrwt>
</event>
<event>
 5    1  0.2357694E-004  0.6495318E+03  0.7818608E-02  0.9807658E-01
         13   -1    0    0    0    0  0.00000000000E+00  0.00000000000E+00  0.10000000000E+04  0.10000000000E+04  0.00000000000E+00 0. -1.
          2   -1    0    0  501    0 -0.00000000000E+00 -0.00000000000E+00 -0.10547289238E+03  0.10547289238E+03  0.00000000000E+00 0. -1.
    9000006    2    1    2  501    0  0.00000000000E+00  0.00000000000E+00  0.89452710762E+03  0.11054728924E+04  0.64953180792E+03 0.  0.
         13    1    3    3    0    0  0.31583431293E+03 -0.15292254191E+02  0.57334288258E+03  0.65475738046E+03  0.00000000000E+00 0. -1.
          4    1    3    3  501    0 -0.31583431293E+03  0.15292254191E+02  0.32118422505E+03  0.45071551192E+03  0.00000000000E+00 0. -1.
<mgrwt>
<rscale>  0 0.64953181E+03</rscale>
<asrwt>0</asrwt>
<pdfrwt beam="1">0</pdfrwt>
<pdfrwt beam="2">  1        2 0.38353860E+00 0.64953181E+03</pdfrwt>
<totfact> 0.45870126E+00</totfact>
</mgrwt>
</event>
<event>
 5    1  0.2357694E-004  0.6395648E+03  0.7818608E-02  0.9826560E-01
         13   -1    0    0    0    0  0.00000000000E+00  0.00000000000E+00  0.10000000000E+04  0.10000000000E+04  0.00000000000E+00 0. -1.
          2   -1    0    0  501    0 -0.00000000000E+00 -0.00000000000E+00 -0.10226076944E+03  0.10226076944E+03  0.00000000000E+00 0. -1.
    9000006    2    1    2  501    0  0.00000000000E+00  0.00000000000E+00  0.89773923056E+03  0.11022607694E+04  0.63956475652E+03 0.  0.
         13    1    3    3    0    0 -0.13882608422E+03  0.66942154352E+02  0.93176556594E+03  0.94442628276E+03  0.00000000000E+00 0. -1.
          4    1    3    3  501    0  0.13882608422E+03 -0.66942154352E+02 -0.34026335386E+02  0.15783448669E+03  0.00000000000E+00 0. -1.
<mgrwt>
<rscale>  0 0.63956476E+03</rscale>
<asrwt>0</asrwt>
<pdfrwt beam="1">0</pdfrwt>
<pdfrwt beam="2">  1        2 0.37185813E+00 0.63956476E+03</pdfrwt>
<totfact> 0.50685937E+00</totfact>
</mgrwt>
</event>
<event>
 5    1  0.2357694E-004  0.6456374E+03  0.7818608E-02  0.9815000E-01
         13   -1    0    0    0    0  0.00000000000E+00  0.00000000000E+00  0.10000000000E+04  0.10000000000E+04  0.00000000000E+00 0. -1.
          2   -1    0    0  501    0 -0.00000000000E+00 -0.00000000000E+00 -0.10421191955E+03  0.10421191955E+03  0.00000000000E+00 0. -1.
    9000006    2    1    2  501    0  0.00000000000E+00  0.00000000000E+00  0.89578808045E+03  0.11042119195E+04  0.64563742007E+03 0.  0.
         13    1    3    3    0    0  0.48640810361E+02  0.30392859500E+03  0.28143143745E+03  0.41706375205E+03  0.00000000000E+00 0. -1.
          4    1    3    3  501    0 -0.48640810361E+02 -0.30392859500E+03  0.61435664301E+03  0.68714816750E+03  0.00000000000E+00 0. -1.
<mgrwt>
<rscale>  0 0.64563742E+03</rscale>
<asrwt>0</asrwt>
<pdfrwt beam="1">0</pdfrwt>
<pdfrwt beam="2">  1        2 0.37895323E+00 0.64563742E+03</pdfrwt>
<totfact> 0.47708523E+00</totfact>
</mgrwt>
</event>
<event>
 5    1  0.2357694E-004  0.4696476E+03  0.7818608E-02  0.1022020E+00
         13   -1    0    0    0    0  0.00000000000E+00  0.00000000000E+00  0.10000000000E+04  0.10000000000E+04  0.00000000000E+00 0. -1.
          2   -1    0    0  501    0 -0.00000000000E+00 -0.00000000000E+00 -0.55142207090E+02  0.55142207090E+02  0.00000000000E+00 0. -1.
    9000006    2    1    2  501    0  0.00000000000E+00  0.00000000000E+00  0.94485779291E+03  0.10551422071E+04  0.46964755760E+03 0.  0.
         13    1    3    3    0    0  0.23064521671E+03  0.40580070006E+02  0.51122860288E+03  0.56231542969E+03  0.00000000000E+00 0. -1.
          4    1    3    3  501    0 -0.23064521671E+03 -0.40580070006E+02  0.43362919003E+03  0.49282677740E+03  0.00000000000E+00 0. -1.
<mgrwt>
<rscale>  0 0.46964756E+03</rscale>
<asrwt>0</asrwt>
<pdfrwt beam="1">0</pdfrwt>
<pdfrwt beam="2">  1        2 0.20051754E+00 0.46964756E+03</pdfrwt>
<totfact> 0.21149855E+01</totfact>
</mgrwt>
</event>
<event>
 5    1  0.2357694E-004  0.6482535E+03  0.7818608E-02  0.9810062E-01
         13   -1    0    0    0    0  0.00000000000E+00  0.00000000000E+00  0.10000000000E+04  0.10000000000E+04  0.00000000000E+00 0. -1.
          2   -1    0    0  501    0 -0.00000000000E+00 -0.00000000000E+00 -0.10505814967E+03  0.10505814967E+03  0.00000000000E+00 0. -1.
    9000006    2    1    2  501    0  0.00000000000E+00  0.00000000000E+00  0.89494185033E+03  0.11050581497E+04  0.64825349878E+03 0.  0.
         13    1    3    3    0    0  0.65786314358E+02 -0.23089939335E+03  0.81866558102E+03  0.85314459651E+03  0.00000000000E+00 0. -1.
          4    1    3    3  501    0 -0.65786314358E+02  0.23089939335E+03  0.76276269306E+02  0.25191355316E+03  0.00000000000E+00 0. -1.
<mgrwt>
<rscale>  0 0.64825350E+03</rscale>
<asrwt>0</asrwt>
<pdfrwt beam="1">0</pdfrwt>
<pdfrwt beam="2">  1        2 0.38203044E+00 0.64825350E+03</pdfrwt>
<totfact> 0.46467554E+00</totfact>
</mgrwt>
</event>
<event>
 5    1  0.2357694E-004  0.6462765E+03  0.7818608E-02  0.9813791E-01
         13   -1    0    0    0    0  0.00000000000E+00  0.00000000000E+00  0.10000000000E+04  0.10000000000E+04  0.00000000000E+00 0. -1.
          2   -1    0    0  501    0 -0.00000000000E+00 -0.00000000000E+00 -0.10441831664E+03  0.10441831664E+03  0.00000000000E+00 0. -1.
    9000006    2    1    2  501    0  0.00000000000E+00  0.00000000000E+00  0.89558168336E+03  0.11044183166E+04  0.64627646295E+03 0.  0.
         13    1    3    3    0    0 -0.25288165170E+03 -0.11246783649E+03  0.16275782347E+03  0.32107359454E+03  0.00000000000E+00 0. -1.
          2    1    3    3  501    0  0.25288165170E+03  0.11246783649E+03  0.73282385989E+03  0.78334472210E+03  0.00000000000E+00 0. -1.
<mgrwt>
<rscale>  0 0.64627646E+03</rscale>
<asrwt>0</asrwt>
<pdfrwt beam="1">0</pdfrwt>
<pdfrwt beam="2">  1        2 0.37970377E+00 0.64627646E+03</pdfrwt>
<totfact> 0.47403100E+00</totfact>
</mgrwt>
</event>
<event>
 5    1  0.2357694E-004  0.6876539E+03  0.7818608E-02  0.9738582E-01
         13   -1    0    0    0    0  0.00000000000E+00  0.00000000000E+00  0.10000000000E+04  0.10000000000E+04  0.00000000000E+00 0. -1.
          2   -1    0    0  501    0 -0.00000000000E+00 -0.00000000000E+00 -0.11821695488E+03  0.11821695488E+03  0.00000000000E+00 0. -1.
    9000006    2    1    2  501    0  0.00000000000E+00  0.00000000000E+00  0.88178304512E+03  0.11182169549E+04  0.68765385152E+03 0.  0.
         13    1    3    3    0    0 -0.51270142744E+02  0.18835865030E+03  0.90114575063E+03  0.92204732664E+03  0.00000000000E+00 0. -1.
          2    1    3    3  501    0  0.51270142744E+02 -0.18835865030E+03 -0.19362705508E+02  0.19616962824E+03  0.00000000000E+00 0. -1.
<mgrwt>
<rscale>  0 0.68765385E+03</rscale>
<asrwt>0</asrwt>
<pdfrwt beam="1">0</pdfrwt>
<pdfrwt beam="2">  1        2 0.42988074E+00 0.68765385E+03</pdfrwt>
<totfact> 0.30561777E+00</totfact>
</mgrwt>
</event>
