<event>
 6    1  0.7408003E-003  0.5257671E+03  0.7818608E-02  0.1007264E+00
          1   -1    0    0  502    0  0.00000000000E+00  0.00000000000E+00  0.69107934970E+02  0.69107934970E+02  0.00000000000E+00 0.  1.
         13   -1    0    0    0    0 -0.00000000000E+00 -0.00000000000E+00 -0.10000000000E+04  0.10000000000E+04  0.00000000000E+00 0.  1.
    9000005    2    1    2  501    0  0.11701647082E-04 -0.16545453548E-04 -0.93089222554E+03  0.10691077732E+04  0.52576714912E+03 0.  0.
         13    1    3    3    0    0  0.17020894838E+03  0.19657165795E+03 -0.54410231202E+03  0.60304131597E+03  0.00000000000E+00 0.  1.
          1    1    3    3  501    0 -0.17020893668E+03 -0.19657167449E+03 -0.38678991352E+03  0.46606645721E+03  0.00000000000E+00 0.  1.
         21    1    1    2  502  501 -0.11701647070E-04  0.16545453550E-04  0.16051392443E-03  0.16178813465E-03  0.00000000000E+00 0.  1.
<mgrwt>
<rscale>  1 0.52576715E+03</rscale>
<asrwt>0</asrwt>
<pdfrwt beam="1">  1        1 0.25130211E+00 0.52576715E+03</pdfrwt>
<pdfrwt beam="2">0</pdfrwt>
<totfact> 0.60695351E+00</totfact>
</mgrwt>
</event>
<event>
 6    1  0.7408003E-003  0.5806192E+03  0.7818608E-02  0.9946451E-01
          1   -1    0    0  502    0  0.00000000000E+00  0.00000000000E+00  0.84283888092E+02  0.84283888092E+02  0.00000000000E+00 0.  1.
         13   -1    0    0    0    0 -0.00000000000E+00 -0.00000000000E+00 -0.10000000000E+04  0.10000000000E+04  0.00000000000E+00 0.  1.
    9000005    2    1    2  501    0 -0.92386918329E-02 -0.25432034813E-02 -0.91571363262E+03  0.10842739902E+04  0.58061917706E+03 0.  0.
         13    1    3    3    0    0 -0.14168152603E+03  0.80244315962E+02 -0.90669941905E+03  0.92120390879E+03  0.00000000000E+00 0.  1.
          1    1    3    3  501    0  0.14167228734E+03 -0.80246859166E+02 -0.90142135703E+01  0.16307008142E+03  0.00000000000E+00 0.  1.
         21    1    1    2  502  501  0.92386918329E-02  0.25432034813E-02 -0.24792869509E-02  0.98978873764E-02  0.00000000000E+00 0.  1.
<mgrwt>
<rscale>  1 0.58061918E+03</rscale>
<asrwt>0</asrwt>
<pdfrwt beam="1">  1        1 0.30648751E+00 0.58061918E+03</pdfrwt>
<pdfrwt beam="2">0</pdfrwt>
<totfact> 0.34714317E+00</totfact>
</mgrwt>
</event>
<event>
 6    1  0.7408003E-003  0.6509272E+03  0.7818608E-02  0.9805041E-01
          1   -1    0    0  502    0  0.00000000000E+00  0.00000000000E+00  0.10592904968E+03  0.10592904968E+03  0.00000000000E+00 0.  1.
         13   -1    0    0    0    0 -0.00000000000E+00 -0.00000000000E+00 -0.10000000000E+04  0.10000000000E+04  0.00000000000E+00 0.  1.
    9000005    2    1    2  501    0  0.27050601595E-03 -0.76725166061E-02 -0.89406052429E+03  0.11059161020E+04  0.65092718753E+03 0.  0.
         13    1    3    3    0    0  0.11486262513E+03  0.29853959657E+03 -0.34501588605E+03  0.47048408581E+03  0.00000000000E+00 0.  1.
          1    1    3    3  501    0 -0.11486235462E+03 -0.29854726909E+03 -0.54904463824E+03  0.63543201617E+03  0.00000000000E+00 0.  1.
         21    1    1    2  502  501 -0.27050601595E-03  0.76725166061E-02 -0.10426033757E-01  0.12947697266E-01  0.00000000000E+00 0. -1.
<mgrwt>
<rscale>  1 0.65092719E+03</rscale>
<asrwt>0</asrwt>
<pdfrwt beam="1">  1        1 0.38519736E+00 0.65092719E+03</pdfrwt>
<pdfrwt beam="2">0</pdfrwt>
<totfact> 0.15561981E+00</totfact>
</mgrwt>
</event>
<event>
 6    1  0.7408003E-003  0.6456048E+03  0.7818608E-02  0.9815062E-01
          1   -1    0    0  502    0  0.00000000000E+00  0.00000000000E+00  0.10529508354E+03  0.10529508354E+03  0.00000000000E+00 0.  1.
         13   -1    0    0    0    0 -0.00000000000E+00 -0.00000000000E+00 -0.10000000000E+04  0.10000000000E+04  0.00000000000E+00 0.  1.
    9000005    2    1    2  501    0 -0.42838487249E-03  0.25998809131E-01 -0.89579842821E+03  0.11042012627E+04  0.64560483569E+03 0.  0.
         13    1    3    3    0    0  0.72704830945E+02  0.27321534366E+02  0.87982379058E+02  0.11735994933E+03  0.00000000000E+00 0.  1.
          3    1    3    3  501    0 -0.72705259329E+02 -0.27295535557E+02 -0.98378080726E+03  0.98684131335E+03  0.00000000000E+00 0.  1.
         21    1    1    2  502  501  0.42838487249E-03 -0.25998809131E-01  0.10935117477E+01  0.10938208555E+01  0.00000000000E+00 0. -1.
<mgrwt>
<rscale>  1 0.64560484E+03</rscale>
<asrwt>0</asrwt>
<pdfrwt beam="1">  1        1 0.38289202E+00 0.64560484E+03</pdfrwt>
<pdfrwt beam="2">0</pdfrwt>
<totfact> 0.15947173E+00</totfact>
</mgrwt>
</event>
<event>
 6    1  0.7408003E-003  0.6463478E+03  0.7818608E-02  0.9813657E-01
          1   -1    0    0  502    0  0.00000000000E+00  0.00000000000E+00  0.10444994798E+03  0.10444994798E+03  0.00000000000E+00 0.  1.
         13   -1    0    0    0    0 -0.00000000000E+00 -0.00000000000E+00 -0.10000000000E+04  0.10000000000E+04  0.00000000000E+00 0.  1.
    9000005    2    1    2  501    0 -0.12338802288E-02 -0.60961016792E-02 -0.89555738147E+03  0.11044403352E+04  0.64634776278E+03 0.  0.
         13    1    3    3    0    0  0.36059329371E+02  0.31234573712E+03 -0.57540806854E+03  0.65570921915E+03  0.00000000000E+00 0.  1.
          1    1    3    3  501    0 -0.36060563251E+02 -0.31235183322E+03 -0.32014931293E+03  0.44873111604E+03  0.00000000000E+00 0.  1.
         21    1    1    2  502  501  0.12338802288E-02  0.60961016792E-02  0.73294523785E-02  0.96127929485E-02  0.00000000000E+00 0. -1.
<mgrwt>
<rscale>  1 0.64634776E+03</rscale>
<asrwt>0</asrwt>
<pdfrwt beam="1">  1        1 0.37981879E+00 0.64634776E+03</pdfrwt>
<pdfrwt beam="2">0</pdfrwt>
<totfact> 0.16451000E+00</totfact>
</mgrwt>
</event>
<event>
 6    1  0.7408003E-003  0.6500649E+03  0.7818608E-02  0.9806657E-01
          1   -1    0    0  502    0  0.00000000000E+00  0.00000000000E+00  0.10761524278E+03  0.10761524278E+03  0.00000000000E+00 0.  1.
         13   -1    0    0    0    0 -0.00000000000E+00 -0.00000000000E+00 -0.10000000000E+04  0.10000000000E+04  0.00000000000E+00 0.  1.
    9000005    2    1    2  501    0  0.21437237203E+00  0.15243074830E+00 -0.89434420090E+03  0.11056382222E+04  0.65006481186E+03 0.  0.
         13    1    3    3    0    0  0.53895788024E+02 -0.17997238745E+03  0.39307908280E+01  0.18791026403E+03  0.00000000000E+00 0.  1.
          3    1    3    3  501    0 -0.53681415652E+02  0.18012481820E+03 -0.89827499173E+03  0.91772795821E+03  0.00000000000E+00 0.  1.
         21    1    1    2  502  501 -0.21437237203E+00 -0.15243074830E+00  0.19594436829E+01  0.19770205344E+01  0.00000000000E+00 0. -1.
<mgrwt>
<rscale>  1 0.65006487E+03</rscale>
<asrwt>0</asrwt>
<pdfrwt beam="1">  1        1 0.39132898E+00 0.65006487E+03</pdfrwt>
<pdfrwt beam="2">0</pdfrwt>
<totfact> 0.14620747E+00</totfact>
</mgrwt>
</event>
<event>
 6    1  0.7408003E-003  0.6474868E+03  0.7818608E-02  0.9811507E-01
          1   -1    0    0  502    0  0.00000000000E+00  0.00000000000E+00  0.10481301771E+03  0.10481301771E+03  0.00000000000E+00 0.  1.
         13   -1    0    0    0    0 -0.00000000000E+00 -0.00000000000E+00 -0.10000000000E+04  0.10000000000E+04  0.00000000000E+00 0.  1.
    9000005    2    1    2  501    0 -0.43182633378E-03 -0.12179825442E-02 -0.89519007223E+03  0.11048096684E+04  0.64748678599E+03 0.  0.
         13    1    3    3    0    0  0.79806377600E+02 -0.29285036420E+03 -0.63973284054E+03  0.70808791896E+03  0.00000000000E+00 0.  1.
          3    1    3    3  501    0 -0.79806809427E+02  0.29284914622E+03 -0.25545723170E+03  0.39672174947E+03  0.00000000000E+00 0.  1.
         21    1    1    2  502  501  0.43182633378E-03  0.12179825442E-02  0.30899414147E-02  0.33492825212E-02  0.00000000000E+00 0.  1.
<mgrwt>
<rscale>  1 0.64748679E+03</rscale>
<asrwt>0</asrwt>
<pdfrwt beam="1">  1        1 0.38113905E+00 0.64748679E+03</pdfrwt>
<pdfrwt beam="2">0</pdfrwt>
<totfact> 0.16228362E+00</totfact>
</mgrwt>
</event>
<event>
 6    1  0.7408003E-003  0.6508770E+03  0.7818608E-02  0.9805135E-01
          1   -1    0    0  502    0  0.00000000000E+00  0.00000000000E+00  0.10602920588E+03  0.10602920588E+03  0.00000000000E+00 0.  1.
         13   -1    0    0    0    0 -0.00000000000E+00 -0.00000000000E+00 -0.10000000000E+04  0.10000000000E+04  0.00000000000E+00 0.  1.
    9000005    2    1    2  501    0  0.30299468121E+00  0.72939398530E-01 -0.89379329714E+03  0.11056705541E+04  0.65087696151E+03 0.  0.
         13    1    3    3    0    0 -0.20014429526E+03 -0.22028426514E+02 -0.88087526698E+03  0.90359516736E+03  0.00000000000E+00 0.  1.
          3    1    3    3  501    0  0.20044728994E+03  0.22101365913E+02 -0.12918030167E+02  0.20207538673E+03  0.00000000000E+00 0.  1.
         21    1    1    2  502  501 -0.30299468121E+00 -0.72939398530E-01 -0.17749697666E+00  0.35865179412E+00  0.00000000000E+00 0.  1.
<mgrwt>
<rscale>  1 0.65087704E+03</rscale>
<asrwt>0</asrwt>
<pdfrwt beam="1">  1        1 0.38556156E+00 0.65087704E+03</pdfrwt>
<pdfrwt beam="2">0</pdfrwt>
<totfact> 0.15504495E+00</totfact>
</mgrwt>
</event>
<event>
 6    1  0.7408003E-003  0.6541728E+03  0.7818608E-02  0.9798981E-01
          1   -1    0    0  502    0  0.00000000000E+00  0.00000000000E+00  0.11030915568E+03  0.11030915568E+03  0.00000000000E+00 0.  1.
         13   -1    0    0    0    0 -0.00000000000E+00 -0.00000000000E+00 -0.10000000000E+04  0.10000000000E+04  0.00000000000E+00 0.  1.
    9000005    2    1    2  501    0  0.14695939133E-02  0.54347625492E-01 -0.89301425009E+03  0.11069853052E+04  0.65417276938E+03 0.  0.
         13    1    3    3    0    0  0.90363717992E+02 -0.26747160003E+03 -0.72589076052E+03  0.77886074144E+03  0.00000000000E+00 0.  1.
          3    1    3    3  501    0 -0.90362248398E+02  0.26752594765E+03 -0.16712348957E+03  0.32812456380E+03  0.00000000000E+00 0.  1.
         21    1    1    2  502  501 -0.14695939132E-02 -0.54347625492E-01  0.33234057711E+01  0.33238504394E+01  0.00000000000E+00 0.  1.
<mgrwt>
<rscale>  1 0.65417277E+03</rscale>
<asrwt>0</asrwt>
<pdfrwt beam="1">  1        1 0.40112505E+00 0.65417277E+03</pdfrwt>
<pdfrwt beam="2">0</pdfrwt>
<totfact> 0.13214600E+00</totfact>
</mgrwt>
</event>
<event>
 6    1  0.7408003E-003  0.5169276E+03  0.7818608E-02  0.1009453E+00
          1   -1    0    0  502    0  0.00000000000E+00  0.00000000000E+00  0.66803574894E+02  0.66803574894E+02  0.00000000000E+00 0.  1.
         13   -1    0    0    0    0 -0.00000000000E+00 -0.00000000000E+00 -0.10000000000E+04  0.10000000000E+04  0.00000000000E+00 0.  1.
    9000005    2    1    2  501    0  0.82846760190E-05  0.15138785329E-04 -0.93319644845E+03  0.10668035459E+04  0.51692764876E+03 0.  0.
         13    1    3    3    0    0  0.15041143381E+02 -0.23468699412E+03 -0.24529340808E+03  0.33981329763E+03  0.00000000000E+00 0.  1.
          1    1    3    3  501    0 -0.15041135097E+02  0.23468700926E+03 -0.68790304038E+03  0.72699024823E+03  0.00000000000E+00 0.  1.
         21    1    1    2  502  501 -0.82846760203E-05 -0.15138785322E-04  0.23348350096E-04  0.29033844561E-04  0.00000000000E+00 0.  1.
<mgrwt>
<rscale>  1 0.51692765E+03</rscale>
<asrwt>0</asrwt>
<pdfrwt beam="1">  1        1 0.24292260E+00 0.51692765E+03</pdfrwt>
<pdfrwt beam="2">0</pdfrwt>
<totfact> 0.66116602E+00</totfact>
</mgrwt>
</event>
<event>
 6    1  0.7408003E-003  0.6537917E+03  0.7818608E-02  0.9799690E-01
          1   -1    0    0  502    0  0.00000000000E+00  0.00000000000E+00  0.10705089915E+03  0.10705089915E+03  0.00000000000E+00 0.  1.
         13   -1    0    0    0    0 -0.00000000000E+00 -0.00000000000E+00 -0.10000000000E+04  0.10000000000E+04  0.00000000000E+00 0.  1.
    9000005    2    1    2  501    0  0.46620537118E-01  0.12242484173E-02 -0.89313593726E+03  0.11068583302E+04  0.65379167815E+03 0.  0.
         13    1    3    3    0    0 -0.20713848363E+03 -0.89010447418E+02 -0.45836239227E+02  0.23006558191E+03  0.00000000000E+00 0.  1.
          1    1    3    3  501    0  0.20718510417E+03  0.89011671666E+02 -0.84729969804E+03  0.87679274825E+03  0.00000000000E+00 0.  1.
         21    1    1    2  502  501 -0.46620537118E-01 -0.12242484173E-02  0.18683641679E+00  0.19256900037E+00  0.00000000000E+00 0. -1.
<mgrwt>
<rscale>  1 0.65379168E+03</rscale>
<asrwt>0</asrwt>
<pdfrwt beam="1">  1        1 0.38927682E+00 0.65379168E+03</pdfrwt>
<pdfrwt beam="2">0</pdfrwt>
<totfact> 0.14920023E+00</totfact>
</mgrwt>
</event>
<event>
 6    1  0.7408003E-003  0.6477176E+03  0.7818608E-02  0.9811071E-01
          1   -1    0    0  502    0  0.00000000000E+00  0.00000000000E+00  0.10488452988E+03  0.10488452988E+03  0.00000000000E+00 0.  1.
         13   -1    0    0    0    0 -0.00000000000E+00 -0.00000000000E+00 -0.10000000000E+04  0.10000000000E+04  0.00000000000E+00 0.  1.
    9000005    2    1    2  501    0  0.11137185538E-05  0.22575191365E-05 -0.89511547255E+03  0.11048845264E+04  0.64771761397E+03 0.  0.
         13    1    3    3    0    0 -0.27181392363E+03  0.81271551311E+00 -0.14721340765E+03  0.30912013357E+03  0.00000000000E+00 0.  1.
          3    1    3    3  501    0  0.27181392475E+03 -0.81271325559E+00 -0.74790206490E+03  0.79576439281E+03  0.00000000000E+00 0.  1.
         21    1    1    2  502  501 -0.11137185383E-05 -0.22575191366E-05  0.24323132059E-05  0.35004155705E-05  0.00000000000E+00 0.  1.
<mgrwt>
<rscale>  1 0.64771761E+03</rscale>
<asrwt>0</asrwt>
<pdfrwt beam="1">  1        1 0.38139909E+00 0.64771761E+03</pdfrwt>
<pdfrwt beam="2">0</pdfrwt>
<totfact> 0.16184830E+00</totfact>
</mgrwt>
</event>
<event>
 6    1  0.7408003E-003  0.6473736E+03  0.7818608E-02  0.9811720E-01
          1   -1    0    0  502    0  0.00000000000E+00  0.00000000000E+00  0.11500068828E+03  0.11500068828E+03  0.00000000000E+00 0.  1.
         13   -1    0    0    0    0 -0.00000000000E+00 -0.00000000000E+00 -0.10000000000E+04  0.10000000000E+04  0.00000000000E+00 0.  1.
    9000005    2    1    2  501    0 -0.27980552635E+01  0.77485723697E+00 -0.89499874457E+03  0.11045882835E+04  0.64736704708E+03 0.  0.
         13    1    3    3    0    0 -0.26201856697E+03 -0.83901465670E+02 -0.74319116391E+03  0.79248109851E+03  0.00000000000E+00 0.  1.
          3    1    3    3  501    0  0.25922051171E+03  0.84676322907E+02 -0.15180758066E+03  0.31210718495E+03  0.00000000000E+00 0.  1.
         21    1    1    2  502  501  0.27980552635E+01 -0.77485723697E+00  0.99994328510E+01  0.10412404830E+02  0.00000000000E+00 0.  1.
<mgrwt>
<rscale>  1 0.64737356E+03</rscale>
<asrwt>0</asrwt>
<pdfrwt beam="1">  1        1 0.41818520E+00 0.64737356E+03</pdfrwt>
<pdfrwt beam="2">0</pdfrwt>
<totfact> 0.11095873E+00</totfact>
</mgrwt>
</event>
<event>
 6    1  0.7408003E-003  0.6489929E+03  0.7818608E-02  0.9808671E-01
          1   -1    0    0  502    0  0.00000000000E+00  0.00000000000E+00  0.10531820094E+03  0.10531820094E+03  0.00000000000E+00 0.  1.
         13   -1    0    0    0    0 -0.00000000000E+00 -0.00000000000E+00 -0.10000000000E+04  0.10000000000E+04  0.00000000000E+00 0.  1.
    9000005    2    1    2  501    0  0.61453287475E-03  0.11165862605E-03 -0.89470205967E+03  0.11052979307E+04  0.64899286594E+03 0.  0.
         13    1    3    3    0    0  0.29786847255E+03 -0.21973639035E+02 -0.23132209096E+03  0.37778085912E+03  0.00000000000E+00 0.  1.
          3    1    3    3  501    0 -0.29786785801E+03  0.21973750694E+02 -0.66337996871E+03  0.72751707159E+03  0.00000000000E+00 0.  1.
         21    1    1    2  502  501 -0.61453287474E-03 -0.11165862605E-03  0.20260608722E-01  0.20270233943E-01  0.00000000000E+00 0. -1.
<mgrwt>
<rscale>  1 0.64899287E+03</rscale>
<asrwt>0</asrwt>
<pdfrwt beam="1">  1        1 0.38297608E+00 0.64899287E+03</pdfrwt>
<pdfrwt beam="2">0</pdfrwt>
<totfact> 0.15923575E+00</totfact>
</mgrwt>
</event>
<event>
 6    1  0.7408003E-003  0.6521667E+03  0.7818608E-02  0.9802722E-01
          1   -1    0    0  502    0  0.00000000000E+00  0.00000000000E+00  0.10634811768E+03  0.10634811768E+03  0.00000000000E+00 0.  1.
         13   -1    0    0    0    0 -0.00000000000E+00 -0.00000000000E+00 -0.10000000000E+04  0.10000000000E+04  0.00000000000E+00 0.  1.
    9000005    2    1    2  501    0  0.25577695499E-02  0.23158082422E-02 -0.89366947188E+03  0.11063301929E+04  0.65216667405E+03 0.  0.
         13    1    3    3    0    0  0.31861516610E+03  0.67820815958E+02 -0.42190342310E+03  0.53302700267E+03  0.00000000000E+00 0.  1.
          3    1    3    3  501    0 -0.31861260834E+03 -0.67818500150E+02 -0.47176604878E+03  0.57330319024E+03  0.00000000000E+00 0.  1.
         21    1    1    2  502  501 -0.25577695499E-02 -0.23158082422E-02  0.17589557200E-01  0.17924778251E-01  0.00000000000E+00 0.  1.
<mgrwt>
<rscale>  1 0.65216667E+03</rscale>
<asrwt>0</asrwt>
<pdfrwt beam="1">  1        1 0.38672124E+00 0.65216667E+03</pdfrwt>
<pdfrwt beam="2">0</pdfrwt>
<totfact> 0.15318688E+00</totfact>
</mgrwt>
</event>
<event>
 6    1  0.7408003E-003  0.6415768E+03  0.7818608E-02  0.9822714E-01
          1   -1    0    0  502    0  0.00000000000E+00  0.00000000000E+00  0.10395756032E+03  0.10395756032E+03  0.00000000000E+00 0.  1.
         13   -1    0    0    0    0 -0.00000000000E+00 -0.00000000000E+00 -0.10000000000E+04  0.10000000000E+04  0.00000000000E+00 0.  1.
    9000005    2    1    2  501    0  0.47454964012E-01 -0.22078143084E+00 -0.89708143599E+03  0.11028943060E+04  0.64157672683E+03 0.  0.
         13    1    3    3    0    0  0.12096886453E+03 -0.19510529771E+03 -0.63281859611E+02  0.23812630501E+03  0.00000000000E+00 0.  1.
          1    1    3    3  501    0 -0.12092140957E+03  0.19488451628E+03 -0.83379957638E+03  0.86476800100E+03  0.00000000000E+00 0.  1.
         21    1    1    2  502  501 -0.47454964012E-01  0.22078143084E+00  0.10389963084E+01  0.10632543171E+01  0.00000000000E+00 0. -1.
<mgrwt>
<rscale>  1 0.64157677E+03</rscale>
<asrwt>0</asrwt>
<pdfrwt beam="1">  1        1 0.37802829E+00 0.64157677E+03</pdfrwt>
<pdfrwt beam="2">0</pdfrwt>
<totfact> 0.16767530E+00</totfact>
</mgrwt>
</event>
<event>
 6    1  0.7408003E-003  0.6542410E+03  0.7818608E-02  0.9798854E-01
          1   -1    0    0  502    0  0.00000000000E+00  0.00000000000E+00  0.10700781496E+03  0.10700781496E+03  0.00000000000E+00 0.  1.
         13   -1    0    0    0    0 -0.00000000000E+00 -0.00000000000E+00 -0.10000000000E+04  0.10000000000E+04  0.00000000000E+00 0.  1.
    9000005    2    1    2  501    0 -0.14786707538E-05  0.11228975666E-04 -0.89299218338E+03  0.11070078035E+04  0.65424096285E+03 0.  0.
         13    1    3    3    0    0  0.18954399450E+03  0.22798996762E+03 -0.21264132423E+03  0.36485981412E+03  0.00000000000E+00 0.  1.
          3    1    3    3  501    0 -0.18954399598E+03 -0.22798995640E+03 -0.68035085915E+03  0.74214798940E+03  0.00000000000E+00 0.  1.
         21    1    1    2  502  501  0.14786707603E-05 -0.11228975679E-04 -0.16604716796E-05  0.11446987736E-04  0.00000000000E+00 0. -1.
<mgrwt>
<rscale>  1 0.65424096E+03</rscale>
<asrwt>0</asrwt>
<pdfrwt beam="1">  1        1 0.38912015E+00 0.65424096E+03</pdfrwt>
<pdfrwt beam="2">0</pdfrwt>
<totfact> 0.14942657E+00</totfact>
</mgrwt>
</event>
<event>
 6    1  0.7408003E-003  0.6515442E+03  0.7818608E-02  0.9803886E-01
          1   -1    0    0  502    0  0.00000000000E+00  0.00000000000E+00  0.12454457519E+03  0.12454457519E+03  0.00000000000E+00 0.  1.
         13   -1    0    0    0    0 -0.00000000000E+00 -0.00000000000E+00 -0.10000000000E+04  0.10000000000E+04  0.00000000000E+00 0.  1.
    9000005    2    1    2  501    0 -0.73639070242E+01 -0.11717846411E+02 -0.89095135088E+03  0.11037681757E+04  0.65139722212E+03 0.  0.
         13    1    3    3    0    0 -0.13140690326E+01 -0.13131466720E+03 -0.95770701848E+03  0.96666850670E+03  0.00000000000E+00 0.  1.
          3    1    3    3  501    0 -0.60498379916E+01  0.11959682079E+03  0.66755667592E+02  0.13709966900E+03  0.00000000000E+00 0.  1.
         21    1    1    2  502  501  0.73639070242E+01  0.11717846411E+02  0.15495926078E+02  0.20776399500E+02  0.00000000000E+00 0.  1.
<mgrwt>
<rscale>  1 0.65154422E+03</rscale>
<asrwt>0</asrwt>
<pdfrwt beam="1">  1        1 0.45289032E+00 0.65154422E+03</pdfrwt>
<pdfrwt beam="2">0</pdfrwt>
<totfact> 0.77022348E-01</totfact>
</mgrwt>
</event>
<event>
 6    1  0.7408003E-003  0.6535348E+03  0.7818608E-02  0.9800169E-01
          1   -1    0    0  502    0  0.00000000000E+00  0.00000000000E+00  0.10677691980E+03  0.10677691980E+03  0.00000000000E+00 0.  1.
         13   -1    0    0    0    0 -0.00000000000E+00 -0.00000000000E+00 -0.10000000000E+04  0.10000000000E+04  0.00000000000E+00 0.  1.
    9000005    2    1    2  501    0 -0.23149914341E-06  0.61790535710E-06 -0.89322308098E+03  0.11067769188E+04  0.65353475465E+03 0.  0.
         13    1    3    3    0    0  0.22232308041E+03 -0.23589872428E+03 -0.51646111929E+03  0.60976048407E+03  0.00000000000E+00 0.  1.
          3    1    3    3  501    0 -0.22232308064E+03  0.23589872489E+03 -0.37676196169E+03  0.49701643470E+03  0.00000000000E+00 0.  1.
         21    1    1    2  502  501  0.23149913461E-06 -0.61790537465E-06  0.78290155013E-06  0.10238817014E-05  0.00000000000E+00 0.  1.
<mgrwt>
<rscale>  1 0.65353475E+03</rscale>
<asrwt>0</asrwt>
<pdfrwt beam="1">  1        1 0.38828053E+00 0.65353475E+03</pdfrwt>
<pdfrwt beam="2">0</pdfrwt>
<totfact> 0.15073205E+00</totfact>
</mgrwt>
</event>
<event>
 6    1  0.7408003E-003  0.6530997E+03  0.7818608E-02  0.9800980E-01
          1   -1    0    0  502    0  0.00000000000E+00  0.00000000000E+00  0.10872881058E+03  0.10872881058E+03  0.00000000000E+00 0.  1.
         13   -1    0    0    0    0 -0.00000000000E+00 -0.00000000000E+00 -0.10000000000E+04  0.10000000000E+04  0.00000000000E+00 0.  1.
    9000005    2    1    2  501    0  0.11353024909E+00 -0.37884870984E-01 -0.89336331875E+03  0.11066332606E+04  0.65309964013E+03 0.  0.
         13    1    3    3    0    0  0.32357727337E+03  0.35725965326E+02 -0.40219603482E+03  0.51743622492E+03  0.00000000000E+00 0.  1.
          3    1    3    3  501    0 -0.32346374312E+03 -0.35763850197E+02 -0.49116728394E+03  0.58919703572E+03  0.00000000000E+00 0.  1.
         21    1    1    2  502  501 -0.11353024909E+00  0.37884870984E-01  0.20921293320E+01  0.20955499333E+01  0.00000000000E+00 0. -1.
<mgrwt>
<rscale>  1 0.65309965E+03</rscale>
<asrwt>0</asrwt>
<pdfrwt beam="1">  1        1 0.39537833E+00 0.65309965E+03</pdfrwt>
<pdfrwt beam="2">0</pdfrwt>
<totfact> 0.14019609E+00</totfact>
</mgrwt>
</event>
<event>
 6    1  0.7408003E-003  0.6517636E+03  0.7818608E-02  0.9803476E-01
          1   -1    0    0  502    0  0.00000000000E+00  0.00000000000E+00  0.10659335277E+03  0.10659335277E+03  0.00000000000E+00 0.  1.
         13   -1    0    0    0    0 -0.00000000000E+00 -0.00000000000E+00 -0.10000000000E+04  0.10000000000E+04  0.00000000000E+00 0.  1.
    9000005    2    1    2  501    0  0.56697116168E+00  0.44060650664E-02 -0.89356169846E+03  0.11060055462E+04  0.65176332954E+03 0.  0.
         13    1    3    3    0    0  0.78274031364E+02  0.27539549846E+02 -0.98176933207E+03  0.98526964441E+03  0.00000000000E+00 0.  1.
          1    1    3    3  501    0 -0.77707060202E+02 -0.27535143781E+02  0.88207633612E+02  0.12073590177E+03  0.00000000000E+00 0.  1.
         21    1    1    2  502  501 -0.56697116168E+00 -0.44060650664E-02  0.15505123628E+00  0.58780659869E+00  0.00000000000E+00 0. -1.
<mgrwt>
<rscale>  1 0.65176358E+03</rscale>
<asrwt>0</asrwt>
<pdfrwt beam="1">  1        1 0.38761301E+00 0.65176358E+03</pdfrwt>
<pdfrwt beam="2">0</pdfrwt>
<totfact> 0.15181165E+00</totfact>
</mgrwt>
</event>
<event>
 6    1  0.7408003E-003  0.6589351E+03  0.7818608E-02  0.9790156E-01
          1   -1    0    0  502    0  0.00000000000E+00  0.00000000000E+00  0.10854921640E+03  0.10854921640E+03  0.00000000000E+00 0.  1.
         13   -1    0    0    0    0 -0.00000000000E+00 -0.00000000000E+00 -0.10000000000E+04  0.10000000000E+04  0.00000000000E+00 0.  1.
    9000005    2    1    2  501    0 -0.80517564527E-06 -0.96559881513E-05 -0.89145114155E+03  0.11085488583E+04  0.65893507534E+03 0.  0.
         13    1    3    3    0    0 -0.64555877308E+02 -0.30803020340E+03 -0.28176235436E+03  0.42242169906E+03  0.00000000000E+00 0.  1.
          1    1    3    3  501    0  0.64555876503E+02  0.30803019375E+03 -0.60968878719E+03  0.68612715926E+03  0.00000000000E+00 0.  1.
         21    1    1    2  502  501  0.80517565178E-06  0.96559881911E-05  0.35795186313E-03  0.35808298303E-03  0.00000000000E+00 0. -1.
<mgrwt>
<rscale>  1 0.65893508E+03</rscale>
<asrwt>0</asrwt>
<pdfrwt beam="1">  1        1 0.39472526E+00 0.65893508E+03</pdfrwt>
<pdfrwt beam="2">0</pdfrwt>
<totfact> 0.14098274E+00</totfact>
</mgrwt>
</event>
<event>
 6    1  0.7408003E-003  0.6209579E+03  0.7818608E-02  0.9862854E-01
          1   -1    0    0  502    0  0.00000000000E+00  0.00000000000E+00  0.96439126662E+02  0.96439126662E+02  0.00000000000E+00 0.  1.
         13   -1    0    0    0    0 -0.00000000000E+00 -0.00000000000E+00 -0.10000000000E+04  0.10000000000E+04  0.00000000000E+00 0.  1.
    9000005    2    1    2  501    0  0.41656787101E-03 -0.15928396265E-02 -0.90360281492E+03  0.10963971528E+04  0.62095786451E+03 0.  0.
         13    1    3    3    0    0  0.30183106420E+03 -0.70217787851E+02 -0.48552901441E+03  0.57599561881E+03  0.00000000000E+00 0.  1.
          1    1    3    3  501    0 -0.30183064763E+03  0.70216195011E+02 -0.41807380051E+03  0.52040153397E+03  0.00000000000E+00 0.  1.
         21    1    1    2  502  501 -0.41656787100E-03  0.15928396265E-02  0.41941579344E-01  0.41973881697E-01  0.00000000000E+00 0.  1.
<mgrwt>
<rscale>  1 0.62095786E+03</rscale>
<asrwt>0</asrwt>
<pdfrwt beam="1">  1        1 0.35068847E+00 0.62095786E+03</pdfrwt>
<pdfrwt beam="2">0</pdfrwt>
<totfact> 0.22176233E+00</totfact>
</mgrwt>
</event>
<event>
 6    1  0.7408003E-003  0.6488221E+03  0.7818608E-02  0.9808992E-01
          1   -1    0    0  502    0  0.00000000000E+00  0.00000000000E+00  0.11361234212E+03  0.11361234212E+03  0.00000000000E+00 0.  1.
         13   -1    0    0    0    0 -0.00000000000E+00 -0.00000000000E+00 -0.10000000000E+04  0.10000000000E+04  0.00000000000E+00 0.  1.
    9000005    2    1    2  501    0 -0.19593595387E+01  0.66484077702E+01 -0.89314153781E+03  0.11039347748E+04  0.64878512618E+03 0.  0.
         13    1    3    3    0    0 -0.19257638138E+02 -0.25742888710E+03 -0.76985476036E+03  0.81198327605E+03  0.00000000000E+00 0.  1.
          1    1    3    3  501    0  0.17298278599E+02  0.26407729487E+03 -0.12328677746E+03  0.29195149872E+03  0.00000000000E+00 0.  1.
         21    1    1    2  502  501  0.19593595387E+01 -0.66484077702E+01  0.67538799329E+01  0.96775673508E+01  0.00000000000E+00 0.  1.
<mgrwt>
<rscale>  1 0.64882215E+03</rscale>
<asrwt>0</asrwt>
<pdfrwt beam="1">  1        1 0.41313666E+00 0.64882215E+03</pdfrwt>
<pdfrwt beam="2">0</pdfrwt>
<totfact> 0.11688104E+00</totfact>
</mgrwt>
</event>
<event>
 6    1  0.7408003E-003  0.6546855E+03  0.7818608E-02  0.9798027E-01
          1   -1    0    0  502    0  0.00000000000E+00  0.00000000000E+00  0.10715423471E+03  0.10715423471E+03  0.00000000000E+00 0.  1.
         13   -1    0    0    0    0 -0.00000000000E+00 -0.00000000000E+00 -0.10000000000E+04  0.10000000000E+04  0.00000000000E+00 0.  1.
    9000005    2    1    2  501    0  0.87455813321E-03  0.17771113794E-02 -0.89284539289E+03  0.11071522194E+04  0.65468552849E+03 0.  0.
         13    1    3    3    0    0 -0.20426034504E+03  0.16672797507E+03 -0.77448682244E+03  0.81813834060E+03  0.00000000000E+00 0.  1.
          3    1    3    3  501    0  0.20426121959E+03 -0.16672619796E+03 -0.11835857045E+03  0.28901387876E+03  0.00000000000E+00 0.  1.
         21    1    1    2  502  501 -0.87455813322E-03 -0.17771113794E-02 -0.37239398965E-03  0.20153545759E-02  0.00000000000E+00 0. -1.
<mgrwt>
<rscale>  1 0.65468553E+03</rscale>
<asrwt>0</asrwt>
<pdfrwt beam="1">  1        1 0.38965258E+00 0.65468553E+03</pdfrwt>
<pdfrwt beam="2">0</pdfrwt>
<totfact> 0.14860436E+00</totfact>
</mgrwt>
</event>
<event>
 6    1  0.7408003E-003  0.6498505E+03  0.7818608E-02  0.9807060E-01
          1   -1    0    0  502    0  0.00000000000E+00  0.00000000000E+00  0.10734956514E+03  0.10734956514E+03  0.00000000000E+00 0.  1.
         13   -1    0    0    0    0 -0.00000000000E+00 -0.00000000000E+00 -0.10000000000E+04  0.10000000000E+04  0.00000000000E+00 0.  1.
    9000005    2    1    2  501    0  0.18459155057E+00  0.59597413152E-01 -0.89441772477E+03  0.11055716620E+04  0.64985044115E+03 0.  0.
         13    1    3    3    0    0  0.15918037030E+03 -0.26401714829E+03 -0.27252298022E+03  0.41147566104E+03  0.00000000000E+00 0.  1.
          3    1    3    3  501    0 -0.15899577875E+03  0.26407674571E+03 -0.62189474454E+03  0.69409600098E+03  0.00000000000E+00 0.  1.
         21    1    1    2  502  501 -0.18459155057E+00 -0.59597413152E-01  0.17672899064E+01  0.17779031204E+01  0.00000000000E+00 0.  1.
<mgrwt>
<rscale>  1 0.64985047E+03</rscale>
<asrwt>0</asrwt>
<pdfrwt beam="1">  1        1 0.39036288E+00 0.64985047E+03</pdfrwt>
<pdfrwt beam="2">0</pdfrwt>
<totfact> 0.14766327E+00</totfact>
</mgrwt>
</event>
<event>
 6    1  0.7408003E-003  0.6447929E+03  0.7818608E-02  0.9816599E-01
          1   -1    0    0  502    0  0.00000000000E+00  0.00000000000E+00  0.10487210538E+03  0.10487210538E+03  0.00000000000E+00 0.  1.
         13   -1    0    0    0    0 -0.00000000000E+00 -0.00000000000E+00 -0.10000000000E+04  0.10000000000E+04  0.00000000000E+00 0.  1.
    9000005    2    1    2  501    0  0.79020394818E-01  0.28474943485E+01 -0.89193107136E+03  0.11005902661E+04  0.64478661852E+03 0.  0.
         13    1    3    3    0    0  0.11083089127E+03  0.28868237710E+03 -0.61098450738E+03  0.68477957736E+03  0.00000000000E+00 0.  1.
          3    1    3    3  501    0 -0.11075187087E+03 -0.28583488275E+03 -0.28094656398E+03  0.41581068879E+03  0.00000000000E+00 0.  1.
         21    1    1    2  502  501 -0.79020394818E-01 -0.28474943485E+01 -0.31968232578E+01  0.42818392344E+01  0.00000000000E+00 0. -1.
<mgrwt>
<rscale>  1 0.64479291E+03</rscale>
<asrwt>0</asrwt>
<pdfrwt beam="1">  1        1 0.38135391E+00 0.64479291E+03</pdfrwt>
<pdfrwt beam="2">0</pdfrwt>
<totfact> 0.16200997E+00</totfact>
</mgrwt>
</event>
<event>
 6    1  0.7408003E-003  0.6481092E+03  0.7818608E-02  0.9810334E-01
          1   -1    0    0  502    0  0.00000000000E+00  0.00000000000E+00  0.10501140297E+03  0.10501140297E+03  0.00000000000E+00 0.  1.
         13   -1    0    0    0    0 -0.00000000000E+00 -0.00000000000E+00 -0.10000000000E+04  0.10000000000E+04  0.00000000000E+00 0.  1.
    9000005    2    1    2  501    0 -0.82256320411E-04  0.61117829688E-04 -0.89498850984E+03  0.11050112684E+04  0.64810915022E+03 0.  0.
         13    1    3    3    0    0  0.25221674979E+03 -0.10580515533E+03 -0.15118447526E+03  0.31251362423E+03  0.00000000000E+00 0.  1.
          3    1    3    3  501    0 -0.25221683205E+03  0.10580521644E+03 -0.74380403458E+03  0.79249764419E+03  0.00000000000E+00 0.  1.
         21    1    1    2  502  501  0.82256320406E-04 -0.61117829691E-04 -0.87191305376E-04  0.13455041838E-03  0.00000000000E+00 0.  1.
<mgrwt>
<rscale>  1 0.64810915E+03</rscale>
<asrwt>0</asrwt>
<pdfrwt beam="1">  1        1 0.38186045E+00 0.64810915E+03</pdfrwt>
<pdfrwt beam="2">0</pdfrwt>
<totfact> 0.16107924E+00</totfact>
</mgrwt>
</event>
<event>
 6    1  0.7408003E-003  0.5856185E+03  0.7818608E-02  0.9935701E-01
          1   -1    0    0  502    0  0.00000000000E+00  0.00000000000E+00  0.85737313321E+02  0.85737313321E+02  0.00000000000E+00 0.  1.
         13   -1    0    0    0    0 -0.00000000000E+00 -0.00000000000E+00 -0.10000000000E+04  0.10000000000E+04  0.00000000000E+00 0.  1.
    9000005    2    1    2  501    0 -0.42077256523E-05 -0.65833262397E-07 -0.91426275247E+03  0.10857372474E+04  0.58561846781E+03 0.  0.
         13    1    3    3    0    0 -0.18801906503E+03 -0.22202789975E+03 -0.39592993120E+03  0.49133294975E+03  0.00000000000E+00 0.  1.
          3    1    3    3  501    0  0.18801906083E+03  0.22202789968E+03 -0.51833282126E+03  0.59440429765E+03  0.00000000000E+00 0.  1.
         21    1    1    2  502  501  0.42077256402E-05  0.65833284093E-07  0.65788341045E-04  0.65922796562E-04  0.00000000000E+00 0. -1.
<mgrwt>
<rscale>  1 0.58561847E+03</rscale>
<asrwt>0</asrwt>
<pdfrwt beam="1">  1        1 0.31177271E+00 0.58561847E+03</pdfrwt>
<pdfrwt beam="2">0</pdfrwt>
<totfact> 0.32908520E+00</totfact>
</mgrwt>
</event>
<event>
 6    1  0.7408003E-003  0.6555108E+03  0.7818608E-02  0.9796493E-01
          1   -1    0    0  502    0  0.00000000000E+00  0.00000000000E+00  0.10742360388E+03  0.10742360388E+03  0.00000000000E+00 0.  1.
         13   -1    0    0    0    0 -0.00000000000E+00 -0.00000000000E+00 -0.10000000000E+04  0.10000000000E+04  0.00000000000E+00 0.  1.
    9000005    2    1    2  501    0  0.48923134059E-05  0.39646204186E-06 -0.89257640962E+03  0.11074235895E+04  0.65551076238E+03 0.  0.
         13    1    3    3    0    0 -0.51026095999E+02  0.31585274202E+03 -0.56642588612E+03  0.65054200601E+03  0.00000000000E+00 0.  1.
          1    1    3    3  501    0  0.51026100891E+02 -0.31585274163E+03 -0.32615052350E+03  0.45688158350E+03  0.00000000000E+00 0.  1.
         21    1    1    2  502  501 -0.48923134034E-05 -0.39646202248E-06  0.13506056086E-04  0.14370297964E-04  0.00000000000E+00 0.  1.
<mgrwt>
<rscale>  1 0.65551076E+03</rscale>
<asrwt>0</asrwt>
<pdfrwt beam="1">  1        1 0.39063211E+00 0.65551076E+03</pdfrwt>
<pdfrwt beam="2">0</pdfrwt>
<totfact> 0.14710275E+00</totfact>
</mgrwt>
</event>
<event>
 6    1  0.7408003E-003  0.6482641E+03  0.7818608E-02  0.9810042E-01
          1   -1    0    0  502    0  0.00000000000E+00  0.00000000000E+00  0.10537154970E+03  0.10537154970E+03  0.00000000000E+00 0.  1.
         13   -1    0    0    0    0 -0.00000000000E+00 -0.00000000000E+00 -0.10000000000E+04  0.10000000000E+04  0.00000000000E+00 0.  1.
    9000005    2    1    2  501    0  0.38716550696E-02  0.21255001402E-01 -0.89493799890E+03  0.11050612481E+04  0.64826409713E+03 0.  0.
         13    1    3    3    0    0  0.19459634591E+03 -0.25085707366E+03 -0.33619925573E+03  0.46241426102E+03  0.00000000000E+00 0.  1.
          3    1    3    3  501    0 -0.19459247425E+03  0.25087832866E+03 -0.55873874318E+03  0.64264698704E+03  0.00000000000E+00 0.  1.
         21    1    1    2  502  501 -0.38716550696E-02 -0.21255001402E-01  0.30954860217E+00  0.31030163052E+00  0.00000000000E+00 0.  1.
<mgrwt>
<rscale>  1 0.64826410E+03</rscale>
<asrwt>0</asrwt>
<pdfrwt beam="1">  1        1 0.38317008E+00 0.64826410E+03</pdfrwt>
<pdfrwt beam="2">0</pdfrwt>
<totfact> 0.15894310E+00</totfact>
</mgrwt>
</event>
<event>
 6    1  0.7408003E-003  0.6621964E+03  0.7818608E-02  0.9784159E-01
          1   -1    0    0  502    0  0.00000000000E+00  0.00000000000E+00  0.10962636668E+03  0.10962636668E+03  0.00000000000E+00 0.  1.
         13   -1    0    0    0    0 -0.00000000000E+00 -0.00000000000E+00 -0.10000000000E+04  0.10000000000E+04  0.00000000000E+00 0.  1.
    9000005    2    1    2  501    0 -0.33824034119E-04 -0.99612149711E-05 -0.89037399436E+03  0.11096260039E+04  0.66219635967E+03 0.  0.
         13    1    3    3    0    0  0.16138046657E+03 -0.18343548864E+03 -0.70742878901E+02  0.25435563371E+03  0.00000000000E+00 0.  1.
          1    1    3    3  501    0 -0.16138050040E+03  0.18343547868E+03 -0.81963111546E+03  0.85527037022E+03  0.00000000000E+00 0.  1.
         21    1    1    2  502  501  0.33824034131E-04  0.99612149612E-05  0.36104123361E-03  0.36275896055E-03  0.00000000000E+00 0. -1.
<mgrwt>
<rscale>  1 0.66219636E+03</rscale>
<asrwt>0</asrwt>
<pdfrwt beam="1">  1        1 0.39864217E+00 0.66219636E+03</pdfrwt>
<pdfrwt beam="2">0</pdfrwt>
<totfact> 0.13535291E+00</totfact>
</mgrwt>
</event>
<event>
 6    1  0.7408003E-003  0.6494776E+03  0.7818608E-02  0.9807760E-01
          1   -1    0    0  502    0  0.00000000000E+00  0.00000000000E+00  0.10546663982E+03  0.10546663982E+03  0.00000000000E+00 0.  1.
         13   -1    0    0    0    0 -0.00000000000E+00 -0.00000000000E+00 -0.10000000000E+04  0.10000000000E+04  0.00000000000E+00 0.  1.
    9000005    2    1    2  501    0  0.35214758012E-03  0.56121965639E-03 -0.89454469214E+03  0.11054552885E+04  0.64947762753E+03 0.  0.
         13    1    3    3    0    0 -0.16760302472E+03 -0.27237438916E+03 -0.35134251258E+03  0.47510013987E+03  0.00000000000E+00 0.  1.
          3    1    3    3  501    0  0.16760337687E+03  0.27237495038E+03 -0.54320217956E+03  0.63035514864E+03  0.00000000000E+00 0.  1.
         21    1    1    2  502  501 -0.35214758013E-03 -0.56121965640E-03  0.11331956963E-01  0.11351309353E-01  0.00000000000E+00 0.  1.
<mgrwt>
<rscale>  1 0.64947763E+03</rscale>
<asrwt>0</asrwt>
<pdfrwt beam="1">  1        1 0.38351586E+00 0.64947763E+03</pdfrwt>
<pdfrwt beam="2">0</pdfrwt>
<totfact> 0.15834936E+00</totfact>
</mgrwt>
</event>
<event>
 6    1  0.7408003E-003  0.7061923E+03  0.7818608E-02  0.9706701E-01
          1   -1    0    0  502    0  0.00000000000E+00  0.00000000000E+00  0.12715356710E+03  0.12715356710E+03  0.00000000000E+00 0.  1.
         13   -1    0    0    0    0 -0.00000000000E+00 -0.00000000000E+00 -0.10000000000E+04  0.10000000000E+04  0.00000000000E+00 0.  1.
    9000005    2    1    2  501    0  0.20167974657E+01  0.26246892253E+01 -0.87400074026E+03  0.11236480156E+04  0.70618454572E+03 0.  0.
         13    1    3    3    0    0  0.53219525848E+02  0.35020429442E+03 -0.46263818528E+03  0.58267439985E+03  0.00000000000E+00 0.  1.
          3    1    3    3  501    0 -0.51202728382E+02 -0.34757960520E+03 -0.41136255498E+03  0.54097361579E+03  0.00000000000E+00 0.  1.
         21    1    1    2  502  501 -0.20167974657E+01 -0.26246892253E+01  0.11543073657E+01  0.35055514604E+01  0.00000000000E+00 0.  1.
<mgrwt>
<rscale>  1 0.70619230E+03</rscale>
<asrwt>0</asrwt>
<pdfrwt beam="1">  1        1 0.46237758E+00 0.70619230E+03</pdfrwt>
<pdfrwt beam="2">0</pdfrwt>
<totfact> 0.68832164E-01</totfact>
</mgrwt>
</event>
<event>
 6    1  0.7408003E-003  0.5863593E+03  0.7818608E-02  0.9934117E-01
          1   -1    0    0  502    0  0.00000000000E+00  0.00000000000E+00  0.86026501874E+02  0.86026501874E+02  0.00000000000E+00 0.  1.
         13   -1    0    0    0    0 -0.00000000000E+00 -0.00000000000E+00 -0.10000000000E+04  0.10000000000E+04  0.00000000000E+00 0.  1.
    9000005    2    1    2  501    0  0.67024255482E-01 -0.25258168957E-01 -0.91402595688E+03  0.10859377204E+04  0.58635934173E+03 0.  0.
         13    1    3    3    0    0 -0.28198675603E+03  0.10383991995E+02 -0.60408593471E+03  0.66674145992E+03  0.00000000000E+00 0.  1.
          1    1    3    3  501    0  0.28205378029E+03 -0.10409250164E+02 -0.30994002217E+03  0.41919626049E+03  0.00000000000E+00 0.  1.
         21    1    1    2  502  501 -0.67024255482E-01  0.25258168957E-01  0.52458758930E-01  0.88781458146E-01  0.00000000000E+00 0. -1.
<mgrwt>
<rscale>  1 0.58635935E+03</rscale>
<asrwt>0</asrwt>
<pdfrwt beam="1">  1        1 0.31282430E+00 0.58635935E+03</pdfrwt>
<pdfrwt beam="2">0</pdfrwt>
<totfact> 0.32561915E+00</totfact>
</mgrwt>
</event>
<event>
 6    1  0.7408003E-003  0.6482150E+03  0.7818608E-02  0.9810134E-01
          1   -1    0    0  502    0  0.00000000000E+00  0.00000000000E+00  0.10533908300E+03  0.10533908300E+03  0.00000000000E+00 0.  1.
         13   -1    0    0    0    0 -0.00000000000E+00 -0.00000000000E+00 -0.10000000000E+04  0.10000000000E+04  0.00000000000E+00 0.  1.
    9000005    2    1    2  501    0 -0.22204157612E+00  0.75169328996E-01 -0.89490170288E+03  0.11050030313E+04  0.64821492305E+03 0.  0.
         13    1    3    3    0    0  0.20285218619E+03  0.22213581873E+03 -0.24194951575E+03  0.38604779442E+03  0.00000000000E+00 0.  1.
          3    1    3    3  501    0 -0.20307422776E+03 -0.22206064940E+03 -0.65295218713E+03  0.71895523690E+03  0.00000000000E+00 0.  1.
         21    1    1    2  502  501  0.22204157612E+00 -0.75169328996E-01  0.24078587957E+00  0.33605167661E+00  0.00000000000E+00 0.  1.
<mgrwt>
<rscale>  1 0.64821497E+03</rscale>
<asrwt>0</asrwt>
<pdfrwt beam="1">  1        1 0.38305202E+00 0.64821497E+03</pdfrwt>
<pdfrwt beam="2">0</pdfrwt>
<totfact> 0.15913559E+00</totfact>
</mgrwt>
</event>
<event>
 6    1  0.7408003E-003  0.5424073E+03  0.7818608E-02  0.1003267E+00
          3   -1    0    0  502    0  0.00000000000E+00  0.00000000000E+00  0.73572970281E+02  0.73572970281E+02  0.00000000000E+00 0.  1.
         13   -1    0    0    0    0 -0.00000000000E+00 -0.00000000000E+00 -0.10000000000E+04  0.10000000000E+04  0.00000000000E+00 0.  1.
    9000005    2    1    2  501    0 -0.20470526413E-01  0.17038686238E-01 -0.92643946766E+03  0.10735435754E+04  0.54240733794E+03 0.  0.
         13    1    3    3    0    0  0.14943859503E+03 -0.20225688700E+03 -0.26227980335E+03  0.36335992799E+03  0.00000000000E+00 0.  1.
          3    1    3    3  501    0 -0.14945906556E+03  0.20227392569E+03 -0.66415966431E+03  0.71018364737E+03  0.00000000000E+00 0.  1.
         21    1    1    2  502  501  0.20470526413E-01 -0.17038686238E-01  0.12437937334E-01  0.29394924145E-01  0.00000000000E+00 0.  1.
<mgrwt>
<rscale>  1 0.54240734E+03</rscale>
<asrwt>0</asrwt>
<pdfrwt beam="1">  1        3 0.26753864E+00 0.54240734E+03</pdfrwt>
<pdfrwt beam="2">0</pdfrwt>
<totfact> 0.30874882E-01</totfact>
</mgrwt>
</event>
<event>
 6    1  0.7408003E-003  0.5948611E+03  0.7818608E-02  0.9916125E-01
          1   -1    0    0  502    0  0.00000000000E+00  0.00000000000E+00  0.88464936176E+02  0.88464936176E+02  0.00000000000E+00 0.  1.
         13   -1    0    0    0    0 -0.00000000000E+00 -0.00000000000E+00 -0.10000000000E+04  0.10000000000E+04  0.00000000000E+00 0.  1.
    9000005    2    1    2  501    0  0.30676791312E-05 -0.16749477254E-05 -0.91153507208E+03  0.10884649272E+04  0.59486108473E+03 0.  0.
         13    1    3    3    0    0  0.27266982647E+03 -0.92543671304E+02 -0.31943034626E+03  0.43005687005E+03  0.00000000000E+00 0.  1.
          3    1    3    3  501    0 -0.27266982341E+03  0.92543669629E+02 -0.59210472582E+03  0.65840805716E+03  0.00000000000E+00 0.  1.
         21    1    1    2  502  501 -0.30676791705E-05  0.16749477312E-05  0.82577759584E-05  0.89669933185E-05  0.00000000000E+00 0. -1.
<mgrwt>
<rscale>  1 0.59486108E+03</rscale>
<asrwt>0</asrwt>
<pdfrwt beam="1">  1        1 0.32169136E+00 0.59486108E+03</pdfrwt>
<pdfrwt beam="2">0</pdfrwt>
<totfact> 0.29766616E+00</totfact>
</mgrwt>
</event>
<event>
 6    1  0.7408003E-003  0.6517914E+03  0.7818608E-02  0.9803423E-01
          1   -1    0    0  502    0  0.00000000000E+00  0.00000000000E+00  0.10620805715E+03  0.10620805715E+03  0.00000000000E+00 0.  1.
         13   -1    0    0    0    0 -0.00000000000E+00 -0.00000000000E+00 -0.10000000000E+04  0.10000000000E+04  0.00000000000E+00 0.  1.
    9000005    2    1    2  501    0  0.56109720965E-04  0.26334912548E-04 -0.89379194330E+03  0.11062079952E+04  0.65179144722E+03 0.  0.
         13    1    3    3    0    0 -0.37183533108E+02  0.32376459704E+03 -0.44923518944E+03  0.55499404038E+03  0.00000000000E+00 0.  1.
          1    1    3    3  501    0  0.37183589218E+02 -0.32376457070E+03 -0.44455675386E+03  0.55121395479E+03  0.00000000000E+00 0.  1.
         21    1    1    2  502  501 -0.56109720959E-04 -0.26334912519E-04  0.45344086671E-06  0.61984143231E-04  0.00000000000E+00 0. -1.
<mgrwt>
<rscale>  1 0.65179145E+03</rscale>
<asrwt>0</asrwt>
<pdfrwt beam="1">  1        1 0.38621193E+00 0.65179145E+03</pdfrwt>
<pdfrwt beam="2">0</pdfrwt>
<totfact> 0.15399485E+00</totfact>
</mgrwt>
</event>
<event>
 6    1  0.7408003E-003  0.6450572E+03  0.7818608E-02  0.9816099E-01
          1   -1    0    0  502    0  0.00000000000E+00  0.00000000000E+00  0.10620134703E+03  0.10620134703E+03  0.00000000000E+00 0.  1.
         13   -1    0    0    0    0 -0.00000000000E+00 -0.00000000000E+00 -0.10000000000E+04  0.10000000000E+04  0.00000000000E+00 0.  1.
    9000005    2    1    2  501    0  0.92846450990E+00  0.45024566265E+00 -0.89583949934E+03  0.11039144667E+04  0.64505633595E+03 0.  0.
         13    1    3    3    0    0  0.24397131965E+03 -0.62118747080E+02 -0.10249349982E+03  0.27181916977E+03  0.00000000000E+00 0.  1.
          1    1    3    3  501    0 -0.24304285514E+03  0.62568992743E+02 -0.79334599953E+03  0.83209529698E+03  0.00000000000E+00 0.  1.
         21    1    1    2  502  501 -0.92846450990E+00 -0.45024566265E+00  0.20408463681E+01  0.22868802769E+01  0.00000000000E+00 0. -1.
<mgrwt>
<rscale>  1 0.64505716E+03</rscale>
<asrwt>0</asrwt>
<pdfrwt beam="1">  1        1 0.38618753E+00 0.64505716E+03</pdfrwt>
<pdfrwt beam="2">0</pdfrwt>
<totfact> 0.15422578E+00</totfact>
</mgrwt>
</event>
<event>
 6    1  0.7408003E-003  0.6608562E+03  0.7818608E-02  0.9786619E-01
          1   -1    0    0  502    0  0.00000000000E+00  0.00000000000E+00  0.10928744353E+03  0.10928744353E+03  0.00000000000E+00 0.  1.
         13   -1    0    0    0    0 -0.00000000000E+00 -0.00000000000E+00 -0.10000000000E+04  0.10000000000E+04  0.00000000000E+00 0.  1.
    9000005    2    1    2  501    0 -0.25350130312E-01 -0.42943623760E-01 -0.89081066049E+03  0.11091773927E+04  0.66085615165E+03 0.  0.
         13    1    3    3    0    0  0.86755235634E+02  0.31475041389E+03 -0.36024203566E+03  0.48617755832E+03  0.00000000000E+00 0.  1.
          3    1    3    3  501    0 -0.86780585765E+02 -0.31479335752E+03 -0.53056862483E+03  0.62299983440E+03  0.00000000000E+00 0.  1.
         21    1    1    2  502  501  0.25350130312E-01  0.42943623760E-01  0.98104025116E-01  0.11005082313E+00  0.00000000000E+00 0. -1.
<mgrwt>
<rscale>  1 0.66085615E+03</rscale>
<asrwt>0</asrwt>
<pdfrwt beam="1">  1        1 0.39740972E+00 0.66085615E+03</pdfrwt>
<pdfrwt beam="2">0</pdfrwt>
<totfact> 0.13710902E+00</totfact>
</mgrwt>
</event>
<event>
 6    1  0.7408003E-003  0.6357068E+03  0.7818608E-02  0.9833975E-01
          1   -1    0    0  502    0  0.00000000000E+00  0.00000000000E+00  0.10103150746E+03  0.10103150746E+03  0.00000000000E+00 0.  1.
         13   -1    0    0    0    0 -0.00000000000E+00 -0.00000000000E+00 -0.10000000000E+04  0.10000000000E+04  0.00000000000E+00 0.  1.
    9000005    2    1    2  501    0 -0.43093687623E-05  0.23588268704E-04 -0.89896920739E+03  0.11010307922E+04  0.63570682673E+03 0.  0.
         13    1    3    3    0    0  0.28559812584E+03 -0.13028942888E+03 -0.53589564487E+03  0.62106824661E+03  0.00000000000E+00 0.  1.
          1    1    3    3  501    0 -0.28559813015E+03  0.13028945247E+03 -0.36307356252E+03  0.47996254559E+03  0.00000000000E+00 0.  1.
         21    1    1    2  502  501  0.43093687661E-05 -0.23588268697E-04  0.71485142656E-03  0.71525347894E-03  0.00000000000E+00 0. -1.
<mgrwt>
<rscale>  1 0.63570683E+03</rscale>
<asrwt>0</asrwt>
<pdfrwt beam="1">  1        1 0.36738807E+00 0.63570683E+03</pdfrwt>
<pdfrwt beam="2">0</pdfrwt>
<totfact> 0.18694792E+00</totfact>
</mgrwt>
</event>
<event>
 6    1  0.7408003E-003  0.6452239E+03  0.7818608E-02  0.9815783E-01
          1   -1    0    0  502    0  0.00000000000E+00  0.00000000000E+00  0.10411682896E+03  0.10411682896E+03  0.00000000000E+00 0.  1.
         13   -1    0    0    0    0 -0.00000000000E+00 -0.00000000000E+00 -0.10000000000E+04  0.10000000000E+04  0.00000000000E+00 0.  1.
    9000005    2    1    2  501    0 -0.12600426688E-01 -0.11086430716E-01 -0.89591950947E+03  0.11040768020E+04  0.64522385021E+03 0.  0.
         13    1    3    3    0    0  0.77997253169E+02  0.39721047994E+02 -0.97928474534E+03  0.98318866227E+03  0.00000000000E+00 0.  1.
          1    1    3    3  501    0 -0.78009853595E+02 -0.39732134425E+02  0.83365235874E+02  0.12088813968E+03  0.00000000000E+00 0.  1.
         21    1    1    2  502  501  0.12600426688E-01  0.11086430716E-01  0.36338431272E-01  0.40027006958E-01  0.00000000000E+00 0. -1.
<mgrwt>
<rscale>  1 0.64522385E+03</rscale>
<asrwt>0</asrwt>
<pdfrwt beam="1">  1        1 0.37860745E+00 0.64522385E+03</pdfrwt>
<pdfrwt beam="2">0</pdfrwt>
<totfact> 0.16658069E+00</totfact>
</mgrwt>
</event>
<event>
 6    1  0.7408003E-003  0.6567361E+03  0.7818608E-02  0.9794221E-01
          1   -1    0    0  502    0  0.00000000000E+00  0.00000000000E+00  0.10783390318E+03  0.10783390318E+03  0.00000000000E+00 0.  1.
         13   -1    0    0    0    0 -0.00000000000E+00 -0.00000000000E+00 -0.10000000000E+04  0.10000000000E+04  0.00000000000E+00 0.  1.
    9000005    2    1    2  501    0 -0.10312251391E-02  0.11375976267E-02 -0.89217433160E+03  0.11078255265E+04  0.65673614119E+03 0.  0.
         13    1    3    3    0    0  0.10133563861E+03  0.23229210421E+03 -0.93870887881E+02  0.27025964723E+03  0.00000000000E+00 0.  1.
          1    1    3    3  501    0 -0.10133666984E+03 -0.23229096661E+03 -0.79830344372E+03  0.83756587925E+03  0.00000000000E+00 0.  1.
         21    1    1    2  502  501  0.10312251391E-02 -0.11375976267E-02  0.82347793297E-02  0.83767024691E-02  0.00000000000E+00 0. -1.
<mgrwt>
<rscale>  1 0.65673614E+03</rscale>
<asrwt>0</asrwt>
<pdfrwt beam="1">  1        1 0.39212411E+00 0.65673614E+03</pdfrwt>
<pdfrwt beam="2">0</pdfrwt>
<totfact> 0.14484396E+00</totfact>
</mgrwt>
</event>
<event>
 6    1  0.7408003E-003  0.6293628E+03  0.7818608E-02  0.9846293E-01
          1   -1    0    0  502    0  0.00000000000E+00  0.00000000000E+00  0.99026066655E+02  0.99026066655E+02  0.00000000000E+00 0.  1.
         13   -1    0    0    0    0 -0.00000000000E+00 -0.00000000000E+00 -0.10000000000E+04  0.10000000000E+04  0.00000000000E+00 0.  1.
    9000005    2    1    2  501    0  0.15838904477E-02 -0.94616389839E-03 -0.90097503893E+03  0.10990239158E+04  0.62936281005E+03 0.  0.
         13    1    3    3    0    0  0.43413950865E+02 -0.58489854179E+01  0.93673965755E+02  0.10341080031E+03  0.00000000000E+00 0.  1.
          3    1    3    3  501    0 -0.43412366975E+02  0.58480392541E+01 -0.99464900469E+03  0.99561311547E+03  0.00000000000E+00 0.  1.
         21    1    1    2  502  501 -0.15838904477E-02  0.94616389839E-03  0.11055897076E-02  0.21508750951E-02  0.00000000000E+00 0.  1.
<mgrwt>
<rscale>  1 0.62936281E+03</rscale>
<asrwt>0</asrwt>
<pdfrwt beam="1">  1        1 0.36009555E+00 0.62936281E+03</pdfrwt>
<pdfrwt beam="2">0</pdfrwt>
<totfact> 0.20144745E+00</totfact>
</mgrwt>
</event>
<event>
 6    1  0.7408003E-003  0.6532140E+03  0.7818608E-02  0.9800767E-01
          1   -1    0    0  502    0  0.00000000000E+00  0.00000000000E+00  0.10667223372E+03  0.10667223372E+03  0.00000000000E+00 0.  1.
         13   -1    0    0    0    0 -0.00000000000E+00 -0.00000000000E+00 -0.10000000000E+04  0.10000000000E+04  0.00000000000E+00 0.  1.
    9000005    2    1    2  501    0 -0.13440891259E-04 -0.18142520759E-03 -0.89332773036E+03  0.11066720483E+04  0.65321404503E+03 0.  0.
         13    1    3    3    0    0 -0.43604857302E+02  0.30669894189E+03 -0.27136188772E+03  0.41182872489E+03  0.00000000000E+00 0.  1.
          3    1    3    3  501    0  0.43604843861E+02 -0.30669912332E+03 -0.62196584264E+03  0.69484332339E+03  0.00000000000E+00 0.  1.
         21    1    1    2  502  501  0.13440891256E-04  0.18142520754E-03 -0.35925817565E-04  0.18543577825E-03  0.00000000000E+00 0.  1.
<mgrwt>
<rscale>  1 0.65321405E+03</rscale>
<asrwt>0</asrwt>
<pdfrwt beam="1">  1        1 0.38789985E+00 0.65321405E+03</pdfrwt>
<pdfrwt beam="2">0</pdfrwt>
<totfact> 0.15132752E+00</totfact>
</mgrwt>
</event>
<event>
 6    1  0.7408003E-003  0.4785337E+03  0.7818608E-02  0.1019539E+00
          1   -1    0    0  502    0  0.00000000000E+00  0.00000000000E+00  0.57370022038E+02  0.57370022038E+02  0.00000000000E+00 0.  1.
         13   -1    0    0    0    0 -0.00000000000E+00 -0.00000000000E+00 -0.10000000000E+04  0.10000000000E+04  0.00000000000E+00 0.  1.
    9000005    2    1    2  501    0 -0.19392837174E-02 -0.58823500536E-02 -0.94275129709E+03  0.10572485449E+04  0.47853367436E+03 0.  0.
         13    1    3    3    0    0 -0.84303778901E+02 -0.12047285932E+02 -0.96538552286E+03  0.96913439315E+03  0.00000000000E+00 0.  1.
          1    1    3    3  501    0  0.84301839617E+02  0.12041403582E+02  0.22634225770E+02  0.88114151753E+02  0.00000000000E+00 0.  1.
         21    1    1    2  502  501  0.19392837174E-02  0.58823500536E-02  0.12131912971E+00  0.12147713405E+00  0.00000000000E+00 0. -1.
<mgrwt>
<rscale>  1 0.47853367E+03</rscale>
<asrwt>0</asrwt>
<pdfrwt beam="1">  1        1 0.20861870E+00 0.47853367E+03</pdfrwt>
<pdfrwt beam="2">0</pdfrwt>
<totfact> 0.94322647E+00</totfact>
</mgrwt>
</event>
<event>
 6    1  0.9006541E-003  0.6463122E+03  0.7818608E-02  0.9813724E-01
          1   -1    0    0  502    0  0.00000000000E+00  0.00000000000E+00  0.10442987515E+03  0.10442987515E+03  0.00000000000E+00 0.  1.
         13   -1    0    0    0    0 -0.00000000000E+00 -0.00000000000E+00 -0.10000000000E+04  0.10000000000E+04  0.00000000000E+00 0.  1.
    9000005    2    1    2  501    0 -0.39145097048E-05  0.40958210548E-05 -0.89557011907E+03  0.11044298670E+04  0.64631222568E+03 0.  0.
         13    1    3    3    0    0 -0.77090624833E+02  0.29957613402E+03 -0.28802155743E+03  0.42266445563E+03  0.00000000000E+00 0.  1.
          3    1    3    3  501    0  0.77090620918E+02 -0.29957612993E+03 -0.60754856164E+03  0.68176541142E+03  0.00000000000E+00 0.  1.
         21    1    1    2  502  501  0.39145096962E-05 -0.40958210994E-05 -0.57856075036E-05  0.80976781132E-05  0.00000000000E+00 0.  1.
<mgrwt>
<rscale>  1 0.64631223E+03</rscale>
<asrwt>0</asrwt>
<pdfrwt beam="1">  1        1 0.37974580E+00 0.64631223E+03</pdfrwt>
<pdfrwt beam="2">0</pdfrwt>
<totfact> 0.16463310E+00</totfact>
</mgrwt>
</event>
<event>
 6    1  0.7408003E-003  0.6566785E+03  0.7818608E-02  0.9794328E-01
          1   -1    0    0  502    0  0.00000000000E+00  0.00000000000E+00  0.10780757030E+03  0.10780757030E+03  0.00000000000E+00 0.  1.
         13   -1    0    0    0    0 -0.00000000000E+00 -0.00000000000E+00 -0.10000000000E+04  0.10000000000E+04  0.00000000000E+00 0.  1.
    9000005    2    1    2  501    0 -0.24509909764E-03 -0.69644368466E-04 -0.89219332604E+03  0.11078066385E+04  0.65667847321E+03 0.  0.
         13    1    3    3    0    0  0.30068175479E+03  0.12673221405E+03 -0.38443494517E+03  0.50424279748E+03  0.00000000000E+00 0.  1.
          1    1    3    3  501    0 -0.30068199989E+03 -0.12673228370E+03 -0.50775838087E+03  0.60356384097E+03  0.00000000000E+00 0.  1.
         21    1    1    2  502  501  0.24509909764E-03  0.69644368470E-04  0.89633992349E-03  0.93185254422E-03  0.00000000000E+00 0.  1.
<mgrwt>
<rscale>  1 0.65667847E+03</rscale>
<asrwt>0</asrwt>
<pdfrwt beam="1">  1        1 0.39202836E+00 0.65667847E+03</pdfrwt>
<pdfrwt beam="2">0</pdfrwt>
<totfact> 0.14498737E+00</totfact>
</mgrwt>
</event>
<event>
 6    1  0.7408003E-003  0.6085422E+03  0.7818608E-02  0.9887840E-01
          1   -1    0    0  502    0  0.00000000000E+00  0.00000000000E+00  0.92586647864E+02  0.92586647864E+02  0.00000000000E+00 0.  1.
         13   -1    0    0    0    0 -0.00000000000E+00 -0.00000000000E+00 -0.10000000000E+04  0.10000000000E+04  0.00000000000E+00 0.  1.
    9000005    2    1    2  501    0 -0.55625791809E-04  0.30507759911E-03 -0.90741908982E+03  0.10925809018E+04  0.60854221089E+03 0.  0.
         13    1    3    3    0    0  0.37287616774E+02 -0.18668774120E+03 -0.27557670912E+02  0.19235931042E+03  0.00000000000E+00 0.  1.
          1    1    3    3  501    0 -0.37287672400E+02  0.18668804627E+03 -0.87986141890E+03  0.90022159139E+03  0.00000000000E+00 0.  1.
         21    1    1    2  502  501  0.55625791811E-04 -0.30507759909E-03  0.57376802920E-02  0.57460544466E-02  0.00000000000E+00 0. -1.
<mgrwt>
<rscale>  1 0.60854221E+03</rscale>
<asrwt>0</asrwt>
<pdfrwt beam="1">  1        1 0.33667943E+00 0.60854221E+03</pdfrwt>
<pdfrwt beam="2">0</pdfrwt>
<totfact> 0.25571965E+00</totfact>
</mgrwt>
</event>
<event>
 6    1  0.7408003E-003  0.6597016E+03  0.7818608E-02  0.9788743E-01
          3   -1    0    0  502    0  0.00000000000E+00  0.00000000000E+00  0.10880232116E+03  0.10880232116E+03  0.00000000000E+00 0.  1.
         13   -1    0    0    0    0 -0.00000000000E+00 -0.00000000000E+00 -0.10000000000E+04  0.10000000000E+04  0.00000000000E+00 0.  1.
    9000005    2    1    2  501    0  0.85661523579E-03  0.11010976269E-02 -0.89119770672E+03  0.11088009258E+04  0.65970155421E+03 0.  0.
         13    1    3    3    0    0 -0.94056641705E+02  0.26771441951E+03 -0.16293096035E+03  0.32720660156E+03  0.00000000000E+00 0.  1.
          3    1    3    3  501    0  0.94057498321E+02 -0.26771331841E+03 -0.72826674637E+03  0.78159432426E+03  0.00000000000E+00 0.  1.
         21    1    1    2  502  501 -0.85661523579E-03 -0.11010976269E-02  0.27880971130E-04  0.13953433250E-02  0.00000000000E+00 0. -1.
<mgrwt>
<rscale>  1 0.65970155E+03</rscale>
<asrwt>0</asrwt>
<pdfrwt beam="1">  1        3 0.39564564E+00 0.65970155E+03</pdfrwt>
<pdfrwt beam="2">0</pdfrwt>
<totfact> 0.62334397E-02</totfact>
</mgrwt>
</event>
<event>
 6    1  0.7408003E-003  0.6615663E+03  0.7818608E-02  0.9785315E-01
          1   -1    0    0  502    0  0.00000000000E+00  0.00000000000E+00  0.12095029941E+03  0.12095029941E+03  0.00000000000E+00 0.  1.
         13   -1    0    0    0    0 -0.00000000000E+00 -0.00000000000E+00 -0.10000000000E+04  0.10000000000E+04  0.00000000000E+00 0.  1.
    9000005    2    1    2  501    0 -0.13921174418E+01  0.10804417653E+01 -0.89050777136E+03  0.11093575115E+04  0.66156397436E+03 0.  0.
         13    1    3    3    0    0  0.19511172804E+03 -0.13399557249E+03 -0.83036145856E+03  0.86343705719E+03  0.00000000000E+00 0.  1.
          3    1    3    3  501    0 -0.19650384548E+03  0.13507601426E+03 -0.60146312800E+02  0.24592045433E+03  0.00000000000E+00 0.  1.
         21    1    1    2  502  501  0.13921174418E+01 -0.10804417653E+01  0.11458070763E+02  0.11592787887E+02  0.00000000000E+00 0. -1.
<mgrwt>
<rscale>  1 0.66156632E+03</rscale>
<asrwt>0</asrwt>
<pdfrwt beam="1">  1        1 0.43982020E+00 0.66156632E+03</pdfrwt>
<pdfrwt beam="2">0</pdfrwt>
<totfact> 0.88259178E-01</totfact>
</mgrwt>
</event>
<event>
 6    1  0.7408003E-003  0.6524863E+03  0.7818608E-02  0.9802125E-01
          1   -1    0    0  502    0  0.00000000000E+00  0.00000000000E+00  0.10643461192E+03  0.10643461192E+03  0.00000000000E+00 0.  1.
         13   -1    0    0    0    0 -0.00000000000E+00 -0.00000000000E+00 -0.10000000000E+04  0.10000000000E+04  0.00000000000E+00 0.  1.
    9000005    2    1    2  501    0  0.34239418198E-05 -0.13832085628E-04 -0.89356538322E+03  0.11064345969E+04  0.65248633937E+03 0.  0.
         13    1    3    3    0    0 -0.18911015414E+03 -0.10742293093E+03 -0.85913326374E+03  0.88623490190E+03  0.00000000000E+00 0.  1.
          1    1    3    3  501    0  0.18911015757E+03  0.10742291710E+03 -0.34432119482E+02  0.22019969497E+03  0.00000000000E+00 0.  1.
         21    1    1    2  502  501 -0.34239418408E-05  0.13832085634E-04 -0.48576844699E-05  0.15054802194E-04  0.00000000000E+00 0.  1.
<mgrwt>
<rscale>  1 0.65248634E+03</rscale>
<asrwt>0</asrwt>
<pdfrwt beam="1">  1        1 0.38703577E+00 0.65248634E+03</pdfrwt>
<pdfrwt beam="2">0</pdfrwt>
<totfact> 0.15268744E+00</totfact>
</mgrwt>
</event>
<event>
 6    1  0.7408003E-003  0.6577487E+03  0.7818608E-02  0.9792347E-01
          1   -1    0    0  502    0  0.00000000000E+00  0.00000000000E+00  0.10815835985E+03  0.10815835985E+03  0.00000000000E+00 0.  1.
         13   -1    0    0    0    0 -0.00000000000E+00 -0.00000000000E+00 -0.10000000000E+04  0.10000000000E+04  0.00000000000E+00 0.  1.
    9000005    2    1    2  501    0  0.93222274700E-05  0.17693068415E-04 -0.89184164093E+03  0.11081583398E+04  0.65774873139E+03 0.  0.
         13    1    3    3    0    0 -0.21785516928E+03  0.11741057103E+03 -0.81011592748E+02  0.26040160355E+03  0.00000000000E+00 0.  1.
          1    1    3    3  501    0  0.21785517860E+03 -0.11741055334E+03 -0.81083004818E+03  0.84775673629E+03  0.00000000000E+00 0.  1.
         21    1    1    2  502  501 -0.93222274639E-05 -0.17693068423E-04  0.78301376683E-06  0.20014037715E-04  0.00000000000E+00 0.  1.
<mgrwt>
<rscale>  1 0.65774873E+03</rscale>
<asrwt>0</asrwt>
<pdfrwt beam="1">  1        1 0.39330396E+00 0.65774873E+03</pdfrwt>
<pdfrwt beam="2">0</pdfrwt>
<totfact> 0.14307991E+00</totfact>
</mgrwt>
</event>
<event>
 6    1  0.7408003E-003  0.5139483E+03  0.7818608E-02  0.1010201E+00
          1   -1    0    0  502    0  0.00000000000E+00  0.00000000000E+00  0.66038590911E+02  0.66038590911E+02  0.00000000000E+00 0.  1.
         13   -1    0    0    0    0 -0.00000000000E+00 -0.00000000000E+00 -0.10000000000E+04  0.10000000000E+04  0.00000000000E+00 0.  1.
    9000005    2    1    2  501    0  0.17942884416E-02 -0.73332942694E-03 -0.93396393811E+03  0.10660354045E+04  0.51394829113E+03 0.  0.
         13    1    3    3    0    0  0.97190493550E+02  0.15494322204E+03 -0.84138886683E+03  0.86103926700E+03  0.00000000000E+00 0.  1.
          1    1    3    3  501    0 -0.97188699262E+02 -0.15494395537E+03 -0.92575071281E+02  0.20499613750E+03  0.00000000000E+00 0.  1.
         21    1    1    2  502  501 -0.17942884416E-02  0.73332942695E-03  0.25290218777E-02  0.31864078078E-02  0.00000000000E+00 0.  1.
<mgrwt>
<rscale>  1 0.51394829E+03</rscale>
<asrwt>0</asrwt>
<pdfrwt beam="1">  1        1 0.24014084E+00 0.51394829E+03</pdfrwt>
<pdfrwt beam="2">0</pdfrwt>
<totfact> 0.68026905E+00</totfact>
</mgrwt>
</event>
<event>
 6    1  0.7408003E-003  0.5773020E+03  0.7818608E-02  0.9953649E-01
          1   -1    0    0  502    0  0.00000000000E+00  0.00000000000E+00  0.83359051910E+02  0.83359051910E+02  0.00000000000E+00 0.  1.
         13   -1    0    0    0    0 -0.00000000000E+00 -0.00000000000E+00 -0.10000000000E+04  0.10000000000E+04  0.00000000000E+00 0.  1.
    9000005    2    1    2  501    0  0.26369375088E-02 -0.45589084643E-02 -0.91668041264E+03  0.10833192375E+04  0.57730199321E+03 0.  0.
         13    1    3    3    0    0  0.11750394613E+03  0.26328058602E+03 -0.48451929777E+03  0.56381095612E+03  0.00000000000E+00 0.  1.
          3    1    3    3  501    0 -0.11750130919E+03 -0.26328514493E+03 -0.43216111488E+03  0.51950828137E+03  0.00000000000E+00 0.  1.
         21    1    1    2  502  501 -0.26369375088E-02  0.45589084644E-02  0.39464554028E-01  0.39814420885E-01  0.00000000000E+00 0. -1.
<mgrwt>
<rscale>  1 0.57730199E+03</rscale>
<asrwt>0</asrwt>
<pdfrwt beam="1">  1        1 0.30312446E+00 0.57730199E+03</pdfrwt>
<pdfrwt beam="2">0</pdfrwt>
<totfact> 0.35914903E+00</totfact>
</mgrwt>
</event>
<event>
 6    1  0.7408003E-003  0.6413812E+03  0.7818608E-02  0.9823087E-01
          1   -1    0    0  502    0  0.00000000000E+00  0.00000000000E+00  0.10284247852E+03  0.10284247852E+03  0.00000000000E+00 0.  1.
         13   -1    0    0    0    0 -0.00000000000E+00 -0.00000000000E+00 -0.10000000000E+04  0.10000000000E+04  0.00000000000E+00 0.  1.
    9000005    2    1    2  501    0  0.32912111839E-04  0.35171318302E-05 -0.89715751180E+03  0.11028424440E+04  0.64138120909E+03 0.  0.
         13    1    3    3    0    0  0.96305421059E+01  0.94802773866E+02  0.77936573769E+02  0.12310330136E+03  0.00000000000E+00 0.  1.
          1    1    3    3  501    0 -0.96305091937E+01 -0.94802770349E+02 -0.97509408557E+03  0.97973914267E+03  0.00000000000E+00 0.  1.
         21    1    1    2  502  501 -0.32912111840E-04 -0.35171318296E-05 -0.96874800386E-05  0.34488035484E-04  0.00000000000E+00 0.  1.
<mgrwt>
<rscale>  1 0.64138121E+03</rscale>
<asrwt>0</asrwt>
<pdfrwt beam="1">  1        1 0.37397344E+00 0.64138121E+03</pdfrwt>
<pdfrwt beam="2">0</pdfrwt>
<totfact> 0.17471920E+00</totfact>
</mgrwt>
</event>
<event>
 6    1  0.7408003E-003  0.6472894E+03  0.7818608E-02  0.9811879E-01
          1   -1    0    0  502    0  0.00000000000E+00  0.00000000000E+00  0.10474649396E+03  0.10474649396E+03  0.00000000000E+00 0.  1.
         13   -1    0    0    0    0 -0.00000000000E+00 -0.00000000000E+00 -0.10000000000E+04  0.10000000000E+04  0.00000000000E+00 0.  1.
    9000005    2    1    2  501    0  0.12004518553E-03  0.52435258249E-03 -0.89525397272E+03  0.11047457818E+04  0.64728939955E+03 0.  0.
         13    1    3    3    0    0 -0.13719009479E+03 -0.84524470288E+02  0.31414198383E+02  0.16417173949E+03  0.00000000000E+00 0.  1.
          3    1    3    3  501    0  0.13719021484E+03  0.84524994640E+02 -0.92666817110E+03  0.94057404233E+03  0.00000000000E+00 0.  1.
         21    1    1    2  502  501 -0.12004518552E-03 -0.52435258248E-03  0.46667863914E-03  0.71214143929E-03  0.00000000000E+00 0. -1.
<mgrwt>
<rscale>  1 0.64728940E+03</rscale>
<asrwt>0</asrwt>
<pdfrwt beam="1">  1        1 0.38089714E+00 0.64728940E+03</pdfrwt>
<pdfrwt beam="2">0</pdfrwt>
<totfact> 0.16268905E+00</totfact>
</mgrwt>
</event>
<event>
 6    1  0.7408003E-003  0.6491354E+03  0.7818608E-02  0.9808403E-01
          1   -1    0    0  502    0  0.00000000000E+00  0.00000000000E+00  0.10535317807E+03  0.10535317807E+03  0.00000000000E+00 0.  1.
         13   -1    0    0    0    0 -0.00000000000E+00 -0.00000000000E+00 -0.10000000000E+04  0.10000000000E+04  0.00000000000E+00 0.  1.
    9000005    2    1    2  501    0 -0.77227812900E-02  0.73550247151E-03 -0.89465391510E+03  0.11053426664E+04  0.64913541136E+03 0.  0.
         13    1    3    3    0    0  0.11056014267E+03  0.30493087225E+03 -0.42738157039E+03  0.53652715561E+03  0.00000000000E+00 0.  1.
          1    1    3    3  501    0 -0.11056786545E+03 -0.30493013675E+03 -0.46727234471E+03  0.56881551078E+03  0.00000000000E+00 0.  1.
         21    1    1    2  502  501  0.77227812900E-02 -0.73550247150E-03  0.70931711908E-02  0.10511678852E-01  0.00000000000E+00 0.  1.
<mgrwt>
<rscale>  1 0.64913541E+03</rscale>
<asrwt>0</asrwt>
<pdfrwt beam="1">  1        1 0.38310327E+00 0.64913541E+03</pdfrwt>
<pdfrwt beam="2">0</pdfrwt>
<totfact> 0.15902563E+00</totfact>
</mgrwt>
</event>
<event>
 6    1  0.7408003E-003  0.6557962E+03  0.7818608E-02  0.9795963E-01
          1   -1    0    0  502    0  0.00000000000E+00  0.00000000000E+00  0.10937751864E+03  0.10937751864E+03  0.00000000000E+00 0.  1.
         13   -1    0    0    0    0 -0.00000000000E+00 -0.00000000000E+00 -0.10000000000E+04  0.10000000000E+04  0.00000000000E+00 0.  1.
    9000005    2    1    2  501    0 -0.26688814718E-01  0.23589636467E-01 -0.89248263587E+03  0.11075170231E+04  0.65579623354E+03 0.  0.
         13    1    3    3    0    0  0.57393760805E+02  0.53185432705E+02 -0.98400009112E+03  0.98710633336E+03  0.00000000000E+00 0.  1.
          1    1    3    3  501    0 -0.57420449620E+02 -0.53161843069E+02  0.91517455257E+02  0.12041068977E+03  0.00000000000E+00 0.  1.
         21    1    1    2  502  501  0.26688814718E-01 -0.23589636467E-01  0.18601545107E+01  0.18604955166E+01  0.00000000000E+00 0.  1.
<mgrwt>
<rscale>  1 0.65579623E+03</rscale>
<asrwt>0</asrwt>
<pdfrwt beam="1">  1        1 0.39773727E+00 0.65579623E+03</pdfrwt>
<pdfrwt beam="2">0</pdfrwt>
<totfact> 0.13677891E+00</totfact>
</mgrwt>
</event>
<event>
 6    1  0.7408003E-003  0.6492515E+03  0.7818608E-02  0.9808185E-01
          1   -1    0    0  502    0  0.00000000000E+00  0.00000000000E+00  0.10560928625E+03  0.10560928625E+03  0.00000000000E+00 0.  1.
         13   -1    0    0    0    0 -0.00000000000E+00 -0.00000000000E+00 -0.10000000000E+04  0.10000000000E+04  0.00000000000E+00 0.  1.
    9000005    2    1    2  501    0 -0.11066103857E-01 -0.88737837904E-01 -0.89460836784E+03  0.11053739776E+04  0.64925148482E+03 0.  0.
         13    1    3    3    0    0 -0.23928228235E+03  0.19670159826E+03 -0.61251116093E+03  0.68637996158E+03  0.00000000000E+00 0.  1.
          1    1    3    3  501    0  0.23927121625E+03 -0.19679033610E+03 -0.28209720691E+03  0.41899401601E+03  0.00000000000E+00 0.  1.
         21    1    1    2  502  501  0.11066103857E-01  0.88737837904E-01  0.21765408420E+00  0.23530865453E+00  0.00000000000E+00 0.  1.
<mgrwt>
<rscale>  1 0.64925149E+03</rscale>
<asrwt>0</asrwt>
<pdfrwt beam="1">  1        1 0.38403458E+00 0.64925149E+03</pdfrwt>
<pdfrwt beam="2">0</pdfrwt>
<totfact> 0.15752208E+00</totfact>
</mgrwt>
</event>
<event>
 6    1  0.7408003E-003  0.6576819E+03  0.7818608E-02  0.9792471E-01
          1   -1    0    0  502    0  0.00000000000E+00  0.00000000000E+00  0.10813905806E+03  0.10813905806E+03  0.00000000000E+00 0.  1.
         13   -1    0    0    0    0 -0.00000000000E+00 -0.00000000000E+00 -0.10000000000E+04  0.10000000000E+04  0.00000000000E+00 0.  1.
    9000005    2    1    2  501    0 -0.10738895145E-03 -0.81930633393E-03 -0.89186357027E+03  0.11081363029E+04  0.65768186672E+03 0.  0.
         13    1    3    3    0    0 -0.32167531156E+03  0.48395803196E+01 -0.33118495709E+03  0.46171625855E+03  0.00000000000E+00 0.  1.
          3    1    3    3  501    0  0.32167520417E+03 -0.48403996259E+01 -0.56067861318E+03  0.64642004434E+03  0.00000000000E+00 0.  1.
         21    1    1    2  502  501  0.10738895144E-03  0.81930633393E-03  0.26283375525E-02  0.27551685150E-02  0.00000000000E+00 0.  1.
<mgrwt>
<rscale>  1 0.65768187E+03</rscale>
<asrwt>0</asrwt>
<pdfrwt beam="1">  1        1 0.39323377E+00 0.65768187E+03</pdfrwt>
<pdfrwt beam="2">0</pdfrwt>
<totfact> 0.14318446E+00</totfact>
</mgrwt>
</event>
<event>
 6    1  0.7408003E-003  0.6019462E+03  0.7818608E-02  0.9901377E-01
          1   -1    0    0  502    0  0.00000000000E+00  0.00000000000E+00  0.90687083393E+02  0.90687083393E+02  0.00000000000E+00 0.  1.
         13   -1    0    0    0    0 -0.00000000000E+00 -0.00000000000E+00 -0.10000000000E+04  0.10000000000E+04  0.00000000000E+00 0.  1.
    9000005    2    1    2  501    0 -0.21599777189E-02  0.20819517282E-01 -0.90941402629E+03  0.10905838299E+04  0.60194619226E+03 0.  0.
         13    1    3    3    0    0  0.77182770090E+02 -0.27835100405E+03 -0.30157523051E+03  0.41759320051E+03  0.00000000000E+00 0.  1.
          3    1    3    3  501    0 -0.77184930068E+02  0.27837182356E+03 -0.60783879578E+03  0.67299062938E+03  0.00000000000E+00 0.  1.
         21    1    1    2  502  501  0.21599777189E-02 -0.20819517282E-01  0.10110968223E+00  0.10325350185E+00  0.00000000000E+00 0. -1.
<mgrwt>
<rscale>  1 0.60194619E+03</rscale>
<asrwt>0</asrwt>
<pdfrwt beam="1">  1        1 0.32977191E+00 0.60194619E+03</pdfrwt>
<pdfrwt beam="2">0</pdfrwt>
<totfact> 0.27429368E+00</totfact>
</mgrwt>
</event>
<event>
 6    1  0.7408003E-003  0.6541816E+03  0.7818608E-02  0.9798964E-01
          1   -1    0    0  502    0  0.00000000000E+00  0.00000000000E+00  0.10757421952E+03  0.10757421952E+03  0.00000000000E+00 0.  1.
         13   -1    0    0    0    0 -0.00000000000E+00 -0.00000000000E+00 -0.10000000000E+04  0.10000000000E+04  0.00000000000E+00 0.  1.
    9000005    2    1    2  501    0 -0.34046729359E-01 -0.22975957755E-01 -0.89301080670E+03  0.11069877532E+04  0.65418161328E+03 0.  0.
         13    1    3    3    0    0  0.14647533915E+03 -0.28410634781E+03 -0.32904587042E+03  0.45874026059E+03  0.00000000000E+00 0.  1.
          1    1    3    3  501    0 -0.14650938588E+03  0.28408337185E+03 -0.56396493628E+03  0.64824749260E+03  0.00000000000E+00 0.  1.
         21    1    1    2  502  501  0.34046729359E-01  0.22975957755E-01  0.58502621651E+00  0.58646632335E+00  0.00000000000E+00 0. -1.
<mgrwt>
<rscale>  1 0.65418161E+03</rscale>
<asrwt>0</asrwt>
<pdfrwt beam="1">  1        1 0.39117980E+00 0.65418161E+03</pdfrwt>
<pdfrwt beam="2">0</pdfrwt>
<totfact> 0.14631807E+00</totfact>
</mgrwt>
</event>
<event>
 6    1  0.7408003E-003  0.6484188E+03  0.7818608E-02  0.9809751E-01
          1   -1    0    0  502    0  0.00000000000E+00  0.00000000000E+00  0.10511174164E+03  0.10511174164E+03  0.00000000000E+00 0.  1.
         13   -1    0    0    0    0 -0.00000000000E+00 -0.00000000000E+00 -0.10000000000E+04  0.10000000000E+04  0.00000000000E+00 0.  1.
    9000005    2    1    2  501    0  0.14430565400E-04 -0.65043309405E-06 -0.89488826268E+03  0.11051117266E+04  0.64841878867E+03 0.  0.
         13    1    3    3    0    0 -0.12301473633E+03  0.28503915918E+03 -0.60670241191E+03  0.68151871892E+03  0.00000000000E+00 0.  1.
          3    1    3    3  501    0  0.12301475076E+03 -0.28503915983E+03 -0.28818585077E+03  0.42359300764E+03  0.00000000000E+00 0.  1.
         21    1    1    2  502  501 -0.14430565399E-04  0.65043308457E-06  0.43209261440E-05  0.15077621950E-04  0.00000000000E+00 0.  1.
<mgrwt>
<rscale>  1 0.64841879E+03</rscale>
<asrwt>0</asrwt>
<pdfrwt beam="1">  1        1 0.38222532E+00 0.64841879E+03</pdfrwt>
<pdfrwt beam="2">0</pdfrwt>
<totfact> 0.16047349E+00</totfact>
</mgrwt>
</event>
<event>
 6    1  0.7408003E-003  0.6382975E+03  0.7818608E-02  0.9828989E-01
          1   -1    0    0  502    0  0.00000000000E+00  0.00000000000E+00  0.10189092180E+03  0.10189092180E+03  0.00000000000E+00 0.  1.
         13   -1    0    0    0    0 -0.00000000000E+00 -0.00000000000E+00 -0.10000000000E+04  0.10000000000E+04  0.00000000000E+00 0.  1.
    9000005    2    1    2  501    0 -0.10128145573E-01  0.45240526136E-02 -0.89814310861E+03  0.11018551291E+04  0.63829748702E+03 0.  0.
         13    1    3    3    0    0  0.22620436667E+03 -0.16211602198E+03 -0.17940157197E+03  0.33111167921E+03  0.00000000000E+00 0.  1.
          3    1    3    3  501    0 -0.22621449482E+03  0.16212054603E+03 -0.71874153664E+03  0.77074344992E+03  0.00000000000E+00 0.  1.
         21    1    1    2  502  501  0.10128145573E-01 -0.45240526136E-02  0.34030410579E-01  0.35792670045E-01  0.00000000000E+00 0. -1.
<mgrwt>
<rscale>  1 0.63829749E+03</rscale>
<asrwt>0</asrwt>
<pdfrwt beam="1">  1        1 0.37051322E+00 0.63829749E+03</pdfrwt>
<pdfrwt beam="2">0</pdfrwt>
<totfact> 0.18104940E+00</totfact>
</mgrwt>
</event>
<event>
 6    1  0.7408003E-003  0.6489201E+03  0.7818608E-02  0.9808808E-01
          1   -1    0    0  502    0  0.00000000000E+00  0.00000000000E+00  0.10527466749E+03  0.10527466749E+03  0.00000000000E+00 0.  1.
         13   -1    0    0    0    0 -0.00000000000E+00 -0.00000000000E+00 -0.10000000000E+04  0.10000000000E+04  0.00000000000E+00 0.  1.
    9000005    2    1    2  501    0 -0.34607786318E-04  0.47287620689E-04 -0.89472566218E+03  0.11052743326E+04  0.64892013364E+03 0.  0.
         13    1    3    3    0    0 -0.19958093012E+03  0.55999748815E+02 -0.22211894245E+02  0.20847514907E+03  0.00000000000E+00 0.  1.
          1    1    3    3  501    0  0.19958089551E+03 -0.55999701528E+02 -0.87251376794E+03  0.89679918358E+03  0.00000000000E+00 0.  1.
         21    1    1    2  502  501  0.34607786329E-04 -0.47287620686E-04  0.32967483405E-03  0.33484222277E-03  0.00000000000E+00 0. -1.
<mgrwt>
<rscale>  1 0.64892013E+03</rscale>
<asrwt>0</asrwt>
<pdfrwt beam="1">  1        1 0.38281778E+00 0.64892013E+03</pdfrwt>
<pdfrwt beam="2">0</pdfrwt>
<totfact> 0.15949456E+00</totfact>
</mgrwt>
</event>
<event>
 6    1  0.7408003E-003  0.6439334E+03  0.7818608E-02  0.9818230E-01
          1   -1    0    0  502    0  0.00000000000E+00  0.00000000000E+00  0.10420312149E+03  0.10420312149E+03  0.00000000000E+00 0.  1.
         13   -1    0    0    0    0 -0.00000000000E+00 -0.00000000000E+00 -0.10000000000E+04  0.10000000000E+04  0.00000000000E+00 0.  1.
    9000005    2    1    2  501    0  0.15563784604E+00 -0.23192139286E-01 -0.89632477470E+03  0.11036522718E+04  0.64393338980E+03 0.  0.
         13    1    3    3    0    0 -0.23371233189E+03 -0.16940951143E+02 -0.82638476777E+03  0.85896462925E+03  0.00000000000E+00 0.  1.
          3    1    3    3  501    0  0.23386796973E+03  0.16917759004E+02 -0.69940006931E+02  0.24468764253E+03  0.00000000000E+00 0.  1.
         21    1    1    2  502  501 -0.15563784604E+00  0.23192139286E-01  0.52789619310E+00  0.55084971193E+00  0.00000000000E+00 0.  1.
<mgrwt>
<rscale>  1 0.64393341E+03</rscale>
<asrwt>0</asrwt>
<pdfrwt beam="1">  1        1 0.37892124E+00 0.64393341E+03</pdfrwt>
<pdfrwt beam="2">0</pdfrwt>
<totfact> 0.16609019E+00</totfact>
</mgrwt>
</event>
<event>
 6    1  0.7408003E-003  0.6453812E+03  0.7818608E-02  0.9815485E-01
          1   -1    0    0  502    0  0.00000000000E+00  0.00000000000E+00  0.10418810171E+03  0.10418810171E+03  0.00000000000E+00 0.  1.
         13   -1    0    0    0    0 -0.00000000000E+00 -0.00000000000E+00 -0.10000000000E+04  0.10000000000E+04  0.00000000000E+00 0.  1.
    9000005    2    1    2  501    0 -0.26964067466E-01 -0.43404448359E-02 -0.89586724583E+03  0.11041263826E+04  0.64538124067E+03 0.  0.
         13    1    3    3    0    0  0.39972580980E+01  0.31759177776E+03 -0.54542024885E+03  0.63116064771E+03  0.00000000000E+00 0.  1.
          1    1    3    3  501    0 -0.40242221654E+01 -0.31759611820E+03 -0.35044699699E+03  0.47296573487E+03  0.00000000000E+00 0.  1.
         21    1    1    2  502  501  0.26964067466E-01  0.43404448358E-02  0.55347544529E-01  0.61719130592E-01  0.00000000000E+00 0.  1.
<mgrwt>
<rscale>  1 0.64538124E+03</rscale>
<asrwt>0</asrwt>
<pdfrwt beam="1">  1        1 0.37886662E+00 0.64538124E+03</pdfrwt>
<pdfrwt beam="2">0</pdfrwt>
<totfact> 0.16613811E+00</totfact>
</mgrwt>
</event>
<event>
 6    1  0.7408003E-003  0.6515742E+03  0.7818608E-02  0.9803830E-01
          1   -1    0    0  502    0  0.00000000000E+00  0.00000000000E+00  0.10613765773E+03  0.10613765773E+03  0.00000000000E+00 0.  1.
         13   -1    0    0    0    0 -0.00000000000E+00 -0.00000000000E+00 -0.10000000000E+04  0.10000000000E+04  0.00000000000E+00 0.  1.
    9000005    2    1    2  501    0  0.30604319676E-04 -0.10221725373E-02 -0.89386195692E+03  0.11061365649E+04  0.65157417244E+03 0.  0.
         13    1    3    3    0    0  0.22290822619E+03  0.23297871360E+03 -0.52600897554E+03  0.61697050225E+03  0.00000000000E+00 0.  1.
          3    1    3    3  501    0 -0.22290819559E+03 -0.23297973577E+03 -0.36785298138E+03  0.48916606265E+03  0.00000000000E+00 0.  1.
         21    1    1    2  502  501 -0.30604319688E-04  0.10221725373E-02 -0.38535630741E-03  0.10928278932E-02  0.00000000000E+00 0. -1.
<mgrwt>
<rscale>  1 0.65157417E+03</rscale>
<asrwt>0</asrwt>
<pdfrwt beam="1">  1        1 0.38595593E+00 0.65157417E+03</pdfrwt>
<pdfrwt beam="2">0</pdfrwt>
<totfact> 0.15440331E+00</totfact>
</mgrwt>
</event>
<event>
 6    1  0.7408003E-003  0.6516030E+03  0.7818608E-02  0.9803776E-01
          1   -1    0    0  502    0  0.00000000000E+00  0.00000000000E+00  0.10615625251E+03  0.10615625251E+03  0.00000000000E+00 0.  1.
         13   -1    0    0    0    0 -0.00000000000E+00 -0.00000000000E+00 -0.10000000000E+04  0.10000000000E+04  0.00000000000E+00 0.  1.
    9000005    2    1    2  501    0 -0.10285740376E-03 -0.32411276126E-03 -0.89385337583E+03  0.11061466182E+04  0.65160301059E+03 0.  0.
         13    1    3    3    0    0  0.29373381808E+03 -0.12452488139E+03 -0.33482707790E+03  0.46248802586E+03  0.00000000000E+00 0.  1.
          3    1    3    3  501    0 -0.29373392094E+03  0.12452455728E+03 -0.55902629793E+03  0.64365859231E+03  0.00000000000E+00 0.  1.
         21    1    1    2  502  501  0.10285740376E-03  0.32411276127E-03  0.96283382072E-02  0.96343409406E-02  0.00000000000E+00 0. -1.
<mgrwt>
<rscale>  1 0.65160301E+03</rscale>
<asrwt>0</asrwt>
<pdfrwt beam="1">  1        1 0.38602355E+00 0.65160301E+03</pdfrwt>
<pdfrwt beam="2">0</pdfrwt>
<totfact> 0.15429614E+00</totfact>
</mgrwt>
</event>
<event>
 6    1  0.7408003E-003  0.6557151E+03  0.7818608E-02  0.9796114E-01
          1   -1    0    0  502    0  0.00000000000E+00  0.00000000000E+00  0.10749120339E+03  0.10749120339E+03  0.00000000000E+00 0.  1.
         13   -1    0    0    0    0 -0.00000000000E+00 -0.00000000000E+00 -0.10000000000E+04  0.10000000000E+04  0.00000000000E+00 0.  1.
    9000005    2    1    2  501    0 -0.13016196675E-04 -0.10582293896E-04 -0.89250942096E+03  0.11074905788E+04  0.65571511777E+03 0.  0.
         13    1    3    3    0    0 -0.20006590344E+03 -0.16388972000E+03 -0.78659336861E+03  0.82801892103E+03  0.00000000000E+00 0.  1.
          1    1    3    3  501    0  0.20006589042E+03  0.16388970942E+03 -0.10591605235E+03  0.27947165779E+03  0.00000000000E+00 0.  1.
         21    1    1    2  502  501  0.13016196683E-04  0.10582293877E-04  0.62435166905E-03  0.62457698722E-03  0.00000000000E+00 0. -1.
<mgrwt>
<rscale>  1 0.65571512E+03</rscale>
<asrwt>0</asrwt>
<pdfrwt beam="1">  1        1 0.39087793E+00 0.65571512E+03</pdfrwt>
<pdfrwt beam="2">0</pdfrwt>
<totfact> 0.14672825E+00</totfact>
</mgrwt>
</event>
<event>
 6    1  0.7408003E-003  0.6383315E+03  0.7818608E-02  0.9828924E-01
          1   -1    0    0  502    0  0.00000000000E+00  0.00000000000E+00  0.10188386480E+03  0.10188386480E+03  0.00000000000E+00 0.  1.
         13   -1    0    0    0    0 -0.00000000000E+00 -0.00000000000E+00 -0.10000000000E+04  0.10000000000E+04  0.00000000000E+00 0.  1.
    9000005    2    1    2  501    0 -0.57406025239E-03  0.42120483812E-04 -0.89813323387E+03  0.11018667564E+04  0.63833145245E+03 0.  0.
         13    1    3    3    0    0  0.58895890374E+02  0.24076442796E+03 -0.79615280781E+03  0.83384382774E+03  0.00000000000E+00 0.  1.
          1    1    3    3  501    0 -0.58896464434E+02 -0.24076438584E+03 -0.10198042605E+03  0.26802292871E+03  0.00000000000E+00 0.  1.
         21    1    1    2  502  501  0.57406025239E-03 -0.42120483807E-04  0.17098670523E-01  0.17108356232E-01  0.00000000000E+00 0. -1.
<mgrwt>
<rscale>  1 0.63833145E+03</rscale>
<asrwt>0</asrwt>
<pdfrwt beam="1">  1        1 0.37048756E+00 0.63833145E+03</pdfrwt>
<pdfrwt beam="2">0</pdfrwt>
<totfact> 0.18109528E+00</totfact>
</mgrwt>
</event>
<event>
 6    1  0.7408003E-003  0.6511725E+03  0.7818608E-02  0.9804581E-01
          1   -1    0    0  502    0  0.00000000000E+00  0.00000000000E+00  0.10600661628E+03  0.10600661628E+03  0.00000000000E+00 0.  1.
         13   -1    0    0    0    0 -0.00000000000E+00 -0.00000000000E+00 -0.10000000000E+04  0.10000000000E+04  0.00000000000E+00 0.  1.
    9000005    2    1    2  501    0  0.95736570529E-05 -0.53569477032E-05 -0.89399357934E+03  0.11060064204E+04  0.65117254393E+03 0.  0.
         13    1    3    3    0    0 -0.21466713923E+03 -0.31078329312E+02 -0.34581210903E+02  0.21964449314E+03  0.00000000000E+00 0.  1.
          3    1    3    3  501    0  0.21466714880E+03  0.31078323955E+02 -0.85941236844E+03  0.88636192722E+03  0.00000000000E+00 0.  1.
         21    1    1    2  502  501 -0.95736570633E-05  0.53569477032E-05  0.19562156565E-03  0.19592893800E-03  0.00000000000E+00 0.  1.
<mgrwt>
<rscale>  1 0.65117254E+03</rscale>
<asrwt>0</asrwt>
<pdfrwt beam="1">  1        1 0.38547942E+00 0.65117254E+03</pdfrwt>
<pdfrwt beam="2">0</pdfrwt>
<totfact> 0.15516629E+00</totfact>
</mgrwt>
</event>
<event>
 6    1  0.7408003E-003  0.6517973E+03  0.7818608E-02  0.9803413E-01
          1   -1    0    0  502    0  0.00000000000E+00  0.00000000000E+00  0.10709668947E+03  0.10709668947E+03  0.00000000000E+00 0.  1.
         13   -1    0    0    0    0 -0.00000000000E+00 -0.00000000000E+00 -0.10000000000E+04  0.10000000000E+04  0.00000000000E+00 0.  1.
    9000005    2    1    2  501    0 -0.13942648328E+01 -0.74748423114E+00 -0.89292920873E+03  0.11055144828E+04  0.65179536455E+03 0.  0.
         13    1    3    3    0    0  0.22348467460E+03 -0.17715145616E+03 -0.17951379652E+03  0.33697661839E+03  0.00000000000E+00 0.  1.
          3    1    3    3  501    0 -0.22487893943E+03  0.17640397193E+03 -0.71341541221E+03  0.76853786444E+03  0.00000000000E+00 0.  1.
         21    1    1    2  502  501  0.13942648328E+01  0.74748423114E+00  0.25898197397E-01  0.15822066288E+01  0.00000000000E+00 0. -1.
<mgrwt>
<rscale>  1 0.65179728E+03</rscale>
<asrwt>0</asrwt>
<pdfrwt beam="1">  1        1 0.38944333E+00 0.65179728E+03</pdfrwt>
<pdfrwt beam="2">0</pdfrwt>
<totfact> 0.14900202E+00</totfact>
</mgrwt>
</event>
<event>
 6    1  0.7408003E-003  0.6460930E+03  0.7818608E-02  0.9814138E-01
          1   -1    0    0  502    0  0.00000000000E+00  0.00000000000E+00  0.11123480472E+03  0.11123480472E+03  0.00000000000E+00 0.  1.
         13   -1    0    0    0    0 -0.00000000000E+00 -0.00000000000E+00 -0.10000000000E+04  0.10000000000E+04  0.00000000000E+00 0.  1.
    9000005    2    1    2  501    0 -0.82284833857E-01  0.69096926458E-01 -0.89564050773E+03  0.11043586527E+04  0.64609295244E+03 0.  0.
         13    1    3    3    0    0 -0.26079599930E+03  0.13837984469E+03 -0.67223045959E+03  0.73420523389E+03  0.00000000000E+00 0.  1.
          3    1    3    3  501    0  0.26071371447E+03 -0.13831074776E+03 -0.22341004814E+03  0.37015341882E+03  0.00000000000E+00 0.  1.
         21    1    1    2  502  501  0.82284833857E-01 -0.69096926458E-01  0.68753124509E+01  0.68761520109E+01  0.00000000000E+00 0.  1.
<mgrwt>
<rscale>  1 0.64609296E+03</rscale>
<asrwt>0</asrwt>
<pdfrwt beam="1">  1        1 0.40449105E+00 0.64609296E+03</pdfrwt>
<pdfrwt beam="2">0</pdfrwt>
<totfact> 0.12784946E+00</totfact>
</mgrwt>
</event>
<event>
 6    1  0.7408003E-003  0.6510758E+03  0.7818608E-02  0.9804763E-01
          1   -1    0    0  502    0  0.00000000000E+00  0.00000000000E+00  0.10597738619E+03  0.10597738619E+03  0.00000000000E+00 0.  1.
         13   -1    0    0    0    0 -0.00000000000E+00 -0.00000000000E+00 -0.10000000000E+04  0.10000000000E+04  0.00000000000E+00 0.  1.
    9000005    2    1    2  501    0  0.49883499344E-04 -0.26171573779E-04 -0.89402507054E+03  0.11059749288E+04  0.65107581463E+03 0.  0.
         13    1    3    3    0    0 -0.28362807281E+03  0.13713530171E+03 -0.58630429038E+03  0.66558522789E+03  0.00000000000E+00 0.  1.
          3    1    3    3  501    0  0.28362812270E+03 -0.13713532788E+03 -0.30772078016E+03  0.44038970092E+03  0.00000000000E+00 0.  1.
         21    1    1    2  502  501 -0.49883499324E-04  0.26171573778E-04  0.24567282220E-02  0.24573739787E-02  0.00000000000E+00 0. -1.
<mgrwt>
<rscale>  1 0.65107581E+03</rscale>
<asrwt>0</asrwt>
<pdfrwt beam="1">  1        1 0.38537313E+00 0.65107581E+03</pdfrwt>
<pdfrwt beam="2">0</pdfrwt>
<totfact> 0.15533717E+00</totfact>
</mgrwt>
</event>
<event>
 6    1  0.7408003E-003  0.6387247E+03  0.7818608E-02  0.9828170E-01
          1   -1    0    0  502    0  0.00000000000E+00  0.00000000000E+00  0.10200379088E+03  0.10200379088E+03  0.00000000000E+00 0.  1.
         13   -1    0    0    0    0 -0.00000000000E+00 -0.00000000000E+00 -0.10000000000E+04  0.10000000000E+04  0.00000000000E+00 0.  1.
    9000005    2    1    2  501    0 -0.99240677258E-04 -0.12924731470E-03 -0.89800769920E+03  0.11019922996E+04  0.63872466733E+03 0.  0.
         13    1    3    3    0    0 -0.11317638678E+03  0.28976813013E+03 -0.32437769068E+03  0.44943892797E+03  0.00000000000E+00 0.  1.
          1    1    3    3  501    0  0.11317628754E+03 -0.28976825938E+03 -0.57363000852E+03  0.65255337167E+03  0.00000000000E+00 0.  1.
         21    1    1    2  502  501  0.99240677259E-04  0.12924731473E-03  0.11490083224E-01  0.11491238665E-01  0.00000000000E+00 0.  1.
<mgrwt>
<rscale>  1 0.63872467E+03</rscale>
<asrwt>0</asrwt>
<pdfrwt beam="1">  1        1 0.37092366E+00 0.63872467E+03</pdfrwt>
<pdfrwt beam="2">0</pdfrwt>
<totfact> 0.18028522E+00</totfact>
</mgrwt>
</event>
<event>
 6    1  0.7408003E-003  0.6496867E+03  0.7818608E-02  0.9807367E-01
          1   -1    0    0  502    0  0.00000000000E+00  0.00000000000E+00  0.10563436388E+03  0.10563436388E+03  0.00000000000E+00 0.  1.
         13   -1    0    0    0    0 -0.00000000000E+00 -0.00000000000E+00 -0.10000000000E+04  0.10000000000E+04  0.00000000000E+00 0.  1.
    9000005    2    1    2  501    0  0.10583513937E-02 -0.14392107383E-01 -0.89447628779E+03  0.11055227751E+04  0.64968667582E+03 0.  0.
         13    1    3    3    0    0  0.84744891063E+02 -0.15933572558E+03  0.12371878781E+02  0.18089398385E+03  0.00000000000E+00 0.  1.
          1    1    3    3  501    0 -0.84743832712E+02  0.15932133348E+03 -0.90684816657E+03  0.92462879130E+03  0.00000000000E+00 0.  1.
         21    1    1    2  502  501 -0.10583513937E-02  0.14392107383E-01  0.11065167549E+00  0.11158873667E+00  0.00000000000E+00 0. -1.
<mgrwt>
<rscale>  1 0.64968668E+03</rscale>
<asrwt>0</asrwt>
<pdfrwt beam="1">  1        1 0.38412577E+00 0.64968668E+03</pdfrwt>
<pdfrwt beam="2">0</pdfrwt>
<totfact> 0.15736328E+00</totfact>
</mgrwt>
</event>
