<event>
 6    1  0.4292888E-003  0.4754853E+03  0.7818608E-02  0.1020383E+00
          1   -1    0    0  502    0  0.00000000000E+00  0.00000000000E+00  0.56522634119E+02  0.56522634119E+02  0.00000000000E+00 0.  1.
         13   -1    0    0    0    0 -0.00000000000E+00 -0.00000000000E+00 -0.10000000000E+04  0.10000000000E+04  0.00000000000E+00 0.  1.
    9000005    2    1    2  501    0  0.35347350356E-02  0.21212455447E-02 -0.94347228658E+03  0.10565160925E+04  0.47548532896E+03 0.  0.
         13    1    3    3    0    0  0.14955472894E+03  0.14509065400E+03 -0.72609983375E+03  0.75540643589E+03  0.00000000000E+00 0.  1.
          1    1    3    3  501    0 -0.14955119420E+03 -0.14508853275E+03 -0.21737245283E+03  0.30110965656E+03  0.00000000000E+00 0.  1.
         21    1    1    2  502  501 -0.35347350356E-02 -0.21212455447E-02 -0.50793014296E-02  0.65416616731E-02  0.00000000000E+00 0. -1.
<mgrwt>
<rscale>  1 0.47548533E+03</rscale>
<asrwt>0</asrwt>
<pdfrwt beam="1">  1        1 0.20553728E+00 0.47548533E+03</pdfrwt>
<pdfrwt beam="2">0</pdfrwt>
<totfact> 0.97426136E+00</totfact>
</mgrwt>
</event>
<event>
 6    1  0.4292888E-003  0.6540009E+03  0.7818608E-02  0.9799301E-01
          1   -1    0    0  502    0  0.00000000000E+00  0.00000000000E+00  0.10698584425E+03  0.10698584425E+03  0.00000000000E+00 0.  1.
         13   -1    0    0    0    0 -0.00000000000E+00 -0.00000000000E+00 -0.10000000000E+04  0.10000000000E+04  0.00000000000E+00 0.  1.
    9000005    2    1    2  501    0 -0.72275868547E-02  0.91493274236E-02 -0.89307004424E+03  0.11069287525E+04  0.65400088607E+03 0.  0.
         13    1    3    3    0    0  0.20669068451E+03 -0.45978874652E+02 -0.86828591995E+03  0.89373124303E+03  0.00000000000E+00 0.  1.
          3    1    3    3  501    0 -0.20669791210E+03  0.45988023980E+02 -0.24784124290E+02  0.21319750944E+03  0.00000000000E+00 0.  1.
         21    1    1    2  502  501  0.72275868547E-02 -0.91493274236E-02  0.55888490985E-01  0.57091782496E-01  0.00000000000E+00 0. -1.
<mgrwt>
<rscale>  1 0.65400089E+03</rscale>
<asrwt>0</asrwt>
<pdfrwt beam="1">  1        1 0.38904025E+00 0.65400089E+03</pdfrwt>
<pdfrwt beam="2">0</pdfrwt>
<totfact> 0.14955512E+00</totfact>
</mgrwt>
</event>
<event>
 6    1  0.4292888E-003  0.4584148E+03  0.7818608E-02  0.1025242E+00
          1   -1    0    0  502    0  0.00000000000E+00  0.00000000000E+00  0.52536063863E+02  0.52536063863E+02  0.00000000000E+00 0.  1.
         13   -1    0    0    0    0 -0.00000000000E+00 -0.00000000000E+00 -0.10000000000E+04  0.10000000000E+04  0.00000000000E+00 0.  1.
    9000005    2    1    2  501    0 -0.61573053671E-04 -0.12278601952E-03 -0.94746366167E+03  0.10525357569E+04  0.45841480065E+03 0.  0.
         13    1    3    3    0    0  0.64920970397E+02 -0.43470575994E+02 -0.96848103687E+03  0.97162747088E+03  0.00000000000E+00 0.  1.
          3    1    3    3  501    0 -0.64921031970E+02  0.43470453208E+02  0.21017375203E+02  0.80908286069E+02  0.00000000000E+00 0.  1.
         21    1    1    2  502  501  0.61573053666E-04  0.12278601951E-03 -0.27446569656E-03  0.30691866368E-03  0.00000000000E+00 0. -1.
<mgrwt>
<rscale>  1 0.45841480E+03</rscale>
<asrwt>0</asrwt>
<pdfrwt beam="1">  1        1 0.19104064E+00 0.45841480E+03</pdfrwt>
<pdfrwt beam="2">0</pdfrwt>
<totfact> 0.11368190E+01</totfact>
</mgrwt>
</event>
<event>
 6    1  0.4292888E-003  0.6332698E+03  0.7818608E-02  0.9838689E-01
          1   -1    0    0  502    0  0.00000000000E+00  0.00000000000E+00  0.10038728114E+03  0.10038728114E+03  0.00000000000E+00 0.  1.
         13   -1    0    0    0    0 -0.00000000000E+00 -0.00000000000E+00 -0.10000000000E+04  0.10000000000E+04  0.00000000000E+00 0.  1.
    9000005    2    1    2  501    0 -0.14470866172E-01  0.15412647244E-01 -0.89974138847E+03  0.11002568863E+04  0.63326980759E+03 0.  0.
         13    1    3    3    0    0  0.11119209232E+03  0.83512489643E+02  0.44362678887E+02  0.14596597069E+03  0.00000000000E+00 0.  1.
          3    1    3    3  501    0 -0.11120656318E+03 -0.83497076996E+02 -0.94410406735E+03  0.95429091558E+03  0.00000000000E+00 0.  1.
         21    1    1    2  502  501  0.14470866172E-01 -0.15412647244E-01  0.12866960657E+00  0.13039487459E+00  0.00000000000E+00 0.  1.
<mgrwt>
<rscale>  1 0.63326981E+03</rscale>
<asrwt>0</asrwt>
<pdfrwt beam="1">  1        1 0.36504543E+00 0.63326981E+03</pdfrwt>
<pdfrwt beam="2">0</pdfrwt>
<totfact> 0.19150688E+00</totfact>
</mgrwt>
</event>
<event>
 6    1  0.4292888E-003  0.6582006E+03  0.7818608E-02  0.9791512E-01
          1   -1    0    0  502    0  0.00000000000E+00  0.00000000000E+00  0.10830717281E+03  0.10830717281E+03  0.00000000000E+00 0.  1.
         13   -1    0    0    0    0 -0.00000000000E+00 -0.00000000000E+00 -0.10000000000E+04  0.10000000000E+04  0.00000000000E+00 0.  1.
    9000005    2    1    2  501    0  0.14195937848E-03  0.25282978936E-03 -0.89169285395E+03  0.11083068816E+04  0.65820057586E+03 0.  0.
         13    1    3    3    0    0  0.24307874368E+03  0.20452883210E+03 -0.59057653885E+03  0.67059672459E+03  0.00000000000E+00 0.  1.
          1    1    3    3  501    0 -0.24307860172E+03 -0.20452857927E+03 -0.30111631510E+03  0.43771015703E+03  0.00000000000E+00 0.  1.
         21    1    1    2  502  501 -0.14195937846E-03 -0.25282978935E-03  0.26765835332E-04  0.29119027706E-03  0.00000000000E+00 0.  1.
<mgrwt>
<rscale>  1 0.65820058E+03</rscale>
<asrwt>0</asrwt>
<pdfrwt beam="1">  1        1 0.39384510E+00 0.65820058E+03</pdfrwt>
<pdfrwt beam="2">0</pdfrwt>
<totfact> 0.14227798E+00</totfact>
</mgrwt>
</event>
<event>
 6    1  0.4292888E-003  0.6524576E+03  0.7818608E-02  0.9802179E-01
          1   -1    0    0  502    0  0.00000000000E+00  0.00000000000E+00  0.10642575283E+03  0.10642575283E+03  0.00000000000E+00 0.  1.
         13   -1    0    0    0    0 -0.00000000000E+00 -0.00000000000E+00 -0.10000000000E+04  0.10000000000E+04  0.00000000000E+00 0.  1.
    9000005    2    1    2  501    0 -0.25343604150E-03  0.37967449710E-03 -0.89357466749E+03  0.11064251323E+04  0.65245757488E+03 0.  0.
         13    1    3    3    0    0  0.21570179091E+03 -0.10759648511E+03 -0.81955381030E+03  0.85426735521E+03  0.00000000000E+00 0.  1.
          1    1    3    3  501    0 -0.21570204435E+03  0.10759686479E+03 -0.74020857190E+02  0.25215777709E+03  0.00000000000E+00 0.  1.
         21    1    1    2  502  501  0.25343604150E-03 -0.37967449709E-03  0.42031352219E-03  0.62052075534E-03  0.00000000000E+00 0.  1.
<mgrwt>
<rscale>  1 0.65245757E+03</rscale>
<asrwt>0</asrwt>
<pdfrwt beam="1">  1        1 0.38700355E+00 0.65245757E+03</pdfrwt>
<pdfrwt beam="2">0</pdfrwt>
<totfact> 0.15273841E+00</totfact>
</mgrwt>
</event>
<event>
 6    1  0.4292888E-003  0.6541136E+03  0.7818608E-02  0.9799091E-01
          1   -1    0    0  502    0  0.00000000000E+00  0.00000000000E+00  0.10735084765E+03  0.10735084765E+03  0.00000000000E+00 0.  1.
         13   -1    0    0    0    0 -0.00000000000E+00 -0.00000000000E+00 -0.10000000000E+04  0.10000000000E+04  0.00000000000E+00 0.  1.
    9000005    2    1    2  501    0 -0.12713278043E-01  0.68956532493E-03 -0.89303371828E+03  0.11069660710E+04  0.65411364473E+03 0.  0.
         13    1    3    3    0    0  0.48895814762E+02  0.29666917721E+03 -0.22872393238E+03  0.37778041062E+03  0.00000000000E+00 0.  1.
          3    1    3    3  501    0 -0.48908528040E+02 -0.29666848764E+03 -0.66430978590E+03  0.72918566039E+03  0.00000000000E+00 0.  1.
         21    1    1    2  502  501  0.12713278043E-01 -0.68956532494E-03  0.38456593609E+00  0.38477663928E+00  0.00000000000E+00 0.  1.
<mgrwt>
<rscale>  1 0.65411364E+03</rscale>
<asrwt>0</asrwt>
<pdfrwt beam="1">  1        1 0.39036754E+00 0.65411364E+03</pdfrwt>
<pdfrwt beam="2">0</pdfrwt>
<totfact> 0.14753905E+00</totfact>
</mgrwt>
</event>
<event>
 6    1  0.4292888E-003  0.6627562E+03  0.7818608E-02  0.9783133E-01
          1   -1    0    0  502    0  0.00000000000E+00  0.00000000000E+00  0.10982371882E+03  0.10982371882E+03  0.00000000000E+00 0.  1.
         13   -1    0    0    0    0 -0.00000000000E+00 -0.00000000000E+00 -0.10000000000E+04  0.10000000000E+04  0.00000000000E+00 0.  1.
    9000005    2    1    2  501    0  0.94655669042E-02 -0.83325469548E-02 -0.89018486170E+03  0.11098084658E+04  0.66275617135E+03 0.  0.
         13    1    3    3    0    0  0.25192942137E+03  0.34638950458E+01 -0.80554398345E+03  0.84402697895E+03  0.00000000000E+00 0.  1.
          1    1    3    3  501    0 -0.25191995580E+03 -0.34722275928E+01 -0.84640878256E+02  0.26578148688E+03  0.00000000000E+00 0.  1.
         21    1    1    2  502  501 -0.94655669042E-02  0.83325469548E-02  0.85805204297E-02  0.15252987459E-01  0.00000000000E+00 0.  1.
<mgrwt>
<rscale>  1 0.66275617E+03</rscale>
<asrwt>0</asrwt>
<pdfrwt beam="1">  1        1 0.39935982E+00 0.66275617E+03</pdfrwt>
<pdfrwt beam="2">0</pdfrwt>
<totfact> 0.13434569E+00</totfact>
</mgrwt>
</event>
<event>
 6    1  0.4292888E-003  0.5757866E+03  0.7818608E-02  0.9956955E-01
          1   -1    0    0  502    0  0.00000000000E+00  0.00000000000E+00  0.82996991954E+02  0.82996991954E+02  0.00000000000E+00 0.  1.
         13   -1    0    0    0    0 -0.00000000000E+00 -0.00000000000E+00 -0.10000000000E+04  0.10000000000E+04  0.00000000000E+00 0.  1.
    9000005    2    1    2  501    0 -0.64037399512E-02  0.22598357758E-02 -0.91711733469E+03  0.10828824638E+04  0.57578661393E+03 0.  0.
         13    1    3    3    0    0  0.51765817658E+02  0.18475607241E+03 -0.86222295881E+03  0.88331361184E+03  0.00000000000E+00 0.  1.
          3    1    3    3  501    0 -0.51772221398E+02 -0.18475381258E+03 -0.54894375882E+02  0.19956885196E+03  0.00000000000E+00 0.  1.
         21    1    1    2  502  501  0.64037399512E-02 -0.22598357758E-02  0.11432664479E+00  0.11452814699E+00  0.00000000000E+00 0.  1.
<mgrwt>
<rscale>  1 0.57578661E+03</rscale>
<asrwt>0</asrwt>
<pdfrwt beam="1">  1        1 0.30180788E+00 0.57578661E+03</pdfrwt>
<pdfrwt beam="2">0</pdfrwt>
<totfact> 0.36397445E+00</totfact>
</mgrwt>
</event>
<event>
 6    1  0.4292888E-003  0.6461472E+03  0.7818608E-02  0.9814036E-01
          1   -1    0    0  502    0  0.00000000000E+00  0.00000000000E+00  0.10719263127E+03  0.10719263127E+03  0.00000000000E+00 0.  1.
         13   -1    0    0    0    0 -0.00000000000E+00 -0.00000000000E+00 -0.10000000000E+04  0.10000000000E+04  0.00000000000E+00 0.  1.
    9000005    2    1    2  501    0  0.14806590385E+00  0.10951983769E+00 -0.89562013937E+03  0.11043738378E+04  0.64614712381E+03 0.  0.
         13    1    3    3    0    0 -0.29484153705E+03 -0.51735313900E+02 -0.24034388579E+03  0.38389224805E+03  0.00000000000E+00 0.  1.
          1    1    3    3  501    0  0.29498960296E+03  0.51844833738E+02 -0.65527625358E+03  0.72048158973E+03  0.00000000000E+00 0.  1.
         21    1    1    2  502  501 -0.14806590385E+00 -0.10951983769E+00  0.28127706326E+01  0.28187934899E+01  0.00000000000E+00 0.  1.
<mgrwt>
<rscale>  1 0.64614715E+03</rscale>
<asrwt>0</asrwt>
<pdfrwt beam="1">  1        1 0.38979221E+00 0.64614715E+03</pdfrwt>
<pdfrwt beam="2">0</pdfrwt>
<totfact> 0.14862907E+00</totfact>
</mgrwt>
</event>
<event>
 6    1  0.4292888E-003  0.6550305E+03  0.7818608E-02  0.9797385E-01
          1   -1    0    0  502    0  0.00000000000E+00  0.00000000000E+00  0.10726627020E+03  0.10726627020E+03  0.00000000000E+00 0.  1.
         13   -1    0    0    0    0 -0.00000000000E+00 -0.00000000000E+00 -0.10000000000E+04  0.10000000000E+04  0.00000000000E+00 0.  1.
    9000005    2    1    2  501    0  0.89162100153E-04  0.62380297997E-04 -0.89273369307E+03  0.11072661553E+04  0.65503045122E+03 0.  0.
         13    1    3    3    0    0 -0.28272430121E+03  0.59160276129E+02 -0.18540195345E+03  0.34323002944E+03  0.00000000000E+00 0.  1.
          3    1    3    3  501    0  0.28272439038E+03 -0.59160213749E+02 -0.70733173962E+03  0.76403612590E+03  0.00000000000E+00 0.  1.
         21    1    1    2  502  501 -0.89162100177E-04 -0.62380298001E-04 -0.36733407020E-04  0.11485001035E-03  0.00000000000E+00 0.  1.
<mgrwt>
<rscale>  1 0.65503045E+03</rscale>
<asrwt>0</asrwt>
<pdfrwt beam="1">  1        1 0.39005999E+00 0.65503045E+03</pdfrwt>
<pdfrwt beam="2">0</pdfrwt>
<totfact> 0.14797801E+00</totfact>
</mgrwt>
</event>
<event>
 6    1  0.4292888E-003  0.6840351E+03  0.7818608E-02  0.9744931E-01
          1   -1    0    0  502    0  0.00000000000E+00  0.00000000000E+00  0.11705326321E+03  0.11705326321E+03  0.00000000000E+00 0.  1.
         13   -1    0    0    0    0 -0.00000000000E+00 -0.00000000000E+00 -0.10000000000E+04  0.10000000000E+04  0.00000000000E+00 0.  1.
    9000005    2    1    2  501    0 -0.19386641451E-01  0.32202973047E-01 -0.88301886889E+03  0.11169719249E+04  0.68403505530E+03 0.  0.
         13    1    3    3    0    0 -0.13282161978E+03  0.30185162957E+03 -0.29337488518E+03  0.44138963764E+03  0.00000000000E+00 0.  1.
          1    1    3    3  501    0  0.13280223314E+03 -0.30181942660E+03 -0.58964398371E+03  0.67558228731E+03  0.00000000000E+00 0.  1.
         21    1    1    2  502  501  0.19386641451E-01 -0.32202973047E-01  0.72132100732E-01  0.81338264647E-01  0.00000000000E+00 0. -1.
<mgrwt>
<rscale>  1 0.68403506E+03</rscale>
<asrwt>0</asrwt>
<pdfrwt beam="1">  1        1 0.42564913E+00 0.68403506E+03</pdfrwt>
<pdfrwt beam="2">0</pdfrwt>
<totfact> 0.10194023E+00</totfact>
</mgrwt>
</event>
<event>
 6    1  0.4292888E-003  0.6567918E+03  0.7818608E-02  0.9794118E-01
          1   -1    0    0  502    0  0.00000000000E+00  0.00000000000E+00  0.10881573077E+03  0.10881573077E+03  0.00000000000E+00 0.  1.
         13   -1    0    0    0    0 -0.00000000000E+00 -0.00000000000E+00 -0.10000000000E+04  0.10000000000E+04  0.00000000000E+00 0.  1.
    9000005    2    1    2  501    0  0.88743394624E-01 -0.41365977125E+00 -0.89210484413E+03  0.11078025931E+04  0.65679171230E+03 0.  0.
         13    1    3    3    0    0  0.13524459531E+03 -0.19945793104E+03 -0.82288827896E+03  0.85744952415E+03  0.00000000000E+00 0.  1.
          1    1    3    3  501    0 -0.13515585192E+03  0.19904427127E+03 -0.69216565174E+02  0.25035306894E+03  0.00000000000E+00 0.  1.
         21    1    1    2  502  501 -0.88743394624E-01  0.41365977125E+00  0.92057490482E+00  0.10131376766E+01  0.00000000000E+00 0. -1.
<mgrwt>
<rscale>  1 0.65679185E+03</rscale>
<asrwt>0</asrwt>
<pdfrwt beam="1">  1        1 0.39569440E+00 0.65679185E+03</pdfrwt>
<pdfrwt beam="2">0</pdfrwt>
<totfact> 0.13964638E+00</totfact>
</mgrwt>
</event>
<event>
 6    1  0.4292888E-003  0.6488425E+03  0.7818608E-02  0.9808954E-01
          1   -1    0    0  502    0  0.00000000000E+00  0.00000000000E+00  0.10524921005E+03  0.10524921005E+03  0.00000000000E+00 0.  1.
         13   -1    0    0    0    0 -0.00000000000E+00 -0.00000000000E+00 -0.10000000000E+04  0.10000000000E+04  0.00000000000E+00 0.  1.
    9000005    2    1    2  501    0  0.76131685773E-04 -0.10681500170E-03 -0.89475077535E+03  0.11052490781E+04  0.64884248826E+03 0.  0.
         13    1    3    3    0    0 -0.31228918055E+03 -0.42321503199E+02 -0.31616269519E+03  0.44640171567E+03  0.00000000000E+00 0.  1.
          1    1    3    3  501    0  0.31228925668E+03  0.42321396384E+02 -0.57858808016E+03  0.65884736240E+03  0.00000000000E+00 0.  1.
         21    1    1    2  502  501 -0.76131685790E-04  0.10681500170E-03 -0.14602106310E-04  0.13197992149E-03  0.00000000000E+00 0.  1.
<mgrwt>
<rscale>  1 0.64884249E+03</rscale>
<asrwt>0</asrwt>
<pdfrwt beam="1">  1        1 0.38272521E+00 0.64884249E+03</pdfrwt>
<pdfrwt beam="2">0</pdfrwt>
<totfact> 0.15964712E+00</totfact>
</mgrwt>
</event>
<event>
 6    1  0.4292888E-003  0.6275329E+03  0.7818608E-02  0.9849875E-01
          1   -1    0    0  502    0  0.00000000000E+00  0.00000000000E+00  0.10621734492E+03  0.10621734492E+03  0.00000000000E+00 0.  1.
         13   -1    0    0    0    0 -0.00000000000E+00 -0.00000000000E+00 -0.10000000000E+04  0.10000000000E+04  0.00000000000E+00 0.  1.
    9000005    2    1    2  501    0  0.16642376408E+00  0.51984854639E+00 -0.90154008987E+03  0.10984407304E+04  0.62753263386E+03 0.  0.
         13    1    3    3    0    0 -0.39955212785E+02 -0.24570015485E+03 -0.11673469781E+03  0.27493994762E+03  0.00000000000E+00 0.  1.
          3    1    3    3  501    0  0.40121636549E+02  0.24622000340E+03 -0.78480539205E+03  0.82350078275E+03  0.00000000000E+00 0.  1.
         21    1    1    2  502  501 -0.16642376408E+00 -0.51984854639E+00  0.77574347855E+01  0.77766145482E+01  0.00000000000E+00 0. -1.
<mgrwt>
<rscale>  1 0.62753287E+03</rscale>
<asrwt>0</asrwt>
<pdfrwt beam="1">  1        1 0.38624571E+00 0.62753287E+03</pdfrwt>
<pdfrwt beam="2">0</pdfrwt>
<totfact> 0.15464500E+00</totfact>
</mgrwt>
</event>
<event>
 6    1  0.4292888E-003  0.6437054E+03  0.7818608E-02  0.9818663E-01
          1   -1    0    0  502    0  0.00000000000E+00  0.00000000000E+00  0.10359131892E+03  0.10359131892E+03  0.00000000000E+00 0.  1.
         13   -1    0    0    0    0 -0.00000000000E+00 -0.00000000000E+00 -0.10000000000E+04  0.10000000000E+04  0.00000000000E+00 0.  1.
    9000005    2    1    2  501    0 -0.19238790213E-02 -0.34049953749E-02 -0.89640866813E+03  0.11035874080E+04  0.64370541923E+03 0.  0.
         13    1    3    3    0    0  0.24223345253E+03 -0.16454230081E+02 -0.85971808923E+02  0.25756346624E+03  0.00000000000E+00 0.  1.
          1    1    3    3  501    0 -0.24223537641E+03  0.16450825085E+02 -0.81043685921E+03  0.84602394174E+03  0.00000000000E+00 0.  1.
         21    1    1    2  502  501  0.19238790213E-02  0.34049953749E-02 -0.12948795015E-04  0.39109425543E-02  0.00000000000E+00 0.  1.
<mgrwt>
<rscale>  1 0.64370542E+03</rscale>
<asrwt>0</asrwt>
<pdfrwt beam="1">  1        1 0.37669650E+00 0.64370542E+03</pdfrwt>
<pdfrwt beam="2">0</pdfrwt>
<totfact> 0.16988993E+00</totfact>
</mgrwt>
</event>
<event>
 6    1  0.4292888E-003  0.6263915E+03  0.7818608E-02  0.9852116E-01
          1   -1    0    0  502    0  0.00000000000E+00  0.00000000000E+00  0.10550474662E+03  0.10550474662E+03  0.00000000000E+00 0.  1.
         13   -1    0    0    0    0 -0.00000000000E+00 -0.00000000000E+00 -0.10000000000E+04  0.10000000000E+04  0.00000000000E+00 0.  1.
    9000005    2    1    2  501    0 -0.37517784421E+00  0.46750597431E+00 -0.90189509890E+03  0.10980806619E+04  0.62639126055E+03 0.  0.
         13    1    3    3    0    0  0.25672206895E+03  0.15578465668E+03 -0.60663496640E+03  0.67689073151E+03  0.00000000000E+00 0.  1.
          3    1    3    3  501    0 -0.25709724680E+03 -0.15531715071E+03 -0.29526013251E+03  0.42118993039E+03  0.00000000000E+00 0.  1.
         21    1    1    2  502  501  0.37517784421E+00 -0.46750597431E+00  0.73998455238E+01  0.74240847266E+01  0.00000000000E+00 0.  1.
<mgrwt>
<rscale>  1 0.62639155E+03</rscale>
<asrwt>0</asrwt>
<pdfrwt beam="1">  1        1 0.38365443E+00 0.62639155E+03</pdfrwt>
<pdfrwt beam="2">0</pdfrwt>
<totfact> 0.15881151E+00</totfact>
</mgrwt>
</event>
<event>
 6    1  0.4292888E-003  0.6589033E+03  0.7818608E-02  0.9790215E-01
          1   -1    0    0  502    0  0.00000000000E+00  0.00000000000E+00  0.11426290888E+03  0.11426290888E+03  0.00000000000E+00 0.  1.
         13   -1    0    0    0    0 -0.00000000000E+00 -0.00000000000E+00 -0.10000000000E+04  0.10000000000E+04  0.00000000000E+00 0.  1.
    9000005    2    1    2  501    0  0.51736296317E-01  0.95090827196E-01 -0.89146104146E+03  0.11085379350E+04  0.65890329569E+03 0.  0.
         13    1    3    3    0    0 -0.32735481445E+03 -0.19870930310E+02 -0.39346883588E+03  0.51222431924E+03  0.00000000000E+00 0.  1.
          3    1    3    3  501    0  0.32740655074E+03  0.19966021137E+02 -0.49799220558E+03  0.59631361571E+03  0.00000000000E+00 0.  1.
         21    1    1    2  502  501 -0.51736296317E-01 -0.95090827196E-01  0.57239503387E+01  0.57249739204E+01  0.00000000000E+00 0. -1.
<mgrwt>
<rscale>  1 0.65890330E+03</rscale>
<asrwt>0</asrwt>
<pdfrwt beam="1">  1        1 0.41550236E+00 0.65890330E+03</pdfrwt>
<pdfrwt beam="2">0</pdfrwt>
<totfact> 0.11383053E+00</totfact>
</mgrwt>
</event>
<event>
 6    1  0.4292888E-003  0.6766139E+03  0.7818608E-02  0.9758083E-01
          1   -1    0    0  502    0  0.00000000000E+00  0.00000000000E+00  0.11452461863E+03  0.11452461863E+03  0.00000000000E+00 0.  1.
         13   -1    0    0    0    0 -0.00000000000E+00 -0.00000000000E+00 -0.10000000000E+04  0.10000000000E+04  0.00000000000E+00 0.  1.
    9000005    2    1    2  501    0 -0.38998336937E-02  0.17273388708E-02 -0.88554833618E+03  0.11144515392E+04  0.67661390584E+03 0.  0.
         13    1    3    3    0    0  0.17065382803E+03  0.12571426445E+03 -0.84744213766E+01  0.21212878429E+03  0.00000000000E+00 0.  1.
          1    1    3    3  501    0 -0.17065772786E+03 -0.12571253711E+03 -0.87707391481E+03  0.90232275495E+03  0.00000000000E+00 0.  1.
         21    1    1    2  502  501  0.38998336937E-02 -0.17273388708E-02  0.72954813188E-01  0.73079389500E-01  0.00000000000E+00 0.  1.
<mgrwt>
<rscale>  1 0.67661391E+03</rscale>
<asrwt>0</asrwt>
<pdfrwt beam="1">  1        1 0.41645404E+00 0.67661391E+03</pdfrwt>
<pdfrwt beam="2">0</pdfrwt>
<totfact> 0.11233127E+00</totfact>
</mgrwt>
</event>
<event>
 6    1  0.4292888E-003  0.6487552E+03  0.7818608E-02  0.9809118E-01
          1   -1    0    0  502    0  0.00000000000E+00  0.00000000000E+00  0.10522371507E+03  0.10522371507E+03  0.00000000000E+00 0.  1.
         13   -1    0    0    0    0 -0.00000000000E+00 -0.00000000000E+00 -0.10000000000E+04  0.10000000000E+04  0.00000000000E+00 0.  1.
    9000005    2    1    2  501    0 -0.64374862374E-02 -0.33715337535E-02 -0.89477280888E+03  0.11052156595E+04  0.64875517304E+03 0.  0.
         13    1    3    3    0    0  0.12282284832E+03 -0.14346095517E+03  0.19048092684E+01  0.18886536482E+03  0.00000000000E+00 0.  1.
          3    1    3    3  501    0 -0.12282928581E+03  0.14345758364E+03 -0.89667761815E+03  0.91635029473E+03  0.00000000000E+00 0.  1.
         21    1    1    2  502  501  0.64374862374E-02  0.33715337535E-02 -0.34760483266E-02  0.80555186597E-02  0.00000000000E+00 0. -1.
<mgrwt>
<rscale>  1 0.64875517E+03</rscale>
<asrwt>0</asrwt>
<pdfrwt beam="1">  1        1 0.38263250E+00 0.64875517E+03</pdfrwt>
<pdfrwt beam="2">0</pdfrwt>
<totfact> 0.15980033E+00</totfact>
</mgrwt>
</event>
<event>
 6    1  0.4292888E-003  0.6530096E+03  0.7818608E-02  0.9801148E-01
          1   -1    0    0  502    0  0.00000000000E+00  0.00000000000E+00  0.10660681759E+03  0.10660681759E+03  0.00000000000E+00 0.  1.
         13   -1    0    0    0    0 -0.00000000000E+00 -0.00000000000E+00 -0.10000000000E+04  0.10000000000E+04  0.00000000000E+00 0.  1.
    9000005    2    1    2  501    0 -0.56954634402E-04  0.52982747292E-04 -0.89339462811E+03  0.11066053698E+04  0.65300955808E+03 0.  0.
         13    1    3    3    0    0 -0.18949613798E+03  0.16085021216E+03 -0.87917843211E+02  0.26364962396E+03  0.00000000000E+00 0.  1.
          3    1    3    3  501    0  0.18949608103E+03 -0.16085015917E+03 -0.80547678490E+03  0.84295574584E+03  0.00000000000E+00 0.  1.
         21    1    1    2  502  501  0.56954634408E-04 -0.52982747292E-04  0.14456963295E-02  0.14477875808E-02  0.00000000000E+00 0.  1.
<mgrwt>
<rscale>  1 0.65300956E+03</rscale>
<asrwt>0</asrwt>
<pdfrwt beam="1">  1        1 0.38766197E+00 0.65300956E+03</pdfrwt>
<pdfrwt beam="2">0</pdfrwt>
<totfact> 0.15170087E+00</totfact>
</mgrwt>
</event>
<event>
 6    1  0.4292888E-003  0.6460968E+03  0.7818608E-02  0.9814131E-01
          1   -1    0    0  502    0  0.00000000000E+00  0.00000000000E+00  0.10437285840E+03  0.10437285840E+03  0.00000000000E+00 0.  1.
         13   -1    0    0    0    0 -0.00000000000E+00 -0.00000000000E+00 -0.10000000000E+04  0.10000000000E+04  0.00000000000E+00 0.  1.
    9000005    2    1    2  501    0 -0.21742019257E-03 -0.62370337362E-03 -0.89563972423E+03  0.11043602584E+04  0.64609679214E+03 0.  0.
         13    1    3    3    0    0 -0.23021477005E+03  0.94682817285E+02 -0.79976792440E+03  0.83761113241E+03  0.00000000000E+00 0.  1.
          1    1    3    3  501    0  0.23021455263E+03 -0.94683440989E+02 -0.95871799826E+02  0.26674912603E+03  0.00000000000E+00 0.  1.
         21    1    1    2  502  501  0.21742019255E-03  0.62370337362E-03  0.12582630227E-01  0.12599954796E-01  0.00000000000E+00 0.  1.
<mgrwt>
<rscale>  1 0.64609679E+03</rscale>
<asrwt>0</asrwt>
<pdfrwt beam="1">  1        1 0.37953847E+00 0.64609679E+03</pdfrwt>
<pdfrwt beam="2">0</pdfrwt>
<totfact> 0.16498672E+00</totfact>
</mgrwt>
</event>
<event>
 6    1  0.4292888E-003  0.6847033E+03  0.7818608E-02  0.9743755E-01
          1   -1    0    0  502    0  0.00000000000E+00  0.00000000000E+00  0.11720697229E+03  0.11720697229E+03  0.00000000000E+00 0.  1.
         13   -1    0    0    0    0 -0.00000000000E+00 -0.00000000000E+00 -0.10000000000E+04  0.10000000000E+04  0.00000000000E+00 0.  1.
    9000005    2    1    2  501    0  0.39572397807E-03  0.18694592805E-03 -0.88279531301E+03  0.11172046455E+04  0.68470333368E+03 0.  0.
         13    1    3    3    0    0 -0.20753584856E+03 -0.15043844272E+03 -0.71108225317E+02  0.26600607736E+03  0.00000000000E+00 0.  1.
          1    1    3    3  501    0  0.20753624429E+03  0.15043862967E+03 -0.81168708770E+03  0.85119856809E+03  0.00000000000E+00 0.  1.
         21    1    1    2  502  501 -0.39572397809E-03 -0.18694592804E-03  0.22853054888E-02  0.23268363552E-02  0.00000000000E+00 0.  1.
<mgrwt>
<rscale>  1 0.68470333E+03</rscale>
<asrwt>0</asrwt>
<pdfrwt beam="1">  1        1 0.42620807E+00 0.68470333E+03</pdfrwt>
<pdfrwt beam="2">0</pdfrwt>
<totfact> 0.10133435E+00</totfact>
</mgrwt>
</event>
<event>
 6    1  0.4292888E-003  0.6464245E+03  0.7818608E-02  0.9813512E-01
          1   -1    0    0  502    0  0.00000000000E+00  0.00000000000E+00  0.10446689394E+03  0.10446689394E+03  0.00000000000E+00 0.  1.
         13   -1    0    0    0    0 -0.00000000000E+00 -0.00000000000E+00 -0.10000000000E+04  0.10000000000E+04  0.00000000000E+00 0.  1.
    9000005    2    1    2  501    0 -0.48553310597E-03  0.26478156286E-04 -0.89553375805E+03  0.11044660806E+04  0.64642448234E+03 0.  0.
         13    1    3    3    0    0 -0.12913131117E+03 -0.23668413579E+03 -0.14321853865E+03  0.30529629129E+03  0.00000000000E+00 0.  1.
          1    1    3    3  501    0  0.12913082564E+03  0.23668416227E+03 -0.75231521940E+03  0.79916978930E+03  0.00000000000E+00 0.  1.
         21    1    1    2  502  501  0.48553310596E-03 -0.26478156274E-04  0.65199639725E-03  0.81335280892E-03  0.00000000000E+00 0. -1.
<mgrwt>
<rscale>  1 0.64642448E+03</rscale>
<asrwt>0</asrwt>
<pdfrwt beam="1">  1        1 0.37988042E+00 0.64642448E+03</pdfrwt>
<pdfrwt beam="2">0</pdfrwt>
<totfact> 0.16440473E+00</totfact>
</mgrwt>
</event>
<event>
 6    1  0.4292888E-003  0.6580410E+03  0.7818608E-02  0.9791807E-01
          1   -1    0    0  502    0  0.00000000000E+00  0.00000000000E+00  0.10928933868E+03  0.10928933868E+03  0.00000000000E+00 0.  1.
         13   -1    0    0    0    0 -0.00000000000E+00 -0.00000000000E+00 -0.10000000000E+04  0.10000000000E+04  0.00000000000E+00 0.  1.
    9000005    2    1    2  501    0  0.11969311396E+00  0.23618748797E+00 -0.89172669685E+03  0.11082393676E+04  0.65804097441E+03 0.  0.
         13    1    3    3    0    0 -0.15644310644E+03 -0.21167388016E+03 -0.77791131671E+03  0.82123461554E+03  0.00000000000E+00 0.  1.
          1    1    3    3  501    0  0.15656279955E+03  0.21191006765E+03 -0.11381538014E+03  0.28700475211E+03  0.00000000000E+00 0.  1.
         21    1    1    2  502  501 -0.11969311396E+00 -0.23618748797E+00  0.10160355347E+01  0.10499710371E+01  0.00000000000E+00 0. -1.
<mgrwt>
<rscale>  1 0.65804103E+03</rscale>
<asrwt>0</asrwt>
<pdfrwt beam="1">  1        1 0.39741662E+00 0.65804103E+03</pdfrwt>
<pdfrwt beam="2">0</pdfrwt>
<totfact> 0.13717151E+00</totfact>
</mgrwt>
</event>
<event>
 6    1  0.4292888E-003  0.6482428E+03  0.7818608E-02  0.9810082E-01
          1   -1    0    0  502    0  0.00000000000E+00  0.00000000000E+00  0.10505469261E+03  0.10505469261E+03  0.00000000000E+00 0.  1.
         13   -1    0    0    0    0 -0.00000000000E+00 -0.00000000000E+00 -0.10000000000E+04  0.10000000000E+04  0.00000000000E+00 0.  1.
    9000005    2    1    2  501    0 -0.15071643929E-04 -0.23760828498E-04 -0.89494530551E+03  0.11050546644E+04  0.64824278744E+03 0.  0.
         13    1    3    3    0    0  0.23022539844E+03  0.22783151818E+03 -0.46791005801E+03  0.56907886725E+03  0.00000000000E+00 0.  1.
          3    1    3    3  501    0 -0.23022541351E+03 -0.22783154194E+03 -0.42703524751E+03  0.53597579716E+03  0.00000000000E+00 0.  1.
         21    1    1    2  502  501  0.15071643935E-04  0.23760828507E-04 -0.18761721748E-05  0.28200202912E-04  0.00000000000E+00 0. -1.
<mgrwt>
<rscale>  1 0.64824279E+03</rscale>
<asrwt>0</asrwt>
<pdfrwt beam="1">  1        1 0.38201787E+00 0.64824279E+03</pdfrwt>
<pdfrwt beam="2">0</pdfrwt>
<totfact> 0.16081763E+00</totfact>
</mgrwt>
</event>
<event>
 6    1  0.4292888E-003  0.6474128E+03  0.7818608E-02  0.9811646E-01
          1   -1    0    0  502    0  0.00000000000E+00  0.00000000000E+00  0.10490103352E+03  0.10490103352E+03  0.00000000000E+00 0.  1.
         13   -1    0    0    0    0 -0.00000000000E+00 -0.00000000000E+00 -0.10000000000E+04  0.10000000000E+04  0.00000000000E+00 0.  1.
    9000005    2    1    2  501    0 -0.14353608987E-01  0.19170123218E-02 -0.89521365817E+03  0.11047854312E+04  0.64741281661E+03 0.  0.
         13    1    3    3    0    0 -0.28455057095E+03 -0.14022317425E+03 -0.33757677313E+03  0.46323821494E+03  0.00000000000E+00 0.  1.
          1    1    3    3  501    0  0.28453621734E+03  0.14022509126E+03 -0.55763688505E+03  0.64154721631E+03  0.00000000000E+00 0.  1.
         21    1    1    2  502  501  0.14353608987E-01 -0.19170123218E-02  0.11469168660E+00  0.11560226642E+00  0.00000000000E+00 0. -1.
<mgrwt>
<rscale>  1 0.64741282E+03</rscale>
<asrwt>0</asrwt>
<pdfrwt beam="1">  1        1 0.38145911E+00 0.64741282E+03</pdfrwt>
<pdfrwt beam="2">0</pdfrwt>
<totfact> 0.16175865E+00</totfact>
</mgrwt>
</event>
<event>
 6    1  0.4292888E-003  0.6525951E+03  0.7818608E-02  0.9801922E-01
          1   -1    0    0  502    0  0.00000000000E+00  0.00000000000E+00  0.10647060713E+03  0.10647060713E+03  0.00000000000E+00 0.  1.
         13   -1    0    0    0    0 -0.00000000000E+00 -0.00000000000E+00 -0.10000000000E+04  0.10000000000E+04  0.00000000000E+00 0.  1.
    9000005    2    1    2  501    0  0.19727296736E-03 -0.14842005709E-02 -0.89352820648E+03  0.11064686968E+04  0.65259506683E+03 0.  0.
         13    1    3    3    0    0  0.12663750993E+03 -0.24324729218E+03 -0.74655601834E+03  0.79533149856E+03  0.00000000000E+00 0.  1.
          1    1    3    3  501    0 -0.12663731265E+03  0.24324580798E+03 -0.14697218814E+03  0.31113719826E+03  0.00000000000E+00 0.  1.
         21    1    1    2  502  501 -0.19727296736E-03  0.14842005709E-02 -0.11863910060E-02  0.19103119058E-02  0.00000000000E+00 0.  1.
<mgrwt>
<rscale>  1 0.65259507E+03</rscale>
<asrwt>0</asrwt>
<pdfrwt beam="1">  1        1 0.38716666E+00 0.65259507E+03</pdfrwt>
<pdfrwt beam="2">0</pdfrwt>
<totfact> 0.15248074E+00</totfact>
</mgrwt>
</event>
<event>
 6    1  0.4292888E-003  0.6498382E+03  0.7818608E-02  0.9807083E-01
          1   -1    0    0  502    0  0.00000000000E+00  0.00000000000E+00  0.11172856852E+03  0.11172856852E+03  0.00000000000E+00 0.  1.
         13   -1    0    0    0    0 -0.00000000000E+00 -0.00000000000E+00 -0.10000000000E+04  0.10000000000E+04  0.00000000000E+00 0.  1.
    9000005    2    1    2  501    0  0.13263979644E+02 -0.88659735923E+01 -0.87947243752E+03  0.10935087733E+04  0.64964230948E+03 0.  0.
         13    1    3    3    0    0 -0.19015016996E+03 -0.16313257981E+03 -0.94003496951E+02  0.26759294305E+03  0.00000000000E+00 0.  1.
          3    1    3    3  501    0  0.20341414960E+03  0.15426660621E+03 -0.78546894057E+03  0.82591583024E+03  0.00000000000E+00 0.  1.
         21    1    1    2  502  501 -0.13263979644E+02  0.88659735923E+01 -0.87989939574E+01  0.18219795235E+02  0.00000000000E+00 0.  1.
<mgrwt>
<rscale>  1 0.64983819E+03</rscale>
<asrwt>0</asrwt>
<pdfrwt beam="1">  1        1 0.40628656E+00 0.64983819E+03</pdfrwt>
<pdfrwt beam="2">0</pdfrwt>
<totfact> 0.12541769E+00</totfact>
</mgrwt>
</event>
<event>
 6    1  0.4292888E-003  0.6522901E+03  0.7818608E-02  0.9802491E-01
          1   -1    0    0  502    0  0.00000000000E+00  0.00000000000E+00  0.15222477885E+03  0.15222477885E+03  0.00000000000E+00 0.  1.
         13   -1    0    0    0    0 -0.00000000000E+00 -0.00000000000E+00 -0.10000000000E+04  0.10000000000E+04  0.00000000000E+00 0.  1.
    9000005    2    1    2  501    0 -0.62665910195E+00 -0.19080487877E+00 -0.89362680637E+03  0.11063685145E+04  0.65228980661E+03 0.  0.
         13    1    3    3    0    0  0.95056603401E+02  0.30742919373E+03 -0.53475896532E+03  0.62411186337E+03  0.00000000000E+00 0.  1.
          3    1    3    3  501    0 -0.95683262503E+02 -0.30761999861E+03 -0.35886784105E+03  0.48225665118E+03  0.00000000000E+00 0.  1.
         21    1    1    2  502  501  0.62665910195E+00  0.19080487877E+00  0.45851585222E+02  0.45856264300E+02  0.00000000000E+00 0.  1.
<mgrwt>
<rscale>  1 0.65229014E+03</rscale>
<asrwt>0</asrwt>
<pdfrwt beam="1">  1        1 0.55354582E+00 0.65229014E+03</pdfrwt>
<pdfrwt beam="2">0</pdfrwt>
<totfact> 0.25101374E-01</totfact>
</mgrwt>
</event>
<event>
 6    1  0.4292888E-003  0.6632316E+03  0.7818608E-02  0.9782263E-01
          1   -1    0    0  502    0  0.00000000000E+00  0.00000000000E+00  0.12438027175E+03  0.12438027175E+03  0.00000000000E+00 0.  1.
         13   -1    0    0    0    0 -0.00000000000E+00 -0.00000000000E+00 -0.10000000000E+04  0.10000000000E+04  0.00000000000E+00 0.  1.
    9000005    2    1    2  501    0  0.28594765300E+02 -0.65974070743E+01 -0.87085066583E+03  0.10946493058E+04  0.66258209608E+03 0.  0.
         13    1    3    3    0    0  0.29696377815E+03  0.10174857366E+03 -0.67721455049E+03  0.74643138008E+03  0.00000000000E+00 0.  1.
          1    1    3    3  501    0 -0.26836901285E+03 -0.10834598073E+03 -0.19363611534E+03  0.34821792568E+03  0.00000000000E+00 0.  1.
         21    1    1    2  502  501 -0.28594765300E+02  0.65974070743E+01 -0.47690624178E+01  0.29730965996E+02  0.00000000000E+00 0.  1.
<mgrwt>
<rscale>  1 0.66323165E+03</rscale>
<asrwt>0</asrwt>
<pdfrwt beam="1">  1        1 0.45229285E+00 0.66323165E+03</pdfrwt>
<pdfrwt beam="2">0</pdfrwt>
<totfact> 0.77325148E-01</totfact>
</mgrwt>
</event>
<event>
 6    1  0.4292888E-003  0.6516141E+03  0.7818608E-02  0.9803755E-01
          1   -1    0    0  502    0  0.00000000000E+00  0.00000000000E+00  0.10615025730E+03  0.10615025730E+03  0.00000000000E+00 0.  1.
         13   -1    0    0    0    0 -0.00000000000E+00 -0.00000000000E+00 -0.10000000000E+04  0.10000000000E+04  0.00000000000E+00 0.  1.
    9000005    2    1    2  501    0  0.31873161959E-05  0.13618815160E-05 -0.89384974963E+03  0.11061502496E+04  0.65161414939E+03 0.  0.
         13    1    3    3    0    0  0.18834519016E+03  0.24441174220E+03 -0.62447345551E+03  0.69654727551E+03  0.00000000000E+00 0.  1.
          1    1    3    3  501    0 -0.18834518697E+03 -0.24441174084E+03 -0.26937629412E+03  0.40960297405E+03  0.00000000000E+00 0.  1.
         21    1    1    2  502  501 -0.31873161967E-05 -0.13618815307E-05  0.69245105996E-05  0.77435491143E-05  0.00000000000E+00 0. -1.
<mgrwt>
<rscale>  1 0.65161415E+03</rscale>
<asrwt>0</asrwt>
<pdfrwt beam="1">  1        1 0.38600175E+00 0.65161415E+03</pdfrwt>
<pdfrwt beam="2">0</pdfrwt>
<totfact> 0.15433010E+00</totfact>
</mgrwt>
</event>
<event>
 6    1  0.4292888E-003  0.6671149E+03  0.7818608E-02  0.9775184E-01
          1   -1    0    0  502    0  0.00000000000E+00  0.00000000000E+00  0.11126150852E+03  0.11126150852E+03  0.00000000000E+00 0.  1.
         13   -1    0    0    0    0 -0.00000000000E+00 -0.00000000000E+00 -0.10000000000E+04  0.10000000000E+04  0.00000000000E+00 0.  1.
    9000005    2    1    2  501    0  0.21181480804E-04  0.57003496835E-04 -0.88873942962E+03  0.11112605684E+04  0.66711489052E+03 0.  0.
         13    1    3    3    0    0 -0.13479752365E+03 -0.65247526606E+02  0.52110933060E+02  0.15856595301E+03  0.00000000000E+00 0.  1.
          1    1    3    3  501    0  0.13479754483E+03  0.65247583609E+02 -0.94085036268E+03  0.95269461540E+03  0.00000000000E+00 0.  1.
         21    1    1    2  502  501 -0.21181480816E-04 -0.57003496824E-04  0.93813384362E-03  0.94010274030E-03  0.00000000000E+00 0. -1.
<mgrwt>
<rscale>  1 0.66711489E+03</rscale>
<asrwt>0</asrwt>
<pdfrwt beam="1">  1        1 0.40458816E+00 0.66711489E+03</pdfrwt>
<pdfrwt beam="2">0</pdfrwt>
<totfact> 0.12721180E+00</totfact>
</mgrwt>
</event>
<event>
 6    1  0.4292888E-003  0.6659166E+03  0.7818608E-02  0.9777363E-01
          1   -1    0    0  502    0  0.00000000000E+00  0.00000000000E+00  0.11131511654E+03  0.11131511654E+03  0.00000000000E+00 0.  1.
         13   -1    0    0    0    0 -0.00000000000E+00 -0.00000000000E+00 -0.10000000000E+04  0.10000000000E+04  0.00000000000E+00 0.  1.
    9000005    2    1    2  501    0  0.57233816047E+00 -0.19926485226E+00 -0.88890169905E+03  0.11106714657E+04  0.66591629112E+03 0.  0.
         13    1    3    3    0    0 -0.29712175830E+03  0.14631087444E+03 -0.49609620617E+03  0.59648944418E+03  0.00000000000E+00 0.  1.
          1    1    3    3  501    0  0.29769409646E+03 -0.14651013929E+03 -0.39280549288E+03  0.51418202149E+03  0.00000000000E+00 0.  1.
         21    1    1    2  502  501 -0.57233816047E+00  0.19926485226E+00  0.21681559513E+00  0.64365087864E+00  0.00000000000E+00 0. -1.
<mgrwt>
<rscale>  1 0.66591657E+03</rscale>
<asrwt>0</asrwt>
<pdfrwt beam="1">  1        1 0.40478310E+00 0.66591657E+03</pdfrwt>
<pdfrwt beam="2">0</pdfrwt>
<totfact> 0.12698532E+00</totfact>
</mgrwt>
</event>
<event>
 6    1  0.4292888E-003  0.6494694E+03  0.7818608E-02  0.9807775E-01
          1   -1    0    0  502    0  0.00000000000E+00  0.00000000000E+00  0.11963690422E+03  0.11963690422E+03  0.00000000000E+00 0.  1.
         13   -1    0    0    0    0 -0.00000000000E+00 -0.00000000000E+00 -0.10000000000E+04  0.10000000000E+04  0.00000000000E+00 0.  1.
    9000005    2    1    2  501    0  0.12596288601E+02 -0.13234531613E+02 -0.88772463412E+03  0.10999388952E+04  0.64921239034E+03 0.  0.
         13    1    3    3    0    0  0.11472596036E+03 -0.29616245983E+03 -0.28680019423E+03  0.42793527548E+03  0.00000000000E+00 0.  1.
          3    1    3    3  501    0 -0.10212967176E+03  0.28292792821E+03 -0.60092443990E+03  0.67200361969E+03  0.00000000000E+00 0.  1.
         21    1    1    2  502  501 -0.12596288601E+02  0.13234531613E+02  0.73615383412E+01  0.19698009043E+02  0.00000000000E+00 0. -1.
<mgrwt>
<rscale>  1 0.64946944E+03</rscale>
<asrwt>0</asrwt>
<pdfrwt beam="1">  1        1 0.43504421E+00 0.64946944E+03</pdfrwt>
<pdfrwt beam="2">0</pdfrwt>
<totfact> 0.93029412E-01</totfact>
</mgrwt>
</event>
<event>
 6    1  0.4292888E-003  0.6485694E+03  0.7818608E-02  0.9809467E-01
          1   -1    0    0  502    0  0.00000000000E+00  0.00000000000E+00  0.10516743059E+03  0.10516743059E+03  0.00000000000E+00 0.  1.
         13   -1    0    0    0    0 -0.00000000000E+00 -0.00000000000E+00 -0.10000000000E+04  0.10000000000E+04  0.00000000000E+00 0.  1.
    9000005    2    1    2  501    0  0.17583732469E-01  0.50363193595E-02 -0.89482153397E+03  0.11051460686E+04  0.64856939106E+03 0.  0.
         13    1    3    3    0    0 -0.17258295164E+03 -0.26367973440E+03 -0.57766727094E+03  0.65803598188E+03  0.00000000000E+00 0.  1.
          3    1    3    3  501    0  0.17260053537E+03  0.26368477072E+03 -0.31715426302E+03  0.44711008675E+03  0.00000000000E+00 0.  1.
         21    1    1    2  502  501 -0.17583732469E-01 -0.50363193595E-02 -0.11035446058E-01  0.21361957539E-01  0.00000000000E+00 0. -1.
<mgrwt>
<rscale>  1 0.64856939E+03</rscale>
<asrwt>0</asrwt>
<pdfrwt beam="1">  1        1 0.38242783E+00 0.64856939E+03</pdfrwt>
<pdfrwt beam="2">0</pdfrwt>
<totfact> 0.16013886E+00</totfact>
</mgrwt>
</event>
<event>
 6    1  0.4292888E-003  0.6443852E+03  0.7818608E-02  0.9817372E-01
          1   -1    0    0  502    0  0.00000000000E+00  0.00000000000E+00  0.10380821972E+03  0.10380821972E+03  0.00000000000E+00 0.  1.
         13   -1    0    0    0    0 -0.00000000000E+00 -0.00000000000E+00 -0.10000000000E+04  0.10000000000E+04  0.00000000000E+00 0.  1.
    9000005    2    1    2  501    0 -0.24357104209E-04 -0.47444937252E-04 -0.89619193034E+03  0.11038080605E+04  0.64438517854E+03 0.  0.
         13    1    3    3    0    0  0.11563604857E+03 -0.28932210868E+03 -0.58861219599E+03  0.66599046207E+03  0.00000000000E+00 0.  1.
          1    1    3    3  501    0 -0.11563607293E+03  0.28932206123E+03 -0.30757973436E+03  0.43781759840E+03  0.00000000000E+00 0.  1.
         21    1    1    2  502  501  0.24357104201E-04  0.47444937292E-04  0.15006308830E-03  0.15925834694E-03  0.00000000000E+00 0.  1.
<mgrwt>
<rscale>  1 0.64438518E+03</rscale>
<asrwt>0</asrwt>
<pdfrwt beam="1">  1        1 0.37748523E+00 0.64438518E+03</pdfrwt>
<pdfrwt beam="2">0</pdfrwt>
<totfact> 0.16851490E+00</totfact>
</mgrwt>
</event>
<event>
 6    1  0.4292888E-003  0.6485937E+03  0.7818608E-02  0.9809422E-01
          1   -1    0    0  502    0  0.00000000000E+00  0.00000000000E+00  0.10516844915E+03  0.10516844915E+03  0.00000000000E+00 0.  1.
         13   -1    0    0    0    0 -0.00000000000E+00 -0.00000000000E+00 -0.10000000000E+04  0.10000000000E+04  0.00000000000E+00 0.  1.
    9000005    2    1    2  501    0 -0.40748925585E-05 -0.58963880178E-05 -0.89483154463E+03  0.11051684397E+04  0.64859369930E+03 0.  0.
         13    1    3    3    0    0  0.11018959158E+03  0.21545939397E+03 -0.81526267282E+03  0.85042208476E+03  0.00000000000E+00 0.  1.
          3    1    3    3  501    0 -0.11018959566E+03 -0.21545939986E+03 -0.79568871805E+02  0.25474635491E+03  0.00000000000E+00 0.  1.
         21    1    1    2  502  501  0.40748925685E-05  0.58963880418E-05 -0.62170995747E-05  0.94881224964E-05  0.00000000000E+00 0.  1.
<mgrwt>
<rscale>  1 0.64859370E+03</rscale>
<asrwt>0</asrwt>
<pdfrwt beam="1">  1        1 0.38243153E+00 0.64859370E+03</pdfrwt>
<pdfrwt beam="2">0</pdfrwt>
<totfact> 0.16013211E+00</totfact>
</mgrwt>
</event>
<event>
 6    1  0.4292888E-003  0.6665139E+03  0.7818608E-02  0.9776276E-01
          1   -1    0    0  502    0  0.00000000000E+00  0.00000000000E+00  0.11106027239E+03  0.11106027239E+03  0.00000000000E+00 0.  1.
         13   -1    0    0    0    0 -0.00000000000E+00 -0.00000000000E+00 -0.10000000000E+04  0.10000000000E+04  0.00000000000E+00 0.  1.
    9000005    2    1    2  501    0  0.23668113329E-04  0.24289319356E-06 -0.88893979241E+03  0.11110602034E+04  0.66651393164E+03 0.  0.
         13    1    3    3    0    0 -0.27783025356E+03 -0.12483205328E+03 -0.21904304610E+03  0.37517002461E+03  0.00000000000E+00 0.  1.
          3    1    3    3  501    0  0.27783027723E+03  0.12483205353E+03 -0.66989674631E+03  0.73589017880E+03  0.00000000000E+00 0.  1.
         21    1    1    2  502  501 -0.23668113321E-04 -0.24289318951E-06  0.64797864907E-04  0.68985519363E-04  0.00000000000E+00 0. -1.
<mgrwt>
<rscale>  1 0.66651393E+03</rscale>
<asrwt>0</asrwt>
<pdfrwt beam="1">  1        1 0.40385639E+00 0.66651393E+03</pdfrwt>
<pdfrwt beam="2">0</pdfrwt>
<totfact> 0.12818808E+00</totfact>
</mgrwt>
</event>
<event>
 6    1  0.4292888E-003  0.5964550E+03  0.7818608E-02  0.9912788E-01
          1   -1    0    0  502    0  0.00000000000E+00  0.00000000000E+00  0.90311559227E+02  0.90311559227E+02  0.00000000000E+00 0.  1.
         13   -1    0    0    0    0 -0.00000000000E+00 -0.00000000000E+00 -0.10000000000E+04  0.10000000000E+04  0.00000000000E+00 0.  1.
    9000005    2    1    2  501    0  0.40171488671E+00 -0.72181454624E+00 -0.91092385176E+03  0.10888254127E+04  0.59645438495E+03 0.  0.
         13    1    3    3    0    0  0.74428942685E+02 -0.19911649629E+03 -0.73308956882E+02  0.22485828818E+03  0.00000000000E+00 0.  1.
          3    1    3    3  501    0 -0.74027227798E+02  0.19839468174E+03 -0.83761489488E+03  0.86396712456E+03  0.00000000000E+00 0.  1.
         21    1    1    2  502  501 -0.40171488671E+00  0.72181454624E+00  0.12354109841E+01  0.14861464898E+01  0.00000000000E+00 0. -1.
<mgrwt>
<rscale>  1 0.59645496E+03</rscale>
<asrwt>0</asrwt>
<pdfrwt beam="1">  1        1 0.32840636E+00 0.59645496E+03</pdfrwt>
<pdfrwt beam="2">0</pdfrwt>
<totfact> 0.27832280E+00</totfact>
</mgrwt>
</event>
<event>
 6    1  0.4292888E-003  0.6476903E+03  0.7818608E-02  0.9811123E-01
          1   -1    0    0  502    0  0.00000000000E+00  0.00000000000E+00  0.11021710349E+03  0.11021710349E+03  0.00000000000E+00 0.  1.
         13   -1    0    0    0    0 -0.00000000000E+00 -0.00000000000E+00 -0.10000000000E+04  0.10000000000E+04  0.00000000000E+00 0.  1.
    9000005    2    1    2  501    0 -0.34859867362E+00  0.28087801012E+00 -0.89511393996E+03  0.11048672962E+04  0.64769018547E+03 0.  0.
         13    1    3    3    0    0  0.29298975546E+03  0.71026269510E+02 -0.24622257684E+03  0.38924707463E+03  0.00000000000E+00 0.  1.
          3    1    3    3  501    0 -0.29333835413E+03 -0.70745391500E+02 -0.64889136312E+03  0.71562022160E+03  0.00000000000E+00 0.  1.
         21    1    1    2  502  501  0.34859867362E+00 -0.28087801012E+00  0.53310434508E+01  0.53498072644E+01  0.00000000000E+00 0. -1.
<mgrwt>
<rscale>  1 0.64769034E+03</rscale>
<asrwt>0</asrwt>
<pdfrwt beam="1">  1        1 0.40079031E+00 0.64769034E+03</pdfrwt>
<pdfrwt beam="2">0</pdfrwt>
<totfact> 0.13276481E+00</totfact>
</mgrwt>
</event>
<event>
 6    1  0.4292888E-003  0.6547591E+03  0.7818608E-02  0.9797890E-01
          1   -1    0    0  502    0  0.00000000000E+00  0.00000000000E+00  0.10717737341E+03  0.10717737341E+03  0.00000000000E+00 0.  1.
         13   -1    0    0    0    0 -0.00000000000E+00 -0.00000000000E+00 -0.10000000000E+04  0.10000000000E+04  0.00000000000E+00 0.  1.
    9000005    2    1    2  501    0 -0.26131962727E-04  0.14105289722E-04 -0.89282263192E+03  0.11071773432E+04  0.65475905288E+03 0.  0.
         13    1    3    3    0    0 -0.86180814995E+02  0.19633798015E+03 -0.28083117138E+02  0.21625077292E+03  0.00000000000E+00 0.  1.
          1    1    3    3  501    0  0.86180788863E+02 -0.19633796604E+03 -0.86473951478E+03  0.89092657032E+03  0.00000000000E+00 0.  1.
         21    1    1    2  502  501  0.26131962727E-04 -0.14105289716E-04  0.53261704049E-05  0.30169633162E-04  0.00000000000E+00 0.  1.
<mgrwt>
<rscale>  1 0.65475905E+03</rscale>
<asrwt>0</asrwt>
<pdfrwt beam="1">  1        1 0.38973673E+00 0.65475905E+03</pdfrwt>
<pdfrwt beam="2">0</pdfrwt>
<totfact> 0.14847474E+00</totfact>
</mgrwt>
</event>
<event>
 6    1  0.4292888E-003  0.6160909E+03  0.7818608E-02  0.9872574E-01
          1   -1    0    0  502    0  0.00000000000E+00  0.00000000000E+00  0.95360410386E+02  0.95360410386E+02  0.00000000000E+00 0.  1.
         13   -1    0    0    0    0 -0.00000000000E+00 -0.00000000000E+00 -0.10000000000E+04  0.10000000000E+04  0.00000000000E+00 0.  1.
    9000005    2    1    2  501    0  0.92965282830E-02  0.26896812911E-01 -0.90510752999E+03  0.10948916055E+04  0.61609089107E+03 0.  0.
         13    1    3    3    0    0 -0.21152973567E+03  0.16681667388E+03 -0.18704311772E+03  0.32795999702E+03  0.00000000000E+00 0.  1.
          1    1    3    3  501    0  0.21153903219E+03 -0.16678977706E+03 -0.71806441226E+03  0.76693160845E+03  0.00000000000E+00 0.  1.
         21    1    1    2  502  501 -0.92965282830E-02 -0.26896812911E-01  0.46794037365E+00  0.46880492454E+00  0.00000000000E+00 0.  1.
<mgrwt>
<rscale>  1 0.61609089E+03</rscale>
<asrwt>0</asrwt>
<pdfrwt beam="1">  1        1 0.34676586E+00 0.61609089E+03</pdfrwt>
<pdfrwt beam="2">0</pdfrwt>
<totfact> 0.23086065E+00</totfact>
</mgrwt>
</event>
<event>
 6    1  0.4292888E-003  0.6490257E+03  0.7818608E-02  0.9808609E-01
          1   -1    0    0  502    0  0.00000000000E+00  0.00000000000E+00  0.10536809339E+03  0.10536809339E+03  0.00000000000E+00 0.  1.
         13   -1    0    0    0    0 -0.00000000000E+00 -0.00000000000E+00 -0.10000000000E+04  0.10000000000E+04  0.00000000000E+00 0.  1.
    9000005    2    1    2  501    0 -0.30837929695E-01  0.35101728839E-01 -0.89468110443E+03  0.11053002440E+04  0.64902569184E+03 0.  0.
         13    1    3    3    0    0  0.30454049181E+03  0.27712799825E+02 -0.63221749837E+03  0.70229044965E+03  0.00000000000E+00 0.  1.
          1    1    3    3  501    0 -0.30457132974E+03 -0.27677698096E+02 -0.26246360606E+03  0.40300979439E+03  0.00000000000E+00 0.  1.
         21    1    1    2  502  501  0.30837929695E-01 -0.35101728839E-01  0.49197815022E-01  0.67849349874E-01  0.00000000000E+00 0.  1.
<mgrwt>
<rscale>  1 0.64902569E+03</rscale>
<asrwt>0</asrwt>
<pdfrwt beam="1">  1        1 0.38315751E+00 0.64902569E+03</pdfrwt>
<pdfrwt beam="2">0</pdfrwt>
<totfact> 0.15894111E+00</totfact>
</mgrwt>
</event>
<event>
 6    1  0.4292888E-003  0.6495546E+03  0.7818608E-02  0.9807615E-01
          1   -1    0    0  502    0  0.00000000000E+00  0.00000000000E+00  0.11092110317E+03  0.11092110317E+03  0.00000000000E+00 0.  1.
         13   -1    0    0    0    0 -0.00000000000E+00 -0.00000000000E+00 -0.10000000000E+04  0.10000000000E+04  0.00000000000E+00 0.  1.
    9000005    2    1    2  501    0 -0.57018524237E+00  0.19371355885E+00 -0.89450126739E+03  0.11054653962E+04  0.64955435659E+03 0.  0.
         13    1    3    3    0    0 -0.23478745676E+03 -0.17709157511E+03 -0.68262387842E+03  0.74327783178E+03  0.00000000000E+00 0.  1.
          1    1    3    3  501    0  0.23421727152E+03  0.17728528867E+03 -0.21187738897E+03  0.36218756441E+03  0.00000000000E+00 0.  1.
         21    1    1    2  502  501  0.57018524237E+00 -0.19371355885E+00  0.54223705576E+01  0.54557069768E+01  0.00000000000E+00 0.  1.
<mgrwt>
<rscale>  1 0.64955464E+03</rscale>
<asrwt>0</asrwt>
<pdfrwt beam="1">  1        1 0.40335032E+00 0.64955464E+03</pdfrwt>
<pdfrwt beam="2">0</pdfrwt>
<totfact> 0.12927214E+00</totfact>
</mgrwt>
</event>
<event>
 6    1  0.4292888E-003  0.6667867E+03  0.7818608E-02  0.9775780E-01
          1   -1    0    0  502    0  0.00000000000E+00  0.00000000000E+00  0.11115120667E+03  0.11115120667E+03  0.00000000000E+00 0.  1.
         13   -1    0    0    0    0 -0.00000000000E+00 -0.00000000000E+00 -0.10000000000E+04  0.10000000000E+04  0.00000000000E+00 0.  1.
    9000005    2    1    2  501    0 -0.67011114879E-04  0.48011242285E-04 -0.88884882973E+03  0.11111511166E+04  0.66678674380E+03 0.  0.
         13    1    3    3    0    0 -0.29572948681E+03 -0.82056198398E+02 -0.22739193716E+03  0.38196366601E+03  0.00000000000E+00 0.  1.
          3    1    3    3  501    0  0.29572941980E+03  0.82056246409E+02 -0.66145689257E+03  0.72918745055E+03  0.00000000000E+00 0.  1.
         21    1    1    2  502  501  0.67011114879E-04 -0.48011242277E-04  0.36403140505E-04  0.90115245885E-04  0.00000000000E+00 0. -1.
<mgrwt>
<rscale>  1 0.66678674E+03</rscale>
<asrwt>0</asrwt>
<pdfrwt beam="1">  1        1 0.40418706E+00 0.66678674E+03</pdfrwt>
<pdfrwt beam="2">0</pdfrwt>
<totfact> 0.12774602E+00</totfact>
</mgrwt>
</event>
<event>
 6    1  0.4292888E-003  0.6916500E+03  0.7818608E-02  0.9731619E-01
          1   -1    0    0  502    0  0.00000000000E+00  0.00000000000E+00  0.11966850708E+03  0.11966850708E+03  0.00000000000E+00 0.  1.
         13   -1    0    0    0    0 -0.00000000000E+00 -0.00000000000E+00 -0.10000000000E+04  0.10000000000E+04  0.00000000000E+00 0.  1.
    9000005    2    1    2  501    0  0.47634327196E-02  0.34953920413E-01 -0.88040028967E+03  0.11195911930E+04  0.69165003307E+03 0.  0.
         13    1    3    3    0    0  0.19361824093E+03 -0.11559197876E+03 -0.15784917313E+02  0.22605019883E+03  0.00000000000E+00 0.  1.
          3    1    3    3  501    0 -0.19361347750E+03  0.11562693268E+03 -0.86461537236E+03  0.89354099422E+03  0.00000000000E+00 0.  1.
         21    1    1    2  502  501 -0.47634327196E-02 -0.34953920413E-01  0.68796750617E-01  0.77314033260E-01  0.00000000000E+00 0. -1.
<mgrwt>
<rscale>  1 0.69165003E+03</rscale>
<asrwt>0</asrwt>
<pdfrwt beam="1">  1        1 0.43515913E+00 0.69165003E+03</pdfrwt>
<pdfrwt beam="2">0</pdfrwt>
<totfact> 0.92145105E-01</totfact>
</mgrwt>
</event>
<event>
 6    1  0.4292888E-003  0.6507014E+03  0.7818608E-02  0.9805464E-01
          1   -1    0    0  502    0  0.00000000000E+00  0.00000000000E+00  0.10587570658E+03  0.10587570658E+03  0.00000000000E+00 0.  1.
         13   -1    0    0    0    0 -0.00000000000E+00 -0.00000000000E+00 -0.10000000000E+04  0.10000000000E+04  0.00000000000E+00 0.  1.
    9000005    2    1    2  501    0 -0.19817156336E-01 -0.19637133443E-01 -0.89413700931E+03  0.11058450467E+04  0.65070137162E+03 0.  0.
         13    1    3    3    0    0 -0.24998569950E+03  0.11808814342E+03 -0.73856124382E+03  0.78861294083E+03  0.00000000000E+00 0.  1.
          3    1    3    3  501    0  0.24996588234E+03 -0.11810778056E+03 -0.15557576549E+03  0.31723210583E+03  0.00000000000E+00 0.  1.
         21    1    1    2  502  501  0.19817156336E-01  0.19637133443E-01  0.12715889031E-01  0.30659917301E-01  0.00000000000E+00 0. -1.
<mgrwt>
<rscale>  1 0.65070137E+03</rscale>
<asrwt>0</asrwt>
<pdfrwt beam="1">  1        1 0.38500338E+00 0.65070137E+03</pdfrwt>
<pdfrwt beam="2">0</pdfrwt>
<totfact> 0.15593408E+00</totfact>
</mgrwt>
</event>
<event>
 6    1  0.4292888E-003  0.6500357E+03  0.7818608E-02  0.9806712E-01
          3   -1    0    0  502    0  0.00000000000E+00  0.00000000000E+00  0.10786902015E+03  0.10786902015E+03  0.00000000000E+00 0.  1.
         13   -1    0    0    0    0 -0.00000000000E+00 -0.00000000000E+00 -0.10000000000E+04  0.10000000000E+04  0.00000000000E+00 0.  1.
    9000005    2    1    2  501    0  0.76726680558E+00 -0.63083049093E+00 -0.89424059034E+03  0.11055372608E+04  0.65003493357E+03 0.  0.
         13    1    3    3    0    0 -0.31625825337E+03 -0.73253518424E+02 -0.45924682777E+03  0.56239933286E+03  0.00000000000E+00 0.  1.
          3    1    3    3  501    0  0.31702552018E+03  0.72622687933E+02 -0.43499376257E+03  0.54313792790E+03  0.00000000000E+00 0.  1.
         21    1    1    2  502  501 -0.76726680558E+00  0.63083049093E+00  0.21096104873E+01  0.23317593931E+01  0.00000000000E+00 0. -1.
<mgrwt>
<rscale>  1 0.65003569E+03</rscale>
<asrwt>0</asrwt>
<pdfrwt beam="1">  1        3 0.39225181E+00 0.65003569E+03</pdfrwt>
<pdfrwt beam="2">0</pdfrwt>
<totfact> 0.65052614E-02</totfact>
</mgrwt>
</event>
<event>
 6    1  0.4292888E-003  0.6711776E+03  0.7818608E-02  0.9767833E-01
          1   -1    0    0  502    0  0.00000000000E+00  0.00000000000E+00  0.11266014159E+03  0.11266014159E+03  0.00000000000E+00 0.  1.
         13   -1    0    0    0    0 -0.00000000000E+00 -0.00000000000E+00 -0.10000000000E+04  0.10000000000E+04  0.00000000000E+00 0.  1.
    9000005    2    1    2  501    0 -0.46886313418E-02  0.34840072871E-03 -0.88738000526E+03  0.11126197204E+04  0.67117759828E+03 0.  0.
         13    1    3    3    0    0 -0.87430813387E+02 -0.16417244229E+03  0.19352911786E+02  0.18700607779E+03  0.00000000000E+00 0.  1.
          1    1    3    3  501    0  0.87426124756E+02  0.16417279069E+03 -0.90673291704E+03  0.92561364259E+03  0.00000000000E+00 0.  1.
         21    1    1    2  502  501  0.46886313418E-02 -0.34840072870E-03  0.40146850355E-01  0.40421210278E-01  0.00000000000E+00 0. -1.
<mgrwt>
<rscale>  1 0.67117760E+03</rscale>
<asrwt>0</asrwt>
<pdfrwt beam="1">  1        1 0.40967411E+00 0.67117760E+03</pdfrwt>
<pdfrwt beam="2">0</pdfrwt>
<totfact> 0.12062017E+00</totfact>
</mgrwt>
</event>
<event>
 6    1  0.4292888E-003  0.6507611E+03  0.7818608E-02  0.9805352E-01
          1   -1    0    0  502    0  0.00000000000E+00  0.00000000000E+00  0.10587255716E+03  0.10587255716E+03  0.00000000000E+00 0.  1.
         13   -1    0    0    0    0 -0.00000000000E+00 -0.00000000000E+00 -0.10000000000E+04  0.10000000000E+04  0.00000000000E+00 0.  1.
    9000005    2    1    2  501    0 -0.11885029974E-03  0.11931660090E-04 -0.89412740789E+03  0.11058724327E+04  0.65076110508E+03 0.  0.
         13    1    3    3    0    0 -0.18846823791E+02  0.63884785643E+02 -0.98829087201E+03  0.99053284464E+03  0.00000000000E+00 0.  1.
          3    1    3    3  501    0  0.18846704941E+02 -0.63884773711E+02  0.94163464127E+02  0.11533958807E+03  0.00000000000E+00 0.  1.
         21    1    1    2  502  501  0.11885029974E-03 -0.11931660093E-04 -0.34950932110E-04  0.12445612045E-03  0.00000000000E+00 0.  1.
<mgrwt>
<rscale>  1 0.65076111E+03</rscale>
<asrwt>0</asrwt>
<pdfrwt beam="1">  1        1 0.38499193E+00 0.65076111E+03</pdfrwt>
<pdfrwt beam="2">0</pdfrwt>
<totfact> 0.15595055E+00</totfact>
</mgrwt>
</event>
<event>
 6    1  0.4292888E-003  0.6464806E+03  0.7818608E-02  0.9813406E-01
          3   -1    0    0  502    0  0.00000000000E+00  0.00000000000E+00  0.10844262604E+03  0.10844262604E+03  0.00000000000E+00 0.  1.
         13   -1    0    0    0    0 -0.00000000000E+00 -0.00000000000E+00 -0.10000000000E+04  0.10000000000E+04  0.00000000000E+00 0.  1.
    9000005    2    1    2  501    0 -0.28580294752E+00 -0.31177534570E+01 -0.89482034531E+03  0.11039205632E+04  0.64647301374E+03 0.  0.
         13    1    3    3    0    0 -0.10617696105E+03  0.20636740552E+03 -0.82793835582E+03  0.85985055338E+03  0.00000000000E+00 0.  1.
          1    1    3    3  501    0  0.10589115810E+03 -0.20948515897E+03 -0.66881989489E+02  0.24407000986E+03  0.00000000000E+00 0.  1.
         21    1    1    2  502  501  0.28580294752E+00  0.31177534570E+01  0.32629713524E+01  0.45220628026E+01  0.00000000000E+00 0.  1.
<mgrwt>
<rscale>  1 0.64648059E+03</rscale>
<asrwt>0</asrwt>
<pdfrwt beam="1">  1        3 0.39433765E+00 0.64648059E+03</pdfrwt>
<pdfrwt beam="2">0</pdfrwt>
<totfact> 0.63470178E-02</totfact>
</mgrwt>
</event>
<event>
 6    1  0.4292888E-003  0.6494003E+03  0.7818608E-02  0.9807905E-01
          1   -1    0    0  502    0  0.00000000000E+00  0.00000000000E+00  0.10543019388E+03  0.10543019388E+03  0.00000000000E+00 0.  1.
         13   -1    0    0    0    0 -0.00000000000E+00 -0.00000000000E+00 -0.10000000000E+04  0.10000000000E+04  0.00000000000E+00 0.  1.
    9000005    2    1    2  501    0 -0.99077069908E-05  0.15167961294E-04 -0.89456978455E+03  0.11054301657E+04  0.64940030170E+03 0.  0.
         13    1    3    3    0    0  0.96121492590E+01 -0.18826890354E+03  0.27378542497E+01  0.18853400038E+03  0.00000000000E+00 0.  1.
          3    1    3    3  501    0 -0.96121591667E+01  0.18826891871E+03 -0.89730763880E+03  0.91689616533E+03  0.00000000000E+00 0.  1.
         21    1    1    2  502  501  0.99077069910E-05 -0.15167961299E-04 -0.21567777707E-04  0.28167334681E-04  0.00000000000E+00 0. -1.
<mgrwt>
<rscale>  1 0.64940030E+03</rscale>
<asrwt>0</asrwt>
<pdfrwt beam="1">  1        1 0.38338333E+00 0.64940030E+03</pdfrwt>
<pdfrwt beam="2">0</pdfrwt>
<totfact> 0.15856534E+00</totfact>
</mgrwt>
</event>
<event>
 6    1  0.4292888E-003  0.6498002E+03  0.7818608E-02  0.9807154E-01
          1   -1    0    0  502    0  0.00000000000E+00  0.00000000000E+00  0.10557764445E+03  0.10557764445E+03  0.00000000000E+00 0.  1.
         13   -1    0    0    0    0 -0.00000000000E+00 -0.00000000000E+00 -0.10000000000E+04  0.10000000000E+04  0.00000000000E+00 0.  1.
    9000005    2    1    2  501    0  0.44860472383E-03 -0.16888250457E-04 -0.89443991822E+03  0.11055600760E+04  0.64980021118E+03 0.  0.
         13    1    3    3    0    0  0.14346000884E+03  0.28613683896E+03 -0.54202665506E+03  0.62948229486E+03  0.00000000000E+00 0.  1.
          3    1    3    3  501    0 -0.14345956023E+03 -0.28613685585E+03 -0.35241326315E+03  0.47607778119E+03  0.00000000000E+00 0.  1.
         21    1    1    2  502  501 -0.44860472385E-03  0.16888250451E-04  0.17562662840E-01  0.17568399399E-01  0.00000000000E+00 0.  1.
<mgrwt>
<rscale>  1 0.64980021E+03</rscale>
<asrwt>0</asrwt>
<pdfrwt beam="1">  1        1 0.38391952E+00 0.64980021E+03</pdfrwt>
<pdfrwt beam="2">0</pdfrwt>
<totfact> 0.15769073E+00</totfact>
</mgrwt>
</event>
<event>
 6    1  0.4292888E-003  0.6586241E+03  0.7818608E-02  0.9790730E-01
          1   -1    0    0  502    0  0.00000000000E+00  0.00000000000E+00  0.10844658996E+03  0.10844658996E+03  0.00000000000E+00 0.  1.
         13   -1    0    0    0    0 -0.00000000000E+00 -0.00000000000E+00 -0.10000000000E+04  0.10000000000E+04  0.00000000000E+00 0.  1.
    9000005    2    1    2  501    0 -0.14182643597E-03 -0.32014968463E-03 -0.89155333024E+03  0.11084462308E+04  0.65862410066E+03 0.  0.
         13    1    3    3    0    0 -0.89836040867E+01  0.10345422740E+03 -0.97172343691E+03  0.97725632265E+03  0.00000000000E+00 0.  1.
          3    1    3    3  501    0  0.89834622602E+01 -0.10345454755E+03  0.80170106676E+02  0.13118990818E+03  0.00000000000E+00 0.  1.
         21    1    1    2  502  501  0.14182643597E-03  0.32014968462E-03 -0.79800590327E-04  0.35913603651E-03  0.00000000000E+00 0. -1.
<mgrwt>
<rscale>  1 0.65862410E+03</rscale>
<asrwt>0</asrwt>
<pdfrwt beam="1">  1        1 0.39435207E+00 0.65862410E+03</pdfrwt>
<pdfrwt beam="2">0</pdfrwt>
<totfact> 0.14153054E+00</totfact>
</mgrwt>
</event>
<event>
 6    1  0.4292888E-003  0.6440720E+03  0.7818608E-02  0.9817967E-01
          1   -1    0    0  502    0  0.00000000000E+00  0.00000000000E+00  0.10370877361E+03  0.10370877361E+03  0.00000000000E+00 0.  1.
         13   -1    0    0    0    0 -0.00000000000E+00 -0.00000000000E+00 -0.10000000000E+04  0.10000000000E+04  0.00000000000E+00 0.  1.
    9000005    2    1    2  501    0 -0.59486740383E-04  0.22164606833E-03 -0.89629281683E+03  0.11037071667E+04  0.64407196516E+03 0.  0.
         13    1    3    3    0    0 -0.12933354908E+03 -0.29379107459E+03 -0.40389739706E+03  0.51592002266E+03  0.00000000000E+00 0.  1.
          1    1    3    3  501    0  0.12933348959E+03  0.29379129624E+03 -0.49239541977E+03  0.58778714403E+03  0.00000000000E+00 0.  1.
         21    1    1    2  502  501  0.59486740362E-04 -0.22164606829E-03  0.15904477961E-02  0.16069193645E-02  0.00000000000E+00 0. -1.
<mgrwt>
<rscale>  1 0.64407197E+03</rscale>
<asrwt>0</asrwt>
<pdfrwt beam="1">  1        1 0.37712361E+00 0.64407197E+03</pdfrwt>
<pdfrwt beam="2">0</pdfrwt>
<totfact> 0.16914406E+00</totfact>
</mgrwt>
</event>
<event>
 6    1  0.4292888E-003  0.6483100E+03  0.7818608E-02  0.9809955E-01
          1   -1    0    0  502    0  0.00000000000E+00  0.00000000000E+00  0.11000259440E+03  0.11000259440E+03  0.00000000000E+00 0.  1.
         13   -1    0    0    0    0 -0.00000000000E+00 -0.00000000000E+00 -0.10000000000E+04  0.10000000000E+04  0.00000000000E+00 0.  1.
    9000005    2    1    2  501    0 -0.24110878090E+00 -0.21225092459E+00 -0.89491773840E+03  0.11050717873E+04  0.64830995163E+03 0.  0.
         13    1    3    3    0    0  0.15207733943E+03 -0.27866640084E+03 -0.33551906416E+03  0.46190423524E+03  0.00000000000E+00 0.  1.
          1    1    3    3  501    0 -0.15231844821E+03  0.27845414991E+03 -0.55939867424E+03  0.64316755205E+03  0.00000000000E+00 0.  1.
         21    1    1    2  502  501  0.24110878090E+00  0.21225092459E+00  0.49203327989E+01  0.49308071096E+01  0.00000000000E+00 0.  1.
<mgrwt>
<rscale>  1 0.64831003E+03</rscale>
<asrwt>0</asrwt>
<pdfrwt beam="1">  1        1 0.40001028E+00 0.64831003E+03</pdfrwt>
<pdfrwt beam="2">0</pdfrwt>
<totfact> 0.13381626E+00</totfact>
</mgrwt>
</event>
<event>
 6    1  0.4292888E-003  0.5612036E+03  0.7818608E-02  0.9989335E-01
          1   -1    0    0  502    0  0.00000000000E+00  0.00000000000E+00  0.80568768898E+02  0.80568768898E+02  0.00000000000E+00 0.  1.
         13   -1    0    0    0    0 -0.00000000000E+00 -0.00000000000E+00 -0.10000000000E+04  0.10000000000E+04  0.00000000000E+00 0.  1.
    9000005    2    1    2  501    0  0.75341023241E-01  0.24452106657E+00 -0.92125299526E+03  0.10787291245E+04  0.56120350794E+03 0.  0.
         13    1    3    3    0    0 -0.16361432429E+03  0.19950279227E+03 -0.67306790490E+03  0.72082689729E+03  0.00000000000E+00 0.  1.
          3    1    3    3  501    0  0.16368966532E+03 -0.19925827121E+03 -0.24818509036E+03  0.35790222722E+03  0.00000000000E+00 0.  1.
         21    1    1    2  502  501 -0.75341023241E-01 -0.24452106657E+00  0.18217641594E+01  0.18396443880E+01  0.00000000000E+00 0. -1.
<mgrwt>
<rscale>  1 0.56120357E+03</rscale>
<asrwt>0</asrwt>
<pdfrwt beam="1">  1        1 0.29297796E+00 0.56120357E+03</pdfrwt>
<pdfrwt beam="2">0</pdfrwt>
<totfact> 0.39835604E+00</totfact>
</mgrwt>
</event>
<event>
 6    1  0.4292888E-003  0.6441621E+03  0.7818608E-02  0.9817796E-01
          3   -1    0    0  502    0  0.00000000000E+00  0.00000000000E+00  0.10782372975E+03  0.10782372975E+03  0.00000000000E+00 0.  1.
         13   -1    0    0    0    0 -0.00000000000E+00 -0.00000000000E+00 -0.10000000000E+04  0.10000000000E+04  0.00000000000E+00 0.  1.
    9000005    2    1    2  501    0 -0.58481437074E-01 -0.43277998468E-01 -0.89626345238E+03  0.11037359001E+04  0.64416205717E+03 0.  0.
         13    1    3    3    0    0 -0.11208384210E+03  0.22894410827E+03 -0.78543655347E+03  0.82576556716E+03  0.00000000000E+00 0.  1.
          1    1    3    3  501    0  0.11202536066E+03 -0.22898738627E+03 -0.11082689891E+03  0.27797033299E+03  0.00000000000E+00 0.  1.
         21    1    1    2  502  501  0.58481437074E-01  0.43277998468E-01  0.40871821317E+01  0.40878296003E+01  0.00000000000E+00 0. -1.
<mgrwt>
<rscale>  1 0.64416206E+03</rscale>
<asrwt>0</asrwt>
<pdfrwt beam="1">  1        3 0.39208712E+00 0.64416206E+03</pdfrwt>
<pdfrwt beam="2">0</pdfrwt>
<totfact> 0.65247430E-02</totfact>
</mgrwt>
</event>
<event>
 6    1  0.4292888E-003  0.6295171E+03  0.7818608E-02  0.9845992E-01
          1   -1    0    0  502    0  0.00000000000E+00  0.00000000000E+00  0.11076400979E+03  0.11076400979E+03  0.00000000000E+00 0.  1.
         13   -1    0    0    0    0 -0.00000000000E+00 -0.00000000000E+00 -0.10000000000E+04  0.10000000000E+04  0.00000000000E+00 0.  1.
    9000005    2    1    2  501    0 -0.21708064788E-01  0.32239764507E+00 -0.90092460968E+03  0.10990709248E+04  0.62951699025E+03 0.  0.
         13    1    3    3    0    0 -0.18924268906E+03  0.20265589411E+03 -0.19013543827E+03  0.33620483588E+03  0.00000000000E+00 0.  1.
          1    1    3    3  501    0  0.18922098100E+03 -0.20233349647E+03 -0.71078917141E+03  0.76286608892E+03  0.00000000000E+00 0.  1.
         21    1    1    2  502  501  0.21708064788E-01 -0.32239764507E+00  0.11688619465E+02  0.11693084985E+02  0.00000000000E+00 0. -1.
<mgrwt>
<rscale>  1 0.62951707E+03</rscale>
<asrwt>0</asrwt>
<pdfrwt beam="1">  1        1 0.40277907E+00 0.62951707E+03</pdfrwt>
<pdfrwt beam="2">0</pdfrwt>
<totfact> 0.13054025E+00</totfact>
</mgrwt>
</event>
<event>
 6    1  0.4292888E-003  0.6474830E+03  0.7818608E-02  0.9811514E-01
          1   -1    0    0  502    0  0.00000000000E+00  0.00000000000E+00  0.10481161474E+03  0.10481161474E+03  0.00000000000E+00 0.  1.
         13   -1    0    0    0    0 -0.00000000000E+00 -0.00000000000E+00 -0.10000000000E+04  0.10000000000E+04  0.00000000000E+00 0.  1.
    9000005    2    1    2  501    0 -0.54135861404E-04 -0.20227755265E-04 -0.89519145365E+03  0.11048085458E+04  0.64748296056E+03 0.  0.
         13    1    3    3    0    0 -0.25034204016E+03 -0.31713296069E+02 -0.10153929923E+03  0.27200569757E+03  0.00000000000E+00 0.  1.
          1    1    3    3  501    0  0.25034198603E+03  0.31713275841E+02 -0.79365215442E+03  0.83280284824E+03  0.00000000000E+00 0.  1.
         21    1    1    2  502  501  0.54135861398E-04  0.20227755266E-04  0.30683863858E-02  0.30689305736E-02  0.00000000000E+00 0. -1.
<mgrwt>
<rscale>  1 0.64748296E+03</rscale>
<asrwt>0</asrwt>
<pdfrwt beam="1">  1        1 0.38113395E+00 0.64748296E+03</pdfrwt>
<pdfrwt beam="2">0</pdfrwt>
<totfact> 0.16229215E+00</totfact>
</mgrwt>
</event>
<event>
 6    1  0.4292888E-003  0.6324093E+03  0.7818608E-02  0.9840358E-01
          1   -1    0    0  502    0  0.00000000000E+00  0.00000000000E+00  0.10000001153E+03  0.10000001153E+03  0.00000000000E+00 0.  1.
         13   -1    0    0    0    0 -0.00000000000E+00 -0.00000000000E+00 -0.10000000000E+04  0.10000000000E+04  0.00000000000E+00 0.  1.
    9000005    2    1    2  501    0 -0.11984346074E-03 -0.43980464994E-03 -0.90001460820E+03  0.10999853847E+04  0.63240932281E+03 0.  0.
         13    1    3    3    0    0  0.98890450206E+02 -0.24617648692E+03 -0.15074059847E+03  0.30513097496E+03  0.00000000000E+00 0.  1.
          1    1    3    3  501    0 -0.98890570050E+02  0.24617604712E+03 -0.74927400973E+03  0.79485440973E+03  0.00000000000E+00 0.  1.
         21    1    1    2  502  501  0.11984346074E-03  0.43980464995E-03  0.14619727905E-01  0.14626832692E-01  0.00000000000E+00 0. -1.
<mgrwt>
<rscale>  1 0.63240932E+03</rscale>
<asrwt>0</asrwt>
<pdfrwt beam="1">  1        1 0.36363717E+00 0.63240932E+03</pdfrwt>
<pdfrwt beam="2">0</pdfrwt>
<totfact> 0.19427721E+00</totfact>
</mgrwt>
</event>
<event>
 6    1  0.4292888E-003  0.6526692E+03  0.7818608E-02  0.9801783E-01
          1   -1    0    0  502    0  0.00000000000E+00  0.00000000000E+00  0.10649428092E+03  0.10649428092E+03  0.00000000000E+00 0.  1.
         13   -1    0    0    0    0 -0.00000000000E+00 -0.00000000000E+00 -0.10000000000E+04  0.10000000000E+04  0.00000000000E+00 0.  1.
    9000005    2    1    2  501    0 -0.26759275329E-05  0.37247357216E-05 -0.89350572565E+03  0.11064942729E+04  0.65266920733E+03 0.  0.
         13    1    3    3    0    0  0.30983128427E+03  0.95220030258E+01 -0.61971196798E+03  0.69291342642E+03  0.00000000000E+00 0.  1.
          1    1    3    3  501    0 -0.30983128694E+03 -0.95219993011E+01 -0.27379375767E+03  0.41358084648E+03  0.00000000000E+00 0.  1.
         21    1    1    2  502  501  0.26759275393E-05 -0.37247357218E-05  0.65756065575E-05  0.80170347381E-05  0.00000000000E+00 0.  1.
<mgrwt>
<rscale>  1 0.65266921E+03</rscale>
<asrwt>0</asrwt>
<pdfrwt beam="1">  1        1 0.38725275E+00 0.65266921E+03</pdfrwt>
<pdfrwt beam="2">0</pdfrwt>
<totfact> 0.15234486E+00</totfact>
</mgrwt>
</event>
<event>
 6    1  0.4292888E-003  0.6256302E+03  0.7818608E-02  0.9853614E-01
          1   -1    0    0  502    0  0.00000000000E+00  0.00000000000E+00  0.13137394849E+03  0.13137394849E+03  0.00000000000E+00 0.  1.
         13   -1    0    0    0    0 -0.00000000000E+00 -0.00000000000E+00 -0.10000000000E+04  0.10000000000E+04  0.00000000000E+00 0.  1.
    9000005    2    1    2  501    0  0.27287109163E+00  0.51246261022E+00 -0.90214396635E+03  0.10978510057E+04  0.62562988874E+03 0.  0.
         13    1    3    3    0    0 -0.28307730965E+03 -0.13195547413E+03 -0.47316080675E+03  0.56694458233E+03  0.00000000000E+00 0.  1.
          1    1    3    3  501    0  0.28335018074E+03  0.13246793674E+03 -0.42898315959E+03  0.53090642340E+03  0.00000000000E+00 0.  1.
         21    1    1    2  502  501 -0.27287109163E+00 -0.51246261022E+00  0.33517914836E+02  0.33522942763E+02  0.00000000000E+00 0. -1.
<mgrwt>
<rscale>  1 0.62563016E+03</rscale>
<asrwt>0</asrwt>
<pdfrwt beam="1">  1        1 0.47772446E+00 0.62563016E+03</pdfrwt>
<pdfrwt beam="2">0</pdfrwt>
<totfact> 0.59339470E-01</totfact>
</mgrwt>
</event>
<event>
 6    1  0.4292888E-003  0.6458055E+03  0.7818608E-02  0.9814682E-01
          1   -1    0    0  502    0  0.00000000000E+00  0.00000000000E+00  0.10426644957E+03  0.10426644957E+03  0.00000000000E+00 0.  1.
         13   -1    0    0    0    0 -0.00000000000E+00 -0.00000000000E+00 -0.10000000000E+04  0.10000000000E+04  0.00000000000E+00 0.  1.
    9000005    2    1    2  501    0 -0.32632836994E-03  0.27479870215E-03 -0.89573360165E+03  0.11042660199E+04  0.64580551063E+03 0.  0.
         13    1    3    3    0    0  0.16840615246E+02 -0.30497252661E+03 -0.26874028155E+03  0.40683311964E+03  0.00000000000E+00 0.  1.
          1    1    3    3  501    0 -0.16840941574E+02  0.30497280140E+03 -0.62699332009E+03  0.69743290025E+03  0.00000000000E+00 0.  1.
         21    1    1    2  502  501  0.32632836995E-03 -0.27479870217E-03  0.51221753680E-04  0.42968383702E-03  0.00000000000E+00 0.  1.
<mgrwt>
<rscale>  1 0.64580551E+03</rscale>
<asrwt>0</asrwt>
<pdfrwt beam="1">  1        1 0.37915153E+00 0.64580551E+03</pdfrwt>
<pdfrwt beam="2">0</pdfrwt>
<totfact> 0.16564524E+00</totfact>
</mgrwt>
</event>
<event>
 6    1  0.4292888E-003  0.6441847E+03  0.7818608E-02  0.9817753E-01
          1   -1    0    0  502    0  0.00000000000E+00  0.00000000000E+00  0.10374365044E+03  0.10374365044E+03  0.00000000000E+00 0.  1.
         13   -1    0    0    0    0 -0.00000000000E+00 -0.00000000000E+00 -0.10000000000E+04  0.10000000000E+04  0.00000000000E+00 0.  1.
    9000005    2    1    2  501    0  0.85888715347E-04  0.54726046585E-04 -0.89625648895E+03  0.11037434778E+04  0.64418473347E+03 0.  0.
         13    1    3    3    0    0  0.81330541862E+02  0.28817039125E+03 -0.24476989714E+03  0.38674168896E+03  0.00000000000E+00 0.  1.
          1    1    3    3  501    0 -0.81330455973E+02 -0.28817033652E+03 -0.65148659181E+03  0.71700178886E+03  0.00000000000E+00 0.  1.
         21    1    1    2  502  501 -0.85888715341E-04 -0.54726046596E-04  0.13938479396E-03  0.17262656918E-03  0.00000000000E+00 0. -1.
<mgrwt>
<rscale>  1 0.64418473E+03</rscale>
<asrwt>0</asrwt>
<pdfrwt beam="1">  1        1 0.37725043E+00 0.64418473E+03</pdfrwt>
<pdfrwt beam="2">0</pdfrwt>
<totfact> 0.16892306E+00</totfact>
</mgrwt>
</event>
<event>
 6    1  0.9492031E-003  0.6652084E+03  0.7818608E-02  0.9778653E-01
          1   -1    0    0  502    0  0.00000000000E+00  0.00000000000E+00  0.11062556388E+03  0.11062556388E+03  0.00000000000E+00 0.  1.
         13   -1    0    0    0    0 -0.00000000000E+00 -0.00000000000E+00 -0.10000000000E+04  0.10000000000E+04  0.00000000000E+00 0.  1.
    9000005    2    1    2  501    0 -0.20878729259E-04 -0.10666974674E-04 -0.88937441429E+03  0.11106255318E+04  0.66520840584E+03 0.  0.
         13    1    3    3    0    0  0.21861685449E+03 -0.13415182586E+03 -0.79821289820E+03  0.83841151727E+03  0.00000000000E+00 0.  1.
          1    1    3    3  501    0 -0.21861687537E+03  0.13415181519E+03 -0.91161516094E+02  0.27221401458E+03  0.00000000000E+00 0.  1.
         21    1    1    2  502  501  0.20878729233E-04  0.10666974687E-04 -0.21828675307E-04  0.32034305815E-04  0.00000000000E+00 0. -1.
<mgrwt>
<rscale>  1 0.66520841E+03</rscale>
<asrwt>0</asrwt>
<pdfrwt beam="1">  1        1 0.40227563E+00 0.66520841E+03</pdfrwt>
<pdfrwt beam="2">0</pdfrwt>
<totfact> 0.13032138E+00</totfact>
</mgrwt>
</event>
<event>
 6    1  0.4292888E-003  0.6481626E+03  0.7818608E-02  0.9810233E-01
          3   -1    0    0  502    0  0.00000000000E+00  0.00000000000E+00  0.10505204292E+03  0.10505204292E+03  0.00000000000E+00 0.  1.
         13   -1    0    0    0    0 -0.00000000000E+00 -0.00000000000E+00 -0.10000000000E+04  0.10000000000E+04  0.00000000000E+00 0.  1.
    9000005    2    1    2  501    0  0.14297759477E-02  0.49116795568E-03 -0.89497128711E+03  0.11050286640E+04  0.64816259028E+03 0.  0.
         13    1    3    3    0    0  0.24856321851E+03  0.48278398638E+02 -0.10263768923E+03  0.27321964172E+03  0.00000000000E+00 0.  1.
          1    1    3    3  501    0 -0.24856178873E+03 -0.48277907470E+02 -0.79233359787E+03  0.83180902224E+03  0.00000000000E+00 0.  1.
         21    1    1    2  502  501 -0.14297759477E-02 -0.49116795568E-03  0.23330025464E-01  0.23378956208E-01  0.00000000000E+00 0. -1.
<mgrwt>
<rscale>  1 0.64816259E+03</rscale>
<asrwt>0</asrwt>
<pdfrwt beam="1">  1        3 0.38200823E+00 0.64816259E+03</pdfrwt>
<pdfrwt beam="2">0</pdfrwt>
<totfact> 0.73680950E-02</totfact>
</mgrwt>
</event>
<event>
 6    1  0.4292888E-003  0.6424180E+03  0.7818608E-02  0.9821111E-01
          1   -1    0    0  502    0  0.00000000000E+00  0.00000000000E+00  0.10370706179E+03  0.10370706179E+03  0.00000000000E+00 0.  1.
         13   -1    0    0    0    0 -0.00000000000E+00 -0.00000000000E+00 -0.10000000000E+04  0.10000000000E+04  0.00000000000E+00 0.  1.
    9000005    2    1    2  501    0 -0.69692739123E+00 -0.84384377594E+00 -0.89611498060E+03  0.11025982566E+04  0.64241704456E+03 0.  0.
         13    1    3    3    0    0  0.24964790896E+03 -0.99275618988E+02 -0.14613492293E+03  0.30583515604E+03  0.00000000000E+00 0.  1.
          3    1    3    3  501    0 -0.25034483635E+03  0.98431775212E+02 -0.74998005767E+03  0.79676310053E+03  0.00000000000E+00 0.  1.
         21    1    1    2  502  501  0.69692739123E+00  0.84384377594E+00 -0.17795760717E+00  0.11088052204E+01  0.00000000000E+00 0.  1.
<mgrwt>
<rscale>  1 0.64241798E+03</rscale>
<asrwt>0</asrwt>
<pdfrwt beam="1">  1        1 0.37711738E+00 0.64241798E+03</pdfrwt>
<pdfrwt beam="2">0</pdfrwt>
<totfact> 0.16920608E+00</totfact>
</mgrwt>
</event>
<event>
 6    1  0.4292888E-003  0.6557085E+03  0.7818608E-02  0.9796126E-01
          1   -1    0    0  502    0  0.00000000000E+00  0.00000000000E+00  0.10754515255E+03  0.10754515255E+03  0.00000000000E+00 0.  1.
         13   -1    0    0    0    0 -0.00000000000E+00 -0.00000000000E+00 -0.10000000000E+04  0.10000000000E+04  0.00000000000E+00 0.  1.
    9000005    2    1    2  501    0  0.20219724254E-01  0.45539130476E-01 -0.89249923277E+03  0.11074784240E+04  0.65570845392E+03 0.  0.
         13    1    3    3    0    0 -0.97233668646E+02  0.48842339345E+01 -0.97500302722E+03  0.97985159343E+03  0.00000000000E+00 0.  1.
          3    1    3    3  501    0  0.97253888370E+02 -0.48386948040E+01  0.82503794451E+02  0.12762683052E+03  0.00000000000E+00 0.  1.
         21    1    1    2  502  501 -0.20219724254E-01 -0.45539130476E-01  0.44385317929E-01  0.66728600323E-01  0.00000000000E+00 0. -1.
<mgrwt>
<rscale>  1 0.65570846E+03</rscale>
<asrwt>0</asrwt>
<pdfrwt beam="1">  1        1 0.39107411E+00 0.65570846E+03</pdfrwt>
<pdfrwt beam="2">0</pdfrwt>
<totfact> 0.14643463E+00</totfact>
</mgrwt>
</event>
<event>
 6    1  0.4292888E-003  0.6481356E+03  0.7818608E-02  0.9810284E-01
          1   -1    0    0  502    0  0.00000000000E+00  0.00000000000E+00  0.10503746353E+03  0.10503746353E+03  0.00000000000E+00 0.  1.
         13   -1    0    0    0    0 -0.00000000000E+00 -0.00000000000E+00 -0.10000000000E+04  0.10000000000E+04  0.00000000000E+00 0.  1.
    9000005    2    1    2  501    0  0.32259156690E-01 -0.39041811575E-01 -0.89492010871E+03  0.11049713951E+04  0.64813561895E+03 0.  0.
         13    1    3    3    0    0 -0.66889434620E+01  0.33722691594E+02  0.10190704180E+03  0.10755002120E+03  0.00000000000E+00 0.  1.
          3    1    3    3  501    0  0.67212026187E+01 -0.33761733406E+02 -0.99682715051E+03  0.99742137394E+03  0.00000000000E+00 0.  1.
         21    1    1    2  502  501 -0.32259156690E-01  0.39041811575E-01 -0.42427764160E-01  0.66068384368E-01  0.00000000000E+00 0.  1.
<mgrwt>
<rscale>  1 0.64813562E+03</rscale>
<asrwt>0</asrwt>
<pdfrwt beam="1">  1        1 0.38195522E+00 0.64813562E+03</pdfrwt>
<pdfrwt beam="2">0</pdfrwt>
<totfact> 0.16092330E+00</totfact>
</mgrwt>
</event>
<event>
 6    1  0.4292888E-003  0.6498671E+03  0.7818608E-02  0.9807029E-01
          1   -1    0    0  502    0  0.00000000000E+00  0.00000000000E+00  0.11420378764E+03  0.11420378764E+03  0.00000000000E+00 0.  1.
         13   -1    0    0    0    0 -0.00000000000E+00 -0.00000000000E+00 -0.10000000000E+04  0.10000000000E+04  0.00000000000E+00 0.  1.
    9000005    2    1    2  501    0 -0.57437732737E+01 -0.41254871713E+01 -0.89278517630E+03  0.11042611425E+04  0.64982866141E+03 0.  0.
         13    1    3    3    0    0  0.24745113964E+03  0.11479267290E+03 -0.73299959977E+03  0.78211114141E+03  0.00000000000E+00 0.  1.
          3    1    3    3  501    0 -0.25319491291E+03 -0.11891816007E+03 -0.15978557653E+03  0.32215000107E+03  0.00000000000E+00 0.  1.
         21    1    1    2  502  501  0.57437732737E+01  0.41254871713E+01  0.69889639418E+01  0.99426451612E+01  0.00000000000E+00 0.  1.
<mgrwt>
<rscale>  1 0.64986714E+03</rscale>
<asrwt>0</asrwt>
<pdfrwt beam="1">  1        1 0.41528738E+00 0.64986714E+03</pdfrwt>
<pdfrwt beam="2">0</pdfrwt>
<totfact> 0.11428529E+00</totfact>
</mgrwt>
</event>
<event>
 6    1  0.4292888E-003  0.6332359E+03  0.7818608E-02  0.9838754E-01
          3   -1    0    0  502    0  0.00000000000E+00  0.00000000000E+00  0.10024703134E+03  0.10024703134E+03  0.00000000000E+00 0.  1.
         13   -1    0    0    0    0 -0.00000000000E+00 -0.00000000000E+00 -0.10000000000E+04  0.10000000000E+04  0.00000000000E+00 0.  1.
    9000005    2    1    2  501    0 -0.18596574314E-03 -0.13102315337E-03 -0.89975286526E+03  0.11002467815E+04  0.63323594463E+03 0.  0.
         13    1    3    3    0    0  0.10227606204E+03  0.11556024291E+02 -0.97012020138E+03  0.97556503611E+03  0.00000000000E+00 0.  1.
          3    1    3    3  501    0 -0.10227624801E+03 -0.11556155314E+02  0.70367336116E+02  0.12468174535E+03  0.00000000000E+00 0.  1.
         21    1    1    2  502  501  0.18596574314E-03  0.13102315337E-03 -0.10339708779E-03  0.24988253661E-03  0.00000000000E+00 0.  1.
<mgrwt>
<rscale>  1 0.63323594E+03</rscale>
<asrwt>0</asrwt>
<pdfrwt beam="1">  1        3 0.36453543E+00 0.63323594E+03</pdfrwt>
<pdfrwt beam="2">0</pdfrwt>
<totfact> 0.91389025E-02</totfact>
</mgrwt>
</event>
<event>
 6    1  0.4292888E-003  0.6351212E+03  0.7818608E-02  0.9835106E-01
          1   -1    0    0  502    0  0.00000000000E+00  0.00000000000E+00  0.10084476906E+03  0.10084476906E+03  0.00000000000E+00 0.  1.
         13   -1    0    0    0    0 -0.00000000000E+00 -0.00000000000E+00 -0.10000000000E+04  0.10000000000E+04  0.00000000000E+00 0.  1.
    9000005    2    1    2  501    0  0.93268616013E-05 -0.19310260882E-04 -0.89915525431E+03  0.11008447373E+04  0.63512122023E+03 0.  0.
         13    1    3    3    0    0  0.23569521034E+03 -0.21115745750E+03 -0.49560089851E+03  0.58801356671E+03  0.00000000000E+00 0.  1.
          1    1    3    3  501    0 -0.23569520101E+03  0.21115743819E+03 -0.40355435580E+03  0.51283117063E+03  0.00000000000E+00 0.  1.
         21    1    1    2  502  501 -0.93268616138E-05  0.19310260873E-04  0.23362963681E-04  0.31712845891E-04  0.00000000000E+00 0.  1.
<mgrwt>
<rscale>  1 0.63512122E+03</rscale>
<asrwt>0</asrwt>
<pdfrwt beam="1">  1        1 0.36670902E+00 0.63512122E+03</pdfrwt>
<pdfrwt beam="2">0</pdfrwt>
<totfact> 0.18825447E+00</totfact>
</mgrwt>
</event>
<event>
 6    1  0.4292888E-003  0.6486937E+03  0.7818608E-02  0.9809233E-01
          1   -1    0    0  502    0  0.00000000000E+00  0.00000000000E+00  0.10526318241E+03  0.10526318241E+03  0.00000000000E+00 0.  1.
         13   -1    0    0    0    0 -0.00000000000E+00 -0.00000000000E+00 -0.10000000000E+04  0.10000000000E+04  0.00000000000E+00 0.  1.
    9000005    2    1    2  501    0  0.78721970397E-03 -0.11557297119E-02 -0.89479910606E+03  0.11052008782E+04  0.64869371899E+03 0.  0.
         13    1    3    3    0    0 -0.21126781454E+03  0.20575044438E+03 -0.67745404369E+03  0.73885811637E+03  0.00000000000E+00 0.  1.
          1    1    3    3  501    0  0.21126860175E+03 -0.20575160011E+03 -0.21734506237E+03  0.36634276187E+03  0.00000000000E+00 0.  1.
         21    1    1    2  502  501 -0.78721970398E-03  0.11557297119E-02  0.62288476546E-01  0.62304171100E-01  0.00000000000E+00 0.  1.
<mgrwt>
<rscale>  1 0.64869372E+03</rscale>
<asrwt>0</asrwt>
<pdfrwt beam="1">  1        1 0.38277602E+00 0.64869372E+03</pdfrwt>
<pdfrwt beam="2">0</pdfrwt>
<totfact> 0.15956900E+00</totfact>
</mgrwt>
</event>
<event>
 6    1  0.4292888E-003  0.6491965E+03  0.7818608E-02  0.9808288E-01
          1   -1    0    0  502    0  0.00000000000E+00  0.00000000000E+00  0.10536459316E+03  0.10536459316E+03  0.00000000000E+00 0.  1.
         13   -1    0    0    0    0 -0.00000000000E+00 -0.00000000000E+00 -0.10000000000E+04  0.10000000000E+04  0.00000000000E+00 0.  1.
    9000005    2    1    2  501    0 -0.74240895555E-04  0.27211965354E-03 -0.89463593942E+03  0.11053639905E+04  0.64919649366E+03 0.  0.
         13    1    3    3    0    0 -0.61212208876E+01  0.19644125731E+03 -0.74586463046E+01  0.19667808298E+03  0.00000000000E+00 0.  1.
          1    1    3    3  501    0  0.61211466467E+01 -0.19644098519E+03 -0.88717729312E+03  0.90868590752E+03  0.00000000000E+00 0.  1.
         21    1    1    2  502  501  0.74240895554E-04 -0.27211965356E-03  0.53257867137E-03  0.60266147846E-03  0.00000000000E+00 0.  1.
<mgrwt>
<rscale>  1 0.64919649E+03</rscale>
<asrwt>0</asrwt>
<pdfrwt beam="1">  1        1 0.38314478E+00 0.64919649E+03</pdfrwt>
<pdfrwt beam="2">0</pdfrwt>
<totfact> 0.15895669E+00</totfact>
</mgrwt>
</event>
<event>
 6    1  0.4292888E-003  0.5642962E+03  0.7818608E-02  0.9982380E-01
          1   -1    0    0  502    0  0.00000000000E+00  0.00000000000E+00  0.79607799279E+02  0.79607799279E+02  0.00000000000E+00 0.  1.
         13   -1    0    0    0    0 -0.00000000000E+00 -0.00000000000E+00 -0.10000000000E+04  0.10000000000E+04  0.00000000000E+00 0.  1.
    9000005    2    1    2  501    0  0.40117339876E-03  0.28307860946E-03 -0.92039218531E+03  0.10796073080E+04  0.56429616764E+03 0.  0.
         13    1    3    3    0    0 -0.26748748341E+03 -0.29337625949E+02 -0.62250369699E+03  0.67817483206E+03  0.00000000000E+00 0.  1.
          1    1    3    3  501    0  0.26748788458E+03  0.29337909027E+02 -0.29788848832E+03  0.40143247598E+03  0.00000000000E+00 0.  1.
         21    1    1    2  502  501 -0.40117339876E-03 -0.28307860946E-03 -0.15413493438E-04  0.49123433388E-03  0.00000000000E+00 0. -1.
<mgrwt>
<rscale>  1 0.56429617E+03</rscale>
<asrwt>0</asrwt>
<pdfrwt beam="1">  1        1 0.28948352E+00 0.56429617E+03</pdfrwt>
<pdfrwt beam="2">0</pdfrwt>
<totfact> 0.41219960E+00</totfact>
</mgrwt>
</event>
<event>
 6    1  0.4292888E-003  0.5337767E+03  0.7818608E-02  0.1005320E+00
          1   -1    0    0  502    0  0.00000000000E+00  0.00000000000E+00  0.71230206981E+02  0.71230206981E+02  0.00000000000E+00 0.  1.
         13   -1    0    0    0    0 -0.00000000000E+00 -0.00000000000E+00 -0.10000000000E+04  0.10000000000E+04  0.00000000000E+00 0.  1.
    9000005    2    1    2  501    0  0.14326541659E-02  0.26644931236E-02 -0.92876439508E+03  0.10712240191E+04  0.53377673004E+03 0.  0.
         13    1    3    3    0    0 -0.46144737736E+02  0.23938300392E+03 -0.68235351007E+03  0.72459635114E+03  0.00000000000E+00 0.  1.
          3    1    3    3  501    0  0.46146170390E+02 -0.23938033943E+03 -0.24641088501E+03  0.34662766796E+03  0.00000000000E+00 0.  1.
         21    1    1    2  502  501 -0.14326541659E-02 -0.26644931236E-02 -0.53979426853E-02  0.61878757905E-02  0.00000000000E+00 0.  1.
<mgrwt>
<rscale>  1 0.53377673E+03</rscale>
<asrwt>0</asrwt>
<pdfrwt beam="1">  1        1 0.25901948E+00 0.53377673E+03</pdfrwt>
<pdfrwt beam="2">0</pdfrwt>
<totfact> 0.56111774E+00</totfact>
</mgrwt>
</event>
<event>
 6    1  0.4292888E-003  0.6545125E+03  0.7818608E-02  0.9798348E-01
          1   -1    0    0  502    0  0.00000000000E+00  0.00000000000E+00  0.10709688134E+03  0.10709688134E+03  0.00000000000E+00 0.  1.
         13   -1    0    0    0    0 -0.00000000000E+00 -0.00000000000E+00 -0.10000000000E+04  0.10000000000E+04  0.00000000000E+00 0.  1.
    9000005    2    1    2  501    0 -0.28520068440E-05 -0.14560604711E-04 -0.89290333137E+03  0.11070966681E+04  0.65451254637E+03 0.  0.
         13    1    3    3    0    0 -0.13218594237E+03  0.27628341674E+03 -0.25144625652E+03  0.39627120719E+03  0.00000000000E+00 0.  1.
          1    1    3    3  501    0  0.13218593952E+03 -0.27628343130E+03 -0.64145707485E+03  0.71082546092E+03  0.00000000000E+00 0.  1.
         21    1    1    2  502  501  0.28520068538E-05  0.14560604688E-04  0.21271544013E-03  0.21323227621E-03  0.00000000000E+00 0. -1.
<mgrwt>
<rscale>  1 0.65451255E+03</rscale>
<asrwt>0</asrwt>
<pdfrwt beam="1">  1        1 0.38944403E+00 0.65451255E+03</pdfrwt>
<pdfrwt beam="2">0</pdfrwt>
<totfact> 0.14892588E+00</totfact>
</mgrwt>
</event>
<event>
 6    1  0.4292888E-003  0.6480618E+03  0.7818608E-02  0.9810423E-01
          1   -1    0    0  502    0  0.00000000000E+00  0.00000000000E+00  0.10521375735E+03  0.10521375735E+03  0.00000000000E+00 0.  1.
         13   -1    0    0    0    0 -0.00000000000E+00 -0.00000000000E+00 -0.10000000000E+04  0.10000000000E+04  0.00000000000E+00 0.  1.
    9000005    2    1    2  501    0  0.28737737512E-01 -0.15843777457E-01 -0.89500261666E+03  0.11049949090E+04  0.64806177488E+03 0.  0.
         13    1    3    3    0    0  0.23983509603E+03 -0.14187585959E+03 -0.16550956734E+03  0.32410345525E+03  0.00000000000E+00 0.  1.
          1    1    3    3  501    0 -0.23980635829E+03  0.14186001582E+03 -0.72949304932E+03  0.78089145377E+03  0.00000000000E+00 0.  1.
         21    1    1    2  502  501 -0.28737737512E-01  0.15843777457E-01  0.21637400219E+00  0.21884833027E+00  0.00000000000E+00 0.  1.
<mgrwt>
<rscale>  1 0.64806178E+03</rscale>
<asrwt>0</asrwt>
<pdfrwt beam="1">  1        1 0.38259629E+00 0.64806178E+03</pdfrwt>
<pdfrwt beam="2">0</pdfrwt>
<totfact> 0.15987963E+00</totfact>
</mgrwt>
</event>
<event>
 6    1  0.4292888E-003  0.6511314E+03  0.7818608E-02  0.9804658E-01
          1   -1    0    0  502    0  0.00000000000E+00  0.00000000000E+00  0.10599305348E+03  0.10599305348E+03  0.00000000000E+00 0.  1.
         13   -1    0    0    0    0 -0.00000000000E+00 -0.00000000000E+00 -0.10000000000E+04  0.10000000000E+04  0.00000000000E+00 0.  1.
    9000005    2    1    2  501    0 -0.76268917724E-05 -0.12770633901E-05 -0.89400696433E+03  0.11059930341E+04  0.65113143000E+03 0.  0.
         13    1    3    3    0    0 -0.30358278608E+03  0.10828892951E+03 -0.52491656948E+03  0.61597597776E+03  0.00000000000E+00 0.  1.
          3    1    3    3  501    0  0.30358277845E+03 -0.10828893079E+03 -0.36909039484E+03  0.49001705631E+03  0.00000000000E+00 0.  1.
         21    1    1    2  502  501  0.76268917600E-05  0.12770633871E-05  0.17811351108E-04  0.19417636239E-04  0.00000000000E+00 0. -1.
<mgrwt>
<rscale>  1 0.65113143E+03</rscale>
<asrwt>0</asrwt>
<pdfrwt beam="1">  1        1 0.38543010E+00 0.65113143E+03</pdfrwt>
<pdfrwt beam="2">0</pdfrwt>
<totfact> 0.15524544E+00</totfact>
</mgrwt>
</event>
<event>
 6    1  0.4292888E-003  0.6341691E+03  0.7818608E-02  0.9836947E-01
          3   -1    0    0  502    0  0.00000000000E+00  0.00000000000E+00  0.10062968751E+03  0.10062968751E+03  0.00000000000E+00 0.  1.
         13   -1    0    0    0    0 -0.00000000000E+00 -0.00000000000E+00 -0.10000000000E+04  0.10000000000E+04  0.00000000000E+00 0.  1.
    9000005    2    1    2  501    0  0.37419020005E-02  0.11616323677E-02 -0.89945732694E+03  0.11005425849E+04  0.63416914003E+03 0.  0.
         13    1    3    3    0    0  0.28824013353E+03  0.10525834260E+03 -0.58837010186E+03  0.66358199947E+03  0.00000000000E+00 0.  1.
          1    1    3    3  501    0 -0.28823639163E+03 -0.10525718097E+03 -0.31108722508E+03  0.43696058542E+03  0.00000000000E+00 0.  1.
         21    1    1    2  502  501 -0.37419020005E-02 -0.11616323677E-02  0.87014446608E-01  0.87102612698E-01  0.00000000000E+00 0.  1.
<mgrwt>
<rscale>  1 0.63416914E+03</rscale>
<asrwt>0</asrwt>
<pdfrwt beam="1">  1        3 0.36592691E+00 0.63416914E+03</pdfrwt>
<pdfrwt beam="2">0</pdfrwt>
<totfact> 0.89835075E-02</totfact>
</mgrwt>
</event>
<event>
 6    1  0.4292888E-003  0.6584553E+03  0.7818608E-02  0.9791041E-01
          1   -1    0    0  502    0  0.00000000000E+00  0.00000000000E+00  0.10842163020E+03  0.10842163020E+03  0.00000000000E+00 0.  1.
         13   -1    0    0    0    0 -0.00000000000E+00 -0.00000000000E+00 -0.10000000000E+04  0.10000000000E+04  0.00000000000E+00 0.  1.
    9000005    2    1    2  501    0  0.65968202412E-02  0.20208320679E-01 -0.89160503133E+03  0.11083875314E+04  0.65845530397E+03 0.  0.
         13    1    3    3    0    0 -0.32717316561E+02  0.24060133433E+03 -0.71540109400E+02  0.25313516575E+03  0.00000000000E+00 0.  1.
          1    1    3    3  501    0  0.32723913381E+02 -0.24058112601E+03 -0.82006492193E+03  0.85525236561E+03  0.00000000000E+00 0.  1.
         21    1    1    2  502  501 -0.65968202412E-02 -0.20208320679E-01  0.26661527742E-01  0.34098846366E-01  0.00000000000E+00 0. -1.
<mgrwt>
<rscale>  1 0.65845530E+03</rscale>
<asrwt>0</asrwt>
<pdfrwt beam="1">  1        1 0.39426130E+00 0.65845530E+03</pdfrwt>
<pdfrwt beam="2">0</pdfrwt>
<totfact> 0.14166653E+00</totfact>
</mgrwt>
</event>
<event>
 6    1  0.4292888E-003  0.6520496E+03  0.7818608E-02  0.9802941E-01
          1   -1    0    0  502    0  0.00000000000E+00  0.00000000000E+00  0.10635781772E+03  0.10635781772E+03  0.00000000000E+00 0.  1.
         13   -1    0    0    0    0 -0.00000000000E+00 -0.00000000000E+00 -0.10000000000E+04  0.10000000000E+04  0.00000000000E+00 0.  1.
    9000005    2    1    2  501    0  0.36447530704E-01  0.53013427022E-01 -0.89368992143E+03  0.11062777061E+04  0.65204960181E+03 0.  0.
         13    1    3    3    0    0  0.21815487919E+03  0.19913522830E+03 -0.21262618861E+03  0.36394544447E+03  0.00000000000E+00 0.  1.
          1    1    3    3  501    0 -0.21811843166E+03 -0.19908221487E+03 -0.68106373281E+03  0.74233226163E+03  0.00000000000E+00 0.  1.
         21    1    1    2  502  501 -0.36447530704E-01 -0.53013427022E-01  0.47739147201E-01  0.80111622842E-01  0.00000000000E+00 0. -1.
<mgrwt>
<rscale>  1 0.65204960E+03</rscale>
<asrwt>0</asrwt>
<pdfrwt beam="1">  1        1 0.38675652E+00 0.65204960E+03</pdfrwt>
<pdfrwt beam="2">0</pdfrwt>
<totfact> 0.15313512E+00</totfact>
</mgrwt>
</event>
<event>
 6    1  0.4292888E-003  0.6470203E+03  0.7818608E-02  0.9812387E-01
          1   -1    0    0  502    0  0.00000000000E+00  0.00000000000E+00  0.10465888352E+03  0.10465888352E+03  0.00000000000E+00 0.  1.
         13   -1    0    0    0    0 -0.00000000000E+00 -0.00000000000E+00 -0.10000000000E+04  0.10000000000E+04  0.00000000000E+00 0.  1.
    9000005    2    1    2  501    0  0.37940922653E-04 -0.27421400134E-04 -0.89534117838E+03  0.11046588059E+04  0.64702028699E+03 0.  0.
         13    1    3    3    0    0  0.28269799487E+03  0.12173573529E+03 -0.27761552008E+03  0.41449743369E+03  0.00000000000E+00 0.  1.
          3    1    3    3  501    0 -0.28269795693E+03 -0.12173576271E+03 -0.61772565830E+03  0.69016137222E+03  0.00000000000E+00 0.  1.
         21    1    1    2  502  501 -0.37940922693E-04  0.27421400133E-04  0.61900905273E-04  0.77609077264E-04  0.00000000000E+00 0.  1.
<mgrwt>
<rscale>  1 0.64702029E+03</rscale>
<asrwt>0</asrwt>
<pdfrwt beam="1">  1        1 0.38057856E+00 0.64702029E+03</pdfrwt>
<pdfrwt beam="2">0</pdfrwt>
<totfact> 0.16322474E+00</totfact>
</mgrwt>
</event>
<event>
 6    1  0.4292888E-003  0.6398667E+03  0.7818608E-02  0.9825982E-01
          1   -1    0    0  502    0  0.00000000000E+00  0.00000000000E+00  0.10356539117E+03  0.10356539117E+03  0.00000000000E+00 0.  1.
         13   -1    0    0    0    0 -0.00000000000E+00 -0.00000000000E+00 -0.10000000000E+04  0.10000000000E+04  0.00000000000E+00 0.  1.
    9000005    2    1    2  501    0 -0.17305416339E+01 -0.15331693716E+01 -0.89628024862E+03  0.11012482356E+04  0.63986252199E+03 0.  0.
         13    1    3    3    0    0  0.25330517157E+03 -0.10455974012E+03 -0.73022265874E+03  0.77994960127E+03  0.00000000000E+00 0.  1.
          1    1    3    3  501    0 -0.25503571320E+03  0.10302657075E+03 -0.16605758989E+03  0.32129863437E+03  0.00000000000E+00 0.  1.
         21    1    1    2  502  501  0.17305416339E+01  0.15331693716E+01 -0.15436020434E+00  0.23171555281E+01  0.00000000000E+00 0.  1.
<mgrwt>
<rscale>  1 0.63986670E+03</rscale>
<asrwt>0</asrwt>
<pdfrwt beam="1">  1        1 0.37660222E+00 0.63986670E+03</pdfrwt>
<pdfrwt beam="2">0</pdfrwt>
<totfact> 0.17017241E+00</totfact>
</mgrwt>
</event>
<event>
 6    1  0.4292888E-003  0.6417187E+03  0.7818608E-02  0.9822444E-01
          1   -1    0    0  502    0  0.00000000000E+00  0.00000000000E+00  0.10736974330E+03  0.10736974330E+03  0.00000000000E+00 0.  1.
         13   -1    0    0    0    0 -0.00000000000E+00 -0.00000000000E+00 -0.10000000000E+04  0.10000000000E+04  0.00000000000E+00 0.  1.
    9000005    2    1    2  501    0 -0.48512713539E-01  0.14231932986E+00 -0.89704785742E+03  0.11029495844E+04  0.64171871149E+03 0.  0.
         13    1    3    3    0    0 -0.29514985883E+03  0.10359548404E+03 -0.57174232977E+03  0.65171677524E+03  0.00000000000E+00 0.  1.
          1    1    3    3  501    0  0.29510134611E+03 -0.10345316471E+03 -0.32530552766E+03  0.45123280919E+03  0.00000000000E+00 0.  1.
         21    1    1    2  502  501  0.48512713539E-01 -0.14231932986E+00  0.44176007201E+01  0.44201588656E+01  0.00000000000E+00 0.  1.
<mgrwt>
<rscale>  1 0.64171873E+03</rscale>
<asrwt>0</asrwt>
<pdfrwt beam="1">  1        1 0.39043625E+00 0.64171873E+03</pdfrwt>
<pdfrwt beam="2">0</pdfrwt>
<totfact> 0.14777823E+00</totfact>
</mgrwt>
</event>
<event>
 6    1  0.4292888E-003  0.6498378E+03  0.7818608E-02  0.9807084E-01
          1   -1    0    0  502    0  0.00000000000E+00  0.00000000000E+00  0.10584074244E+03  0.10584074244E+03  0.00000000000E+00 0.  1.
         13   -1    0    0    0    0 -0.00000000000E+00 -0.00000000000E+00 -0.10000000000E+04  0.10000000000E+04  0.00000000000E+00 0.  1.
    9000005    2    1    2  501    0 -0.13445338311E+00 -0.12221825846E+00 -0.89439328267E+03  0.11055444609E+04  0.64983780890E+03 0.  0.
         13    1    3    3    0    0 -0.32055108692E+03 -0.32738015208E+01 -0.53814430066E+03  0.62638886120E+03  0.00000000000E+00 0.  1.
          3    1    3    3  501    0  0.32041663353E+03  0.31515832623E+01 -0.35624898201E+03  0.47915559968E+03  0.00000000000E+00 0.  1.
         21    1    1    2  502  501  0.13445338311E+00  0.12221825846E+00  0.23402511103E+00  0.29628156798E+00  0.00000000000E+00 0.  1.
<mgrwt>
<rscale>  1 0.64983783E+03</rscale>
<asrwt>0</asrwt>
<pdfrwt beam="1">  1        1 0.38487624E+00 0.64983783E+03</pdfrwt>
<pdfrwt beam="2">0</pdfrwt>
<totfact> 0.15616103E+00</totfact>
</mgrwt>
</event>
<event>
 6    1  0.4292888E-003  0.6509031E+03  0.7818608E-02  0.9805086E-01
          1   -1    0    0  502    0  0.00000000000E+00  0.00000000000E+00  0.10591883150E+03  0.10591883150E+03  0.00000000000E+00 0.  1.
         13   -1    0    0    0    0 -0.00000000000E+00 -0.00000000000E+00 -0.10000000000E+04  0.10000000000E+04  0.00000000000E+00 0.  1.
    9000005    2    1    2  501    0  0.57173130287E-04  0.93879440328E-05 -0.89408126593E+03  0.11059187181E+04  0.65090314261E+03 0.  0.
         13    1    3    3    0    0  0.11711513651E+03 -0.12417944809E+03  0.23760196463E+02  0.17233988936E+03  0.00000000000E+00 0.  1.
          3    1    3    3  501    0 -0.11711507934E+03  0.12417945748E+03 -0.91784146239E+03  0.93357882878E+03  0.00000000000E+00 0.  1.
         21    1    1    2  502  501 -0.57173130276E-04 -0.93879440293E-05  0.97431550373E-04  0.11335699064E-03  0.00000000000E+00 0.  1.
<mgrwt>
<rscale>  1 0.65090314E+03</rscale>
<asrwt>0</asrwt>
<pdfrwt beam="1">  1        1 0.38516020E+00 0.65090314E+03</pdfrwt>
<pdfrwt beam="2">0</pdfrwt>
<totfact> 0.15567941E+00</totfact>
</mgrwt>
</event>
<event>
 6    1  0.4292888E-003  0.6478531E+03  0.7818608E-02  0.9810816E-01
          1   -1    0    0  502    0  0.00000000000E+00  0.00000000000E+00  0.10497349725E+03  0.10497349725E+03  0.00000000000E+00 0.  1.
         13   -1    0    0    0    0 -0.00000000000E+00 -0.00000000000E+00 -0.10000000000E+04  0.10000000000E+04  0.00000000000E+00 0.  1.
    9000005    2    1    2  501    0  0.52918459783E-02  0.14577246429E-02 -0.89507140126E+03  0.11049282645E+04  0.64785311315E+03 0.  0.
         13    1    3    3    0    0  0.30524388958E+03  0.10197121050E+03 -0.51039481849E+03  0.60338613726E+03  0.00000000000E+00 0.  1.
          1    1    3    3  501    0 -0.30523859773E+03 -0.10196975278E+03 -0.38467658277E+03  0.50154212720E+03  0.00000000000E+00 0.  1.
         21    1    1    2  502  501 -0.52918459783E-02 -0.14577246429E-02  0.44898510739E-01  0.45232785251E-01  0.00000000000E+00 0.  1.
<mgrwt>
<rscale>  1 0.64785311E+03</rscale>
<asrwt>0</asrwt>
<pdfrwt beam="1">  1        1 0.38172261E+00 0.64785311E+03</pdfrwt>
<pdfrwt beam="2">0</pdfrwt>
<totfact> 0.16131278E+00</totfact>
</mgrwt>
</event>
<event>
 6    1  0.4292888E-003  0.6584788E+03  0.7818608E-02  0.9790998E-01
          1   -1    0    0  502    0  0.00000000000E+00  0.00000000000E+00  0.10841587609E+03  0.10841587609E+03  0.00000000000E+00 0.  1.
         13   -1    0    0    0    0 -0.00000000000E+00 -0.00000000000E+00 -0.10000000000E+04  0.10000000000E+04  0.00000000000E+00 0.  1.
    9000005    2    1    2  501    0 -0.14361127950E-02 -0.14535258102E-02 -0.89160134474E+03  0.11083985345E+04  0.65847881763E+03 0.  0.
         13    1    3    3    0    0 -0.26967904473E+03  0.12604336441E+03 -0.68256908357E+03  0.74465714978E+03  0.00000000000E+00 0.  1.
          1    1    3    3  501    0  0.26967760862E+03 -0.12604481794E+03 -0.20903226117E+03  0.36374138468E+03  0.00000000000E+00 0.  1.
         21    1    1    2  502  501  0.14361127950E-02  0.14535258103E-02  0.17220824088E-01  0.17341624477E-01  0.00000000000E+00 0. -1.
<mgrwt>
<rscale>  1 0.65847882E+03</rscale>
<asrwt>0</asrwt>
<pdfrwt beam="1">  1        1 0.39424038E+00 0.65847882E+03</pdfrwt>
<pdfrwt beam="2">0</pdfrwt>
<totfact> 0.14169625E+00</totfact>
</mgrwt>
</event>
<event>
 6    1  0.4292888E-003  0.6457087E+03  0.7818608E-02  0.9814865E-01
          1   -1    0    0  502    0  0.00000000000E+00  0.00000000000E+00  0.13246802047E+03  0.13246802047E+03  0.00000000000E+00 0.  1.
         13   -1    0    0    0    0 -0.00000000000E+00 -0.00000000000E+00 -0.10000000000E+04  0.10000000000E+04  0.00000000000E+00 0.  1.
    9000005    2    1    2  501    0  0.26504950677E+00 -0.47723074528E+00 -0.89576214231E+03  0.11042325801E+04  0.64570850809E+03 0.  0.
         13    1    3    3    0    0 -0.57403447263E+02  0.29930378691E+03 -0.62851319214E+03  0.69850321782E+03  0.00000000000E+00 0.  1.
          1    1    3    3  501    0  0.57668496770E+02 -0.29978101766E+03 -0.26724895017E+03  0.40572936231E+03  0.00000000000E+00 0.  1.
         21    1    1    2  502  501 -0.26504950677E+00  0.47723074528E+00  0.28230162781E+02  0.28235440338E+02  0.00000000000E+00 0.  1.
<mgrwt>
<rscale>  1 0.64570874E+03</rscale>
<asrwt>0</asrwt>
<pdfrwt beam="1">  1        1 0.48170291E+00 0.64570874E+03</pdfrwt>
<pdfrwt beam="2">0</pdfrwt>
<totfact> 0.56575534E-01</totfact>
</mgrwt>
</event>
<event>
 6    1  0.4292888E-003  0.6472017E+03  0.7818608E-02  0.9812044E-01
          1   -1    0    0  502    0  0.00000000000E+00  0.00000000000E+00  0.10471796560E+03  0.10471796560E+03  0.00000000000E+00 0.  1.
         13   -1    0    0    0    0 -0.00000000000E+00 -0.00000000000E+00 -0.10000000000E+04  0.10000000000E+04  0.00000000000E+00 0.  1.
    9000005    2    1    2  501    0 -0.60918815166E-04  0.32038248679E-03 -0.89528242004E+03  0.11047174606E+04  0.64720171200E+03 0.  0.
         13    1    3    3    0    0 -0.26935374931E+03  0.33365522843E+02 -0.74843046107E+03  0.79612364331E+03  0.00000000000E+00 0.  1.
          3    1    3    3  501    0  0.26935368839E+03 -0.33365202461E+02 -0.14685195897E+03  0.30859381724E+03  0.00000000000E+00 0.  1.
         21    1    1    2  502  501  0.60918815161E-04 -0.32038248679E-03  0.38564215113E-03  0.50505040205E-03  0.00000000000E+00 0.  1.
<mgrwt>
<rscale>  1 0.64720171E+03</rscale>
<asrwt>0</asrwt>
<pdfrwt beam="1">  1        1 0.38079341E+00 0.64720171E+03</pdfrwt>
<pdfrwt beam="2">0</pdfrwt>
<totfact> 0.16286330E+00</totfact>
</mgrwt>
</event>
<event>
 6    1  0.4292888E-003  0.6565441E+03  0.7818608E-02  0.9794576E-01
          1   -1    0    0  502    0  0.00000000000E+00  0.00000000000E+00  0.10785177059E+03  0.10785177059E+03  0.00000000000E+00 0.  1.
         13   -1    0    0    0    0 -0.00000000000E+00 -0.00000000000E+00 -0.10000000000E+04  0.10000000000E+04  0.00000000000E+00 0.  1.
    9000005    2    1    2  501    0  0.13474754322E+00 -0.23285273242E+00 -0.89184350951E+03  0.11074452838E+04  0.65654408747E+03 0.  0.
         13    1    3    3    0    0 -0.21705524083E+03 -0.11445880552E+03 -0.81371985560E+03  0.84991399514E+03  0.00000000000E+00 0.  1.
          1    1    3    3  501    0  0.21718998838E+03  0.11422595279E+03 -0.78123653911E+02  0.25753128867E+03  0.00000000000E+00 0.  1.
         21    1    1    2  502  501 -0.13474754322E+00  0.23285273242E+00 -0.30471989406E+00  0.40648678851E+00  0.00000000000E+00 0. -1.
<mgrwt>
<rscale>  1 0.65654414E+03</rscale>
<asrwt>0</asrwt>
<pdfrwt beam="1">  1        1 0.39218908E+00 0.65654414E+03</pdfrwt>
<pdfrwt beam="2">0</pdfrwt>
<totfact> 0.14475295E+00</totfact>
</mgrwt>
</event>
<event>
 6    1  0.4292888E-003  0.6496017E+03  0.7818608E-02  0.9807527E-01
          1   -1    0    0  502    0  0.00000000000E+00  0.00000000000E+00  0.10549560707E+03  0.10549560707E+03  0.00000000000E+00 0.  1.
         13   -1    0    0    0    0 -0.00000000000E+00 -0.00000000000E+00 -0.10000000000E+04  0.10000000000E+04  0.00000000000E+00 0.  1.
    9000005    2    1    2  501    0  0.13011219011E-04  0.11098255825E-05 -0.89450439407E+03  0.11054955940E+04  0.64960172203E+03 0.  0.
         13    1    3    3    0    0  0.19638793298E+03 -0.59133648924E+02 -0.87585917777E+03  0.89955228194E+03  0.00000000000E+00 0.  1.
          3    1    3    3  501    0 -0.19638791997E+03  0.59133650034E+02 -0.18645216300E+02  0.20594331202E+03  0.00000000000E+00 0.  1.
         21    1    1    2  502  501 -0.13011219002E-04 -0.11098255790E-05  0.11353493408E-05  0.13107728669E-04  0.00000000000E+00 0.  1.
<mgrwt>
<rscale>  1 0.64960172E+03</rscale>
<asrwt>0</asrwt>
<pdfrwt beam="1">  1        1 0.38362120E+00 0.64960172E+03</pdfrwt>
<pdfrwt beam="2">0</pdfrwt>
<totfact> 0.15817607E+00</totfact>
</mgrwt>
</event>
<event>
 6    1  0.4292888E-003  0.6022939E+03  0.7818608E-02  0.9900658E-01
          1   -1    0    0  502    0  0.00000000000E+00  0.00000000000E+00  0.90700442028E+02  0.90700442028E+02  0.00000000000E+00 0.  1.
         13   -1    0    0    0    0 -0.00000000000E+00 -0.00000000000E+00 -0.10000000000E+04  0.10000000000E+04  0.00000000000E+00 0.  1.
    9000005    2    1    2  501    0 -0.26934684880E-02  0.20240874397E-03 -0.90931033760E+03  0.10906893291E+04  0.60229388395E+03 0.  0.
         13    1    3    3    0    0 -0.41731773316E+02 -0.26076816185E+03 -0.71675321285E+03  0.76385649390E+03  0.00000000000E+00 0.  1.
          1    1    3    3  501    0  0.41729079848E+02  0.26076836426E+03 -0.19255712475E+03  0.32683283525E+03  0.00000000000E+00 0.  1.
         21    1    1    2  502  501  0.26934684880E-02 -0.20240874402E-03  0.10779627555E-01  0.11112880456E-01  0.00000000000E+00 0.  1.
<mgrwt>
<rscale>  1 0.60229388E+03</rscale>
<asrwt>0</asrwt>
<pdfrwt beam="1">  1        1 0.32982048E+00 0.60229388E+03</pdfrwt>
<pdfrwt beam="2">0</pdfrwt>
<totfact> 0.27414410E+00</totfact>
</mgrwt>
</event>
<event>
 6    1  0.4292888E-003  0.6657972E+03  0.7818608E-02  0.9777580E-01
          1   -1    0    0  502    0  0.00000000000E+00  0.00000000000E+00  0.11212486538E+03  0.11212486538E+03  0.00000000000E+00 0.  1.
         13   -1    0    0    0    0 -0.00000000000E+00 -0.00000000000E+00 -0.10000000000E+04  0.10000000000E+04  0.00000000000E+00 0.  1.
    9000005    2    1    2  501    0 -0.71715967663E+00 -0.54553850637E+00 -0.88900317528E+03  0.11106811182E+04  0.66579658206E+03 0.  0.
         13    1    3    3    0    0 -0.21209333245E+03 -0.19255635128E+03 -0.16085024559E+03  0.32853360801E+03  0.00000000000E+00 0.  1.
          1    1    3    3  501    0  0.21137617277E+03  0.19201081277E+03 -0.72815292969E+03  0.78214751016E+03  0.00000000000E+00 0.  1.
         21    1    1    2  502  501  0.71715967663E+00  0.54553850637E+00  0.11280406526E+01  0.14437472001E+01  0.00000000000E+00 0. -1.
<mgrwt>
<rscale>  1 0.66579719E+03</rscale>
<asrwt>0</asrwt>
<pdfrwt beam="1">  1        1 0.40772764E+00 0.66579719E+03</pdfrwt>
<pdfrwt beam="2">0</pdfrwt>
<totfact> 0.12319281E+00</totfact>
</mgrwt>
</event>
<event>
 6    1  0.4292888E-003  0.6531307E+03  0.7818608E-02  0.9800922E-01
          1   -1    0    0  502    0  0.00000000000E+00  0.00000000000E+00  0.10664493521E+03  0.10664493521E+03  0.00000000000E+00 0.  1.
         13   -1    0    0    0    0 -0.00000000000E+00 -0.00000000000E+00 -0.10000000000E+04  0.10000000000E+04  0.00000000000E+00 0.  1.
    9000005    2    1    2  501    0 -0.62808022676E-05 -0.25907000811E-05 -0.89335506808E+03  0.11066449277E+04  0.65313070534E+03 0.  0.
         13    1    3    3    0    0  0.31973145058E+03 -0.25958237396E+02 -0.55033775247E+03  0.63700366747E+03  0.00000000000E+00 0.  1.
          1    1    3    3  501    0 -0.31973145686E+03  0.25958234805E+02 -0.34301731561E+03  0.46964126019E+03  0.00000000000E+00 0.  1.
         21    1    1    2  502  501  0.62808022727E-05  0.25907000818E-05  0.32846590894E-05  0.75464686732E-05  0.00000000000E+00 0. -1.
<mgrwt>
<rscale>  1 0.65313071E+03</rscale>
<asrwt>0</asrwt>
<pdfrwt beam="1">  1        1 0.38780058E+00 0.65313071E+03</pdfrwt>
<pdfrwt beam="2">0</pdfrwt>
<totfact> 0.15148316E+00</totfact>
</mgrwt>
</event>
<event>
 6    1  0.4292888E-003  0.6503693E+03  0.7818608E-02  0.9806086E-01
          1   -1    0    0  502    0  0.00000000000E+00  0.00000000000E+00  0.10600211399E+03  0.10600211399E+03  0.00000000000E+00 0.  1.
         13   -1    0    0    0    0 -0.00000000000E+00 -0.00000000000E+00 -0.10000000000E+04  0.10000000000E+04  0.00000000000E+00 0.  1.
    9000005    2    1    2  501    0 -0.18544015844E-01 -0.15631692366E-01 -0.89425431062E+03  0.11057445449E+04  0.65036929972E+03 0.  0.
         13    1    3    3    0    0 -0.13537682781E+03  0.23681795971E+03 -0.14616773245E+03  0.30947477693E+03  0.00000000000E+00 0.  1.
          1    1    3    3  501    0  0.13535828380E+03 -0.23683359140E+03 -0.74808657817E+03  0.79626976801E+03  0.00000000000E+00 0.  1.
         21    1    1    2  502  501  0.18544015844E-01  0.15631692366E-01  0.25642461052E+00  0.25756904163E+00  0.00000000000E+00 0.  1.
<mgrwt>
<rscale>  1 0.65036930E+03</rscale>
<asrwt>0</asrwt>
<pdfrwt beam="1">  1        1 0.38546305E+00 0.65036930E+03</pdfrwt>
<pdfrwt beam="2">0</pdfrwt>
<totfact> 0.15521520E+00</totfact>
</mgrwt>
</event>
<event>
 6    1  0.4292888E-003  0.6568246E+03  0.7818608E-02  0.9794057E-01
          1   -1    0    0  502    0  0.00000000000E+00  0.00000000000E+00  0.10800185603E+03  0.10800185603E+03  0.00000000000E+00 0.  1.
         13   -1    0    0    0    0 -0.00000000000E+00 -0.00000000000E+00 -0.10000000000E+04  0.10000000000E+04  0.00000000000E+00 0.  1.
    9000005    2    1    2  501    0  0.25113725683E-01 -0.27227161318E-01 -0.89214278012E+03  0.11078525522E+04  0.65682458537E+03 0.  0.
         13    1    3    3    0    0  0.24211360876E+03  0.20336276077E+03 -0.29634927991E+03  0.43335702108E+03  0.00000000000E+00 0.  1.
          3    1    3    3  501    0 -0.24208849503E+03 -0.20338998793E+03 -0.59579350021E+03  0.67449553113E+03  0.00000000000E+00 0.  1.
         21    1    1    2  502  501 -0.25113725683E-01  0.27227161318E-01  0.14463614120E+00  0.14930382069E+00  0.00000000000E+00 0.  1.
<mgrwt>
<rscale>  1 0.65682459E+03</rscale>
<asrwt>0</asrwt>
<pdfrwt beam="1">  1        1 0.39273485E+00 0.65682459E+03</pdfrwt>
<pdfrwt beam="2">0</pdfrwt>
<totfact> 0.14393991E+00</totfact>
</mgrwt>
</event>
<event>
 6    1  0.4292888E-003  0.6534815E+03  0.7818608E-02  0.9800268E-01
          1   -1    0    0  502    0  0.00000000000E+00  0.00000000000E+00  0.10678737397E+03  0.10678737397E+03  0.00000000000E+00 0.  1.
         13   -1    0    0    0    0 -0.00000000000E+00 -0.00000000000E+00 -0.10000000000E+04  0.10000000000E+04  0.00000000000E+00 0.  1.
    9000005    2    1    2  501    0 -0.68001850065E-01  0.31149189381E-01 -0.89316548137E+03  0.11066989594E+04  0.65348144883E+03 0.  0.
         13    1    3    3    0    0  0.19701027183E+03 -0.57633312436E+02 -0.16078898430E+02  0.20589603416E+03  0.00000000000E+00 0.  1.
          1    1    3    3  501    0 -0.19707827368E+03  0.57664461626E+02 -0.87708658294E+03  0.90080292521E+03  0.00000000000E+00 0.  1.
         21    1    1    2  502  501  0.68001850065E-01 -0.31149189381E-01 -0.47144659112E-01  0.88414605661E-01  0.00000000000E+00 0.  1.
<mgrwt>
<rscale>  1 0.65348145E+03</rscale>
<asrwt>0</asrwt>
<pdfrwt beam="1">  1        1 0.38831854E+00 0.65348145E+03</pdfrwt>
<pdfrwt beam="2">0</pdfrwt>
<totfact> 0.15067509E+00</totfact>
</mgrwt>
</event>
<event>
 6    1  0.4292888E-003  0.6475146E+03  0.7818608E-02  0.9811454E-01
          1   -1    0    0  502    0  0.00000000000E+00  0.00000000000E+00  0.10485368041E+03  0.10485368041E+03  0.00000000000E+00 0.  1.
         13   -1    0    0    0    0 -0.00000000000E+00 -0.00000000000E+00 -0.10000000000E+04  0.10000000000E+04  0.00000000000E+00 0.  1.
    9000005    2    1    2  501    0 -0.18037616973E-02 -0.44721946648E-02 -0.89518101163E+03  0.11048186548E+04  0.64751464574E+03 0.  0.
         13    1    3    3    0    0  0.19147952826E+03 -0.93039045263E+02 -0.86378226621E+03  0.88962940436E+03  0.00000000000E+00 0.  1.
          1    1    3    3  501    0 -0.19148133203E+03  0.93034573068E+02 -0.31398745417E+02  0.21518925046E+03  0.00000000000E+00 0.  1.
         21    1    1    2  502  501  0.18037616973E-02  0.44721946648E-02  0.34692041406E-01  0.35025588051E-01  0.00000000000E+00 0.  1.
<mgrwt>
<rscale>  1 0.64751465E+03</rscale>
<asrwt>0</asrwt>
<pdfrwt beam="1">  1        1 0.38128691E+00 0.64751465E+03</pdfrwt>
<pdfrwt beam="2">0</pdfrwt>
<totfact> 0.16203903E+00</totfact>
</mgrwt>
</event>
<event>
 6    1  0.4292888E-003  0.6533749E+03  0.7818608E-02  0.9800467E-01
          1   -1    0    0  502    0  0.00000000000E+00  0.00000000000E+00  0.11957051158E+03  0.11957051158E+03  0.00000000000E+00 0.  1.
         13   -1    0    0    0    0 -0.00000000000E+00 -0.00000000000E+00 -0.10000000000E+04  0.10000000000E+04  0.00000000000E+00 0.  1.
    9000005    2    1    2  501    0 -0.15045752817E+01 -0.72199097934E+01 -0.89209319255E+03  0.11057707711E+04  0.65333325577E+03 0.  0.
         13    1    3    3    0    0 -0.22105685631E+03  0.23718604117E+03 -0.41923750526E+03  0.52998437492E+03  0.00000000000E+00 0.  1.
          1    1    3    3  501    0  0.21955228103E+03 -0.24440595097E+03 -0.47285568730E+03  0.57578639614E+03  0.00000000000E+00 0.  1.
         21    1    1    2  502  501  0.15045752817E+01  0.72199097934E+01  0.11663704136E+02  0.13799740518E+02  0.00000000000E+00 0. -1.
<mgrwt>
<rscale>  1 0.65337488E+03</rscale>
<asrwt>0</asrwt>
<pdfrwt beam="1">  1        1 0.43480278E+00 0.65337488E+03</pdfrwt>
<pdfrwt beam="2">0</pdfrwt>
<totfact> 0.93191459E-01</totfact>
</mgrwt>
</event>
<event>
 6    1  0.4292888E-003  0.6388571E+03  0.7818608E-02  0.9827916E-01
          1   -1    0    0  502    0  0.00000000000E+00  0.00000000000E+00  0.10222001588E+03  0.10222001588E+03  0.00000000000E+00 0.  1.
         13   -1    0    0    0    0 -0.00000000000E+00 -0.00000000000E+00 -0.10000000000E+04  0.10000000000E+04  0.00000000000E+00 0.  1.
    9000005    2    1    2  501    0  0.20802700361E-02  0.29321255416E-02 -0.89796537442E+03  0.11020345907E+04  0.63885712448E+03 0.  0.
         13    1    3    3    0    0 -0.20089819274E+02  0.26551253414E+03 -0.14460524315E+03  0.30300360224E+03  0.00000000000E+00 0.  1.
          3    1    3    3  501    0  0.20091899544E+02 -0.26550960201E+03 -0.75336013127E+03  0.79903098849E+03  0.00000000000E+00 0.  1.
         21    1    1    2  502  501 -0.20802700361E-02 -0.29321255416E-02  0.18539029573E+00  0.18542515103E+00  0.00000000000E+00 0. -1.
<mgrwt>
<rscale>  1 0.63885712E+03</rscale>
<asrwt>0</asrwt>
<pdfrwt beam="1">  1        1 0.37170993E+00 0.63885712E+03</pdfrwt>
<pdfrwt beam="2">0</pdfrwt>
<totfact> 0.17885227E+00</totfact>
</mgrwt>
</event>
<event>
 6    1  0.4292888E-003  0.6340244E+03  0.7818608E-02  0.9837227E-01
          1   -1    0    0  502    0  0.00000000000E+00  0.00000000000E+00  0.10171551569E+03  0.10171551569E+03  0.00000000000E+00 0.  1.
         13   -1    0    0    0    0 -0.00000000000E+00 -0.00000000000E+00 -0.10000000000E+04  0.10000000000E+04  0.00000000000E+00 0.  1.
    9000005    2    1    2  501    0  0.29327800930E+00 -0.73866299231E+00 -0.89935911313E+03  0.11003789297E+04  0.63402392930E+03 0.  0.
         13    1    3    3    0    0 -0.19490535889E+03 -0.23774295247E+03 -0.31433665393E+03  0.43967868083E+03  0.00000000000E+00 0.  1.
          1    1    3    3  501    0  0.19519863690E+03  0.23700428948E+03 -0.58502245920E+03  0.66070024887E+03  0.00000000000E+00 0.  1.
         21    1    1    2  502  501 -0.29327800930E+00  0.73866299231E+00  0.10746288221E+01  0.13365859913E+01  0.00000000000E+00 0.  1.
<mgrwt>
<rscale>  1 0.63402443E+03</rscale>
<asrwt>0</asrwt>
<pdfrwt beam="1">  1        1 0.36987538E+00 0.63402443E+03</pdfrwt>
<pdfrwt beam="2">0</pdfrwt>
<totfact> 0.18236327E+00</totfact>
</mgrwt>
</event>
<event>
 6    1  0.4292888E-003  0.6475663E+03  0.7818608E-02  0.9811357E-01
          1   -1    0    0  502    0  0.00000000000E+00  0.00000000000E+00  0.10483719151E+03  0.10483719151E+03  0.00000000000E+00 0.  1.
         13   -1    0    0    0    0 -0.00000000000E+00 -0.00000000000E+00 -0.10000000000E+04  0.10000000000E+04  0.00000000000E+00 0.  1.
    9000005    2    1    2  501    0 -0.13231562360E-03  0.15619576786E-03 -0.89516445118E+03  0.11048355361E+04  0.64756634193E+03 0.  0.
         13    1    3    3    0    0 -0.27533846315E+03 -0.53613116242E+02 -0.72348035911E+03  0.77595712867E+03  0.00000000000E+00 0.  1.
          1    1    3    3  501    0  0.27533833084E+03  0.53613272438E+02 -0.17168409207E+03  0.32887840744E+03  0.00000000000E+00 0.  1.
         21    1    1    2  502  501  0.13231562358E-03 -0.15619576786E-03  0.16426937308E-02  0.16553994187E-02  0.00000000000E+00 0. -1.
<mgrwt>
<rscale>  1 0.64756634E+03</rscale>
<asrwt>0</asrwt>
<pdfrwt beam="1">  1        1 0.38122695E+00 0.64756634E+03</pdfrwt>
<pdfrwt beam="2">0</pdfrwt>
<totfact> 0.16213629E+00</totfact>
</mgrwt>
</event>
<event>
 6    1  0.4292888E-003  0.6351153E+03  0.7818608E-02  0.9835117E-01
          1   -1    0    0  502    0  0.00000000000E+00  0.00000000000E+00  0.10085618445E+03  0.10085618445E+03  0.00000000000E+00 0.  1.
         13   -1    0    0    0    0 -0.00000000000E+00 -0.00000000000E+00 -0.10000000000E+04  0.10000000000E+04  0.00000000000E+00 0.  1.
    9000005    2    1    2  501    0  0.36043632937E-03  0.30321622861E-02 -0.89915693487E+03  0.11008427145E+04  0.63511533477E+03 0.  0.
         13    1    3    3    0    0  0.19741870234E+03  0.29180074572E+02 -0.21425260993E+02  0.20071039483E+03  0.00000000000E+00 0.  1.
          3    1    3    3  501    0 -0.19741834190E+03 -0.29177042409E+02 -0.87773167388E+03  0.90013231963E+03  0.00000000000E+00 0.  1.
         21    1    1    2  502  501 -0.36043632938E-03 -0.30321622861E-02  0.13119315180E-01  0.13469979706E-01  0.00000000000E+00 0. -1.
<mgrwt>
<rscale>  1 0.63511533E+03</rscale>
<asrwt>0</asrwt>
<pdfrwt beam="1">  1        1 0.36675053E+00 0.63511533E+03</pdfrwt>
<pdfrwt beam="2">0</pdfrwt>
<totfact> 0.18817577E+00</totfact>
</mgrwt>
</event>
<event>
 6    1  0.4292888E-003  0.6498755E+03  0.7818608E-02  0.9807013E-01
          1   -1    0    0  502    0  0.00000000000E+00  0.00000000000E+00  0.10558456977E+03  0.10558456977E+03  0.00000000000E+00 0.  1.
         13   -1    0    0    0    0 -0.00000000000E+00 -0.00000000000E+00 -0.10000000000E+04  0.10000000000E+04  0.00000000000E+00 0.  1.
    9000005    2    1    2  501    0 -0.15583818481E-04  0.11171854908E-05 -0.89441543878E+03  0.11055845520E+04  0.64987554533E+03 0.  0.
         13    1    3    3    0    0  0.28379719425E+03 -0.15456238042E+03 -0.50500367526E+03  0.59954907133E+03  0.00000000000E+00 0.  1.
          1    1    3    3  501    0 -0.28379720983E+03  0.15456238154E+03 -0.38941176351E+03  0.50603548063E+03  0.00000000000E+00 0.  1.
         21    1    1    2  502  501  0.15583818487E-04 -0.11171854936E-05  0.85519984971E-05  0.17811237474E-04  0.00000000000E+00 0. -1.
<mgrwt>
<rscale>  1 0.64987555E+03</rscale>
<asrwt>0</asrwt>
<pdfrwt beam="1">  1        1 0.38394470E+00 0.64987555E+03</pdfrwt>
<pdfrwt beam="2">0</pdfrwt>
<totfact> 0.15764812E+00</totfact>
</mgrwt>
</event>
<event>
 6    1  0.4292888E-003  0.6506775E+03  0.7818608E-02  0.9805509E-01
          1   -1    0    0  502    0  0.00000000000E+00  0.00000000000E+00  0.12473727168E+03  0.12473727168E+03  0.00000000000E+00 0.  1.
         13   -1    0    0    0    0 -0.00000000000E+00 -0.00000000000E+00 -0.10000000000E+04  0.10000000000E+04  0.00000000000E+00 0.  1.
    9000005    2    1    2  501    0  0.10762736081E+00 -0.25519985978E+00 -0.89415357340E+03  0.11058443963E+04  0.65067744650E+03 0.  0.
         13    1    3    3    0    0 -0.29297739460E+03 -0.14541260695E+02 -0.68598291940E+03  0.74606954617E+03  0.00000000000E+00 0.  1.
          1    1    3    3  501    0  0.29308502196E+03  0.14286060835E+02 -0.20817065400E+03  0.35977485017E+03  0.00000000000E+00 0.  1.
         21    1    1    2  502  501 -0.10762736081E+00  0.25519985978E+00  0.18890845086E+02  0.18892875342E+02  0.00000000000E+00 0.  1.
<mgrwt>
<rscale>  1 0.65067751E+03</rscale>
<asrwt>0</asrwt>
<pdfrwt beam="1">  1        1 0.45359104E+00 0.65067751E+03</pdfrwt>
<pdfrwt beam="2">0</pdfrwt>
<totfact> 0.76464646E-01</totfact>
</mgrwt>
</event>
<event>
 6    1  0.4292888E-003  0.6509962E+03  0.7818608E-02  0.9804912E-01
          1   -1    0    0  502    0  0.00000000000E+00  0.00000000000E+00  0.10787483529E+03  0.10787483529E+03  0.00000000000E+00 0.  1.
         13   -1    0    0    0    0 -0.00000000000E+00 -0.00000000000E+00 -0.10000000000E+04  0.10000000000E+04  0.00000000000E+00 0.  1.
    9000005    2    1    2  501    0  0.46491782696E+01 -0.83567518806E+00 -0.89004585747E+03  0.11027137569E+04  0.65097902272E+03 0.  0.
         13    1    3    3    0    0  0.14264230369E+03 -0.28158070539E+03 -0.59065405029E+03  0.66970644881E+03  0.00000000000E+00 0.  1.
          1    1    3    3  501    0 -0.13799312542E+03  0.28074503020E+03 -0.29939180718E+03  0.43300730808E+03  0.00000000000E+00 0.  1.
         21    1    1    2  502  501 -0.46491782696E+01  0.83567518806E+00 -0.20793072425E+01  0.51610783961E+01  0.00000000000E+00 0. -1.
<mgrwt>
<rscale>  1 0.65099616E+03</rscale>
<asrwt>0</asrwt>
<pdfrwt beam="1">  1        1 0.39227296E+00 0.65099616E+03</pdfrwt>
<pdfrwt beam="2">0</pdfrwt>
<totfact> 0.14477860E+00</totfact>
</mgrwt>
</event>
<event>
 6    1  0.4292888E-003  0.6545686E+03  0.7818608E-02  0.9798244E-01
          1   -1    0    0  502    0  0.00000000000E+00  0.00000000000E+00  0.10711507472E+03  0.10711507472E+03  0.00000000000E+00 0.  1.
         13   -1    0    0    0    0 -0.00000000000E+00 -0.00000000000E+00 -0.10000000000E+04  0.10000000000E+04  0.00000000000E+00 0.  1.
    9000005    2    1    2  501    0 -0.13928504862E-03  0.88187600085E-04 -0.89288485706E+03  0.11071148963E+04  0.65456857980E+03 0.  0.
         13    1    3    3    0    0  0.21518981451E+03  0.21933078080E+03 -0.63706726949E+03  0.70729580341E+03  0.00000000000E+00 0.  1.
          3    1    3    3  501    0 -0.21518995379E+03 -0.21933069261E+03 -0.25581758757E+03  0.39981909289E+03  0.00000000000E+00 0.  1.
         21    1    1    2  502  501  0.13928504863E-03 -0.88187600082E-04 -0.68218154443E-04  0.17841270744E-03  0.00000000000E+00 0. -1.
<mgrwt>
<rscale>  1 0.65456858E+03</rscale>
<asrwt>0</asrwt>
<pdfrwt beam="1">  1        1 0.38951018E+00 0.65456858E+03</pdfrwt>
<pdfrwt beam="2">0</pdfrwt>
<totfact> 0.14882379E+00</totfact>
</mgrwt>
</event>
<event>
 6    1  0.4292888E-003  0.6434644E+03  0.7818608E-02  0.9819121E-01
          1   -1    0    0  502    0  0.00000000000E+00  0.00000000000E+00  0.10458591782E+03  0.10458591782E+03  0.00000000000E+00 0.  1.
         13   -1    0    0    0    0 -0.00000000000E+00 -0.00000000000E+00 -0.10000000000E+04  0.10000000000E+04  0.00000000000E+00 0.  1.
    9000005    2    1    2  501    0 -0.13075801168E-01 -0.55869272671E-01 -0.89648754641E+03  0.11035109212E+04  0.64346439603E+03 0.  0.
         13    1    3    3    0    0 -0.49664173175E+02 -0.21329589505E+03 -0.44027504204E+02  0.22338328063E+03  0.00000000000E+00 0.  1.
          3    1    3    3  501    0  0.49651097374E+02  0.21324002577E+03 -0.85246004221E+03  0.88012764053E+03  0.00000000000E+00 0.  1.
         21    1    1    2  502  501  0.13075801168E-01  0.55869272671E-01  0.10734642364E+01  0.10749966600E+01  0.00000000000E+00 0. -1.
<mgrwt>
<rscale>  1 0.64346440E+03</rscale>
<asrwt>0</asrwt>
<pdfrwt beam="1">  1        1 0.38031323E+00 0.64346440E+03</pdfrwt>
<pdfrwt beam="2">0</pdfrwt>
<totfact> 0.16377266E+00</totfact>
</mgrwt>
</event>
<event>
 6    1  0.4292888E-003  0.6465127E+03  0.7818608E-02  0.9813345E-01
          1   -1    0    0  502    0  0.00000000000E+00  0.00000000000E+00  0.10839459587E+03  0.10839459587E+03  0.00000000000E+00 0.  1.
         13   -1    0    0    0    0 -0.00000000000E+00 -0.00000000000E+00 -0.10000000000E+04  0.10000000000E+04  0.00000000000E+00 0.  1.
    9000005    2    1    2  501    0 -0.19649797922E-01 -0.10954892692E+00 -0.89550446829E+03  0.11044939436E+04  0.64651264973E+03 0.  0.
         13    1    3    3    0    0  0.76604054867E+02 -0.28221236454E+03 -0.68337488769E+03  0.74331234152E+03  0.00000000000E+00 0.  1.
          1    1    3    3  501    0 -0.76623704665E+02  0.28210281562E+03 -0.21212958059E+03  0.36118160205E+03  0.00000000000E+00 0.  1.
         21    1    1    2  502  501  0.19649797922E-01  0.10954892692E+00  0.38990641612E+01  0.39006523064E+01  0.00000000000E+00 0.  1.
<mgrwt>
<rscale>  1 0.64651266E+03</rscale>
<asrwt>0</asrwt>
<pdfrwt beam="1">  1        1 0.39416300E+00 0.64651266E+03</pdfrwt>
<pdfrwt beam="2">0</pdfrwt>
<totfact> 0.14212709E+00</totfact>
</mgrwt>
</event>
<event>
 6    1  0.4292888E-003  0.6494732E+03  0.7818608E-02  0.9807768E-01
          1   -1    0    0  502    0  0.00000000000E+00  0.00000000000E+00  0.10546622869E+03  0.10546622869E+03  0.00000000000E+00 0.  1.
         13   -1    0    0    0    0 -0.00000000000E+00 -0.00000000000E+00 -0.10000000000E+04  0.10000000000E+04  0.00000000000E+00 0.  1.
    9000005    2    1    2  501    0  0.81574722180E-02  0.13626159934E-01 -0.89454021201E+03  0.11054490910E+04  0.64947324943E+03 0.  0.
         13    1    3    3    0    0  0.27629637359E+03  0.16401448897E+03 -0.52743837920E+03  0.61760155643E+03  0.00000000000E+00 0.  1.
          1    1    3    3  501    0 -0.27628821612E+03 -0.16400086281E+03 -0.36710183280E+03  0.48784753460E+03  0.00000000000E+00 0.  1.
         21    1    1    2  502  501 -0.81574722180E-02 -0.13626159934E-01  0.64406912038E-02  0.17137651260E-01  0.00000000000E+00 0.  1.
<mgrwt>
<rscale>  1 0.64947325E+03</rscale>
<asrwt>0</asrwt>
<pdfrwt beam="1">  1        1 0.38351437E+00 0.64947325E+03</pdfrwt>
<pdfrwt beam="2">0</pdfrwt>
<totfact> 0.15835189E+00</totfact>
</mgrwt>
</event>
<event>
 6    1  0.4292888E-003  0.6519403E+03  0.7818608E-02  0.9803145E-01
          1   -1    0    0  502    0  0.00000000000E+00  0.00000000000E+00  0.10625700175E+03  0.10625700175E+03  0.00000000000E+00 0.  1.
         13   -1    0    0    0    0 -0.00000000000E+00 -0.00000000000E+00 -0.10000000000E+04  0.10000000000E+04  0.00000000000E+00 0.  1.
    9000005    2    1    2  501    0  0.40884474970E-04 -0.19975598974E-04 -0.89374345044E+03  0.11062565473E+04  0.65194032947E+03 0.  0.
         13    1    3    3    0    0  0.27371129586E+03  0.17497662974E+03 -0.40128117759E+03  0.51629572720E+03  0.00000000000E+00 0.  1.
          3    1    3    3  501    0 -0.27371125498E+03 -0.17497664972E+03 -0.49246227284E+03  0.58996082007E+03  0.00000000000E+00 0.  1.
         21    1    1    2  502  501 -0.40884474947E-04  0.19975598982E-04  0.45218703860E-03  0.45447077213E-03  0.00000000000E+00 0.  1.
<mgrwt>
<rscale>  1 0.65194033E+03</rscale>
<asrwt>0</asrwt>
<pdfrwt beam="1">  1        1 0.38638991E+00 0.65194033E+03</pdfrwt>
<pdfrwt beam="2">0</pdfrwt>
<totfact> 0.15371154E+00</totfact>
</mgrwt>
</event>
<event>
 6    1  0.4292888E-003  0.6444029E+03  0.7818608E-02  0.9817339E-01
          1   -1    0    0  502    0  0.00000000000E+00  0.00000000000E+00  0.10382854579E+03  0.10382854579E+03  0.00000000000E+00 0.  1.
         13   -1    0    0    0    0 -0.00000000000E+00 -0.00000000000E+00 -0.10000000000E+04  0.10000000000E+04  0.00000000000E+00 0.  1.
    9000005    2    1    2  501    0  0.99678466370E-04 -0.14353542944E-02 -0.89618619271E+03  0.11038137372E+04  0.64440288213E+03 0.  0.
         13    1    3    3    0    0 -0.29963058352E+03 -0.48529994678E+01 -0.24533231397E+03  0.38728540182E+03  0.00000000000E+00 0.  1.
          1    1    3    3  501    0  0.29963068319E+03  0.48515641135E+01 -0.65085387873E+03  0.71652833541E+03  0.00000000000E+00 0.  1.
         21    1    1    2  502  501 -0.99678466343E-04  0.14353542944E-02  0.14738492116E-01  0.14808555892E-01  0.00000000000E+00 0.  1.
<mgrwt>
<rscale>  1 0.64440288E+03</rscale>
<asrwt>0</asrwt>
<pdfrwt beam="1">  1        1 0.37755914E+00 0.64440288E+03</pdfrwt>
<pdfrwt beam="2">0</pdfrwt>
<totfact> 0.16838801E+00</totfact>
</mgrwt>
</event>
<event>
 6    1  0.4292888E-003  0.6480606E+03  0.7818608E-02  0.9810425E-01
          3   -1    0    0  502    0  0.00000000000E+00  0.00000000000E+00  0.10499572840E+03  0.10499572840E+03  0.00000000000E+00 0.  1.
         13   -1    0    0    0    0 -0.00000000000E+00 -0.00000000000E+00 -0.10000000000E+04  0.10000000000E+04  0.00000000000E+00 0.  1.
    9000005    2    1    2  501    0  0.89555803129E-05  0.56131819468E-05 -0.89500435395E+03  0.11049956454E+04  0.64806063197E+03 0.  0.
         13    1    3    3    0    0  0.26593156641E+03 -0.72155070636E+01 -0.13206693195E+03  0.29700729969E+03  0.00000000000E+00 0.  1.
          3    1    3    3  501    0 -0.26593155746E+03  0.72155126767E+01 -0.76293742200E+03  0.80798834569E+03  0.00000000000E+00 0.  1.
         21    1    1    2  502  501 -0.89555803007E-05 -0.56131819468E-05  0.82342917495E-04  0.83018469581E-04  0.00000000000E+00 0.  1.
<mgrwt>
<rscale>  1 0.64806063E+03</rscale>
<asrwt>0</asrwt>
<pdfrwt beam="1">  1        3 0.38180345E+00 0.64806063E+03</pdfrwt>
<pdfrwt beam="2">0</pdfrwt>
<totfact> 0.73865811E-02</totfact>
</mgrwt>
</event>
<event>
 6    1  0.4292888E-003  0.6492499E+03  0.7818608E-02  0.9808188E-01
          1   -1    0    0  502    0  0.00000000000E+00  0.00000000000E+00  0.10620777079E+03  0.10620777079E+03  0.00000000000E+00 0.  1.
         13   -1    0    0    0    0 -0.00000000000E+00 -0.00000000000E+00 -0.10000000000E+04  0.10000000000E+04  0.00000000000E+00 0.  1.
    9000005    2    1    2  501    0 -0.15450976718E+00  0.31974280927E+00 -0.89457625270E+03  0.11053470725E+04  0.64924983841E+03 0.  0.
         13    1    3    3    0    0  0.12684001350E+03  0.26271763414E+03 -0.69021300144E+03  0.74933499296E+03  0.00000000000E+00 0.  1.
          3    1    3    3  501    0 -0.12699452326E+03 -0.26239789133E+03 -0.20436325126E+03  0.35601207954E+03  0.00000000000E+00 0.  1.
         21    1    1    2  502  501  0.15450976718E+00 -0.31974280927E+00  0.78402348878E+00  0.86069829975E+00  0.00000000000E+00 0. -1.
<mgrwt>
<rscale>  1 0.64924994E+03</rscale>
<asrwt>0</asrwt>
<pdfrwt beam="1">  1        1 0.38621089E+00 0.64924994E+03</pdfrwt>
<pdfrwt beam="2">0</pdfrwt>
<totfact> 0.15406894E+00</totfact>
</mgrwt>
</event>
<event>
 6    1  0.4292888E-003  0.6529218E+03  0.7818608E-02  0.9801312E-01
          1   -1    0    0  502    0  0.00000000000E+00  0.00000000000E+00  0.10657673333E+03  0.10657673333E+03  0.00000000000E+00 0.  1.
         13   -1    0    0    0    0 -0.00000000000E+00 -0.00000000000E+00 -0.10000000000E+04  0.10000000000E+04  0.00000000000E+00 0.  1.
    9000005    2    1    2  501    0  0.25706037832E-06 -0.41873560690E-05 -0.89342327538E+03  0.11065767237E+04  0.65292181488E+03 0.  0.
         13    1    3    3    0    0 -0.31794926687E+03  0.71825852543E+02 -0.41610948248E+03  0.52858092172E+03  0.00000000000E+00 0.  1.
          3    1    3    3  501    0  0.31794926713E+03 -0.71825856730E+02 -0.47731379291E+03  0.57799580194E+03  0.00000000000E+00 0.  1.
         21    1    1    2  502  501 -0.25706041183E-06  0.41873560682E-05  0.87131402329E-05  0.96705141339E-05  0.00000000000E+00 0. -1.
<mgrwt>
<rscale>  1 0.65292181E+03</rscale>
<asrwt>0</asrwt>
<pdfrwt beam="1">  1        1 0.38755257E+00 0.65292181E+03</pdfrwt>
<pdfrwt beam="2">0</pdfrwt>
<totfact> 0.15187268E+00</totfact>
</mgrwt>
</event>
<event>
 6    1  0.4292888E-003  0.6343846E+03  0.7818608E-02  0.9836530E-01
          1   -1    0    0  502    0  0.00000000000E+00  0.00000000000E+00  0.10061150493E+03  0.10061150493E+03  0.00000000000E+00 0.  1.
         13   -1    0    0    0    0 -0.00000000000E+00 -0.00000000000E+00 -0.10000000000E+04  0.10000000000E+04  0.00000000000E+00 0.  1.
    9000005    2    1    2  501    0 -0.11217164791E-03  0.32378671960E-04 -0.89938902502E+03  0.11006109623E+04  0.63438464038E+03 0.  0.
         13    1    3    3    0    0  0.27382778075E+03  0.15457517539E+03 -0.37741223093E+03  0.49123836415E+03  0.00000000000E+00 0.  1.
          1    1    3    3  501    0 -0.27382789292E+03 -0.15457514302E+03 -0.52197679409E+03  0.60937259813E+03  0.00000000000E+00 0.  1.
         21    1    1    2  502  501  0.11217164796E-03 -0.32378671987E-04  0.52995142836E-03  0.54265953730E-03  0.00000000000E+00 0. -1.
<mgrwt>
<rscale>  1 0.63438464E+03</rscale>
<asrwt>0</asrwt>
<pdfrwt beam="1">  1        1 0.36586079E+00 0.63438464E+03</pdfrwt>
<pdfrwt beam="2">0</pdfrwt>
<totfact> 0.18989899E+00</totfact>
</mgrwt>
</event>
<event>
 6    1  0.4292888E-003  0.6291994E+03  0.7818608E-02  0.9846612E-01
          1   -1    0    0  502    0  0.00000000000E+00  0.00000000000E+00  0.99644376220E+02  0.99644376220E+02  0.00000000000E+00 0.  1.
         13   -1    0    0    0    0 -0.00000000000E+00 -0.00000000000E+00 -0.10000000000E+04  0.10000000000E+04  0.00000000000E+00 0.  1.
    9000005    2    1    2  501    0 -0.43461551194E+00  0.84679513627E+00 -0.90063576745E+03  0.10986521902E+04  0.62919865182E+03 0.  0.
         13    1    3    3    0    0  0.19392116598E+03  0.19278156916E+02 -0.19160915472E+02  0.19581676800E+03  0.00000000000E+00 0.  1.
          1    1    3    3  501    0 -0.19435578149E+03 -0.18431361780E+02 -0.88147485198E+03  0.90283542219E+03  0.00000000000E+00 0.  1.
         21    1    1    2  502  501  0.43461551194E+00 -0.84679513627E+00  0.28014366798E+00  0.99218603132E+00  0.00000000000E+00 0. -1.
<mgrwt>
<rscale>  1 0.62919937E+03</rscale>
<asrwt>0</asrwt>
<pdfrwt beam="1">  1        1 0.36234395E+00 0.62919937E+03</pdfrwt>
<pdfrwt beam="2">0</pdfrwt>
<totfact> 0.19694136E+00</totfact>
</mgrwt>
</event>
<event>
 6    1  0.4292888E-003  0.6313351E+03  0.7818608E-02  0.9842447E-01
          1   -1    0    0  502    0  0.00000000000E+00  0.00000000000E+00  0.99654084157E+02  0.99654084157E+02  0.00000000000E+00 0.  1.
         13   -1    0    0    0    0 -0.00000000000E+00 -0.00000000000E+00 -0.10000000000E+04  0.10000000000E+04  0.00000000000E+00 0.  1.
    9000005    2    1    2  501    0  0.48148947889E-03  0.51361959177E-03 -0.90035399311E+03  0.10996459763E+04  0.63133506177E+03 0.  0.
         13    1    3    3    0    0  0.21310815880E+03  0.25354085490E+02 -0.85338375291E+03  0.87995553679E+03  0.00000000000E+00 0.  1.
          1    1    3    3  501    0 -0.21310767731E+03 -0.25353571870E+02 -0.46970240198E+02  0.21969043948E+03  0.00000000000E+00 0.  1.
         21    1    1    2  502  501 -0.48148947890E-03 -0.51361959178E-03  0.80772649771E-02  0.81078879317E-02  0.00000000000E+00 0. -1.
<mgrwt>
<rscale>  1 0.63133506E+03</rscale>
<asrwt>0</asrwt>
<pdfrwt beam="1">  1        1 0.36237925E+00 0.63133506E+03</pdfrwt>
<pdfrwt beam="2">0</pdfrwt>
<totfact> 0.19679516E+00</totfact>
</mgrwt>
</event>
<event>
 6    1  0.4292888E-003  0.6298290E+03  0.7818608E-02  0.9845383E-01
          1   -1    0    0  502    0  0.00000000000E+00  0.00000000000E+00  0.99171553509E+02  0.99171553509E+02  0.00000000000E+00 0.  1.
         13   -1    0    0    0    0 -0.00000000000E+00 -0.00000000000E+00 -0.10000000000E+04  0.10000000000E+04  0.00000000000E+00 0.  1.
    9000005    2    1    2  501    0 -0.35486698522E-03 -0.17557636902E-03 -0.90082876981E+03  0.10991710423E+04  0.62982895124E+03 0.  0.
         13    1    3    3    0    0  0.30192179172E+03 -0.78181432131E+02 -0.37430451016E+03  0.48720937077E+03  0.00000000000E+00 0.  1.
          3    1    3    3  501    0 -0.30192214658E+03  0.78181256555E+02 -0.52652425965E+03  0.61196167157E+03  0.00000000000E+00 0.  1.
         21    1    1    2  502  501  0.35486698521E-03  0.17557636901E-03  0.32331551918E-03  0.51116588647E-03  0.00000000000E+00 0. -1.
<mgrwt>
<rscale>  1 0.62982895E+03</rscale>
<asrwt>0</asrwt>
<pdfrwt beam="1">  1        1 0.36062459E+00 0.62982895E+03</pdfrwt>
<pdfrwt beam="2">0</pdfrwt>
<totfact> 0.20036006E+00</totfact>
</mgrwt>
</event>
<event>
 6    1  0.4292888E-003  0.6528955E+03  0.7818608E-02  0.9801361E-01
          1   -1    0    0  502    0  0.00000000000E+00  0.00000000000E+00  0.10674716830E+03  0.10674716830E+03  0.00000000000E+00 0.  1.
         13   -1    0    0    0    0 -0.00000000000E+00 -0.00000000000E+00 -0.10000000000E+04  0.10000000000E+04  0.00000000000E+00 0.  1.
    9000005    2    1    2  501    0 -0.40633527802E-01 -0.61055881494E-02 -0.89342923987E+03  0.11065660379E+04  0.65289554141E+03 0.  0.
         13    1    3    3    0    0 -0.25444543690E+03  0.20028030221E+03 -0.51707718551E+03  0.61010121749E+03  0.00000000000E+00 0.  1.
          1    1    3    3  501    0  0.25440480337E+03 -0.20028640780E+03 -0.37635205436E+03  0.49646482045E+03  0.00000000000E+00 0.  1.
         21    1    1    2  502  501  0.40633527802E-01  0.61055881493E-02  0.17640817501E+00  0.18113035637E+00  0.00000000000E+00 0.  1.
<mgrwt>
<rscale>  1 0.65289554E+03</rscale>
<asrwt>0</asrwt>
<pdfrwt beam="1">  1        1 0.38817234E+00 0.65289554E+03</pdfrwt>
<pdfrwt beam="2">0</pdfrwt>
<totfact> 0.15091637E+00</totfact>
</mgrwt>
</event>
<event>
 6    1  0.4292888E-003  0.6276860E+03  0.7818608E-02  0.9849575E-01
          1   -1    0    0  502    0  0.00000000000E+00  0.00000000000E+00  0.98855397825E+02  0.98855397825E+02  0.00000000000E+00 0.  1.
         13   -1    0    0    0    0 -0.00000000000E+00 -0.00000000000E+00 -0.10000000000E+04  0.10000000000E+04  0.00000000000E+00 0.  1.
    9000005    2    1    2  501    0  0.22514029436E-01  0.88822182759E-01 -0.90149611356E+03  0.10984921396E+04  0.62768601201E+03 0.  0.
         13    1    3    3    0    0  0.38775082669E+02  0.21243587324E+03 -0.52159518627E+02  0.22215562712E+03  0.00000000000E+00 0.  1.
          3    1    3    3  501    0 -0.38752568640E+02 -0.21234705106E+03 -0.84933659493E+03  0.87633651251E+03  0.00000000000E+00 0.  1.
         21    1    1    2  502  501 -0.22514029436E-01 -0.88822182759E-01  0.35151138637E+00  0.36325819525E+00  0.00000000000E+00 0. -1.
<mgrwt>
<rscale>  1 0.62768602E+03</rscale>
<asrwt>0</asrwt>
<pdfrwt beam="1">  1        1 0.35947493E+00 0.62768602E+03</pdfrwt>
<pdfrwt beam="2">0</pdfrwt>
<totfact> 0.20277163E+00</totfact>
</mgrwt>
</event>
<event>
 6    1  0.4292888E-003  0.6344133E+03  0.7818608E-02  0.9836474E-01
          1   -1    0    0  502    0  0.00000000000E+00  0.00000000000E+00  0.10064328816E+03  0.10064328816E+03  0.00000000000E+00 0.  1.
         13   -1    0    0    0    0 -0.00000000000E+00 -0.00000000000E+00 -0.10000000000E+04  0.10000000000E+04  0.00000000000E+00 0.  1.
    9000005    2    1    2  501    0 -0.22990007278E-01  0.41751603347E-02 -0.89937331693E+03  0.11006146228E+04  0.63441325980E+03 0.  0.
         13    1    3    3    0    0  0.76806859772E+02  0.20070466068E+03 -0.44911181930E+02  0.21954195223E+03  0.00000000000E+00 0.  1.
          1    1    3    3  501    0 -0.76829849779E+02 -0.20070048552E+03 -0.85446213500E+03  0.88107267059E+03  0.00000000000E+00 0.  1.
         21    1    1    2  502  501  0.22990007278E-01 -0.41751603347E-02  0.16605093782E-01  0.28665336872E-01  0.00000000000E+00 0. -1.
<mgrwt>
<rscale>  1 0.63441326E+03</rscale>
<asrwt>0</asrwt>
<pdfrwt beam="1">  1        1 0.36597637E+00 0.63441326E+03</pdfrwt>
<pdfrwt beam="2">0</pdfrwt>
<totfact> 0.18967658E+00</totfact>
</mgrwt>
</event>
<event>
 6    1  0.4292888E-003  0.6496846E+03  0.7818608E-02  0.9807371E-01
          1   -1    0    0  502    0  0.00000000000E+00  0.00000000000E+00  0.10565495281E+03  0.10565495281E+03  0.00000000000E+00 0.  1.
         13   -1    0    0    0    0 -0.00000000000E+00 -0.00000000000E+00 -0.10000000000E+04  0.10000000000E+04  0.00000000000E+00 0.  1.
    9000005    2    1    2  501    0  0.40219894494E+00  0.10737541699E-02 -0.89389672632E+03  0.11050526599E+04  0.64968443268E+03 0.  0.
         13    1    3    3    0    0  0.13752182939E+03 -0.23931330600E+03 -0.15544798396E+03  0.31677624232E+03  0.00000000000E+00 0.  1.
          1    1    3    3  501    0 -0.13711963044E+03  0.23931437975E+03 -0.73844874236E+03  0.78827641757E+03  0.00000000000E+00 0.  1.
         21    1    1    2  502  501 -0.40219894494E+00 -0.10737541699E-02 -0.44832087453E+00  0.60229291113E+00  0.00000000000E+00 0. -1.
<mgrwt>
<rscale>  1 0.64968456E+03</rscale>
<asrwt>0</asrwt>
<pdfrwt beam="1">  1        1 0.38420064E+00 0.64968456E+03</pdfrwt>
<pdfrwt beam="2">0</pdfrwt>
<totfact> 0.15724344E+00</totfact>
</mgrwt>
</event>
<event>
 6    1  0.4292888E-003  0.6505730E+03  0.7818608E-02  0.9805705E-01
          3   -1    0    0  502    0  0.00000000000E+00  0.00000000000E+00  0.10683884711E+03  0.10683884711E+03  0.00000000000E+00 0.  1.
         13   -1    0    0    0    0 -0.00000000000E+00 -0.00000000000E+00 -0.10000000000E+04  0.10000000000E+04  0.00000000000E+00 0.  1.
    9000005    2    1    2  501    0 -0.72067832171E+00 -0.88160186483E+00 -0.89382771154E+03  0.11055194156E+04  0.65057198198E+03 0.  0.
         13    1    3    3    0    0  0.29124087278E+00  0.68665959353E+01  0.10571899915E+03  0.10594216225E+03  0.00000000000E+00 0.  1.
          3    1    3    3  501    0 -0.10119191945E+01 -0.77481978001E+01 -0.99954671069E+03  0.99957725335E+03  0.00000000000E+00 0.  1.
         21    1    1    2  502  501  0.72067832171E+00  0.88160186483E+00  0.66655865661E+00  0.13194315193E+01  0.00000000000E+00 0. -1.
<mgrwt>
<rscale>  1 0.65057298E+03</rscale>
<asrwt>0</asrwt>
<pdfrwt beam="1">  1        3 0.38850572E+00 0.65057298E+03</pdfrwt>
<pdfrwt beam="2">0</pdfrwt>
<totfact> 0.68065947E-02</totfact>
</mgrwt>
</event>
<event>
 6    1  0.4292888E-003  0.6467335E+03  0.7818608E-02  0.9812928E-01
          3   -1    0    0  502    0  0.00000000000E+00  0.00000000000E+00  0.10506935828E+03  0.10506935828E+03  0.00000000000E+00 0.  1.
         13   -1    0    0    0    0 -0.00000000000E+00 -0.00000000000E+00 -0.10000000000E+04  0.10000000000E+04  0.00000000000E+00 0.  1.
    9000005    2    1    2  501    0  0.97944283618E-02  0.11983195229E-01 -0.89543380770E+03  0.11045659543E+04  0.64673351798E+03 0.  0.
         13    1    3    3    0    0 -0.68439407420E+02  0.30294522900E+03 -0.29392307555E+03  0.42761026485E+03  0.00000000000E+00 0.  1.
          3    1    3    3  501    0  0.68449201848E+02 -0.30293324581E+03 -0.60151073214E+03  0.67695568949E+03  0.00000000000E+00 0.  1.
         21    1    1    2  502  501 -0.97944283618E-02 -0.11983195229E-01  0.50316597462E+00  0.50340393900E+00  0.00000000000E+00 0.  1.
<mgrwt>
<rscale>  1 0.64673352E+03</rscale>
<asrwt>0</asrwt>
<pdfrwt beam="1">  1        3 0.38207120E+00 0.64673352E+03</pdfrwt>
<pdfrwt beam="2">0</pdfrwt>
<totfact> 0.73642038E-02</totfact>
</mgrwt>
</event>
<event>
 6    1  0.4292888E-003  0.6568890E+03  0.7818608E-02  0.9793938E-01
          1   -1    0    0  502    0  0.00000000000E+00  0.00000000000E+00  0.10788634475E+03  0.10788634475E+03  0.00000000000E+00 0.  1.
         13   -1    0    0    0    0 -0.00000000000E+00 -0.00000000000E+00 -0.10000000000E+04  0.10000000000E+04  0.00000000000E+00 0.  1.
    9000005    2    1    2  501    0  0.13992189127E-01 -0.82857399114E-02 -0.89211676707E+03  0.11078697882E+04  0.65688898706E+03 0.  0.
         13    1    3    3    0    0  0.29916736450E+03  0.12415149691E+03 -0.35424155534E+03  0.48000186009E+03  0.00000000000E+00 0.  1.
          1    1    3    3  501    0 -0.29915337231E+03 -0.12415978265E+03 -0.53787521173E+03  0.62786792814E+03  0.00000000000E+00 0.  1.
         21    1    1    2  502  501 -0.13992189127E-01  0.82857399114E-02  0.31118213725E-02  0.16556517590E-01  0.00000000000E+00 0. -1.
<mgrwt>
<rscale>  1 0.65688899E+03</rscale>
<asrwt>0</asrwt>
<pdfrwt beam="1">  1        1 0.39231481E+00 0.65688899E+03</pdfrwt>
<pdfrwt beam="2">0</pdfrwt>
<totfact> 0.14455774E+00</totfact>
</mgrwt>
</event>
