<event>
 6    1  0.3619848E-003  0.6469513E+03  0.7818608E-02  0.9812517E-01
          3   -1    0    0  502    0  0.00000000000E+00  0.00000000000E+00  0.10463648331E+03  0.10463648331E+03  0.00000000000E+00 0.  1.
         13   -1    0    0    0    0 -0.00000000000E+00 -0.00000000000E+00 -0.10000000000E+04  0.10000000000E+04  0.00000000000E+00 0.  1.
    9000005    2    1    2  501    0 -0.18704836862E-05  0.10755052244E-05 -0.89536351902E+03  0.11046364801E+04  0.64695125168E+03 0.  0.
         13    1    3    3    0    0 -0.23715631334E+03  0.14703990929E+03 -0.72706048890E+03  0.77876877596E+03  0.00000000000E+00 0.  1.
          3    1    3    3  501    0  0.23715631147E+03 -0.14703990822E+03 -0.16830303011E+03  0.32586770418E+03  0.00000000000E+00 0.  1.
         21    1    1    2  502  501  0.18704837130E-05 -0.10755052099E-05  0.23316014233E-05  0.31767571475E-05  0.00000000000E+00 0.  1.
<mgrwt>
<rscale>  1 0.64695125E+03</rscale>
<asrwt>0</asrwt>
<pdfrwt beam="1">  1        3 0.38049711E+00 0.64695125E+03</pdfrwt>
<pdfrwt beam="2">0</pdfrwt>
<totfact> 0.75062079E-02</totfact>
</mgrwt>
</event>
<event>
 6    1  0.3619848E-003  0.6481263E+03  0.7818608E-02  0.9810301E-01
          1   -1    0    0  502    0  0.00000000000E+00  0.00000000000E+00  0.10519764301E+03  0.10519764301E+03  0.00000000000E+00 0.  1.
         13   -1    0    0    0    0 -0.00000000000E+00 -0.00000000000E+00 -0.10000000000E+04  0.10000000000E+04  0.00000000000E+00 0.  1.
    9000005    2    1    2  501    0  0.69925130720E-01  0.72396730113E-01 -0.89496747432E+03  0.11050042663E+04  0.64812625189E+03 0.  0.
         13    1    3    3    0    0  0.26672936156E+03 -0.78812190159E+00 -0.13365882069E+03  0.29834519235E+03  0.00000000000E+00 0.  1.
          1    1    3    3  501    0 -0.26665943643E+03  0.86051863171E+00 -0.76130865363E+03  0.80665907397E+03  0.00000000000E+00 0.  1.
         21    1    1    2  502  501 -0.69925130720E-01 -0.72396730113E-01  0.16511732225E+00  0.19337668046E+00  0.00000000000E+00 0. -1.
<mgrwt>
<rscale>  1 0.64812626E+03</rscale>
<asrwt>0</asrwt>
<pdfrwt beam="1">  1        1 0.38253769E+00 0.64812626E+03</pdfrwt>
<pdfrwt beam="2">0</pdfrwt>
<totfact> 0.15997306E+00</totfact>
</mgrwt>
</event>
<event>
 6    1  0.3619848E-003  0.6560775E+03  0.7818608E-02  0.9795442E-01
          1   -1    0    0  502    0  0.00000000000E+00  0.00000000000E+00  0.10760942815E+03  0.10760942815E+03  0.00000000000E+00 0.  1.
         13   -1    0    0    0    0 -0.00000000000E+00 -0.00000000000E+00 -0.10000000000E+04  0.10000000000E+04  0.00000000000E+00 0.  1.
    9000005    2    1    2  501    0 -0.23621603304E-05 -0.16443260122E-05 -0.89239057615E+03  0.11076094230E+04  0.65607750569E+03 0.  0.
         13    1    3    3    0    0 -0.27159995834E+03 -0.50968656844E+02 -0.14777913232E+03  0.31337360020E+03  0.00000000000E+00 0.  1.
          1    1    3    3  501    0  0.27159995598E+03  0.50968655199E+02 -0.74461144383E+03  0.79423582278E+03  0.00000000000E+00 0.  1.
         21    1    1    2  502  501  0.23621602836E-05  0.16443260082E-05  0.42969511921E-05  0.51717887403E-05  0.00000000000E+00 0. -1.
<mgrwt>
<rscale>  1 0.65607751E+03</rscale>
<asrwt>0</asrwt>
<pdfrwt beam="1">  1        1 0.39130784E+00 0.65607751E+03</pdfrwt>
<pdfrwt beam="2">0</pdfrwt>
<totfact> 0.14607532E+00</totfact>
</mgrwt>
</event>
<event>
 6    1  0.3619848E-003  0.6445722E+03  0.7818608E-02  0.9817018E-01
          1   -1    0    0  502    0  0.00000000000E+00  0.00000000000E+00  0.10389863690E+03  0.10389863690E+03  0.00000000000E+00 0.  1.
         13   -1    0    0    0    0 -0.00000000000E+00 -0.00000000000E+00 -0.10000000000E+04  0.10000000000E+04  0.00000000000E+00 0.  1.
    9000005    2    1    2  501    0  0.23908438055E-01 -0.35599247441E-01 -0.89611393238E+03  0.11038539501E+04  0.64457223147E+03 0.  0.
         13    1    3    3    0    0 -0.11943797173E+03  0.12055128124E+03  0.21153502521E+02  0.17101319004E+03  0.00000000000E+00 0.  1.
          1    1    3    3  501    0  0.11946188017E+03 -0.12058688049E+03 -0.91726743490E+03  0.93284076010E+03  0.00000000000E+00 0.  1.
         21    1    1    2  502  501 -0.23908438055E-01  0.35599247441E-01  0.12569284010E-01  0.44686762348E-01  0.00000000000E+00 0.  1.
<mgrwt>
<rscale>  1 0.64457223E+03</rscale>
<asrwt>0</asrwt>
<pdfrwt beam="1">  1        1 0.37781402E+00 0.64457223E+03</pdfrwt>
<pdfrwt beam="2">0</pdfrwt>
<totfact> 0.16794781E+00</totfact>
</mgrwt>
</event>
<event>
 6    1  0.3619848E-003  0.6517540E+03  0.7818608E-02  0.9803494E-01
          1   -1    0    0  502    0  0.00000000000E+00  0.00000000000E+00  0.10619584955E+03  0.10619584955E+03  0.00000000000E+00 0.  1.
         13   -1    0    0    0    0 -0.00000000000E+00 -0.00000000000E+00 -0.10000000000E+04  0.10000000000E+04  0.00000000000E+00 0.  1.
    9000005    2    1    2  501    0 -0.32489442474E-05  0.21716527669E-05 -0.89380418691E+03  0.11061958129E+04  0.65175398111E+03 0.  0.
         13    1    3    3    0    0 -0.38290510371E+00  0.46764509653E+02  0.10047075340E+03  0.11082165072E+03  0.00000000000E+00 0.  1.
          1    1    3    3  501    0  0.38290185477E+00 -0.46764507481E+02 -0.99427494031E+03  0.99537416216E+03  0.00000000000E+00 0.  1.
         21    1    1    2  502  501  0.32489442474E-05 -0.21716527730E-05  0.36464035349E-04  0.36672845383E-04  0.00000000000E+00 0. -1.
<mgrwt>
<rscale>  1 0.65175398E+03</rscale>
<asrwt>0</asrwt>
<pdfrwt beam="1">  1        1 0.38616754E+00 0.65175398E+03</pdfrwt>
<pdfrwt beam="2">0</pdfrwt>
<totfact> 0.15406560E+00</totfact>
</mgrwt>
</event>
<event>
 6    1  0.3619848E-003  0.6486492E+03  0.7818608E-02  0.9809317E-01
          1   -1    0    0  502    0  0.00000000000E+00  0.00000000000E+00  0.11065017320E+03  0.11065017320E+03  0.00000000000E+00 0.  1.
         13   -1    0    0    0    0 -0.00000000000E+00 -0.00000000000E+00 -0.10000000000E+04  0.10000000000E+04  0.00000000000E+00 0.  1.
    9000005    2    1    2  501    0  0.12594527118E+01 -0.19907495820E+01 -0.89453152396E+03  0.11049581357E+04  0.64864496071E+03 0.  0.
         13    1    3    3    0    0  0.25090719789E+02 -0.63668661476E+02  0.92861401628E+02  0.11535372810E+03  0.00000000000E+00 0.  1.
          1    1    3    3  501    0 -0.23831267078E+02  0.61677911894E+02 -0.98739292559E+03  0.98960440764E+03  0.00000000000E+00 0.  1.
         21    1    1    2  502  501 -0.12594527118E+01  0.19907495820E+01  0.51816971579E+01  0.56920374619E+01  0.00000000000E+00 0. -1.
<mgrwt>
<rscale>  1 0.64864924E+03</rscale>
<asrwt>0</asrwt>
<pdfrwt beam="1">  1        1 0.40236511E+00 0.64864924E+03</pdfrwt>
<pdfrwt beam="2">0</pdfrwt>
<totfact> 0.13061058E+00</totfact>
</mgrwt>
</event>
<event>
 6    1  0.3619848E-003  0.6421905E+03  0.7818608E-02  0.9821544E-01
          1   -1    0    0  502    0  0.00000000000E+00  0.00000000000E+00  0.10444000847E+03  0.10444000847E+03  0.00000000000E+00 0.  1.
         13   -1    0    0    0    0 -0.00000000000E+00 -0.00000000000E+00 -0.10000000000E+04  0.10000000000E+04  0.00000000000E+00 0.  1.
    9000005    2    1    2  501    0  0.37064360727E-02 -0.22979885464E-01 -0.89689772348E+03  0.11031020740E+04  0.64219051596E+03 0.  0.
         13    1    3    3    0    0 -0.75206355550E+02 -0.19790148377E+03 -0.33760227690E+02  0.21438457540E+03  0.00000000000E+00 0.  1.
          3    1    3    3  501    0  0.75210061986E+02  0.19787850389E+03 -0.86313749579E+03  0.88871749863E+03  0.00000000000E+00 0.  1.
         21    1    1    2  502  501 -0.37064360727E-02  0.22979885464E-01  0.13377319478E+01  0.13379344442E+01  0.00000000000E+00 0. -1.
<mgrwt>
<rscale>  1 0.64219052E+03</rscale>
<asrwt>0</asrwt>
<pdfrwt beam="1">  1        1 0.37978265E+00 0.64219052E+03</pdfrwt>
<pdfrwt beam="2">0</pdfrwt>
<totfact> 0.16469650E+00</totfact>
</mgrwt>
</event>
<event>
 6    1  0.3619848E-003  0.6527232E+03  0.7818608E-02  0.9801683E-01
          1   -1    0    0  502    0  0.00000000000E+00  0.00000000000E+00  0.10651212221E+03  0.10651212221E+03  0.00000000000E+00 0.  1.
         13   -1    0    0    0    0 -0.00000000000E+00 -0.00000000000E+00 -0.10000000000E+04  0.10000000000E+04  0.00000000000E+00 0.  1.
    9000005    2    1    2  501    0 -0.87615291022E-06  0.42832166596E-03 -0.89348786019E+03  0.11065116935E+04  0.65272319677E+03 0.  0.
         13    1    3    3    0    0  0.28441610123E+03  0.15646438285E+03 -0.38954847749E+03  0.50707163010E+03  0.00000000000E+00 0.  1.
          1    1    3    3  501    0 -0.28441610210E+03 -0.15646395453E+03 -0.50393938270E+03  0.59944006343E+03  0.00000000000E+00 0.  1.
         21    1    1    2  502  501  0.87615291703E-06 -0.42832166597E-03 -0.17599833317E-04  0.42868399937E-03  0.00000000000E+00 0. -1.
<mgrwt>
<rscale>  1 0.65272320E+03</rscale>
<asrwt>0</asrwt>
<pdfrwt beam="1">  1        1 0.38731762E+00 0.65272320E+03</pdfrwt>
<pdfrwt beam="2">0</pdfrwt>
<totfact> 0.15224259E+00</totfact>
</mgrwt>
</event>
<event>
 6    1  0.3619848E-003  0.6482357E+03  0.7818608E-02  0.9810095E-01
          1   -1    0    0  502    0  0.00000000000E+00  0.00000000000E+00  0.10505748089E+03  0.10505748089E+03  0.00000000000E+00 0.  1.
         13   -1    0    0    0    0 -0.00000000000E+00 -0.00000000000E+00 -0.10000000000E+04  0.10000000000E+04  0.00000000000E+00 0.  1.
    9000005    2    1    2  501    0 -0.30155881998E-02  0.21159460687E-02 -0.89494687676E+03  0.11050517747E+04  0.64823569218E+03 0.  0.
         13    1    3    3    0    0 -0.31078180230E+03 -0.91865489827E+02 -0.45657951054E+03  0.55990128265E+03  0.00000000000E+00 0.  1.
          1    1    3    3  501    0  0.31077878671E+03  0.91867605773E+02 -0.43836736622E+03  0.54515049209E+03  0.00000000000E+00 0.  1.
         21    1    1    2  502  501  0.30155881998E-02 -0.21159460687E-02  0.43576539322E-02  0.57061499936E-02  0.00000000000E+00 0.  1.
<mgrwt>
<rscale>  1 0.64823569E+03</rscale>
<asrwt>0</asrwt>
<pdfrwt beam="1">  1        1 0.38202801E+00 0.64823569E+03</pdfrwt>
<pdfrwt beam="2">0</pdfrwt>
<totfact> 0.16080126E+00</totfact>
</mgrwt>
</event>
<event>
 6    1  0.3619848E-003  0.6341056E+03  0.7818608E-02  0.9837070E-01
          1   -1    0    0  502    0  0.00000000000E+00  0.00000000000E+00  0.10052304292E+03  0.10052304292E+03  0.00000000000E+00 0.  1.
         13   -1    0    0    0    0 -0.00000000000E+00 -0.00000000000E+00 -0.10000000000E+04  0.10000000000E+04  0.00000000000E+00 0.  1.
    9000005    2    1    2  501    0 -0.68134682729E-03 -0.33482151854E-03 -0.89947723759E+03  0.11005222336E+04  0.63410557929E+03 0.  0.
         13    1    3    3    0    0  0.23075166592E+03  0.92533296671E+02 -0.79122088806E+03  0.82936073938E+03  0.00000000000E+00 0.  1.
          3    1    3    3  501    0 -0.23075234727E+03 -0.92533631492E+02 -0.10825634952E+03  0.27116149421E+03  0.00000000000E+00 0.  1.
         21    1    1    2  502  501  0.68134682729E-03  0.33482151854E-03  0.28050971133E-03  0.80933592932E-03  0.00000000000E+00 0. -1.
<mgrwt>
<rscale>  1 0.63410558E+03</rscale>
<asrwt>0</asrwt>
<pdfrwt beam="1">  1        1 0.36553911E+00 0.63410558E+03</pdfrwt>
<pdfrwt beam="2">0</pdfrwt>
<totfact> 0.19052624E+00</totfact>
</mgrwt>
</event>
<event>
 6    1  0.3619848E-003  0.6585021E+03  0.7818608E-02  0.9790955E-01
          1   -1    0    0  502    0  0.00000000000E+00  0.00000000000E+00  0.10844839720E+03  0.10844839720E+03  0.00000000000E+00 0.  1.
         13   -1    0    0    0    0 -0.00000000000E+00 -0.00000000000E+00 -0.10000000000E+04  0.10000000000E+04  0.00000000000E+00 0.  1.
    9000005    2    1    2  501    0 -0.14582847332E-02 -0.12246667189E-01 -0.89159274496E+03  0.11084054462E+04  0.65850209585E+03 0.  0.
         13    1    3    3    0    0 -0.57800037823E+02 -0.31640704572E+03 -0.56430084195E+03  0.64953037126E+03  0.00000000000E+00 0.  1.
          3    1    3    3  501    0  0.57798579538E+02  0.31639479906E+03 -0.32729190301E+03  0.45887507498E+03  0.00000000000E+00 0.  1.
         21    1    1    2  502  501  0.14582847332E-02  0.12246667189E-01  0.41142166463E-01  0.42950964051E-01  0.00000000000E+00 0.  1.
<mgrwt>
<rscale>  1 0.65850210E+03</rscale>
<asrwt>0</asrwt>
<pdfrwt beam="1">  1        1 0.39435864E+00 0.65850210E+03</pdfrwt>
<pdfrwt beam="2">0</pdfrwt>
<totfact> 0.14152423E+00</totfact>
</mgrwt>
</event>
<event>
 6    1  0.3619848E-003  0.6477177E+03  0.7818608E-02  0.9811071E-01
          1   -1    0    0  502    0  0.00000000000E+00  0.00000000000E+00  0.10488556219E+03  0.10488556219E+03  0.00000000000E+00 0.  1.
         13   -1    0    0    0    0 -0.00000000000E+00 -0.00000000000E+00 -0.10000000000E+04  0.10000000000E+04  0.00000000000E+00 0.  1.
    9000005    2    1    2  501    0 -0.66263995595E-03  0.17625268406E-02 -0.89511438576E+03  0.11048836785E+04  0.64771766951E+03 0.  0.
         13    1    3    3    0    0 -0.70475194958E+02  0.20906436175E+03 -0.85198379508E+03  0.88008581829E+03  0.00000000000E+00 0.  1.
          1    1    3    3  501    0  0.70474532318E+02 -0.20906259923E+03 -0.43130590679E+02  0.22479786021E+03  0.00000000000E+00 0.  1.
         21    1    1    2  502  501  0.66263995594E-03 -0.17625268406E-02 -0.52050279046E-04  0.18836936605E-02  0.00000000000E+00 0. -1.
<mgrwt>
<rscale>  1 0.64771767E+03</rscale>
<asrwt>0</asrwt>
<pdfrwt beam="1">  1        1 0.38140285E+00 0.64771767E+03</pdfrwt>
<pdfrwt beam="2">0</pdfrwt>
<totfact> 0.16184212E+00</totfact>
</mgrwt>
</event>
<event>
 6    1  0.3619848E-003  0.6341368E+03  0.7818608E-02  0.9837009E-01
          1   -1    0    0  502    0  0.00000000000E+00  0.00000000000E+00  0.10053449083E+03  0.10053449083E+03  0.00000000000E+00 0.  1.
         13   -1    0    0    0    0 -0.00000000000E+00 -0.00000000000E+00 -0.10000000000E+04  0.10000000000E+04  0.00000000000E+00 0.  1.
    9000005    2    1    2  501    0  0.45737561915E-03 -0.79555850490E-03 -0.89946751602E+03  0.11005322841E+04  0.63413681174E+03 0.  0.
         13    1    3    3    0    0  0.12786834039E+03  0.24358657639E+03 -0.72329889116E+03  0.77385141896E+03  0.00000000000E+00 0.  1.
          1    1    3    3  501    0 -0.12786788301E+03 -0.24358737194E+03 -0.17616862486E+03  0.32668086516E+03  0.00000000000E+00 0.  1.
         21    1    1    2  502  501 -0.45737561916E-03  0.79555850492E-03  0.20068510063E-02  0.22067072197E-02  0.00000000000E+00 0. -1.
<mgrwt>
<rscale>  1 0.63413681E+03</rscale>
<asrwt>0</asrwt>
<pdfrwt beam="1">  1        1 0.36558074E+00 0.63413681E+03</pdfrwt>
<pdfrwt beam="2">0</pdfrwt>
<totfact> 0.19044512E+00</totfact>
</mgrwt>
</event>
<event>
 6    1  0.3619848E-003  0.6598284E+03  0.7818608E-02  0.9788510E-01
          1   -1    0    0  502    0  0.00000000000E+00  0.00000000000E+00  0.14227671290E+03  0.14227671290E+03  0.00000000000E+00 0.  1.
         13   -1    0    0    0    0 -0.00000000000E+00 -0.00000000000E+00 -0.10000000000E+04  0.10000000000E+04  0.00000000000E+00 0.  1.
    9000005    2    1    2  501    0  0.24004688091E+00  0.62264284891E+00 -0.89115291993E+03  0.11088404204E+04  0.65982808811E+03 0.  0.
         13    1    3    3    0    0 -0.27063452480E+03 -0.70294985412E+02 -0.15162646578E+03  0.31808020390E+03  0.00000000000E+00 0.  1.
          3    1    3    3  501    0  0.27087457168E+03  0.70917628261E+02 -0.73952645415E+03  0.79076021648E+03  0.00000000000E+00 0.  1.
         21    1    1    2  502  501 -0.24004688091E+00 -0.62264284891E+00  0.33429632825E+02  0.33436292519E+02  0.00000000000E+00 0.  1.
<mgrwt>
<rscale>  1 0.65982843E+03</rscale>
<asrwt>0</asrwt>
<pdfrwt beam="1">  1        1 0.51737096E+00 0.65982843E+03</pdfrwt>
<pdfrwt beam="2">0</pdfrwt>
<totfact> 0.37994505E-01</totfact>
</mgrwt>
</event>
<event>
 6    1  0.3619848E-003  0.6445188E+03  0.7818608E-02  0.9817119E-01
          1   -1    0    0  502    0  0.00000000000E+00  0.00000000000E+00  0.10385127872E+03  0.10385127872E+03  0.00000000000E+00 0.  1.
         13   -1    0    0    0    0 -0.00000000000E+00 -0.00000000000E+00 -0.10000000000E+04  0.10000000000E+04  0.00000000000E+00 0.  1.
    9000005    2    1    2  501    0  0.12468215346E-04  0.35834699588E-04 -0.89614889191E+03  0.11038511039E+04  0.64451875314E+03 0.  0.
         13    1    3    3    0    0 -0.26168671985E+03  0.18221251332E+03 -0.36829670771E+03  0.48715891069E+03  0.00000000000E+00 0.  1.
          3    1    3    3  501    0  0.26168673232E+03 -0.18221247748E+03 -0.52785218421E+03  0.61669219323E+03  0.00000000000E+00 0.  1.
         21    1    1    2  502  501 -0.12468215355E-04 -0.35834699587E-04  0.17063339891E-03  0.17480085501E-03  0.00000000000E+00 0.  1.
<mgrwt>
<rscale>  1 0.64451875E+03</rscale>
<asrwt>0</asrwt>
<pdfrwt beam="1">  1        1 0.37764181E+00 0.64451875E+03</pdfrwt>
<pdfrwt beam="2">0</pdfrwt>
<totfact> 0.16824323E+00</totfact>
</mgrwt>
</event>
<event>
 6    1  0.3619848E-003  0.6633642E+03  0.7818608E-02  0.9782020E-01
          1   -1    0    0  502    0  0.00000000000E+00  0.00000000000E+00  0.11003523371E+03  0.11003523371E+03  0.00000000000E+00 0.  1.
         13   -1    0    0    0    0 -0.00000000000E+00 -0.00000000000E+00 -0.10000000000E+04  0.10000000000E+04  0.00000000000E+00 0.  1.
    9000005    2    1    2  501    0 -0.10608473132E-01  0.93041627017E-03 -0.88998554694E+03  0.11100118833E+04  0.66336423422E+03 0.  0.
         13    1    3    3    0    0 -0.14415450247E+03 -0.14013683284E+03 -0.88643021576E+03  0.90894300147E+03  0.00000000000E+00 0.  1.
          3    1    3    3  501    0  0.14414389400E+03  0.14013776326E+03 -0.35553311764E+01  0.20106888185E+03  0.00000000000E+00 0.  1.
         21    1    1    2  502  501  0.10608473132E-01 -0.93041627017E-03  0.20780653664E-01  0.23350394929E-01  0.00000000000E+00 0. -1.
<mgrwt>
<rscale>  1 0.66336423E+03</rscale>
<asrwt>0</asrwt>
<pdfrwt beam="1">  1        1 0.40012897E+00 0.66336423E+03</pdfrwt>
<pdfrwt beam="2">0</pdfrwt>
<totfact> 0.13327386E+00</totfact>
</mgrwt>
</event>
<event>
 6    1  0.3619848E-003  0.4638201E+03  0.7818608E-02  0.1023679E+00
          1   -1    0    0  502    0  0.00000000000E+00  0.00000000000E+00  0.53782710670E+02  0.53782710670E+02  0.00000000000E+00 0.  1.
         13   -1    0    0    0    0 -0.00000000000E+00 -0.00000000000E+00 -0.10000000000E+04  0.10000000000E+04  0.00000000000E+00 0.  1.
    9000005    2    1    2  501    0 -0.49851285155E-04  0.28424553904E-04 -0.94621772981E+03  0.10537822665E+04  0.46382008681E+03 0.  0.
         13    1    3    3    0    0 -0.17974026456E+03  0.13010427990E+03 -0.62633756011E+03  0.66447906330E+03  0.00000000000E+00 0.  1.
          1    1    3    3  501    0  0.17974021471E+03 -0.13010425148E+03 -0.31988016969E+03  0.38930320317E+03  0.00000000000E+00 0.  1.
         21    1    1    2  502  501  0.49851285136E-04 -0.28424553888E-04  0.44047584495E-03  0.44419823939E-03  0.00000000000E+00 0.  1.
<mgrwt>
<rscale>  1 0.46382009E+03</rscale>
<asrwt>0</asrwt>
<pdfrwt beam="1">  1        1 0.19557391E+00 0.46382009E+03</pdfrwt>
<pdfrwt beam="2">0</pdfrwt>
<totfact> 0.10829246E+01</totfact>
</mgrwt>
</event>
<event>
 6    1  0.3619848E-003  0.6484095E+03  0.7818608E-02  0.9809768E-01
          1   -1    0    0  502    0  0.00000000000E+00  0.00000000000E+00  0.10514389432E+03  0.10514389432E+03  0.00000000000E+00 0.  1.
         13   -1    0    0    0    0 -0.00000000000E+00 -0.00000000000E+00 -0.10000000000E+04  0.10000000000E+04  0.00000000000E+00 0.  1.
    9000005    2    1    2  501    0 -0.65151894021E-03  0.41616709636E-02 -0.89489113458E+03  0.11051086130E+04  0.64840951863E+03 0.  0.
         13    1    3    3    0    0 -0.32144778303E+02 -0.41850118337E+02 -0.99263040120E+03  0.99403210842E+03  0.00000000000E+00 0.  1.
          1    1    3    3  501    0  0.32144126784E+02  0.41854280008E+02  0.97739266617E+02  0.11107650463E+03  0.00000000000E+00 0.  1.
         21    1    1    2  502  501  0.65151894021E-03 -0.41616709636E-02  0.35028903362E-01  0.35281270568E-01  0.00000000000E+00 0. -1.
<mgrwt>
<rscale>  1 0.64840952E+03</rscale>
<asrwt>0</asrwt>
<pdfrwt beam="1">  1        1 0.38234224E+00 0.64840952E+03</pdfrwt>
<pdfrwt beam="2">0</pdfrwt>
<totfact> 0.16028305E+00</totfact>
</mgrwt>
</event>
<event>
 6    1  0.3619848E-003  0.6410447E+03  0.7818608E-02  0.9823730E-01
          1   -1    0    0  502    0  0.00000000000E+00  0.00000000000E+00  0.10273477942E+03  0.10273477942E+03  0.00000000000E+00 0.  1.
         13   -1    0    0    0    0 -0.00000000000E+00 -0.00000000000E+00 -0.10000000000E+04  0.10000000000E+04  0.00000000000E+00 0.  1.
    9000005    2    1    2  501    0  0.26633547407E-04  0.14155117242E-04 -0.89726542123E+03  0.11027345765E+04  0.64104470211E+03 0.  0.
         13    1    3    3    0    0  0.10963748981E+03  0.18171283239E+03 -0.35442106403E+02  0.21516522845E+03  0.00000000000E+00 0.  1.
          1    1    3    3  501    0 -0.10963746318E+03 -0.18171281823E+03 -0.86182331483E+03  0.88756934807E+03  0.00000000000E+00 0.  1.
         21    1    1    2  502  501 -0.26633547399E-04 -0.14155117238E-04  0.20065263060E-03  0.20290685390E-03  0.00000000000E+00 0.  1.
<mgrwt>
<rscale>  1 0.64104470E+03</rscale>
<asrwt>0</asrwt>
<pdfrwt beam="1">  1        1 0.37358180E+00 0.64104470E+03</pdfrwt>
<pdfrwt beam="2">0</pdfrwt>
<totfact> 0.17542451E+00</totfact>
</mgrwt>
</event>
<event>
 6    1  0.3619848E-003  0.6268444E+03  0.7818608E-02  0.9851226E-01
          1   -1    0    0  502    0  0.00000000000E+00  0.00000000000E+00  0.98257500799E+02  0.98257500799E+02  0.00000000000E+00 0.  1.
         13   -1    0    0    0    0 -0.00000000000E+00 -0.00000000000E+00 -0.10000000000E+04  0.10000000000E+04  0.00000000000E+00 0.  1.
    9000005    2    1    2  501    0  0.32219615828E-02  0.99526741467E-02 -0.90176525806E+03  0.10982324528E+04  0.62684443017E+03 0.  0.
         13    1    3    3    0    0  0.26239773052E+01  0.31314398006E+03 -0.47377153706E+03  0.56791329165E+03  0.00000000000E+00 0.  1.
          3    1    3    3  501    0 -0.26207553436E+01 -0.31313402739E+03 -0.42799372100E+03  0.53031916115E+03  0.00000000000E+00 0.  1.
         21    1    1    2  502  501 -0.32219615828E-02 -0.99526741467E-02  0.22758855869E-01  0.25047999512E-01  0.00000000000E+00 0.  1.
<mgrwt>
<rscale>  1 0.62684443E+03</rscale>
<asrwt>0</asrwt>
<pdfrwt beam="1">  1        1 0.35730076E+00 0.62684443E+03</pdfrwt>
<pdfrwt beam="2">0</pdfrwt>
<totfact> 0.20728866E+00</totfact>
</mgrwt>
</event>
<event>
 6    1  0.3619848E-003  0.6577689E+03  0.7818608E-02  0.9792310E-01
          1   -1    0    0  502    0  0.00000000000E+00  0.00000000000E+00  0.10854723639E+03  0.10854723639E+03  0.00000000000E+00 0.  1.
         13   -1    0    0    0    0 -0.00000000000E+00 -0.00000000000E+00 -0.10000000000E+04  0.10000000000E+04  0.00000000000E+00 0.  1.
    9000005    2    1    2  501    0 -0.73661628420E+00  0.22379403414E+00 -0.89134376816E+03  0.11077696971E+04  0.65776849735E+03 0.  0.
         13    1    3    3    0    0 -0.76932724434E+02  0.76789170564E+02 -0.96878191279E+03  0.97486081846E+03  0.00000000000E+00 0.  1.
          3    1    3    3  501    0  0.76196108150E+02 -0.76565376530E+02  0.77438144633E+02  0.13290887865E+03  0.00000000000E+00 0.  1.
         21    1    1    2  502  501  0.73661628420E+00 -0.22379403414E+00 -0.10899545512E+00  0.77753927817E+00  0.00000000000E+00 0. -1.
<mgrwt>
<rscale>  1 0.65776895E+03</rscale>
<asrwt>0</asrwt>
<pdfrwt beam="1">  1        1 0.39471806E+00 0.65776895E+03</pdfrwt>
<pdfrwt beam="2">0</pdfrwt>
<totfact> 0.14102376E+00</totfact>
</mgrwt>
</event>
<event>
 6    1  0.3619848E-003  0.6434478E+03  0.7818608E-02  0.9819152E-01
          1   -1    0    0  502    0  0.00000000000E+00  0.00000000000E+00  0.10350632754E+03  0.10350632754E+03  0.00000000000E+00 0.  1.
         13   -1    0    0    0    0 -0.00000000000E+00 -0.00000000000E+00 -0.10000000000E+04  0.10000000000E+04  0.00000000000E+00 0.  1.
    9000005    2    1    2  501    0 -0.46684360768E-05  0.50809645415E-05 -0.89649371887E+03  0.11035062806E+04  0.64344784046E+03 0.  0.
         13    1    3    3    0    0 -0.27318446216E+03  0.99118105636E+02 -0.21152778099E+03  0.35944144358E+03  0.00000000000E+00 0.  1.
          3    1    3    3  501    0  0.27318445749E+03 -0.99118100555E+02 -0.68496593788E+03  0.74406483704E+03  0.00000000000E+00 0.  1.
         21    1    1    2  502  501  0.46684360741E-05 -0.50809645481E-05  0.46415153140E-04  0.46925227087E-04  0.00000000000E+00 0.  1.
<mgrwt>
<rscale>  1 0.64344784E+03</rscale>
<asrwt>0</asrwt>
<pdfrwt beam="1">  1        1 0.37638744E+00 0.64344784E+03</pdfrwt>
<pdfrwt beam="2">0</pdfrwt>
<totfact> 0.17043136E+00</totfact>
</mgrwt>
</event>
<event>
 6    1  0.3619848E-003  0.6496542E+03  0.7818608E-02  0.9807428E-01
          1   -1    0    0  502    0  0.00000000000E+00  0.00000000000E+00  0.11367400468E+03  0.11367400468E+03  0.00000000000E+00 0.  1.
         13   -1    0    0    0    0 -0.00000000000E+00 -0.00000000000E+00 -0.10000000000E+04  0.10000000000E+04  0.00000000000E+00 0.  1.
    9000005    2    1    2  501    0  0.42313943533E+00  0.90568394564E-01 -0.89448099744E+03  0.11055075300E+04  0.64965410549E+03 0.  0.
         13    1    3    3    0    0 -0.31148454845E+03 -0.48421423110E+02 -0.57886434798E+03  0.65912911595E+03  0.00000000000E+00 0.  1.
          1    1    3    3  501    0  0.31190768788E+03  0.48511991504E+02 -0.31561664946E+03  0.44637841401E+03  0.00000000000E+00 0.  1.
         21    1    1    2  502  501 -0.42313943533E+00 -0.90568394564E-01  0.81550021166E+01  0.81664747069E+01  0.00000000000E+00 0. -1.
<mgrwt>
<rscale>  1 0.64965425E+03</rscale>
<asrwt>0</asrwt>
<pdfrwt beam="1">  1        1 0.41336089E+00 0.64965425E+03</pdfrwt>
<pdfrwt beam="2">0</pdfrwt>
<totfact> 0.11659137E+00</totfact>
</mgrwt>
</event>
<event>
 6    1  0.3619848E-003  0.6758510E+03  0.7818608E-02  0.9759445E-01
          1   -1    0    0  502    0  0.00000000000E+00  0.00000000000E+00  0.11419387935E+03  0.11419387935E+03  0.00000000000E+00 0.  1.
         13   -1    0    0    0    0 -0.00000000000E+00 -0.00000000000E+00 -0.10000000000E+04  0.10000000000E+04  0.00000000000E+00 0.  1.
    9000005    2    1    2  501    0  0.96212528433E-06 -0.76864958830E-04 -0.88580634891E+03  0.11141936385E+04  0.67585100154E+03 0.  0.
         13    1    3    3    0    0 -0.28129207476E+03 -0.56551175492E+01 -0.75148450904E+03  0.80242518592E+03  0.00000000000E+00 0.  1.
          1    1    3    3  501    0  0.28129207572E+03  0.56550406842E+01 -0.13432183988E+03  0.31176845257E+03  0.00000000000E+00 0.  1.
         21    1    1    2  502  501 -0.96212529278E-06  0.76864958830E-04  0.22825816887E-03  0.24085460186E-03  0.00000000000E+00 0.  1.
<mgrwt>
<rscale>  1 0.67585100E+03</rscale>
<asrwt>0</asrwt>
<pdfrwt beam="1">  1        1 0.41525135E+00 0.67585100E+03</pdfrwt>
<pdfrwt beam="2">0</pdfrwt>
<totfact> 0.11375712E+00</totfact>
</mgrwt>
</event>
<event>
 6    1  0.3619848E-003  0.6454271E+03  0.7818608E-02  0.9815398E-01
          1   -1    0    0  502    0  0.00000000000E+00  0.00000000000E+00  0.10447013085E+03  0.10447013085E+03  0.00000000000E+00 0.  1.
         13   -1    0    0    0    0 -0.00000000000E+00 -0.00000000000E+00 -0.10000000000E+04  0.10000000000E+04  0.00000000000E+00 0.  1.
    9000005    2    1    2  501    0 -0.49177816572E-01  0.44733776680E-01 -0.89585223474E+03  0.11041409817E+04  0.64542704980E+03 0.  0.
         13    1    3    3    0    0  0.69151210634E+02 -0.87289393389E+02 -0.96604883532E+03  0.97244623520E+03  0.00000000000E+00 0.  1.
          1    1    3    3  501    0 -0.69200388451E+02  0.87334127166E+02  0.70196600578E+02  0.13169474652E+03  0.00000000000E+00 0.  1.
         21    1    1    2  502  501  0.49177816572E-01 -0.44733776680E-01  0.32236559429E+00  0.32914912244E+00  0.00000000000E+00 0. -1.
<mgrwt>
<rscale>  1 0.64542705E+03</rscale>
<asrwt>0</asrwt>
<pdfrwt beam="1">  1        1 0.37989219E+00 0.64542705E+03</pdfrwt>
<pdfrwt beam="2">0</pdfrwt>
<totfact> 0.16441522E+00</totfact>
</mgrwt>
</event>
<event>
 6    1  0.3619848E-003  0.6396332E+03  0.7818608E-02  0.9826428E-01
          1   -1    0    0  502    0  0.00000000000E+00  0.00000000000E+00  0.10228679033E+03  0.10228679033E+03  0.00000000000E+00 0.  1.
         13   -1    0    0    0    0 -0.00000000000E+00 -0.00000000000E+00 -0.10000000000E+04  0.10000000000E+04  0.00000000000E+00 0.  1.
    9000005    2    1    2  501    0  0.74104254892E-03 -0.79996700612E-03 -0.89771725057E+03  0.11022826049E+04  0.63963323794E+03 0.  0.
         13    1    3    3    0    0 -0.11399929037E+03 -0.29360722591E+03 -0.35319184275E+03  0.47322882319E+03  0.00000000000E+00 0.  1.
          1    1    3    3  501    0  0.11400003141E+03  0.29360642594E+03 -0.54452540782E+03  0.62905378170E+03  0.00000000000E+00 0.  1.
         21    1    1    2  502  501 -0.74104254892E-03  0.79996700609E-03  0.40408929697E-02  0.41854399127E-02  0.00000000000E+00 0. -1.
<mgrwt>
<rscale>  1 0.63963324E+03</rscale>
<asrwt>0</asrwt>
<pdfrwt beam="1">  1        1 0.37195275E+00 0.63963324E+03</pdfrwt>
<pdfrwt beam="2">0</pdfrwt>
<totfact> 0.17838801E+00</totfact>
</mgrwt>
</event>
<event>
 6    1  0.3619848E-003  0.6445820E+03  0.7818608E-02  0.9816999E-01
          1   -1    0    0  502    0  0.00000000000E+00  0.00000000000E+00  0.10521718237E+03  0.10521718237E+03  0.00000000000E+00 0.  1.
         13   -1    0    0    0    0 -0.00000000000E+00 -0.00000000000E+00 -0.10000000000E+04  0.10000000000E+04  0.00000000000E+00 0.  1.
    9000005    2    1    2  501    0 -0.13812314560E+01  0.17366668918E+00 -0.89571935833E+03  0.11035393657E+04  0.64458050288E+03 0.  0.
         13    1    3    3    0    0 -0.68956962126E+02 -0.20672793137E+03 -0.85470680646E+03  0.88205171348E+03  0.00000000000E+00 0.  1.
          3    1    3    3  501    0  0.67575730670E+02  0.20690159806E+03 -0.41012551869E+02  0.22148765218E+03  0.00000000000E+00 0.  1.
         21    1    1    2  502  501  0.13812314560E+01 -0.17366668918E+00  0.93654070006E+00  0.16778167173E+01  0.00000000000E+00 0.  1.
<mgrwt>
<rscale>  1 0.64458201E+03</rscale>
<asrwt>0</asrwt>
<pdfrwt beam="1">  1        1 0.38260874E+00 0.64458201E+03</pdfrwt>
<pdfrwt beam="2">0</pdfrwt>
<totfact> 0.15996220E+00</totfact>
</mgrwt>
</event>
<event>
 6    1  0.3619848E-003  0.5609754E+03  0.7818608E-02  0.9989850E-01
          1   -1    0    0  502    0  0.00000000000E+00  0.00000000000E+00  0.78690867495E+02  0.78690867495E+02  0.00000000000E+00 0.  1.
         13   -1    0    0    0    0 -0.00000000000E+00 -0.00000000000E+00 -0.10000000000E+04  0.10000000000E+04  0.00000000000E+00 0.  1.
    9000005    2    1    2  501    0  0.59909975063E-03  0.26655868623E-04 -0.92132663326E+03  0.10786733565E+04  0.56097544047E+03 0.  0.
         13    1    3    3    0    0  0.10251729682E+03 -0.22324233620E+03 -0.20035660891E+03  0.31700111601E+03  0.00000000000E+00 0.  1.
          3    1    3    3  501    0 -0.10251669772E+03  0.22324236285E+03 -0.72097002435E+03  0.76167224046E+03  0.00000000000E+00 0.  1.
         21    1    1    2  502  501 -0.59909975063E-03 -0.26655868632E-04  0.17500752622E-01  0.17511024338E-01  0.00000000000E+00 0. -1.
<mgrwt>
<rscale>  1 0.56097544E+03</rscale>
<asrwt>0</asrwt>
<pdfrwt beam="1">  1        1 0.28614921E+00 0.56097544E+03</pdfrwt>
<pdfrwt beam="2">0</pdfrwt>
<totfact> 0.42632674E+00</totfact>
</mgrwt>
</event>
<event>
 6    1  0.3619848E-003  0.6522526E+03  0.7818608E-02  0.9802561E-01
          1   -1    0    0  502    0  0.00000000000E+00  0.00000000000E+00  0.10635905082E+03  0.10635905082E+03  0.00000000000E+00 0.  1.
         13   -1    0    0    0    0 -0.00000000000E+00 -0.00000000000E+00 -0.10000000000E+04  0.10000000000E+04  0.00000000000E+00 0.  1.
    9000005    2    1    2  501    0  0.17575334995E-02  0.46537678352E-03 -0.89363982335E+03  0.11063569124E+04  0.65225262258E+03 0.  0.
         13    1    3    3    0    0 -0.19869809222E+03  0.20836384784E+03 -0.18700744517E+03  0.34331939865E+03  0.00000000000E+00 0.  1.
          3    1    3    3  501    0  0.19869984975E+03 -0.20836338247E+03 -0.70663237819E+03  0.76303751372E+03  0.00000000000E+00 0.  1.
         21    1    1    2  502  501 -0.17575334995E-02 -0.46537678351E-03 -0.11258237978E-02  0.21384524255E-02  0.00000000000E+00 0. -1.
<mgrwt>
<rscale>  1 0.65225262E+03</rscale>
<asrwt>0</asrwt>
<pdfrwt beam="1">  1        1 0.38676100E+00 0.65225262E+03</pdfrwt>
<pdfrwt beam="2">0</pdfrwt>
<totfact> 0.15312237E+00</totfact>
</mgrwt>
</event>
<event>
 6    1  0.3619848E-003  0.6390013E+03  0.7818608E-02  0.9827639E-01
          1   -1    0    0  502    0  0.00000000000E+00  0.00000000000E+00  0.10302354990E+03  0.10302354990E+03  0.00000000000E+00 0.  1.
         13   -1    0    0    0    0 -0.00000000000E+00 -0.00000000000E+00 -0.10000000000E+04  0.10000000000E+04  0.00000000000E+00 0.  1.
    9000005    2    1    2  501    0 -0.14467267234E+00 -0.70204572830E-01 -0.89791177019E+03  0.11020745069E+04  0.63900128791E+03 0.  0.
         13    1    3    3    0    0 -0.13833638377E+03 -0.27926279002E+03 -0.57094299886E+03  0.65046181203E+03  0.00000000000E+00 0.  1.
          1    1    3    3  501    0  0.13819171109E+03  0.27919258544E+03 -0.32696877133E+03  0.45161269491E+03  0.00000000000E+00 0.  1.
         21    1    1    2  502  501  0.14467267234E+00  0.70204572830E-01  0.93532008997E+00  0.94904295733E+00  0.00000000000E+00 0. -1.
<mgrwt>
<rscale>  1 0.63900131E+03</rscale>
<asrwt>0</asrwt>
<pdfrwt beam="1">  1        1 0.37463188E+00 0.63900131E+03</pdfrwt>
<pdfrwt beam="2">0</pdfrwt>
<totfact> 0.17363317E+00</totfact>
</mgrwt>
</event>
<event>
 6    1  0.3619848E-003  0.6441669E+03  0.7818608E-02  0.9817787E-01
          1   -1    0    0  502    0  0.00000000000E+00  0.00000000000E+00  0.10373774466E+03  0.10373774466E+03  0.00000000000E+00 0.  1.
         13   -1    0    0    0    0 -0.00000000000E+00 -0.00000000000E+00 -0.10000000000E+04  0.10000000000E+04  0.00000000000E+00 0.  1.
    9000005    2    1    2  501    0  0.32022009862E-05 -0.46391518538E-06 -0.89626226202E+03  0.11037377372E+04  0.64416686525E+03 0.  0.
         13    1    3    3    0    0 -0.14875407135E+03  0.85359740465E+02 -0.91525397389E+03  0.93118413633E+03  0.00000000000E+00 0.  1.
          1    1    3    3  501    0  0.14875407455E+03 -0.85359740929E+02  0.18991711872E+02  0.17255360091E+03  0.00000000000E+00 0.  1.
         21    1    1    2  502  501 -0.32022009742E-05  0.46391518780E-06  0.66804506273E-05  0.74227844482E-05  0.00000000000E+00 0. -1.
<mgrwt>
<rscale>  1 0.64416687E+03</rscale>
<asrwt>0</asrwt>
<pdfrwt beam="1">  1        1 0.37722896E+00 0.64416687E+03</pdfrwt>
<pdfrwt beam="2">0</pdfrwt>
<totfact> 0.16896042E+00</totfact>
</mgrwt>
</event>
<event>
 6    1  0.3619848E-003  0.6493192E+03  0.7818608E-02  0.9808057E-01
          1   -1    0    0  502    0  0.00000000000E+00  0.00000000000E+00  0.10695679868E+03  0.10695679868E+03  0.00000000000E+00 0.  1.
         13   -1    0    0    0    0 -0.00000000000E+00 -0.00000000000E+00 -0.10000000000E+04  0.10000000000E+04  0.00000000000E+00 0.  1.
    9000005    2    1    2  501    0  0.12878495463E+00 -0.69020018749E-01 -0.89459233868E+03  0.11054007859E+04  0.64931920009E+03 0.  0.
         13    1    3    3    0    0  0.75370690820E+02 -0.18417057991E+02  0.89395349862E+02  0.11837000311E+03  0.00000000000E+00 0.  1.
          3    1    3    3  501    0 -0.75241905866E+02  0.18348037973E+02 -0.98398768854E+03  0.98703078275E+03  0.00000000000E+00 0.  1.
         21    1    1    2  502  501 -0.12878495463E+00  0.69020018749E-01  0.15491373562E+01  0.15560128136E+01  0.00000000000E+00 0. -1.
<mgrwt>
<rscale>  1 0.64931922E+03</rscale>
<asrwt>0</asrwt>
<pdfrwt beam="1">  1        1 0.38893463E+00 0.64931922E+03</pdfrwt>
<pdfrwt beam="2">0</pdfrwt>
<totfact> 0.14984670E+00</totfact>
</mgrwt>
</event>
<event>
 6    1  0.3619848E-003  0.6472054E+03  0.7818608E-02  0.9812037E-01
          1   -1    0    0  502    0  0.00000000000E+00  0.00000000000E+00  0.10485299149E+03  0.10485299149E+03  0.00000000000E+00 0.  1.
         13   -1    0    0    0    0 -0.00000000000E+00 -0.00000000000E+00 -0.10000000000E+04  0.10000000000E+04  0.00000000000E+00 0.  1.
    9000005    2    1    2  501    0 -0.50484958628E-01  0.55097172315E-01 -0.89526972239E+03  0.11047093143E+04  0.64720536754E+03 0.  0.
         13    1    3    3    0    0 -0.10092285301E+03  0.89262836010E+02 -0.94988693566E+03  0.95939484399E+03  0.00000000000E+00 0.  1.
          3    1    3    3  501    0  0.10087236805E+03 -0.89207738837E+02  0.54617213271E+02  0.14531447034E+03  0.00000000000E+00 0.  1.
         21    1    1    2  502  501  0.50484958628E-01 -0.55097172315E-01  0.12271387587E+00  0.14367715467E+00  0.00000000000E+00 0.  1.
<mgrwt>
<rscale>  1 0.64720537E+03</rscale>
<asrwt>0</asrwt>
<pdfrwt beam="1">  1        1 0.38128441E+00 0.64720537E+03</pdfrwt>
<pdfrwt beam="2">0</pdfrwt>
<totfact> 0.16205238E+00</totfact>
</mgrwt>
</event>
<event>
 6    1  0.3619848E-003  0.6073233E+03  0.7818608E-02  0.9890328E-01
          1   -1    0    0  502    0  0.00000000000E+00  0.00000000000E+00  0.92215349012E+02  0.92215349012E+02  0.00000000000E+00 0.  1.
         13   -1    0    0    0    0 -0.00000000000E+00 -0.00000000000E+00 -0.10000000000E+04  0.10000000000E+04  0.00000000000E+00 0.  1.
    9000005    2    1    2  501    0 -0.45221477128E-02  0.35989275298E-02 -0.90778768300E+03  0.10922088225E+04  0.60732333607E+03 0.  0.
         13    1    3    3    0    0 -0.99589893095E+02  0.23587202840E+03 -0.74752611871E+03  0.79015761639E+03  0.00000000000E+00 0.  1.
          1    1    3    3  501    0  0.99585370947E+02 -0.23586842948E+03 -0.16026156429E+03  0.30205120612E+03  0.00000000000E+00 0.  1.
         21    1    1    2  502  501  0.45221477129E-02 -0.35989275298E-02  0.30320123747E-02  0.65264997006E-02  0.00000000000E+00 0. -1.
<mgrwt>
<rscale>  1 0.60732334E+03</rscale>
<asrwt>0</asrwt>
<pdfrwt beam="1">  1        1 0.33532925E+00 0.60732334E+03</pdfrwt>
<pdfrwt beam="2">0</pdfrwt>
<totfact> 0.25924804E+00</totfact>
</mgrwt>
</event>
<event>
 6    1  0.3619848E-003  0.6480790E+03  0.7818608E-02  0.9810390E-01
          1   -1    0    0  502    0  0.00000000000E+00  0.00000000000E+00  0.10500350954E+03  0.10500350954E+03  0.00000000000E+00 0.  1.
         13   -1    0    0    0    0 -0.00000000000E+00 -0.00000000000E+00 -0.10000000000E+04  0.10000000000E+04  0.00000000000E+00 0.  1.
    9000005    2    1    2  501    0 -0.21901243102E-03 -0.24027413599E-03 -0.89499837685E+03  0.11050015953E+04  0.64807903155E+03 0.  0.
         13    1    3    3    0    0  0.20878345824E+03  0.22503975790E+03 -0.27056789503E+03  0.40919483244E+03  0.00000000000E+00 0.  1.
          1    1    3    3  501    0 -0.20878367726E+03 -0.22503999818E+03 -0.62443048182E+03  0.69580676290E+03  0.00000000000E+00 0.  1.
         21    1    1    2  502  501  0.21901243104E-03  0.24027413599E-03  0.18863891577E-02  0.19142001357E-02  0.00000000000E+00 0.  1.
<mgrwt>
<rscale>  1 0.64807903E+03</rscale>
<asrwt>0</asrwt>
<pdfrwt beam="1">  1        1 0.38183175E+00 0.64807903E+03</pdfrwt>
<pdfrwt beam="2">0</pdfrwt>
<totfact> 0.16112716E+00</totfact>
</mgrwt>
</event>
<event>
 6    1  0.3619848E-003  0.6429068E+03  0.7818608E-02  0.9820181E-01
          1   -1    0    0  502    0  0.00000000000E+00  0.00000000000E+00  0.10333360744E+03  0.10333360744E+03  0.00000000000E+00 0.  1.
         13   -1    0    0    0    0 -0.00000000000E+00 -0.00000000000E+00 -0.10000000000E+04  0.10000000000E+04  0.00000000000E+00 0.  1.
    9000005    2    1    2  501    0  0.70330700861E-04 -0.49952779278E-04 -0.89666771881E+03  0.11033322784E+04  0.64290677285E+03 0.  0.
         13    1    3    3    0    0 -0.31165165117E+02  0.21327512919E+03 -0.85761140986E+03  0.88428212612E+03  0.00000000000E+00 0.  1.
          3    1    3    3  501    0  0.31165235448E+02 -0.21327517915E+03 -0.39056308949E+02  0.21905015227E+03  0.00000000000E+00 0.  1.
         21    1    1    2  502  501 -0.70330700860E-04  0.49952779279E-04  0.13262525974E-02  0.13290551680E-02  0.00000000000E+00 0. -1.
<mgrwt>
<rscale>  1 0.64290677E+03</rscale>
<asrwt>0</asrwt>
<pdfrwt beam="1">  1        1 0.37575936E+00 0.64290677E+03</pdfrwt>
<pdfrwt beam="2">0</pdfrwt>
<totfact> 0.17153730E+00</totfact>
</mgrwt>
</event>
<event>
 6    1  0.3619848E-003  0.6484966E+03  0.7818608E-02  0.9809604E-01
          1   -1    0    0  502    0  0.00000000000E+00  0.00000000000E+00  0.10513695727E+03  0.10513695727E+03  0.00000000000E+00 0.  1.
         13   -1    0    0    0    0 -0.00000000000E+00 -0.00000000000E+00 -0.10000000000E+04  0.10000000000E+04  0.00000000000E+00 0.  1.
    9000005    2    1    2  501    0  0.40455787484E-05  0.85135446390E-05 -0.89486303926E+03  0.11051369472E+04  0.64849657909E+03 0.  0.
         13    1    3    3    0    0  0.29022260298E+03  0.23723507652E+02 -0.20435827946E+03  0.35574467035E+03  0.00000000000E+00 0.  1.
          1    1    3    3  501    0 -0.29022259893E+03 -0.23723499139E+02 -0.69050475980E+03  0.74939227688E+03  0.00000000000E+00 0.  1.
         21    1    1    2  502  501 -0.40455787052E-05 -0.85135446399E-05 -0.34751772650E-05  0.10046094088E-04  0.00000000000E+00 0. -1.
<mgrwt>
<rscale>  1 0.64849658E+03</rscale>
<asrwt>0</asrwt>
<pdfrwt beam="1">  1        1 0.38231701E+00 0.64849658E+03</pdfrwt>
<pdfrwt beam="2">0</pdfrwt>
<totfact> 0.16032161E+00</totfact>
</mgrwt>
</event>
<event>
 6    1  0.3619848E-003  0.6379284E+03  0.7818608E-02  0.9829698E-01
          1   -1    0    0  502    0  0.00000000000E+00  0.00000000000E+00  0.10174254461E+03  0.10174254461E+03  0.00000000000E+00 0.  1.
         13   -1    0    0    0    0 -0.00000000000E+00 -0.00000000000E+00 -0.10000000000E+04  0.10000000000E+04  0.00000000000E+00 0.  1.
    9000005    2    1    2  501    0 -0.51631397621E-04 -0.11445567611E-03 -0.89826184503E+03  0.11017381532E+04  0.63792837837E+03 0.  0.
         13    1    3    3    0    0 -0.12722539040E+02 -0.29776547436E+03 -0.64537845403E+03  0.71087234413E+03  0.00000000000E+00 0.  1.
          3    1    3    3  501    0  0.12722487409E+02  0.29776535990E+03 -0.25288339100E+03  0.39086580905E+03  0.00000000000E+00 0.  1.
         21    1    1    2  502  501  0.51631397622E-04  0.11445567611E-03  0.43896388747E-02  0.43914343162E-02  0.00000000000E+00 0. -1.
<mgrwt>
<rscale>  1 0.63792838E+03</rscale>
<asrwt>0</asrwt>
<pdfrwt beam="1">  1        1 0.36997367E+00 0.63792838E+03</pdfrwt>
<pdfrwt beam="2">0</pdfrwt>
<totfact> 0.18205230E+00</totfact>
</mgrwt>
</event>
<event>
 6    1  0.3619848E-003  0.6492271E+03  0.7818608E-02  0.9808231E-01
          1   -1    0    0  502    0  0.00000000000E+00  0.00000000000E+00  0.10538984860E+03  0.10538984860E+03  0.00000000000E+00 0.  1.
         13   -1    0    0    0    0 -0.00000000000E+00 -0.00000000000E+00 -0.10000000000E+04  0.10000000000E+04  0.00000000000E+00 0.  1.
    9000005    2    1    2  501    0  0.90128632024E-04 -0.26064567481E-03 -0.89462603960E+03  0.11053739580E+04  0.64922710688E+03 0.  0.
         13    1    3    3    0    0  0.20369210251E+03 -0.22545497979E+03 -0.25278703192E+03  0.39524891403E+03  0.00000000000E+00 0.  1.
          1    1    3    3  501    0 -0.20369201238E+03  0.22545471915E+03 -0.64183900768E+03  0.71012504397E+03  0.00000000000E+00 0.  1.
         21    1    1    2  502  501 -0.90128632021E-04  0.26064567482E-03  0.15888199982E-01  0.15890593381E-01  0.00000000000E+00 0. -1.
<mgrwt>
<rscale>  1 0.64922711E+03</rscale>
<asrwt>0</asrwt>
<pdfrwt beam="1">  1        1 0.38323662E+00 0.64922711E+03</pdfrwt>
<pdfrwt beam="2">0</pdfrwt>
<totfact> 0.15880731E+00</totfact>
</mgrwt>
</event>
<event>
 6    1  0.3619848E-003  0.6511016E+03  0.7818608E-02  0.9804714E-01
          1   -1    0    0  502    0  0.00000000000E+00  0.00000000000E+00  0.10599636576E+03  0.10599636576E+03  0.00000000000E+00 0.  1.
         13   -1    0    0    0    0 -0.00000000000E+00 -0.00000000000E+00 -0.10000000000E+04  0.10000000000E+04  0.00000000000E+00 0.  1.
    9000005    2    1    2  501    0 -0.18729307824E-01 -0.12526084355E-02 -0.89400872583E+03  0.11059769163E+04  0.65110163357E+03 0.  0.
         13    1    3    3    0    0 -0.18991527731E+03  0.13844596207E+03 -0.82967957660E+03  0.86232435707E+03  0.00000000000E+00 0.  1.
          1    1    3    3  501    0  0.18989654800E+03 -0.13844721468E+03 -0.64329149233E+02  0.24365255926E+03  0.00000000000E+00 0.  1.
         21    1    1    2  502  501  0.18729307824E-01  0.12526084356E-02  0.50915965876E-02  0.19449430719E-01  0.00000000000E+00 0. -1.
<mgrwt>
<rscale>  1 0.65110163E+03</rscale>
<asrwt>0</asrwt>
<pdfrwt beam="1">  1        1 0.38544214E+00 0.65110163E+03</pdfrwt>
<pdfrwt beam="2">0</pdfrwt>
<totfact> 0.15522725E+00</totfact>
</mgrwt>
</event>
<event>
 6    1  0.3619848E-003  0.6442236E+03  0.7818608E-02  0.9817679E-01
          1   -1    0    0  502    0  0.00000000000E+00  0.00000000000E+00  0.10375768846E+03  0.10375768846E+03  0.00000000000E+00 0.  1.
         13   -1    0    0    0    0 -0.00000000000E+00 -0.00000000000E+00 -0.10000000000E+04  0.10000000000E+04  0.00000000000E+00 0.  1.
    9000005    2    1    2  501    0  0.11562764457E-02 -0.44527256517E-02 -0.89623931696E+03  0.11037521993E+04  0.64422356685E+03 0.  0.
         13    1    3    3    0    0  0.22039982978E+03  0.21141835636E+03 -0.27271120005E+03  0.40944499631E+03  0.00000000000E+00 0.  1.
          1    1    3    3  501    0 -0.22039867350E+03 -0.21142280909E+03 -0.62352811692E+03  0.69430720295E+03  0.00000000000E+00 0.  1.
         21    1    1    2  502  501 -0.11562764457E-02  0.44527256517E-02 -0.29945784658E-02  0.54891931225E-02  0.00000000000E+00 0.  1.
<mgrwt>
<rscale>  1 0.64422357E+03</rscale>
<asrwt>0</asrwt>
<pdfrwt beam="1">  1        1 0.37730148E+00 0.64422357E+03</pdfrwt>
<pdfrwt beam="2">0</pdfrwt>
<totfact> 0.16883439E+00</totfact>
</mgrwt>
</event>
<event>
 6    1  0.3619848E-003  0.6496804E+03  0.7818608E-02  0.9807379E-01
          1   -1    0    0  502    0  0.00000000000E+00  0.00000000000E+00  0.10560274663E+03  0.10560274663E+03  0.00000000000E+00 0.  1.
         13   -1    0    0    0    0 -0.00000000000E+00 -0.00000000000E+00 -0.10000000000E+04  0.10000000000E+04  0.00000000000E+00 0.  1.
    9000005    2    1    2  501    0 -0.33521961902E-02  0.15172613299E-01 -0.89447802403E+03  0.11055204949E+04  0.64968040524E+03 0.  0.
         13    1    3    3    0    0  0.56882950747E+02  0.23564420659E+02 -0.98998000992E+03  0.99189282286E+03  0.00000000000E+00 0.  1.
          1    1    3    3  501    0 -0.56886302943E+02 -0.23549248045E+02  0.95501985889E+02  0.11362767205E+03  0.00000000000E+00 0.  1.
         21    1    1    2  502  501  0.33521961902E-02 -0.15172613299E-01  0.80770665993E-01  0.82251722770E-01  0.00000000000E+00 0.  1.
<mgrwt>
<rscale>  1 0.64968041E+03</rscale>
<asrwt>0</asrwt>
<pdfrwt beam="1">  1        1 0.38401080E+00 0.64968041E+03</pdfrwt>
<pdfrwt beam="2">0</pdfrwt>
<totfact> 0.15754775E+00</totfact>
</mgrwt>
</event>
<event>
 6    1  0.3619848E-003  0.6561920E+03  0.7818608E-02  0.9795229E-01
          1   -1    0    0  502    0  0.00000000000E+00  0.00000000000E+00  0.10768202798E+03  0.10768202798E+03  0.00000000000E+00 0.  1.
         13   -1    0    0    0    0 -0.00000000000E+00 -0.00000000000E+00 -0.10000000000E+04  0.10000000000E+04  0.00000000000E+00 0.  1.
    9000005    2    1    2  501    0 -0.17989933136E-02  0.11323495311E-01 -0.89235196642E+03  0.11076461521E+04  0.65619201932E+03 0.  0.
         13    1    3    3    0    0 -0.28345030821E+03 -0.12713652161E+03 -0.26802671347E+03  0.41030000181E+03  0.00000000000E+00 0.  1.
          3    1    3    3  501    0  0.28344850922E+03  0.12714784511E+03 -0.62432525295E+03  0.69734615031E+03  0.00000000000E+00 0.  1.
         21    1    1    2  502  501  0.17989933136E-02 -0.11323495311E-01  0.33994401684E-01  0.35875859137E-01  0.00000000000E+00 0.  1.
<mgrwt>
<rscale>  1 0.65619202E+03</rscale>
<asrwt>0</asrwt>
<pdfrwt beam="1">  1        1 0.39157184E+00 0.65619202E+03</pdfrwt>
<pdfrwt beam="2">0</pdfrwt>
<totfact> 0.14567866E+00</totfact>
</mgrwt>
</event>
<event>
 6    1  0.3619848E-003  0.6257110E+03  0.7818608E-02  0.9853454E-01
          1   -1    0    0  502    0  0.00000000000E+00  0.00000000000E+00  0.11489042690E+03  0.11489042690E+03  0.00000000000E+00 0.  1.
         13   -1    0    0    0    0 -0.00000000000E+00 -0.00000000000E+00 -0.10000000000E+04  0.10000000000E+04  0.00000000000E+00 0.  1.
    9000005    2    1    2  501    0  0.89541666300E+00 -0.67384323697E+00 -0.90210117691E+03  0.10978619086E+04  0.62570998163E+03 0.  0.
         13    1    3    3    0    0  0.36104837604E+02  0.30363108108E+03 -0.56450212735E+03  0.64199536173E+03  0.00000000000E+00 0.  1.
          3    1    3    3  501    0 -0.35209420941E+02 -0.30430492432E+03 -0.33759904956E+03  0.45586654686E+03  0.00000000000E+00 0.  1.
         21    1    1    2  502  501 -0.89541666300E+00  0.67384323697E+00  0.16991603810E+02  0.17028518307E+02  0.00000000000E+00 0.  1.
<mgrwt>
<rscale>  1 0.62571099E+03</rscale>
<asrwt>0</asrwt>
<pdfrwt beam="1">  1        1 0.41778425E+00 0.62571099E+03</pdfrwt>
<pdfrwt beam="2">0</pdfrwt>
<totfact> 0.11190607E+00</totfact>
</mgrwt>
</event>
<event>
 6    1  0.3619848E-003  0.6382584E+03  0.7818608E-02  0.9829064E-01
          1   -1    0    0  502    0  0.00000000000E+00  0.00000000000E+00  0.11067414237E+03  0.11067414237E+03  0.00000000000E+00 0.  1.
         13   -1    0    0    0    0 -0.00000000000E+00 -0.00000000000E+00 -0.10000000000E+04  0.10000000000E+04  0.00000000000E+00 0.  1.
    9000005    2    1    2  501    0  0.45707285559E+00 -0.72806067633E-01 -0.89814987529E+03  0.11018379948E+04  0.63825821896E+03 0.  0.
         13    1    3    3    0    0 -0.20635919518E+03 -0.18333155020E+03 -0.17285878289E+03  0.32569116284E+03  0.00000000000E+00 0.  1.
          1    1    3    3  501    0  0.20681626803E+03  0.18325874413E+03 -0.72529109240E+03  0.77614683195E+03  0.00000000000E+00 0.  1.
         21    1    1    2  502  501 -0.45707285559E+00  0.72806067633E-01  0.88240176655E+01  0.88361475814E+01  0.00000000000E+00 0.  1.
<mgrwt>
<rscale>  1 0.63825839E+03</rscale>
<asrwt>0</asrwt>
<pdfrwt beam="1">  1        1 0.40245228E+00 0.63825839E+03</pdfrwt>
<pdfrwt beam="2">0</pdfrwt>
<totfact> 0.13075550E+00</totfact>
</mgrwt>
</event>
<event>
 6    1  0.3619848E-003  0.6564307E+03  0.7818608E-02  0.9794787E-01
          1   -1    0    0  502    0  0.00000000000E+00  0.00000000000E+00  0.10772542904E+03  0.10772542904E+03  0.00000000000E+00 0.  1.
         13   -1    0    0    0    0 -0.00000000000E+00 -0.00000000000E+00 -0.10000000000E+04  0.10000000000E+04  0.00000000000E+00 0.  1.
    9000005    2    1    2  501    0  0.10319646549E-03 -0.26079969237E-03 -0.89227442803E+03  0.11077251142E+04  0.65643070755E+03 0.  0.
         13    1    3    3    0    0  0.18343665416E+03 -0.18238033157E+03 -0.78705273193E+03  0.82847063573E+03  0.00000000000E+00 0.  1.
          3    1    3    3  501    0 -0.18343655096E+03  0.18238007077E+03 -0.10522169610E+03  0.27925447852E+03  0.00000000000E+00 0.  1.
         21    1    1    2  502  501 -0.10319646549E-03  0.26079969238E-03 -0.14292912114E-03  0.31479314431E-03  0.00000000000E+00 0. -1.
<mgrwt>
<rscale>  1 0.65643071E+03</rscale>
<asrwt>0</asrwt>
<pdfrwt beam="1">  1        1 0.39172966E+00 0.65643071E+03</pdfrwt>
<pdfrwt beam="2">0</pdfrwt>
<totfact> 0.14543742E+00</totfact>
</mgrwt>
</event>
<event>
 6    1  0.3619848E-003  0.6568013E+03  0.7818608E-02  0.9794100E-01
          1   -1    0    0  502    0  0.00000000000E+00  0.00000000000E+00  0.10901060950E+03  0.10901060950E+03  0.00000000000E+00 0.  1.
         13   -1    0    0    0    0 -0.00000000000E+00 -0.00000000000E+00 -0.10000000000E+04  0.10000000000E+04  0.00000000000E+00 0.  1.
    9000005    2    1    2  501    0 -0.62117170701E+00  0.41757218944E+00 -0.89201814611E+03  0.11077383835E+04  0.65680087785E+03 0.  0.
         13    1    3    3    0    0  0.19025096187E+03 -0.21224693073E+03 -0.17156814607E+03  0.33268576291E+03  0.00000000000E+00 0.  1.
          3    1    3    3  501    0 -0.19087213357E+03  0.21266450292E+03 -0.72045000004E+03  0.77505262062E+03  0.00000000000E+00 0.  1.
         21    1    1    2  502  501  0.62117170701E+00 -0.41757218944E+00  0.10287556099E+01  0.12722259736E+01  0.00000000000E+00 0.  1.
<mgrwt>
<rscale>  1 0.65680130E+03</rscale>
<asrwt>0</asrwt>
<pdfrwt beam="1">  1        1 0.39640305E+00 0.65680130E+03</pdfrwt>
<pdfrwt beam="2">0</pdfrwt>
<totfact> 0.13863605E+00</totfact>
</mgrwt>
</event>
<event>
 6    1  0.3619848E-003  0.6442942E+03  0.7818608E-02  0.9817545E-01
          1   -1    0    0  502    0  0.00000000000E+00  0.00000000000E+00  0.10930843689E+03  0.10930843689E+03  0.00000000000E+00 0.  1.
         13   -1    0    0    0    0 -0.00000000000E+00 -0.00000000000E+00 -0.10000000000E+04  0.10000000000E+04  0.00000000000E+00 0.  1.
    9000005    2    1    2  501    0  0.36925971190E+01 -0.39479302269E+01 -0.89472471836E+03  0.11025639749E+04  0.64427150769E+03 0.  0.
         13    1    3    3    0    0 -0.30024624081E+03  0.42728621391E+02 -0.26908032258E+03  0.40543527253E+03  0.00000000000E+00 0.  1.
          3    1    3    3  501    0  0.30393883793E+03 -0.46676551618E+02 -0.62564439578E+03  0.69712870235E+03  0.00000000000E+00 0.  1.
         21    1    1    2  502  501 -0.36925971190E+01  0.39479302269E+01  0.40331552559E+01  0.67444620155E+01  0.00000000000E+00 0. -1.
<mgrwt>
<rscale>  1 0.64429419E+03</rscale>
<asrwt>0</asrwt>
<pdfrwt beam="1">  1        1 0.39748606E+00 0.64429419E+03</pdfrwt>
<pdfrwt beam="2">0</pdfrwt>
<totfact> 0.13743066E+00</totfact>
</mgrwt>
</event>
<event>
 6    1  0.3619848E-003  0.6486303E+03  0.7818608E-02  0.9809353E-01
          1   -1    0    0  502    0  0.00000000000E+00  0.00000000000E+00  0.10518162524E+03  0.10518162524E+03  0.00000000000E+00 0.  1.
         13   -1    0    0    0    0 -0.00000000000E+00 -0.00000000000E+00 -0.10000000000E+04  0.10000000000E+04  0.00000000000E+00 0.  1.
    9000005    2    1    2  501    0 -0.24387866347E-04  0.27291755202E-05 -0.89481968413E+03  0.11051803156E+04  0.64863029760E+03 0.  0.
         13    1    3    3    0    0 -0.12883664868E+02 -0.23392074681E+03 -0.65289558805E+02  0.24320285997E+03  0.00000000000E+00 0.  1.
          3    1    3    3  501    0  0.12883640480E+02  0.23392074954E+03 -0.82953012533E+03  0.86197745567E+03  0.00000000000E+00 0.  1.
         21    1    1    2  502  501  0.24387866347E-04 -0.27291755258E-05  0.13093732306E-02  0.13096031740E-02  0.00000000000E+00 0. -1.
<mgrwt>
<rscale>  1 0.64863030E+03</rscale>
<asrwt>0</asrwt>
<pdfrwt beam="1">  1        1 0.38247944E+00 0.64863030E+03</pdfrwt>
<pdfrwt beam="2">0</pdfrwt>
<totfact> 0.16005301E+00</totfact>
</mgrwt>
</event>
<event>
 6    1  0.3619848E-003  0.6474879E+03  0.7818608E-02  0.9811504E-01
          3   -1    0    0  502    0  0.00000000000E+00  0.00000000000E+00  0.10481044680E+03  0.10481044680E+03  0.00000000000E+00 0.  1.
         13   -1    0    0    0    0 -0.00000000000E+00 -0.00000000000E+00 -0.10000000000E+04  0.10000000000E+04  0.00000000000E+00 0.  1.
    9000005    2    1    2  501    0  0.60105940094E-04  0.10731428887E-04 -0.89518983533E+03  0.11048101581E+04  0.64748794912E+03 0.  0.
         13    1    3    3    0    0 -0.15826991614E+03  0.15425624094E+03 -0.85125639462E+03  0.87947814277E+03  0.00000000000E+00 0.  1.
          3    1    3    3  501    0  0.15826997624E+03 -0.15425623021E+03 -0.43933440707E+02  0.22533201537E+03  0.00000000000E+00 0.  1.
         21    1    1    2  502  501 -0.60105940108E-04 -0.10731428880E-04  0.28212366396E-03  0.28865489666E-03  0.00000000000E+00 0. -1.
<mgrwt>
<rscale>  1 0.64748795E+03</rscale>
<asrwt>0</asrwt>
<pdfrwt beam="1">  1        3 0.38112970E+00 0.64748795E+03</pdfrwt>
<pdfrwt beam="2">0</pdfrwt>
<totfact> 0.74480328E-02</totfact>
</mgrwt>
</event>
<event>
 6    1  0.3619848E-003  0.5241983E+03  0.7818608E-02  0.1007649E+00
          1   -1    0    0  502    0  0.00000000000E+00  0.00000000000E+00  0.68721877201E+02  0.68721877201E+02  0.00000000000E+00 0.  1.
         13   -1    0    0    0    0 -0.00000000000E+00 -0.00000000000E+00 -0.10000000000E+04  0.10000000000E+04  0.00000000000E+00 0.  1.
    9000005    2    1    2  501    0  0.23188987922E-02  0.10050995737E-02 -0.93130396631E+03  0.10686959104E+04  0.52419831289E+03 0.  0.
         13    1    3    3    0    0  0.80582441437E+02 -0.24433567723E+03 -0.36366550244E+03  0.44547283947E+03  0.00000000000E+00 0.  1.
          1    1    3    3  501    0 -0.80580122538E+02  0.24433668233E+03 -0.56763846387E+03  0.62322307094E+03  0.00000000000E+00 0.  1.
         21    1    1    2  502  501 -0.23188987922E-02 -0.10050995737E-02  0.25843512755E-01  0.25966799346E-01  0.00000000000E+00 0. -1.
<mgrwt>
<rscale>  1 0.52419831E+03</rscale>
<asrwt>0</asrwt>
<pdfrwt beam="1">  1        1 0.24989826E+00 0.52419831E+03</pdfrwt>
<pdfrwt beam="2">0</pdfrwt>
<totfact> 0.61571112E+00</totfact>
</mgrwt>
</event>
<event>
 6    1  0.3619848E-003  0.6513341E+03  0.7818608E-02  0.9804279E-01
          1   -1    0    0  502    0  0.00000000000E+00  0.00000000000E+00  0.10605915956E+03  0.10605915956E+03  0.00000000000E+00 0.  1.
         13   -1    0    0    0    0 -0.00000000000E+00 -0.00000000000E+00 -0.10000000000E+04  0.10000000000E+04  0.00000000000E+00 0.  1.
    9000005    2    1    2  501    0 -0.19066038789E-04  0.31452534870E-05 -0.89394097821E+03  0.11060590204E+04  0.65133408032E+03 0.  0.
         13    1    3    3    0    0 -0.25220734730E+03  0.16318454050E+03 -0.66056761950E+03  0.72566336563E+03  0.00000000000E+00 0.  1.
          3    1    3    3  501    0  0.25220732823E+03 -0.16318453735E+03 -0.23337335871E+03  0.38039565481E+03  0.00000000000E+00 0.  1.
         21    1    1    2  502  501  0.19066038774E-04 -0.31452534751E-05  0.13776368215E-03  0.13911232358E-03  0.00000000000E+00 0.  1.
<mgrwt>
<rscale>  1 0.65133408E+03</rscale>
<asrwt>0</asrwt>
<pdfrwt beam="1">  1        1 0.38567048E+00 0.65133408E+03</pdfrwt>
<pdfrwt beam="2">0</pdfrwt>
<totfact> 0.15485992E+00</totfact>
</mgrwt>
</event>
<event>
 6    1  0.3619848E-003  0.6445838E+03  0.7818608E-02  0.9816996E-01
          1   -1    0    0  502    0  0.00000000000E+00  0.00000000000E+00  0.10387588843E+03  0.10387588843E+03  0.00000000000E+00 0.  1.
         13   -1    0    0    0    0 -0.00000000000E+00 -0.00000000000E+00 -0.10000000000E+04  0.10000000000E+04  0.00000000000E+00 0.  1.
    9000005    2    1    2  501    0 -0.43407412812E-03  0.27626471012E-02 -0.89612737085E+03  0.11038715938E+04  0.64458376560E+03 0.  0.
         13    1    3    3    0    0 -0.16730472939E+03 -0.60125579466E+02 -0.90843264330E+03  0.92566507183E+03  0.00000000000E+00 0.  1.
          3    1    3    3  501    0  0.16730429532E+03  0.60128342113E+02  0.12305272450E+02  0.17820652201E+03  0.00000000000E+00 0.  1.
         21    1    1    2  502  501  0.43407412810E-03 -0.27626471012E-02  0.32592824405E-02  0.42945967659E-02  0.00000000000E+00 0. -1.
<mgrwt>
<rscale>  1 0.64458377E+03</rscale>
<asrwt>0</asrwt>
<pdfrwt beam="1">  1        1 0.37773130E+00 0.64458377E+03</pdfrwt>
<pdfrwt beam="2">0</pdfrwt>
<totfact> 0.16808851E+00</totfact>
</mgrwt>
</event>
<event>
 6    1  0.3619848E-003  0.6026931E+03  0.7818608E-02  0.9899834E-01
          1   -1    0    0  502    0  0.00000000000E+00  0.00000000000E+00  0.90817803067E+02  0.90817803067E+02  0.00000000000E+00 0.  1.
         13   -1    0    0    0    0 -0.00000000000E+00 -0.00000000000E+00 -0.10000000000E+04  0.10000000000E+04  0.00000000000E+00 0.  1.
    9000005    2    1    2  501    0  0.15757863789E-01 -0.26734815549E-03 -0.90918093094E+03  0.10908019922E+04  0.60269313974E+03 0.  0.
         13    1    3    3    0    0  0.63622244690E+02 -0.18609562500E+02 -0.98663803406E+03  0.98886233425E+03  0.00000000000E+00 0.  1.
          1    1    3    3  501    0 -0.63606486826E+02  0.18609295151E+02  0.77457103126E+02  0.10193965792E+03  0.00000000000E+00 0.  1.
         21    1    1    2  502  501 -0.15757863789E-01  0.26734815550E-03 -0.12659962008E-02  0.15810897907E-01  0.00000000000E+00 0. -1.
<mgrwt>
<rscale>  1 0.60269314E+03</rscale>
<asrwt>0</asrwt>
<pdfrwt beam="1">  1        1 0.33024725E+00 0.60269314E+03</pdfrwt>
<pdfrwt beam="2">0</pdfrwt>
<totfact> 0.27296044E+00</totfact>
</mgrwt>
</event>
<event>
 6    1  0.3619848E-003  0.6525443E+03  0.7818608E-02  0.9802017E-01
          3   -1    0    0  502    0  0.00000000000E+00  0.00000000000E+00  0.10707907820E+03  0.10707907820E+03  0.00000000000E+00 0.  1.
         13   -1    0    0    0    0 -0.00000000000E+00 -0.00000000000E+00 -0.10000000000E+04  0.10000000000E+04  0.00000000000E+00 0.  1.
    9000005    2    1    2  501    0  0.23507371984E-01 -0.76766716233E-01 -0.89354362041E+03  0.11064512253E+04  0.65254433253E+03 0.  0.
         13    1    3    3    0    0 -0.15989332004E+03 -0.23164411889E+03 -0.72666530068E+03  0.77927359176E+03  0.00000000000E+00 0.  1.
          3    1    3    3  501    0  0.15991682741E+03  0.23156735217E+03 -0.16687831973E+03  0.32717763352E+03  0.00000000000E+00 0.  1.
         21    1    1    2  502  501 -0.23507371984E-01  0.76766716233E-01  0.62269860808E+00  0.62785291412E+00  0.00000000000E+00 0. -1.
<mgrwt>
<rscale>  1 0.65254434E+03</rscale>
<asrwt>0</asrwt>
<pdfrwt beam="1">  1        3 0.38937929E+00 0.65254434E+03</pdfrwt>
<pdfrwt beam="2">0</pdfrwt>
<totfact> 0.67326863E-02</totfact>
</mgrwt>
</event>
<event>
 6    1  0.3619848E-003  0.6352560E+03  0.7818608E-02  0.9834845E-01
          1   -1    0    0  502    0  0.00000000000E+00  0.00000000000E+00  0.10093402411E+03  0.10093402411E+03  0.00000000000E+00 0.  1.
         13   -1    0    0    0    0 -0.00000000000E+00 -0.00000000000E+00 -0.10000000000E+04  0.10000000000E+04  0.00000000000E+00 0.  1.
    9000005    2    1    2  501    0 -0.60284019775E-01 -0.13771620527E-01 -0.89908870634E+03  0.11008681417E+04  0.63525597966E+03 0.  0.
         13    1    3    3    0    0  0.23426056318E+03  0.12146768123E+03 -0.14321590291E+03  0.30023857829E+03  0.00000000000E+00 0.  1.
          3    1    3    3  501    0 -0.23432084720E+03 -0.12148145285E+03 -0.75587280343E+03  0.80062956340E+03  0.00000000000E+00 0.  1.
         21    1    1    2  502  501  0.60284019775E-01  0.13771620527E-01  0.22730456566E-01  0.65882427307E-01  0.00000000000E+00 0. -1.
<mgrwt>
<rscale>  1 0.63525598E+03</rscale>
<asrwt>0</asrwt>
<pdfrwt beam="1">  1        1 0.36703359E+00 0.63525598E+03</pdfrwt>
<pdfrwt beam="2">0</pdfrwt>
<totfact> 0.18763384E+00</totfact>
</mgrwt>
</event>
<event>
 6    1  0.3619848E-003  0.6825770E+03  0.7818608E-02  0.9747501E-01
          1   -1    0    0  502    0  0.00000000000E+00  0.00000000000E+00  0.11665525599E+03  0.11665525599E+03  0.00000000000E+00 0.  1.
         13   -1    0    0    0    0 -0.00000000000E+00 -0.00000000000E+00 -0.10000000000E+04  0.10000000000E+04  0.00000000000E+00 0.  1.
    9000005    2    1    2  501    0 -0.18900012817E-01  0.27148740208E+00 -0.88339632029E+03  0.11163782673E+04  0.68257695753E+03 0.  0.
         13    1    3    3    0    0 -0.60665683348E+02 -0.26391483881E+03 -0.78101544599E+03  0.82662959913E+03  0.00000000000E+00 0.  1.
          3    1    3    3  501    0  0.60646783335E+02  0.26418632622E+03 -0.10238087431E+03  0.28974866818E+03  0.00000000000E+00 0.  1.
         21    1    1    2  502  501  0.18900012817E-01 -0.27148740208E+00  0.51576286585E-01  0.27698868806E+00  0.00000000000E+00 0.  1.
<mgrwt>
<rscale>  1 0.68257701E+03</rscale>
<asrwt>0</asrwt>
<pdfrwt beam="1">  1        1 0.42420183E+00 0.68257701E+03</pdfrwt>
<pdfrwt beam="2">0</pdfrwt>
<totfact> 0.10351945E+00</totfact>
</mgrwt>
</event>
<event>
 6    1  0.3619848E-003  0.6469785E+03  0.7818608E-02  0.9812465E-01
          1   -1    0    0  502    0  0.00000000000E+00  0.00000000000E+00  0.10465012099E+03  0.10465012099E+03  0.00000000000E+00 0.  1.
         13   -1    0    0    0    0 -0.00000000000E+00 -0.00000000000E+00 -0.10000000000E+04  0.10000000000E+04  0.00000000000E+00 0.  1.
    9000005    2    1    2  501    0  0.24855278061E-02  0.13578778926E-02 -0.89535422766E+03  0.11046449313E+04  0.64697854009E+03 0.  0.
         13    1    3    3    0    0  0.79463367431E+02  0.94668477466E+02  0.62740783934E+02  0.13861079813E+03  0.00000000000E+00 0.  1.
          1    1    3    3  501    0 -0.79460881904E+02 -0.94667119588E+02 -0.95809501160E+03  0.96603413321E+03  0.00000000000E+00 0.  1.
         21    1    1    2  502  501 -0.24855278061E-02 -0.13578778926E-02  0.43486482792E-02  0.51896457203E-02  0.00000000000E+00 0. -1.
<mgrwt>
<rscale>  1 0.64697854E+03</rscale>
<asrwt>0</asrwt>
<pdfrwt beam="1">  1        1 0.38054670E+00 0.64697854E+03</pdfrwt>
<pdfrwt beam="2">0</pdfrwt>
<totfact> 0.16327886E+00</totfact>
</mgrwt>
</event>
<event>
 6    1  0.3619848E-003  0.6274694E+03  0.7818608E-02  0.9849999E-01
          1   -1    0    0  502    0  0.00000000000E+00  0.00000000000E+00  0.98467872040E+02  0.98467872040E+02  0.00000000000E+00 0.  1.
         13   -1    0    0    0    0 -0.00000000000E+00 -0.00000000000E+00 -0.10000000000E+04  0.10000000000E+04  0.00000000000E+00 0.  1.
    9000005    2    1    2  501    0  0.49755508898E-02  0.93049973871E-02 -0.90156973094E+03  0.10984288166E+04  0.62746942984E+03 0.  0.
         13    1    3    3    0    0 -0.15691065902E+03  0.26913314798E+03 -0.38581488437E+03  0.49588983782E+03  0.00000000000E+00 0.  1.
          1    1    3    3  501    0  0.15691563457E+03 -0.26912384299E+03 -0.51575484658E+03  0.60253897883E+03  0.00000000000E+00 0.  1.
         21    1    1    2  502  501 -0.49755508898E-02 -0.93049973871E-02  0.37602984857E-01  0.39055390834E-01  0.00000000000E+00 0. -1.
<mgrwt>
<rscale>  1 0.62746943E+03</rscale>
<asrwt>0</asrwt>
<pdfrwt beam="1">  1        1 0.35806574E+00 0.62746943E+03</pdfrwt>
<pdfrwt beam="2">0</pdfrwt>
<totfact> 0.20567621E+00</totfact>
</mgrwt>
</event>
<event>
 6    1  0.3619848E-003  0.6549632E+03  0.7818608E-02  0.9797510E-01
          1   -1    0    0  502    0  0.00000000000E+00  0.00000000000E+00  0.10957319630E+03  0.10957319630E+03  0.00000000000E+00 0.  1.
         13   -1    0    0    0    0 -0.00000000000E+00 -0.00000000000E+00 -0.10000000000E+04  0.10000000000E+04  0.00000000000E+00 0.  1.
    9000005    2    1    2  501    0  0.39670815799E+00  0.14937554244E+00 -0.89273441770E+03  0.11072269711E+04  0.65496308693E+03 0.  0.
         13    1    3    3    0    0  0.14255042660E+03  0.29483804614E+03 -0.46302179665E+03  0.56713250810E+03  0.00000000000E+00 0.  1.
          3    1    3    3  501    0 -0.14215371844E+03 -0.29468867059E+03 -0.42971262105E+03  0.54009446297E+03  0.00000000000E+00 0.  1.
         21    1    1    2  502  501 -0.39670815799E+00 -0.14937554244E+00  0.23076140072E+01  0.23462252282E+01  0.00000000000E+00 0. -1.
<mgrwt>
<rscale>  1 0.65496322E+03</rscale>
<asrwt>0</asrwt>
<pdfrwt beam="1">  1        1 0.39844883E+00 0.65496322E+03</pdfrwt>
<pdfrwt beam="2">0</pdfrwt>
<totfact> 0.13580580E+00</totfact>
</mgrwt>
</event>
<event>
 6    1  0.3619848E-003  0.6238831E+03  0.7818608E-02  0.9857059E-01
          1   -1    0    0  502    0  0.00000000000E+00  0.00000000000E+00  0.10012037809E+03  0.10012037809E+03  0.00000000000E+00 0.  1.
         13   -1    0    0    0    0 -0.00000000000E+00 -0.00000000000E+00 -0.10000000000E+04  0.10000000000E+04  0.00000000000E+00 0.  1.
    9000005    2    1    2  501    0 -0.20920496205E+00 -0.47366342445E-01 -0.90268798826E+03  0.10973038320E+04  0.62388304159E+03 0.  0.
         13    1    3    3    0    0 -0.16755964401E+03 -0.20863825326E+02  0.10016388048E+02  0.16915041099E+03  0.00000000000E+00 0.  1.
          1    1    3    3  501    0  0.16735043905E+03  0.20816458984E+02 -0.91270437631E+03  0.92815342102E+03  0.00000000000E+00 0.  1.
         21    1    1    2  502  501  0.20920496205E+00  0.47366342445E-01  0.28083663503E+01  0.28165460841E+01  0.00000000000E+00 0. -1.
<mgrwt>
<rscale>  1 0.62388308E+03</rscale>
<asrwt>0</asrwt>
<pdfrwt beam="1">  1        1 0.36407487E+00 0.62388308E+03</pdfrwt>
<pdfrwt beam="2">0</pdfrwt>
<totfact> 0.19372238E+00</totfact>
</mgrwt>
</event>
<event>
 6    1  0.3619848E-003  0.6477617E+03  0.7818608E-02  0.9810988E-01
          1   -1    0    0  502    0  0.00000000000E+00  0.00000000000E+00  0.10490054202E+03  0.10490054202E+03  0.00000000000E+00 0.  1.
         13   -1    0    0    0    0 -0.00000000000E+00 -0.00000000000E+00 -0.10000000000E+04  0.10000000000E+04  0.00000000000E+00 0.  1.
    9000005    2    1    2  501    0 -0.25875948121E-03  0.10955722561E-02 -0.89510100787E+03  0.11048986265E+04  0.64776165405E+03 0.  0.
         13    1    3    3    0    0 -0.11239637882E+03  0.86809850148E+02 -0.94405830922E+03  0.95468056818E+03  0.00000000000E+00 0.  1.
          3    1    3    3  501    0  0.11239612006E+03 -0.86808754576E+02  0.48957301352E+02  0.15021805827E+03  0.00000000000E+00 0.  1.
         21    1    1    2  502  501  0.25875948121E-03 -0.10955722561E-02  0.15498840653E-02  0.19155614460E-02  0.00000000000E+00 0. -1.
<mgrwt>
<rscale>  1 0.64776165E+03</rscale>
<asrwt>0</asrwt>
<pdfrwt beam="1">  1        1 0.38145732E+00 0.64776165E+03</pdfrwt>
<pdfrwt beam="2">0</pdfrwt>
<totfact> 0.16175121E+00</totfact>
</mgrwt>
</event>
<event>
 6    1  0.3619848E-003  0.6527315E+03  0.7818608E-02  0.9801667E-01
          1   -1    0    0  502    0  0.00000000000E+00  0.00000000000E+00  0.10651685176E+03  0.10651685176E+03  0.00000000000E+00 0.  1.
         13   -1    0    0    0    0 -0.00000000000E+00 -0.00000000000E+00 -0.10000000000E+04  0.10000000000E+04  0.00000000000E+00 0.  1.
    9000005    2    1    2  501    0  0.41254121270E-02  0.44590630344E-03 -0.89348303846E+03  0.11065127009E+04  0.65273150463E+03 0.  0.
         13    1    3    3    0    0  0.18282462372E+03 -0.49259157457E+02 -0.89737401481E+03  0.91713217699E+03  0.00000000000E+00 0.  1.
          1    1    3    3  501    0 -0.18282049830E+03  0.49259603363E+02  0.38909763482E+01  0.18938052387E+03  0.00000000000E+00 0.  1.
         21    1    1    2  502  501 -0.41254121270E-02 -0.44590630345E-03 -0.10978690560E-03  0.41508927731E-02  0.00000000000E+00 0. -1.
<mgrwt>
<rscale>  1 0.65273150E+03</rscale>
<asrwt>0</asrwt>
<pdfrwt beam="1">  1        1 0.38733482E+00 0.65273150E+03</pdfrwt>
<pdfrwt beam="2">0</pdfrwt>
<totfact> 0.15221566E+00</totfact>
</mgrwt>
</event>
<event>
 6    1  0.3619848E-003  0.6396531E+03  0.7818608E-02  0.9826390E-01
          1   -1    0    0  502    0  0.00000000000E+00  0.00000000000E+00  0.10249852532E+03  0.10249852532E+03  0.00000000000E+00 0.  1.
         13   -1    0    0    0    0 -0.00000000000E+00 -0.00000000000E+00 -0.10000000000E+04  0.10000000000E+04  0.00000000000E+00 0.  1.
    9000005    2    1    2  501    0  0.10402017713E-01  0.91317749674E-02 -0.89771072525E+03  0.11022888174E+04  0.63965310180E+03 0.  0.
         13    1    3    3    0    0 -0.35322935688E+02  0.77135884513E+01  0.98755875545E+02  0.10516621219E+03  0.00000000000E+00 0.  1.
          3    1    3    3  501    0  0.35333337705E+02 -0.77044566763E+01 -0.99646660080E+03  0.99712260525E+03  0.00000000000E+00 0.  1.
         21    1    1    2  502  501 -0.10402017713E-01 -0.91317749674E-02  0.20925057070E+00  0.20970787449E+00  0.00000000000E+00 0.  1.
<mgrwt>
<rscale>  1 0.63965310E+03</rscale>
<asrwt>0</asrwt>
<pdfrwt beam="1">  1        1 0.37272270E+00 0.63965310E+03</pdfrwt>
<pdfrwt beam="2">0</pdfrwt>
<totfact> 0.17700237E+00</totfact>
</mgrwt>
</event>
<event>
 6    1  0.3619848E-003  0.5952336E+03  0.7818608E-02  0.9915345E-01
          3   -1    0    0  502    0  0.00000000000E+00  0.00000000000E+00  0.88607315938E+02  0.88607315938E+02  0.00000000000E+00 0.  1.
         13   -1    0    0    0    0 -0.00000000000E+00 -0.00000000000E+00 -0.10000000000E+04  0.10000000000E+04  0.00000000000E+00 0.  1.
    9000005    2    1    2  501    0 -0.12599511805E-03 -0.11596073591E-02 -0.91142424060E+03  0.10885757378E+04  0.59523355976E+03 0.  0.
         13    1    3    3    0    0 -0.14835040687E+03 -0.24997045991E+03 -0.57257132693E+03  0.64213004794E+03  0.00000000000E+00 0.  1.
          1    1    3    3  501    0  0.14835028087E+03  0.24996930030E+03 -0.33885291367E+03  0.44644568990E+03  0.00000000000E+00 0.  1.
         21    1    1    2  502  501  0.12599511806E-03  0.11596073591E-02  0.31556540889E-01  0.31578091090E-01  0.00000000000E+00 0.  1.
<mgrwt>
<rscale>  1 0.59523356E+03</rscale>
<asrwt>0</asrwt>
<pdfrwt beam="1">  1        3 0.32220910E+00 0.59523356E+03</pdfrwt>
<pdfrwt beam="2">0</pdfrwt>
<totfact> 0.15462419E-01</totfact>
</mgrwt>
</event>
<event>
 6    1  0.3619848E-003  0.6562878E+03  0.7818608E-02  0.9795052E-01
          1   -1    0    0  502    0  0.00000000000E+00  0.00000000000E+00  0.10767861285E+03  0.10767861285E+03  0.00000000000E+00 0.  1.
         13   -1    0    0    0    0 -0.00000000000E+00 -0.00000000000E+00 -0.10000000000E+04  0.10000000000E+04  0.00000000000E+00 0.  1.
    9000005    2    1    2  501    0 -0.97212520700E-06  0.61082613172E-05 -0.89232159063E+03  0.11076784093E+04  0.65628777017E+03 0.  0.
         13    1    3    3    0    0 -0.23264836114E+03 -0.16851302149E+03 -0.71385845429E+03  0.76949060495E+03  0.00000000000E+00 0.  1.
          3    1    3    3  501    0  0.23264836017E+03  0.16851302760E+03 -0.17846313634E+03  0.33818780432E+03  0.00000000000E+00 0.  1.
         21    1    1    2  502  501  0.97212520009E-06 -0.61082613241E-05  0.20348105238E-03  0.20357503423E-03  0.00000000000E+00 0.  1.
<mgrwt>
<rscale>  1 0.65628777E+03</rscale>
<asrwt>0</asrwt>
<pdfrwt beam="1">  1        1 0.39155942E+00 0.65628777E+03</pdfrwt>
<pdfrwt beam="2">0</pdfrwt>
<totfact> 0.14569456E+00</totfact>
</mgrwt>
</event>
<event>
 6    1  0.3619848E-003  0.6421690E+03  0.7818608E-02  0.9821585E-01
          1   -1    0    0  502    0  0.00000000000E+00  0.00000000000E+00  0.10309845963E+03  0.10309845963E+03  0.00000000000E+00 0.  1.
         13   -1    0    0    0    0 -0.00000000000E+00 -0.00000000000E+00 -0.10000000000E+04  0.10000000000E+04  0.00000000000E+00 0.  1.
    9000005    2    1    2  501    0 -0.18416987648E-03 -0.10121115653E-03 -0.89690473636E+03  0.11030952567E+04  0.64216901149E+03 0.  0.
         13    1    3    3    0    0  0.34193179149E+02  0.22641015965E+03 -0.83510010088E+03  0.86592315617E+03  0.00000000000E+00 0.  1.
          3    1    3    3  501    0 -0.34193363319E+02 -0.22641026086E+03 -0.61804635478E+02  0.23717210057E+03  0.00000000000E+00 0.  1.
         21    1    1    2  502  501  0.18416987649E-03  0.10121115655E-03  0.31959930632E-02  0.32028946129E-02  0.00000000000E+00 0. -1.
<mgrwt>
<rscale>  1 0.64216901E+03</rscale>
<asrwt>0</asrwt>
<pdfrwt beam="1">  1        1 0.37490428E+00 0.64216901E+03</pdfrwt>
<pdfrwt beam="2">0</pdfrwt>
<totfact> 0.17305403E+00</totfact>
</mgrwt>
</event>
<event>
 6    1  0.3619848E-003  0.6532281E+03  0.7818608E-02  0.9800741E-01
          3   -1    0    0  502    0  0.00000000000E+00  0.00000000000E+00  0.10667674666E+03  0.10667674666E+03  0.00000000000E+00 0.  1.
         13   -1    0    0    0    0 -0.00000000000E+00 -0.00000000000E+00 -0.10000000000E+04  0.10000000000E+04  0.00000000000E+00 0.  1.
    9000005    2    1    2  501    0 -0.21704889420E-04  0.21407595113E-04 -0.89332326615E+03  0.11066767136E+04  0.65322805403E+03 0.  0.
         13    1    3    3    0    0  0.88119776265E+02  0.28523610299E+03 -0.67111143884E+03  0.73451704728E+03  0.00000000000E+00 0.  1.
          3    1    3    3  501    0 -0.88119797970E+02 -0.28523608158E+03 -0.22221182731E+03  0.37215966631E+03  0.00000000000E+00 0.  1.
         21    1    1    2  502  501  0.21704889420E-04 -0.21407595140E-04  0.12802446535E-04  0.33064935985E-04  0.00000000000E+00 0.  1.
<mgrwt>
<rscale>  1 0.65322805E+03</rscale>
<asrwt>0</asrwt>
<pdfrwt beam="1">  1        3 0.38791626E+00 0.65322805E+03</pdfrwt>
<pdfrwt beam="2">0</pdfrwt>
<totfact> 0.68523692E-02</totfact>
</mgrwt>
</event>
<event>
 6    1  0.3619848E-003  0.6135727E+03  0.7818608E-02  0.9877640E-01
          1   -1    0    0  502    0  0.00000000000E+00  0.00000000000E+00  0.94126386932E+02  0.94126386932E+02  0.00000000000E+00 0.  1.
         13   -1    0    0    0    0 -0.00000000000E+00 -0.00000000000E+00 -0.10000000000E+04  0.10000000000E+04  0.00000000000E+00 0.  1.
    9000005    2    1    2  501    0  0.18654775971E-03 -0.16054463439E-03 -0.90588211902E+03  0.10941178774E+04  0.61357274723E+03 0.  0.
         13    1    3    3    0    0  0.19892175883E+03 -0.23137815677E+01 -0.86939449629E+03  0.89186434501E+03  0.00000000000E+00 0.  1.
          3    1    3    3  501    0 -0.19892157228E+03  0.23136210230E+01 -0.36487622727E+02  0.20225353241E+03  0.00000000000E+00 0.  1.
         21    1    1    2  502  501 -0.18654775971E-03  0.16054463439E-03  0.85059474555E-02  0.85095074335E-02  0.00000000000E+00 0. -1.
<mgrwt>
<rscale>  1 0.61357275E+03</rscale>
<asrwt>0</asrwt>
<pdfrwt beam="1">  1        1 0.34227849E+00 0.61357275E+03</pdfrwt>
<pdfrwt beam="2">0</pdfrwt>
<totfact> 0.24158033E+00</totfact>
</mgrwt>
</event>
<event>
 6    1  0.3619848E-003  0.6599312E+03  0.7818608E-02  0.9788320E-01
          3   -1    0    0  502    0  0.00000000000E+00  0.00000000000E+00  0.10887731837E+03  0.10887731837E+03  0.00000000000E+00 0.  1.
         13   -1    0    0    0    0 -0.00000000000E+00 -0.00000000000E+00 -0.10000000000E+04  0.10000000000E+04  0.00000000000E+00 0.  1.
    9000005    2    1    2  501    0  0.10639325694E-04  0.12148602210E-04 -0.89112267596E+03  0.11088773013E+04  0.65993124311E+03 0.  0.
         13    1    3    3    0    0 -0.29040765561E+03 -0.94751484311E+02 -0.65517976064E+03  0.72289347000E+03  0.00000000000E+00 0.  1.
          3    1    3    3  501    0  0.29040766625E+03  0.94751496460E+02 -0.23594291531E+03  0.38598383125E+03  0.00000000000E+00 0.  1.
         21    1    1    2  502  501 -0.10639325657E-04 -0.12148602221E-04 -0.56723930827E-05  0.17116069339E-04  0.00000000000E+00 0.  1.
<mgrwt>
<rscale>  1 0.65993124E+03</rscale>
<asrwt>0</asrwt>
<pdfrwt beam="1">  1        3 0.39591836E+00 0.65993124E+03</pdfrwt>
<pdfrwt beam="2">0</pdfrwt>
<totfact> 0.62126807E-02</totfact>
</mgrwt>
</event>
<event>
 6    1  0.3619848E-003  0.6489324E+03  0.7818608E-02  0.9808785E-01
          1   -1    0    0  502    0  0.00000000000E+00  0.00000000000E+00  0.11011266354E+03  0.11011266354E+03  0.00000000000E+00 0.  1.
         13   -1    0    0    0    0 -0.00000000000E+00 -0.00000000000E+00 -0.10000000000E+04  0.10000000000E+04  0.00000000000E+00 0.  1.
    9000005    2    1    2  501    0 -0.71256697755E-01  0.17967745224E+00 -0.89471954766E+03  0.11052765880E+04  0.64893237680E+03 0.  0.
         13    1    3    3    0    0  0.25396397099E+03  0.19563445149E+03 -0.53297874723E+03  0.62196212278E+03  0.00000000000E+00 0.  1.
          3    1    3    3  501    0 -0.25403522769E+03 -0.19545477404E+03 -0.36174080043E+03  0.48331446523E+03  0.00000000000E+00 0.  1.
         21    1    1    2  502  501  0.71256697755E-01 -0.17967745224E+00  0.48322112049E+01  0.48360755404E+01  0.00000000000E+00 0. -1.
<mgrwt>
<rscale>  1 0.64893241E+03</rscale>
<asrwt>0</asrwt>
<pdfrwt beam="1">  1        1 0.40041053E+00 0.64893241E+03</pdfrwt>
<pdfrwt beam="2">0</pdfrwt>
<totfact> 0.13325183E+00</totfact>
</mgrwt>
</event>
<event>
 6    1  0.3619848E-003  0.6329511E+03  0.7818608E-02  0.9839307E-01
          1   -1    0    0  502    0  0.00000000000E+00  0.00000000000E+00  0.10017138421E+03  0.10017138421E+03  0.00000000000E+00 0.  1.
         13   -1    0    0    0    0 -0.00000000000E+00 -0.00000000000E+00 -0.10000000000E+04  0.10000000000E+04  0.00000000000E+00 0.  1.
    9000005    2    1    2  501    0 -0.75273294607E-03 -0.12451282606E-03 -0.89984322833E+03  0.11001567518E+04  0.63295105885E+03 0.  0.
         13    1    3    3    0    0 -0.31610681539E+03  0.41245995834E+01 -0.47549507117E+03  0.57099570381E+03  0.00000000000E+00 0.  1.
          3    1    3    3  501    0  0.31610606266E+03 -0.41247240962E+01 -0.42434815715E+03  0.52916104796E+03  0.00000000000E+00 0.  1.
         21    1    1    2  502  501  0.75273294609E-03  0.12451282606E-03  0.14612536178E-01  0.14632440804E-01  0.00000000000E+00 0.  1.
<mgrwt>
<rscale>  1 0.63295106E+03</rscale>
<asrwt>0</asrwt>
<pdfrwt beam="1">  1        1 0.36426035E+00 0.63295106E+03</pdfrwt>
<pdfrwt beam="2">0</pdfrwt>
<totfact> 0.19304096E+00</totfact>
</mgrwt>
</event>
<event>
 6    1  0.3619848E-003  0.6409569E+03  0.7818608E-02  0.9823897E-01
          1   -1    0    0  502    0  0.00000000000E+00  0.00000000000E+00  0.10270773846E+03  0.10270773846E+03  0.00000000000E+00 0.  1.
         13   -1    0    0    0    0 -0.00000000000E+00 -0.00000000000E+00 -0.10000000000E+04  0.10000000000E+04  0.00000000000E+00 0.  1.
    9000005    2    1    2  501    0 -0.21429498446E-04  0.30596180815E-03 -0.89729353892E+03  0.11027064248E+04  0.64095691296E+03 0.  0.
         13    1    3    3    0    0 -0.18466849254E+03  0.63082286467E+02 -0.11295815665E+02  0.19547230610E+03  0.00000000000E+00 0.  1.
          1    1    3    3  501    0  0.18466847111E+03 -0.63081980505E+02 -0.88599772325E+03  0.90723411868E+03  0.00000000000E+00 0.  1.
         21    1    1    2  502  501  0.21429498431E-04 -0.30596180815E-03  0.12773714456E-02  0.13136779139E-02  0.00000000000E+00 0.  1.
<mgrwt>
<rscale>  1 0.64095691E+03</rscale>
<asrwt>0</asrwt>
<pdfrwt beam="1">  1        1 0.37348347E+00 0.64095691E+03</pdfrwt>
<pdfrwt beam="2">0</pdfrwt>
<totfact> 0.17560213E+00</totfact>
</mgrwt>
</event>
<event>
 6    1  0.3619848E-003  0.6466237E+03  0.7818608E-02  0.9813135E-01
          1   -1    0    0  502    0  0.00000000000E+00  0.00000000000E+00  0.10453058849E+03  0.10453058849E+03  0.00000000000E+00 0.  1.
         13   -1    0    0    0    0 -0.00000000000E+00 -0.00000000000E+00 -0.10000000000E+04  0.10000000000E+04  0.00000000000E+00 0.  1.
    9000005    2    1    2  501    0 -0.51979686759E-05 -0.56097453012E-05 -0.89546943984E+03  0.11045305591E+04  0.64662372243E+03 0.  0.
         13    1    3    3    0    0  0.28232287638E+03  0.14592283622E+03 -0.34623440329E+03  0.46997653418E+03  0.00000000000E+00 0.  1.
          1    1    3    3  501    0 -0.28232288158E+03 -0.14592284183E+03 -0.54923503655E+03  0.63455402497E+03  0.00000000000E+00 0.  1.
         21    1    1    2  502  501  0.51979686520E-05  0.56097453178E-05  0.28328301422E-04  0.29342474028E-04  0.00000000000E+00 0. -1.
<mgrwt>
<rscale>  1 0.64662372E+03</rscale>
<asrwt>0</asrwt>
<pdfrwt beam="1">  1        1 0.38011203E+00 0.64662372E+03</pdfrwt>
<pdfrwt beam="2">0</pdfrwt>
<totfact> 0.16401231E+00</totfact>
</mgrwt>
</event>
<event>
 6    1  0.3619848E-003  0.6549596E+03  0.7818608E-02  0.9797517E-01
          1   -1    0    0  502    0  0.00000000000E+00  0.00000000000E+00  0.10724305061E+03  0.10724305061E+03  0.00000000000E+00 0.  1.
         13   -1    0    0    0    0 -0.00000000000E+00 -0.00000000000E+00 -0.10000000000E+04  0.10000000000E+04  0.00000000000E+00 0.  1.
    9000005    2    1    2  501    0 -0.26390303418E-04 -0.24697593858E-04 -0.89275695843E+03  0.11072430134E+04  0.65495961998E+03 0.  0.
         13    1    3    3    0    0  0.20243435962E+03 -0.13003523008E+03 -0.70808858999E+02  0.25080415772E+03  0.00000000000E+00 0.  1.
          3    1    3    3  501    0 -0.20243438601E+03  0.13003520538E+03 -0.82194809943E+03  0.85643885563E+03  0.00000000000E+00 0.  1.
         21    1    1    2  502  501  0.26390303411E-04  0.24697593842E-04  0.90441303358E-05  0.37258764731E-04  0.00000000000E+00 0.  1.
<mgrwt>
<rscale>  1 0.65495962E+03</rscale>
<asrwt>0</asrwt>
<pdfrwt beam="1">  1        1 0.38997555E+00 0.65495962E+03</pdfrwt>
<pdfrwt beam="2">0</pdfrwt>
<totfact> 0.14810760E+00</totfact>
</mgrwt>
</event>
<event>
 6    1  0.3619848E-003  0.5013545E+03  0.7818608E-02  0.1013426E+00
          1   -1    0    0  502    0  0.00000000000E+00  0.00000000000E+00  0.63307169073E+02  0.63307169073E+02  0.00000000000E+00 0.  1.
         13   -1    0    0    0    0 -0.00000000000E+00 -0.00000000000E+00 -0.10000000000E+04  0.10000000000E+04  0.00000000000E+00 0.  1.
    9000005    2    1    2  501    0 -0.10798570000E-01 -0.26794959770E-01 -0.93716043142E+03  0.10628386770E+04  0.50135454354E+03 0.  0.
         13    1    3    3    0    0 -0.85385066057E+02  0.18974079739E+03 -0.76492174573E+03  0.79271524320E+03  0.00000000000E+00 0.  1.
          3    1    3    3  501    0  0.85374267487E+02 -0.18976759235E+03 -0.17223868569E+03  0.27012343383E+03  0.00000000000E+00 0.  1.
         21    1    1    2  502  501  0.10798570000E-01  0.26794959770E-01  0.46760049295E+00  0.46849204902E+00  0.00000000000E+00 0. -1.
<mgrwt>
<rscale>  1 0.50135454E+03</rscale>
<asrwt>0</asrwt>
<pdfrwt beam="1">  1        1 0.23020837E+00 0.50135454E+03</pdfrwt>
<pdfrwt beam="2">0</pdfrwt>
<totfact> 0.75360158E+00</totfact>
</mgrwt>
</event>
<event>
 6    1  0.3619848E-003  0.6487414E+03  0.7818608E-02  0.9809144E-01
          1   -1    0    0  502    0  0.00000000000E+00  0.00000000000E+00  0.10753997678E+03  0.10753997678E+03  0.00000000000E+00 0.  1.
         13   -1    0    0    0    0 -0.00000000000E+00 -0.00000000000E+00 -0.10000000000E+04  0.10000000000E+04  0.00000000000E+00 0.  1.
    9000005    2    1    2  501    0  0.49052579743E-01 -0.22313723693E+00 -0.89477744550E+03  0.11052113200E+04  0.64874134497E+03 0.  0.
         13    1    3    3    0    0 -0.29054053748E+03 -0.13994810752E+03 -0.38757880228E+03  0.50419897332E+03  0.00000000000E+00 0.  1.
          1    1    3    3  501    0  0.29058959006E+03  0.13972497029E+03 -0.50719864322E+03  0.60101234668E+03  0.00000000000E+00 0.  1.
         21    1    1    2  502  501 -0.49052579743E-01  0.22313723693E+00  0.23174222791E+01  0.23286567806E+01  0.00000000000E+00 0.  1.
<mgrwt>
<rscale>  1 0.64874139E+03</rscale>
<asrwt>0</asrwt>
<pdfrwt beam="1">  1        1 0.39105529E+00 0.64874139E+03</pdfrwt>
<pdfrwt beam="2">0</pdfrwt>
<totfact> 0.14665316E+00</totfact>
</mgrwt>
</event>
<event>
 6    1  0.3619848E-003  0.6527340E+03  0.7818608E-02  0.9801663E-01
          1   -1    0    0  502    0  0.00000000000E+00  0.00000000000E+00  0.10651674922E+03  0.10651674922E+03  0.00000000000E+00 0.  1.
         13   -1    0    0    0    0 -0.00000000000E+00 -0.00000000000E+00 -0.10000000000E+04  0.10000000000E+04  0.00000000000E+00 0.  1.
    9000005    2    1    2  501    0 -0.23059437902E-02  0.27914870518E-02 -0.89348089889E+03  0.11065124317E+04  0.65273397703E+03 0.  0.
         13    1    3    3    0    0 -0.12919156944E+03  0.18140203429E+03 -0.42306960186E+02  0.22668709389E+03  0.00000000000E+00 0.  1.
          1    1    3    3  501    0  0.12918926349E+03 -0.18139924280E+03 -0.85117393871E+03  0.87982533779E+03  0.00000000000E+00 0.  1.
         21    1    1    2  502  501  0.23059437902E-02 -0.27914870518E-02 -0.23518852011E-02  0.43175387343E-02  0.00000000000E+00 0. -1.
<mgrwt>
<rscale>  1 0.65273398E+03</rscale>
<asrwt>0</asrwt>
<pdfrwt beam="1">  1        1 0.38733445E+00 0.65273398E+03</pdfrwt>
<pdfrwt beam="2">0</pdfrwt>
<totfact> 0.15221617E+00</totfact>
</mgrwt>
</event>
<event>
 6    1  0.3619848E-003  0.6523362E+03  0.7818608E-02  0.9802405E-01
          1   -1    0    0  502    0  0.00000000000E+00  0.00000000000E+00  0.10638664354E+03  0.10638664354E+03  0.00000000000E+00 0.  1.
         13   -1    0    0    0    0 -0.00000000000E+00 -0.00000000000E+00 -0.10000000000E+04  0.10000000000E+04  0.00000000000E+00 0.  1.
    9000005    2    1    2  501    0 -0.31392155114E-03 -0.16989062333E-03 -0.89361432462E+03  0.11063856117E+04  0.65233623274E+03 0.  0.
         13    1    3    3    0    0 -0.28831665355E+03  0.12764462121E+03 -0.30525112524E+03  0.43885976291E+03  0.00000000000E+00 0.  1.
          1    1    3    3  501    0  0.28831633962E+03 -0.12764479110E+03 -0.58836319938E+03  0.66752584877E+03  0.00000000000E+00 0.  1.
         21    1    1    2  502  501  0.31392155113E-03  0.16989062333E-03  0.96816314507E-03  0.10318669680E-02  0.00000000000E+00 0.  1.
<mgrwt>
<rscale>  1 0.65233623E+03</rscale>
<asrwt>0</asrwt>
<pdfrwt beam="1">  1        1 0.38686134E+00 0.65233623E+03</pdfrwt>
<pdfrwt beam="2">0</pdfrwt>
<totfact> 0.15296346E+00</totfact>
</mgrwt>
</event>
<event>
 6    1  0.3619848E-003  0.6483863E+03  0.7818608E-02  0.9809812E-01
          1   -1    0    0  502    0  0.00000000000E+00  0.00000000000E+00  0.10510381447E+03  0.10510381447E+03  0.00000000000E+00 0.  1.
         13   -1    0    0    0    0 -0.00000000000E+00 -0.00000000000E+00 -0.10000000000E+04  0.10000000000E+04  0.00000000000E+00 0.  1.
    9000005    2    1    2  501    0  0.85264300168E-04  0.33594181730E-05 -0.89489881523E+03  0.11051011834E+04  0.64838625526E+03 0.  0.
         13    1    3    3    0    0  0.16142213595E+03  0.13440821406E+03 -0.26570978703E+02  0.21172786990E+03  0.00000000000E+00 0.  1.
          3    1    3    3  501    0 -0.16142205069E+03 -0.13440821070E+03 -0.86832783653E+03  0.89337331348E+03  0.00000000000E+00 0.  1.
         21    1    1    2  502  501 -0.85264300149E-04 -0.33594181551E-05  0.26297012867E-02  0.26310853547E-02  0.00000000000E+00 0. -1.
<mgrwt>
<rscale>  1 0.64838626E+03</rscale>
<asrwt>0</asrwt>
<pdfrwt beam="1">  1        1 0.38219649E+00 0.64838626E+03</pdfrwt>
<pdfrwt beam="2">0</pdfrwt>
<totfact> 0.16052151E+00</totfact>
</mgrwt>
</event>
<event>
 6    1  0.3619848E-003  0.6547105E+03  0.7818608E-02  0.9797980E-01
          1   -1    0    0  502    0  0.00000000000E+00  0.00000000000E+00  0.10716390101E+03  0.10716390101E+03  0.00000000000E+00 0.  1.
         13   -1    0    0    0    0 -0.00000000000E+00 -0.00000000000E+00 -0.10000000000E+04  0.10000000000E+04  0.00000000000E+00 0.  1.
    9000005    2    1    2  501    0  0.26875588023E-03  0.12836091500E-03 -0.89283852389E+03  0.11071614579E+04  0.65471051929E+03 0.  0.
         13    1    3    3    0    0  0.15459709335E+03 -0.23436389867E+03 -0.73107608166E+03  0.78313404692E+03  0.00000000000E+00 0.  1.
          3    1    3    3  501    0 -0.15459682459E+03  0.23436402703E+03 -0.16176244223E+03  0.32402741096E+03  0.00000000000E+00 0.  1.
         21    1    1    2  502  501 -0.26875588023E-03 -0.12836091499E-03  0.24249026106E-02  0.24431248266E-02  0.00000000000E+00 0.  1.
<mgrwt>
<rscale>  1 0.65471052E+03</rscale>
<asrwt>0</asrwt>
<pdfrwt beam="1">  1        1 0.38968773E+00 0.65471052E+03</pdfrwt>
<pdfrwt beam="2">0</pdfrwt>
<totfact> 0.14855036E+00</totfact>
</mgrwt>
</event>
<event>
 6    1  0.3619848E-003  0.6400143E+03  0.7818608E-02  0.9825699E-01
          1   -1    0    0  502    0  0.00000000000E+00  0.00000000000E+00  0.10240858524E+03  0.10240858524E+03  0.00000000000E+00 0.  1.
         13   -1    0    0    0    0 -0.00000000000E+00 -0.00000000000E+00 -0.10000000000E+04  0.10000000000E+04  0.00000000000E+00 0.  1.
    9000005    2    1    2  501    0  0.25001329108E-02 -0.18745512247E-02 -0.89759474291E+03  0.11024040200E+04  0.64001429738E+03 0.  0.
         13    1    3    3    0    0 -0.93987731166E+02  0.27113135238E+03 -0.69274199356E+03  0.74982489522E+03  0.00000000000E+00 0.  1.
          1    1    3    3  501    0  0.93990231299E+02 -0.27113322693E+03 -0.20485274935E+03  0.35257912480E+03  0.00000000000E+00 0.  1.
         21    1    1    2  502  501 -0.25001329108E-02  0.18745512247E-02  0.33281509225E-02  0.45652158140E-02  0.00000000000E+00 0. -1.
<mgrwt>
<rscale>  1 0.64001430E+03</rscale>
<asrwt>0</asrwt>
<pdfrwt beam="1">  1        1 0.37239564E+00 0.64001430E+03</pdfrwt>
<pdfrwt beam="2">0</pdfrwt>
<totfact> 0.17757771E+00</totfact>
</mgrwt>
</event>
<event>
 6    1  0.3619848E-003  0.6605270E+03  0.7818608E-02  0.9787224E-01
          1   -1    0    0  502    0  0.00000000000E+00  0.00000000000E+00  0.10907468798E+03  0.10907468798E+03  0.00000000000E+00 0.  1.
         13   -1    0    0    0    0 -0.00000000000E+00 -0.00000000000E+00 -0.10000000000E+04  0.10000000000E+04  0.00000000000E+00 0.  1.
    9000005    2    1    2  501    0 -0.79639680091E-03 -0.73257779741E-03 -0.89092551968E+03  0.11090735861E+04  0.66052701525E+03 0.  0.
         13    1    3    3    0    0 -0.10523344987E+03 -0.20005591026E+03 -0.41166223649E+02  0.22976314798E+03  0.00000000000E+00 0.  1.
          1    1    3    3  501    0  0.10523265347E+03  0.20005517768E+03 -0.84975929603E+03  0.87931043816E+03  0.00000000000E+00 0.  1.
         21    1    1    2  502  501  0.79639680090E-03  0.73257779741E-03  0.20765795065E-03  0.11018347962E-02  0.00000000000E+00 0. -1.
<mgrwt>
<rscale>  1 0.66052702E+03</rscale>
<asrwt>0</asrwt>
<pdfrwt beam="1">  1        1 0.39663607E+00 0.66052702E+03</pdfrwt>
<pdfrwt beam="2">0</pdfrwt>
<totfact> 0.13820918E+00</totfact>
</mgrwt>
</event>
<event>
 6    1  0.3619848E-003  0.6572905E+03  0.7818608E-02  0.9793194E-01
          1   -1    0    0  502    0  0.00000000000E+00  0.00000000000E+00  0.11193369378E+03  0.11193369378E+03  0.00000000000E+00 0.  1.
         13   -1    0    0    0    0 -0.00000000000E+00 -0.00000000000E+00 -0.10000000000E+04  0.10000000000E+04  0.00000000000E+00 0.  1.
    9000005    2    1    2  501    0 -0.10233629839E+00  0.39489141435E-01 -0.89199145847E+03  0.11080070091E+04  0.65729046722E+03 0.  0.
         13    1    3    3    0    0 -0.12339030406E+03 -0.26820688164E+03 -0.20259223717E+03  0.35805546087E+03  0.00000000000E+00 0.  1.
          1    1    3    3  501    0  0.12328796776E+03  0.26824637078E+03 -0.68939922129E+03  0.74995154827E+03  0.00000000000E+00 0.  1.
         21    1    1    2  502  501  0.10233629839E+00 -0.39489141435E-01  0.39251522424E+01  0.39266846367E+01  0.00000000000E+00 0. -1.
<mgrwt>
<rscale>  1 0.65729048E+03</rscale>
<asrwt>0</asrwt>
<pdfrwt beam="1">  1        1 0.40703247E+00 0.65729048E+03</pdfrwt>
<pdfrwt beam="2">0</pdfrwt>
<totfact> 0.12427973E+00</totfact>
</mgrwt>
</event>
<event>
 6    1  0.3619848E-003  0.6501996E+03  0.7818608E-02  0.9806405E-01
          1   -1    0    0  502    0  0.00000000000E+00  0.00000000000E+00  0.10568992591E+03  0.10568992591E+03  0.00000000000E+00 0.  1.
         13   -1    0    0    0    0 -0.00000000000E+00 -0.00000000000E+00 -0.10000000000E+04  0.10000000000E+04  0.00000000000E+00 0.  1.
    9000005    2    1    2  501    0 -0.25851246619E-05 -0.44522992084E-05 -0.89431011582E+03  0.11056898839E+04  0.65019961245E+03 0.  0.
         13    1    3    3    0    0 -0.27164803134E+03  0.10311570074E+03 -0.69513298750E+03  0.75341580218E+03  0.00000000000E+00 0.  1.
          3    1    3    3  501    0  0.27164802875E+03 -0.10311570519E+03 -0.19917712832E+03  0.35227408168E+03  0.00000000000E+00 0.  1.
         21    1    1    2  502  501  0.25851246141E-05  0.44522992199E-05  0.41722367622E-04  0.42038812989E-04  0.00000000000E+00 0. -1.
<mgrwt>
<rscale>  1 0.65019961E+03</rscale>
<asrwt>0</asrwt>
<pdfrwt beam="1">  1        1 0.38432781E+00 0.65019961E+03</pdfrwt>
<pdfrwt beam="2">0</pdfrwt>
<totfact> 0.15702506E+00</totfact>
</mgrwt>
</event>
<event>
 6    1  0.3619848E-003  0.6096523E+03  0.7818608E-02  0.9885581E-01
          1   -1    0    0  502    0  0.00000000000E+00  0.00000000000E+00  0.92918999338E+02  0.92918999338E+02  0.00000000000E+00 0.  1.
         13   -1    0    0    0    0 -0.00000000000E+00 -0.00000000000E+00 -0.10000000000E+04  0.10000000000E+04  0.00000000000E+00 0.  1.
    9000005    2    1    2  501    0 -0.19699394329E-05 -0.12784213880E-04 -0.90708102534E+03  0.10929189715E+04  0.60965227111E+03 0.  0.
         13    1    3    3    0    0  0.24092247313E+03 -0.10487766966E+03 -0.17653612852E+03  0.31655642202E+03  0.00000000000E+00 0.  1.
          1    1    3    3  501    0 -0.24092247510E+03  0.10487765687E+03 -0.73054489682E+03  0.77636254945E+03  0.00000000000E+00 0.  1.
         21    1    1    2  502  501  0.19699394244E-05  0.12784213885E-04  0.24682179997E-04  0.27866230377E-04  0.00000000000E+00 0.  1.
<mgrwt>
<rscale>  1 0.60965227E+03</rscale>
<asrwt>0</asrwt>
<pdfrwt beam="1">  1        1 0.33788798E+00 0.60965227E+03</pdfrwt>
<pdfrwt beam="2">0</pdfrwt>
<totfact> 0.25260014E+00</totfact>
</mgrwt>
</event>
<event>
 6    1  0.3619848E-003  0.6635473E+03  0.7818608E-02  0.9781686E-01
          1   -1    0    0  502    0  0.00000000000E+00  0.00000000000E+00  0.11007747537E+03  0.11007747537E+03  0.00000000000E+00 0.  1.
         13   -1    0    0    0    0 -0.00000000000E+00 -0.00000000000E+00 -0.10000000000E+04  0.10000000000E+04  0.00000000000E+00 0.  1.
    9000005    2    1    2  501    0 -0.10749672508E-01  0.84591737004E-03 -0.88991284914E+03  0.11100629879E+04  0.66354725376E+03 0.  0.
         13    1    3    3    0    0 -0.24713337333E+02 -0.23022695802E+03 -0.47453162111E+02  0.23636201859E+03  0.00000000000E+00 0.  1.
          3    1    3    3  501    0  0.24702587661E+02  0.23022780393E+03 -0.84245968703E+03  0.87370096933E+03  0.00000000000E+00 0.  1.
         21    1    1    2  502  501  0.10749672508E-01 -0.84591737005E-03 -0.96754894334E-02  0.14487447360E-01  0.00000000000E+00 0. -1.
<mgrwt>
<rscale>  1 0.66354725E+03</rscale>
<asrwt>0</asrwt>
<pdfrwt beam="1">  1        1 0.40028257E+00 0.66354725E+03</pdfrwt>
<pdfrwt beam="2">0</pdfrwt>
<totfact> 0.13305924E+00</totfact>
</mgrwt>
</event>
<event>
 6    1  0.3619848E-003  0.7288027E+03  0.7818608E-02  0.9669205E-01
          1   -1    0    0  502    0  0.00000000000E+00  0.00000000000E+00  0.13282913291E+03  0.13282913291E+03  0.00000000000E+00 0.  1.
         13   -1    0    0    0    0 -0.00000000000E+00 -0.00000000000E+00 -0.10000000000E+04  0.10000000000E+04  0.00000000000E+00 0.  1.
    9000005    2    1    2  501    0  0.79108381956E-01  0.66332400237E-01 -0.86710497993E+03  0.11327066615E+04  0.72880266478E+03 0.  0.
         13    1    3    3    0    0 -0.31137243583E+03  0.64101576224E+02 -0.71026384321E+03  0.77816227924E+03  0.00000000000E+00 0.  1.
          3    1    3    3  501    0  0.31145154421E+03 -0.64035243823E+02 -0.15684113672E+03  0.35454438228E+03  0.00000000000E+00 0.  1.
         21    1    1    2  502  501 -0.79108381956E-01 -0.66332400237E-01 -0.65887157927E-01  0.12247138848E+00  0.00000000000E+00 0.  1.
<mgrwt>
<rscale>  1 0.72880267E+03</rscale>
<asrwt>0</asrwt>
<pdfrwt beam="1">  1        1 0.48301605E+00 0.72880267E+03</pdfrwt>
<pdfrwt beam="2">0</pdfrwt>
<totfact> 0.54809193E-01</totfact>
</mgrwt>
</event>
<event>
 6    1  0.3619848E-003  0.6733795E+03  0.7818608E-02  0.9763872E-01
          1   -1    0    0  502    0  0.00000000000E+00  0.00000000000E+00  0.11361263667E+03  0.11361263667E+03  0.00000000000E+00 0.  1.
         13   -1    0    0    0    0 -0.00000000000E+00 -0.00000000000E+00 -0.10000000000E+04  0.10000000000E+04  0.00000000000E+00 0.  1.
    9000005    2    1    2  501    0  0.45093073218E+00 -0.97795510366E-01 -0.88637771824E+03  0.11131511223E+04  0.67337934983E+03 0.  0.
         13    1    3    3    0    0 -0.23678730801E+03 -0.20877646748E+03 -0.63592601307E+03  0.70997023650E+03  0.00000000000E+00 0.  1.
          3    1    3    3  501    0  0.23723823874E+03  0.20867867197E+03 -0.25045170517E+03  0.40318088580E+03  0.00000000000E+00 0.  1.
         21    1    1    2  502  501 -0.45093073218E+00  0.97795510366E-01 -0.96450857854E-02  0.46151437112E+00  0.00000000000E+00 0. -1.
<mgrwt>
<rscale>  1 0.67337951E+03</rscale>
<asrwt>0</asrwt>
<pdfrwt beam="1">  1        1 0.41313773E+00 0.67337951E+03</pdfrwt>
<pdfrwt beam="2">0</pdfrwt>
<totfact> 0.11632907E+00</totfact>
</mgrwt>
</event>
<event>
 6    1  0.3619848E-003  0.6419046E+03  0.7818608E-02  0.9822089E-01
          1   -1    0    0  502    0  0.00000000000E+00  0.00000000000E+00  0.10311115908E+03  0.10311115908E+03  0.00000000000E+00 0.  1.
         13   -1    0    0    0    0 -0.00000000000E+00 -0.00000000000E+00 -0.10000000000E+04  0.10000000000E+04  0.00000000000E+00 0.  1.
    9000005    2    1    2  501    0 -0.17518020933E+00  0.60438724989E-01 -0.89688560199E+03  0.11029258177E+04  0.64190462056E+03 0.  0.
         13    1    3    3    0    0  0.21257855450E+03  0.74009244428E+02 -0.55391262576E+02  0.23180854614E+03  0.00000000000E+00 0.  1.
          1    1    3    3  501    0 -0.21275373471E+03 -0.73948805703E+02 -0.84149433942E+03  0.87111727154E+03  0.00000000000E+00 0.  1.
         21    1    1    2  502  501  0.17518020933E+00 -0.60438724989E-01 -0.32389283781E-02  0.18534140356E+00  0.00000000000E+00 0. -1.
<mgrwt>
<rscale>  1 0.64190465E+03</rscale>
<asrwt>0</asrwt>
<pdfrwt beam="1">  1        1 0.37495046E+00 0.64190465E+03</pdfrwt>
<pdfrwt beam="2">0</pdfrwt>
<totfact> 0.17298142E+00</totfact>
</mgrwt>
</event>
<event>
 6    1  0.3619848E-003  0.6598189E+03  0.7818608E-02  0.9788527E-01
          1   -1    0    0  502    0  0.00000000000E+00  0.00000000000E+00  0.10884032752E+03  0.10884032752E+03  0.00000000000E+00 0.  1.
         13   -1    0    0    0    0 -0.00000000000E+00 -0.00000000000E+00 -0.10000000000E+04  0.10000000000E+04  0.00000000000E+00 0.  1.
    9000005    2    1    2  501    0 -0.62006910184E-06 -0.55926767288E-05 -0.89115974649E+03  0.11088402533E+04  0.65981892485E+03 0.  0.
         13    1    3    3    0    0  0.25203033743E+03 -0.17146548286E+03 -0.65762254689E+03  0.72483592417E+03  0.00000000000E+00 0.  1.
          1    1    3    3  501    0 -0.25203033805E+03  0.17146547727E+03 -0.23353719960E+03  0.38400432913E+03  0.00000000000E+00 0.  1.
         21    1    1    2  502  501  0.62006909147E-06  0.55926767214E-05  0.74007956493E-04  0.74221561173E-04  0.00000000000E+00 0.  1.
<mgrwt>
<rscale>  1 0.65981892E+03</rscale>
<asrwt>0</asrwt>
<pdfrwt beam="1">  1        1 0.39578384E+00 0.65981892E+03</pdfrwt>
<pdfrwt beam="2">0</pdfrwt>
<totfact> 0.13943970E+00</totfact>
</mgrwt>
</event>
<event>
 6    1  0.3619848E-003  0.4835192E+03  0.7818608E-02  0.1018172E+00
          1   -1    0    0  502    0  0.00000000000E+00  0.00000000000E+00  0.58881217176E+02  0.58881217176E+02  0.00000000000E+00 0.  1.
         13   -1    0    0    0    0 -0.00000000000E+00 -0.00000000000E+00 -0.10000000000E+04  0.10000000000E+04  0.00000000000E+00 0.  1.
    9000005    2    1    2  501    0 -0.11155572950E+00  0.22799925473E+00 -0.94151278345E+03  0.10584125330E+04  0.48351908361E+03 0.  0.
         13    1    3    3    0    0  0.20957064026E+03 -0.11242417279E+03 -0.37667213996E+03  0.44546711317E+03  0.00000000000E+00 0.  1.
          3    1    3    3  501    0 -0.20968219599E+03  0.11265217204E+03 -0.56484064349E+03  0.61294541985E+03  0.00000000000E+00 0.  1.
         21    1    1    2  502  501  0.11155572950E+00 -0.22799925473E+00  0.39400063033E+00  0.46868415552E+00  0.00000000000E+00 0. -1.
<mgrwt>
<rscale>  1 0.48351915E+03</rscale>
<asrwt>0</asrwt>
<pdfrwt beam="1">  1        1 0.21411397E+00 0.48351915E+03</pdfrwt>
<pdfrwt beam="2">0</pdfrwt>
<totfact> 0.89060482E+00</totfact>
</mgrwt>
</event>
<event>
 6    1  0.3619848E-003  0.6446892E+03  0.7818608E-02  0.9816796E-01
          1   -1    0    0  502    0  0.00000000000E+00  0.00000000000E+00  0.10390640688E+03  0.10390640688E+03  0.00000000000E+00 0.  1.
         13   -1    0    0    0    0 -0.00000000000E+00 -0.00000000000E+00 -0.10000000000E+04  0.10000000000E+04  0.00000000000E+00 0.  1.
    9000005    2    1    2  501    0 -0.11125963141E-04 -0.33369314636E-04 -0.89609396282E+03  0.11039060355E+04  0.64468918482E+03 0.  0.
         13    1    3    3    0    0 -0.97596446833E+02  0.92659264321E+02  0.53501932942E+02  0.14482148503E+03  0.00000000000E+00 0.  1.
          3    1    3    3  501    0  0.97596435707E+02 -0.92659297691E+02 -0.94959589576E+03  0.95908455048E+03  0.00000000000E+00 0.  1.
         21    1    1    2  502  501  0.11125963131E-04  0.33369314631E-04  0.36970237135E-03  0.37137197201E-03  0.00000000000E+00 0.  1.
<mgrwt>
<rscale>  1 0.64468918E+03</rscale>
<asrwt>0</asrwt>
<pdfrwt beam="1">  1        1 0.37784228E+00 0.64468918E+03</pdfrwt>
<pdfrwt beam="2">0</pdfrwt>
<totfact> 0.16789605E+00</totfact>
</mgrwt>
</event>
<event>
 6    1  0.3619848E-003  0.6471978E+03  0.7818608E-02  0.9812051E-01
          1   -1    0    0  502    0  0.00000000000E+00  0.00000000000E+00  0.10472379644E+03  0.10472379644E+03  0.00000000000E+00 0.  1.
         13   -1    0    0    0    0 -0.00000000000E+00 -0.00000000000E+00 -0.10000000000E+04  0.10000000000E+04  0.00000000000E+00 0.  1.
    9000005    2    1    2  501    0 -0.92854818244E-03  0.22552203213E-02 -0.89528352190E+03  0.11047160824E+04  0.64719783539E+03 0.  0.
         13    1    3    3    0    0 -0.44571734147E+02 -0.28341141699E+03 -0.70314900556E+03  0.75942556896E+03  0.00000000000E+00 0.  1.
          1    1    3    3  501    0  0.44570805599E+02  0.28341367221E+03 -0.19213451634E+03  0.34529051345E+03  0.00000000000E+00 0.  1.
         21    1    1    2  502  501  0.92854818243E-03 -0.22552203213E-02  0.73183430865E-02  0.77140369429E-02  0.00000000000E+00 0.  1.
<mgrwt>
<rscale>  1 0.64719784E+03</rscale>
<asrwt>0</asrwt>
<pdfrwt beam="1">  1        1 0.38081461E+00 0.64719784E+03</pdfrwt>
<pdfrwt beam="2">0</pdfrwt>
<totfact> 0.16282833E+00</totfact>
</mgrwt>
</event>
<event>
 6    1  0.3619848E-003  0.6585097E+03  0.7818608E-02  0.9790941E-01
          1   -1    0    0  502    0  0.00000000000E+00  0.00000000000E+00  0.10840876174E+03  0.10840876174E+03  0.00000000000E+00 0.  1.
         13   -1    0    0    0    0 -0.00000000000E+00 -0.00000000000E+00 -0.10000000000E+04  0.10000000000E+04  0.00000000000E+00 0.  1.
    9000005    2    1    2  501    0  0.51449815146E-05 -0.52446953873E-05 -0.89159125409E+03  0.11084087443E+04  0.65850966587E+03 0.  0.
         13    1    3    3    0    0  0.18905428973E+03  0.25858585101E+03 -0.31759993810E+03  0.45108523307E+03  0.00000000000E+00 0.  1.
          1    1    3    3  501    0 -0.18905428459E+03 -0.25858585625E+03 -0.57399131599E+03  0.65732351122E+03  0.00000000000E+00 0.  1.
         21    1    1    2  502  501 -0.51449815021E-05  0.52446953774E-05  0.15830775220E-04  0.17452538736E-04  0.00000000000E+00 0.  1.
<mgrwt>
<rscale>  1 0.65850967E+03</rscale>
<asrwt>0</asrwt>
<pdfrwt beam="1">  1        1 0.39421451E+00 0.65850967E+03</pdfrwt>
<pdfrwt beam="2">0</pdfrwt>
<totfact> 0.14173296E+00</totfact>
</mgrwt>
</event>
<event>
 6    1  0.3619848E-003  0.6426820E+03  0.7818608E-02  0.9820609E-01
          1   -1    0    0  502    0  0.00000000000E+00  0.00000000000E+00  0.10387609775E+03  0.10387609775E+03  0.00000000000E+00 0.  1.
         13   -1    0    0    0    0 -0.00000000000E+00 -0.00000000000E+00 -0.10000000000E+04  0.10000000000E+04  0.00000000000E+00 0.  1.
    9000005    2    1    2  501    0  0.12591224146E-01  0.16787313125E-01 -0.89673977306E+03  0.11032598695E+04  0.64268197324E+03 0.  0.
         13    1    3    3    0    0  0.47100512239E+02  0.21965413483E+03 -0.53930887044E+02  0.23103016639E+03  0.00000000000E+00 0.  1.
          1    1    3    3  501    0 -0.47087921015E+02 -0.21963734752E+03 -0.84280888601E+03  0.87222970316E+03  0.00000000000E+00 0.  1.
         21    1    1    2  502  501 -0.12591224146E-01 -0.16787313125E-01  0.61587080134E+00  0.61622820184E+00  0.00000000000E+00 0.  1.
<mgrwt>
<rscale>  1 0.64268197E+03</rscale>
<asrwt>0</asrwt>
<pdfrwt beam="1">  1        1 0.37773206E+00 0.64268197E+03</pdfrwt>
<pdfrwt beam="2">0</pdfrwt>
<totfact> 0.16814591E+00</totfact>
</mgrwt>
</event>
<event>
 6    1  0.3619848E-003  0.6492689E+03  0.7818608E-02  0.9808152E-01
          1   -1    0    0  502    0  0.00000000000E+00  0.00000000000E+00  0.10539346249E+03  0.10539346249E+03  0.00000000000E+00 0.  1.
         13   -1    0    0    0    0 -0.00000000000E+00 -0.00000000000E+00 -0.10000000000E+04  0.10000000000E+04  0.00000000000E+00 0.  1.
    9000005    2    1    2  501    0 -0.57458843990E-03  0.11134997698E-01 -0.89460602334E+03  0.11053823008E+04  0.64926889180E+03 0.  0.
         13    1    3    3    0    0 -0.12038963182E+03 -0.58220391472E+02  0.56315978110E+02  0.14510260792E+03  0.00000000000E+00 0.  1.
          3    1    3    3  501    0  0.12038905723E+03  0.58231526469E+02 -0.95092200145E+03  0.96027969292E+03  0.00000000000E+00 0.  1.
         21    1    1    2  502  501  0.57458843990E-03 -0.11134997698E-01 -0.51416344158E-03  0.11161661599E-01  0.00000000000E+00 0. -1.
<mgrwt>
<rscale>  1 0.64926889E+03</rscale>
<asrwt>0</asrwt>
<pdfrwt beam="1">  1        1 0.38324976E+00 0.64926889E+03</pdfrwt>
<pdfrwt beam="2">0</pdfrwt>
<totfact> 0.15878486E+00</totfact>
</mgrwt>
</event>
<event>
 6    1  0.3619848E-003  0.6416434E+03  0.7818608E-02  0.9822587E-01
          1   -1    0    0  502    0  0.00000000000E+00  0.00000000000E+00  0.10378002453E+03  0.10378002453E+03  0.00000000000E+00 0.  1.
         13   -1    0    0    0    0 -0.00000000000E+00 -0.00000000000E+00 -0.10000000000E+04  0.10000000000E+04  0.00000000000E+00 0.  1.
    9000005    2    1    2  501    0  0.49075826022E-01  0.18612840940E-02 -0.89707264753E+03  0.11029259393E+04  0.64164342922E+03 0.  0.
         13    1    3    3    0    0  0.31708116034E+03 -0.48495078490E+02 -0.43643882492E+03  0.54163740896E+03  0.00000000000E+00 0.  1.
          3    1    3    3  501    0 -0.31703208452E+03  0.48496939774E+02 -0.46063382261E+03  0.56128853036E+03  0.00000000000E+00 0.  1.
         21    1    1    2  502  501 -0.49075826022E-01 -0.18612840940E-02  0.85267205996E+00  0.85408520823E+00  0.00000000000E+00 0. -1.
<mgrwt>
<rscale>  1 0.64164343E+03</rscale>
<asrwt>0</asrwt>
<pdfrwt beam="1">  1        1 0.37738270E+00 0.64164343E+03</pdfrwt>
<pdfrwt beam="2">0</pdfrwt>
<totfact> 0.16877526E+00</totfact>
</mgrwt>
</event>
<event>
 6    1  0.3619848E-003  0.6514499E+03  0.7818608E-02  0.9804062E-01
          1   -1    0    0  502    0  0.00000000000E+00  0.00000000000E+00  0.11585814250E+03  0.11585814250E+03  0.00000000000E+00 0.  1.
         13   -1    0    0    0    0 -0.00000000000E+00 -0.00000000000E+00 -0.10000000000E+04  0.10000000000E+04  0.00000000000E+00 0.  1.
    9000005    2    1    2  501    0  0.43306300414E+00 -0.26345219922E-01 -0.89389791804E+03  0.11060924395E+04  0.65144977446E+03 0.  0.
         13    1    3    3    0    0  0.16407332073E+03 -0.27208871035E+03 -0.32441126226E+03  0.45408698281E+03  0.00000000000E+00 0.  1.
          3    1    3    3  501    0 -0.16364025773E+03  0.27206236513E+03 -0.56948665577E+03  0.65200545670E+03  0.00000000000E+00 0.  1.
         21    1    1    2  502  501 -0.43306300414E+00  0.26345219922E-01  0.97560605366E+01  0.97657029869E+01  0.00000000000E+00 0.  1.
<mgrwt>
<rscale>  1 0.65144992E+03</rscale>
<asrwt>0</asrwt>
<pdfrwt beam="1">  1        1 0.42130322E+00 0.65144992E+03</pdfrwt>
<pdfrwt beam="2">0</pdfrwt>
<totfact> 0.10733755E+00</totfact>
</mgrwt>
</event>
<event>
 6    1  0.3619848E-003  0.6521811E+03  0.7818608E-02  0.9802695E-01
          1   -1    0    0  502    0  0.00000000000E+00  0.00000000000E+00  0.10633611681E+03  0.10633611681E+03  0.00000000000E+00 0.  1.
         13   -1    0    0    0    0 -0.00000000000E+00 -0.00000000000E+00 -0.10000000000E+04  0.10000000000E+04  0.00000000000E+00 0.  1.
    9000005    2    1    2  501    0  0.34193529622E-04 -0.48878655127E-03 -0.89366488635E+03  0.11063350004E+04  0.65218111286E+03 0.  0.
         13    1    3    3    0    0 -0.35224564270E+02 -0.24308123146E+03 -0.82980273216E+02  0.25925852109E+03  0.00000000000E+00 0.  1.
          3    1    3    3  501    0  0.35224598464E+02  0.24308074267E+03 -0.81068461313E+03  0.84707647929E+03  0.00000000000E+00 0.  1.
         21    1    1    2  502  501 -0.34193529621E-04  0.48878655126E-03  0.10031642662E-02  0.11164318318E-02  0.00000000000E+00 0.  1.
<mgrwt>
<rscale>  1 0.65218111E+03</rscale>
<asrwt>0</asrwt>
<pdfrwt beam="1">  1        1 0.38667760E+00 0.65218111E+03</pdfrwt>
<pdfrwt beam="2">0</pdfrwt>
<totfact> 0.15325463E+00</totfact>
</mgrwt>
</event>
<event>
 6    1  0.3619848E-003  0.6628329E+03  0.7818608E-02  0.9782993E-01
          1   -1    0    0  502    0  0.00000000000E+00  0.00000000000E+00  0.10984991522E+03  0.10984991522E+03  0.00000000000E+00 0.  1.
         13   -1    0    0    0    0 -0.00000000000E+00 -0.00000000000E+00 -0.10000000000E+04  0.10000000000E+04  0.00000000000E+00 0.  1.
    9000005    2    1    2  501    0 -0.45881656865E-02  0.32546416125E-02 -0.89016245714E+03  0.11098363241E+04  0.66283290965E+03 0.  0.
         13    1    3    3    0    0  0.29314393082E+02 -0.32802722350E+03 -0.50715465054E+03  0.60470408678E+03  0.00000000000E+00 0.  1.
          3    1    3    3  501    0 -0.29318981248E+02  0.32803047814E+03 -0.38300780659E+03  0.50513223730E+03  0.00000000000E+00 0.  1.
         21    1    1    2  502  501  0.45881656865E-02 -0.32546416125E-02  0.12372354233E-01  0.13591140705E-01  0.00000000000E+00 0. -1.
<mgrwt>
<rscale>  1 0.66283291E+03</rscale>
<asrwt>0</asrwt>
<pdfrwt beam="1">  1        1 0.39945508E+00 0.66283291E+03</pdfrwt>
<pdfrwt beam="2">0</pdfrwt>
<totfact> 0.13421247E+00</totfact>
</mgrwt>
</event>
<event>
 6    1  0.3619848E-003  0.6272862E+03  0.7818608E-02  0.9850359E-01
          1   -1    0    0  502    0  0.00000000000E+00  0.00000000000E+00  0.98778522439E+02  0.98778522439E+02  0.00000000000E+00 0.  1.
         13   -1    0    0    0    0 -0.00000000000E+00 -0.00000000000E+00 -0.10000000000E+04  0.10000000000E+04  0.00000000000E+00 0.  1.
    9000005    2    1    2  501    0 -0.12361763753E-01  0.38995522007E-02 -0.90162790401E+03  0.10983718893E+04  0.62728616264E+03 0.  0.
         13    1    3    3    0    0  0.30221555375E+03 -0.20089452444E+02 -0.59338292352E+03  0.66621402038E+03  0.00000000000E+00 0.  1.
          3    1    3    3  501    0 -0.30222791551E+03  0.20093351996E+02 -0.30824498049E+03  0.43215786896E+03  0.00000000000E+00 0.  1.
         21    1    1    2  502  501  0.12361763753E-01 -0.38995522007E-02  0.40642644638E+00  0.40663309756E+00  0.00000000000E+00 0. -1.
<mgrwt>
<rscale>  1 0.62728616E+03</rscale>
<asrwt>0</asrwt>
<pdfrwt beam="1">  1        1 0.35919538E+00 0.62728616E+03</pdfrwt>
<pdfrwt beam="2">0</pdfrwt>
<totfact> 0.20335777E+00</totfact>
</mgrwt>
</event>
<event>
 6    1  0.3619848E-003  0.6532712E+03  0.7818608E-02  0.9800660E-01
          1   -1    0    0  502    0  0.00000000000E+00  0.00000000000E+00  0.11147185271E+03  0.11147185271E+03  0.00000000000E+00 0.  1.
         13   -1    0    0    0    0 -0.00000000000E+00 -0.00000000000E+00 -0.10000000000E+04  0.10000000000E+04  0.00000000000E+00 0.  1.
    9000005    2    1    2  501    0  0.18043092586E+00  0.36029905483E+00 -0.89329978582E+03  0.11066832303E+04  0.65327107883E+03 0.  0.
         13    1    3    3    0    0  0.30707580909E+03  0.20056769470E+02 -0.26077637687E+03  0.40336353983E+03  0.00000000000E+00 0.  1.
          3    1    3    3  501    0 -0.30689537816E+03 -0.19696470415E+02 -0.63252340895E+03  0.70331969044E+03  0.00000000000E+00 0.  1.
         21    1    1    2  502  501 -0.18043092586E+00 -0.36029905483E+00  0.47716385258E+01  0.47886224479E+01  0.00000000000E+00 0.  1.
<mgrwt>
<rscale>  1 0.65327120E+03</rscale>
<asrwt>0</asrwt>
<pdfrwt beam="1">  1        1 0.40535305E+00 0.65327120E+03</pdfrwt>
<pdfrwt beam="2">0</pdfrwt>
<totfact> 0.12654561E+00</totfact>
</mgrwt>
</event>
<event>
 6    1  0.3619848E-003  0.6527887E+03  0.7818608E-02  0.9801560E-01
          1   -1    0    0  502    0  0.00000000000E+00  0.00000000000E+00  0.10653342634E+03  0.10653342634E+03  0.00000000000E+00 0.  1.
         13   -1    0    0    0    0 -0.00000000000E+00 -0.00000000000E+00 -0.10000000000E+04  0.10000000000E+04  0.00000000000E+00 0.  1.
    9000005    2    1    2  501    0  0.12261086937E-05  0.47313660048E-05 -0.89346671221E+03  0.11065332877E+04  0.65278874911E+03 0.  0.
         13    1    3    3    0    0 -0.42203898047E+02  0.26062488293E+03 -0.12144107817E+03  0.29061045074E+03  0.00000000000E+00 0.  1.
          1    1    3    3  501    0  0.42203899273E+02 -0.26062487820E+03 -0.77202563404E+03  0.81592283696E+03  0.00000000000E+00 0.  1.
         21    1    1    2  502  501 -0.12261086967E-05 -0.47313659972E-05  0.13854975146E-03  0.13863593616E-03  0.00000000000E+00 0. -1.
<mgrwt>
<rscale>  1 0.65278875E+03</rscale>
<asrwt>0</asrwt>
<pdfrwt beam="1">  1        1 0.38739509E+00 0.65278875E+03</pdfrwt>
<pdfrwt beam="2">0</pdfrwt>
<totfact> 0.15212053E+00</totfact>
</mgrwt>
</event>
<event>
 6    1  0.3619848E-003  0.6499893E+03  0.7818608E-02  0.9806799E-01
          1   -1    0    0  502    0  0.00000000000E+00  0.00000000000E+00  0.10562169437E+03  0.10562169437E+03  0.00000000000E+00 0.  1.
         13   -1    0    0    0    0 -0.00000000000E+00 -0.00000000000E+00 -0.10000000000E+04  0.10000000000E+04  0.00000000000E+00 0.  1.
    9000005    2    1    2  501    0 -0.60338445707E-06  0.11594220098E-04 -0.89437848348E+03  0.11056215161E+04  0.64998928087E+03 0.  0.
         13    1    3    3    0    0 -0.60057025992E+02 -0.30579932419E+03 -0.60402551262E+03  0.67968146432E+03  0.00000000000E+00 0.  1.
          1    1    3    3  501    0  0.60057025389E+02  0.30579933578E+03 -0.29035297086E+03  0.42594005182E+03  0.00000000000E+00 0.  1.
         21    1    1    2  502  501  0.60338445519E-06 -0.11594220133E-04  0.17784377487E-03  0.17822232822E-03  0.00000000000E+00 0.  1.
<mgrwt>
<rscale>  1 0.64998928E+03</rscale>
<asrwt>0</asrwt>
<pdfrwt beam="1">  1        1 0.38407970E+00 0.64998928E+03</pdfrwt>
<pdfrwt beam="2">0</pdfrwt>
<totfact> 0.15742832E+00</totfact>
</mgrwt>
</event>
<event>
 6    1  0.3619848E-003  0.6409064E+03  0.7818608E-02  0.9823994E-01
          1   -1    0    0  502    0  0.00000000000E+00  0.00000000000E+00  0.10294394723E+03  0.10294394723E+03  0.00000000000E+00 0.  1.
         13   -1    0    0    0    0 -0.00000000000E+00 -0.00000000000E+00 -0.10000000000E+04  0.10000000000E+04  0.00000000000E+00 0.  1.
    9000005    2    1    2  501    0  0.51886471836E-01  0.28149457611E-01 -0.89730593891E+03  0.11026871834E+04  0.64090644626E+03 0.  0.
         13    1    3    3    0    0 -0.50808350957E+02  0.31633071595E+03 -0.46082342744E+03  0.56125292130E+03  0.00000000000E+00 0.  1.
          1    1    3    3  501    0  0.50860237428E+02 -0.31630256650E+03 -0.43648251147E+03  0.54143426207E+03  0.00000000000E+00 0.  1.
         21    1    1    2  502  501 -0.51886471836E-01 -0.28149457611E-01  0.24988613930E+00  0.25676386144E+00  0.00000000000E+00 0. -1.
<mgrwt>
<rscale>  1 0.64090645E+03</rscale>
<asrwt>0</asrwt>
<pdfrwt beam="1">  1        1 0.37434242E+00 0.64090645E+03</pdfrwt>
<pdfrwt beam="2">0</pdfrwt>
<totfact> 0.17408238E+00</totfact>
</mgrwt>
</event>
<event>
 6    1  0.3619848E-003  0.6431167E+03  0.7818608E-02  0.9819782E-01
          1   -1    0    0  502    0  0.00000000000E+00  0.00000000000E+00  0.10340020906E+03  0.10340020906E+03  0.00000000000E+00 0.  1.
         13   -1    0    0    0    0 -0.00000000000E+00 -0.00000000000E+00 -0.10000000000E+04  0.10000000000E+04  0.00000000000E+00 0.  1.
    9000005    2    1    2  501    0  0.46503191990E-03  0.66687330204E-03 -0.89659972978E+03  0.11033993938E+04  0.64311674423E+03 0.  0.
         13    1    3    3    0    0  0.14140744495E+03 -0.11566291574E+03  0.57170008662E+01  0.18277488794E+03  0.00000000000E+00 0.  1.
          1    1    3    3  501    0 -0.14140697992E+03  0.11566358261E+03 -0.90231673065E+03  0.92062450582E+03  0.00000000000E+00 0.  1.
         21    1    1    2  502  501 -0.46503191991E-03 -0.66687330204E-03 -0.61155033280E-04  0.81530032847E-03  0.00000000000E+00 0.  1.
<mgrwt>
<rscale>  1 0.64311674E+03</rscale>
<asrwt>0</asrwt>
<pdfrwt beam="1">  1        1 0.37600155E+00 0.64311674E+03</pdfrwt>
<pdfrwt beam="2">0</pdfrwt>
<totfact> 0.17111000E+00</totfact>
</mgrwt>
</event>
<event>
 6    1  0.3619848E-003  0.4733953E+03  0.7818608E-02  0.1020966E+00
          1   -1    0    0  502    0  0.00000000000E+00  0.00000000000E+00  0.56224493437E+02  0.56224493437E+02  0.00000000000E+00 0.  1.
         13   -1    0    0    0    0 -0.00000000000E+00 -0.00000000000E+00 -0.10000000000E+04  0.10000000000E+04  0.00000000000E+00 0.  1.
    9000005    2    1    2  501    0 -0.61226574507E-02  0.11893751421E-02 -0.94397417639E+03  0.10560257257E+04  0.47339527636E+03 0.  0.
         13    1    3    3    0    0  0.11261072946E+03  0.14861500007E+03 -0.14674163295E+03  0.23727768853E+03  0.00000000000E+00 0.  1.
          3    1    3    3  501    0 -0.11261685211E+03 -0.14861381069E+03 -0.79723254343E+03  0.81874803720E+03  0.00000000000E+00 0.  1.
         21    1    1    2  502  501  0.61226574507E-02 -0.11893751421E-02  0.19866982364E+00  0.19876770455E+00  0.00000000000E+00 0.  1.
<mgrwt>
<rscale>  1 0.47339528E+03</rscale>
<asrwt>0</asrwt>
<pdfrwt beam="1">  1        1 0.20445313E+00 0.47339528E+03</pdfrwt>
<pdfrwt beam="2">0</pdfrwt>
<totfact> 0.98560453E+00</totfact>
</mgrwt>
</event>
<event>
 6    1  0.3619848E-003  0.6433327E+03  0.7818608E-02  0.9819371E-01
          1   -1    0    0  502    0  0.00000000000E+00  0.00000000000E+00  0.10353371425E+03  0.10353371425E+03  0.00000000000E+00 0.  1.
         13   -1    0    0    0    0 -0.00000000000E+00 -0.00000000000E+00 -0.10000000000E+04  0.10000000000E+04  0.00000000000E+00 0.  1.
    9000005    2    1    2  501    0  0.93498471551E-03 -0.68381208811E-03 -0.89653075609E+03  0.11034692335E+04  0.64333269207E+03 0.  0.
         13    1    3    3    0    0  0.14048685516E+03  0.19938530617E+03 -0.88563066331E+02  0.25948886972E+03  0.00000000000E+00 0.  1.
          3    1    3    3  501    0 -0.14048592018E+03 -0.19938598998E+03 -0.80796768976E+03  0.84398036379E+03  0.00000000000E+00 0.  1.
         21    1    1    2  502  501 -0.93498471552E-03  0.68381208811E-03  0.64470337250E-01  0.64480742710E-01  0.00000000000E+00 0.  1.
<mgrwt>
<rscale>  1 0.64333269E+03</rscale>
<asrwt>0</asrwt>
<pdfrwt beam="1">  1        1 0.37648703E+00 0.64333269E+03</pdfrwt>
<pdfrwt beam="2">0</pdfrwt>
<totfact> 0.17026290E+00</totfact>
</mgrwt>
</event>
<event>
 6    1  0.3619848E-003  0.6494657E+03  0.7818608E-02  0.9807782E-01
          1   -1    0    0  502    0  0.00000000000E+00  0.00000000000E+00  0.10550225370E+03  0.10550225370E+03  0.00000000000E+00 0.  1.
         13   -1    0    0    0    0 -0.00000000000E+00 -0.00000000000E+00 -0.10000000000E+04  0.10000000000E+04  0.00000000000E+00 0.  1.
    9000005    2    1    2  501    0  0.50709599090E-02  0.79855654519E-04 -0.89454844138E+03  0.11054513056E+04  0.64946568423E+03 0.  0.
         13    1    3    3    0    0 -0.52689931054E+02 -0.30361601409E+03 -0.27292559563E+03  0.41163976193E+03  0.00000000000E+00 0.  1.
          1    1    3    3  501    0  0.52695002014E+02  0.30361609395E+03 -0.62162284574E+03  0.69381154364E+03  0.00000000000E+00 0.  1.
         21    1    1    2  502  501 -0.50709599090E-02 -0.79855654514E-04  0.50695076265E-01  0.50948128217E-01  0.00000000000E+00 0. -1.
<mgrwt>
<rscale>  1 0.64946568E+03</rscale>
<asrwt>0</asrwt>
<pdfrwt beam="1">  1        1 0.38364537E+00 0.64946568E+03</pdfrwt>
<pdfrwt beam="2">0</pdfrwt>
<totfact> 0.15814113E+00</totfact>
</mgrwt>
</event>
<event>
 6    1  0.3619848E-003  0.6532497E+03  0.7818608E-02  0.9800700E-01
          1   -1    0    0  502    0  0.00000000000E+00  0.00000000000E+00  0.10668410184E+03  0.10668410184E+03  0.00000000000E+00 0.  1.
         13   -1    0    0    0    0 -0.00000000000E+00 -0.00000000000E+00 -0.10000000000E+04  0.10000000000E+04  0.00000000000E+00 0.  1.
    9000005    2    1    2  501    0 -0.42506863167E-05  0.77312304825E-05 -0.89331621725E+03  0.11066837826E+04  0.65324966952E+03 0.  0.
         13    1    3    3    0    0 -0.14928607072E+03  0.13429056029E+03 -0.88308247313E+03  0.90562406099E+03  0.00000000000E+00 0.  1.
          1    1    3    3  501    0  0.14928606647E+03 -0.13429055256E+03 -0.10233744122E+02  0.20105972164E+03  0.00000000000E+00 0.  1.
         21    1    1    2  502  501  0.42506863128E-05 -0.77312304702E-05  0.31909375909E-03  0.31921570661E-03  0.00000000000E+00 0. -1.
<mgrwt>
<rscale>  1 0.65324967E+03</rscale>
<asrwt>0</asrwt>
<pdfrwt beam="1">  1        1 0.38794301E+00 0.65324967E+03</pdfrwt>
<pdfrwt beam="2">0</pdfrwt>
<totfact> 0.15125992E+00</totfact>
</mgrwt>
</event>
<event>
 6    1  0.3975356E-003  0.6338925E+03  0.7818608E-02  0.9837482E-01
          1   -1    0    0  502    0  0.00000000000E+00  0.00000000000E+00  0.10045492340E+03  0.10045492340E+03  0.00000000000E+00 0.  1.
         13   -1    0    0    0    0 -0.00000000000E+00 -0.00000000000E+00 -0.10000000000E+04  0.10000000000E+04  0.00000000000E+00 0.  1.
    9000005    2    1    2  501    0 -0.59330591853E-05 -0.19823073103E-05 -0.89954507816E+03  0.11004549170E+04  0.63389248031E+03 0.  0.
         13    1    3    3    0    0  0.27569614162E+03 -0.54335182888E+02 -0.19525498643E+03  0.34217712421E+03  0.00000000000E+00 0.  1.
          3    1    3    3  501    0 -0.27569614755E+03  0.54335180906E+02 -0.70429009173E+03  0.75827779274E+03  0.00000000000E+00 0.  1.
         21    1    1    2  502  501  0.59330591933E-05  0.19823073090E-05  0.15594328293E-05  0.64469034744E-05  0.00000000000E+00 0. -1.
<mgrwt>
<rscale>  1 0.63389248E+03</rscale>
<asrwt>0</asrwt>
<pdfrwt beam="1">  1        1 0.36529140E+00 0.63389248E+03</pdfrwt>
<pdfrwt beam="2">0</pdfrwt>
<totfact> 0.19101053E+00</totfact>
</mgrwt>
</event>
<event>
 6    1  0.3619848E-003  0.6497410E+03  0.7818608E-02  0.9807265E-01
          1   -1    0    0  502    0  0.00000000000E+00  0.00000000000E+00  0.10555496460E+03  0.10555496460E+03  0.00000000000E+00 0.  1.
         13   -1    0    0    0    0 -0.00000000000E+00 -0.00000000000E+00 -0.10000000000E+04  0.10000000000E+04  0.00000000000E+00 0.  1.
    9000005    2    1    2  501    0  0.23516390635E-03  0.14830118570E-03 -0.89445915404E+03  0.11055408432E+04  0.64974100824E+03 0.  0.
         13    1    3    3    0    0  0.20303473900E+03 -0.25306056515E+03 -0.47560453144E+03  0.57572773531E+03  0.00000000000E+00 0.  1.
          3    1    3    3  501    0 -0.20303450384E+03  0.25306071345E+03 -0.41885462260E+03  0.52981310792E+03  0.00000000000E+00 0.  1.
         21    1    1    2  502  501 -0.23516390635E-03 -0.14830118570E-03  0.14118638224E-01  0.14121375309E-01  0.00000000000E+00 0.  1.
<mgrwt>
<rscale>  1 0.64974101E+03</rscale>
<asrwt>0</asrwt>
<pdfrwt beam="1">  1        1 0.38383704E+00 0.64974101E+03</pdfrwt>
<pdfrwt beam="2">0</pdfrwt>
<totfact> 0.15782489E+00</totfact>
</mgrwt>
</event>
<event>
 6    1  0.5312976E-003  0.6522852E+03  0.7818608E-02  0.9802501E-01
          1   -1    0    0  502    0  0.00000000000E+00  0.00000000000E+00  0.10636899073E+03  0.10636899073E+03  0.00000000000E+00 0.  1.
         13   -1    0    0    0    0 -0.00000000000E+00 -0.00000000000E+00 -0.10000000000E+04  0.10000000000E+04  0.00000000000E+00 0.  1.
    9000005    2    1    2  501    0  0.49425467807E-05  0.13906790372E-04 -0.89363099689E+03  0.11063689715E+04  0.65228516955E+03 0.  0.
         13    1    3    3    0    0  0.13128287842E+03 -0.23377497250E+03 -0.76178268999E+03  0.80758826063E+03  0.00000000000E+00 0.  1.
          3    1    3    3  501    0 -0.13128287348E+03  0.23377498640E+03 -0.13184830690E+03  0.29878071084E+03  0.00000000000E+00 0.  1.
         21    1    1    2  502  501 -0.49425467744E-05 -0.13906790363E-04 -0.12382151124E-04  0.19265130502E-04  0.00000000000E+00 0. -1.
<mgrwt>
<rscale>  1 0.65228517E+03</rscale>
<asrwt>0</asrwt>
<pdfrwt beam="1">  1        1 0.38679715E+00 0.65228517E+03</pdfrwt>
<pdfrwt beam="2">0</pdfrwt>
<totfact> 0.15306504E+00</totfact>
</mgrwt>
</event>
<event>
 6    1  0.6453548E-003  0.6259685E+03  0.7818608E-02  0.9852948E-01
          1   -1    0    0  502    0  0.00000000000E+00  0.00000000000E+00  0.97959176147E+02  0.97959176147E+02  0.00000000000E+00 0.  1.
         13   -1    0    0    0    0 -0.00000000000E+00 -0.00000000000E+00 -0.10000000000E+04  0.10000000000E+04  0.00000000000E+00 0.  1.
    9000005    2    1    2  501    0 -0.15888652430E-04 -0.10458934045E-03 -0.90204068979E+03  0.10979590054E+04  0.62596850675E+03 0.  0.
         13    1    3    3    0    0  0.46700142962E+00 -0.22523376112E+03 -0.83220613637E+03  0.86214704004E+03  0.00000000000E+00 0.  1.
          1    1    3    3  501    0 -0.46701731828E+00  0.22523365654E+03 -0.69834553421E+02  0.23581196533E+03  0.00000000000E+00 0.  1.
         21    1    1    2  502  501  0.15888652430E-04  0.10458934045E-03 -0.13406460091E-03  0.17077674499E-03  0.00000000000E+00 0. -1.
<mgrwt>
<rscale>  1 0.62596851E+03</rscale>
<asrwt>0</asrwt>
<pdfrwt beam="1">  1        1 0.35621594E+00 0.62596851E+03</pdfrwt>
<pdfrwt beam="2">0</pdfrwt>
<totfact> 0.20959579E+00</totfact>
</mgrwt>
</event>
<event>
 6    1  0.3619848E-003  0.6480748E+03  0.7818608E-02  0.9810398E-01
          1   -1    0    0  502    0  0.00000000000E+00  0.00000000000E+00  0.10685511125E+03  0.10685511125E+03  0.00000000000E+00 0.  1.
         13   -1    0    0    0    0 -0.00000000000E+00 -0.00000000000E+00 -0.10000000000E+04  0.10000000000E+04  0.00000000000E+00 0.  1.
    9000005    2    1    2  501    0  0.45773388230E-01  0.94220490569E-01 -0.89499813704E+03  0.11049989049E+04  0.64807476699E+03 0.  0.
         13    1    3    3    0    0 -0.28670431525E+03 -0.96765915976E+02 -0.64493556107E+03  0.71239377089E+03  0.00000000000E+00 0.  1.
          1    1    3    3  501    0  0.28675008863E+03  0.96860136466E+02 -0.25006257597E+03  0.39260513403E+03  0.00000000000E+00 0.  1.
         21    1    1    2  502  501 -0.45773388230E-01 -0.94220490569E-01  0.18532482848E+01  0.18562063217E+01  0.00000000000E+00 0.  1.
<mgrwt>
<rscale>  1 0.64807478E+03</rscale>
<asrwt>0</asrwt>
<pdfrwt beam="1">  1        1 0.38856486E+00 0.64807478E+03</pdfrwt>
<pdfrwt beam="2">0</pdfrwt>
<totfact> 0.15044801E+00</totfact>
</mgrwt>
</event>
<event>
 6    1  0.3619848E-003  0.6522211E+03  0.7818608E-02  0.9802620E-01
          1   -1    0    0  502    0  0.00000000000E+00  0.00000000000E+00  0.10634811914E+03  0.10634811914E+03  0.00000000000E+00 0.  1.
         13   -1    0    0    0    0 -0.00000000000E+00 -0.00000000000E+00 -0.10000000000E+04  0.10000000000E+04  0.00000000000E+00 0.  1.
    9000005    2    1    2  501    0 -0.19994336327E-04 -0.36135385727E-04 -0.89365187148E+03  0.11063480768E+04  0.65222112785E+03 0.  0.
         13    1    3    3    0    0  0.13184493750E+03  0.96070050461E+02  0.32160191690E+02  0.16627332940E+03  0.00000000000E+00 0.  1.
          1    1    3    3  501    0 -0.13184495750E+03 -0.96070086596E+02 -0.92581206317E+03  0.94007474738E+03  0.00000000000E+00 0.  1.
         21    1    1    2  502  501  0.19994336335E-04  0.36135385725E-04 -0.93809281702E-05  0.42350223143E-04  0.00000000000E+00 0.  1.
<mgrwt>
<rscale>  1 0.65222113E+03</rscale>
<asrwt>0</asrwt>
<pdfrwt beam="1">  1        1 0.38672125E+00 0.65222113E+03</pdfrwt>
<pdfrwt beam="2">0</pdfrwt>
<totfact> 0.15318533E+00</totfact>
</mgrwt>
</event>
<event>
 6    1  0.3619848E-003  0.6585369E+03  0.7818608E-02  0.9790891E-01
          1   -1    0    0  502    0  0.00000000000E+00  0.00000000000E+00  0.10912976036E+03  0.10912976036E+03  0.00000000000E+00 0.  1.
         13   -1    0    0    0    0 -0.00000000000E+00 -0.00000000000E+00 -0.10000000000E+04  0.10000000000E+04  0.00000000000E+00 0.  1.
    9000005    2    1    2  501    0  0.13064758743E-01 -0.14310571711E-01 -0.89158214952E+03  0.11084175868E+04  0.65853687599E+03 0.  0.
         13    1    3    3    0    0  0.34792236432E+02 -0.10969514108E+03 -0.96505838229E+03  0.97189567595E+03  0.00000000000E+00 0.  1.
          1    1    3    3  501    0 -0.34779171674E+02  0.10968083051E+03  0.73476232772E+02  0.13652191086E+03  0.00000000000E+00 0.  1.
         21    1    1    2  502  501 -0.13064758743E-01  0.14310571711E-01  0.71190987730E+00  0.71217354190E+00  0.00000000000E+00 0. -1.
<mgrwt>
<rscale>  1 0.65853688E+03</rscale>
<asrwt>0</asrwt>
<pdfrwt beam="1">  1        1 0.39683633E+00 0.65853688E+03</pdfrwt>
<pdfrwt beam="2">0</pdfrwt>
<totfact> 0.13797706E+00</totfact>
</mgrwt>
</event>
<event>
 6    1  0.3619848E-003  0.6561356E+03  0.7818608E-02  0.9795334E-01
          1   -1    0    0  502    0  0.00000000000E+00  0.00000000000E+00  0.11254435633E+03  0.11254435633E+03  0.00000000000E+00 0.  1.
         13   -1    0    0    0    0 -0.00000000000E+00 -0.00000000000E+00 -0.10000000000E+04  0.10000000000E+04  0.00000000000E+00 0.  1.
    9000005    2    1    2  501    0  0.36866901668E+00 -0.42734575534E+00 -0.89235356580E+03  0.11076140234E+04  0.65613536711E+03 0.  0.
         13    1    3    3    0    0  0.20264498528E+03 -0.50799378145E+01 -0.10644421561E+02  0.20298792953E+03  0.00000000000E+00 0.  1.
          1    1    3    3  501    0 -0.20227631626E+03  0.46525920591E+01 -0.88170914424E+03  0.90462609390E+03  0.00000000000E+00 0.  1.
         21    1    1    2  502  501 -0.36866901668E+00  0.42734575534E+00  0.48979221280E+01  0.49303328904E+01  0.00000000000E+00 0. -1.
<mgrwt>
<rscale>  1 0.65613561E+03</rscale>
<asrwt>0</asrwt>
<pdfrwt beam="1">  1        1 0.40925307E+00 0.65613561E+03</pdfrwt>
<pdfrwt beam="2">0</pdfrwt>
<totfact> 0.12149289E+00</totfact>
</mgrwt>
</event>
<event>
 6    1  0.3619848E-003  0.6453242E+03  0.7818608E-02  0.9815593E-01
          1   -1    0    0  502    0  0.00000000000E+00  0.00000000000E+00  0.11200851265E+03  0.11200851265E+03  0.00000000000E+00 0.  1.
         13   -1    0    0    0    0 -0.00000000000E+00 -0.00000000000E+00 -0.10000000000E+04  0.10000000000E+04  0.00000000000E+00 0.  1.
    9000005    2    1    2  501    0  0.41054521342E+00  0.22708539536E+00 -0.89588146579E+03  0.11041045975E+04  0.64532405915E+03 0.  0.
         13    1    3    3    0    0 -0.23772064127E+02 -0.24449284659E+03 -0.90123204928E+02  0.26165636842E+03  0.00000000000E+00 0.  1.
          1    1    3    3  501    0  0.24182609341E+02  0.24471993198E+03 -0.80575826086E+03  0.84244822907E+03  0.00000000000E+00 0.  1.
         21    1    1    2  502  501 -0.41054521342E+00 -0.22708539536E+00  0.78899784457E+01  0.79039151705E+01  0.00000000000E+00 0. -1.
<mgrwt>
<rscale>  1 0.64532423E+03</rscale>
<asrwt>0</asrwt>
<pdfrwt beam="1">  1        1 0.40730454E+00 0.64532423E+03</pdfrwt>
<pdfrwt beam="2">0</pdfrwt>
<totfact> 0.12421777E+00</totfact>
</mgrwt>
</event>
<event>
 6    1  0.3619848E-003  0.6602270E+03  0.7818608E-02  0.9787776E-01
          1   -1    0    0  502    0  0.00000000000E+00  0.00000000000E+00  0.10899189900E+03  0.10899189900E+03  0.00000000000E+00 0.  1.
         13   -1    0    0    0    0 -0.00000000000E+00 -0.00000000000E+00 -0.10000000000E+04  0.10000000000E+04  0.00000000000E+00 0.  1.
    9000005    2    1    2  501    0  0.47676102890E-02  0.10759746639E-01 -0.89102277283E+03  0.11089730904E+04  0.66022703163E+03 0.  0.
         13    1    3    3    0    0  0.23230559450E+03  0.11442896459E+03 -0.78941036463E+03  0.83079997650E+03  0.00000000000E+00 0.  1.
          3    1    3    3  501    0 -0.23230082689E+03 -0.11441820484E+03 -0.10161240820E+03  0.27817311386E+03  0.00000000000E+00 0.  1.
         21    1    1    2  502  501 -0.47676102890E-02 -0.10759746639E-01  0.14671830331E-01  0.18808637933E-01  0.00000000000E+00 0. -1.
<mgrwt>
<rscale>  1 0.66022703E+03</rscale>
<asrwt>0</asrwt>
<pdfrwt beam="1">  1        1 0.39633501E+00 0.66022703E+03</pdfrwt>
<pdfrwt beam="2">0</pdfrwt>
<totfact> 0.13864397E+00</totfact>
</mgrwt>
</event>
<event>
 6    1  0.3619848E-003  0.6461898E+03  0.7818608E-02  0.9813955E-01
          1   -1    0    0  502    0  0.00000000000E+00  0.00000000000E+00  0.10474629774E+03  0.10474629774E+03  0.00000000000E+00 0.  1.
         13   -1    0    0    0    0 -0.00000000000E+00 -0.00000000000E+00 -0.10000000000E+04  0.10000000000E+04  0.00000000000E+00 0.  1.
    9000005    2    1    2  501    0 -0.98804658255E-02 -0.11496139580E-02 -0.89560962312E+03  0.11043902379E+04  0.64618975577E+03 0.  0.
         13    1    3    3    0    0  0.11142084246E+03 -0.18152501017E+03 -0.32586137365E+02  0.21547108808E+03  0.00000000000E+00 0.  1.
          1    1    3    3  501    0 -0.11143072293E+03  0.18152386056E+03 -0.86302348575E+03  0.88891914983E+03  0.00000000000E+00 0.  1.
         21    1    1    2  502  501  0.98804658255E-02  0.11496139580E-02  0.35592086039E+00  0.35605983216E+00  0.00000000000E+00 0. -1.
<mgrwt>
<rscale>  1 0.64618976E+03</rscale>
<asrwt>0</asrwt>
<pdfrwt beam="1">  1        1 0.38089643E+00 0.64618976E+03</pdfrwt>
<pdfrwt beam="2">0</pdfrwt>
<totfact> 0.16272316E+00</totfact>
</mgrwt>
</event>
<event>
 6    1  0.3619848E-003  0.6560135E+03  0.7818608E-02  0.9795560E-01
          1   -1    0    0  502    0  0.00000000000E+00  0.00000000000E+00  0.10758848015E+03  0.10758848015E+03  0.00000000000E+00 0.  1.
         13   -1    0    0    0    0 -0.00000000000E+00 -0.00000000000E+00 -0.10000000000E+04  0.10000000000E+04  0.00000000000E+00 0.  1.
    9000005    2    1    2  501    0 -0.35568894248E-05  0.10899147185E-04 -0.89241158546E+03  0.11075884135E+04  0.65601345714E+03 0.  0.
         13    1    3    3    0    0 -0.15224121255E+03 -0.29052285996E+03 -0.44158435913E+03  0.55007060018E+03  0.00000000000E+00 0.  1.
          3    1    3    3  501    0  0.15224120900E+03  0.29052287086E+03 -0.45082722634E+03  0.55751781336E+03  0.00000000000E+00 0.  1.
         21    1    1    2  502  501  0.35568894009E-05 -0.10899147216E-04  0.65613546045E-04  0.66607659446E-04  0.00000000000E+00 0.  1.
<mgrwt>
<rscale>  1 0.65601346E+03</rscale>
<asrwt>0</asrwt>
<pdfrwt beam="1">  1        1 0.39123166E+00 0.65601346E+03</pdfrwt>
<pdfrwt beam="2">0</pdfrwt>
<totfact> 0.14619080E+00</totfact>
</mgrwt>
</event>
<event>
 6    1  0.3619848E-003  0.6387014E+03  0.7818608E-02  0.9828214E-01
          1   -1    0    0  502    0  0.00000000000E+00  0.00000000000E+00  0.10198514066E+03  0.10198514066E+03  0.00000000000E+00 0.  1.
         13   -1    0    0    0    0 -0.00000000000E+00 -0.00000000000E+00 -0.10000000000E+04  0.10000000000E+04  0.00000000000E+00 0.  1.
    9000005    2    1    2  501    0 -0.14957774823E-04 -0.21627979672E-04 -0.89801512831E+03  0.11019848704E+04  0.63870140437E+03 0.  0.
         13    1    3    3    0    0 -0.24406991766E+02 -0.10424753700E+02  0.10007881065E+03  0.10353813345E+03  0.00000000000E+00 0.  1.
          1    1    3    3  501    0  0.24406976808E+02  0.10424732072E+02 -0.99809393896E+03  0.99844673696E+03  0.00000000000E+00 0.  1.
         21    1    1    2  502  501  0.14957774820E-04  0.21627979673E-04  0.26896933379E-03  0.27025174754E-03  0.00000000000E+00 0.  1.
<mgrwt>
<rscale>  1 0.63870140E+03</rscale>
<asrwt>0</asrwt>
<pdfrwt beam="1">  1        1 0.37085584E+00 0.63870140E+03</pdfrwt>
<pdfrwt beam="2">0</pdfrwt>
<totfact> 0.18040972E+00</totfact>
</mgrwt>
</event>
<event>
 6    1  0.3619848E-003  0.6544700E+03  0.7818608E-02  0.9798428E-01
          1   -1    0    0  502    0  0.00000000000E+00  0.00000000000E+00  0.10708368840E+03  0.10708368840E+03  0.00000000000E+00 0.  1.
         13   -1    0    0    0    0 -0.00000000000E+00 -0.00000000000E+00 -0.10000000000E+04  0.10000000000E+04  0.00000000000E+00 0.  1.
    9000005    2    1    2  501    0  0.97898063142E-03 -0.18929199488E-02 -0.89291568707E+03  0.11070814677E+04  0.65446997782E+03 0.  0.
         13    1    3    3    0    0 -0.98141543876E+02 -0.25407714954E+03 -0.13965362016E+03  0.30608837642E+03  0.00000000000E+00 0.  1.
          3    1    3    3  501    0  0.98142522857E+02  0.25407525662E+03 -0.75326206691E+03  0.80099309127E+03  0.00000000000E+00 0.  1.
         21    1    1    2  502  501 -0.97898063141E-03  0.18929199488E-02 -0.62452288403E-03  0.22207156148E-02  0.00000000000E+00 0. -1.
<mgrwt>
<rscale>  1 0.65446998E+03</rscale>
<asrwt>0</asrwt>
<pdfrwt beam="1">  1        1 0.38939605E+00 0.65446998E+03</pdfrwt>
<pdfrwt beam="2">0</pdfrwt>
<totfact> 0.14900001E+00</totfact>
</mgrwt>
</event>
<event>
 6    1  0.3619848E-003  0.6495116E+03  0.7818608E-02  0.9807696E-01
          1   -1    0    0  502    0  0.00000000000E+00  0.00000000000E+00  0.10547622078E+03  0.10547622078E+03  0.00000000000E+00 0.  1.
         13   -1    0    0    0    0 -0.00000000000E+00 -0.00000000000E+00 -0.10000000000E+04  0.10000000000E+04  0.00000000000E+00 0.  1.
    9000005    2    1    2  501    0 -0.14957993153E-03  0.78159358225E-04 -0.89453365451E+03  0.11054663440E+04  0.64951164638E+03 0.  0.
         13    1    3    3    0    0 -0.65313209427E+02  0.31778102512E+03 -0.42226527476E+03  0.53250216668E+03  0.00000000000E+00 0.  1.
          1    1    3    3  501    0  0.65313059847E+02 -0.31778094696E+03 -0.47226837974E+03  0.57296417736E+03  0.00000000000E+00 0.  1.
         21    1    1    2  502  501  0.14957993153E-03 -0.78159358236E-04  0.98752918786E-02  0.98767339100E-02  0.00000000000E+00 0.  1.
<mgrwt>
<rscale>  1 0.64951165E+03</rscale>
<asrwt>0</asrwt>
<pdfrwt beam="1">  1        1 0.38355070E+00 0.64951165E+03</pdfrwt>
<pdfrwt beam="2">0</pdfrwt>
<totfact> 0.15829223E+00</totfact>
</mgrwt>
</event>
<event>
 6    1  0.3619848E-003  0.6360689E+03  0.7818608E-02  0.9833277E-01
          1   -1    0    0  502    0  0.00000000000E+00  0.00000000000E+00  0.10117588373E+03  0.10117588373E+03  0.00000000000E+00 0.  1.
         13   -1    0    0    0    0 -0.00000000000E+00 -0.00000000000E+00 -0.10000000000E+04  0.10000000000E+04  0.00000000000E+00 0.  1.
    9000005    2    1    2  501    0 -0.48745964426E-03 -0.19839039902E-03 -0.89885407842E+03  0.11011459170E+04  0.63606892405E+03 0.  0.
         13    1    3    3    0    0 -0.29971373992E+03  0.98178561309E+02 -0.52035666206E+03  0.60847219455E+03  0.00000000000E+00 0.  1.
          3    1    3    3  501    0  0.29971325246E+03 -0.98178759699E+02 -0.37849741636E+03  0.49267372241E+03  0.00000000000E+00 0.  1.
         21    1    1    2  502  501  0.48745964425E-03  0.19839039903E-03  0.29962152062E-01  0.29966773798E-01  0.00000000000E+00 0.  1.
<mgrwt>
<rscale>  1 0.63606892E+03</rscale>
<asrwt>0</asrwt>
<pdfrwt beam="1">  1        1 0.36791308E+00 0.63606892E+03</pdfrwt>
<pdfrwt beam="2">0</pdfrwt>
<totfact> 0.18594679E+00</totfact>
</mgrwt>
</event>
<event>
 6    1  0.3619848E-003  0.6573581E+03  0.7818608E-02  0.9793069E-01
          1   -1    0    0  502    0  0.00000000000E+00  0.00000000000E+00  0.10803102844E+03  0.10803102844E+03  0.00000000000E+00 0.  1.
         13   -1    0    0    0    0 -0.00000000000E+00 -0.00000000000E+00 -0.10000000000E+04  0.10000000000E+04  0.00000000000E+00 0.  1.
    9000005    2    1    2  501    0 -0.33532377984E-04  0.26829694512E-04 -0.89197007999E+03  0.11080299192E+04  0.65735810499E+03 0.  0.
         13    1    3    3    0    0 -0.32652996553E+03  0.34379665974E+02 -0.47133339119E+03  0.57442053016E+03  0.00000000000E+00 0.  1.
          3    1    3    3  501    0  0.32652993200E+03 -0.34379639144E+02 -0.42063668880E+03  0.53360938902E+03  0.00000000000E+00 0.  1.
         21    1    1    2  502  501  0.33532377961E-04 -0.26829694509E-04  0.11084283133E-02  0.11092599239E-02  0.00000000000E+00 0.  1.
<mgrwt>
<rscale>  1 0.65735810E+03</rscale>
<asrwt>0</asrwt>
<pdfrwt beam="1">  1        1 0.39284093E+00 0.65735810E+03</pdfrwt>
<pdfrwt beam="2">0</pdfrwt>
<totfact> 0.14376958E+00</totfact>
</mgrwt>
</event>
<event>
 6    1  0.3619848E-003  0.6475562E+03  0.7818608E-02  0.9811376E-01
          1   -1    0    0  502    0  0.00000000000E+00  0.00000000000E+00  0.10483243453E+03  0.10483243453E+03  0.00000000000E+00 0.  1.
         13   -1    0    0    0    0 -0.00000000000E+00 -0.00000000000E+00 -0.10000000000E+04  0.10000000000E+04  0.00000000000E+00 0.  1.
    9000005    2    1    2  501    0 -0.11009930518E-04 -0.12673978446E-03 -0.89516772997E+03  0.11048322266E+04  0.64755616289E+03 0.  0.
         13    1    3    3    0    0 -0.97093486954E+02 -0.19656935199E+03 -0.41082963207E+02  0.22305708959E+03  0.00000000000E+00 0.  1.
          1    1    3    3  501    0  0.97093475944E+02  0.19656922525E+03 -0.85408476676E+03  0.88177513699E+03  0.00000000000E+00 0.  1.
         21    1    1    2  502  501  0.11009930517E-04  0.12673978447E-03  0.16450034678E-03  0.20795325346E-03  0.00000000000E+00 0.  1.
<mgrwt>
<rscale>  1 0.64755616E+03</rscale>
<asrwt>0</asrwt>
<pdfrwt beam="1">  1        1 0.38120966E+00 0.64755616E+03</pdfrwt>
<pdfrwt beam="2">0</pdfrwt>
<totfact> 0.16216511E+00</totfact>
</mgrwt>
</event>
<event>
 6    1  0.3619848E-003  0.6547736E+03  0.7818608E-02  0.9797863E-01
          1   -1    0    0  502    0  0.00000000000E+00  0.00000000000E+00  0.10722022445E+03  0.10722022445E+03  0.00000000000E+00 0.  1.
         13   -1    0    0    0    0 -0.00000000000E+00 -0.00000000000E+00 -0.10000000000E+04  0.10000000000E+04  0.00000000000E+00 0.  1.
    9000005    2    1    2  501    0  0.56971469571E-02 -0.47629179829E-02 -0.89281746583E+03  0.11071818096E+04  0.65477364958E+03 0.  0.
         13    1    3    3    0    0 -0.21592561498E+03 -0.24606842791E+03 -0.45134790511E+03  0.55757373850E+03  0.00000000000E+00 0.  1.
          3    1    3    3  501    0  0.21593131213E+03  0.24606366499E+03 -0.44146956072E+03  0.54960807111E+03  0.00000000000E+00 0.  1.
         21    1    1    2  502  501 -0.56971469571E-02  0.47629179829E-02  0.37690276070E-01  0.38414838036E-01  0.00000000000E+00 0. -1.
<mgrwt>
<rscale>  1 0.65477365E+03</rscale>
<asrwt>0</asrwt>
<pdfrwt beam="1">  1        1 0.38989255E+00 0.65477365E+03</pdfrwt>
<pdfrwt beam="2">0</pdfrwt>
<totfact> 0.14823830E+00</totfact>
</mgrwt>
</event>
<event>
 6    1  0.3619848E-003  0.6461632E+03  0.7818608E-02  0.9814005E-01
          1   -1    0    0  502    0  0.00000000000E+00  0.00000000000E+00  0.11718080288E+03  0.11718080288E+03  0.00000000000E+00 0.  1.
         13   -1    0    0    0    0 -0.00000000000E+00 -0.00000000000E+00 -0.10000000000E+04  0.10000000000E+04  0.00000000000E+00 0.  1.
    9000005    2    1    2  501    0  0.18286719703E+00 -0.19106381573E-01 -0.89561754537E+03  0.11043811340E+04  0.64616318972E+03 0.  0.
         13    1    3    3    0    0 -0.11849981515E+03  0.19026768494E+03 -0.50173866237E+02  0.22969853063E+03  0.00000000000E+00 0.  1.
          1    1    3    3  501    0  0.11868268235E+03 -0.19028679132E+03 -0.84544367914E+03  0.87468260337E+03  0.00000000000E+00 0.  1.
         21    1    1    2  502  501 -0.18286719703E+00  0.19106381574E-01  0.12798348257E+02  0.12799668885E+02  0.00000000000E+00 0.  1.
<mgrwt>
<rscale>  1 0.64616322E+03</rscale>
<asrwt>0</asrwt>
<pdfrwt beam="1">  1        1 0.42611291E+00 0.64616322E+03</pdfrwt>
<pdfrwt beam="2">0</pdfrwt>
<totfact> 0.10220387E+00</totfact>
</mgrwt>
</event>
<event>
 6    1  0.3619848E-003  0.6509391E+03  0.7818608E-02  0.9805019E-01
          1   -1    0    0  502    0  0.00000000000E+00  0.00000000000E+00  0.10593215904E+03  0.10593215904E+03  0.00000000000E+00 0.  1.
         13   -1    0    0    0    0 -0.00000000000E+00 -0.00000000000E+00 -0.10000000000E+04  0.10000000000E+04  0.00000000000E+00 0.  1.
    9000005    2    1    2  501    0 -0.34495312588E-03  0.94225269379E-04 -0.89406955930E+03  0.11059304039E+04  0.65093907655E+03 0.  0.
         13    1    3    3    0    0  0.92667717735E+02 -0.20215273954E+03 -0.43273506395E+02  0.22655161083E+03  0.00000000000E+00 0.  1.
          3    1    3    3  501    0 -0.92668062688E+02  0.20215283376E+03 -0.85079605290E+03  0.87937879306E+03  0.00000000000E+00 0.  1.
         21    1    1    2  502  501  0.34495312589E-03 -0.94225269358E-04  0.17183395728E-02  0.17551529700E-02  0.00000000000E+00 0.  1.
<mgrwt>
<rscale>  1 0.65093908E+03</rscale>
<asrwt>0</asrwt>
<pdfrwt beam="1">  1        1 0.38520866E+00 0.65093908E+03</pdfrwt>
<pdfrwt beam="2">0</pdfrwt>
<totfact> 0.15560155E+00</totfact>
</mgrwt>
</event>
<event>
 6    1  0.3619848E-003  0.6559657E+03  0.7818608E-02  0.9795649E-01
          1   -1    0    0  502    0  0.00000000000E+00  0.00000000000E+00  0.10757282065E+03  0.10757282065E+03  0.00000000000E+00 0.  1.
         13   -1    0    0    0    0 -0.00000000000E+00 -0.00000000000E+00 -0.10000000000E+04  0.10000000000E+04  0.00000000000E+00 0.  1.
    9000005    2    1    2  501    0 -0.43877530516E-05  0.67490306224E-05 -0.89242725290E+03  0.11075727467E+04  0.65596569075E+03 0.  0.
         13    1    3    3    0    0  0.32049624924E+03  0.40662800729E+01 -0.56366022479E+03  0.64841902302E+03  0.00000000000E+00 0.  1.
          3    1    3    3  501    0 -0.32049625362E+03 -0.40662733239E+01 -0.32876702810E+03  0.45915372364E+03  0.00000000000E+00 0.  1.
         21    1    1    2  502  501  0.43877530529E-05 -0.67490306226E-05  0.73549730237E-04  0.73988949237E-04  0.00000000000E+00 0.  1.
<mgrwt>
<rscale>  1 0.65596569E+03</rscale>
<asrwt>0</asrwt>
<pdfrwt beam="1">  1        1 0.39117472E+00 0.65596569E+03</pdfrwt>
<pdfrwt beam="2">0</pdfrwt>
<totfact> 0.14627719E+00</totfact>
</mgrwt>
</event>
<event>
 6    1  0.3619848E-003  0.6474869E+03  0.7818608E-02  0.9811506E-01
          1   -1    0    0  502    0  0.00000000000E+00  0.00000000000E+00  0.10806535342E+03  0.10806535342E+03  0.00000000000E+00 0.  1.
         13   -1    0    0    0    0 -0.00000000000E+00 -0.00000000000E+00 -0.10000000000E+04  0.10000000000E+04  0.00000000000E+00 0.  1.
    9000005    2    1    2  501    0 -0.70549719720E-01 -0.94581531085E+00 -0.89511368375E+03  0.11047478512E+04  0.64748622245E+03 0.  0.
         13    1    3    3    0    0  0.17503472002E+03 -0.20917808656E+03 -0.14947593641E+03  0.31102360147E+03  0.00000000000E+00 0.  1.
          3    1    3    3  501    0 -0.17510526974E+03  0.20823227125E+03 -0.74563774735E+03  0.79372424969E+03  0.00000000000E+00 0.  1.
         21    1    1    2  502  501  0.70549719720E-01  0.94581531085E+00  0.31790371694E+01  0.33175022517E+01  0.00000000000E+00 0.  1.
<mgrwt>
<rscale>  1 0.64748692E+03</rscale>
<asrwt>0</asrwt>
<pdfrwt beam="1">  1        1 0.39296575E+00 0.64748692E+03</pdfrwt>
<pdfrwt beam="2">0</pdfrwt>
<totfact> 0.14385160E+00</totfact>
</mgrwt>
</event>
<event>
 6    1  0.3619848E-003  0.6419231E+03  0.7818608E-02  0.9822054E-01
          1   -1    0    0  502    0  0.00000000000E+00  0.00000000000E+00  0.10301701130E+03  0.10301701130E+03  0.00000000000E+00 0.  1.
         13   -1    0    0    0    0 -0.00000000000E+00 -0.00000000000E+00 -0.10000000000E+04  0.10000000000E+04  0.00000000000E+00 0.  1.
    9000005    2    1    2  501    0  0.19195114890E-02 -0.87330663254E-03 -0.89698034533E+03  0.11030136298E+04  0.64192314773E+03 0.  0.
         13    1    3    3    0    0 -0.12218223332E+03  0.19041220638E+03 -0.57296310357E+02  0.23338417611E+03  0.00000000000E+00 0.  1.
          1    1    3    3  501    0  0.12218415284E+03 -0.19041307969E+03 -0.83968403498E+03  0.86962945368E+03  0.00000000000E+00 0.  1.
         21    1    1    2  502  501 -0.19195114890E-02  0.87330663254E-03 -0.26433663260E-02  0.33815047485E-02  0.00000000000E+00 0.  1.
<mgrwt>
<rscale>  1 0.64192315E+03</rscale>
<asrwt>0</asrwt>
<pdfrwt beam="1">  1        1 0.37460810E+00 0.64192315E+03</pdfrwt>
<pdfrwt beam="2">0</pdfrwt>
<totfact> 0.17358205E+00</totfact>
</mgrwt>
</event>
<event>
 6    1  0.3619848E-003  0.6447768E+03  0.7818608E-02  0.9816630E-01
          1   -1    0    0  502    0  0.00000000000E+00  0.00000000000E+00  0.10393976919E+03  0.10393976919E+03  0.00000000000E+00 0.  1.
         13   -1    0    0    0    0 -0.00000000000E+00 -0.00000000000E+00 -0.10000000000E+04  0.10000000000E+04  0.00000000000E+00 0.  1.
    9000005    2    1    2  501    0 -0.38853312274E-03  0.91000292271E-03 -0.89606566229E+03  0.11039342483E+04  0.64477682453E+03 0.  0.
         13    1    3    3    0    0 -0.56635680948E+02  0.63011101682E+02  0.84533158374E+02  0.11968230511E+03  0.00000000000E+00 0.  1.
          1    1    3    3  501    0  0.56635292415E+02 -0.63010191679E+02 -0.98059882067E+03  0.98425194320E+03  0.00000000000E+00 0.  1.
         21    1    1    2  502  501  0.38853312273E-03 -0.91000292271E-03  0.54314796973E-02  0.55208726673E-02  0.00000000000E+00 0. -1.
<mgrwt>
<rscale>  1 0.64477682E+03</rscale>
<asrwt>0</asrwt>
<pdfrwt beam="1">  1        1 0.37796359E+00 0.64477682E+03</pdfrwt>
<pdfrwt beam="2">0</pdfrwt>
<totfact> 0.16768676E+00</totfact>
</mgrwt>
</event>
<event>
 6    1  0.3619848E-003  0.6545934E+03  0.7818608E-02  0.9798198E-01
          1   -1    0    0  502    0  0.00000000000E+00  0.00000000000E+00  0.10794503046E+03  0.10794503046E+03  0.00000000000E+00 0.  1.
         13   -1    0    0    0    0 -0.00000000000E+00 -0.00000000000E+00 -0.10000000000E+04  0.10000000000E+04  0.00000000000E+00 0.  1.
    9000005    2    1    2  501    0  0.57666053350E-01  0.13834210951E+00 -0.89286928822E+03  0.11071170336E+04  0.65459341408E+03 0.  0.
         13    1    3    3    0    0  0.12650081854E+03  0.50800808863E+02 -0.94976414070E+03  0.95949731747E+03  0.00000000000E+00 0.  1.
          1    1    3    3  501    0 -0.12644315249E+03 -0.50662466753E+02  0.56894852480E+02  0.14761971612E+03  0.00000000000E+00 0.  1.
         21    1    1    2  502  501 -0.57666053350E-01 -0.13834210951E+00  0.81431867984E+00  0.82799687518E+00  0.00000000000E+00 0.  1.
<mgrwt>
<rscale>  1 0.65459343E+03</rscale>
<asrwt>0</asrwt>
<pdfrwt beam="1">  1        1 0.39252821E+00 0.65459343E+03</pdfrwt>
<pdfrwt beam="2">0</pdfrwt>
<totfact> 0.14430430E+00</totfact>
</mgrwt>
</event>
<event>
 6    1  0.3619848E-003  0.6459146E+03  0.7818608E-02  0.9814476E-01
          1   -1    0    0  502    0  0.00000000000E+00  0.00000000000E+00  0.11045553387E+03  0.11045553387E+03  0.00000000000E+00 0.  1.
         13   -1    0    0    0    0 -0.00000000000E+00 -0.00000000000E+00 -0.10000000000E+04  0.10000000000E+04  0.00000000000E+00 0.  1.
    9000005    2    1    2  501    0 -0.58283725838E-01 -0.11321676400E+01 -0.89564089062E+03  0.11042545991E+04  0.64591356191E+03 0.  0.
         13    1    3    3    0    0 -0.19821009126E+03 -0.82921471077E+02 -0.86063289155E+03  0.88704688978E+03  0.00000000000E+00 0.  1.
          1    1    3    3  501    0  0.19815180754E+03  0.81789303437E+02 -0.35007999073E+02  0.21720770932E+03  0.00000000000E+00 0.  1.
         21    1    1    2  502  501  0.58283725838E-01  0.11321676400E+01  0.60964244927E+01  0.62009347806E+01  0.00000000000E+00 0.  1.
<mgrwt>
<rscale>  1 0.64591456E+03</rscale>
<asrwt>0</asrwt>
<pdfrwt beam="1">  1        1 0.40165733E+00 0.64591456E+03</pdfrwt>
<pdfrwt beam="2">0</pdfrwt>
<totfact> 0.13163278E+00</totfact>
</mgrwt>
</event>
<event>
 6    1  0.3619848E-003  0.6447775E+03  0.7818608E-02  0.9816629E-01
          1   -1    0    0  502    0  0.00000000000E+00  0.00000000000E+00  0.10398707534E+03  0.10398707534E+03  0.00000000000E+00 0.  1.
         13   -1    0    0    0    0 -0.00000000000E+00 -0.00000000000E+00 -0.10000000000E+04  0.10000000000E+04  0.00000000000E+00 0.  1.
    9000005    2    1    2  501    0 -0.11848619664E-02  0.71026869341E-03 -0.89606549578E+03  0.11039344861E+04  0.64477746302E+03 0.  0.
         13    1    3    3    0    0 -0.19013577698E+03 -0.15338218238E+03 -0.87849376460E+02  0.25960589459E+03  0.00000000000E+00 0.  1.
          1    1    3    3  501    0  0.19013459212E+03  0.15338289265E+03 -0.80821611932E+03  0.84432859149E+03  0.00000000000E+00 0.  1.
         21    1    1    2  502  501  0.11848619664E-02 -0.71026869341E-03  0.52571121863E-01  0.52589269185E-01  0.00000000000E+00 0. -1.
<mgrwt>
<rscale>  1 0.64477746E+03</rscale>
<asrwt>0</asrwt>
<pdfrwt beam="1">  1        1 0.37813562E+00 0.64477746E+03</pdfrwt>
<pdfrwt beam="2">0</pdfrwt>
<totfact> 0.16739421E+00</totfact>
</mgrwt>
</event>
<event>
 6    1  0.3619848E-003  0.6477675E+03  0.7818608E-02  0.9810977E-01
          1   -1    0    0  502    0  0.00000000000E+00  0.00000000000E+00  0.10495428399E+03  0.10495428399E+03  0.00000000000E+00 0.  1.
         13   -1    0    0    0    0 -0.00000000000E+00 -0.00000000000E+00 -0.10000000000E+04  0.10000000000E+04  0.00000000000E+00 0.  1.
    9000005    2    1    2  501    0  0.14754379153E+00 -0.60074011645E-01 -0.89489347940E+03  0.11047339342E+04  0.64776747407E+03 0.  0.
         13    1    3    3    0    0  0.58392160707E+02  0.19935464221E+03 -0.23659196274E+02  0.20907337317E+03  0.00000000000E+00 0.  1.
          3    1    3    3  501    0 -0.58244616915E+02 -0.19941471622E+03 -0.87123428313E+03  0.89566056101E+03  0.00000000000E+00 0.  1.
         21    1    1    2  502  501 -0.14754379153E+00  0.60074011645E-01 -0.15223660554E+00  0.22034981589E+00  0.00000000000E+00 0. -1.
<mgrwt>
<rscale>  1 0.64776749E+03</rscale>
<asrwt>0</asrwt>
<pdfrwt beam="1">  1        1 0.38165275E+00 0.64776749E+03</pdfrwt>
<pdfrwt beam="2">0</pdfrwt>
<totfact> 0.16142996E+00</totfact>
</mgrwt>
</event>
<event>
 6    1  0.3619848E-003  0.6473635E+03  0.7818608E-02  0.9811739E-01
          1   -1    0    0  502    0  0.00000000000E+00  0.00000000000E+00  0.10493364616E+03  0.10493364616E+03  0.00000000000E+00 0.  1.
         13   -1    0    0    0    0 -0.00000000000E+00 -0.00000000000E+00 -0.10000000000E+04  0.10000000000E+04  0.00000000000E+00 0.  1.
    9000005    2    1    2  501    0 -0.46530657687E-02 -0.28492720581E-03 -0.89523010311E+03  0.11047698305E+04  0.64736345352E+03 0.  0.
         13    1    3    3    0    0 -0.22662595866E+03  0.69784176154E+02 -0.71622935869E+02  0.24770749146E+03  0.00000000000E+00 0.  1.
          1    1    3    3  501    0  0.22662130560E+03 -0.69784461081E+02 -0.82360716724E+03  0.85706233909E+03  0.00000000000E+00 0.  1.
         21    1    1    2  502  501  0.46530657687E-02  0.28492720582E-03  0.16374927308E+00  0.16381561781E+00  0.00000000000E+00 0.  1.
<mgrwt>
<rscale>  1 0.64736345E+03</rscale>
<asrwt>0</asrwt>
<pdfrwt beam="1">  1        1 0.38157770E+00 0.64736345E+03</pdfrwt>
<pdfrwt beam="2">0</pdfrwt>
<totfact> 0.16156520E+00</totfact>
</mgrwt>
</event>
<event>
 6    1  0.3619848E-003  0.6420297E+03  0.7818608E-02  0.9821851E-01
          1   -1    0    0  502    0  0.00000000000E+00  0.00000000000E+00  0.10307539278E+03  0.10307539278E+03  0.00000000000E+00 0.  1.
         13   -1    0    0    0    0 -0.00000000000E+00 -0.00000000000E+00 -0.10000000000E+04  0.10000000000E+04  0.00000000000E+00 0.  1.
    9000005    2    1    2  501    0 -0.39230957094E-03  0.96476529802E-03 -0.89694945735E+03  0.11030505208E+04  0.64202968972E+03 0.  0.
         13    1    3    3    0    0 -0.22803603686E+03 -0.20647696071E+03 -0.60609961464E+03  0.67969839802E+03  0.00000000000E+00 0.  1.
          1    1    3    3  501    0  0.22803564455E+03  0.20647792547E+03 -0.29084984271E+03  0.42335212282E+03  0.00000000000E+00 0.  1.
         21    1    1    2  502  501  0.39230957094E-03 -0.96476529804E-03  0.24850131079E-01  0.24871945914E-01  0.00000000000E+00 0. -1.
<mgrwt>
<rscale>  1 0.64202969E+03</rscale>
<asrwt>0</asrwt>
<pdfrwt beam="1">  1        1 0.37482040E+00 0.64202969E+03</pdfrwt>
<pdfrwt beam="2">0</pdfrwt>
<totfact> 0.17320562E+00</totfact>
</mgrwt>
</event>
<event>
 6    1  0.3619848E-003  0.6363336E+03  0.7818608E-02  0.9832767E-01
          1   -1    0    0  502    0  0.00000000000E+00  0.00000000000E+00  0.10148393660E+03  0.10148393660E+03  0.00000000000E+00 0.  1.
         13   -1    0    0    0    0 -0.00000000000E+00 -0.00000000000E+00 -0.10000000000E+04  0.10000000000E+04  0.00000000000E+00 0.  1.
    9000005    2    1    2  501    0  0.51586897781E-02 -0.12621166958E+00 -0.89875248393E+03  0.11012158869E+04  0.63633354944E+03 0.  0.
         13    1    3    3    0    0  0.15126400640E+03  0.46342988902E+02 -0.92706503534E+03  0.94046693296E+03  0.00000000000E+00 0.  1.
          1    1    3    3  501    0 -0.15125884771E+03 -0.46469200571E+02  0.28312551408E+02  0.16074895390E+03  0.00000000000E+00 0.  1.
         21    1    1    2  502  501 -0.51586897781E-02  0.12621166958E+00  0.23642053203E+00  0.26804974461E+00  0.00000000000E+00 0. -1.
<mgrwt>
<rscale>  1 0.63633356E+03</rscale>
<asrwt>0</asrwt>
<pdfrwt beam="1">  1        1 0.36903327E+00 0.63633356E+03</pdfrwt>
<pdfrwt beam="2">0</pdfrwt>
<totfact> 0.18384484E+00</totfact>
</mgrwt>
</event>
<event>
 6    1  0.3619848E-003  0.6510225E+03  0.7818608E-02  0.9804862E-01
          1   -1    0    0  502    0  0.00000000000E+00  0.00000000000E+00  0.10597028959E+03  0.10597028959E+03  0.00000000000E+00 0.  1.
         13   -1    0    0    0    0 -0.00000000000E+00 -0.00000000000E+00 -0.10000000000E+04  0.10000000000E+04  0.00000000000E+00 0.  1.
    9000005    2    1    2  501    0 -0.87976230845E-02  0.27010910980E-01 -0.89402156214E+03  0.11059407366E+04  0.65102254829E+03 0.  0.
         13    1    3    3    0    0 -0.12828843898E+02  0.17135297907E+03  0.22640262240E+02  0.17331763946E+03  0.00000000000E+00 0.  1.
          3    1    3    3  501    0  0.12820046275E+02 -0.17132596816E+03 -0.91666182438E+03  0.93262309709E+03  0.00000000000E+00 0.  1.
         21    1    1    2  502  501  0.87976230845E-02 -0.27010910980E-01 -0.81482735793E-02  0.29553034468E-01  0.00000000000E+00 0. -1.
<mgrwt>
<rscale>  1 0.65102255E+03</rscale>
<asrwt>0</asrwt>
<pdfrwt beam="1">  1        1 0.38534732E+00 0.65102255E+03</pdfrwt>
<pdfrwt beam="2">0</pdfrwt>
<totfact> 0.15537954E+00</totfact>
</mgrwt>
</event>
<event>
 6    1  0.3619848E-003  0.6532558E+03  0.7818608E-02  0.9800689E-01
          1   -1    0    0  502    0  0.00000000000E+00  0.00000000000E+00  0.10668587481E+03  0.10668587481E+03  0.00000000000E+00 0.  1.
         13   -1    0    0    0    0 -0.00000000000E+00 -0.00000000000E+00 -0.10000000000E+04  0.10000000000E+04  0.00000000000E+00 0.  1.
    9000005    2    1    2  501    0  0.30249258245E-05  0.34751595308E-05 -0.89331420008E+03  0.11066857998E+04  0.65325584527E+03 0.  0.
         13    1    3    3    0    0  0.18046525226E+02  0.22808116774E+03 -0.51747883375E+02  0.23457310072E+03  0.00000000000E+00 0.  1.
          3    1    3    3  501    0 -0.18046522202E+02 -0.22808116426E+03 -0.84156631670E+03  0.87211269906E+03  0.00000000000E+00 0.  1.
         21    1    1    2  502  501 -0.30249258242E-05 -0.34751595294E-05  0.74881375829E-04  0.75022978854E-04  0.00000000000E+00 0.  1.
<mgrwt>
<rscale>  1 0.65325585E+03</rscale>
<asrwt>0</asrwt>
<pdfrwt beam="1">  1        1 0.38794945E+00 0.65325585E+03</pdfrwt>
<pdfrwt beam="2">0</pdfrwt>
<totfact> 0.15124980E+00</totfact>
</mgrwt>
</event>
<event>
 6    1  0.3619848E-003  0.6608893E+03  0.7818608E-02  0.9786558E-01
          1   -1    0    0  502    0  0.00000000000E+00  0.00000000000E+00  0.10919569957E+03  0.10919569957E+03  0.00000000000E+00 0.  1.
         13   -1    0    0    0    0 -0.00000000000E+00 -0.00000000000E+00 -0.10000000000E+04  0.10000000000E+04  0.00000000000E+00 0.  1.
    9000005    2    1    2  501    0 -0.11937041961E-02 -0.80786299336E-03 -0.89080604426E+03  0.11091934372E+04  0.66088930431E+03 0.  0.
         13    1    3    3    0    0 -0.10451988335E+03  0.11098310951E+03  0.46644009103E+02  0.15942810354E+03  0.00000000000E+00 0.  1.
          3    1    3    3  501    0  0.10451868965E+03 -0.11098391737E+03 -0.93745005336E+03  0.94976533362E+03  0.00000000000E+00 0.  1.
         21    1    1    2  502  501  0.11937041961E-02  0.80786299335E-03  0.17438235244E-02  0.22624086298E-02  0.00000000000E+00 0.  1.
<mgrwt>
<rscale>  1 0.66088930E+03</rscale>
<asrwt>0</asrwt>
<pdfrwt beam="1">  1        1 0.39707611E+00 0.66088930E+03</pdfrwt>
<pdfrwt beam="2">0</pdfrwt>
<totfact> 0.13757791E+00</totfact>
</mgrwt>
</event>
<event>
 6    1  0.3619848E-003  0.6757049E+03  0.7818608E-02  0.9759706E-01
          1   -1    0    0  502    0  0.00000000000E+00  0.00000000000E+00  0.11414518404E+03  0.11414518404E+03  0.00000000000E+00 0.  1.
         13   -1    0    0    0    0 -0.00000000000E+00 -0.00000000000E+00 -0.10000000000E+04  0.10000000000E+04  0.00000000000E+00 0.  1.
    9000005    2    1    2  501    0  0.13442886899E-03  0.29916103671E-04 -0.88585570211E+03  0.11141442872E+04  0.67570494140E+03 0.  0.
         13    1    3    3    0    0 -0.31170397522E+03 -0.10267399728E+03 -0.31057713197E+03  0.45184009649E+03  0.00000000000E+00 0.  1.
          1    1    3    3  501    0  0.31170410965E+03  0.10267402720E+03 -0.57527857014E+03  0.66230419076E+03  0.00000000000E+00 0.  1.
         21    1    1    2  502  501 -0.13442886902E-03 -0.29916103673E-04  0.88615475857E-03  0.89679225589E-03  0.00000000000E+00 0. -1.
<mgrwt>
<rscale>  1 0.67570494E+03</rscale>
<asrwt>0</asrwt>
<pdfrwt beam="1">  1        1 0.41507427E+00 0.67570494E+03</pdfrwt>
<pdfrwt beam="2">0</pdfrwt>
<totfact> 0.11396921E+00</totfact>
</mgrwt>
</event>
<event>
 6    1  0.3619848E-003  0.6431501E+03  0.7818608E-02  0.9819718E-01
          1   -1    0    0  502    0  0.00000000000E+00  0.00000000000E+00  0.10341055780E+03  0.10341055780E+03  0.00000000000E+00 0.  1.
         13   -1    0    0    0    0 -0.00000000000E+00 -0.00000000000E+00 -0.10000000000E+04  0.10000000000E+04  0.00000000000E+00 0.  1.
    9000005    2    1    2  501    0 -0.89092221458E-05  0.35416707931E-05 -0.89658947518E+03  0.11034105235E+04  0.64315013510E+03 0.  0.
         13    1    3    3    0    0  0.25275761721E+03  0.19089037692E+03 -0.54358542399E+03  0.62913485219E+03  0.00000000000E+00 0.  1.
          3    1    3    3  501    0 -0.25275762612E+03 -0.19089037338E+03 -0.35300405118E+03  0.47427567127E+03  0.00000000000E+00 0.  1.
         21    1    1    2  502  501  0.89092221515E-05 -0.35416708127E-05  0.32977374080E-04  0.34342755753E-04  0.00000000000E+00 0.  1.
<mgrwt>
<rscale>  1 0.64315014E+03</rscale>
<asrwt>0</asrwt>
<pdfrwt beam="1">  1        1 0.37603918E+00 0.64315014E+03</pdfrwt>
<pdfrwt beam="2">0</pdfrwt>
<totfact> 0.17104367E+00</totfact>
</mgrwt>
</event>
<event>
 6    1  0.3619848E-003  0.6680098E+03  0.7818608E-02  0.9773560E-01
          1   -1    0    0  502    0  0.00000000000E+00  0.00000000000E+00  0.11538725741E+03  0.11538725741E+03  0.00000000000E+00 0.  1.
         13   -1    0    0    0    0 -0.00000000000E+00 -0.00000000000E+00 -0.10000000000E+04  0.10000000000E+04  0.00000000000E+00 0.  1.
    9000005    2    1    2  501    0 -0.70849015081E+01 -0.84030425104E+01 -0.86512222767E+03  0.10930112183E+04  0.66791934217E+03 0.  0.
         13    1    3    3    0    0 -0.43872508821E+02  0.31740364176E+03 -0.55964747804E+03  0.64488384110E+03  0.00000000000E+00 0.  1.
          1    1    3    3  501    0  0.36787607312E+02 -0.32580668427E+03 -0.30547474963E+03  0.44812737723E+03  0.00000000000E+00 0.  1.
         21    1    1    2  502  501  0.70849015081E+01  0.84030425104E+01 -0.19490514923E+02  0.22376039077E+02  0.00000000000E+00 0. -1.
<mgrwt>
<rscale>  1 0.66800977E+03</rscale>
<asrwt>0</asrwt>
<pdfrwt beam="1">  1        1 0.41959091E+00 0.66800977E+03</pdfrwt>
<pdfrwt beam="2">0</pdfrwt>
<totfact> 0.10891167E+00</totfact>
</mgrwt>
</event>
<event>
 6    1  0.3619848E-003  0.6521098E+03  0.7818608E-02  0.9802828E-01
          1   -1    0    0  502    0  0.00000000000E+00  0.00000000000E+00  0.10631264942E+03  0.10631264942E+03  0.00000000000E+00 0.  1.
         13   -1    0    0    0    0 -0.00000000000E+00 -0.00000000000E+00 -0.10000000000E+04  0.10000000000E+04  0.00000000000E+00 0.  1.
    9000005    2    1    2  501    0 -0.14535222323E-03  0.13195356356E-03 -0.89368818130E+03  0.11063117958E+04  0.65210982525E+03 0.  0.
         13    1    3    3    0    0  0.31988340963E+03 -0.47995387506E+02 -0.51643818518E+03  0.60937455813E+03  0.00000000000E+00 0.  1.
          1    1    3    3  501    0 -0.31988355499E+03  0.47995519459E+02 -0.37724999612E+03  0.49693723770E+03  0.00000000000E+00 0.  1.
         21    1    1    2  502  501  0.14535222322E-03 -0.13195356356E-03  0.83072048219E-03  0.85360150613E-03  0.00000000000E+00 0.  1.
<mgrwt>
<rscale>  1 0.65210983E+03</rscale>
<asrwt>0</asrwt>
<pdfrwt beam="1">  1        1 0.38659227E+00 0.65210983E+03</pdfrwt>
<pdfrwt beam="2">0</pdfrwt>
<totfact> 0.15339002E+00</totfact>
</mgrwt>
</event>
<event>
 6    1  0.3619848E-003  0.6454248E+03  0.7818608E-02  0.9815402E-01
          1   -1    0    0  502    0  0.00000000000E+00  0.00000000000E+00  0.10414427553E+03  0.10414427553E+03  0.00000000000E+00 0.  1.
         13   -1    0    0    0    0 -0.00000000000E+00 -0.00000000000E+00 -0.10000000000E+04  0.10000000000E+04  0.00000000000E+00 0.  1.
    9000005    2    1    2  501    0  0.29710381127E-02 -0.48102901744E-04 -0.89585270152E+03  0.11041400367E+04  0.64542478867E+03 0.  0.
         13    1    3    3    0    0 -0.20072607921E+03 -0.11804329265E+03 -0.65712461761E+02  0.24195723888E+03  0.00000000000E+00 0.  1.
          1    1    3    3  501    0  0.20072905025E+03  0.11804324455E+03 -0.83014023976E+03  0.86218279783E+03  0.00000000000E+00 0.  1.
         21    1    1    2  502  501 -0.29710381128E-02  0.48102901744E-04 -0.30229495617E-02  0.42388212288E-02  0.00000000000E+00 0.  1.
<mgrwt>
<rscale>  1 0.64542479E+03</rscale>
<asrwt>0</asrwt>
<pdfrwt beam="1">  1        1 0.37870726E+00 0.64542479E+03</pdfrwt>
<pdfrwt beam="2">0</pdfrwt>
<totfact> 0.16640583E+00</totfact>
</mgrwt>
</event>
<event>
 6    1  0.3619848E-003  0.6503765E+03  0.7818608E-02  0.9806073E-01
          1   -1    0    0  502    0  0.00000000000E+00  0.00000000000E+00  0.10614686862E+03  0.10614686862E+03  0.00000000000E+00 0.  1.
         13   -1    0    0    0    0 -0.00000000000E+00 -0.00000000000E+00 -0.10000000000E+04  0.10000000000E+04  0.00000000000E+00 0.  1.
    9000005    2    1    2  501    0 -0.66903338439E+00 -0.33632295006E+00 -0.89381971137E+03  0.11053973116E+04  0.65037602921E+03 0.  0.
         13    1    3    3    0    0  0.72747114331E+02 -0.28606772136E+03 -0.67922980484E+03  0.74059436376E+03  0.00000000000E+00 0.  1.
          1    1    3    3  501    0 -0.73416147716E+02  0.28573139841E+03 -0.21458990653E+03  0.36480294786E+03  0.00000000000E+00 0.  1.
         21    1    1    2  502  501  0.66903338439E+00  0.33632295006E+00 -0.33420011651E-01  0.74955699806E+00  0.00000000000E+00 0.  1.
<mgrwt>
<rscale>  1 0.65037646E+03</rscale>
<asrwt>0</asrwt>
<pdfrwt beam="1">  1        1 0.38598943E+00 0.65037646E+03</pdfrwt>
<pdfrwt beam="2">0</pdfrwt>
<totfact> 0.15438480E+00</totfact>
</mgrwt>
</event>
<event>
 6    1  0.3619848E-003  0.6503429E+03  0.7818608E-02  0.9806136E-01
          1   -1    0    0  502    0  0.00000000000E+00  0.00000000000E+00  0.10573650216E+03  0.10573650216E+03  0.00000000000E+00 0.  1.
         13   -1    0    0    0    0 -0.00000000000E+00 -0.00000000000E+00 -0.10000000000E+04  0.10000000000E+04  0.00000000000E+00 0.  1.
    9000005    2    1    2  501    0  0.57007037753E-04  0.17944004753E-05 -0.89426349537E+03  0.11057364451E+04  0.65034289939E+03 0.  0.
         13    1    3    3    0    0 -0.24816319355E+03  0.20829538971E+03 -0.49414310447E+03  0.59088860854E+03  0.00000000000E+00 0.  1.
          1    1    3    3  501    0  0.24816325056E+03 -0.20829538792E+03 -0.40012039091E+03  0.51484783653E+03  0.00000000000E+00 0.  1.
         21    1    1    2  502  501 -0.57007037759E-04 -0.17944004806E-05 -0.24711459822E-05  0.57088779893E-04  0.00000000000E+00 0.  1.
<mgrwt>
<rscale>  1 0.65034290E+03</rscale>
<asrwt>0</asrwt>
<pdfrwt beam="1">  1        1 0.38449718E+00 0.65034290E+03</pdfrwt>
<pdfrwt beam="2">0</pdfrwt>
<totfact> 0.15675036E+00</totfact>
</mgrwt>
</event>
<event>
 6    1  0.4395638E-003  0.6500288E+03  0.7818608E-02  0.9806725E-01
          1   -1    0    0  502    0  0.00000000000E+00  0.00000000000E+00  0.10563437397E+03  0.10563437397E+03  0.00000000000E+00 0.  1.
         13   -1    0    0    0    0 -0.00000000000E+00 -0.00000000000E+00 -0.10000000000E+04  0.10000000000E+04  0.00000000000E+00 0.  1.
    9000005    2    1    2  501    0  0.55403525749E-05  0.38391731323E-05 -0.89436562301E+03  0.11056343666E+04  0.65002883393E+03 0.  0.
         13    1    3    3    0    0 -0.50395297866E+02 -0.30041708157E+03 -0.63995015382E+03  0.70874982069E+03  0.00000000000E+00 0.  1.
          1    1    3    3  501    0  0.50395303406E+02  0.30041708541E+03 -0.25441546919E+03  0.39688454590E+03  0.00000000000E+00 0.  1.
         21    1    1    2  502  501 -0.55403525757E-05 -0.38391731405E-05 -0.30159787031E-05  0.73845030032E-05  0.00000000000E+00 0. -1.
<mgrwt>
<rscale>  1 0.65002883E+03</rscale>
<asrwt>0</asrwt>
<pdfrwt beam="1">  1        1 0.38412581E+00 0.65002883E+03</pdfrwt>
<pdfrwt beam="2">0</pdfrwt>
<totfact> 0.15735329E+00</totfact>
</mgrwt>
</event>
<event>
 6    1  0.3619848E-003  0.6344681E+03  0.7818608E-02  0.9836368E-01
          1   -1    0    0  502    0  0.00000000000E+00  0.00000000000E+00  0.10063746595E+03  0.10063746595E+03  0.00000000000E+00 0.  1.
         13   -1    0    0    0    0 -0.00000000000E+00 -0.00000000000E+00 -0.10000000000E+04  0.10000000000E+04  0.00000000000E+00 0.  1.
    9000005    2    1    2  501    0  0.28948598469E-05 -0.24244005338E-04 -0.89936254164E+03  0.11006374404E+04  0.63446811887E+03 0.  0.
         13    1    3    3    0    0  0.28334805084E+03 -0.14193898191E+02 -0.20343450041E+03  0.34910339531E+03  0.00000000000E+00 0.  1.
          1    1    3    3  501    0 -0.28334804794E+03  0.14193873947E+02 -0.69592804123E+03  0.75153404507E+03  0.00000000000E+00 0.  1.
         21    1    1    2  502  501 -0.28948598426E-05  0.24244005338E-04  0.75964505072E-05  0.25570648577E-04  0.00000000000E+00 0. -1.
<mgrwt>
<rscale>  1 0.63446812E+03</rscale>
<asrwt>0</asrwt>
<pdfrwt beam="1">  1        1 0.36595519E+00 0.63446812E+03</pdfrwt>
<pdfrwt beam="2">0</pdfrwt>
<totfact> 0.18971524E+00</totfact>
</mgrwt>
</event>
<event>
 6    1  0.3619848E-003  0.6789673E+03  0.7818608E-02  0.9753893E-01
          1   -1    0    0  502    0  0.00000000000E+00  0.00000000000E+00  0.11695265012E+03  0.11695265012E+03  0.00000000000E+00 0.  1.
         13   -1    0    0    0    0 -0.00000000000E+00 -0.00000000000E+00 -0.10000000000E+04  0.10000000000E+04  0.00000000000E+00 0.  1.
    9000005    2    1    2  501    0 -0.58092678632E-01  0.69233472219E-01 -0.88474950883E+03  0.11152480935E+04  0.67896731040E+03 0.  0.
         13    1    3    3    0    0 -0.32219014076E+03 -0.81111844776E+02 -0.32769480286E+03  0.46665779966E+03  0.00000000000E+00 0.  1.
          1    1    3    3  501    0  0.32213204808E+03  0.81181078248E+02 -0.55705470597E+03  0.64859029388E+03  0.00000000000E+00 0.  1.
         21    1    1    2  502  501  0.58092678632E-01 -0.69233472219E-01  0.17021589485E+01  0.17045565754E+01  0.00000000000E+00 0. -1.
<mgrwt>
<rscale>  1 0.67896732E+03</rscale>
<asrwt>0</asrwt>
<pdfrwt beam="1">  1        1 0.42528326E+00 0.67896732E+03</pdfrwt>
<pdfrwt beam="2">0</pdfrwt>
<totfact> 0.10242948E+00</totfact>
</mgrwt>
</event>
<event>
 6    1  0.3619848E-003  0.6576823E+03  0.7818608E-02  0.9792470E-01
          1   -1    0    0  502    0  0.00000000000E+00  0.00000000000E+00  0.10813652770E+03  0.10813652770E+03  0.00000000000E+00 0.  1.
         13   -1    0    0    0    0 -0.00000000000E+00 -0.00000000000E+00 -0.10000000000E+04  0.10000000000E+04  0.00000000000E+00 0.  1.
    9000005    2    1    2  501    0  0.32590069054E-04  0.25331093951E-04 -0.89186348445E+03  0.11081364847E+04  0.65768228938E+03 0.  0.
         13    1    3    3    0    0 -0.17148226696E+03 -0.24839086082E+03 -0.66582590154E+03  0.73104604423E+03  0.00000000000E+00 0.  1.
          3    1    3    3  501    0  0.17148229955E+03  0.24839088615E+03 -0.22603758291E+03  0.37709044044E+03  0.00000000000E+00 0.  1.
         21    1    1    2  502  501 -0.32590069071E-04 -0.25331093966E-04  0.12147309932E-04  0.43027131698E-04  0.00000000000E+00 0. -1.
<mgrwt>
<rscale>  1 0.65768229E+03</rscale>
<asrwt>0</asrwt>
<pdfrwt beam="1">  1        1 0.39322457E+00 0.65768229E+03</pdfrwt>
<pdfrwt beam="2">0</pdfrwt>
<totfact> 0.14319792E+00</totfact>
</mgrwt>
</event>
