<event>
 5    1  0.2369161E-004  0.6537045E+03  0.7818608E-02  0.9799853E-01
         13   -1    0    0    0    0  0.00000000000E+00  0.00000000000E+00  0.10000000000E+04  0.10000000000E+04  0.00000000000E+00 0. -1.
          2   -1    0    0  501    0 -0.00000000000E+00 -0.00000000000E+00 -0.10683239884E+03  0.10683239884E+03  0.00000000000E+00 0. -1.
    9000006    2    1    2  501    0  0.00000000000E+00  0.00000000000E+00  0.89316760116E+03  0.11068323988E+04  0.65370451687E+03 0.  0.
         13    1    3    3    0    0  0.82824066055E+02 -0.31605682101E+03  0.43137740426E+03  0.54114527156E+03  0.00000000000E+00 0. -1.
          2    1    3    3  501    0 -0.82824066055E+02  0.31605682101E+03  0.46179019690E+03  0.56568712728E+03  0.00000000000E+00 0. -1.
<mgrwt>
<rscale>  0 0.65370452E+03</rscale>
<asrwt>0</asrwt>
<pdfrwt beam="1">0</pdfrwt>
<pdfrwt beam="2">  1        2 0.38848227E+00 0.65370452E+03</pdfrwt>
<totfact> 0.43960302E+00</totfact>
</mgrwt>
</event>
<event>
 5    1  0.2369161E-004  0.6535567E+03  0.7818608E-02  0.9800128E-01
         13   -1    0    0    0    0  0.00000000000E+00  0.00000000000E+00  0.10000000000E+04  0.10000000000E+04  0.00000000000E+00 0. -1.
          2   -1    0    0  501    0 -0.00000000000E+00 -0.00000000000E+00 -0.10678408313E+03  0.10678408313E+03  0.00000000000E+00 0. -1.
    9000006    2    1    2  501    0  0.00000000000E+00  0.00000000000E+00  0.89321591687E+03  0.11067840831E+04  0.65355667889E+03 0.  0.
         13    1    3    3    0    0  0.25549649506E+02 -0.28670221064E+03  0.18462110615E+03  0.34195890836E+03  0.00000000000E+00 0. -1.
          2    1    3    3  501    0 -0.25549649506E+02  0.28670221064E+03  0.70859481072E+03  0.76482517477E+03  0.00000000000E+00 0. -1.
<mgrwt>
<rscale>  0 0.65355668E+03</rscale>
<asrwt>0</asrwt>
<pdfrwt beam="1">0</pdfrwt>
<pdfrwt beam="2">  1        2 0.38830658E+00 0.65355668E+03</pdfrwt>
<totfact> 0.44026922E+00</totfact>
</mgrwt>
</event>
<event>
 5    1  0.2369161E-004  0.6529883E+03  0.7818608E-02  0.9801188E-01
         13   -1    0    0    0    0  0.00000000000E+00  0.00000000000E+00  0.10000000000E+04  0.10000000000E+04  0.00000000000E+00 0. -1.
          2   -1    0    0  501    0 -0.00000000000E+00 -0.00000000000E+00 -0.10659844071E+03  0.10659844071E+03  0.00000000000E+00 0. -1.
    9000006    2    1    2  501    0  0.00000000000E+00  0.00000000000E+00  0.89340155929E+03  0.11065984407E+04  0.65298833284E+03 0.  0.
         13    1    3    3    0    0 -0.29938069666E+02  0.10354715085E+03 -0.75576382320E+02  0.13164379981E+03  0.00000000000E+00 0. -1.
          4    1    3    3  501    0  0.29938069666E+02 -0.10354715085E+03  0.96897794161E+03  0.97495464089E+03  0.00000000000E+00 0. -1.
<mgrwt>
<rscale>  0 0.65298833E+03</rscale>
<asrwt>0</asrwt>
<pdfrwt beam="1">0</pdfrwt>
<pdfrwt beam="2">  1        2 0.38763151E+00 0.65298833E+03</pdfrwt>
<totfact> 0.44283744E+00</totfact>
</mgrwt>
</event>
<event>
 5    1  0.2369161E-004  0.6679330E+03  0.7818608E-02  0.9773699E-01
         13   -1    0    0    0    0  0.00000000000E+00  0.00000000000E+00  0.10000000000E+04  0.10000000000E+04  0.00000000000E+00 0. -1.
          2   -1    0    0  501    0 -0.00000000000E+00 -0.00000000000E+00 -0.11153361449E+03  0.11153361449E+03  0.00000000000E+00 0. -1.
    9000006    2    1    2  501    0  0.00000000000E+00  0.00000000000E+00  0.88846638551E+03  0.11115336145E+04  0.66793297415E+03 0.  0.
         13    1    3    3    0    0 -0.41674625047E+02  0.84958362750E+02 -0.88756451733E+02  0.12973976067E+03  0.00000000000E+00 0. -1.
          4    1    3    3  501    0  0.41674625047E+02 -0.84958362750E+02  0.97722283724E+03  0.98179385382E+03  0.00000000000E+00 0. -1.
<mgrwt>
<rscale>  0 0.66793297E+03</rscale>
<asrwt>0</asrwt>
<pdfrwt beam="1">0</pdfrwt>
<pdfrwt beam="2">  1        2 0.40557764E+00 0.66793297E+03</pdfrwt>
<totfact> 0.37896505E+00</totfact>
</mgrwt>
</event>
<event>
 5    1  0.2369161E-004  0.6352970E+03  0.7818608E-02  0.9834766E-01
         13   -1    0    0    0    0  0.00000000000E+00  0.00000000000E+00  0.10000000000E+04  0.10000000000E+04  0.00000000000E+00 0. -1.
          2   -1    0    0  501    0 -0.00000000000E+00 -0.00000000000E+00 -0.10090056098E+03  0.10090056098E+03  0.00000000000E+00 0. -1.
    9000006    2    1    2  501    0  0.00000000000E+00  0.00000000000E+00  0.89909943902E+03  0.11009005610E+04  0.63529697300E+03 0.  0.
         13    1    3    3    0    0  0.14055782925E+03  0.40585034072E+02  0.93814181681E+03  0.94948076168E+03  0.00000000000E+00 0. -1.
          2    1    3    3  501    0 -0.14055782925E+03 -0.40585034072E+02 -0.39042377785E+02  0.15141979930E+03  0.00000000000E+00 0. -1.
<mgrwt>
<rscale>  0 0.63529697E+03</rscale>
<asrwt>0</asrwt>
<pdfrwt beam="1">0</pdfrwt>
<pdfrwt beam="2">  1        2 0.36691190E+00 0.63529697E+03</pdfrwt>
<totfact> 0.52861216E+00</totfact>
</mgrwt>
</event>
<event>
 5    1  0.2369161E-004  0.6480602E+03  0.7818608E-02  0.9810426E-01
         13   -1    0    0    0    0  0.00000000000E+00  0.00000000000E+00  0.10000000000E+04  0.10000000000E+04  0.00000000000E+00 0. -1.
          2   -1    0    0  501    0 -0.00000000000E+00 -0.00000000000E+00 -0.10499550991E+03  0.10499550991E+03  0.00000000000E+00 0. -1.
    9000006    2    1    2  501    0  0.00000000000E+00  0.00000000000E+00  0.89500449009E+03  0.11049955099E+04  0.64806021297E+03 0.  0.
         13    1    3    3    0    0  0.20481521691E+03 -0.23643341977E+03  0.59163434079E+03  0.66923929074E+03  0.00000000000E+00 0. -1.
          4    1    3    3  501    0 -0.20481521691E+03  0.23643341977E+03  0.30337014930E+03  0.43575621917E+03  0.00000000000E+00 0. -1.
<mgrwt>
<rscale>  0 0.64806021E+03</rscale>
<asrwt>0</asrwt>
<pdfrwt beam="1">0</pdfrwt>
<pdfrwt beam="2">  1        2 0.38180266E+00 0.64806021E+03</pdfrwt>
<totfact> 0.46558397E+00</totfact>
</mgrwt>
</event>
<event>
 5    1  0.2369161E-004  0.6426381E+03  0.7818608E-02  0.9820692E-01
         13   -1    0    0    0    0  0.00000000000E+00  0.00000000000E+00  0.10000000000E+04  0.10000000000E+04  0.00000000000E+00 0. -1.
          2   -1    0    0  501    0 -0.00000000000E+00 -0.00000000000E+00 -0.10324591903E+03  0.10324591903E+03  0.00000000000E+00 0. -1.
    9000006    2    1    2  501    0  0.00000000000E+00  0.00000000000E+00  0.89675408097E+03  0.11032459190E+04  0.64263805997E+03 0.  0.
         13    1    3    3    0    0 -0.92086508260E+01  0.19350178503E+03  0.88847428270E+03  0.90934827821E+03  0.00000000000E+00 0. -1.
          2    1    3    3  501    0  0.92086508260E+01 -0.19350178503E+03  0.82797982684E+01  0.19389764082E+03  0.00000000000E+00 0. -1.
<mgrwt>
<rscale>  0 0.64263806E+03</rscale>
<asrwt>0</asrwt>
<pdfrwt beam="1">0</pdfrwt>
<pdfrwt beam="2">  1        2 0.37544050E+00 0.64263806E+03</pdfrwt>
<totfact> 0.49161985E+00</totfact>
</mgrwt>
</event>
<event>
 5    1  0.2369161E-004  0.6584373E+03  0.7818608E-02  0.9791075E-01
         13   -1    0    0    0    0  0.00000000000E+00  0.00000000000E+00  0.10000000000E+04  0.10000000000E+04  0.00000000000E+00 0. -1.
          2   -1    0    0  501    0 -0.00000000000E+00 -0.00000000000E+00 -0.10838491389E+03  0.10838491389E+03  0.00000000000E+00 0. -1.
    9000006    2    1    2  501    0  0.00000000000E+00  0.00000000000E+00  0.89161508611E+03  0.11083849139E+04  0.65843728292E+03 0.  0.
         13    1    3    3    0    0 -0.14322039411E+03  0.29404997642E+03  0.50896021774E+03  0.60499419266E+03  0.00000000000E+00 0. -1.
          4    1    3    3  501    0  0.14322039411E+03 -0.29404997642E+03  0.38265486838E+03  0.50339072122E+03  0.00000000000E+00 0. -1.
<mgrwt>
<rscale>  0 0.65843728E+03</rscale>
<asrwt>0</asrwt>
<pdfrwt beam="1">0</pdfrwt>
<pdfrwt beam="2">  1        2 0.39412779E+00 0.65843728E+03</pdfrwt>
<totfact> 0.41867524E+00</totfact>
</mgrwt>
</event>
<event>
 5    1  0.2369161E-004  0.6493291E+03  0.7818608E-02  0.9808039E-01
         13   -1    0    0    0    0  0.00000000000E+00  0.00000000000E+00  0.10000000000E+04  0.10000000000E+04  0.00000000000E+00 0. -1.
          2   -1    0    0  501    0 -0.00000000000E+00 -0.00000000000E+00 -0.10540706655E+03  0.10540706655E+03  0.00000000000E+00 0. -1.
    9000006    2    1    2  501    0  0.00000000000E+00  0.00000000000E+00  0.89459293345E+03  0.11054070666E+04  0.64932908930E+03 0.  0.
         13    1    3    3    0    0 -0.19819993722E+03 -0.78476239384E+02  0.30419887953E+02  0.21533022278E+03  0.00000000000E+00 0. -1.
          4    1    3    3  501    0  0.19819993722E+03  0.78476239384E+02  0.86417304549E+03  0.89007684377E+03  0.00000000000E+00 0. -1.
<mgrwt>
<rscale>  0 0.64932909E+03</rscale>
<asrwt>0</asrwt>
<pdfrwt beam="1">0</pdfrwt>
<pdfrwt beam="2">  1        2 0.38329923E+00 0.64932909E+03</pdfrwt>
<totfact> 0.45964479E+00</totfact>
</mgrwt>
</event>
<event>
 5    1  0.2369161E-004  0.6557088E+03  0.7818608E-02  0.9796126E-01
         13   -1    0    0    0    0  0.00000000000E+00  0.00000000000E+00  0.10000000000E+04  0.10000000000E+04  0.00000000000E+00 0. -1.
          2   -1    0    0  501    0 -0.00000000000E+00 -0.00000000000E+00 -0.10748851033E+03  0.10748851033E+03  0.00000000000E+00 0. -1.
    9000006    2    1    2  501    0  0.00000000000E+00  0.00000000000E+00  0.89251148967E+03  0.11074885103E+04  0.65570880834E+03 0.  0.
         13    1    3    3    0    0  0.92961643273E+02  0.14514114459E+03  0.91730260268E+03  0.93335517562E+03  0.00000000000E+00 0. -1.
          4    1    3    3  501    0 -0.92961643273E+02 -0.14514114459E+03 -0.24791113017E+02  0.17413333471E+03  0.00000000000E+00 0. -1.
<mgrwt>
<rscale>  0 0.65570881E+03</rscale>
<asrwt>0</asrwt>
<pdfrwt beam="1">0</pdfrwt>
<pdfrwt beam="2">  1        2 0.39086813E+00 0.65570881E+03</pdfrwt>
<totfact> 0.43064607E+00</totfact>
</mgrwt>
</event>
<event>
 5    1  0.2369161E-004  0.6646523E+03  0.7818608E-02  0.9779667E-01
         13   -1    0    0    0    0  0.00000000000E+00  0.00000000000E+00  0.10000000000E+04  0.10000000000E+04  0.00000000000E+00 0. -1.
          2   -1    0    0  501    0 -0.00000000000E+00 -0.00000000000E+00 -0.11044065865E+03  0.11044065865E+03  0.00000000000E+00 0. -1.
    9000006    2    1    2  501    0  0.00000000000E+00  0.00000000000E+00  0.88955934135E+03  0.11104406586E+04  0.66465226592E+03 0.  0.
         13    1    3    3    0    0 -0.14925039840E+03 -0.29687437463E+03  0.45401899604E+03  0.56262183081E+03  0.00000000000E+00 0. -1.
          4    1    3    3  501    0  0.14925039840E+03  0.29687437463E+03  0.43554034531E+03  0.54781882784E+03  0.00000000000E+00 0. -1.
<mgrwt>
<rscale>  0 0.66465227E+03</rscale>
<asrwt>0</asrwt>
<pdfrwt beam="1">0</pdfrwt>
<pdfrwt beam="2">  1        2 0.40160324E+00 0.66465227E+03</pdfrwt>
<totfact> 0.39234817E+00</totfact>
</mgrwt>
</event>
<event>
 5    1  0.2369161E-004  0.6539336E+03  0.7818608E-02  0.9799426E-01
         13   -1    0    0    0    0  0.00000000000E+00  0.00000000000E+00  0.10000000000E+04  0.10000000000E+04  0.00000000000E+00 0. -1.
          2   -1    0    0  501    0 -0.00000000000E+00 -0.00000000000E+00 -0.10690727214E+03  0.10690727214E+03  0.00000000000E+00 0. -1.
    9000006    2    1    2  501    0  0.00000000000E+00  0.00000000000E+00  0.89309272786E+03  0.11069072721E+04  0.65393355057E+03 0.  0.
         13    1    3    3    0    0  0.71416654615E+02 -0.13275831264E+03  0.93766641298E+03  0.94970701280E+03  0.00000000000E+00 0. -1.
          2    1    3    3  501    0 -0.71416654615E+02  0.13275831264E+03 -0.44573685120E+02  0.15720025934E+03  0.00000000000E+00 0. -1.
<mgrwt>
<rscale>  0 0.65393355E+03</rscale>
<asrwt>0</asrwt>
<pdfrwt beam="1">0</pdfrwt>
<pdfrwt beam="2">  1        2 0.38875454E+00 0.65393355E+03</pdfrwt>
<totfact> 0.43857244E+00</totfact>
</mgrwt>
</event>
<event>
 5    1  0.2369161E-004  0.6467111E+03  0.7818608E-02  0.9812970E-01
         13   -1    0    0    0    0  0.00000000000E+00  0.00000000000E+00  0.10000000000E+04  0.10000000000E+04  0.00000000000E+00 0. -1.
          2   -1    0    0  501    0 -0.00000000000E+00 -0.00000000000E+00 -0.10455880564E+03  0.10455880564E+03  0.00000000000E+00 0. -1.
    9000006    2    1    2  501    0  0.00000000000E+00  0.00000000000E+00  0.89544119436E+03  0.11045588056E+04  0.64671108120E+03 0.  0.
         13    1    3    3    0    0  0.30282113850E+03  0.11098149911E+02  0.64046329142E+03  0.70853160728E+03  0.00000000000E+00 0. -1.
          2    1    3    3  501    0 -0.30282113850E+03 -0.11098149911E+02  0.25497790294E+03  0.39602719836E+03  0.00000000000E+00 0. -1.
<mgrwt>
<rscale>  0 0.64671108E+03</rscale>
<asrwt>0</asrwt>
<pdfrwt beam="1">0</pdfrwt>
<pdfrwt beam="2">  1        2 0.38021464E+00 0.64671108E+03</pdfrwt>
<totfact> 0.47196225E+00</totfact>
</mgrwt>
</event>
<event>
 5    1  0.2369161E-004  0.6573114E+03  0.7818608E-02  0.9793156E-01
         13   -1    0    0    0    0  0.00000000000E+00  0.00000000000E+00  0.10000000000E+04  0.10000000000E+04  0.00000000000E+00 0. -1.
          2   -1    0    0  501    0 -0.00000000000E+00 -0.00000000000E+00 -0.10801457723E+03  0.10801457723E+03  0.00000000000E+00 0. -1.
    9000006    2    1    2  501    0  0.00000000000E+00  0.00000000000E+00  0.89198542277E+03  0.11080145772E+04  0.65731142460E+03 0.  0.
         13    1    3    3    0    0 -0.11721315204E+03  0.78762977969E+02  0.94624990204E+03  0.95672953693E+03  0.00000000000E+00 0. -1.
          4    1    3    3  501    0  0.11721315204E+03 -0.78762977969E+02 -0.54264479270E+02  0.15128504030E+03  0.00000000000E+00 0. -1.
<mgrwt>
<rscale>  0 0.65731142E+03</rscale>
<asrwt>0</asrwt>
<pdfrwt beam="1">0</pdfrwt>
<pdfrwt beam="2">  1        2 0.39278111E+00 0.65731142E+03</pdfrwt>
<totfact> 0.42358389E+00</totfact>
</mgrwt>
</event>
<event>
 5    1  0.2369161E-004  0.6609650E+03  0.7818608E-02  0.9786419E-01
         13   -1    0    0    0    0  0.00000000000E+00  0.00000000000E+00  0.10000000000E+04  0.10000000000E+04  0.00000000000E+00 0. -1.
          2   -1    0    0  501    0 -0.00000000000E+00 -0.00000000000E+00 -0.10921868958E+03  0.10921868958E+03  0.00000000000E+00 0. -1.
    9000006    2    1    2  501    0  0.00000000000E+00  0.00000000000E+00  0.89078131042E+03  0.11092186896E+04  0.66096502049E+03 0.  0.
         13    1    3    3    0    0  0.39624453667E+02  0.32514359476E+03  0.37166072900E+03  0.49539898266E+03  0.00000000000E+00 0. -1.
          4    1    3    3  501    0 -0.39624453667E+02 -0.32514359476E+03  0.51912058142E+03  0.61381970692E+03  0.00000000000E+00 0. -1.
<mgrwt>
<rscale>  0 0.66096502E+03</rscale>
<asrwt>0</asrwt>
<pdfrwt beam="1">0</pdfrwt>
<pdfrwt beam="2">  1        2 0.39715971E+00 0.66096502E+03</pdfrwt>
<totfact> 0.40781177E+00</totfact>
</mgrwt>
</event>
<event>
 5    1  0.2369161E-004  0.6714815E+03  0.7818608E-02  0.9767285E-01
         13   -1    0    0    0    0  0.00000000000E+00  0.00000000000E+00  0.10000000000E+04  0.10000000000E+04  0.00000000000E+00 0. -1.
          2   -1    0    0  501    0 -0.00000000000E+00 -0.00000000000E+00 -0.11272184152E+03  0.11272184152E+03  0.00000000000E+00 0. -1.
    9000006    2    1    2  501    0  0.00000000000E+00  0.00000000000E+00  0.88727815848E+03  0.11127218415E+04  0.67148147113E+03 0.  0.
         13    1    3    3    0    0 -0.34268740838E+02 -0.35783222155E+02 -0.10663045573E+03  0.11757907839E+03  0.00000000000E+00 0. -1.
          4    1    3    3  501    0  0.34268740838E+02  0.35783222155E+02  0.99390861421E+03  0.99514276312E+03  0.00000000000E+00 0. -1.
<mgrwt>
<rscale>  0 0.67148147E+03</rscale>
<asrwt>0</asrwt>
<pdfrwt beam="1">0</pdfrwt>
<pdfrwt beam="2">  1        2 0.40989847E+00 0.67148147E+03</pdfrwt>
<totfact> 0.36488002E+00</totfact>
</mgrwt>
</event>
<event>
 5    1  0.2369161E-004  0.6483586E+03  0.7818608E-02  0.9809864E-01
         13   -1    0    0    0    0  0.00000000000E+00  0.00000000000E+00  0.10000000000E+04  0.10000000000E+04  0.00000000000E+00 0. -1.
          2   -1    0    0  501    0 -0.00000000000E+00 -0.00000000000E+00 -0.10509220764E+03  0.10509220764E+03  0.00000000000E+00 0. -1.
    9000006    2    1    2  501    0  0.00000000000E+00  0.00000000000E+00  0.89490779236E+03  0.11050922076E+04  0.64835856635E+03 0.  0.
         13    1    3    3    0    0 -0.17194292888E+03  0.15553440385E+03  0.61266563495E+02  0.23981016112E+03  0.00000000000E+00 0. -1.
          2    1    3    3  501    0  0.17194292888E+03 -0.15553440385E+03  0.83364122886E+03  0.86528204652E+03  0.00000000000E+00 0. -1.
<mgrwt>
<rscale>  0 0.64835857E+03</rscale>
<asrwt>0</asrwt>
<pdfrwt beam="1">0</pdfrwt>
<pdfrwt beam="2">  1        2 0.38215429E+00 0.64835857E+03</pdfrwt>
<totfact> 0.46418229E+00</totfact>
</mgrwt>
</event>
<event>
 5    1  0.2369161E-004  0.6479871E+03  0.7818608E-02  0.9810564E-01
         13   -1    0    0    0    0  0.00000000000E+00  0.00000000000E+00  0.10000000000E+04  0.10000000000E+04  0.00000000000E+00 0. -1.
          2   -1    0    0  501    0 -0.00000000000E+00 -0.00000000000E+00 -0.10497181562E+03  0.10497181562E+03  0.00000000000E+00 0. -1.
    9000006    2    1    2  501    0  0.00000000000E+00  0.00000000000E+00  0.89502818438E+03  0.11049718156E+04  0.64798708513E+03 0.  0.
         13    1    3    3    0    0 -0.47875818639E+02 -0.23517867379E+03  0.76372342059E+02  0.25186074971E+03  0.00000000000E+00 0. -1.
          4    1    3    3  501    0  0.47875818639E+02  0.23517867379E+03  0.81865584232E+03  0.85311106591E+03  0.00000000000E+00 0. -1.
<mgrwt>
<rscale>  0 0.64798709E+03</rscale>
<asrwt>0</asrwt>
<pdfrwt beam="1">0</pdfrwt>
<pdfrwt beam="2">  1        2 0.38171650E+00 0.64798709E+03</pdfrwt>
<totfact> 0.46592801E+00</totfact>
</mgrwt>
</event>
<event>
 5    1  0.2369161E-004  0.6468898E+03  0.7818608E-02  0.9812633E-01
         13   -1    0    0    0    0  0.00000000000E+00  0.00000000000E+00  0.10000000000E+04  0.10000000000E+04  0.00000000000E+00 0. -1.
          2   -1    0    0  501    0 -0.00000000000E+00 -0.00000000000E+00 -0.10461661881E+03  0.10461661881E+03  0.00000000000E+00 0. -1.
    9000006    2    1    2  501    0  0.00000000000E+00  0.00000000000E+00  0.89538338119E+03  0.11046166188E+04  0.64688984783E+03 0.  0.
         13    1    3    3    0    0 -0.27350267270E+02  0.31260969984E+03  0.31384788969E+03  0.44381680840E+03  0.00000000000E+00 0. -1.
          4    1    3    3  501    0  0.27350267270E+02 -0.31260969984E+03  0.58153549150E+03  0.66079981041E+03  0.00000000000E+00 0. -1.
<mgrwt>
<rscale>  0 0.64688985E+03</rscale>
<asrwt>0</asrwt>
<pdfrwt beam="1">0</pdfrwt>
<pdfrwt beam="2">  1        2 0.38042487E+00 0.64688985E+03</pdfrwt>
<totfact> 0.47111332E+00</totfact>
</mgrwt>
</event>
<event>
 5    1  0.2369161E-004  0.6250588E+03  0.7818608E-02  0.9854739E-01
         13   -1    0    0    0    0  0.00000000000E+00  0.00000000000E+00  0.10000000000E+04  0.10000000000E+04  0.00000000000E+00 0. -1.
          2   -1    0    0  501    0 -0.00000000000E+00 -0.00000000000E+00 -0.97674631321E+02  0.97674631321E+02  0.00000000000E+00 0. -1.
    9000006    2    1    2  501    0  0.00000000000E+00  0.00000000000E+00  0.90232536868E+03  0.10976746313E+04  0.62505881746E+03 0.  0.
         13    1    3    3    0    0 -0.62346126786E+02  0.19191482751E+03  0.87026840660E+03  0.89335627835E+03  0.00000000000E+00 0. -1.
          4    1    3    3  501    0  0.62346126786E+02 -0.19191482751E+03  0.32056962076E+02  0.20431835297E+03  0.00000000000E+00 0. -1.
<mgrwt>
<rscale>  0 0.62505882E+03</rscale>
<asrwt>0</asrwt>
<pdfrwt beam="1">0</pdfrwt>
<pdfrwt beam="2">  1        2 0.35518123E+00 0.62505882E+03</pdfrwt>
<totfact> 0.58368290E+00</totfact>
</mgrwt>
</event>
<event>
 5    1  0.2369161E-004  0.6401521E+03  0.7818608E-02  0.9825436E-01
         13   -1    0    0    0    0  0.00000000000E+00  0.00000000000E+00  0.10000000000E+04  0.10000000000E+04  0.00000000000E+00 0. -1.
          2   -1    0    0  501    0 -0.00000000000E+00 -0.00000000000E+00 -0.10244866872E+03  0.10244866872E+03  0.00000000000E+00 0. -1.
    9000006    2    1    2  501    0  0.00000000000E+00  0.00000000000E+00  0.89755133128E+03  0.11024486687E+04  0.64015207169E+03 0.  0.
         13    1    3    3    0    0 -0.29745509324E+03  0.99981640890E+02  0.55732420770E+03  0.63959841580E+03  0.00000000000E+00 0. -1.
          2    1    3    3  501    0  0.29745509324E+03 -0.99981640890E+02  0.34022712358E+03  0.46285025292E+03  0.00000000000E+00 0. -1.
<mgrwt>
<rscale>  0 0.64015207E+03</rscale>
<asrwt>0</asrwt>
<pdfrwt beam="1">0</pdfrwt>
<pdfrwt beam="2">  1        2 0.37254140E+00 0.64015207E+03</pdfrwt>
<totfact> 0.50391979E+00</totfact>
</mgrwt>
</event>
<event>
 5    1  0.2369161E-004  0.6633996E+03  0.7818608E-02  0.9781956E-01
         13   -1    0    0    0    0  0.00000000000E+00  0.00000000000E+00  0.10000000000E+04  0.10000000000E+04  0.00000000000E+00 0. -1.
          2   -1    0    0  501    0 -0.00000000000E+00 -0.00000000000E+00 -0.11002475505E+03  0.11002475505E+03  0.00000000000E+00 0. -1.
    9000006    2    1    2  501    0  0.00000000000E+00  0.00000000000E+00  0.88997524495E+03  0.11100247550E+04  0.66339959315E+03 0.  0.
         13    1    3    3    0    0  0.22000920033E+03  0.22151180817E+03  0.63245906939E+03  0.70531978836E+03  0.00000000000E+00 0. -1.
          4    1    3    3  501    0 -0.22000920033E+03 -0.22151180817E+03  0.25751617556E+03  0.40470496669E+03  0.00000000000E+00 0. -1.
<mgrwt>
<rscale>  0 0.66339959E+03</rscale>
<asrwt>0</asrwt>
<pdfrwt beam="1">0</pdfrwt>
<pdfrwt beam="2">  1        2 0.40009086E+00 0.66339959E+03</pdfrwt>
<totfact> 0.39755112E+00</totfact>
</mgrwt>
</event>
<event>
 5    1  0.2369161E-004  0.6420855E+03  0.7818608E-02  0.9821745E-01
         13   -1    0    0    0    0  0.00000000000E+00  0.00000000000E+00  0.10000000000E+04  0.10000000000E+04  0.00000000000E+00 0. -1.
          2   -1    0    0  501    0 -0.00000000000E+00 -0.00000000000E+00 -0.10306844911E+03  0.10306844911E+03  0.00000000000E+00 0. -1.
    9000006    2    1    2  501    0  0.00000000000E+00  0.00000000000E+00  0.89693155089E+03  0.11030684491E+04  0.64208550554E+03 0.  0.
         13    1    3    3    0    0  0.14307257306E+03 -0.12480692694E+03  0.89321789403E+03  0.91317289512E+03  0.00000000000E+00 0. -1.
          4    1    3    3  501    0 -0.14307257306E+03  0.12480692694E+03  0.37136568647E+01  0.18989555398E+03  0.00000000000E+00 0. -1.
<mgrwt>
<rscale>  0 0.64208551E+03</rscale>
<asrwt>0</asrwt>
<pdfrwt beam="1">0</pdfrwt>
<pdfrwt beam="2">  1        2 0.37479515E+00 0.64208551E+03</pdfrwt>
<totfact> 0.49433386E+00</totfact>
</mgrwt>
</event>
<event>
 5    1  0.2369161E-004  0.6513466E+03  0.7818608E-02  0.9804256E-01
         13   -1    0    0    0    0  0.00000000000E+00  0.00000000000E+00  0.10000000000E+04  0.10000000000E+04  0.00000000000E+00 0. -1.
          2   -1    0    0  501    0 -0.00000000000E+00 -0.00000000000E+00 -0.10606311074E+03  0.10606311074E+03  0.00000000000E+00 0. -1.
    9000006    2    1    2  501    0  0.00000000000E+00  0.00000000000E+00  0.89393688926E+03  0.11060631107E+04  0.65134663809E+03 0.  0.
         13    1    3    3    0    0  0.74320090238E+02  0.89651443330E+02  0.96343700456E+03  0.97044923560E+03  0.00000000000E+00 0. -1.
          4    1    3    3  501    0 -0.74320090238E+02 -0.89651443330E+02 -0.69500115302E+02  0.13561387514E+03  0.00000000000E+00 0. -1.
<mgrwt>
<rscale>  0 0.65134664E+03</rscale>
<asrwt>0</asrwt>
<pdfrwt beam="1">0</pdfrwt>
<pdfrwt beam="2">  1        2 0.38568485E+00 0.65134664E+03</pdfrwt>
<totfact> 0.45031945E+00</totfact>
</mgrwt>
</event>
<event>
 5    1  0.2369161E-004  0.6311111E+03  0.7818608E-02  0.9842883E-01
         13   -1    0    0    0    0  0.00000000000E+00  0.00000000000E+00  0.10000000000E+04  0.10000000000E+04  0.00000000000E+00 0. -1.
          2   -1    0    0  501    0 -0.00000000000E+00 -0.00000000000E+00 -0.99575292501E+02  0.99575292501E+02  0.00000000000E+00 0. -1.
    9000006    2    1    2  501    0  0.00000000000E+00  0.00000000000E+00  0.90042470750E+03  0.10995752925E+04  0.63111105996E+03 0.  0.
         13    1    3    3    0    0  0.31242076649E+03  0.25987847161E+02  0.51286655201E+03  0.60109417208E+03  0.00000000000E+00 0. -1.
          2    1    3    3  501    0 -0.31242076649E+03 -0.25987847161E+02  0.38755815549E+03  0.49848112042E+03  0.00000000000E+00 0. -1.
<mgrwt>
<rscale>  0 0.63111106E+03</rscale>
<asrwt>0</asrwt>
<pdfrwt beam="1">0</pdfrwt>
<pdfrwt beam="2">  1        2 0.36209274E+00 0.63111106E+03</pdfrwt>
<totfact> 0.55062797E+00</totfact>
</mgrwt>
</event>
<event>
 5    1  0.2369161E-004  0.6948894E+03  0.7818608E-02  0.9726012E-01
         13   -1    0    0    0    0  0.00000000000E+00  0.00000000000E+00  0.10000000000E+04  0.10000000000E+04  0.00000000000E+00 0. -1.
          2   -1    0    0  501    0 -0.00000000000E+00 -0.00000000000E+00 -0.12071780341E+03  0.12071780341E+03  0.00000000000E+00 0. -1.
    9000006    2    1    2  501    0  0.00000000000E+00  0.00000000000E+00  0.87928219659E+03  0.11207178034E+04  0.69488935352E+03 0.  0.
         13    1    3    3    0    0 -0.21822191673E+03 -0.22996022417E+03  0.66894985607E+03  0.74026780261E+03  0.00000000000E+00 0. -1.
          4    1    3    3  501    0  0.21822191673E+03  0.22996022417E+03  0.21033234052E+03  0.38045000080E+03  0.00000000000E+00 0. -1.
<mgrwt>
<rscale>  0 0.69488935E+03</rscale>
<asrwt>0</asrwt>
<pdfrwt beam="1">0</pdfrwt>
<pdfrwt beam="2">  1        2 0.43897476E+00 0.69488935E+03</pdfrwt>
<totfact> 0.28159256E+00</totfact>
</mgrwt>
</event>
<event>
 5    1  0.2369161E-004  0.6775453E+03  0.7818608E-02  0.9756422E-01
         13   -1    0    0    0    0  0.00000000000E+00  0.00000000000E+00  0.10000000000E+04  0.10000000000E+04  0.00000000000E+00 0. -1.
          2   -1    0    0  501    0 -0.00000000000E+00 -0.00000000000E+00 -0.11476691822E+03  0.11476691822E+03  0.00000000000E+00 0. -1.
    9000006    2    1    2  501    0  0.00000000000E+00  0.00000000000E+00  0.88523308178E+03  0.11147669182E+04  0.67754532903E+03 0.  0.
         13    1    3    3    0    0  0.29701026583E+03 -0.11125503653E+03  0.63849831576E+03  0.71293259176E+03  0.00000000000E+00 0. -1.
          2    1    3    3  501    0 -0.29701026583E+03  0.11125503653E+03  0.24673476601E+03  0.40183432646E+03  0.00000000000E+00 0. -1.
<mgrwt>
<rscale>  0 0.67754533E+03</rscale>
<asrwt>0</asrwt>
<pdfrwt beam="1">0</pdfrwt>
<pdfrwt beam="2">  1        2 0.41733513E+00 0.67754533E+03</pdfrwt>
<totfact> 0.34172942E+00</totfact>
</mgrwt>
</event>
<event>
 5    1  0.2369161E-004  0.6474194E+03  0.7818608E-02  0.9811634E-01
         13   -1    0    0    0    0  0.00000000000E+00  0.00000000000E+00  0.10000000000E+04  0.10000000000E+04  0.00000000000E+00 0. -1.
          2   -1    0    0  501    0 -0.00000000000E+00 -0.00000000000E+00 -0.10478795709E+03  0.10478795709E+03  0.00000000000E+00 0. -1.
    9000006    2    1    2  501    0  0.00000000000E+00  0.00000000000E+00  0.89521204291E+03  0.11047879571E+04  0.64741936051E+03 0.  0.
         13    1    3    3    0    0 -0.27625631493E+03 -0.39289484917E+02  0.72762350800E+03  0.77929274638E+03  0.00000000000E+00 0. -1.
          2    1    3    3  501    0  0.27625631493E+03  0.39289484917E+02  0.16758853491E+03  0.32549521071E+03  0.00000000000E+00 0. -1.
<mgrwt>
<rscale>  0 0.64741936E+03</rscale>
<asrwt>0</asrwt>
<pdfrwt beam="1">0</pdfrwt>
<pdfrwt beam="2">  1        2 0.38104792E+00 0.64741936E+03</pdfrwt>
<totfact> 0.46860554E+00</totfact>
</mgrwt>
</event>
<event>
 5    1  0.2369161E-004  0.6428592E+03  0.7818608E-02  0.9820271E-01
         13   -1    0    0    0    0  0.00000000000E+00  0.00000000000E+00  0.10000000000E+04  0.10000000000E+04  0.00000000000E+00 0. -1.
          2   -1    0    0  501    0 -0.00000000000E+00 -0.00000000000E+00 -0.10331699985E+03  0.10331699985E+03  0.00000000000E+00 0. -1.
    9000006    2    1    2  501    0  0.00000000000E+00  0.00000000000E+00  0.89668300015E+03  0.11033169999E+04  0.64285923763E+03 0.  0.
         13    1    3    3    0    0 -0.20739453316E+02  0.28704428966E+03  0.20265495656E+03  0.35198519936E+03  0.00000000000E+00 0. -1.
          4    1    3    3  501    0  0.20739453316E+02 -0.28704428966E+03  0.69402804359E+03  0.75133180050E+03  0.00000000000E+00 0. -1.
<mgrwt>
<rscale>  0 0.64285924E+03</rscale>
<asrwt>0</asrwt>
<pdfrwt beam="1">0</pdfrwt>
<pdfrwt beam="2">  1        2 0.37569897E+00 0.64285924E+03</pdfrwt>
<totfact> 0.49053672E+00</totfact>
</mgrwt>
</event>
<event>
 5    1  0.2369161E-004  0.6414383E+03  0.7818608E-02  0.9822978E-01
         13   -1    0    0    0    0  0.00000000000E+00  0.00000000000E+00  0.10000000000E+04  0.10000000000E+04  0.00000000000E+00 0. -1.
          2   -1    0    0  501    0 -0.00000000000E+00 -0.00000000000E+00 -0.10286078409E+03  0.10286078409E+03  0.00000000000E+00 0. -1.
    9000006    2    1    2  501    0  0.00000000000E+00  0.00000000000E+00  0.89713921591E+03  0.11028607841E+04  0.64143833403E+03 0.  0.
         13    1    3    3    0    0 -0.24442980680E+02  0.31946527830E+03  0.47320268899E+03  0.57146855400E+03  0.00000000000E+00 0. -1.
          2    1    3    3  501    0  0.24442980680E+02 -0.31946527830E+03  0.42393652692E+03  0.53139223009E+03  0.00000000000E+00 0. -1.
<mgrwt>
<rscale>  0 0.64143833E+03</rscale>
<asrwt>0</asrwt>
<pdfrwt beam="1">0</pdfrwt>
<pdfrwt beam="2">  1        2 0.37404000E+00 0.64143833E+03</pdfrwt>
<totfact> 0.49752701E+00</totfact>
</mgrwt>
</event>
<event>
 5    1  0.2369161E-004  0.6189726E+03  0.7818608E-02  0.9866807E-01
         13   -1    0    0    0    0  0.00000000000E+00  0.00000000000E+00  0.10000000000E+04  0.10000000000E+04  0.00000000000E+00 0. -1.
          2   -1    0    0  501    0 -0.00000000000E+00 -0.00000000000E+00 -0.95781754766E+02  0.95781754766E+02  0.00000000000E+00 0. -1.
    9000006    2    1    2  501    0  0.00000000000E+00  0.00000000000E+00  0.90421824523E+03  0.10957817548E+04  0.61897255114E+03 0.  0.
         13    1    3    3    0    0  0.27330249088E+03 -0.12109644510E+02  0.70829189947E+03  0.75928802827E+03  0.00000000000E+00 0. -1.
          4    1    3    3  501    0 -0.27330249088E+03  0.12109644510E+02  0.19592634576E+03  0.33649372650E+03  0.00000000000E+00 0. -1.
<mgrwt>
<rscale>  0 0.61897255E+03</rscale>
<asrwt>0</asrwt>
<pdfrwt beam="1">0</pdfrwt>
<pdfrwt beam="2">  1        2 0.34829802E+00 0.61897255E+03</pdfrwt>
<totfact> 0.61842579E+00</totfact>
</mgrwt>
</event>
<event>
 5    1  0.2369161E-004  0.6370363E+03  0.7818608E-02  0.9831413E-01
         13   -1    0    0    0    0  0.00000000000E+00  0.00000000000E+00  0.10000000000E+04  0.10000000000E+04  0.00000000000E+00 0. -1.
          2   -1    0    0  501    0 -0.00000000000E+00 -0.00000000000E+00 -0.10145380317E+03  0.10145380317E+03  0.00000000000E+00 0. -1.
    9000006    2    1    2  501    0  0.00000000000E+00  0.00000000000E+00  0.89854619683E+03  0.11014538032E+04  0.63703627265E+03 0.  0.
         13    1    3    3    0    0 -0.27043660254E+03 -0.45733721114E+02  0.72928108690E+03  0.77915238108E+03  0.00000000000E+00 0. -1.
          2    1    3    3  501    0  0.27043660254E+03  0.45733721114E+02  0.16926510993E+03  0.32230142209E+03  0.00000000000E+00 0. -1.
<mgrwt>
<rscale>  0 0.63703627E+03</rscale>
<asrwt>0</asrwt>
<pdfrwt beam="1">0</pdfrwt>
<pdfrwt beam="2">  1        2 0.36892370E+00 0.63703627E+03</pdfrwt>
<totfact> 0.51966333E+00</totfact>
</mgrwt>
</event>
<event>
 5    1  0.2369161E-004  0.6511683E+03  0.7818608E-02  0.9804589E-01
         13   -1    0    0    0    0  0.00000000000E+00  0.00000000000E+00  0.10000000000E+04  0.10000000000E+04  0.00000000000E+00 0. -1.
          2   -1    0    0  501    0 -0.00000000000E+00 -0.00000000000E+00 -0.10600504251E+03  0.10600504251E+03  0.00000000000E+00 0. -1.
    9000006    2    1    2  501    0  0.00000000000E+00  0.00000000000E+00  0.89399495749E+03  0.11060050425E+04  0.65116831161E+03 0.  0.
         13    1    3    3    0    0  0.16982391315E+02  0.13962257379E+03 -0.51741536083E+02  0.14986677845E+03  0.00000000000E+00 0. -1.
          2    1    3    3  501    0 -0.16982391315E+02 -0.13962257379E+03  0.94573649357E+03  0.95613826406E+03  0.00000000000E+00 0. -1.
<mgrwt>
<rscale>  0 0.65116831E+03</rscale>
<asrwt>0</asrwt>
<pdfrwt beam="1">0</pdfrwt>
<pdfrwt beam="2">  1        2 0.38547369E+00 0.65116831E+03</pdfrwt>
<totfact> 0.45113789E+00</totfact>
</mgrwt>
</event>
<event>
 5    1  0.2369161E-004  0.6536216E+03  0.7818608E-02  0.9800007E-01
         13   -1    0    0    0    0  0.00000000000E+00  0.00000000000E+00  0.10000000000E+04  0.10000000000E+04  0.00000000000E+00 0. -1.
          2   -1    0    0  501    0 -0.00000000000E+00 -0.00000000000E+00 -0.10680529740E+03  0.10680529740E+03  0.00000000000E+00 0. -1.
    9000006    2    1    2  501    0  0.00000000000E+00  0.00000000000E+00  0.89319470260E+03  0.11068052974E+04  0.65362159510E+03 0.  0.
         13    1    3    3    0    0  0.21368159786E+03  0.41175187873E+02  0.85947468724E+03  0.88659571360E+03  0.00000000000E+00 0. -1.
          4    1    3    3  501    0 -0.21368159786E+03 -0.41175187873E+02  0.33720015360E+02  0.22020958380E+03  0.00000000000E+00 0. -1.
<mgrwt>
<rscale>  0 0.65362160E+03</rscale>
<asrwt>0</asrwt>
<pdfrwt beam="1">0</pdfrwt>
<pdfrwt beam="2">  1        2 0.38838372E+00 0.65362160E+03</pdfrwt>
<totfact> 0.43997659E+00</totfact>
</mgrwt>
</event>
<event>
 5    1  0.2369161E-004  0.6553116E+03  0.7818608E-02  0.9796863E-01
         13   -1    0    0    0    0  0.00000000000E+00  0.00000000000E+00  0.10000000000E+04  0.10000000000E+04  0.00000000000E+00 0. -1.
          2   -1    0    0  501    0 -0.00000000000E+00 -0.00000000000E+00 -0.10735831406E+03  0.10735831406E+03  0.00000000000E+00 0. -1.
    9000006    2    1    2  501    0  0.00000000000E+00  0.00000000000E+00  0.89264168594E+03  0.11073583141E+04  0.65531157189E+03 0.  0.
         13    1    3    3    0    0 -0.30101330805E+03  0.11911409464E+03  0.36080303491E+03  0.48474324045E+03  0.00000000000E+00 0. -1.
          4    1    3    3  501    0  0.30101330805E+03 -0.11911409464E+03  0.53183865102E+03  0.62261507361E+03  0.00000000000E+00 0. -1.
<mgrwt>
<rscale>  0 0.65531157E+03</rscale>
<asrwt>0</asrwt>
<pdfrwt beam="1">0</pdfrwt>
<pdfrwt beam="2">  1        2 0.39039469E+00 0.65531157E+03</pdfrwt>
<totfact> 0.43241022E+00</totfact>
</mgrwt>
</event>
<event>
 5    1  0.2369161E-004  0.7345303E+03  0.7818608E-02  0.9659937E-01
         13   -1    0    0    0    0  0.00000000000E+00  0.00000000000E+00  0.10000000000E+04  0.10000000000E+04  0.00000000000E+00 0. -1.
          2   -1    0    0  501    0 -0.00000000000E+00 -0.00000000000E+00 -0.13488368372E+03  0.13488368372E+03  0.00000000000E+00 0. -1.
    9000006    2    1    2  501    0  0.00000000000E+00  0.00000000000E+00  0.86511631628E+03  0.11348836837E+04  0.73453028179E+03 0.  0.
         13    1    3    3    0    0 -0.27108460176E+03 -0.94019731860E+02  0.78676536689E+03  0.83745227555E+03  0.00000000000E+00 0. -1.
          4    1    3    3  501    0  0.27108460176E+03  0.94019731860E+02  0.78350949391E+02  0.29743140816E+03  0.00000000000E+00 0. -1.
<mgrwt>
<rscale>  0 0.73453028E+03</rscale>
<asrwt>0</asrwt>
<pdfrwt beam="1">0</pdfrwt>
<pdfrwt beam="2">  1        2 0.49048716E+00 0.73453028E+03</pdfrwt>
<totfact> 0.17415104E+00</totfact>
</mgrwt>
</event>
<event>
 5    1  0.2369161E-004  0.6322653E+03  0.7818608E-02  0.9840638E-01
         13   -1    0    0    0    0  0.00000000000E+00  0.00000000000E+00  0.10000000000E+04  0.10000000000E+04  0.00000000000E+00 0. -1.
          2   -1    0    0  501    0 -0.00000000000E+00 -0.00000000000E+00 -0.99939848761E+02  0.99939848761E+02  0.00000000000E+00 0. -1.
    9000006    2    1    2  501    0  0.00000000000E+00  0.00000000000E+00  0.90006015124E+03  0.10999398488E+04  0.63226528850E+03 0.  0.
         13    1    3    3    0    0 -0.21322724189E+03 -0.13211482699E+03  0.11530685923E+03  0.27607219342E+03  0.00000000000E+00 0. -1.
          4    1    3    3  501    0  0.21322724189E+03  0.13211482699E+03  0.78475329201E+03  0.82386765534E+03  0.00000000000E+00 0. -1.
<mgrwt>
<rscale>  0 0.63226529E+03</rscale>
<asrwt>0</asrwt>
<pdfrwt beam="1">0</pdfrwt>
<pdfrwt beam="2">  1        2 0.36341840E+00 0.63226529E+03</pdfrwt>
<totfact> 0.54448916E+00</totfact>
</mgrwt>
</event>
<event>
 5    1  0.2369161E-004  0.6510853E+03  0.7818608E-02  0.9804745E-01
         13   -1    0    0    0    0  0.00000000000E+00  0.00000000000E+00  0.10000000000E+04  0.10000000000E+04  0.00000000000E+00 0. -1.
          2   -1    0    0  501    0 -0.00000000000E+00 -0.00000000000E+00 -0.10597802540E+03  0.10597802540E+03  0.00000000000E+00 0. -1.
    9000006    2    1    2  501    0  0.00000000000E+00  0.00000000000E+00  0.89402197460E+03  0.11059780254E+04  0.65108532589E+03 0.  0.
         13    1    3    3    0    0  0.18353573925E+03  0.25163535267E+03  0.28610927875E+03  0.42292344187E+03  0.00000000000E+00 0. -1.
          4    1    3    3  501    0 -0.18353573925E+03 -0.25163535267E+03  0.60791269586E+03  0.68305458353E+03  0.00000000000E+00 0. -1.
<mgrwt>
<rscale>  0 0.65108533E+03</rscale>
<asrwt>0</asrwt>
<pdfrwt beam="1">0</pdfrwt>
<pdfrwt beam="2">  1        2 0.38537545E+00 0.65108533E+03</pdfrwt>
<totfact> 0.45151914E+00</totfact>
</mgrwt>
</event>
<event>
 5    1  0.2369161E-004  0.6527668E+03  0.7818608E-02  0.9801601E-01
         13   -1    0    0    0    0  0.00000000000E+00  0.00000000000E+00  0.10000000000E+04  0.10000000000E+04  0.00000000000E+00 0. -1.
          2   -1    0    0  501    0 -0.00000000000E+00 -0.00000000000E+00 -0.10652613264E+03  0.10652613264E+03  0.00000000000E+00 0. -1.
    9000006    2    1    2  501    0  0.00000000000E+00  0.00000000000E+00  0.89347386736E+03  0.11065261326E+04  0.65276682709E+03 0.  0.
         13    1    3    3    0    0 -0.20759054329E+03 -0.24793864455E+03  0.52175927454E+03  0.61384048880E+03  0.00000000000E+00 0. -1.
          4    1    3    3  501    0  0.20759054329E+03  0.24793864455E+03  0.37171459282E+03  0.49268564384E+03  0.00000000000E+00 0. -1.
<mgrwt>
<rscale>  0 0.65276683E+03</rscale>
<asrwt>0</asrwt>
<pdfrwt beam="1">0</pdfrwt>
<pdfrwt beam="2">  1        2 0.38736857E+00 0.65276683E+03</pdfrwt>
<totfact> 0.44384143E+00</totfact>
</mgrwt>
</event>
<event>
 5    1  0.2369161E-004  0.6364684E+03  0.7818608E-02  0.9832507E-01
         13   -1    0    0    0    0  0.00000000000E+00  0.00000000000E+00  0.10000000000E+04  0.10000000000E+04  0.00000000000E+00 0. -1.
          2   -1    0    0  501    0 -0.00000000000E+00 -0.00000000000E+00 -0.10127301106E+03  0.10127301106E+03  0.00000000000E+00 0. -1.
    9000006    2    1    2  501    0  0.00000000000E+00  0.00000000000E+00  0.89872698894E+03  0.11012730111E+04  0.63646841575E+03 0.  0.
         13    1    3    3    0    0  0.18984288486E+03  0.17308867821E+03  0.12439643858E+03  0.28543735808E+03  0.00000000000E+00 0. -1.
          2    1    3    3  501    0 -0.18984288486E+03 -0.17308867821E+03  0.77433055036E+03  0.81583565298E+03  0.00000000000E+00 0. -1.
<mgrwt>
<rscale>  0 0.63646842E+03</rscale>
<asrwt>0</asrwt>
<pdfrwt beam="1">0</pdfrwt>
<pdfrwt beam="2">  1        2 0.36826627E+00 0.63646842E+03</pdfrwt>
<totfact> 0.52257227E+00</totfact>
</mgrwt>
</event>
<event>
 5    1  0.2369161E-004  0.6457200E+03  0.7818608E-02  0.9814844E-01
         13   -1    0    0    0    0  0.00000000000E+00  0.00000000000E+00  0.10000000000E+04  0.10000000000E+04  0.00000000000E+00 0. -1.
          2   -1    0    0  501    0 -0.00000000000E+00 -0.00000000000E+00 -0.10423858653E+03  0.10423858653E+03  0.00000000000E+00 0. -1.
    9000006    2    1    2  501    0  0.00000000000E+00  0.00000000000E+00  0.89576141347E+03  0.11042385865E+04  0.64572002146E+03 0.  0.
         13    1    3    3    0    0 -0.11960621402E+02  0.26110910429E+03  0.77197554488E+03  0.81502592762E+03  0.00000000000E+00 0. -1.
          4    1    3    3  501    0  0.11960621402E+02 -0.26110910429E+03  0.12378586859E+03  0.28921265891E+03  0.00000000000E+00 0. -1.
<mgrwt>
<rscale>  0 0.64572002E+03</rscale>
<asrwt>0</asrwt>
<pdfrwt beam="1">0</pdfrwt>
<pdfrwt beam="2">  1        2 0.37905020E+00 0.64572002E+03</pdfrwt>
<totfact> 0.47668961E+00</totfact>
</mgrwt>
</event>
<event>
 5    1  0.2369161E-004  0.6488222E+03  0.7818608E-02  0.9808992E-01
         13   -1    0    0    0    0  0.00000000000E+00  0.00000000000E+00  0.10000000000E+04  0.10000000000E+04  0.00000000000E+00 0. -1.
          2   -1    0    0  501    0 -0.00000000000E+00 -0.00000000000E+00 -0.10524257756E+03  0.10524257756E+03  0.00000000000E+00 0. -1.
    9000006    2    1    2  501    0  0.00000000000E+00  0.00000000000E+00  0.89475742244E+03  0.11052425776E+04  0.64882224858E+03 0.  0.
         13    1    3    3    0    0 -0.16259884740E+03  0.60626798732E+02 -0.19532684860E+02  0.17462966437E+03  0.00000000000E+00 0. -1.
          4    1    3    3  501    0  0.16259884740E+03 -0.60626798732E+02  0.91429010730E+03  0.93061291319E+03  0.00000000000E+00 0. -1.
<mgrwt>
<rscale>  0 0.64882225E+03</rscale>
<asrwt>0</asrwt>
<pdfrwt beam="1">0</pdfrwt>
<pdfrwt beam="2">  1        2 0.38270109E+00 0.64882225E+03</pdfrwt>
<totfact> 0.46201023E+00</totfact>
</mgrwt>
</event>
<event>
 5    1  0.2369161E-004  0.6516650E+03  0.7818608E-02  0.9803660E-01
         13   -1    0    0    0    0  0.00000000000E+00  0.00000000000E+00  0.10000000000E+04  0.10000000000E+04  0.00000000000E+00 0. -1.
          2   -1    0    0  501    0 -0.00000000000E+00 -0.00000000000E+00 -0.10616682583E+03  0.10616682583E+03  0.00000000000E+00 0. -1.
    9000006    2    1    2  501    0  0.00000000000E+00  0.00000000000E+00  0.89383317417E+03  0.11061668258E+04  0.65166502386E+03 0.  0.
         13    1    3    3    0    0  0.35124616204E+02  0.22730453202E+03  0.83867667397E+03  0.86964340531E+03  0.00000000000E+00 0. -1.
          4    1    3    3  501    0 -0.35124616204E+02 -0.22730453202E+03  0.55156500203E+02  0.23652342052E+03  0.00000000000E+00 0. -1.
<mgrwt>
<rscale>  0 0.65166502E+03</rscale>
<asrwt>0</asrwt>
<pdfrwt beam="1">0</pdfrwt>
<pdfrwt beam="2">  1        2 0.38606200E+00 0.65166502E+03</pdfrwt>
<totfact> 0.44886100E+00</totfact>
</mgrwt>
</event>
<event>
 5    1  0.2369161E-004  0.6592377E+03  0.7818608E-02  0.9789598E-01
         13   -1    0    0    0    0  0.00000000000E+00  0.00000000000E+00  0.10000000000E+04  0.10000000000E+04  0.00000000000E+00 0. -1.
          2   -1    0    0  501    0 -0.00000000000E+00 -0.00000000000E+00 -0.10864858455E+03  0.10864858455E+03  0.00000000000E+00 0. -1.
    9000006    2    1    2  501    0  0.00000000000E+00  0.00000000000E+00  0.89135141545E+03  0.11086485845E+04  0.65923769476E+03 0.  0.
         13    1    3    3    0    0  0.23913520772E+03  0.19237979074E+03  0.24349944169E+03  0.39177494759E+03  0.00000000000E+00 0. -1.
          2    1    3    3  501    0 -0.23913520772E+03 -0.19237979074E+03  0.64785197377E+03  0.71687363696E+03  0.00000000000E+00 0. -1.
<mgrwt>
<rscale>  0 0.65923769E+03</rscale>
<asrwt>0</asrwt>
<pdfrwt beam="1">0</pdfrwt>
<pdfrwt beam="2">  1        2 0.39508660E+00 0.65923769E+03</pdfrwt>
<totfact> 0.41521196E+00</totfact>
</mgrwt>
</event>
<event>
 5    1  0.2369161E-004  0.6539788E+03  0.7818608E-02  0.9799342E-01
         13   -1    0    0    0    0  0.00000000000E+00  0.00000000000E+00  0.10000000000E+04  0.10000000000E+04  0.00000000000E+00 0. -1.
          2   -1    0    0  501    0 -0.00000000000E+00 -0.00000000000E+00 -0.10692206426E+03  0.10692206426E+03  0.00000000000E+00 0. -1.
    9000006    2    1    2  501    0  0.00000000000E+00  0.00000000000E+00  0.89307793574E+03  0.11069220643E+04  0.65397878944E+03 0.  0.
         13    1    3    3    0    0 -0.92985851644E+02 -0.14985421307E+03 -0.19522912394E+02  0.17743674334E+03  0.00000000000E+00 0. -1.
          4    1    3    3  501    0  0.92985851644E+02  0.14985421307E+03  0.91260084813E+03  0.92948532092E+03  0.00000000000E+00 0. -1.
<mgrwt>
<rscale>  0 0.65397879E+03</rscale>
<asrwt>0</asrwt>
<pdfrwt beam="1">0</pdfrwt>
<pdfrwt beam="2">  1        2 0.38880833E+00 0.65397879E+03</pdfrwt>
<totfact> 0.43836909E+00</totfact>
</mgrwt>
</event>
<event>
 5    1  0.2369161E-004  0.6046250E+03  0.7818608E-02  0.9895857E-01
         13   -1    0    0    0    0  0.00000000000E+00  0.00000000000E+00  0.10000000000E+04  0.10000000000E+04  0.00000000000E+00 0. -1.
          2   -1    0    0  501    0 -0.00000000000E+00 -0.00000000000E+00 -0.91392857533E+02  0.91392857533E+02  0.00000000000E+00 0. -1.
    9000006    2    1    2  501    0  0.00000000000E+00  0.00000000000E+00  0.90860714247E+03  0.10913928575E+04  0.60462503267E+03 0.  0.
         13    1    3    3    0    0 -0.77498708115E+00 -0.30216502138E+03  0.47129014901E+03  0.55983810634E+03  0.00000000000E+00 0. -1.
          4    1    3    3  501    0  0.77498708115E+00  0.30216502138E+03  0.43731699345E+03  0.53155475119E+03  0.00000000000E+00 0. -1.
<mgrwt>
<rscale>  0 0.60462503E+03</rscale>
<asrwt>0</asrwt>
<pdfrwt beam="1">0</pdfrwt>
<pdfrwt beam="2">  1        2 0.33233836E+00 0.60462503E+03</pdfrwt>
<totfact> 0.70656612E+00</totfact>
</mgrwt>
</event>
<event>
 5    1  0.2369161E-004  0.6411786E+03  0.7818608E-02  0.9823474E-01
         13   -1    0    0    0    0  0.00000000000E+00  0.00000000000E+00  0.10000000000E+04  0.10000000000E+04  0.00000000000E+00 0. -1.
          2   -1    0    0  501    0 -0.00000000000E+00 -0.00000000000E+00 -0.10277749179E+03  0.10277749179E+03  0.00000000000E+00 0. -1.
    9000006    2    1    2  501    0  0.00000000000E+00  0.00000000000E+00  0.89722250821E+03  0.11027774918E+04  0.64117857664E+03 0.  0.
         13    1    3    3    0    0 -0.24184652034E+03 -0.12757129209E+03  0.16074472955E+03  0.31717982603E+03  0.00000000000E+00 0. -1.
          4    1    3    3  501    0  0.24184652034E+03  0.12757129209E+03  0.73647777867E+03  0.78559766575E+03  0.00000000000E+00 0. -1.
<mgrwt>
<rscale>  0 0.64117858E+03</rscale>
<asrwt>0</asrwt>
<pdfrwt beam="1">0</pdfrwt>
<pdfrwt beam="2">  1        2 0.37373712E+00 0.64117858E+03</pdfrwt>
<totfact> 0.49881304E+00</totfact>
</mgrwt>
</event>
<event>
 5    1  0.2369161E-004  0.6224422E+03  0.7818608E-02  0.9859909E-01
         13   -1    0    0    0    0  0.00000000000E+00  0.00000000000E+00  0.10000000000E+04  0.10000000000E+04  0.00000000000E+00 0. -1.
          2   -1    0    0  501    0 -0.00000000000E+00 -0.00000000000E+00 -0.96858576105E+02  0.96858576105E+02  0.00000000000E+00 0. -1.
    9000006    2    1    2  501    0  0.00000000000E+00  0.00000000000E+00  0.90314142390E+03  0.10968585761E+04  0.62244220970E+03 0.  0.
         13    1    3    3    0    0 -0.33862265317E+02  0.23495634335E+03  0.96905169072E+02  0.25640153682E+03  0.00000000000E+00 0. -1.
          4    1    3    3  501    0  0.33862265317E+02 -0.23495634335E+03  0.80623625482E+03  0.84045703928E+03  0.00000000000E+00 0. -1.
<mgrwt>
<rscale>  0 0.62244221E+03</rscale>
<asrwt>0</asrwt>
<pdfrwt beam="1">0</pdfrwt>
<pdfrwt beam="2">  1        2 0.35221375E+00 0.62244221E+03</pdfrwt>
<totfact> 0.59843245E+00</totfact>
</mgrwt>
</event>
<event>
 5    1  0.2369161E-004  0.6287820E+03  0.7818608E-02  0.9847429E-01
         13   -1    0    0    0    0  0.00000000000E+00  0.00000000000E+00  0.10000000000E+04  0.10000000000E+04  0.00000000000E+00 0. -1.
          2   -1    0    0  501    0 -0.00000000000E+00 -0.00000000000E+00 -0.98841685348E+02  0.98841685348E+02  0.00000000000E+00 0. -1.
    9000006    2    1    2  501    0  0.00000000000E+00  0.00000000000E+00  0.90115831465E+03  0.10988416853E+04  0.62878195059E+03 0.  0.
         13    1    3    3    0    0  0.14868122726E+03 -0.24753249990E+03  0.66789195399E+03  0.72763872083E+03  0.00000000000E+00 0. -1.
          4    1    3    3  501    0 -0.14868122726E+03  0.24753249990E+03  0.23326636066E+03  0.37120296451E+03  0.00000000000E+00 0. -1.
<mgrwt>
<rscale>  0 0.62878195E+03</rscale>
<asrwt>0</asrwt>
<pdfrwt beam="1">0</pdfrwt>
<pdfrwt beam="2">  1        2 0.35942507E+00 0.62878195E+03</pdfrwt>
<totfact> 0.56317525E+00</totfact>
</mgrwt>
</event>
<event>
 5    1  0.2369161E-004  0.6086574E+03  0.7818608E-02  0.9887606E-01
         13   -1    0    0    0    0  0.00000000000E+00  0.00000000000E+00  0.10000000000E+04  0.10000000000E+04  0.00000000000E+00 0. -1.
          2   -1    0    0  501    0 -0.00000000000E+00 -0.00000000000E+00 -0.92615965931E+02  0.92615965931E+02  0.00000000000E+00 0. -1.
    9000006    2    1    2  501    0  0.00000000000E+00  0.00000000000E+00  0.90738403407E+03  0.10926159659E+04  0.60865742723E+03 0.  0.
         13    1    3    3    0    0 -0.27364985268E+03  0.97502723224E+02  0.61649451548E+03  0.68151046252E+03  0.00000000000E+00 0. -1.
          4    1    3    3  501    0  0.27364985268E+03 -0.97502723224E+02  0.29088951859E+03  0.41110550341E+03  0.00000000000E+00 0. -1.
<mgrwt>
<rscale>  0 0.60865743E+03</rscale>
<asrwt>0</asrwt>
<pdfrwt beam="1">0</pdfrwt>
<pdfrwt beam="2">  1        2 0.33678604E+00 0.60865743E+03</pdfrwt>
<totfact> 0.68088230E+00</totfact>
</mgrwt>
</event>
<event>
 5    1  0.2369161E-004  0.6545819E+03  0.7818608E-02  0.9798219E-01
         13   -1    0    0    0    0  0.00000000000E+00  0.00000000000E+00  0.10000000000E+04  0.10000000000E+04  0.00000000000E+00 0. -1.
          2   -1    0    0  501    0 -0.00000000000E+00 -0.00000000000E+00 -0.10711937186E+03  0.10711937186E+03  0.00000000000E+00 0. -1.
    9000006    2    1    2  501    0  0.00000000000E+00  0.00000000000E+00  0.89288062814E+03  0.11071193719E+04  0.65458191805E+03 0.  0.
         13    1    3    3    0    0 -0.22780978353E+03  0.48884746445E+02  0.83519929443E+03  0.86708988999E+03  0.00000000000E+00 0. -1.
          4    1    3    3  501    0  0.22780978353E+03 -0.48884746445E+02  0.57681333713E+02  0.24002948187E+03  0.00000000000E+00 0. -1.
<mgrwt>
<rscale>  0 0.65458192E+03</rscale>
<asrwt>0</asrwt>
<pdfrwt beam="1">0</pdfrwt>
<pdfrwt beam="2">  1        2 0.38952581E+00 0.65458192E+03</pdfrwt>
<totfact> 0.43566487E+00</totfact>
</mgrwt>
</event>
<event>
 5    1  0.2369161E-004  0.6601186E+03  0.7818608E-02  0.9787975E-01
         13   -1    0    0    0    0  0.00000000000E+00  0.00000000000E+00  0.10000000000E+04  0.10000000000E+04  0.00000000000E+00 0. -1.
          2   -1    0    0  501    0 -0.00000000000E+00 -0.00000000000E+00 -0.10893914698E+03  0.10893914698E+03  0.00000000000E+00 0. -1.
    9000006    2    1    2  501    0  0.00000000000E+00  0.00000000000E+00  0.89106085302E+03  0.11089391470E+04  0.66011861657E+03 0.  0.
         13    1    3    3    0    0 -0.14304168999E+03 -0.28137319763E+03  0.60759894173E+03  0.68469575391E+03  0.00000000000E+00 0. -1.
          2    1    3    3  501    0  0.14304168999E+03  0.28137319763E+03  0.28346191128E+03  0.42424339308E+03  0.00000000000E+00 0. -1.
<mgrwt>
<rscale>  0 0.66011862E+03</rscale>
<asrwt>0</asrwt>
<pdfrwt beam="1">0</pdfrwt>
<pdfrwt beam="2">  1        2 0.39614319E+00 0.66011862E+03</pdfrwt>
<totfact> 0.41142537E+00</totfact>
</mgrwt>
</event>
<event>
 5    1  0.2369161E-004  0.6561399E+03  0.7818608E-02  0.9795326E-01
         13   -1    0    0    0    0  0.00000000000E+00  0.00000000000E+00  0.10000000000E+04  0.10000000000E+04  0.00000000000E+00 0. -1.
          2   -1    0    0  501    0 -0.00000000000E+00 -0.00000000000E+00 -0.10762988691E+03  0.10762988691E+03  0.00000000000E+00 0. -1.
    9000006    2    1    2  501    0  0.00000000000E+00  0.00000000000E+00  0.89237011309E+03  0.11076298869E+04  0.65613988420E+03 0.  0.
         13    1    3    3    0    0  0.53522545995E+02  0.30313419280E+03  0.63772965510E+03  0.70813424911E+03  0.00000000000E+00 0. -1.
          2    1    3    3  501    0 -0.53522545995E+02 -0.30313419280E+03  0.25464045799E+03  0.39949563779E+03  0.00000000000E+00 0. -1.
<mgrwt>
<rscale>  0 0.65613988E+03</rscale>
<asrwt>0</asrwt>
<pdfrwt beam="1">0</pdfrwt>
<pdfrwt beam="2">  1        2 0.39138223E+00 0.65613988E+03</pdfrwt>
<totfact> 0.42873779E+00</totfact>
</mgrwt>
</event>
<event>
 5    1  0.2369161E-004  0.6435149E+03  0.7818608E-02  0.9819025E-01
         13   -1    0    0    0    0  0.00000000000E+00  0.00000000000E+00  0.10000000000E+04  0.10000000000E+04  0.00000000000E+00 0. -1.
          2   -1    0    0  501    0 -0.00000000000E+00 -0.00000000000E+00 -0.10352784463E+03  0.10352784463E+03  0.00000000000E+00 0. -1.
    9000006    2    1    2  501    0  0.00000000000E+00  0.00000000000E+00  0.89647215537E+03  0.11035278446E+04  0.64351486270E+03 0.  0.
         13    1    3    3    0    0  0.18120480968E+03  0.14264156257E+03  0.63460588435E+02  0.23918412303E+03  0.00000000000E+00 0. -1.
          2    1    3    3  501    0 -0.18120480968E+03 -0.14264156257E+03  0.83301156694E+03  0.86434372160E+03  0.00000000000E+00 0. -1.
<mgrwt>
<rscale>  0 0.64351486E+03</rscale>
<asrwt>0</asrwt>
<pdfrwt beam="1">0</pdfrwt>
<pdfrwt beam="2">  1        2 0.37646568E+00 0.64351486E+03</pdfrwt>
<totfact> 0.48733674E+00</totfact>
</mgrwt>
</event>
<event>
 5    1  0.2369161E-004  0.6514437E+03  0.7818608E-02  0.9804074E-01
         13   -1    0    0    0    0  0.00000000000E+00  0.00000000000E+00  0.10000000000E+04  0.10000000000E+04  0.00000000000E+00 0. -1.
          2   -1    0    0  501    0 -0.00000000000E+00 -0.00000000000E+00 -0.10609471288E+03  0.10609471288E+03  0.00000000000E+00 0. -1.
    9000006    2    1    2  501    0  0.00000000000E+00  0.00000000000E+00  0.89390528712E+03  0.11060947129E+04  0.65144366719E+03 0.  0.
         13    1    3    3    0    0  0.92334390077E+02 -0.16909466757E+03  0.10247259060E+01  0.19266472499E+03  0.00000000000E+00 0. -1.
          4    1    3    3  501    0 -0.92334390077E+02  0.16909466757E+03  0.89288056121E+03  0.91342998789E+03  0.00000000000E+00 0. -1.
<mgrwt>
<rscale>  0 0.65144367E+03</rscale>
<asrwt>0</asrwt>
<pdfrwt beam="1">0</pdfrwt>
<pdfrwt beam="2">  1        2 0.38579977E+00 0.65144367E+03</pdfrwt>
<totfact> 0.44987461E+00</totfact>
</mgrwt>
</event>
<event>
 5    1  0.2369161E-004  0.5690427E+03  0.7818608E-02  0.9971799E-01
         13   -1    0    0    0    0  0.00000000000E+00  0.00000000000E+00  0.10000000000E+04  0.10000000000E+04  0.00000000000E+00 0. -1.
          2   -1    0    0  501    0 -0.00000000000E+00 -0.00000000000E+00 -0.80952392293E+02  0.80952392293E+02  0.00000000000E+00 0. -1.
    9000006    2    1    2  501    0  0.00000000000E+00  0.00000000000E+00  0.91904760771E+03  0.10809523923E+04  0.56904267781E+03 0.  0.
         13    1    3    3    0    0  0.20353410239E+03  0.11122818612E+03  0.14649590275E+03  0.27433353741E+03  0.00000000000E+00 0. -1.
          2    1    3    3  501    0 -0.20353410239E+03 -0.11122818612E+03  0.77255170496E+03  0.80661885489E+03  0.00000000000E+00 0. -1.
<mgrwt>
<rscale>  0 0.56904268E+03</rscale>
<asrwt>0</asrwt>
<pdfrwt beam="1">0</pdfrwt>
<pdfrwt beam="2">  1        2 0.29437296E+00 0.56904268E+03</pdfrwt>
<totfact> 0.96706627E+00</totfact>
</mgrwt>
</event>
<event>
 5    1  0.2369161E-004  0.6432856E+03  0.7818608E-02  0.9819460E-01
         13   -1    0    0    0    0  0.00000000000E+00  0.00000000000E+00  0.10000000000E+04  0.10000000000E+04  0.00000000000E+00 0. -1.
          2   -1    0    0  501    0 -0.00000000000E+00 -0.00000000000E+00 -0.10345409729E+03  0.10345409729E+03  0.00000000000E+00 0. -1.
    9000006    2    1    2  501    0  0.00000000000E+00  0.00000000000E+00  0.89654590271E+03  0.11034540973E+04  0.64328562019E+03 0.  0.
         13    1    3    3    0    0  0.17169692727E+03  0.26500378889E+03  0.34326866857E+03  0.46641207294E+03  0.00000000000E+00 0. -1.
          2    1    3    3  501    0 -0.17169692727E+03 -0.26500378889E+03  0.55327723415E+03  0.63704202435E+03  0.00000000000E+00 0. -1.
<mgrwt>
<rscale>  0 0.64328562E+03</rscale>
<asrwt>0</asrwt>
<pdfrwt beam="1">0</pdfrwt>
<pdfrwt beam="2">  1        2 0.37619751E+00 0.64328562E+03</pdfrwt>
<totfact> 0.48845383E+00</totfact>
</mgrwt>
</event>
<event>
 5    1  0.2369161E-004  0.6290709E+03  0.7818608E-02  0.9846864E-01
         13   -1    0    0    0    0  0.00000000000E+00  0.00000000000E+00  0.10000000000E+04  0.10000000000E+04  0.00000000000E+00 0. -1.
          2   -1    0    0  501    0 -0.00000000000E+00 -0.00000000000E+00 -0.98932536538E+02  0.98932536538E+02  0.00000000000E+00 0. -1.
    9000006    2    1    2  501    0  0.00000000000E+00  0.00000000000E+00  0.90106746346E+03  0.10989325365E+04  0.62907085941E+03 0.  0.
         13    1    3    3    0    0  0.13921468439E+02  0.18604996606E+03  0.81672235017E+01  0.18674876357E+03  0.00000000000E+00 0. -1.
          2    1    3    3  501    0 -0.13921468439E+02 -0.18604996606E+03  0.89290023996E+03  0.91218377297E+03  0.00000000000E+00 0. -1.
<mgrwt>
<rscale>  0 0.62907086E+03</rscale>
<asrwt>0</asrwt>
<pdfrwt beam="1">0</pdfrwt>
<pdfrwt beam="2">  1        2 0.35975544E+00 0.62907086E+03</pdfrwt>
<totfact> 0.56160717E+00</totfact>
</mgrwt>
</event>
<event>
 5    1  0.2369161E-004  0.6576414E+03  0.7818608E-02  0.9792545E-01
         13   -1    0    0    0    0  0.00000000000E+00  0.00000000000E+00  0.10000000000E+04  0.10000000000E+04  0.00000000000E+00 0. -1.
          2   -1    0    0  501    0 -0.00000000000E+00 -0.00000000000E+00 -0.10812306232E+03  0.10812306232E+03  0.00000000000E+00 0. -1.
    9000006    2    1    2  501    0  0.00000000000E+00  0.00000000000E+00  0.89187693768E+03  0.11081230623E+04  0.65764142912E+03 0.  0.
         13    1    3    3    0    0 -0.13223619109E+03 -0.34919398693E+01 -0.61310930299E+02  0.14579997960E+03  0.00000000000E+00 0. -1.
          2    1    3    3  501    0  0.13223619109E+03  0.34919398693E+01  0.95318786797E+03  0.96232308272E+03  0.00000000000E+00 0. -1.
<mgrwt>
<rscale>  0 0.65764143E+03</rscale>
<asrwt>0</asrwt>
<pdfrwt beam="1">0</pdfrwt>
<pdfrwt beam="2">  1        2 0.39317560E+00 0.65764143E+03</pdfrwt>
<totfact> 0.42214059E+00</totfact>
</mgrwt>
</event>
<event>
 5    1  0.2369161E-004  0.6484537E+03  0.7818608E-02  0.9809685E-01
         13   -1    0    0    0    0  0.00000000000E+00  0.00000000000E+00  0.10000000000E+04  0.10000000000E+04  0.00000000000E+00 0. -1.
          2   -1    0    0  501    0 -0.00000000000E+00 -0.00000000000E+00 -0.10512303634E+03  0.10512303634E+03  0.00000000000E+00 0. -1.
    9000006    2    1    2  501    0  0.00000000000E+00  0.00000000000E+00  0.89487696366E+03  0.11051230363E+04  0.64845365706E+03 0.  0.
         13    1    3    3    0    0 -0.29482794838E+03 -0.13482297281E+03  0.43939358617E+03  0.54604713781E+03  0.00000000000E+00 0. -1.
          4    1    3    3  501    0  0.29482794838E+03  0.13482297281E+03  0.45548337749E+03  0.55907589853E+03  0.00000000000E+00 0. -1.
<mgrwt>
<rscale>  0 0.64845366E+03</rscale>
<asrwt>0</asrwt>
<pdfrwt beam="1">0</pdfrwt>
<pdfrwt beam="2">  1        2 0.38226639E+00 0.64845366E+03</pdfrwt>
<totfact> 0.46373622E+00</totfact>
</mgrwt>
</event>
<event>
 5    1  0.2369161E-004  0.6577866E+03  0.7818608E-02  0.9792277E-01
         13   -1    0    0    0    0  0.00000000000E+00  0.00000000000E+00  0.10000000000E+04  0.10000000000E+04  0.00000000000E+00 0. -1.
          2   -1    0    0  501    0 -0.00000000000E+00 -0.00000000000E+00 -0.10817081129E+03  0.10817081129E+03  0.00000000000E+00 0. -1.
    9000006    2    1    2  501    0  0.00000000000E+00  0.00000000000E+00  0.89182918871E+03  0.11081708113E+04  0.65778662586E+03 0.  0.
         13    1    3    3    0    0  0.27939634309E+03  0.15771925425E+03  0.32404299921E+03  0.45600608004E+03  0.00000000000E+00 0. -1.
          4    1    3    3  501    0 -0.27939634309E+03 -0.15771925425E+03  0.56778618951E+03  0.65216473125E+03  0.00000000000E+00 0. -1.
<mgrwt>
<rscale>  0 0.65778663E+03</rscale>
<asrwt>0</asrwt>
<pdfrwt beam="1">0</pdfrwt>
<pdfrwt beam="2">  1        2 0.39334923E+00 0.65778663E+03</pdfrwt>
<totfact> 0.42150675E+00</totfact>
</mgrwt>
</event>
<event>
 5    1  0.2369161E-004  0.6632742E+03  0.7818608E-02  0.9782185E-01
         13   -1    0    0    0    0  0.00000000000E+00  0.00000000000E+00  0.10000000000E+04  0.10000000000E+04  0.00000000000E+00 0. -1.
          2   -1    0    0  501    0 -0.00000000000E+00 -0.00000000000E+00 -0.10998317849E+03  0.10998317849E+03  0.00000000000E+00 0. -1.
    9000006    2    1    2  501    0  0.00000000000E+00  0.00000000000E+00  0.89001682151E+03  0.11099831785E+04  0.66327423738E+03 0.  0.
         13    1    3    3    0    0 -0.19749800751E+03 -0.24618488176E+03  0.61543121709E+03  0.69164155597E+03  0.00000000000E+00 0. -1.
          4    1    3    3  501    0  0.19749800751E+03  0.24618488176E+03  0.27458560442E+03  0.41834162252E+03  0.00000000000E+00 0. -1.
<mgrwt>
<rscale>  0 0.66327424E+03</rscale>
<asrwt>0</asrwt>
<pdfrwt beam="1">0</pdfrwt>
<pdfrwt beam="2">  1        2 0.39993967E+00 0.66327424E+03</pdfrwt>
<totfact> 0.39807464E+00</totfact>
</mgrwt>
</event>
<event>
 5    1  0.2369161E-004  0.6495634E+03  0.7818608E-02  0.9807599E-01
         13   -1    0    0    0    0  0.00000000000E+00  0.00000000000E+00  0.10000000000E+04  0.10000000000E+04  0.00000000000E+00 0. -1.
          2   -1    0    0  501    0 -0.00000000000E+00 -0.00000000000E+00 -0.10548315246E+03  0.10548315246E+03  0.00000000000E+00 0. -1.
    9000006    2    1    2  501    0  0.00000000000E+00  0.00000000000E+00  0.89451684754E+03  0.11054831525E+04  0.64956339941E+03 0.  0.
         13    1    3    3    0    0 -0.32414943236E+03 -0.17939190833E+02  0.43124952414E+03  0.53978775563E+03  0.00000000000E+00 0. -1.
          4    1    3    3  501    0  0.32414943236E+03  0.17939190833E+02  0.46326732340E+03  0.56569539683E+03  0.00000000000E+00 0. -1.
<mgrwt>
<rscale>  0 0.64956340E+03</rscale>
<asrwt>0</asrwt>
<pdfrwt beam="1">0</pdfrwt>
<pdfrwt beam="2">  1        2 0.38357591E+00 0.64956340E+03</pdfrwt>
<totfact> 0.45855436E+00</totfact>
</mgrwt>
</event>
<event>
 5    1  0.2369161E-004  0.6508814E+03  0.7818608E-02  0.9805127E-01
         13   -1    0    0    0    0  0.00000000000E+00  0.00000000000E+00  0.10000000000E+04  0.10000000000E+04  0.00000000000E+00 0. -1.
          2   -1    0    0  501    0 -0.00000000000E+00 -0.00000000000E+00 -0.10591165011E+03  0.10591165011E+03  0.00000000000E+00 0. -1.
    9000006    2    1    2  501    0  0.00000000000E+00  0.00000000000E+00  0.89408834989E+03  0.11059116501E+04  0.65088140275E+03 0.  0.
         13    1    3    3    0    0 -0.21953726530E+03 -0.10442850690E+03  0.79434764257E+02  0.25575731795E+03  0.00000000000E+00 0. -1.
          4    1    3    3  501    0  0.21953726530E+03  0.10442850690E+03  0.81465358563E+03  0.85015433216E+03  0.00000000000E+00 0. -1.
<mgrwt>
<rscale>  0 0.65088140E+03</rscale>
<asrwt>0</asrwt>
<pdfrwt beam="1">0</pdfrwt>
<pdfrwt beam="2">  1        2 0.38513409E+00 0.65088140E+03</pdfrwt>
<totfact> 0.45245702E+00</totfact>
</mgrwt>
</event>
<event>
 5    1  0.2369161E-004  0.6665259E+03  0.7818608E-02  0.9776254E-01
         13   -1    0    0    0    0  0.00000000000E+00  0.00000000000E+00  0.10000000000E+04  0.10000000000E+04  0.00000000000E+00 0. -1.
          2   -1    0    0  501    0 -0.00000000000E+00 -0.00000000000E+00 -0.11106420701E+03  0.11106420701E+03  0.00000000000E+00 0. -1.
    9000006    2    1    2  501    0  0.00000000000E+00  0.00000000000E+00  0.88893579299E+03  0.11110642070E+04  0.66652593952E+03 0.  0.
         13    1    3    3    0    0 -0.23967414522E+03 -0.21188414137E+03  0.28875653825E+03  0.43095118474E+03  0.00000000000E+00 0. -1.
          2    1    3    3  501    0  0.23967414522E+03  0.21188414137E+03  0.60017925474E+03  0.68011302227E+03  0.00000000000E+00 0. -1.
<mgrwt>
<rscale>  0 0.66652594E+03</rscale>
<asrwt>0</asrwt>
<pdfrwt beam="1">0</pdfrwt>
<pdfrwt beam="2">  1        2 0.40387070E+00 0.66652594E+03</pdfrwt>
<totfact> 0.38466195E+00</totfact>
</mgrwt>
</event>
<event>
 5    1  0.2369161E-004  0.6510852E+03  0.7818608E-02  0.9804745E-01
         13   -1    0    0    0    0  0.00000000000E+00  0.00000000000E+00  0.10000000000E+04  0.10000000000E+04  0.00000000000E+00 0. -1.
          2   -1    0    0  501    0 -0.00000000000E+00 -0.00000000000E+00 -0.10597797275E+03  0.10597797275E+03  0.00000000000E+00 0. -1.
    9000006    2    1    2  501    0  0.00000000000E+00  0.00000000000E+00  0.89402202725E+03  0.11059779727E+04  0.65108516417E+03 0.  0.
         13    1    3    3    0    0  0.14445272348E+03 -0.16590787626E+03  0.39380220775E+02  0.22347889054E+03  0.00000000000E+00 0. -1.
          2    1    3    3  501    0 -0.14445272348E+03  0.16590787626E+03  0.85464180648E+03  0.88249908221E+03  0.00000000000E+00 0. -1.
<mgrwt>
<rscale>  0 0.65108516E+03</rscale>
<asrwt>0</asrwt>
<pdfrwt beam="1">0</pdfrwt>
<pdfrwt beam="2">  1        2 0.38537526E+00 0.65108516E+03</pdfrwt>
<totfact> 0.45151988E+00</totfact>
</mgrwt>
</event>
<event>
 5    1  0.2369161E-004  0.6278095E+03  0.7818608E-02  0.9849333E-01
         13   -1    0    0    0    0  0.00000000000E+00  0.00000000000E+00  0.10000000000E+04  0.10000000000E+04  0.00000000000E+00 0. -1.
          2   -1    0    0  501    0 -0.00000000000E+00 -0.00000000000E+00 -0.98536190179E+02  0.98536190179E+02  0.00000000000E+00 0. -1.
    9000006    2    1    2  501    0  0.00000000000E+00  0.00000000000E+00  0.90146380982E+03  0.10985361902E+04  0.62780949397E+03 0.  0.
         13    1    3    3    0    0 -0.11314116875E+03 -0.19764414228E+02 -0.60448973767E+02  0.12979073374E+03  0.00000000000E+00 0. -1.
          2    1    3    3  501    0  0.11314116875E+03  0.19764414228E+02  0.96191278359E+03  0.96874545644E+03  0.00000000000E+00 0. -1.
<mgrwt>
<rscale>  0 0.62780949E+03</rscale>
<asrwt>0</asrwt>
<pdfrwt beam="1">0</pdfrwt>
<pdfrwt beam="2">  1        2 0.35831417E+00 0.62780949E+03</pdfrwt>
<totfact> 0.56847779E+00</totfact>
</mgrwt>
</event>
<event>
 5    1  0.2369161E-004  0.6336626E+03  0.7818608E-02  0.9837927E-01
         13   -1    0    0    0    0  0.00000000000E+00  0.00000000000E+00  0.10000000000E+04  0.10000000000E+04  0.00000000000E+00 0. -1.
          2   -1    0    0  501    0 -0.00000000000E+00 -0.00000000000E+00 -0.10038208032E+03  0.10038208032E+03  0.00000000000E+00 0. -1.
    9000006    2    1    2  501    0  0.00000000000E+00  0.00000000000E+00  0.89961791968E+03  0.11003820803E+04  0.63366262418E+03 0.  0.
         13    1    3    3    0    0  0.18203066626E+03 -0.24260033182E+03  0.60888986309E+03  0.68024771211E+03  0.00000000000E+00 0. -1.
          2    1    3    3  501    0 -0.18203066626E+03  0.24260033182E+03  0.29072805659E+03  0.42013436821E+03  0.00000000000E+00 0. -1.
<mgrwt>
<rscale>  0 0.63366262E+03</rscale>
<asrwt>0</asrwt>
<pdfrwt beam="1">0</pdfrwt>
<pdfrwt beam="2">  1        2 0.36502652E+00 0.63366262E+03</pdfrwt>
<totfact> 0.53712701E+00</totfact>
</mgrwt>
</event>
<event>
 5    1  0.2369161E-004  0.6479887E+03  0.7818608E-02  0.9810561E-01
         13   -1    0    0    0    0  0.00000000000E+00  0.00000000000E+00  0.10000000000E+04  0.10000000000E+04  0.00000000000E+00 0. -1.
          2   -1    0    0  501    0 -0.00000000000E+00 -0.00000000000E+00 -0.10497234391E+03  0.10497234391E+03  0.00000000000E+00 0. -1.
    9000006    2    1    2  501    0  0.00000000000E+00  0.00000000000E+00  0.89502765609E+03  0.11049723439E+04  0.64798871566E+03 0.  0.
         13    1    3    3    0    0  0.62868299052E+02  0.22823082024E+03  0.70311559320E+02  0.24695231465E+03  0.00000000000E+00 0. -1.
          4    1    3    3  501    0 -0.62868299052E+02 -0.22823082024E+03  0.82471609677E+03  0.85802002926E+03  0.00000000000E+00 0. -1.
<mgrwt>
<rscale>  0 0.64798872E+03</rscale>
<asrwt>0</asrwt>
<pdfrwt beam="1">0</pdfrwt>
<pdfrwt beam="2">  1        2 0.38171842E+00 0.64798872E+03</pdfrwt>
<totfact> 0.46592034E+00</totfact>
</mgrwt>
</event>
<event>
 5    1  0.2369161E-004  0.6298291E+03  0.7818608E-02  0.9845382E-01
         13   -1    0    0    0    0  0.00000000000E+00  0.00000000000E+00  0.10000000000E+04  0.10000000000E+04  0.00000000000E+00 0. -1.
          2   -1    0    0  501    0 -0.00000000000E+00 -0.00000000000E+00 -0.99171187980E+02  0.99171187980E+02  0.00000000000E+00 0. -1.
    9000006    2    1    2  501    0  0.00000000000E+00  0.00000000000E+00  0.90082881202E+03  0.10991711880E+04  0.62982914502E+03 0.  0.
         13    1    3    3    0    0 -0.27934065885E+03 -0.13261910666E+03  0.34640116015E+03  0.46434124832E+03  0.00000000000E+00 0. -1.
          2    1    3    3  501    0  0.27934065885E+03  0.13261910666E+03  0.55442765187E+03  0.63482993966E+03  0.00000000000E+00 0. -1.
<mgrwt>
<rscale>  0 0.62982915E+03</rscale>
<asrwt>0</asrwt>
<pdfrwt beam="1">0</pdfrwt>
<pdfrwt beam="2">  1        2 0.36062326E+00 0.62982915E+03</pdfrwt>
<totfact> 0.55750728E+00</totfact>
</mgrwt>
</event>
<event>
 5    1  0.2369161E-004  0.6469852E+03  0.7818608E-02  0.9812453E-01
         13   -1    0    0    0    0  0.00000000000E+00  0.00000000000E+00  0.10000000000E+04  0.10000000000E+04  0.00000000000E+00 0. -1.
          2   -1    0    0  501    0 -0.00000000000E+00 -0.00000000000E+00 -0.10464746048E+03  0.10464746048E+03  0.00000000000E+00 0. -1.
    9000006    2    1    2  501    0  0.00000000000E+00  0.00000000000E+00  0.89535253952E+03  0.11046474605E+04  0.64698519451E+03 0.  0.
         13    1    3    3    0    0  0.93075939166E+02  0.14636169750E+03 -0.18542581307E+02  0.17443825346E+03  0.00000000000E+00 0. -1.
          4    1    3    3  501    0 -0.93075939166E+02 -0.14636169750E+03  0.91389512083E+03  0.93020920702E+03  0.00000000000E+00 0. -1.
<mgrwt>
<rscale>  0 0.64698519E+03</rscale>
<asrwt>0</asrwt>
<pdfrwt beam="1">0</pdfrwt>
<pdfrwt beam="2">  1        2 0.38053702E+00 0.64698519E+03</pdfrwt>
<totfact> 0.47066101E+00</totfact>
</mgrwt>
</event>
<event>
 5    1  0.2369161E-004  0.6488683E+03  0.7818608E-02  0.9808905E-01
         13   -1    0    0    0    0  0.00000000000E+00  0.00000000000E+00  0.10000000000E+04  0.10000000000E+04  0.00000000000E+00 0. -1.
          2   -1    0    0  501    0 -0.00000000000E+00 -0.00000000000E+00 -0.10525751076E+03  0.10525751076E+03  0.00000000000E+00 0. -1.
    9000006    2    1    2  501    0  0.00000000000E+00  0.00000000000E+00  0.89474248924E+03  0.11052575108E+04  0.64886827865E+03 0.  0.
         13    1    3    3    0    0  0.17304443177E+03 -0.24294857763E+03  0.66476937083E+03  0.72861972464E+03  0.00000000000E+00 0. -1.
          4    1    3    3  501    0 -0.17304443177E+03  0.24294857763E+03  0.22997311841E+03  0.37663778612E+03  0.00000000000E+00 0. -1.
<mgrwt>
<rscale>  0 0.64886828E+03</rscale>
<asrwt>0</asrwt>
<pdfrwt beam="1">0</pdfrwt>
<pdfrwt beam="2">  1        2 0.38275539E+00 0.64886828E+03</pdfrwt>
<totfact> 0.46179502E+00</totfact>
</mgrwt>
</event>
<event>
 5    1  0.2369161E-004  0.6425011E+03  0.7818608E-02  0.9820953E-01
         13   -1    0    0    0    0  0.00000000000E+00  0.00000000000E+00  0.10000000000E+04  0.10000000000E+04  0.00000000000E+00 0. -1.
          2   -1    0    0  501    0 -0.00000000000E+00 -0.00000000000E+00 -0.10320190452E+03  0.10320190452E+03  0.00000000000E+00 0. -1.
    9000006    2    1    2  501    0  0.00000000000E+00  0.00000000000E+00  0.89679809548E+03  0.11032019045E+04  0.64250106464E+03 0.  0.
         13    1    3    3    0    0 -0.25526290921E+02  0.28078213016E+03  0.71279973140E+03  0.76653353040E+03  0.00000000000E+00 0. -1.
          2    1    3    3  501    0  0.25526290921E+02 -0.28078213016E+03  0.18399836408E+03  0.33666837411E+03  0.00000000000E+00 0. -1.
<mgrwt>
<rscale>  0 0.64250106E+03</rscale>
<asrwt>0</asrwt>
<pdfrwt beam="1">0</pdfrwt>
<pdfrwt beam="2">  1        2 0.37528044E+00 0.64250106E+03</pdfrwt>
<totfact> 0.49229168E+00</totfact>
</mgrwt>
</event>
<event>
 5    1  0.2369161E-004  0.6383332E+03  0.7818608E-02  0.9828921E-01
         13   -1    0    0    0    0  0.00000000000E+00  0.00000000000E+00  0.10000000000E+04  0.10000000000E+04  0.00000000000E+00 0. -1.
          2   -1    0    0  501    0 -0.00000000000E+00 -0.00000000000E+00 -0.10186731738E+03  0.10186731738E+03  0.00000000000E+00 0. -1.
    9000006    2    1    2  501    0  0.00000000000E+00  0.00000000000E+00  0.89813268262E+03  0.11018673174E+04  0.63833319631E+03 0.  0.
         13    1    3    3    0    0 -0.20665948250E+03  0.23679944000E+03  0.35318731940E+03  0.47278261292E+03  0.00000000000E+00 0. -1.
          4    1    3    3  501    0  0.20665948250E+03 -0.23679944000E+03  0.54494536322E+03  0.62908470446E+03  0.00000000000E+00 0. -1.
<mgrwt>
<rscale>  0 0.63833320E+03</rscale>
<asrwt>0</asrwt>
<pdfrwt beam="1">0</pdfrwt>
<pdfrwt beam="2">  1        2 0.37042739E+00 0.63833320E+03</pdfrwt>
<totfact> 0.51306562E+00</totfact>
</mgrwt>
</event>
<event>
 5    1  0.2369161E-004  0.6455145E+03  0.7818608E-02  0.9815232E-01
         13   -1    0    0    0    0  0.00000000000E+00  0.00000000000E+00  0.10000000000E+04  0.10000000000E+04  0.00000000000E+00 0. -1.
          2   -1    0    0  501    0 -0.00000000000E+00 -0.00000000000E+00 -0.10417225336E+03  0.10417225336E+03  0.00000000000E+00 0. -1.
    9000006    2    1    2  501    0  0.00000000000E+00  0.00000000000E+00  0.89582774664E+03  0.11041722534E+04  0.64551453387E+03 0.  0.
         13    1    3    3    0    0  0.17086015083E+03 -0.19492017264E+03  0.11895263864E+03  0.28519606428E+03  0.00000000000E+00 0. -1.
          4    1    3    3  501    0 -0.17086015083E+03  0.19492017264E+03  0.77687510800E+03  0.81897618908E+03  0.00000000000E+00 0. -1.
<mgrwt>
<rscale>  0 0.64551453E+03</rscale>
<asrwt>0</asrwt>
<pdfrwt beam="1">0</pdfrwt>
<pdfrwt beam="2">  1        2 0.37880899E+00 0.64551453E+03</pdfrwt>
<totfact> 0.47767426E+00</totfact>
</mgrwt>
</event>
<event>
 5    1  0.2369161E-004  0.6907274E+03  0.7818608E-02  0.9733222E-01
         13   -1    0    0    0    0  0.00000000000E+00  0.00000000000E+00  0.10000000000E+04  0.10000000000E+04  0.00000000000E+00 0. -1.
          2   -1    0    0  501    0 -0.00000000000E+00 -0.00000000000E+00 -0.11927607874E+03  0.11927607874E+03  0.00000000000E+00 0. -1.
    9000006    2    1    2  501    0  0.00000000000E+00  0.00000000000E+00  0.88072392126E+03  0.11192760787E+04  0.69072738108E+03 0.  0.
         13    1    3    3    0    0 -0.96476858594E+02  0.32979100872E+03  0.49663981400E+03  0.60392135127E+03  0.00000000000E+00 0. -1.
          4    1    3    3  501    0  0.96476858594E+02 -0.32979100872E+03  0.38408410726E+03  0.51535472747E+03  0.00000000000E+00 0. -1.
<mgrwt>
<rscale>  0 0.69072738E+03</rscale>
<asrwt>0</asrwt>
<pdfrwt beam="1">0</pdfrwt>
<pdfrwt beam="2">  1        2 0.43373211E+00 0.69072738E+03</pdfrwt>
<totfact> 0.29523117E+00</totfact>
</mgrwt>
</event>
<event>
 5    1  0.2369161E-004  0.6509846E+03  0.7818608E-02  0.9804933E-01
         13   -1    0    0    0    0  0.00000000000E+00  0.00000000000E+00  0.10000000000E+04  0.10000000000E+04  0.00000000000E+00 0. -1.
          2   -1    0    0  501    0 -0.00000000000E+00 -0.00000000000E+00 -0.10594522925E+03  0.10594522925E+03  0.00000000000E+00 0. -1.
    9000006    2    1    2  501    0  0.00000000000E+00  0.00000000000E+00  0.89405477075E+03  0.11059452292E+04  0.65098457508E+03 0.  0.
         13    1    3    3    0    0  0.17534182950E+03  0.11307110028E+03  0.87146004470E+03  0.89608729508E+03  0.00000000000E+00 0. -1.
          2    1    3    3  501    0 -0.17534182950E+03 -0.11307110028E+03  0.22594726054E+02  0.20985793417E+03  0.00000000000E+00 0. -1.
<mgrwt>
<rscale>  0 0.65098458E+03</rscale>
<asrwt>0</asrwt>
<pdfrwt beam="1">0</pdfrwt>
<pdfrwt beam="2">  1        2 0.38525619E+00 0.65098458E+03</pdfrwt>
<totfact> 0.45198233E+00</totfact>
</mgrwt>
</event>
<event>
 5    1  0.2369161E-004  0.6555714E+03  0.7818608E-02  0.9796381E-01
         13   -1    0    0    0    0  0.00000000000E+00  0.00000000000E+00  0.10000000000E+04  0.10000000000E+04  0.00000000000E+00 0. -1.
          2   -1    0    0  501    0 -0.00000000000E+00 -0.00000000000E+00 -0.10744347221E+03  0.10744347221E+03  0.00000000000E+00 0. -1.
    9000006    2    1    2  501    0  0.00000000000E+00  0.00000000000E+00  0.89255652779E+03  0.11074434722E+04  0.65557142160E+03 0.  0.
         13    1    3    3    0    0  0.27191904332E+03  0.15572856502E+03  0.28378992993E+03  0.42276243497E+03  0.00000000000E+00 0. -1.
          4    1    3    3  501    0 -0.27191904332E+03 -0.15572856502E+03  0.60876659786E+03  0.68468103724E+03  0.00000000000E+00 0. -1.
<mgrwt>
<rscale>  0 0.65557142E+03</rscale>
<asrwt>0</asrwt>
<pdfrwt beam="1">0</pdfrwt>
<pdfrwt beam="2">  1        2 0.39070436E+00 0.65557142E+03</pdfrwt>
<totfact> 0.43125560E+00</totfact>
</mgrwt>
</event>
<event>
 5    1  0.2369161E-004  0.6505343E+03  0.7818608E-02  0.9805777E-01
         13   -1    0    0    0    0  0.00000000000E+00  0.00000000000E+00  0.10000000000E+04  0.10000000000E+04  0.00000000000E+00 0. -1.
          2   -1    0    0  501    0 -0.00000000000E+00 -0.00000000000E+00 -0.10579871186E+03  0.10579871186E+03  0.00000000000E+00 0. -1.
    9000006    2    1    2  501    0  0.00000000000E+00  0.00000000000E+00  0.89420128814E+03  0.11057987119E+04  0.65053427846E+03 0.  0.
         13    1    3    3    0    0  0.85094320915E+02 -0.14271467652E+03  0.92241619886E+03  0.93726205848E+03  0.00000000000E+00 0. -1.
          2    1    3    3  501    0 -0.85094320915E+02  0.14271467652E+03 -0.28214910723E+02  0.16853665338E+03  0.00000000000E+00 0. -1.
<mgrwt>
<rscale>  0 0.65053428E+03</rscale>
<asrwt>0</asrwt>
<pdfrwt beam="1">0</pdfrwt>
<pdfrwt beam="2">  1        2 0.38472340E+00 0.65053428E+03</pdfrwt>
<totfact> 0.45405690E+00</totfact>
</mgrwt>
</event>
<event>
 5    1  0.2369161E-004  0.6733817E+03  0.7818608E-02  0.9763868E-01
         13   -1    0    0    0    0  0.00000000000E+00  0.00000000000E+00  0.10000000000E+04  0.10000000000E+04  0.00000000000E+00 0. -1.
          2   -1    0    0  501    0 -0.00000000000E+00 -0.00000000000E+00 -0.11336073406E+03  0.11336073406E+03  0.00000000000E+00 0. -1.
    9000006    2    1    2  501    0  0.00000000000E+00  0.00000000000E+00  0.88663926594E+03  0.11133607341E+04  0.67338171661E+03 0.  0.
         13    1    3    3    0    0  0.92377122142E+02 -0.17735582720E+03  0.89117737904E+03  0.91333769387E+03  0.00000000000E+00 0. -1.
          2    1    3    3  501    0 -0.92377122142E+02  0.17735582720E+03 -0.45381131038E+01  0.20002304019E+03  0.00000000000E+00 0. -1.
<mgrwt>
<rscale>  0 0.67338172E+03</rscale>
<asrwt>0</asrwt>
<pdfrwt beam="1">0</pdfrwt>
<pdfrwt beam="2">  1        2 0.41222172E+00 0.67338172E+03</pdfrwt>
<totfact> 0.35750159E+00</totfact>
</mgrwt>
</event>
<event>
 5    1  0.2369161E-004  0.6473364E+03  0.7818608E-02  0.9811790E-01
         13   -1    0    0    0    0  0.00000000000E+00  0.00000000000E+00  0.10000000000E+04  0.10000000000E+04  0.00000000000E+00 0. -1.
          2   -1    0    0  501    0 -0.00000000000E+00 -0.00000000000E+00 -0.10476108772E+03  0.10476108772E+03  0.00000000000E+00 0. -1.
    9000006    2    1    2  501    0  0.00000000000E+00  0.00000000000E+00  0.89523891228E+03  0.11047610877E+04  0.64733635065E+03 0.  0.
         13    1    3    3    0    0  0.20929231037E+03  0.11253112023E+03  0.72570901214E+02  0.24846138514E+03  0.00000000000E+00 0. -1.
          4    1    3    3  501    0 -0.20929231037E+03 -0.11253112023E+03  0.82266801107E+03  0.85629970258E+03  0.00000000000E+00 0. -1.
<mgrwt>
<rscale>  0 0.64733635E+03</rscale>
<asrwt>0</asrwt>
<pdfrwt beam="1">0</pdfrwt>
<pdfrwt beam="2">  1        2 0.38095021E+00 0.64733635E+03</pdfrwt>
<totfact> 0.46899801E+00</totfact>
</mgrwt>
</event>
<event>
 5    1  0.2369161E-004  0.6462699E+03  0.7818608E-02  0.9813804E-01
         13   -1    0    0    0    0  0.00000000000E+00  0.00000000000E+00  0.10000000000E+04  0.10000000000E+04  0.00000000000E+00 0. -1.
          2   -1    0    0  501    0 -0.00000000000E+00 -0.00000000000E+00 -0.10441620973E+03  0.10441620973E+03  0.00000000000E+00 0. -1.
    9000006    2    1    2  501    0  0.00000000000E+00  0.00000000000E+00  0.89558379027E+03  0.11044162097E+04  0.64626994276E+03 0.  0.
         13    1    3    3    0    0  0.17631002671E+03  0.27079693559E+03  0.44768533636E+03  0.55212169513E+03  0.00000000000E+00 0. -1.
          4    1    3    3  501    0 -0.17631002671E+03 -0.27079693559E+03  0.44789845391E+03  0.55229451460E+03  0.00000000000E+00 0. -1.
<mgrwt>
<rscale>  0 0.64626994E+03</rscale>
<asrwt>0</asrwt>
<pdfrwt beam="1">0</pdfrwt>
<pdfrwt beam="2">  1        2 0.37969611E+00 0.64626994E+03</pdfrwt>
<totfact> 0.47406208E+00</totfact>
</mgrwt>
</event>
<event>
 5    1  0.2369161E-004  0.6796640E+03  0.7818608E-02  0.9752656E-01
         13   -1    0    0    0    0  0.00000000000E+00  0.00000000000E+00  0.10000000000E+04  0.10000000000E+04  0.00000000000E+00 0. -1.
          2   -1    0    0  501    0 -0.00000000000E+00 -0.00000000000E+00 -0.11548580129E+03  0.11548580129E+03  0.00000000000E+00 0. -1.
    9000006    2    1    2  501    0  0.00000000000E+00  0.00000000000E+00  0.88451419871E+03  0.11154858013E+04  0.67966403846E+03 0.  0.
         13    1    3    3    0    0 -0.83578378681E+02 -0.28778503399E+03  0.17924894688E+03  0.34919300699E+03  0.00000000000E+00 0. -1.
          2    1    3    3  501    0  0.83578378681E+02  0.28778503399E+03  0.70526525183E+03  0.76629279431E+03  0.00000000000E+00 0. -1.
<mgrwt>
<rscale>  0 0.67966404E+03</rscale>
<asrwt>0</asrwt>
<pdfrwt beam="1">0</pdfrwt>
<pdfrwt beam="2">  1        2 0.41994925E+00 0.67966404E+03</pdfrwt>
<totfact> 0.33390775E+00</totfact>
</mgrwt>
</event>
<event>
 5    1  0.2369161E-004  0.6498224E+03  0.7818608E-02  0.9807113E-01
         13   -1    0    0    0    0  0.00000000000E+00  0.00000000000E+00  0.10000000000E+04  0.10000000000E+04  0.00000000000E+00 0. -1.
          2   -1    0    0  501    0 -0.00000000000E+00 -0.00000000000E+00 -0.10556727260E+03  0.10556727260E+03  0.00000000000E+00 0. -1.
    9000006    2    1    2  501    0  0.00000000000E+00  0.00000000000E+00  0.89443272740E+03  0.11055672726E+04  0.64982235294E+03 0.  0.
         13    1    3    3    0    0 -0.78417302458E+02 -0.10809864006E+03  0.95114754763E+03  0.96047709326E+03  0.00000000000E+00 0. -1.
          4    1    3    3  501    0  0.78417302458E+02  0.10809864006E+03 -0.56714820226E+02  0.14509017934E+03  0.00000000000E+00 0. -1.
<mgrwt>
<rscale>  0 0.64982235E+03</rscale>
<asrwt>0</asrwt>
<pdfrwt beam="1">0</pdfrwt>
<pdfrwt beam="2">  1        2 0.38388180E+00 0.64982235E+03</pdfrwt>
<totfact> 0.45735152E+00</totfact>
</mgrwt>
</event>
<event>
 5    1  0.2369161E-004  0.6455277E+03  0.7818608E-02  0.9815208E-01
         13   -1    0    0    0    0  0.00000000000E+00  0.00000000000E+00  0.10000000000E+04  0.10000000000E+04  0.00000000000E+00 0. -1.
          4   -1    0    0  501    0 -0.00000000000E+00 -0.00000000000E+00 -0.10417649177E+03  0.10417649177E+03  0.00000000000E+00 0. -1.
    9000006    2    1    2  501    0  0.00000000000E+00  0.00000000000E+00  0.89582350823E+03  0.11041764918E+04  0.64552766563E+03 0.  0.
         13    1    3    3    0    0 -0.25871786262E+03  0.19241731656E+03  0.42270661072E+03  0.53163919617E+03  0.00000000000E+00 0. -1.
          4    1    3    3  501    0  0.25871786262E+03 -0.19241731656E+03  0.47311689750E+03  0.57253729560E+03  0.00000000000E+00 0. -1.
<mgrwt>
<rscale>  0 0.64552767E+03</rscale>
<asrwt>0</asrwt>
<pdfrwt beam="1">0</pdfrwt>
<pdfrwt beam="2">  1        4 0.37882441E+00 0.64552767E+03</pdfrwt>
<totfact> 0.44678767E-02</totfact>
</mgrwt>
</event>
<event>
 5    1  0.2369161E-004  0.6463213E+03  0.7818608E-02  0.9813707E-01
         13   -1    0    0    0    0  0.00000000000E+00  0.00000000000E+00  0.10000000000E+04  0.10000000000E+04  0.00000000000E+00 0. -1.
          2   -1    0    0  501    0 -0.00000000000E+00 -0.00000000000E+00 -0.10443281113E+03  0.10443281113E+03  0.00000000000E+00 0. -1.
    9000006    2    1    2  501    0  0.00000000000E+00  0.00000000000E+00  0.89556718887E+03  0.11044328111E+04  0.64632131679E+03 0.  0.
         13    1    3    3    0    0 -0.24900316005E+03  0.12213709598E+02  0.96414331367E+02  0.26729659876E+03  0.00000000000E+00 0. -1.
          2    1    3    3  501    0  0.24900316005E+03 -0.12213709598E+02  0.79915285750E+03  0.83713621237E+03  0.00000000000E+00 0. -1.
<mgrwt>
<rscale>  0 0.64632132E+03</rscale>
<asrwt>0</asrwt>
<pdfrwt beam="1">0</pdfrwt>
<pdfrwt beam="2">  1        2 0.37975648E+00 0.64632132E+03</pdfrwt>
<totfact> 0.47381718E+00</totfact>
</mgrwt>
</event>
<event>
 5    1  0.2369161E-004  0.6387507E+03  0.7818608E-02  0.9828120E-01
         13   -1    0    0    0    0  0.00000000000E+00  0.00000000000E+00  0.10000000000E+04  0.10000000000E+04  0.00000000000E+00 0. -1.
          2   -1    0    0  501    0 -0.00000000000E+00 -0.00000000000E+00 -0.10200060603E+03  0.10200060603E+03  0.00000000000E+00 0. -1.
    9000006    2    1    2  501    0  0.00000000000E+00  0.00000000000E+00  0.89799939397E+03  0.11020006060E+04  0.63875067445E+03 0.  0.
         13    1    3    3    0    0  0.24385808538E+03  0.12208172239E+03  0.73577388937E+03  0.78468715360E+03  0.00000000000E+00 0. -1.
          2    1    3    3  501    0 -0.24385808538E+03 -0.12208172239E+03  0.16222550460E+03  0.31731345242E+03  0.00000000000E+00 0. -1.
<mgrwt>
<rscale>  0 0.63875067E+03</rscale>
<asrwt>0</asrwt>
<pdfrwt beam="1">0</pdfrwt>
<pdfrwt beam="2">  1        2 0.37091208E+00 0.63875067E+03</pdfrwt>
<totfact> 0.51095540E+00</totfact>
</mgrwt>
</event>
<event>
 5    1  0.2369161E-004  0.6472479E+03  0.7818608E-02  0.9811957E-01
         13   -1    0    0    0    0  0.00000000000E+00  0.00000000000E+00  0.10000000000E+04  0.10000000000E+04  0.00000000000E+00 0. -1.
          2   -1    0    0  501    0 -0.00000000000E+00 -0.00000000000E+00 -0.10473247350E+03  0.10473247350E+03  0.00000000000E+00 0. -1.
    9000006    2    1    2  501    0  0.00000000000E+00  0.00000000000E+00  0.89526752650E+03  0.11047324735E+04  0.64724793860E+03 0.  0.
         13    1    3    3    0    0 -0.32114142772E+03 -0.70077753475E+00  0.37935762665E+03  0.49703572969E+03  0.00000000000E+00 0. -1.
          4    1    3    3  501    0  0.32114142772E+03  0.70077753475E+00  0.51590989984E+03  0.60769674381E+03  0.00000000000E+00 0. -1.
<mgrwt>
<rscale>  0 0.64724794E+03</rscale>
<asrwt>0</asrwt>
<pdfrwt beam="1">0</pdfrwt>
<pdfrwt beam="2">  1        2 0.38084616E+00 0.64724794E+03</pdfrwt>
<totfact> 0.46941629E+00</totfact>
</mgrwt>
</event>
<event>
 5    1  0.2369161E-004  0.6456536E+03  0.7818608E-02  0.9814969E-01
         13   -1    0    0    0    0  0.00000000000E+00  0.00000000000E+00  0.10000000000E+04  0.10000000000E+04  0.00000000000E+00 0. -1.
          2   -1    0    0  501    0 -0.00000000000E+00 -0.00000000000E+00 -0.10421714940E+03  0.10421714940E+03  0.00000000000E+00 0. -1.
    9000006    2    1    2  501    0  0.00000000000E+00  0.00000000000E+00  0.89578285060E+03  0.11042171494E+04  0.64565362045E+03 0.  0.
         13    1    3    3    0    0 -0.20782696331E+03 -0.14678365882E+03  0.78770568579E+03  0.82777879690E+03  0.00000000000E+00 0. -1.
          4    1    3    3  501    0  0.20782696331E+03  0.14678365882E+03  0.10807716481E+03  0.27643835249E+03  0.00000000000E+00 0. -1.
<mgrwt>
<rscale>  0 0.64565362E+03</rscale>
<asrwt>0</asrwt>
<pdfrwt beam="1">0</pdfrwt>
<pdfrwt beam="2">  1        2 0.37897225E+00 0.64565362E+03</pdfrwt>
<totfact> 0.47700762E+00</totfact>
</mgrwt>
</event>
<event>
 5    1  0.2369161E-004  0.6559000E+03  0.7818608E-02  0.9795771E-01
         13   -1    0    0    0    0  0.00000000000E+00  0.00000000000E+00  0.10000000000E+04  0.10000000000E+04  0.00000000000E+00 0. -1.
          2   -1    0    0  501    0 -0.00000000000E+00 -0.00000000000E+00 -0.10755121404E+03  0.10755121404E+03  0.00000000000E+00 0. -1.
    9000006    2    1    2  501    0  0.00000000000E+00  0.00000000000E+00  0.89244878596E+03  0.11075512140E+04  0.65590003520E+03 0.  0.
         13    1    3    3    0    0 -0.31597991054E+03  0.33853065636E+02  0.58300997081E+03  0.66399545178E+03  0.00000000000E+00 0. -1.
          2    1    3    3  501    0  0.31597991054E+03 -0.33853065636E+02  0.30943881515E+03  0.44355576226E+03  0.00000000000E+00 0. -1.
<mgrwt>
<rscale>  0 0.65590004E+03</rscale>
<asrwt>0</asrwt>
<pdfrwt beam="1">0</pdfrwt>
<pdfrwt beam="2">  1        2 0.39109615E+00 0.65590004E+03</pdfrwt>
<totfact> 0.42979876E+00</totfact>
</mgrwt>
</event>
<event>
 5    1  0.2369161E-004  0.6598557E+03  0.7818608E-02  0.9788459E-01
         13   -1    0    0    0    0  0.00000000000E+00  0.00000000000E+00  0.10000000000E+04  0.10000000000E+04  0.00000000000E+00 0. -1.
          2   -1    0    0  501    0 -0.00000000000E+00 -0.00000000000E+00 -0.10885238388E+03  0.10885238388E+03  0.00000000000E+00 0. -1.
    9000006    2    1    2  501    0  0.00000000000E+00  0.00000000000E+00  0.89114761612E+03  0.11088523839E+04  0.65985569295E+03 0.  0.
         13    1    3    3    0    0  0.25372511354E+03 -0.48585580464E+02  0.79043568714E+03  0.83158016293E+03  0.00000000000E+00 0. -1.
          2    1    3    3  501    0 -0.25372511354E+03  0.48585580464E+02  0.10071192898E+03  0.27727222095E+03  0.00000000000E+00 0. -1.
<mgrwt>
<rscale>  0 0.65985569E+03</rscale>
<asrwt>0</asrwt>
<pdfrwt beam="1">0</pdfrwt>
<pdfrwt beam="2">  1        2 0.39582769E+00 0.65985569E+03</pdfrwt>
<totfact> 0.41255279E+00</totfact>
</mgrwt>
</event>
<event>
 5    1  0.2369161E-004  0.6485032E+03  0.7818608E-02  0.9809592E-01
         13   -1    0    0    0    0  0.00000000000E+00  0.00000000000E+00  0.10000000000E+04  0.10000000000E+04  0.00000000000E+00 0. -1.
          2   -1    0    0  501    0 -0.00000000000E+00 -0.00000000000E+00 -0.10513910534E+03  0.10513910534E+03  0.00000000000E+00 0. -1.
    9000006    2    1    2  501    0  0.00000000000E+00  0.00000000000E+00  0.89486089466E+03  0.11051391053E+04  0.64850321616E+03 0.  0.
         13    1    3    3    0    0  0.25759436146E+03  0.18663610920E+03  0.55455031688E+03  0.63930739576E+03  0.00000000000E+00 0. -1.
          4    1    3    3  501    0 -0.25759436146E+03 -0.18663610920E+03  0.34031057777E+03  0.46583170959E+03  0.00000000000E+00 0. -1.
<mgrwt>
<rscale>  0 0.64850322E+03</rscale>
<asrwt>0</asrwt>
<pdfrwt beam="1">0</pdfrwt>
<pdfrwt beam="2">  1        2 0.38232483E+00 0.64850322E+03</pdfrwt>
<totfact> 0.46350387E+00</totfact>
</mgrwt>
</event>
<event>
 5    1  0.2369161E-004  0.6570086E+03  0.7818608E-02  0.9793716E-01
         13   -1    0    0    0    0  0.00000000000E+00  0.00000000000E+00  0.10000000000E+04  0.10000000000E+04  0.00000000000E+00 0. -1.
          2   -1    0    0  501    0 -0.00000000000E+00 -0.00000000000E+00 -0.10791508749E+03  0.10791508749E+03  0.00000000000E+00 0. -1.
    9000006    2    1    2  501    0  0.00000000000E+00  0.00000000000E+00  0.89208491251E+03  0.11079150875E+04  0.65700863766E+03 0.  0.
         13    1    3    3    0    0  0.25510869814E+03 -0.17000303357E+03  0.24699015882E+03  0.39368212792E+03  0.00000000000E+00 0. -1.
          2    1    3    3  501    0 -0.25510869814E+03  0.17000303357E+03  0.64509475369E+03  0.71423295957E+03  0.00000000000E+00 0. -1.
<mgrwt>
<rscale>  0 0.65700864E+03</rscale>
<asrwt>0</asrwt>
<pdfrwt beam="1">0</pdfrwt>
<pdfrwt beam="2">  1        2 0.39241933E+00 0.65700864E+03</pdfrwt>
<totfact> 0.42491141E+00</totfact>
</mgrwt>
</event>
<event>
 5    1  0.2369161E-004  0.6428131E+03  0.7818608E-02  0.9820359E-01
         13   -1    0    0    0    0  0.00000000000E+00  0.00000000000E+00  0.10000000000E+04  0.10000000000E+04  0.00000000000E+00 0. -1.
          2   -1    0    0  501    0 -0.00000000000E+00 -0.00000000000E+00 -0.10330217984E+03  0.10330217984E+03  0.00000000000E+00 0. -1.
    9000006    2    1    2  501    0  0.00000000000E+00  0.00000000000E+00  0.89669782016E+03  0.11033021798E+04  0.64281312944E+03 0.  0.
         13    1    3    3    0    0  0.29761268786E+02 -0.26996118128E+03  0.15336663311E+03  0.31190719240E+03  0.00000000000E+00 0. -1.
          4    1    3    3  501    0 -0.29761268786E+02  0.26996118128E+03  0.74333118704E+03  0.79139498744E+03  0.00000000000E+00 0. -1.
<mgrwt>
<rscale>  0 0.64281313E+03</rscale>
<asrwt>0</asrwt>
<pdfrwt beam="1">0</pdfrwt>
<pdfrwt beam="2">  1        2 0.37564508E+00 0.64281313E+03</pdfrwt>
<totfact> 0.49076236E+00</totfact>
</mgrwt>
</event>
<event>
 5    1  0.2369161E-004  0.6034205E+03  0.7818608E-02  0.9898335E-01
         13   -1    0    0    0    0  0.00000000000E+00  0.00000000000E+00  0.10000000000E+04  0.10000000000E+04  0.00000000000E+00 0. -1.
          2   -1    0    0  501    0 -0.00000000000E+00 -0.00000000000E+00 -0.91029061279E+02  0.91029061279E+02  0.00000000000E+00 0. -1.
    9000006    2    1    2  501    0  0.00000000000E+00  0.00000000000E+00  0.90897093872E+03  0.10910290613E+04  0.60342045467E+03 0.  0.
         13    1    3    3    0    0  0.24409025295E+03 -0.16046879295E+03  0.31799350270E+03  0.43179874115E+03  0.00000000000E+00 0. -1.
          2    1    3    3  501    0 -0.24409025295E+03  0.16046879295E+03  0.59097743602E+03  0.65923032013E+03  0.00000000000E+00 0. -1.
<mgrwt>
<rscale>  0 0.60342045E+03</rscale>
<asrwt>0</asrwt>
<pdfrwt beam="1">0</pdfrwt>
<pdfrwt beam="2">  1        2 0.33101547E+00 0.60342045E+03</pdfrwt>
<totfact> 0.71438039E+00</totfact>
</mgrwt>
</event>
<event>
 5    1  0.2369161E-004  0.6268902E+03  0.7818608E-02  0.9851136E-01
         13   -1    0    0    0    0  0.00000000000E+00  0.00000000000E+00  0.10000000000E+04  0.10000000000E+04  0.00000000000E+00 0. -1.
          2   -1    0    0  501    0 -0.00000000000E+00 -0.00000000000E+00 -0.98247837193E+02  0.98247837193E+02  0.00000000000E+00 0. -1.
    9000006    2    1    2  501    0  0.00000000000E+00  0.00000000000E+00  0.90175216281E+03  0.10982478372E+04  0.62689022067E+03 0.  0.
         13    1    3    3    0    0  0.92692275807E+02  0.18963922959E+03  0.44930833955E+02  0.21580934927E+03  0.00000000000E+00 0. -1.
          4    1    3    3  501    0 -0.92692275807E+02 -0.18963922959E+03  0.85682132885E+03  0.88243848792E+03  0.00000000000E+00 0. -1.
<mgrwt>
<rscale>  0 0.62689022E+03</rscale>
<asrwt>0</asrwt>
<pdfrwt beam="1">0</pdfrwt>
<pdfrwt beam="2">  1        2 0.35726562E+00 0.62689022E+03</pdfrwt>
<totfact> 0.57352513E+00</totfact>
</mgrwt>
</event>
<event>
 5    1  0.2369161E-004  0.6576589E+03  0.7818608E-02  0.9792513E-01
         13   -1    0    0    0    0  0.00000000000E+00  0.00000000000E+00  0.10000000000E+04  0.10000000000E+04  0.00000000000E+00 0. -1.
          4   -1    0    0  501    0 -0.00000000000E+00 -0.00000000000E+00 -0.10812881422E+03  0.10812881422E+03  0.00000000000E+00 0. -1.
    9000006    2    1    2  501    0  0.00000000000E+00  0.00000000000E+00  0.89187118578E+03  0.11081288142E+04  0.65765892139E+03 0.  0.
         13    1    3    3    0    0 -0.26664558991E+03 -0.12632406912E+03  0.20134830013E+03  0.35720971295E+03  0.00000000000E+00 0. -1.
          2    1    3    3  501    0  0.26664558991E+03  0.12632406912E+03  0.69052288565E+03  0.75091910127E+03  0.00000000000E+00 0. -1.
<mgrwt>
<rscale>  0 0.65765892E+03</rscale>
<asrwt>0</asrwt>
<pdfrwt beam="1">0</pdfrwt>
<pdfrwt beam="2">  1        4 0.39319652E+00 0.65765892E+03</pdfrwt>
<totfact> 0.35697723E-02</totfact>
</mgrwt>
</event>
<event>
 5    1  0.2369161E-004  0.6533584E+03  0.7818608E-02  0.9800498E-01
         13   -1    0    0    0    0  0.00000000000E+00  0.00000000000E+00  0.10000000000E+04  0.10000000000E+04  0.00000000000E+00 0. -1.
          2   -1    0    0  501    0 -0.00000000000E+00 -0.00000000000E+00 -0.10671928564E+03  0.10671928564E+03  0.00000000000E+00 0. -1.
    9000006    2    1    2  501    0  0.00000000000E+00  0.00000000000E+00  0.89328071436E+03  0.11067192856E+04  0.65335835693E+03 0.  0.
         13    1    3    3    0    0 -0.29900095633E+03  0.19125284482E+02  0.66718458498E+03  0.73137037048E+03  0.00000000000E+00 0. -1.
          2    1    3    3  501    0  0.29900095633E+03 -0.19125284482E+02  0.22609612938E+03  0.37534891516E+03  0.00000000000E+00 0. -1.
<mgrwt>
<rscale>  0 0.65335836E+03</rscale>
<asrwt>0</asrwt>
<pdfrwt beam="1">0</pdfrwt>
<pdfrwt beam="2">  1        2 0.38807095E+00 0.65335836E+03</pdfrwt>
<totfact> 0.44116411E+00</totfact>
</mgrwt>
</event>
<event>
 5    1  0.2369161E-004  0.6419139E+03  0.7818608E-02  0.9822072E-01
         13   -1    0    0    0    0  0.00000000000E+00  0.00000000000E+00  0.10000000000E+04  0.10000000000E+04  0.00000000000E+00 0. -1.
          2   -1    0    0  501    0 -0.00000000000E+00 -0.00000000000E+00 -0.10301335653E+03  0.10301335653E+03  0.00000000000E+00 0. -1.
    9000006    2    1    2  501    0  0.00000000000E+00  0.00000000000E+00  0.89698664347E+03  0.11030133565E+04  0.64191387750E+03 0.  0.
         13    1    3    3    0    0  0.48293655179E+02  0.27998376762E+03  0.70503662938E+03  0.76013145971E+03  0.00000000000E+00 0. -1.
          2    1    3    3  501    0 -0.48293655179E+02 -0.27998376762E+03  0.19195001408E+03  0.34288189682E+03  0.00000000000E+00 0. -1.
<mgrwt>
<rscale>  0 0.64191388E+03</rscale>
<asrwt>0</asrwt>
<pdfrwt beam="1">0</pdfrwt>
<pdfrwt beam="2">  1        2 0.37459481E+00 0.64191388E+03</pdfrwt>
<totfact> 0.49517916E+00</totfact>
</mgrwt>
</event>
<event>
 5    1  0.2369161E-004  0.6776050E+03  0.7818608E-02  0.9756316E-01
         13   -1    0    0    0    0  0.00000000000E+00  0.00000000000E+00  0.10000000000E+04  0.10000000000E+04  0.00000000000E+00 0. -1.
          2   -1    0    0  501    0 -0.00000000000E+00 -0.00000000000E+00 -0.11478712563E+03  0.11478712563E+03  0.00000000000E+00 0. -1.
    9000006    2    1    2  501    0  0.00000000000E+00  0.00000000000E+00  0.88521287437E+03  0.11147871256E+04  0.67760497527E+03 0.  0.
         13    1    3    3    0    0 -0.15744456386E+03 -0.22838461963E+03  0.12258133973E+03  0.30327299587E+03  0.00000000000E+00 0. -1.
          2    1    3    3  501    0  0.15744456386E+03  0.22838461963E+03  0.76263153464E+03  0.81151412976E+03  0.00000000000E+00 0. -1.
<mgrwt>
<rscale>  0 0.67760498E+03</rscale>
<asrwt>0</asrwt>
<pdfrwt beam="1">0</pdfrwt>
<pdfrwt beam="2">  1        2 0.41740861E+00 0.67760498E+03</pdfrwt>
<totfact> 0.34150736E+00</totfact>
</mgrwt>
</event>
<event>
 5    1  0.2369161E-004  0.7348174E+03  0.7818608E-02  0.9659475E-01
         13   -1    0    0    0    0  0.00000000000E+00  0.00000000000E+00  0.10000000000E+04  0.10000000000E+04  0.00000000000E+00 0. -1.
          2   -1    0    0  501    0 -0.00000000000E+00 -0.00000000000E+00 -0.13498916709E+03  0.13498916709E+03  0.00000000000E+00 0. -1.
    9000006    2    1    2  501    0  0.00000000000E+00  0.00000000000E+00  0.86501083291E+03  0.11349891671E+04  0.73481743880E+03 0.  0.
         13    1    3    3    0    0 -0.11198776184E+03  0.38192244948E+01  0.97296357642E+03  0.97939469383E+03  0.00000000000E+00 0. -1.
          2    1    3    3  501    0  0.11198776184E+03 -0.38192244948E+01 -0.10795274351E+03  0.15559447326E+03  0.00000000000E+00 0. -1.
<mgrwt>
<rscale>  0 0.73481744E+03</rscale>
<asrwt>0</asrwt>
<pdfrwt beam="1">0</pdfrwt>
<pdfrwt beam="2">  1        2 0.49087073E+00 0.73481744E+03</pdfrwt>
<totfact> 0.17350838E+00</totfact>
</mgrwt>
</event>
<event>
 5    1  0.2369161E-004  0.6487829E+03  0.7818608E-02  0.9809066E-01
         13   -1    0    0    0    0  0.00000000000E+00  0.00000000000E+00  0.10000000000E+04  0.10000000000E+04  0.00000000000E+00 0. -1.
          2   -1    0    0  501    0 -0.00000000000E+00 -0.00000000000E+00 -0.10522980406E+03  0.10522980406E+03  0.00000000000E+00 0. -1.
    9000006    2    1    2  501    0  0.00000000000E+00  0.00000000000E+00  0.89477019594E+03  0.11052298041E+04  0.64878287296E+03 0.  0.
         13    1    3    3    0    0 -0.82634246713E+02  0.12509467837E+03  0.93743952322E+03  0.94935238820E+03  0.00000000000E+00 0. -1.
          4    1    3    3  501    0  0.82634246713E+02 -0.12509467837E+03 -0.42669327281E+02  0.15587741586E+03  0.00000000000E+00 0. -1.
<mgrwt>
<rscale>  0 0.64878287E+03</rscale>
<asrwt>0</asrwt>
<pdfrwt beam="1">0</pdfrwt>
<pdfrwt beam="2">  1        2 0.38265464E+00 0.64878287E+03</pdfrwt>
<totfact> 0.46219438E+00</totfact>
</mgrwt>
</event>
<event>
 5    1  0.2369161E-004  0.6519455E+03  0.7818608E-02  0.9803135E-01
         13   -1    0    0    0    0  0.00000000000E+00  0.00000000000E+00  0.10000000000E+04  0.10000000000E+04  0.00000000000E+00 0. -1.
          2   -1    0    0  501    0 -0.00000000000E+00 -0.00000000000E+00 -0.10625824124E+03  0.10625824124E+03  0.00000000000E+00 0. -1.
    9000006    2    1    2  501    0  0.00000000000E+00  0.00000000000E+00  0.89374175876E+03  0.11062582412E+04  0.65194552301E+03 0.  0.
         13    1    3    3    0    0  0.71797581846E+02  0.23780227614E+03  0.80503804009E+03  0.84249098588E+03  0.00000000000E+00 0. -1.
          2    1    3    3  501    0 -0.71797581846E+02 -0.23780227614E+03  0.88703718670E+02  0.26376725536E+03  0.00000000000E+00 0. -1.
<mgrwt>
<rscale>  0 0.65194552E+03</rscale>
<asrwt>0</asrwt>
<pdfrwt beam="1">0</pdfrwt>
<pdfrwt beam="2">  1        2 0.38639442E+00 0.65194552E+03</pdfrwt>
<totfact> 0.44757906E+00</totfact>
</mgrwt>
</event>
<event>
 5    1  0.2369161E-004  0.6469736E+03  0.7818608E-02  0.9812475E-01
         13   -1    0    0    0    0  0.00000000000E+00  0.00000000000E+00  0.10000000000E+04  0.10000000000E+04  0.00000000000E+00 0. -1.
          2   -1    0    0  501    0 -0.00000000000E+00 -0.00000000000E+00 -0.10464369689E+03  0.10464369689E+03  0.00000000000E+00 0. -1.
    9000006    2    1    2  501    0  0.00000000000E+00  0.00000000000E+00  0.89535630311E+03  0.11046436969E+04  0.64697356018E+03 0.  0.
         13    1    3    3    0    0  0.30107863017E+03 -0.10932410396E+03  0.52486319801E+03  0.61488330428E+03  0.00000000000E+00 0. -1.
          4    1    3    3  501    0 -0.30107863017E+03  0.10932410396E+03  0.37049310510E+03  0.48976039262E+03  0.00000000000E+00 0. -1.
<mgrwt>
<rscale>  0 0.64697356E+03</rscale>
<asrwt>0</asrwt>
<pdfrwt beam="1">0</pdfrwt>
<pdfrwt beam="2">  1        2 0.38052334E+00 0.64697356E+03</pdfrwt>
<totfact> 0.47071618E+00</totfact>
</mgrwt>
</event>
<event>
 5    1  0.2369161E-004  0.6490710E+03  0.7818608E-02  0.9808524E-01
         13   -1    0    0    0    0  0.00000000000E+00  0.00000000000E+00  0.10000000000E+04  0.10000000000E+04  0.00000000000E+00 0. -1.
          4   -1    0    0  501    0 -0.00000000000E+00 -0.00000000000E+00 -0.10532327739E+03  0.10532327739E+03  0.00000000000E+00 0. -1.
    9000006    2    1    2  501    0  0.00000000000E+00  0.00000000000E+00  0.89467672261E+03  0.11053232774E+04  0.64907095881E+03 0.  0.
         13    1    3    3    0    0 -0.95624691401E+02 -0.12536745253E+03  0.93038946983E+03  0.94365546961E+03  0.00000000000E+00 0. -1.
          4    1    3    3  501    0  0.95624691401E+02  0.12536745253E+03 -0.35712747221E+02  0.16166780778E+03  0.00000000000E+00 0. -1.
<mgrwt>
<rscale>  0 0.64907096E+03</rscale>
<asrwt>0</asrwt>
<pdfrwt beam="1">0</pdfrwt>
<pdfrwt beam="2">  1        4 0.38299454E+00 0.64907096E+03</pdfrwt>
<totfact> 0.41882142E-02</totfact>
</mgrwt>
</event>
<event>
 5    1  0.2369161E-004  0.6458278E+03  0.7818608E-02  0.9814640E-01
         13   -1    0    0    0    0  0.00000000000E+00  0.00000000000E+00  0.10000000000E+04  0.10000000000E+04  0.00000000000E+00 0. -1.
          2   -1    0    0  501    0 -0.00000000000E+00 -0.00000000000E+00 -0.10427339793E+03  0.10427339793E+03  0.00000000000E+00 0. -1.
    9000006    2    1    2  501    0  0.00000000000E+00  0.00000000000E+00  0.89572660207E+03  0.11042733979E+04  0.64582783442E+03 0.  0.
         13    1    3    3    0    0 -0.14523107683E+03  0.22620855147E+03  0.75378454142E+03  0.80028339313E+03  0.00000000000E+00 0. -1.
          4    1    3    3  501    0  0.14523107683E+03 -0.22620855147E+03  0.14194206066E+03  0.30399000480E+03  0.00000000000E+00 0. -1.
<mgrwt>
<rscale>  0 0.64582783E+03</rscale>
<asrwt>0</asrwt>
<pdfrwt beam="1">0</pdfrwt>
<pdfrwt beam="2">  1        2 0.37917679E+00 0.64582783E+03</pdfrwt>
<totfact> 0.47617362E+00</totfact>
</mgrwt>
</event>
<event>
 5    1  0.2369161E-004  0.6528543E+03  0.7818608E-02  0.9801438E-01
         13   -1    0    0    0    0  0.00000000000E+00  0.00000000000E+00  0.10000000000E+04  0.10000000000E+04  0.00000000000E+00 0. -1.
          2   -1    0    0  501    0 -0.00000000000E+00 -0.00000000000E+00 -0.10655467027E+03  0.10655467027E+03  0.00000000000E+00 0. -1.
    9000006    2    1    2  501    0  0.00000000000E+00  0.00000000000E+00  0.89344532973E+03  0.11065546703E+04  0.65285425716E+03 0.  0.
         13    1    3    3    0    0  0.13418782660E+03  0.76544134996E+02  0.93411789429E+03  0.94680600856E+03  0.00000000000E+00 0. -1.
          4    1    3    3  501    0 -0.13418782660E+03 -0.76544134996E+02 -0.40672564568E+02  0.15974866171E+03  0.00000000000E+00 0. -1.
<mgrwt>
<rscale>  0 0.65285426E+03</rscale>
<asrwt>0</asrwt>
<pdfrwt beam="1">0</pdfrwt>
<pdfrwt beam="2">  1        2 0.38747235E+00 0.65285426E+03</pdfrwt>
<totfact> 0.44344494E+00</totfact>
</mgrwt>
</event>
<event>
 5    1  0.2369161E-004  0.6532036E+03  0.7818608E-02  0.9800786E-01
         13   -1    0    0    0    0  0.00000000000E+00  0.00000000000E+00  0.10000000000E+04  0.10000000000E+04  0.00000000000E+00 0. -1.
          2   -1    0    0  501    0 -0.00000000000E+00 -0.00000000000E+00 -0.10666874085E+03  0.10666874085E+03  0.00000000000E+00 0. -1.
    9000006    2    1    2  501    0  0.00000000000E+00  0.00000000000E+00  0.89333125915E+03  0.11066687408E+04  0.65320361556E+03 0.  0.
         13    1    3    3    0    0  0.16873802546E+03  0.26551878497E+03  0.59529390400E+03  0.67331090779E+03  0.00000000000E+00 0. -1.
          4    1    3    3  501    0 -0.16873802546E+03 -0.26551878497E+03  0.29803735515E+03  0.43335783306E+03  0.00000000000E+00 0. -1.
<mgrwt>
<rscale>  0 0.65320362E+03</rscale>
<asrwt>0</asrwt>
<pdfrwt beam="1">0</pdfrwt>
<pdfrwt beam="2">  1        2 0.38788715E+00 0.65320362E+03</pdfrwt>
<totfact> 0.44186330E+00</totfact>
</mgrwt>
</event>
<event>
 5    1  0.2369161E-004  0.6525127E+03  0.7818608E-02  0.9802076E-01
         13   -1    0    0    0    0  0.00000000000E+00  0.00000000000E+00  0.10000000000E+04  0.10000000000E+04  0.00000000000E+00 0. -1.
          2   -1    0    0  501    0 -0.00000000000E+00 -0.00000000000E+00 -0.10644320392E+03  0.10644320392E+03  0.00000000000E+00 0. -1.
    9000006    2    1    2  501    0  0.00000000000E+00  0.00000000000E+00  0.89355679608E+03  0.11064432039E+04  0.65251269389E+03 0.  0.
         13    1    3    3    0    0  0.21358603797E+03 -0.11710899084E+03  0.78738166003E+02  0.25599455099E+03  0.00000000000E+00 0. -1.
          4    1    3    3  501    0 -0.21358603797E+03  0.11710899084E+03  0.81481863008E+03  0.85044865293E+03  0.00000000000E+00 0. -1.
<mgrwt>
<rscale>  0 0.65251269E+03</rscale>
<asrwt>0</asrwt>
<pdfrwt beam="1">0</pdfrwt>
<pdfrwt beam="2">  1        2 0.38706701E+00 0.65251269E+03</pdfrwt>
<totfact> 0.44499542E+00</totfact>
</mgrwt>
</event>
<event>
 5    1  0.2369161E-004  0.6509673E+03  0.7818608E-02  0.9804966E-01
         13   -1    0    0    0    0  0.00000000000E+00  0.00000000000E+00  0.10000000000E+04  0.10000000000E+04  0.00000000000E+00 0. -1.
          2   -1    0    0  501    0 -0.00000000000E+00 -0.00000000000E+00 -0.10593960217E+03  0.10593960217E+03  0.00000000000E+00 0. -1.
    9000006    2    1    2  501    0  0.00000000000E+00  0.00000000000E+00  0.89406039783E+03  0.11059396022E+04  0.65096728697E+03 0.  0.
         13    1    3    3    0    0  0.23232159731E+03 -0.54355334039E+02  0.70913633158E+02  0.24891076771E+03  0.00000000000E+00 0. -1.
          4    1    3    3  501    0 -0.23232159731E+03  0.54355334039E+02  0.82314676467E+03  0.85702883446E+03  0.00000000000E+00 0. -1.
<mgrwt>
<rscale>  0 0.65096729E+03</rscale>
<asrwt>0</asrwt>
<pdfrwt beam="1">0</pdfrwt>
<pdfrwt beam="2">  1        2 0.38523573E+00 0.65096729E+03</pdfrwt>
<totfact> 0.45206184E+00</totfact>
</mgrwt>
</event>
<event>
 5    1  0.2369161E-004  0.6347565E+03  0.7818608E-02  0.9835811E-01
         13   -1    0    0    0    0  0.00000000000E+00  0.00000000000E+00  0.10000000000E+04  0.10000000000E+04  0.00000000000E+00 0. -1.
          2   -1    0    0  501    0 -0.00000000000E+00 -0.00000000000E+00 -0.10072894973E+03  0.10072894973E+03  0.00000000000E+00 0. -1.
    9000006    2    1    2  501    0  0.00000000000E+00  0.00000000000E+00  0.89927105027E+03  0.11007289497E+04  0.63475648789E+03 0.  0.
         13    1    3    3    0    0 -0.10086716706E+03  0.14031156108E+03 -0.11997193742E+02  0.17322081925E+03  0.00000000000E+00 0. -1.
          2    1    3    3  501    0  0.10086716706E+03 -0.14031156108E+03  0.91126824401E+03  0.92750813048E+03  0.00000000000E+00 0. -1.
<mgrwt>
<rscale>  0 0.63475649E+03</rscale>
<asrwt>0</asrwt>
<pdfrwt beam="1">0</pdfrwt>
<pdfrwt beam="2">  1        2 0.36628786E+00 0.63475649E+03</pdfrwt>
<totfact> 0.53141664E+00</totfact>
</mgrwt>
</event>
<event>
 5    1  0.2369161E-004  0.6537281E+03  0.7818608E-02  0.9799809E-01
         13   -1    0    0    0    0  0.00000000000E+00  0.00000000000E+00  0.10000000000E+04  0.10000000000E+04  0.00000000000E+00 0. -1.
          2   -1    0    0  501    0 -0.00000000000E+00 -0.00000000000E+00 -0.10684011247E+03  0.10684011247E+03  0.00000000000E+00 0. -1.
    9000006    2    1    2  501    0  0.00000000000E+00  0.00000000000E+00  0.89315988753E+03  0.11068401125E+04  0.65372811619E+03 0.  0.
         13    1    3    3    0    0 -0.28946023605E+03 -0.71532847754E+02  0.21982866360E+03  0.37044408202E+03  0.00000000000E+00 0. -1.
          4    1    3    3  501    0  0.28946023605E+03  0.71532847754E+02  0.67333122393E+03  0.73639603046E+03  0.00000000000E+00 0. -1.
<mgrwt>
<rscale>  0 0.65372812E+03</rscale>
<asrwt>0</asrwt>
<pdfrwt beam="1">0</pdfrwt>
<pdfrwt beam="2">  1        2 0.38851032E+00 0.65372812E+03</pdfrwt>
<totfact> 0.43949675E+00</totfact>
</mgrwt>
</event>
<event>
 5    1  0.2369161E-004  0.6512640E+03  0.7818608E-02  0.9804410E-01
         13   -1    0    0    0    0  0.00000000000E+00  0.00000000000E+00  0.10000000000E+04  0.10000000000E+04  0.00000000000E+00 0. -1.
          2   -1    0    0  501    0 -0.00000000000E+00 -0.00000000000E+00 -0.10603620732E+03  0.10603620732E+03  0.00000000000E+00 0. -1.
    9000006    2    1    2  501    0  0.00000000000E+00  0.00000000000E+00  0.89396379268E+03  0.11060362073E+04  0.65126402425E+03 0.  0.
         13    1    3    3    0    0 -0.61763727641E+02  0.77766551905E+02 -0.79690640171E+02  0.12733025084E+03  0.00000000000E+00 0. -1.
          2    1    3    3  501    0  0.61763727641E+02 -0.77766551905E+02  0.97365443285E+03  0.97870595648E+03  0.00000000000E+00 0. -1.
<mgrwt>
<rscale>  0 0.65126402E+03</rscale>
<asrwt>0</asrwt>
<pdfrwt beam="1">0</pdfrwt>
<pdfrwt beam="2">  1        2 0.38558702E+00 0.65126402E+03</pdfrwt>
<totfact> 0.45069847E+00</totfact>
</mgrwt>
</event>
<event>
 5    1  0.2369161E-004  0.6191966E+03  0.7818608E-02  0.9866361E-01
         13   -1    0    0    0    0  0.00000000000E+00  0.00000000000E+00  0.10000000000E+04  0.10000000000E+04  0.00000000000E+00 0. -1.
          2   -1    0    0  501    0 -0.00000000000E+00 -0.00000000000E+00 -0.95851105880E+02  0.95851105880E+02  0.00000000000E+00 0. -1.
    9000006    2    1    2  501    0  0.00000000000E+00  0.00000000000E+00  0.90414889412E+03  0.10958511059E+04  0.61919659521E+03 0.  0.
         13    1    3    3    0    0 -0.29907927285E+03 -0.25577663175E+02  0.31789085563E+03  0.43721530668E+03  0.00000000000E+00 0. -1.
          2    1    3    3  501    0  0.29907927285E+03  0.25577663175E+02  0.58625803849E+03  0.65863579920E+03  0.00000000000E+00 0. -1.
<mgrwt>
<rscale>  0 0.61919660E+03</rscale>
<asrwt>0</asrwt>
<pdfrwt beam="1">0</pdfrwt>
<pdfrwt beam="2">  1        2 0.34855021E+00 0.61919660E+03</pdfrwt>
<totfact> 0.61711964E+00</totfact>
</mgrwt>
</event>
<event>
 5    1  0.2369161E-004  0.6549311E+03  0.7818608E-02  0.9797570E-01
         13   -1    0    0    0    0  0.00000000000E+00  0.00000000000E+00  0.10000000000E+04  0.10000000000E+04  0.00000000000E+00 0. -1.
          2   -1    0    0  501    0 -0.00000000000E+00 -0.00000000000E+00 -0.10723369974E+03  0.10723369974E+03  0.00000000000E+00 0. -1.
    9000006    2    1    2  501    0  0.00000000000E+00  0.00000000000E+00  0.89276630026E+03  0.11072336997E+04  0.65493114063E+03 0.  0.
         13    1    3    3    0    0 -0.14723252492E+03  0.19837665704E+03  0.80977792078E+03  0.84662329016E+03  0.00000000000E+00 0. -1.
          2    1    3    3  501    0  0.14723252492E+03 -0.19837665704E+03  0.82988379474E+02  0.26061040958E+03  0.00000000000E+00 0. -1.
<mgrwt>
<rscale>  0 0.65493114E+03</rscale>
<asrwt>0</asrwt>
<pdfrwt beam="1">0</pdfrwt>
<pdfrwt beam="2">  1        2 0.38994155E+00 0.65493114E+03</pdfrwt>
<totfact> 0.43410485E+00</totfact>
</mgrwt>
</event>
<event>
 5    1  0.2369161E-004  0.6619746E+03  0.7818608E-02  0.9784566E-01
         13   -1    0    0    0    0  0.00000000000E+00  0.00000000000E+00  0.10000000000E+04  0.10000000000E+04  0.00000000000E+00 0. -1.
          2   -1    0    0  501    0 -0.00000000000E+00 -0.00000000000E+00 -0.10955259978E+03  0.10955259978E+03  0.00000000000E+00 0. -1.
    9000006    2    1    2  501    0  0.00000000000E+00  0.00000000000E+00  0.89044740022E+03  0.11095525998E+04  0.66197462121E+03 0.  0.
         13    1    3    3    0    0  0.12196701124E+03 -0.22829587289E+03  0.79100009018E+03  0.83227165041E+03  0.00000000000E+00 0. -1.
          2    1    3    3  501    0 -0.12196701124E+03  0.22829587289E+03  0.99447310036E+02  0.27728094937E+03  0.00000000000E+00 0. -1.
<mgrwt>
<rscale>  0 0.66197462E+03</rscale>
<asrwt>0</asrwt>
<pdfrwt beam="1">0</pdfrwt>
<pdfrwt beam="2">  1        2 0.39837393E+00 0.66197462E+03</pdfrwt>
<totfact> 0.40353280E+00</totfact>
</mgrwt>
</event>
<event>
 5    1  0.2369161E-004  0.6407155E+03  0.7818608E-02  0.9824359E-01
         13   -1    0    0    0    0  0.00000000000E+00  0.00000000000E+00  0.10000000000E+04  0.10000000000E+04  0.00000000000E+00 0. -1.
          2   -1    0    0  501    0 -0.00000000000E+00 -0.00000000000E+00 -0.10262908288E+03  0.10262908288E+03  0.00000000000E+00 0. -1.
    9000006    2    1    2  501    0  0.00000000000E+00  0.00000000000E+00  0.89737091712E+03  0.11026290829E+04  0.64071548407E+03 0.  0.
         13    1    3    3    0    0  0.25632763020E+03 -0.23240051575E+02  0.12041924755E+03  0.28415620560E+03  0.00000000000E+00 0. -1.
          2    1    3    3  501    0 -0.25632763020E+03  0.23240051575E+02  0.77695166957E+03  0.81847287728E+03  0.00000000000E+00 0. -1.
<mgrwt>
<rscale>  0 0.64071548E+03</rscale>
<asrwt>0</asrwt>
<pdfrwt beam="1">0</pdfrwt>
<pdfrwt beam="2">  1        2 0.37319745E+00 0.64071548E+03</pdfrwt>
<totfact> 0.50111200E+00</totfact>
</mgrwt>
</event>
<event>
 5    1  0.2369161E-004  0.6541099E+03  0.7818608E-02  0.9799098E-01
         13   -1    0    0    0    0  0.00000000000E+00  0.00000000000E+00  0.10000000000E+04  0.10000000000E+04  0.00000000000E+00 0. -1.
          2   -1    0    0  501    0 -0.00000000000E+00 -0.00000000000E+00 -0.10696495116E+03  0.10696495116E+03  0.00000000000E+00 0. -1.
    9000006    2    1    2  501    0  0.00000000000E+00  0.00000000000E+00  0.89303504884E+03  0.11069649512E+04  0.65410993314E+03 0.  0.
         13    1    3    3    0    0  0.22741810736E+03  0.20816084369E+03  0.26179047589E+03  0.40445541864E+03  0.00000000000E+00 0. -1.
          4    1    3    3  501    0 -0.22741810736E+03 -0.20816084369E+03  0.63124457295E+03  0.70250953252E+03  0.00000000000E+00 0. -1.
<mgrwt>
<rscale>  0 0.65410993E+03</rscale>
<asrwt>0</asrwt>
<pdfrwt beam="1">0</pdfrwt>
<pdfrwt beam="2">  1        2 0.38896428E+00 0.65410993E+03</pdfrwt>
<totfact> 0.43778001E+00</totfact>
</mgrwt>
</event>
<event>
 5    1  0.2369161E-004  0.6464523E+03  0.7818608E-02  0.9813459E-01
         13   -1    0    0    0    0  0.00000000000E+00  0.00000000000E+00  0.10000000000E+04  0.10000000000E+04  0.00000000000E+00 0. -1.
          2   -1    0    0  501    0 -0.00000000000E+00 -0.00000000000E+00 -0.10447514320E+03  0.10447514320E+03  0.00000000000E+00 0. -1.
    9000006    2    1    2  501    0  0.00000000000E+00  0.00000000000E+00  0.89552485680E+03  0.11044751432E+04  0.64645229740E+03 0.  0.
         13    1    3    3    0    0 -0.96846424825E+02  0.27684153621E+03  0.21566373923E+03  0.36404850582E+03  0.00000000000E+00 0. -1.
          4    1    3    3  501    0  0.96846424825E+02 -0.27684153621E+03  0.67986111756E+03  0.74042663738E+03  0.00000000000E+00 0. -1.
<mgrwt>
<rscale>  0 0.64645230E+03</rscale>
<asrwt>0</asrwt>
<pdfrwt beam="1">0</pdfrwt>
<pdfrwt beam="2">  1        2 0.37991041E+00 0.64645230E+03</pdfrwt>
<totfact> 0.47319321E+00</totfact>
</mgrwt>
</event>
<event>
 5    1  0.2369161E-004  0.6496757E+03  0.7818608E-02  0.9807388E-01
         13   -1    0    0    0    0  0.00000000000E+00  0.00000000000E+00  0.10000000000E+04  0.10000000000E+04  0.00000000000E+00 0. -1.
          2   -1    0    0  501    0 -0.00000000000E+00 -0.00000000000E+00 -0.10551962715E+03  0.10551962715E+03  0.00000000000E+00 0. -1.
    9000006    2    1    2  501    0  0.00000000000E+00  0.00000000000E+00  0.89448037285E+03  0.11055196272E+04  0.64967569496E+03 0.  0.
         13    1    3    3    0    0  0.21263005081E+03 -0.21549141798E+03  0.64765606950E+03  0.71491710994E+03  0.00000000000E+00 0. -1.
          2    1    3    3  501    0 -0.21263005081E+03  0.21549141798E+03  0.24682430335E+03  0.39060251721E+03  0.00000000000E+00 0. -1.
<mgrwt>
<rscale>  0 0.64967569E+03</rscale>
<asrwt>0</asrwt>
<pdfrwt beam="1">0</pdfrwt>
<pdfrwt beam="2">  1        2 0.38370854E+00 0.64967569E+03</pdfrwt>
<totfact> 0.45803245E+00</totfact>
</mgrwt>
</event>
<event>
 5    1  0.2369161E-004  0.6436913E+03  0.7818608E-02  0.9818690E-01
         13   -1    0    0    0    0  0.00000000000E+00  0.00000000000E+00  0.10000000000E+04  0.10000000000E+04  0.00000000000E+00 0. -1.
          2   -1    0    0  501    0 -0.00000000000E+00 -0.00000000000E+00 -0.10358462853E+03  0.10358462853E+03  0.00000000000E+00 0. -1.
    9000006    2    1    2  501    0  0.00000000000E+00  0.00000000000E+00  0.89641537147E+03  0.11035846285E+04  0.64369131896E+03 0.  0.
         13    1    3    3    0    0  0.21061916136E+03 -0.22482202510E+03  0.60793132625E+03  0.68153200331E+03  0.00000000000E+00 0. -1.
          4    1    3    3  501    0 -0.21061916136E+03  0.22482202510E+03  0.28848404522E+03  0.42205262522E+03  0.00000000000E+00 0. -1.
<mgrwt>
<rscale>  0 0.64369132E+03</rscale>
<asrwt>0</asrwt>
<pdfrwt beam="1">0</pdfrwt>
<pdfrwt beam="2">  1        2 0.37667217E+00 0.64369132E+03</pdfrwt>
<totfact> 0.48647820E+00</totfact>
</mgrwt>
</event>
<event>
 5    1  0.2369161E-004  0.6500144E+03  0.7818608E-02  0.9806752E-01
         13   -1    0    0    0    0  0.00000000000E+00  0.00000000000E+00  0.10000000000E+04  0.10000000000E+04  0.00000000000E+00 0. -1.
          2   -1    0    0  501    0 -0.00000000000E+00 -0.00000000000E+00 -0.10562966995E+03  0.10562966995E+03  0.00000000000E+00 0. -1.
    9000006    2    1    2  501    0  0.00000000000E+00  0.00000000000E+00  0.89437033005E+03  0.11056296699E+04  0.65001436890E+03 0.  0.
         13    1    3    3    0    0  0.79268821328E+02  0.28282714905E+03  0.21054824510E+03  0.36139356081E+03  0.00000000000E+00 0. -1.
          4    1    3    3  501    0 -0.79268821328E+02 -0.28282714905E+03  0.68382208495E+03  0.74423610914E+03  0.00000000000E+00 0. -1.
<mgrwt>
<rscale>  0 0.65001437E+03</rscale>
<asrwt>0</asrwt>
<pdfrwt beam="1">0</pdfrwt>
<pdfrwt beam="2">  1        2 0.38410870E+00 0.65001437E+03</pdfrwt>
<totfact> 0.45646114E+00</totfact>
</mgrwt>
</event>
<event>
 5    1  0.2369161E-004  0.6856168E+03  0.7818608E-02  0.9742150E-01
         13   -1    0    0    0    0  0.00000000000E+00  0.00000000000E+00  0.10000000000E+04  0.10000000000E+04  0.00000000000E+00 0. -1.
          2   -1    0    0  501    0 -0.00000000000E+00 -0.00000000000E+00 -0.11751761405E+03  0.11751761405E+03  0.00000000000E+00 0. -1.
    9000006    2    1    2  501    0  0.00000000000E+00  0.00000000000E+00  0.88248238595E+03  0.11175176141E+04  0.68561684359E+03 0.  0.
         13    1    3    3    0    0  0.13289232283E+03  0.14033096989E+03  0.90273283907E+03  0.92318997466E+03  0.00000000000E+00 0. -1.
          4    1    3    3  501    0 -0.13289232283E+03 -0.14033096989E+03 -0.20250453126E+02  0.19432763939E+03  0.00000000000E+00 0. -1.
<mgrwt>
<rscale>  0 0.68561684E+03</rscale>
<asrwt>0</asrwt>
<pdfrwt beam="1">0</pdfrwt>
<pdfrwt beam="2">  1        2 0.42733768E+00 0.68561684E+03</pdfrwt>
<totfact> 0.31265197E+00</totfact>
</mgrwt>
</event>
<event>
 5    1  0.2369161E-004  0.6435791E+03  0.7818608E-02  0.9818903E-01
         13   -1    0    0    0    0  0.00000000000E+00  0.00000000000E+00  0.10000000000E+04  0.10000000000E+04  0.00000000000E+00 0. -1.
          2   -1    0    0  501    0 -0.00000000000E+00 -0.00000000000E+00 -0.10354850128E+03  0.10354850128E+03  0.00000000000E+00 0. -1.
    9000006    2    1    2  501    0  0.00000000000E+00  0.00000000000E+00  0.89645149872E+03  0.11035485013E+04  0.64357905895E+03 0.  0.
         13    1    3    3    0    0 -0.79774596548E+02  0.94859459988E+02  0.95742743206E+03  0.96541679655E+03  0.00000000000E+00 0. -1.
          2    1    3    3  501    0  0.79774596548E+02 -0.94859459988E+02 -0.60975933340E+02  0.13813170472E+03  0.00000000000E+00 0. -1.
<mgrwt>
<rscale>  0 0.64357906E+03</rscale>
<asrwt>0</asrwt>
<pdfrwt beam="1">0</pdfrwt>
<pdfrwt beam="2">  1        2 0.37654080E+00 0.64357906E+03</pdfrwt>
<totfact> 0.48702427E+00</totfact>
</mgrwt>
</event>
<event>
 5    1  0.2369161E-004  0.6503296E+03  0.7818608E-02  0.9806161E-01
         13   -1    0    0    0    0  0.00000000000E+00  0.00000000000E+00  0.10000000000E+04  0.10000000000E+04  0.00000000000E+00 0. -1.
          2   -1    0    0  501    0 -0.00000000000E+00 -0.00000000000E+00 -0.10573214303E+03  0.10573214303E+03  0.00000000000E+00 0. -1.
    9000006    2    1    2  501    0  0.00000000000E+00  0.00000000000E+00  0.89426785697E+03  0.11057321430E+04  0.65032958729E+03 0.  0.
         13    1    3    3    0    0 -0.27608436953E+03  0.16929497395E+03  0.39759884532E+03  0.51280426002E+03  0.00000000000E+00 0. -1.
          2    1    3    3  501    0  0.27608436953E+03 -0.16929497395E+03  0.49666901166E+03  0.59292788300E+03  0.00000000000E+00 0. -1.
<mgrwt>
<rscale>  0 0.65032959E+03</rscale>
<asrwt>0</asrwt>
<pdfrwt beam="1">0</pdfrwt>
<pdfrwt beam="2">  1        2 0.38448133E+00 0.65032959E+03</pdfrwt>
<totfact> 0.45500232E+00</totfact>
</mgrwt>
</event>
<event>
 5    1  0.2369161E-004  0.6467970E+03  0.7818608E-02  0.9812808E-01
         13   -1    0    0    0    0  0.00000000000E+00  0.00000000000E+00  0.10000000000E+04  0.10000000000E+04  0.00000000000E+00 0. -1.
          2   -1    0    0  501    0 -0.00000000000E+00 -0.00000000000E+00 -0.10458659169E+03  0.10458659169E+03  0.00000000000E+00 0. -1.
    9000006    2    1    2  501    0  0.00000000000E+00  0.00000000000E+00  0.89541340831E+03  0.11045865917E+04  0.64679700585E+03 0.  0.
         13    1    3    3    0    0 -0.28883803403E+03  0.13210780621E+03  0.34373239773E+03  0.46800837985E+03  0.00000000000E+00 0. -1.
          4    1    3    3  501    0  0.28883803403E+03 -0.13210780621E+03  0.55168101058E+03  0.63657821184E+03  0.00000000000E+00 0. -1.
<mgrwt>
<rscale>  0 0.64679701E+03</rscale>
<asrwt>0</asrwt>
<pdfrwt beam="1">0</pdfrwt>
<pdfrwt beam="2">  1        2 0.38031568E+00 0.64679701E+03</pdfrwt>
<totfact> 0.47155407E+00</totfact>
</mgrwt>
</event>
<event>
 5    1  0.2369161E-004  0.6326468E+03  0.7818608E-02  0.9839897E-01
         13   -1    0    0    0    0  0.00000000000E+00  0.00000000000E+00  0.10000000000E+04  0.10000000000E+04  0.00000000000E+00 0. -1.
          2   -1    0    0  501    0 -0.00000000000E+00 -0.00000000000E+00 -0.10006050245E+03  0.10006050245E+03  0.00000000000E+00 0. -1.
    9000006    2    1    2  501    0  0.00000000000E+00  0.00000000000E+00  0.89993949755E+03  0.11000605024E+04  0.63264682864E+03 0.  0.
         13    1    3    3    0    0 -0.20836016856E+03 -0.23742071581E+03  0.47895891278E+03  0.57374575926E+03  0.00000000000E+00 0. -1.
          4    1    3    3  501    0  0.20836016856E+03  0.23742071581E+03  0.42098058478E+03  0.52631474319E+03  0.00000000000E+00 0. -1.
<mgrwt>
<rscale>  0 0.63264683E+03</rscale>
<asrwt>0</asrwt>
<pdfrwt beam="1">0</pdfrwt>
<pdfrwt beam="2">  1        2 0.36385714E+00 0.63264683E+03</pdfrwt>
<totfact> 0.54247139E+00</totfact>
</mgrwt>
</event>
<event>
 5    1  0.2369161E-004  0.6737217E+03  0.7818608E-02  0.9763258E-01
         13   -1    0    0    0    0  0.00000000000E+00  0.00000000000E+00  0.10000000000E+04  0.10000000000E+04  0.00000000000E+00 0. -1.
          2   -1    0    0  501    0 -0.00000000000E+00 -0.00000000000E+00 -0.11347524164E+03  0.11347524164E+03  0.00000000000E+00 0. -1.
    9000006    2    1    2  501    0  0.00000000000E+00  0.00000000000E+00  0.88652475836E+03  0.11134752416E+04  0.67372172784E+03 0.  0.
         13    1    3    3    0    0  0.12450456143E+02 -0.27071923767E+02  0.99781758674E+03  0.99826241005E+03  0.00000000000E+00 0. -1.
          2    1    3    3  501    0 -0.12450456143E+02  0.27071923767E+02 -0.11129282838E+03  0.11521283159E+03  0.00000000000E+00 0. -1.
<mgrwt>
<rscale>  0 0.67372173E+03</rscale>
<asrwt>0</asrwt>
<pdfrwt beam="1">0</pdfrwt>
<pdfrwt beam="2">  1        2 0.41263811E+00 0.67372173E+03</pdfrwt>
<totfact> 0.35619342E+00</totfact>
</mgrwt>
</event>
<event>
 5    1  0.2369161E-004  0.6315081E+03  0.7818608E-02  0.9842110E-01
         13   -1    0    0    0    0  0.00000000000E+00  0.00000000000E+00  0.10000000000E+04  0.10000000000E+04  0.00000000000E+00 0. -1.
          2   -1    0    0  501    0 -0.00000000000E+00 -0.00000000000E+00 -0.99700631688E+02  0.99700631688E+02  0.00000000000E+00 0. -1.
    9000006    2    1    2  501    0  0.00000000000E+00  0.00000000000E+00  0.90029936831E+03  0.10997006317E+04  0.63150813673E+03 0.  0.
         13    1    3    3    0    0  0.51135146015E+02 -0.30192191624E+03  0.58423638355E+03  0.65962398268E+03  0.00000000000E+00 0. -1.
          4    1    3    3  501    0 -0.51135146015E+02  0.30192191624E+03  0.31606298477E+03  0.44007664901E+03  0.00000000000E+00 0. -1.
<mgrwt>
<rscale>  0 0.63150814E+03</rscale>
<asrwt>0</asrwt>
<pdfrwt beam="1">0</pdfrwt>
<pdfrwt beam="2">  1        2 0.36254852E+00 0.63150814E+03</pdfrwt>
<totfact> 0.54851020E+00</totfact>
</mgrwt>
</event>
<event>
 5    1  0.2369161E-004  0.6514862E+03  0.7818608E-02  0.9803994E-01
         13   -1    0    0    0    0  0.00000000000E+00  0.00000000000E+00  0.10000000000E+04  0.10000000000E+04  0.00000000000E+00 0. -1.
          2   -1    0    0  501    0 -0.00000000000E+00 -0.00000000000E+00 -0.10610855905E+03  0.10610855905E+03  0.00000000000E+00 0. -1.
    9000006    2    1    2  501    0  0.00000000000E+00  0.00000000000E+00  0.89389144095E+03  0.11061085590E+04  0.65148617498E+03 0.  0.
         13    1    3    3    0    0 -0.25027073239E+03 -0.82494665850E+02  0.77205897655E+03  0.81579156202E+03  0.00000000000E+00 0. -1.
          4    1    3    3  501    0  0.25027073239E+03  0.82494665850E+02  0.12183246440E+03  0.29031699703E+03  0.00000000000E+00 0. -1.
<mgrwt>
<rscale>  0 0.65148617E+03</rscale>
<asrwt>0</asrwt>
<pdfrwt beam="1">0</pdfrwt>
<pdfrwt beam="2">  1        2 0.38585012E+00 0.65148617E+03</pdfrwt>
<totfact> 0.44967983E+00</totfact>
</mgrwt>
</event>
<event>
 5    1  0.2369161E-004  0.6462221E+03  0.7818608E-02  0.9813894E-01
         13   -1    0    0    0    0  0.00000000000E+00  0.00000000000E+00  0.10000000000E+04  0.10000000000E+04  0.00000000000E+00 0. -1.
          2   -1    0    0  501    0 -0.00000000000E+00 -0.00000000000E+00 -0.10440074346E+03  0.10440074346E+03  0.00000000000E+00 0. -1.
    9000006    2    1    2  501    0  0.00000000000E+00  0.00000000000E+00  0.89559925654E+03  0.11044007435E+04  0.64622207781E+03 0.  0.
         13    1    3    3    0    0  0.22086469791E+03  0.67785973784E+02  0.61757534281E+02  0.23914461329E+03  0.00000000000E+00 0. -1.
          4    1    3    3  501    0 -0.22086469791E+03 -0.67785973784E+02  0.83384172226E+03  0.86525613017E+03  0.00000000000E+00 0. -1.
<mgrwt>
<rscale>  0 0.64622208E+03</rscale>
<asrwt>0</asrwt>
<pdfrwt beam="1">0</pdfrwt>
<pdfrwt beam="2">  1        2 0.37963987E+00 0.64622208E+03</pdfrwt>
<totfact> 0.47429035E+00</totfact>
</mgrwt>
</event>
<event>
 5    1  0.2369161E-004  0.6496542E+03  0.7818608E-02  0.9807428E-01
         13   -1    0    0    0    0  0.00000000000E+00  0.00000000000E+00  0.10000000000E+04  0.10000000000E+04  0.00000000000E+00 0. -1.
          2   -1    0    0  501    0 -0.00000000000E+00 -0.00000000000E+00 -0.10551263602E+03  0.10551263602E+03  0.00000000000E+00 0. -1.
    9000006    2    1    2  501    0  0.00000000000E+00  0.00000000000E+00  0.89448736398E+03  0.11055126360E+04  0.64965417268E+03 0.  0.
         13    1    3    3    0    0  0.20912454894E+03  0.26871592133E+02  0.26758297882E+02  0.21253509342E+03  0.00000000000E+00 0. -1.
          4    1    3    3  501    0 -0.20912454894E+03 -0.26871592133E+02  0.86772906610E+03  0.89297754260E+03  0.00000000000E+00 0. -1.
<mgrwt>
<rscale>  0 0.64965417E+03</rscale>
<asrwt>0</asrwt>
<pdfrwt beam="1">0</pdfrwt>
<pdfrwt beam="2">  1        2 0.38368312E+00 0.64965417E+03</pdfrwt>
<totfact> 0.45813244E+00</totfact>
</mgrwt>
</event>
<event>
 5    1  0.2369161E-004  0.6488927E+03  0.7818608E-02  0.9808859E-01
         13   -1    0    0    0    0  0.00000000000E+00  0.00000000000E+00  0.10000000000E+04  0.10000000000E+04  0.00000000000E+00 0. -1.
          2   -1    0    0  501    0 -0.00000000000E+00 -0.00000000000E+00 -0.10526542464E+03  0.10526542464E+03  0.00000000000E+00 0. -1.
    9000006    2    1    2  501    0  0.00000000000E+00  0.00000000000E+00  0.89473457536E+03  0.11052654246E+04  0.64889267108E+03 0.  0.
         13    1    3    3    0    0  0.15584041349E+03 -0.28293030641E+03  0.39543359303E+03  0.51059134272E+03  0.00000000000E+00 0. -1.
          4    1    3    3  501    0 -0.15584041349E+03  0.28293030641E+03  0.49930098233E+03  0.59467408193E+03  0.00000000000E+00 0. -1.
<mgrwt>
<rscale>  0 0.64889267E+03</rscale>
<asrwt>0</asrwt>
<pdfrwt beam="1">0</pdfrwt>
<pdfrwt beam="2">  1        2 0.38278417E+00 0.64889267E+03</pdfrwt>
<totfact> 0.46168101E+00</totfact>
</mgrwt>
</event>
<event>
 5    1  0.2369161E-004  0.6467001E+03  0.7818608E-02  0.9812991E-01
         13   -1    0    0    0    0  0.00000000000E+00  0.00000000000E+00  0.10000000000E+04  0.10000000000E+04  0.00000000000E+00 0. -1.
          2   -1    0    0  501    0 -0.00000000000E+00 -0.00000000000E+00 -0.10455527026E+03  0.10455527026E+03  0.00000000000E+00 0. -1.
    9000006    2    1    2  501    0  0.00000000000E+00  0.00000000000E+00  0.89544472974E+03  0.11045552703E+04  0.64670014770E+03 0.  0.
         13    1    3    3    0    0  0.92376176702E+02  0.15608969412E+03  0.90493327994E+03  0.92293097888E+03  0.00000000000E+00 0. -1.
          2    1    3    3  501    0 -0.92376176702E+02 -0.15608969412E+03 -0.94885501997E+01  0.18162429138E+03  0.00000000000E+00 0. -1.
<mgrwt>
<rscale>  0 0.64670015E+03</rscale>
<asrwt>0</asrwt>
<pdfrwt beam="1">0</pdfrwt>
<pdfrwt beam="2">  1        2 0.38020178E+00 0.64670015E+03</pdfrwt>
<totfact> 0.47201421E+00</totfact>
</mgrwt>
</event>
<event>
 5    1  0.2369161E-004  0.6699542E+03  0.7818608E-02  0.9770040E-01
         13   -1    0    0    0    0  0.00000000000E+00  0.00000000000E+00  0.10000000000E+04  0.10000000000E+04  0.00000000000E+00 0. -1.
          2   -1    0    0  501    0 -0.00000000000E+00 -0.00000000000E+00 -0.11220967280E+03  0.11220967280E+03  0.00000000000E+00 0. -1.
    9000006    2    1    2  501    0  0.00000000000E+00  0.00000000000E+00  0.88779032720E+03  0.11122096728E+04  0.66995424561E+03 0.  0.
         13    1    3    3    0    0 -0.28438008965E+03 -0.10784519240E+03  0.67694690596E+03  0.74213188477E+03  0.00000000000E+00 0. -1.
          4    1    3    3  501    0  0.28438008965E+03  0.10784519240E+03  0.21084342124E+03  0.37007778803E+03  0.00000000000E+00 0. -1.
<mgrwt>
<rscale>  0 0.66995425E+03</rscale>
<asrwt>0</asrwt>
<pdfrwt beam="1">0</pdfrwt>
<pdfrwt beam="2">  1        2 0.40803603E+00 0.66995425E+03</pdfrwt>
<totfact> 0.37089276E+00</totfact>
</mgrwt>
</event>
<event>
 5    1  0.2369161E-004  0.6553450E+03  0.7818608E-02  0.9796801E-01
         13   -1    0    0    0    0  0.00000000000E+00  0.00000000000E+00  0.10000000000E+04  0.10000000000E+04  0.00000000000E+00 0. -1.
          2   -1    0    0  501    0 -0.00000000000E+00 -0.00000000000E+00 -0.10736926929E+03  0.10736926929E+03  0.00000000000E+00 0. -1.
    9000006    2    1    2  501    0  0.00000000000E+00  0.00000000000E+00  0.89263073071E+03  0.11073692693E+04  0.65534500622E+03 0.  0.
         13    1    3    3    0    0 -0.27203692007E+03  0.17772666604E+03  0.37505646744E+03  0.49624410069E+03  0.00000000000E+00 0. -1.
          2    1    3    3  501    0  0.27203692007E+03 -0.17772666604E+03  0.51757426327E+03  0.61112516860E+03  0.00000000000E+00 0. -1.
<mgrwt>
<rscale>  0 0.65534501E+03</rscale>
<asrwt>0</asrwt>
<pdfrwt beam="1">0</pdfrwt>
<pdfrwt beam="2">  1        2 0.39043453E+00 0.65534501E+03</pdfrwt>
<totfact> 0.43226153E+00</totfact>
</mgrwt>
</event>
<event>
 5    1  0.2369161E-004  0.6555848E+03  0.7818608E-02  0.9796356E-01
         13   -1    0    0    0    0  0.00000000000E+00  0.00000000000E+00  0.10000000000E+04  0.10000000000E+04  0.00000000000E+00 0. -1.
          2   -1    0    0  501    0 -0.00000000000E+00 -0.00000000000E+00 -0.10744787160E+03  0.10744787160E+03  0.00000000000E+00 0. -1.
    9000006    2    1    2  501    0  0.00000000000E+00  0.00000000000E+00  0.89255212840E+03  0.11074478716E+04  0.65558484302E+03 0.  0.
         13    1    3    3    0    0  0.32311665443E+03  0.43732197287E+02  0.50308603531E+03  0.59951016369E+03  0.00000000000E+00 0. -1.
          2    1    3    3  501    0 -0.32311665443E+03 -0.43732197287E+02  0.38946609309E+03  0.50793770791E+03  0.00000000000E+00 0. -1.
<mgrwt>
<rscale>  0 0.65558484E+03</rscale>
<asrwt>0</asrwt>
<pdfrwt beam="1">0</pdfrwt>
<pdfrwt beam="2">  1        2 0.39072036E+00 0.65558484E+03</pdfrwt>
<totfact> 0.43119602E+00</totfact>
</mgrwt>
</event>
<event>
 5    1  0.2369161E-004  0.6397340E+03  0.7818608E-02  0.9826236E-01
         13   -1    0    0    0    0  0.00000000000E+00  0.00000000000E+00  0.10000000000E+04  0.10000000000E+04  0.00000000000E+00 0. -1.
          2   -1    0    0  501    0 -0.00000000000E+00 -0.00000000000E+00 -0.10231490650E+03  0.10231490650E+03  0.00000000000E+00 0. -1.
    9000006    2    1    2  501    0  0.00000000000E+00  0.00000000000E+00  0.89768509350E+03  0.11023149065E+04  0.63973402754E+03 0.  0.
         13    1    3    3    0    0  0.39410473325E+02 -0.65268683202E+02 -0.86428504199E+02  0.11525221366E+03  0.00000000000E+00 0. -1.
          2    1    3    3  501    0 -0.39410473325E+02  0.65268683202E+02  0.98411359770E+03  0.98706269284E+03  0.00000000000E+00 0. -1.
<mgrwt>
<rscale>  0 0.63973403E+03</rscale>
<asrwt>0</asrwt>
<pdfrwt beam="1">0</pdfrwt>
<pdfrwt beam="2">  1        2 0.37205499E+00 0.63973403E+03</pdfrwt>
<totfact> 0.50601082E+00</totfact>
</mgrwt>
</event>
<event>
 5    1  0.2369161E-004  0.6983436E+03  0.7818608E-02  0.9720069E-01
         13   -1    0    0    0    0  0.00000000000E+00  0.00000000000E+00  0.10000000000E+04  0.10000000000E+04  0.00000000000E+00 0. -1.
          2   -1    0    0  501    0 -0.00000000000E+00 -0.00000000000E+00 -0.12192094919E+03  0.12192094919E+03  0.00000000000E+00 0. -1.
    9000006    2    1    2  501    0  0.00000000000E+00  0.00000000000E+00  0.87807905081E+03  0.11219209492E+04  0.69834360938E+03 0.  0.
         13    1    3    3    0    0  0.32275633171E+02 -0.25980767915E+03  0.67864168334E+02  0.27045756041E+03  0.00000000000E+00 0. -1.
          2    1    3    3  501    0 -0.32275633171E+02  0.25980767915E+03  0.81021488248E+03  0.85146338878E+03  0.00000000000E+00 0. -1.
<mgrwt>
<rscale>  0 0.69834361E+03</rscale>
<asrwt>0</asrwt>
<pdfrwt beam="1">0</pdfrwt>
<pdfrwt beam="2">  1        2 0.44334984E+00 0.69834361E+03</pdfrwt>
<totfact> 0.27063765E+00</totfact>
</mgrwt>
</event>
<event>
 5    1  0.2369161E-004  0.6488913E+03  0.7818608E-02  0.9808862E-01
         13   -1    0    0    0    0  0.00000000000E+00  0.00000000000E+00  0.10000000000E+04  0.10000000000E+04  0.00000000000E+00 0. -1.
          2   -1    0    0  501    0 -0.00000000000E+00 -0.00000000000E+00 -0.10526498106E+03  0.10526498106E+03  0.00000000000E+00 0. -1.
    9000006    2    1    2  501    0  0.00000000000E+00  0.00000000000E+00  0.89473501894E+03  0.11052649811E+04  0.64889130388E+03 0.  0.
         13    1    3    3    0    0  0.30194611442E+03 -0.11246002836E+03  0.51214419247E+03  0.60507056438E+03  0.00000000000E+00 0. -1.
          4    1    3    3  501    0 -0.30194611442E+03  0.11246002836E+03  0.38259082646E+03  0.50019441669E+03  0.00000000000E+00 0. -1.
<mgrwt>
<rscale>  0 0.64889130E+03</rscale>
<asrwt>0</asrwt>
<pdfrwt beam="1">0</pdfrwt>
<pdfrwt beam="2">  1        2 0.38278256E+00 0.64889130E+03</pdfrwt>
<totfact> 0.46168740E+00</totfact>
</mgrwt>
</event>
<event>
 5    1  0.2369161E-004  0.6594613E+03  0.7818608E-02  0.9789186E-01
         13   -1    0    0    0    0  0.00000000000E+00  0.00000000000E+00  0.10000000000E+04  0.10000000000E+04  0.00000000000E+00 0. -1.
          2   -1    0    0  501    0 -0.00000000000E+00 -0.00000000000E+00 -0.10872229103E+03  0.10872229103E+03  0.00000000000E+00 0. -1.
    9000006    2    1    2  501    0  0.00000000000E+00  0.00000000000E+00  0.89127770897E+03  0.11087222910E+04  0.65946126811E+03 0.  0.
         13    1    3    3    0    0  0.26690176050E+03  0.19292945355E+03  0.47295431284E+03  0.57631944773E+03  0.00000000000E+00 0. -1.
          4    1    3    3  501    0 -0.26690176050E+03 -0.19292945355E+03  0.41832339613E+03  0.53240284330E+03  0.00000000000E+00 0. -1.
<mgrwt>
<rscale>  0 0.65946127E+03</rscale>
<asrwt>0</asrwt>
<pdfrwt beam="1">0</pdfrwt>
<pdfrwt beam="2">  1        2 0.39535462E+00 0.65946127E+03</pdfrwt>
<totfact> 0.41424846E+00</totfact>
</mgrwt>
</event>
<event>
 5    1  0.2369161E-004  0.6237236E+03  0.7818608E-02  0.9857374E-01
         13   -1    0    0    0    0  0.00000000000E+00  0.00000000000E+00  0.10000000000E+04  0.10000000000E+04  0.00000000000E+00 0. -1.
          2   -1    0    0  501    0 -0.00000000000E+00 -0.00000000000E+00 -0.97257780765E+02  0.97257780765E+02  0.00000000000E+00 0. -1.
    9000006    2    1    2  501    0  0.00000000000E+00  0.00000000000E+00  0.90274221924E+03  0.10972577808E+04  0.62372359508E+03 0.  0.
         13    1    3    3    0    0 -0.68627486899E+02 -0.92106502376E+00 -0.83806750403E+02  0.10832428967E+03  0.00000000000E+00 0. -1.
          4    1    3    3  501    0  0.68627486899E+02  0.92106502376E+00  0.98654896964E+03  0.98893349110E+03  0.00000000000E+00 0. -1.
<mgrwt>
<rscale>  0 0.62372360E+03</rscale>
<asrwt>0</asrwt>
<pdfrwt beam="1">0</pdfrwt>
<pdfrwt beam="2">  1        2 0.35366540E+00 0.62372360E+03</pdfrwt>
<totfact> 0.59117443E+00</totfact>
</mgrwt>
</event>
<event>
 5    1  0.2369161E-004  0.6533991E+03  0.7818608E-02  0.9800422E-01
         13   -1    0    0    0    0  0.00000000000E+00  0.00000000000E+00  0.10000000000E+04  0.10000000000E+04  0.00000000000E+00 0. -1.
          2   -1    0    0  501    0 -0.00000000000E+00 -0.00000000000E+00 -0.10673259794E+03  0.10673259794E+03  0.00000000000E+00 0. -1.
    9000006    2    1    2  501    0  0.00000000000E+00  0.00000000000E+00  0.89326740206E+03  0.11067325979E+04  0.65339910603E+03 0.  0.
         13    1    3    3    0    0 -0.57942521092E+01 -0.12527501373E+03 -0.64338483675E+02  0.14094978860E+03  0.00000000000E+00 0. -1.
          4    1    3    3  501    0  0.57942521092E+01  0.12527501373E+03  0.95760588574E+03  0.96578280934E+03  0.00000000000E+00 0. -1.
<mgrwt>
<rscale>  0 0.65339911E+03</rscale>
<asrwt>0</asrwt>
<pdfrwt beam="1">0</pdfrwt>
<pdfrwt beam="2">  1        2 0.38811936E+00 0.65339911E+03</pdfrwt>
<totfact> 0.44098012E+00</totfact>
</mgrwt>
</event>
<event>
 5    1  0.2369161E-004  0.6338539E+03  0.7818608E-02  0.9837557E-01
         13   -1    0    0    0    0  0.00000000000E+00  0.00000000000E+00  0.10000000000E+04  0.10000000000E+04  0.00000000000E+00 0. -1.
          2   -1    0    0  501    0 -0.00000000000E+00 -0.00000000000E+00 -0.10044270025E+03  0.10044270025E+03  0.00000000000E+00 0. -1.
    9000006    2    1    2  501    0  0.00000000000E+00  0.00000000000E+00  0.89955729975E+03  0.11004427002E+04  0.63385392717E+03 0.  0.
         13    1    3    3    0    0  0.26021928908E+03  0.63104741308E+02  0.15542455466E+03  0.30960148413E+03  0.00000000000E+00 0. -1.
          2    1    3    3  501    0 -0.26021928908E+03 -0.63104741308E+02  0.74413274510E+03  0.79084121612E+03  0.00000000000E+00 0. -1.
<mgrwt>
<rscale>  0 0.63385393E+03</rscale>
<asrwt>0</asrwt>
<pdfrwt beam="1">0</pdfrwt>
<pdfrwt beam="2">  1        2 0.36524695E+00 0.63385393E+03</pdfrwt>
<totfact> 0.53612500E+00</totfact>
</mgrwt>
</event>
<event>
 5    1  0.2369161E-004  0.4972226E+03  0.7818608E-02  0.1014506E+00
         13   -1    0    0    0    0  0.00000000000E+00  0.00000000000E+00  0.10000000000E+04  0.10000000000E+04  0.00000000000E+00 0. -1.
          2   -1    0    0  501    0 -0.00000000000E+00 -0.00000000000E+00 -0.61807569604E+02  0.61807569604E+02  0.00000000000E+00 0. -1.
    9000006    2    1    2  501    0  0.00000000000E+00  0.00000000000E+00  0.93819243040E+03  0.10618075696E+04  0.49722256426E+03 0.  0.
         13    1    3    3    0    0 -0.12085306517E+03 -0.21465422944E+03  0.39744886169E+03  0.46759758258E+03  0.00000000000E+00 0. -1.
          2    1    3    3  501    0  0.12085306517E+03  0.21465422944E+03  0.54074356871E+03  0.59420998702E+03  0.00000000000E+00 0. -1.
<mgrwt>
<rscale>  0 0.49722256E+03</rscale>
<asrwt>0</asrwt>
<pdfrwt beam="1">0</pdfrwt>
<pdfrwt beam="2">  1        2 0.22475527E+00 0.49722256E+03</pdfrwt>
<totfact> 0.17205426E+01</totfact>
</mgrwt>
</event>
<event>
 5    1  0.2369161E-004  0.6394171E+03  0.7818608E-02  0.9826842E-01
         13   -1    0    0    0    0  0.00000000000E+00  0.00000000000E+00  0.10000000000E+04  0.10000000000E+04  0.00000000000E+00 0. -1.
          2   -1    0    0  501    0 -0.00000000000E+00 -0.00000000000E+00 -0.10221355691E+03  0.10221355691E+03  0.00000000000E+00 0. -1.
    9000006    2    1    2  501    0  0.00000000000E+00  0.00000000000E+00  0.89778644309E+03  0.11022135569E+04  0.63941709990E+03 0.  0.
         13    1    3    3    0    0  0.24963814228E+03  0.11722516889E+03  0.72765874368E+03  0.77816976911E+03  0.00000000000E+00 0. -1.
          2    1    3    3  501    0 -0.24963814228E+03 -0.11722516889E+03  0.17012769941E+03  0.32404378780E+03  0.00000000000E+00 0. -1.
<mgrwt>
<rscale>  0 0.63941710E+03</rscale>
<asrwt>0</asrwt>
<pdfrwt beam="1">0</pdfrwt>
<pdfrwt beam="2">  1        2 0.37168645E+00 0.63941710E+03</pdfrwt>
<totfact> 0.50760044E+00</totfact>
</mgrwt>
</event>
<event>
 5    1  0.2369161E-004  0.5542991E+03  0.7818608E-02  0.1000504E+00
         13   -1    0    0    0    0  0.00000000000E+00  0.00000000000E+00  0.10000000000E+04  0.10000000000E+04  0.00000000000E+00 0. -1.
          2   -1    0    0  501    0 -0.00000000000E+00 -0.00000000000E+00 -0.76811863981E+02  0.76811863981E+02  0.00000000000E+00 0. -1.
    9000006    2    1    2  501    0  0.00000000000E+00  0.00000000000E+00  0.92318813602E+03  0.10768118640E+04  0.55429906722E+03 0.  0.
         13    1    3    3    0    0 -0.13436833802E+03  0.23545589116E+03  0.34970089897E+03  0.44247603967E+03  0.00000000000E+00 0. -1.
          4    1    3    3  501    0  0.13436833802E+03 -0.23545589116E+03  0.57348723705E+03  0.63433582431E+03  0.00000000000E+00 0. -1.
<mgrwt>
<rscale>  0 0.55429907E+03</rscale>
<asrwt>0</asrwt>
<pdfrwt beam="1">0</pdfrwt>
<pdfrwt beam="2">  1        2 0.27931646E+00 0.55429907E+03</pdfrwt>
<totfact> 0.10946018E+01</totfact>
</mgrwt>
</event>
<event>
 5    1  0.2369161E-004  0.6586767E+03  0.7818608E-02  0.9790633E-01
         13   -1    0    0    0    0  0.00000000000E+00  0.00000000000E+00  0.10000000000E+04  0.10000000000E+04  0.00000000000E+00 0. -1.
          2   -1    0    0  501    0 -0.00000000000E+00 -0.00000000000E+00 -0.10846376231E+03  0.10846376231E+03  0.00000000000E+00 0. -1.
    9000006    2    1    2  501    0  0.00000000000E+00  0.00000000000E+00  0.89153623769E+03  0.11084637623E+04  0.65867674109E+03 0.  0.
         13    1    3    3    0    0 -0.15761658114E+03 -0.25816002149E+03  0.22651612063E+03  0.37788772969E+03  0.00000000000E+00 0. -1.
          4    1    3    3  501    0  0.15761658114E+03  0.25816002149E+03  0.66502011706E+03  0.73057603262E+03  0.00000000000E+00 0. -1.
<mgrwt>
<rscale>  0 0.65867674E+03</rscale>
<asrwt>0</asrwt>
<pdfrwt beam="1">0</pdfrwt>
<pdfrwt beam="2">  1        2 0.39441451E+00 0.65867674E+03</pdfrwt>
<totfact> 0.41763686E+00</totfact>
</mgrwt>
</event>
<event>
 5    1  0.2369161E-004  0.6490008E+03  0.7818608E-02  0.9808656E-01
         13   -1    0    0    0    0  0.00000000000E+00  0.00000000000E+00  0.10000000000E+04  0.10000000000E+04  0.00000000000E+00 0. -1.
          2   -1    0    0  501    0 -0.00000000000E+00 -0.00000000000E+00 -0.10530052062E+03  0.10530052062E+03  0.00000000000E+00 0. -1.
    9000006    2    1    2  501    0  0.00000000000E+00  0.00000000000E+00  0.89469947938E+03  0.11053005206E+04  0.64900083395E+03 0.  0.
         13    1    3    3    0    0  0.15977758015E+03 -0.74786359373E+02 -0.16497066349E+02  0.17718359931E+03  0.00000000000E+00 0. -1.
          2    1    3    3  501    0 -0.15977758015E+03  0.74786359373E+02  0.91119654573E+03  0.92811692131E+03  0.00000000000E+00 0. -1.
<mgrwt>
<rscale>  0 0.64900083E+03</rscale>
<asrwt>0</asrwt>
<pdfrwt beam="1">0</pdfrwt>
<pdfrwt beam="2">  1        2 0.38291179E+00 0.64900083E+03</pdfrwt>
<totfact> 0.46117572E+00</totfact>
</mgrwt>
</event>
<event>
 5    1  0.2369161E-004  0.6512394E+03  0.7818608E-02  0.9804456E-01
         13   -1    0    0    0    0  0.00000000000E+00  0.00000000000E+00  0.10000000000E+04  0.10000000000E+04  0.00000000000E+00 0. -1.
          2   -1    0    0  501    0 -0.00000000000E+00 -0.00000000000E+00 -0.10602818921E+03  0.10602818921E+03  0.00000000000E+00 0. -1.
    9000006    2    1    2  501    0  0.00000000000E+00  0.00000000000E+00  0.89397181079E+03  0.11060281892E+04  0.65123940056E+03 0.  0.
         13    1    3    3    0    0 -0.13547414924E+03  0.28643936212E+03  0.57438924360E+03  0.65599066796E+03  0.00000000000E+00 0. -1.
          4    1    3    3  501    0  0.13547414924E+03 -0.28643936212E+03  0.31958256718E+03  0.45003752125E+03  0.00000000000E+00 0. -1.
<mgrwt>
<rscale>  0 0.65123940E+03</rscale>
<asrwt>0</asrwt>
<pdfrwt beam="1">0</pdfrwt>
<pdfrwt beam="2">  1        2 0.38555786E+00 0.65123940E+03</pdfrwt>
<totfact> 0.45081149E+00</totfact>
</mgrwt>
</event>
<event>
 5    1  0.2369161E-004  0.6476550E+03  0.7818608E-02  0.9811189E-01
         13   -1    0    0    0    0  0.00000000000E+00  0.00000000000E+00  0.10000000000E+04  0.10000000000E+04  0.00000000000E+00 0. -1.
          2   -1    0    0  501    0 -0.00000000000E+00 -0.00000000000E+00 -0.10486425760E+03  0.10486425760E+03  0.00000000000E+00 0. -1.
    9000006    2    1    2  501    0  0.00000000000E+00  0.00000000000E+00  0.89513574240E+03  0.11048642576E+04  0.64765502422E+03 0.  0.
         13    1    3    3    0    0  0.26205131571E+03  0.17597588443E+03  0.57089079318E+03  0.65234553858E+03  0.00000000000E+00 0. -1.
          2    1    3    3  501    0 -0.26205131571E+03 -0.17597588443E+03  0.32424494922E+03  0.45251871902E+03  0.00000000000E+00 0. -1.
<mgrwt>
<rscale>  0 0.64765502E+03</rscale>
<asrwt>0</asrwt>
<pdfrwt beam="1">0</pdfrwt>
<pdfrwt beam="2">  1        2 0.38132538E+00 0.64765502E+03</pdfrwt>
<totfact> 0.46749269E+00</totfact>
</mgrwt>
</event>
<event>
 5    1  0.2369161E-004  0.6444257E+03  0.7818608E-02  0.9817295E-01
         13   -1    0    0    0    0  0.00000000000E+00  0.00000000000E+00  0.10000000000E+04  0.10000000000E+04  0.00000000000E+00 0. -1.
          2   -1    0    0  501    0 -0.00000000000E+00 -0.00000000000E+00 -0.10382113350E+03  0.10382113350E+03  0.00000000000E+00 0. -1.
    9000006    2    1    2  501    0  0.00000000000E+00  0.00000000000E+00  0.89617886650E+03  0.11038211335E+04  0.64442573971E+03 0.  0.
         13    1    3    3    0    0  0.16761018497E+03  0.20081885750E+03  0.12581496677E+03  0.29025987236E+03  0.00000000000E+00 0. -1.
          4    1    3    3  501    0 -0.16761018497E+03 -0.20081885750E+03  0.77036389972E+03  0.81356126114E+03  0.00000000000E+00 0. -1.
<mgrwt>
<rscale>  0 0.64442574E+03</rscale>
<asrwt>0</asrwt>
<pdfrwt beam="1">0</pdfrwt>
<pdfrwt beam="2">  1        2 0.37753219E+00 0.64442574E+03</pdfrwt>
<totfact> 0.48291719E+00</totfact>
</mgrwt>
</event>
<event>
 5    1  0.2369161E-004  0.6510169E+03  0.7818608E-02  0.9804873E-01
         13   -1    0    0    0    0  0.00000000000E+00  0.00000000000E+00  0.10000000000E+04  0.10000000000E+04  0.00000000000E+00 0. -1.
          2   -1    0    0  501    0 -0.00000000000E+00 -0.00000000000E+00 -0.10595573528E+03  0.10595573528E+03  0.00000000000E+00 0. -1.
    9000006    2    1    2  501    0  0.00000000000E+00  0.00000000000E+00  0.89404426472E+03  0.11059557353E+04  0.65101685165E+03 0.  0.
         13    1    3    3    0    0 -0.31293454584E+02 -0.65154665821E+02  0.98619469890E+03  0.98883992381E+03  0.00000000000E+00 0. -1.
          4    1    3    3  501    0  0.31293454584E+02  0.65154665821E+02 -0.92150434182E+02  0.11711581148E+03  0.00000000000E+00 0. -1.
<mgrwt>
<rscale>  0 0.65101685E+03</rscale>
<asrwt>0</asrwt>
<pdfrwt beam="1">0</pdfrwt>
<pdfrwt beam="2">  1        2 0.38529440E+00 0.65101685E+03</pdfrwt>
<totfact> 0.45183390E+00</totfact>
</mgrwt>
</event>
<event>
 5    1  0.2369161E-004  0.7106213E+03  0.7818608E-02  0.9699239E-01
         13   -1    0    0    0    0  0.00000000000E+00  0.00000000000E+00  0.10000000000E+04  0.10000000000E+04  0.00000000000E+00 0. -1.
          2   -1    0    0  501    0 -0.00000000000E+00 -0.00000000000E+00 -0.12624565619E+03  0.12624565619E+03  0.00000000000E+00 0. -1.
    9000006    2    1    2  501    0  0.00000000000E+00  0.00000000000E+00  0.87375434381E+03  0.11262456562E+04  0.71062129490E+03 0.  0.
         13    1    3    3    0    0  0.34254228954E+03 -0.54787526500E+01  0.28752496366E+03  0.44725366581E+03  0.00000000000E+00 0. -1.
          2    1    3    3  501    0 -0.34254228954E+03  0.54787526500E+01  0.58622938015E+03  0.67899199038E+03  0.00000000000E+00 0. -1.
<mgrwt>
<rscale>  0 0.71062129E+03</rscale>
<asrwt>0</asrwt>
<pdfrwt beam="1">0</pdfrwt>
<pdfrwt beam="2">  1        2 0.45907608E+00 0.71062129E+03</pdfrwt>
<totfact> 0.23427630E+00</totfact>
</mgrwt>
</event>
<event>
 5    1  0.2369161E-004  0.6575906E+03  0.7818608E-02  0.9792639E-01
         13   -1    0    0    0    0  0.00000000000E+00  0.00000000000E+00  0.10000000000E+04  0.10000000000E+04  0.00000000000E+00 0. -1.
          2   -1    0    0  501    0 -0.00000000000E+00 -0.00000000000E+00 -0.10810636039E+03  0.10810636039E+03  0.00000000000E+00 0. -1.
    9000006    2    1    2  501    0  0.00000000000E+00  0.00000000000E+00  0.89189363961E+03  0.11081063604E+04  0.65759063372E+03 0.  0.
         13    1    3    3    0    0  0.23678676604E+03 -0.16606695465E+03  0.18240142857E+03  0.34193052971E+03  0.00000000000E+00 0. -1.
          4    1    3    3  501    0 -0.23678676604E+03  0.16606695465E+03  0.70949221104E+03  0.76617583068E+03  0.00000000000E+00 0. -1.
<mgrwt>
<rscale>  0 0.65759063E+03</rscale>
<asrwt>0</asrwt>
<pdfrwt beam="1">0</pdfrwt>
<pdfrwt beam="2">  1        2 0.39311487E+00 0.65759063E+03</pdfrwt>
<totfact> 0.42236251E+00</totfact>
</mgrwt>
</event>
<event>
 5    1  0.2369161E-004  0.6501499E+03  0.7818608E-02  0.9806498E-01
         13   -1    0    0    0    0  0.00000000000E+00  0.00000000000E+00  0.10000000000E+04  0.10000000000E+04  0.00000000000E+00 0. -1.
          2   -1    0    0  501    0 -0.00000000000E+00 -0.00000000000E+00 -0.10567372721E+03  0.10567372721E+03  0.00000000000E+00 0. -1.
    9000006    2    1    2  501    0  0.00000000000E+00  0.00000000000E+00  0.89432627279E+03  0.11056737272E+04  0.65014991260E+03 0.  0.
         13    1    3    3    0    0  0.99448306935E+02  0.20834006001E+03  0.83637734578E+03  0.86765350854E+03  0.00000000000E+00 0. -1.
          2    1    3    3  501    0 -0.99448306935E+02 -0.20834006001E+03  0.57948927010E+02  0.23802021867E+03  0.00000000000E+00 0. -1.
<mgrwt>
<rscale>  0 0.65014991E+03</rscale>
<asrwt>0</asrwt>
<pdfrwt beam="1">0</pdfrwt>
<pdfrwt beam="2">  1        2 0.38426891E+00 0.65014991E+03</pdfrwt>
<totfact> 0.45583342E+00</totfact>
</mgrwt>
</event>
<event>
 5    1  0.2369161E-004  0.6545082E+03  0.7818608E-02  0.9798356E-01
         13   -1    0    0    0    0  0.00000000000E+00  0.00000000000E+00  0.10000000000E+04  0.10000000000E+04  0.00000000000E+00 0. -1.
          2   -1    0    0  501    0 -0.00000000000E+00 -0.00000000000E+00 -0.10709524168E+03  0.10709524168E+03  0.00000000000E+00 0. -1.
    9000006    2    1    2  501    0  0.00000000000E+00  0.00000000000E+00  0.89290475832E+03  0.11070952417E+04  0.65450818689E+03 0.  0.
         13    1    3    3    0    0 -0.27600387059E+03 -0.45034114852E+02  0.15895333322E+03  0.32167121448E+03  0.00000000000E+00 0. -1.
          2    1    3    3  501    0  0.27600387059E+03  0.45034114852E+02  0.73395142510E+03  0.78542402719E+03  0.00000000000E+00 0. -1.
<mgrwt>
<rscale>  0 0.65450819E+03</rscale>
<asrwt>0</asrwt>
<pdfrwt beam="1">0</pdfrwt>
<pdfrwt beam="2">  1        2 0.38943806E+00 0.65450819E+03</pdfrwt>
<totfact> 0.43599478E+00</totfact>
</mgrwt>
</event>
<event>
 5    1  0.2369161E-004  0.6166642E+03  0.7818608E-02  0.9871424E-01
         13   -1    0    0    0    0  0.00000000000E+00  0.00000000000E+00  0.10000000000E+04  0.10000000000E+04  0.00000000000E+00 0. -1.
          2   -1    0    0  501    0 -0.00000000000E+00 -0.00000000000E+00 -0.95068693214E+02  0.95068693214E+02  0.00000000000E+00 0. -1.
    9000006    2    1    2  501    0  0.00000000000E+00  0.00000000000E+00  0.90493130679E+03  0.10950686932E+04  0.61666423024E+03 0.  0.
         13    1    3    3    0    0 -0.14197032387E+03  0.17173263600E+03  0.83092658729E+03  0.86028289800E+03  0.00000000000E+00 0. -1.
          4    1    3    3  501    0  0.14197032387E+03 -0.17173263600E+03  0.74004719498E+02  0.23478579522E+03  0.00000000000E+00 0. -1.
<mgrwt>
<rscale>  0 0.61666423E+03</rscale>
<asrwt>0</asrwt>
<pdfrwt beam="1">0</pdfrwt>
<pdfrwt beam="2">  1        2 0.34570507E+00 0.61666423E+03</pdfrwt>
<totfact> 0.63200605E+00</totfact>
</mgrwt>
</event>
<event>
 5    1  0.2369161E-004  0.6156253E+03  0.7818608E-02  0.9873509E-01
         13   -1    0    0    0    0  0.00000000000E+00  0.00000000000E+00  0.10000000000E+04  0.10000000000E+04  0.00000000000E+00 0. -1.
          2   -1    0    0  501    0 -0.00000000000E+00 -0.00000000000E+00 -0.94748620024E+02  0.94748620024E+02  0.00000000000E+00 0. -1.
    9000006    2    1    2  501    0  0.00000000000E+00  0.00000000000E+00  0.90525137998E+03  0.10947486200E+04  0.61562527571E+03 0.  0.
         13    1    3    3    0    0  0.28643395273E+03 -0.82248159487E+02  0.58967318957E+03  0.66069935637E+03  0.00000000000E+00 0. -1.
          4    1    3    3  501    0 -0.28643395273E+03  0.82248159487E+02  0.31557819040E+03  0.43404926365E+03  0.00000000000E+00 0. -1.
<mgrwt>
<rscale>  0 0.61562528E+03</rscale>
<asrwt>0</asrwt>
<pdfrwt beam="1">0</pdfrwt>
<pdfrwt beam="2">  1        2 0.34454116E+00 0.61562528E+03</pdfrwt>
<totfact> 0.63819201E+00</totfact>
</mgrwt>
</event>
<event>
 5    1  0.2369161E-004  0.6560733E+03  0.7818608E-02  0.9795449E-01
         13   -1    0    0    0    0  0.00000000000E+00  0.00000000000E+00  0.10000000000E+04  0.10000000000E+04  0.00000000000E+00 0. -1.
          2   -1    0    0  501    0 -0.00000000000E+00 -0.00000000000E+00 -0.10760803148E+03  0.10760803148E+03  0.00000000000E+00 0. -1.
    9000006    2    1    2  501    0  0.00000000000E+00  0.00000000000E+00  0.89239196852E+03  0.11076080315E+04  0.65607326260E+03 0.  0.
         13    1    3    3    0    0 -0.16662599792E+03  0.26975945837E+03  0.58818518788E+03  0.66820371430E+03  0.00000000000E+00 0. -1.
          4    1    3    3  501    0  0.16662599792E+03 -0.26975945837E+03  0.30420678065E+03  0.43940431718E+03  0.00000000000E+00 0. -1.
<mgrwt>
<rscale>  0 0.65607326E+03</rscale>
<asrwt>0</asrwt>
<pdfrwt beam="1">0</pdfrwt>
<pdfrwt beam="2">  1        2 0.39130276E+00 0.65607326E+03</pdfrwt>
<totfact> 0.42903229E+00</totfact>
</mgrwt>
</event>
<event>
 5    1  0.2369161E-004  0.6102345E+03  0.7818608E-02  0.9884397E-01
         13   -1    0    0    0    0  0.00000000000E+00  0.00000000000E+00  0.10000000000E+04  0.10000000000E+04  0.00000000000E+00 0. -1.
          2   -1    0    0  501    0 -0.00000000000E+00 -0.00000000000E+00 -0.93096528887E+02  0.93096528887E+02  0.00000000000E+00 0. -1.
    9000006    2    1    2  501    0  0.00000000000E+00  0.00000000000E+00  0.90690347111E+03  0.10930965289E+04  0.61023447588E+03 0.  0.
         13    1    3    3    0    0  0.46110141582E+02 -0.29037185941E+03  0.30732769387E+03  0.42531432296E+03  0.00000000000E+00 0. -1.
          4    1    3    3  501    0 -0.46110141582E+02  0.29037185941E+03  0.59957577724E+03  0.66778220592E+03  0.00000000000E+00 0. -1.
<mgrwt>
<rscale>  0 0.61023448E+03</rscale>
<asrwt>0</asrwt>
<pdfrwt beam="1">0</pdfrwt>
<pdfrwt beam="2">  1        2 0.33853355E+00 0.61023448E+03</pdfrwt>
<totfact> 0.67103411E+00</totfact>
</mgrwt>
</event>
<event>
 5    1  0.2369161E-004  0.6339809E+03  0.7818608E-02  0.9837311E-01
         13   -1    0    0    0    0  0.00000000000E+00  0.00000000000E+00  0.10000000000E+04  0.10000000000E+04  0.00000000000E+00 0. -1.
          2   -1    0    0  501    0 -0.00000000000E+00 -0.00000000000E+00 -0.10048295196E+03  0.10048295196E+03  0.00000000000E+00 0. -1.
    9000006    2    1    2  501    0  0.00000000000E+00  0.00000000000E+00  0.89951704804E+03  0.11004829520E+04  0.63398092073E+03 0.  0.
         13    1    3    3    0    0  0.19449696561E+03 -0.22145004497E+02  0.16970938892E+02  0.19648787143E+03  0.00000000000E+00 0. -1.
          4    1    3    3  501    0 -0.19449696561E+03  0.22145004497E+02  0.88254610914E+03  0.90399508053E+03  0.00000000000E+00 0. -1.
<mgrwt>
<rscale>  0 0.63398092E+03</rscale>
<asrwt>0</asrwt>
<pdfrwt beam="1">0</pdfrwt>
<pdfrwt beam="2">  1        2 0.36539332E+00 0.63398092E+03</pdfrwt>
<totfact> 0.53546061E+00</totfact>
</mgrwt>
</event>
<event>
 5    1  0.2369161E-004  0.6313344E+03  0.7818608E-02  0.9842448E-01
         13   -1    0    0    0    0  0.00000000000E+00  0.00000000000E+00  0.10000000000E+04  0.10000000000E+04  0.00000000000E+00 0. -1.
          2   -1    0    0  501    0 -0.00000000000E+00 -0.00000000000E+00 -0.99645785221E+02  0.99645785221E+02  0.00000000000E+00 0. -1.
    9000006    2    1    2  501    0  0.00000000000E+00  0.00000000000E+00  0.90035421478E+03  0.10996457852E+04  0.63133441288E+03 0.  0.
         13    1    3    3    0    0 -0.22905982265E+03  0.21127085400E+03  0.36235943877E+03  0.47792064087E+03  0.00000000000E+00 0. -1.
          2    1    3    3  501    0  0.22905982265E+03 -0.21127085400E+03  0.53799477601E+03  0.62172514435E+03  0.00000000000E+00 0. -1.
<mgrwt>
<rscale>  0 0.63133441E+03</rscale>
<asrwt>0</asrwt>
<pdfrwt beam="1">0</pdfrwt>
<pdfrwt beam="2">  1        2 0.36234907E+00 0.63133441E+03</pdfrwt>
<totfact> 0.54943598E+00</totfact>
</mgrwt>
</event>
<event>
 5    1  0.2369161E-004  0.6571437E+03  0.7818608E-02  0.9793466E-01
         13   -1    0    0    0    0  0.00000000000E+00  0.00000000000E+00  0.10000000000E+04  0.10000000000E+04  0.00000000000E+00 0. -1.
          2   -1    0    0  501    0 -0.00000000000E+00 -0.00000000000E+00 -0.10795947131E+03  0.10795947131E+03  0.00000000000E+00 0. -1.
    9000006    2    1    2  501    0  0.00000000000E+00  0.00000000000E+00  0.89204052869E+03  0.11079594713E+04  0.65714373255E+03 0.  0.
         13    1    3    3    0    0 -0.30018433004E+03 -0.93959328909E+01  0.22132610695E+03  0.37307393526E+03  0.00000000000E+00 0. -1.
          4    1    3    3  501    0  0.30018433004E+03  0.93959328909E+01  0.67071442174E+03  0.73488553605E+03  0.00000000000E+00 0. -1.
<mgrwt>
<rscale>  0 0.65714373E+03</rscale>
<asrwt>0</asrwt>
<pdfrwt beam="1">0</pdfrwt>
<pdfrwt beam="2">  1        2 0.39258072E+00 0.65714373E+03</pdfrwt>
<totfact> 0.42431872E+00</totfact>
</mgrwt>
</event>
<event>
 5    1  0.2369161E-004  0.6522371E+03  0.7818608E-02  0.9802590E-01
         13   -1    0    0    0    0  0.00000000000E+00  0.00000000000E+00  0.10000000000E+04  0.10000000000E+04  0.00000000000E+00 0. -1.
          2   -1    0    0  501    0 -0.00000000000E+00 -0.00000000000E+00 -0.10635330756E+03  0.10635330756E+03  0.00000000000E+00 0. -1.
    9000006    2    1    2  501    0  0.00000000000E+00  0.00000000000E+00  0.89364669244E+03  0.11063533076E+04  0.65223709663E+03 0.  0.
         13    1    3    3    0    0 -0.87403966295E+02 -0.12632269229E+03 -0.41142269293E+02  0.15902692299E+03  0.00000000000E+00 0. -1.
          4    1    3    3  501    0  0.87403966295E+02  0.12632269229E+03  0.93478896174E+03  0.94732638457E+03  0.00000000000E+00 0. -1.
<mgrwt>
<rscale>  0 0.65223710E+03</rscale>
<asrwt>0</asrwt>
<pdfrwt beam="1">0</pdfrwt>
<pdfrwt beam="2">  1        2 0.38674012E+00 0.65223710E+03</pdfrwt>
<totfact> 0.44624944E+00</totfact>
</mgrwt>
</event>
<event>
 5    1  0.2369161E-004  0.6497839E+03  0.7818608E-02  0.9807185E-01
         13   -1    0    0    0    0  0.00000000000E+00  0.00000000000E+00  0.10000000000E+04  0.10000000000E+04  0.00000000000E+00 0. -1.
          2   -1    0    0  501    0 -0.00000000000E+00 -0.00000000000E+00 -0.10555476327E+03  0.10555476327E+03  0.00000000000E+00 0. -1.
    9000006    2    1    2  501    0  0.00000000000E+00  0.00000000000E+00  0.89444523673E+03  0.11055547633E+04  0.64978385106E+03 0.  0.
         13    1    3    3    0    0  0.61622077603E+02  0.23599076186E+03  0.81239746757E+03  0.84822082351E+03  0.00000000000E+00 0. -1.
          4    1    3    3  501    0 -0.61622077603E+02 -0.23599076186E+03  0.82047769156E+02  0.25733393976E+03  0.00000000000E+00 0. -1.
<mgrwt>
<rscale>  0 0.64978385E+03</rscale>
<asrwt>0</asrwt>
<pdfrwt beam="1">0</pdfrwt>
<pdfrwt beam="2">  1        2 0.38383631E+00 0.64978385E+03</pdfrwt>
<totfact> 0.45753021E+00</totfact>
</mgrwt>
</event>
<event>
 5    1  0.2369161E-004  0.6517630E+03  0.7818608E-02  0.9803477E-01
         13   -1    0    0    0    0  0.00000000000E+00  0.00000000000E+00  0.10000000000E+04  0.10000000000E+04  0.00000000000E+00 0. -1.
          2   -1    0    0  501    0 -0.00000000000E+00 -0.00000000000E+00 -0.10619875105E+03  0.10619875105E+03  0.00000000000E+00 0. -1.
    9000006    2    1    2  501    0  0.00000000000E+00  0.00000000000E+00  0.89380124895E+03  0.11061987511E+04  0.65176299697E+03 0.  0.
         13    1    3    3    0    0  0.18430513902E+03  0.56490886962E+02  0.94548816242E+00  0.19277058522E+03  0.00000000000E+00 0. -1.
          2    1    3    3  501    0 -0.18430513902E+03 -0.56490886962E+02  0.89285576078E+03  0.91342816584E+03  0.00000000000E+00 0. -1.
<mgrwt>
<rscale>  0 0.65176300E+03</rscale>
<asrwt>0</asrwt>
<pdfrwt beam="1">0</pdfrwt>
<pdfrwt beam="2">  1        2 0.38617809E+00 0.65176300E+03</pdfrwt>
<totfact> 0.44841293E+00</totfact>
</mgrwt>
</event>
<event>
 5    1  0.2369161E-004  0.6461861E+03  0.7818608E-02  0.9813962E-01
         13   -1    0    0    0    0  0.00000000000E+00  0.00000000000E+00  0.10000000000E+04  0.10000000000E+04  0.00000000000E+00 0. -1.
          4   -1    0    0  501    0 -0.00000000000E+00 -0.00000000000E+00 -0.10438910818E+03  0.10438910818E+03  0.00000000000E+00 0. -1.
    9000006    2    1    2  501    0  0.00000000000E+00  0.00000000000E+00  0.89561089182E+03  0.11043891082E+04  0.64618606662E+03 0.  0.
         13    1    3    3    0    0  0.56806922545E+02 -0.31727108392E+03  0.48606540555E+03  0.58322169508E+03  0.00000000000E+00 0. -1.
          4    1    3    3  501    0 -0.56806922545E+02  0.31727108392E+03  0.40954548628E+03  0.52116741309E+03  0.00000000000E+00 0. -1.
<mgrwt>
<rscale>  0 0.64618607E+03</rscale>
<asrwt>0</asrwt>
<pdfrwt beam="1">0</pdfrwt>
<pdfrwt beam="2">  1        4 0.37959756E+00 0.64618607E+03</pdfrwt>
<totfact> 0.44147799E-02</totfact>
</mgrwt>
</event>
<event>
 5    1  0.2369161E-004  0.6526475E+03  0.7818608E-02  0.9801824E-01
         13   -1    0    0    0    0  0.00000000000E+00  0.00000000000E+00  0.10000000000E+04  0.10000000000E+04  0.00000000000E+00 0. -1.
          2   -1    0    0  501    0 -0.00000000000E+00 -0.00000000000E+00 -0.10648719276E+03  0.10648719276E+03  0.00000000000E+00 0. -1.
    9000006    2    1    2  501    0  0.00000000000E+00  0.00000000000E+00  0.89351280724E+03  0.11064871928E+04  0.65264750903E+03 0.  0.
         13    1    3    3    0    0 -0.29583243256E+03  0.76049252152E+02  0.25206863594E+03  0.39602893093E+03  0.00000000000E+00 0. -1.
          4    1    3    3  501    0  0.29583243256E+03 -0.76049252152E+02  0.64144417130E+03  0.71045826183E+03  0.00000000000E+00 0. -1.
<mgrwt>
<rscale>  0 0.65264751E+03</rscale>
<asrwt>0</asrwt>
<pdfrwt beam="1">0</pdfrwt>
<pdfrwt beam="2">  1        2 0.38722697E+00 0.65264751E+03</pdfrwt>
<totfact> 0.44438296E+00</totfact>
</mgrwt>
</event>
<event>
 5    1  0.2369161E-004  0.6446790E+03  0.7818608E-02  0.9816815E-01
         13   -1    0    0    0    0  0.00000000000E+00  0.00000000000E+00  0.10000000000E+04  0.10000000000E+04  0.00000000000E+00 0. -1.
          2   -1    0    0  501    0 -0.00000000000E+00 -0.00000000000E+00 -0.10390274968E+03  0.10390274968E+03  0.00000000000E+00 0. -1.
    9000006    2    1    2  501    0  0.00000000000E+00  0.00000000000E+00  0.89609725032E+03  0.11039027497E+04  0.64467898891E+03 0.  0.
         13    1    3    3    0    0 -0.26608087748E+03  0.17426132244E+03  0.53762665697E+03  0.62466668244E+03  0.00000000000E+00 0. -1.
          2    1    3    3  501    0  0.26608087748E+03 -0.17426132244E+03  0.35847059334E+03  0.47923606725E+03  0.00000000000E+00 0. -1.
<mgrwt>
<rscale>  0 0.64467899E+03</rscale>
<asrwt>0</asrwt>
<pdfrwt beam="1">0</pdfrwt>
<pdfrwt beam="2">  1        2 0.37782898E+00 0.64467899E+03</pdfrwt>
<totfact> 0.48169384E+00</totfact>
</mgrwt>
</event>
<event>
 5    1  0.2369161E-004  0.6317239E+03  0.7818608E-02  0.9841690E-01
         13   -1    0    0    0    0  0.00000000000E+00  0.00000000000E+00  0.10000000000E+04  0.10000000000E+04  0.00000000000E+00 0. -1.
          2   -1    0    0  501    0 -0.00000000000E+00 -0.00000000000E+00 -0.99768780455E+02  0.99768780455E+02  0.00000000000E+00 0. -1.
    9000006    2    1    2  501    0  0.00000000000E+00  0.00000000000E+00  0.90023121955E+03  0.10997687805E+04  0.63172392848E+03 0.  0.
         13    1    3    3    0    0 -0.54062869118E+02  0.23560878066E+03  0.96175039171E+02  0.26016135282E+03  0.00000000000E+00 0. -1.
          4    1    3    3  501    0  0.54062869118E+02 -0.23560878066E+03  0.80405618037E+03  0.83960742763E+03  0.00000000000E+00 0. -1.
<mgrwt>
<rscale>  0 0.63172393E+03</rscale>
<asrwt>0</asrwt>
<pdfrwt beam="1">0</pdfrwt>
<pdfrwt beam="2">  1        2 0.36279633E+00 0.63172393E+03</pdfrwt>
<totfact> 0.54736190E+00</totfact>
</mgrwt>
</event>
<event>
 5    1  0.2369161E-004  0.6681708E+03  0.7818608E-02  0.9773268E-01
         13   -1    0    0    0    0  0.00000000000E+00  0.00000000000E+00  0.10000000000E+04  0.10000000000E+04  0.00000000000E+00 0. -1.
          2   -1    0    0  501    0 -0.00000000000E+00 -0.00000000000E+00 -0.11161305301E+03  0.11161305301E+03  0.00000000000E+00 0. -1.
    9000006    2    1    2  501    0  0.00000000000E+00  0.00000000000E+00  0.88838694699E+03  0.11116130530E+04  0.66817079556E+03 0.  0.
         13    1    3    3    0    0 -0.16254276982E+03 -0.59625577416E+02 -0.31154345946E+02  0.17591462354E+03  0.00000000000E+00 0. -1.
          4    1    3    3  501    0  0.16254276982E+03  0.59625577416E+02  0.91954129293E+03  0.93569842947E+03  0.00000000000E+00 0. -1.
<mgrwt>
<rscale>  0 0.66817080E+03</rscale>
<asrwt>0</asrwt>
<pdfrwt beam="1">0</pdfrwt>
<pdfrwt beam="2">  1        2 0.40586650E+00 0.66817080E+03</pdfrwt>
<totfact> 0.37800846E+00</totfact>
</mgrwt>
</event>
<event>
 5    1  0.2369161E-004  0.6501340E+03  0.7818608E-02  0.9806528E-01
         13   -1    0    0    0    0  0.00000000000E+00  0.00000000000E+00  0.10000000000E+04  0.10000000000E+04  0.00000000000E+00 0. -1.
          2   -1    0    0  501    0 -0.00000000000E+00 -0.00000000000E+00 -0.10566856673E+03  0.10566856673E+03  0.00000000000E+00 0. -1.
    9000006    2    1    2  501    0  0.00000000000E+00  0.00000000000E+00  0.89433143327E+03  0.11056685667E+04  0.65013403764E+03 0.  0.
         13    1    3    3    0    0 -0.17629596746E+03 -0.27309556241E+03  0.45170126095E+03  0.55650290520E+03  0.00000000000E+00 0. -1.
          4    1    3    3  501    0  0.17629596746E+03  0.27309556241E+03  0.44263017232E+03  0.54916566153E+03  0.00000000000E+00 0. -1.
<mgrwt>
<rscale>  0 0.65013404E+03</rscale>
<asrwt>0</asrwt>
<pdfrwt beam="1">0</pdfrwt>
<pdfrwt beam="2">  1        2 0.38425014E+00 0.65013404E+03</pdfrwt>
<totfact> 0.45590690E+00</totfact>
</mgrwt>
</event>
<event>
 5    1  0.2369161E-004  0.6535362E+03  0.7818608E-02  0.9800166E-01
         13   -1    0    0    0    0  0.00000000000E+00  0.00000000000E+00  0.10000000000E+04  0.10000000000E+04  0.00000000000E+00 0. -1.
          2   -1    0    0  501    0 -0.00000000000E+00 -0.00000000000E+00 -0.10677739503E+03  0.10677739503E+03  0.00000000000E+00 0. -1.
    9000006    2    1    2  501    0  0.00000000000E+00  0.00000000000E+00  0.89322260497E+03  0.11067773950E+04  0.65353621179E+03 0.  0.
         13    1    3    3    0    0  0.19634163461E+03 -0.26068506448E+03  0.47447241244E+03  0.57587395365E+03  0.00000000000E+00 0. -1.
          2    1    3    3  501    0 -0.19634163461E+03  0.26068506448E+03  0.41875019253E+03  0.53090344138E+03  0.00000000000E+00 0. -1.
<mgrwt>
<rscale>  0 0.65353621E+03</rscale>
<asrwt>0</asrwt>
<pdfrwt beam="1">0</pdfrwt>
<pdfrwt beam="2">  1        2 0.38828226E+00 0.65353621E+03</pdfrwt>
<totfact> 0.44036151E+00</totfact>
</mgrwt>
</event>
<event>
 5    1  0.2369161E-004  0.6549919E+03  0.7818608E-02  0.9797457E-01
         13   -1    0    0    0    0  0.00000000000E+00  0.00000000000E+00  0.10000000000E+04  0.10000000000E+04  0.00000000000E+00 0. -1.
          2   -1    0    0  501    0 -0.00000000000E+00 -0.00000000000E+00 -0.10725358941E+03  0.10725358941E+03  0.00000000000E+00 0. -1.
    9000006    2    1    2  501    0  0.00000000000E+00  0.00000000000E+00  0.89274641059E+03  0.11072535894E+04  0.65499187603E+03 0.  0.
         13    1    3    3    0    0 -0.29452276863E+03 -0.33029657479E+02  0.21080087517E+03  0.36369166678E+03  0.00000000000E+00 0. -1.
          2    1    3    3  501    0  0.29452276863E+03  0.33029657479E+02  0.68194553542E+03  0.74356192263E+03  0.00000000000E+00 0. -1.
<mgrwt>
<rscale>  0 0.65499188E+03</rscale>
<asrwt>0</asrwt>
<pdfrwt beam="1">0</pdfrwt>
<pdfrwt beam="2">  1        2 0.39001387E+00 0.65499188E+03</pdfrwt>
<totfact> 0.43383397E+00</totfact>
</mgrwt>
</event>
<event>
 5    1  0.2369161E-004  0.6523547E+03  0.7818608E-02  0.9802371E-01
         13   -1    0    0    0    0  0.00000000000E+00  0.00000000000E+00  0.10000000000E+04  0.10000000000E+04  0.00000000000E+00 0. -1.
          2   -1    0    0  501    0 -0.00000000000E+00 -0.00000000000E+00 -0.10639166635E+03  0.10639166635E+03  0.00000000000E+00 0. -1.
    9000006    2    1    2  501    0  0.00000000000E+00  0.00000000000E+00  0.89360833365E+03  0.11063916664E+04  0.65235470828E+03 0.  0.
         13    1    3    3    0    0 -0.19438451475E+03  0.15736814235E+03  0.80191855206E+03  0.84001394985E+03  0.00000000000E+00 0. -1.
          4    1    3    3  501    0  0.19438451475E+03 -0.15736814235E+03  0.91689781582E+02  0.26637771650E+03  0.00000000000E+00 0. -1.
<mgrwt>
<rscale>  0 0.65235471E+03</rscale>
<asrwt>0</asrwt>
<pdfrwt beam="1">0</pdfrwt>
<pdfrwt beam="2">  1        2 0.38687960E+00 0.65235471E+03</pdfrwt>
<totfact> 0.44571396E+00</totfact>
</mgrwt>
</event>
<event>
 5    1  0.2369161E-004  0.6604691E+03  0.7818608E-02  0.9787331E-01
         13   -1    0    0    0    0  0.00000000000E+00  0.00000000000E+00  0.10000000000E+04  0.10000000000E+04  0.00000000000E+00 0. -1.
          2   -1    0    0  501    0 -0.00000000000E+00 -0.00000000000E+00 -0.10905484675E+03  0.10905484675E+03  0.00000000000E+00 0. -1.
    9000006    2    1    2  501    0  0.00000000000E+00  0.00000000000E+00  0.89094515325E+03  0.11090548468E+04  0.66046906589E+03 0.  0.
         13    1    3    3    0    0 -0.11272262166E+03  0.10109721925E+03 -0.47329175971E+02  0.15864138196E+03  0.00000000000E+00 0. -1.
          2    1    3    3  501    0  0.11272262166E+03 -0.10109721925E+03  0.93827432922E+03  0.95041346479E+03  0.00000000000E+00 0. -1.
<mgrwt>
<rscale>  0 0.66046907E+03</rscale>
<asrwt>0</asrwt>
<pdfrwt beam="1">0</pdfrwt>
<pdfrwt beam="2">  1        2 0.39656392E+00 0.66046907E+03</pdfrwt>
<totfact> 0.40992626E+00</totfact>
</mgrwt>
</event>
<event>
 5    1  0.2369161E-004  0.6518269E+03  0.7818608E-02  0.9803357E-01
         13   -1    0    0    0    0  0.00000000000E+00  0.00000000000E+00  0.10000000000E+04  0.10000000000E+04  0.00000000000E+00 0. -1.
          4   -1    0    0  501    0 -0.00000000000E+00 -0.00000000000E+00 -0.10621958431E+03  0.10621958431E+03  0.00000000000E+00 0. -1.
    9000006    2    1    2  501    0  0.00000000000E+00  0.00000000000E+00  0.89378041569E+03  0.11062195843E+04  0.65182692275E+03 0.  0.
         13    1    3    3    0    0  0.22494730612E+03  0.22162144665E+03  0.58373874230E+03  0.66367784008E+03  0.00000000000E+00 0. -1.
          4    1    3    3  501    0 -0.22494730612E+03 -0.22162144665E+03  0.31004167339E+03  0.44254174423E+03  0.00000000000E+00 0. -1.
<mgrwt>
<rscale>  0 0.65182692E+03</rscale>
<asrwt>0</asrwt>
<pdfrwt beam="1">0</pdfrwt>
<pdfrwt beam="2">  1        4 0.38625385E+00 0.65182692E+03</pdfrwt>
<totfact> 0.39808119E-02</totfact>
</mgrwt>
</event>
<event>
 5    1  0.2369161E-004  0.6653943E+03  0.7818608E-02  0.9778314E-01
         13   -1    0    0    0    0  0.00000000000E+00  0.00000000000E+00  0.10000000000E+04  0.10000000000E+04  0.00000000000E+00 0. -1.
          2   -1    0    0  501    0 -0.00000000000E+00 -0.00000000000E+00 -0.11068739393E+03  0.11068739393E+03  0.00000000000E+00 0. -1.
    9000006    2    1    2  501    0  0.00000000000E+00  0.00000000000E+00  0.88931260607E+03  0.11106873939E+04  0.66539430092E+03 0.  0.
         13    1    3    3    0    0  0.23583145834E+03 -0.16539221669E+03  0.72255124499E+03  0.77785047645E+03  0.00000000000E+00 0. -1.
          2    1    3    3  501    0 -0.23583145834E+03  0.16539221669E+03  0.16676136108E+03  0.33283691747E+03  0.00000000000E+00 0. -1.
<mgrwt>
<rscale>  0 0.66539430E+03</rscale>
<asrwt>0</asrwt>
<pdfrwt beam="1">0</pdfrwt>
<pdfrwt beam="2">  1        2 0.40250046E+00 0.66539430E+03</pdfrwt>
<totfact> 0.38929047E+00</totfact>
</mgrwt>
</event>
<event>
 5    1  0.2369161E-004  0.6557375E+03  0.7818608E-02  0.9796072E-01
         13   -1    0    0    0    0  0.00000000000E+00  0.00000000000E+00  0.10000000000E+04  0.10000000000E+04  0.00000000000E+00 0. -1.
          2   -1    0    0  501    0 -0.00000000000E+00 -0.00000000000E+00 -0.10749793094E+03  0.10749793094E+03  0.00000000000E+00 0. -1.
    9000006    2    1    2  501    0  0.00000000000E+00  0.00000000000E+00  0.89250206906E+03  0.11074979309E+04  0.65573754183E+03 0.  0.
         13    1    3    3    0    0  0.10775131477E+03 -0.30963777884E+03  0.44039283500E+03  0.54902800388E+03  0.00000000000E+00 0. -1.
          4    1    3    3  501    0 -0.10775131477E+03  0.30963777884E+03  0.45210923405E+03  0.55846992706E+03  0.00000000000E+00 0. -1.
<mgrwt>
<rscale>  0 0.65573754E+03</rscale>
<asrwt>0</asrwt>
<pdfrwt beam="1">0</pdfrwt>
<pdfrwt beam="2">  1        2 0.39090239E+00 0.65573754E+03</pdfrwt>
<totfact> 0.43051867E+00</totfact>
</mgrwt>
</event>
<event>
 5    1  0.2369161E-004  0.6596474E+03  0.7818608E-02  0.9788843E-01
         13   -1    0    0    0    0  0.00000000000E+00  0.00000000000E+00  0.10000000000E+04  0.10000000000E+04  0.00000000000E+00 0. -1.
          2   -1    0    0  501    0 -0.00000000000E+00 -0.00000000000E+00 -0.10878367740E+03  0.10878367740E+03  0.00000000000E+00 0. -1.
    9000006    2    1    2  501    0  0.00000000000E+00  0.00000000000E+00  0.89121632260E+03  0.11087836774E+04  0.65964741311E+03 0.  0.
         13    1    3    3    0    0  0.22989664957E+03 -0.21795304743E+03  0.29129999778E+03  0.43036227655E+03  0.00000000000E+00 0. -1.
          4    1    3    3  501    0 -0.22989664957E+03  0.21795304743E+03  0.59991632481E+03  0.67842140086E+03  0.00000000000E+00 0. -1.
<mgrwt>
<rscale>  0 0.65964741E+03</rscale>
<asrwt>0</asrwt>
<pdfrwt beam="1">0</pdfrwt>
<pdfrwt beam="2">  1        2 0.39557784E+00 0.65964741E+03</pdfrwt>
<totfact> 0.41344755E+00</totfact>
</mgrwt>
</event>
<event>
 5    1  0.2369161E-004  0.6413534E+03  0.7818608E-02  0.9823141E-01
         13   -1    0    0    0    0  0.00000000000E+00  0.00000000000E+00  0.10000000000E+04  0.10000000000E+04  0.00000000000E+00 0. -1.
          2   -1    0    0  501    0 -0.00000000000E+00 -0.00000000000E+00 -0.10283353130E+03  0.10283353130E+03  0.00000000000E+00 0. -1.
    9000006    2    1    2  501    0  0.00000000000E+00  0.00000000000E+00  0.89716646870E+03  0.11028335313E+04  0.64135335442E+03 0.  0.
         13    1    3    3    0    0 -0.17185160122E+03 -0.20167461229E+03  0.75918735594E+03  0.80409642675E+03  0.00000000000E+00 0. -1.
          2    1    3    3  501    0  0.17185160122E+03  0.20167461229E+03  0.13797911275E+03  0.29873710456E+03  0.00000000000E+00 0. -1.
<mgrwt>
<rscale>  0 0.64135335E+03</rscale>
<asrwt>0</asrwt>
<pdfrwt beam="1">0</pdfrwt>
<pdfrwt beam="2">  1        2 0.37394090E+00 0.64135335E+03</pdfrwt>
<totfact> 0.49794746E+00</totfact>
</mgrwt>
</event>
<event>
 5    1  0.2369161E-004  0.6304113E+03  0.7818608E-02  0.9844246E-01
         13   -1    0    0    0    0  0.00000000000E+00  0.00000000000E+00  0.10000000000E+04  0.10000000000E+04  0.00000000000E+00 0. -1.
          2   -1    0    0  501    0 -0.00000000000E+00 -0.00000000000E+00 -0.99354609639E+02  0.99354609639E+02  0.00000000000E+00 0. -1.
    9000006    2    1    2  501    0  0.00000000000E+00  0.00000000000E+00  0.90064539036E+03  0.10993546096E+04  0.63041132490E+03 0.  0.
         13    1    3    3    0    0 -0.30553172279E+03  0.77313603702E+02  0.45948135837E+03  0.55718053236E+03  0.00000000000E+00 0. -1.
          4    1    3    3  501    0  0.30553172279E+03 -0.77313603702E+02  0.44116403199E+03  0.54217407728E+03  0.00000000000E+00 0. -1.
<mgrwt>
<rscale>  0 0.63041132E+03</rscale>
<asrwt>0</asrwt>
<pdfrwt beam="1">0</pdfrwt>
<pdfrwt beam="2">  1        2 0.36129025E+00 0.63041132E+03</pdfrwt>
<totfact> 0.55437501E+00</totfact>
</mgrwt>
</event>
<event>
 5    1  0.2369161E-004  0.6679690E+03  0.7818608E-02  0.9773634E-01
         13   -1    0    0    0    0  0.00000000000E+00  0.00000000000E+00  0.10000000000E+04  0.10000000000E+04  0.00000000000E+00 0. -1.
          2   -1    0    0  501    0 -0.00000000000E+00 -0.00000000000E+00 -0.11154563864E+03  0.11154563864E+03  0.00000000000E+00 0. -1.
    9000006    2    1    2  501    0  0.00000000000E+00  0.00000000000E+00  0.88845436136E+03  0.11115456386E+04  0.66796897726E+03 0.  0.
         13    1    3    3    0    0  0.31446381191E+03 -0.86857747927E+02  0.56322700672E+03  0.65088894480E+03  0.00000000000E+00 0. -1.
          4    1    3    3  501    0 -0.31446381191E+03  0.86857747927E+02  0.32522735464E+03  0.46065669384E+03  0.00000000000E+00 0. -1.
<mgrwt>
<rscale>  0 0.66796898E+03</rscale>
<asrwt>0</asrwt>
<pdfrwt beam="1">0</pdfrwt>
<pdfrwt beam="2">  1        2 0.40562136E+00 0.66796898E+03</pdfrwt>
<totfact> 0.37882012E+00</totfact>
</mgrwt>
</event>
<event>
 5    1  0.2369161E-004  0.6419338E+03  0.7818608E-02  0.9822034E-01
         13   -1    0    0    0    0  0.00000000000E+00  0.00000000000E+00  0.10000000000E+04  0.10000000000E+04  0.00000000000E+00 0. -1.
          2   -1    0    0  501    0 -0.00000000000E+00 -0.00000000000E+00 -0.10301974415E+03  0.10301974415E+03  0.00000000000E+00 0. -1.
    9000006    2    1    2  501    0  0.00000000000E+00  0.00000000000E+00  0.89698025585E+03  0.11030197441E+04  0.64193377898E+03 0.  0.
         13    1    3    3    0    0  0.17546636490E+03 -0.26746610826E+03  0.40325081204E+03  0.51472107174E+03  0.00000000000E+00 0. -1.
          4    1    3    3  501    0 -0.17546636490E+03  0.26746610826E+03  0.49372944381E+03  0.58829867241E+03  0.00000000000E+00 0. -1.
<mgrwt>
<rscale>  0 0.64193378E+03</rscale>
<asrwt>0</asrwt>
<pdfrwt beam="1">0</pdfrwt>
<pdfrwt beam="2">  1        2 0.37461804E+00 0.64193378E+03</pdfrwt>
<totfact> 0.49508108E+00</totfact>
</mgrwt>
</event>
<event>
 5    1  0.2369161E-004  0.6423076E+03  0.7818608E-02  0.9821321E-01
         13   -1    0    0    0    0  0.00000000000E+00  0.00000000000E+00  0.10000000000E+04  0.10000000000E+04  0.00000000000E+00 0. -1.
          2   -1    0    0  501    0 -0.00000000000E+00 -0.00000000000E+00 -0.10313976479E+03  0.10313976479E+03  0.00000000000E+00 0. -1.
    9000006    2    1    2  501    0  0.00000000000E+00  0.00000000000E+00  0.89686023521E+03  0.11031397648E+04  0.64230760477E+03 0.  0.
         13    1    3    3    0    0 -0.28911348632E+03  0.13726288761E+03  0.40260066151E+03  0.51431021858E+03  0.00000000000E+00 0. -1.
          4    1    3    3  501    0  0.28911348632E+03 -0.13726288761E+03  0.49425957371E+03  0.58882954621E+03  0.00000000000E+00 0. -1.
<mgrwt>
<rscale>  0 0.64230760E+03</rscale>
<asrwt>0</asrwt>
<pdfrwt beam="1">0</pdfrwt>
<pdfrwt beam="2">  1        2 0.37505448E+00 0.64230760E+03</pdfrwt>
<totfact> 0.49324160E+00</totfact>
</mgrwt>
</event>
<event>
 5    1  0.2369161E-004  0.6517319E+03  0.7818608E-02  0.9803535E-01
         13   -1    0    0    0    0  0.00000000000E+00  0.00000000000E+00  0.10000000000E+04  0.10000000000E+04  0.00000000000E+00 0. -1.
          2   -1    0    0  501    0 -0.00000000000E+00 -0.00000000000E+00 -0.10618860128E+03  0.10618860128E+03  0.00000000000E+00 0. -1.
    9000006    2    1    2  501    0  0.00000000000E+00  0.00000000000E+00  0.89381139872E+03  0.11061886013E+04  0.65173185061E+03 0.  0.
         13    1    3    3    0    0 -0.18217474473E+03  0.17757215268E+03  0.10126688392E+03  0.27381469793E+03  0.00000000000E+00 0. -1.
          2    1    3    3  501    0  0.18217474473E+03 -0.17757215268E+03  0.79254451481E+03  0.83237390335E+03  0.00000000000E+00 0. -1.
<mgrwt>
<rscale>  0 0.65173185E+03</rscale>
<asrwt>0</asrwt>
<pdfrwt beam="1">0</pdfrwt>
<pdfrwt beam="2">  1        2 0.38614118E+00 0.65173185E+03</pdfrwt>
<totfact> 0.44855534E+00</totfact>
</mgrwt>
</event>
<event>
 5    1  0.2369161E-004  0.6543599E+03  0.7818608E-02  0.9798632E-01
         13   -1    0    0    0    0  0.00000000000E+00  0.00000000000E+00  0.10000000000E+04  0.10000000000E+04  0.00000000000E+00 0. -1.
          2   -1    0    0  501    0 -0.00000000000E+00 -0.00000000000E+00 -0.10704672470E+03  0.10704672470E+03  0.00000000000E+00 0. -1.
    9000006    2    1    2  501    0  0.00000000000E+00  0.00000000000E+00  0.89295327530E+03  0.11070467247E+04  0.65435991534E+03 0.  0.
         13    1    3    3    0    0 -0.11549606832E+03 -0.30141944053E+03  0.53685276103E+03  0.62642150981E+03  0.00000000000E+00 0. -1.
          4    1    3    3  501    0  0.11549606832E+03  0.30141944053E+03  0.35610051427E+03  0.48062521489E+03  0.00000000000E+00 0. -1.
<mgrwt>
<rscale>  0 0.65435992E+03</rscale>
<asrwt>0</asrwt>
<pdfrwt beam="1">0</pdfrwt>
<pdfrwt beam="2">  1        2 0.38926164E+00 0.65435992E+03</pdfrwt>
<totfact> 0.43665879E+00</totfact>
</mgrwt>
</event>
<event>
 5    1  0.2369161E-004  0.6744296E+03  0.7818608E-02  0.9761989E-01
         13   -1    0    0    0    0  0.00000000000E+00  0.00000000000E+00  0.10000000000E+04  0.10000000000E+04  0.00000000000E+00 0. -1.
          2   -1    0    0  501    0 -0.00000000000E+00 -0.00000000000E+00 -0.11371380637E+03  0.11371380637E+03  0.00000000000E+00 0. -1.
    9000006    2    1    2  501    0  0.00000000000E+00  0.00000000000E+00  0.88628619363E+03  0.11137138064E+04  0.67442955562E+03 0.  0.
         13    1    3    3    0    0  0.39025363718E+02 -0.30733046497E+03  0.22320559745E+03  0.38183207362E+03  0.00000000000E+00 0. -1.
          4    1    3    3  501    0 -0.39025363718E+02  0.30733046497E+03  0.66308059618E+03  0.73188173276E+03  0.00000000000E+00 0. -1.
<mgrwt>
<rscale>  0 0.67442956E+03</rscale>
<asrwt>0</asrwt>
<pdfrwt beam="1">0</pdfrwt>
<pdfrwt beam="2">  1        2 0.41350562E+00 0.67442956E+03</pdfrwt>
<totfact> 0.35348168E+00</totfact>
</mgrwt>
</event>
<event>
 5    1  0.2369161E-004  0.6251145E+03  0.7818608E-02  0.9854629E-01
         13   -1    0    0    0    0  0.00000000000E+00  0.00000000000E+00  0.10000000000E+04  0.10000000000E+04  0.00000000000E+00 0. -1.
          2   -1    0    0  501    0 -0.00000000000E+00 -0.00000000000E+00 -0.97692047043E+02  0.97692047043E+02  0.00000000000E+00 0. -1.
    9000006    2    1    2  501    0  0.00000000000E+00  0.00000000000E+00  0.90230795296E+03  0.10976920470E+04  0.62511454004E+03 0.  0.
         13    1    3    3    0    0 -0.24157923753E+02  0.23660025206E+03  0.80727182279E+03  0.84157654460E+03  0.00000000000E+00 0. -1.
          2    1    3    3  501    0  0.24157923753E+02 -0.23660025206E+03  0.95036130170E+02  0.25611550244E+03  0.00000000000E+00 0. -1.
<mgrwt>
<rscale>  0 0.62511454E+03</rscale>
<asrwt>0</asrwt>
<pdfrwt beam="1">0</pdfrwt>
<pdfrwt beam="2">  1        2 0.35524456E+00 0.62511454E+03</pdfrwt>
<totfact> 0.58337183E+00</totfact>
</mgrwt>
</event>
<event>
 5    1  0.2369161E-004  0.6340245E+03  0.7818608E-02  0.9837227E-01
         13   -1    0    0    0    0  0.00000000000E+00  0.00000000000E+00  0.10000000000E+04  0.10000000000E+04  0.00000000000E+00 0. -1.
          2   -1    0    0  501    0 -0.00000000000E+00 -0.00000000000E+00 -0.10049678127E+03  0.10049678127E+03  0.00000000000E+00 0. -1.
    9000006    2    1    2  501    0  0.00000000000E+00  0.00000000000E+00  0.89950321873E+03  0.11004967813E+04  0.63402454610E+03 0.  0.
         13    1    3    3    0    0  0.27861299027E+03 -0.25123580503E+02  0.70860501947E+03  0.76182508902E+03  0.00000000000E+00 0. -1.
          2    1    3    3  501    0 -0.27861299027E+03  0.25123580503E+02  0.19089819926E+03  0.33867169224E+03  0.00000000000E+00 0. -1.
<mgrwt>
<rscale>  0 0.63402455E+03</rscale>
<asrwt>0</asrwt>
<pdfrwt beam="1">0</pdfrwt>
<pdfrwt beam="2">  1        2 0.36544361E+00 0.63402455E+03</pdfrwt>
<totfact> 0.53523252E+00</totfact>
</mgrwt>
</event>
<event>
 5    1  0.2369161E-004  0.6558206E+03  0.7818608E-02  0.9795918E-01
         13   -1    0    0    0    0  0.00000000000E+00  0.00000000000E+00  0.10000000000E+04  0.10000000000E+04  0.00000000000E+00 0. -1.
          2   -1    0    0  501    0 -0.00000000000E+00 -0.00000000000E+00 -0.10752518120E+03  0.10752518120E+03  0.00000000000E+00 0. -1.
    9000006    2    1    2  501    0  0.00000000000E+00  0.00000000000E+00  0.89247481880E+03  0.11075251812E+04  0.65582064986E+03 0.  0.
         13    1    3    3    0    0 -0.17631917087E+03  0.11334082506E+03  0.20379277751E+02  0.21059417752E+03  0.00000000000E+00 0. -1.
          4    1    3    3  501    0  0.17631917087E+03 -0.11334082506E+03  0.87209554105E+03  0.89693100368E+03  0.00000000000E+00 0. -1.
<mgrwt>
<rscale>  0 0.65582065E+03</rscale>
<asrwt>0</asrwt>
<pdfrwt beam="1">0</pdfrwt>
<pdfrwt beam="2">  1        2 0.39100148E+00 0.65582065E+03</pdfrwt>
<totfact> 0.43015036E+00</totfact>
</mgrwt>
</event>
<event>
 5    1  0.2369161E-004  0.5687616E+03  0.7818608E-02  0.9972423E-01
         13   -1    0    0    0    0  0.00000000000E+00  0.00000000000E+00  0.10000000000E+04  0.10000000000E+04  0.00000000000E+00 0. -1.
          2   -1    0    0  501    0 -0.00000000000E+00 -0.00000000000E+00 -0.80872425956E+02  0.80872425956E+02  0.00000000000E+00 0. -1.
    9000006    2    1    2  501    0  0.00000000000E+00  0.00000000000E+00  0.91912757404E+03  0.10808724260E+04  0.56876155270E+03 0.  0.
         13    1    3    3    0    0 -0.23423252352E+03 -0.13895416801E+03  0.30401787634E+03  0.40816663878E+03  0.00000000000E+00 0. -1.
          4    1    3    3  501    0  0.23423252352E+03  0.13895416801E+03  0.61510969771E+03  0.67270578717E+03  0.00000000000E+00 0. -1.
<mgrwt>
<rscale>  0 0.56876155E+03</rscale>
<asrwt>0</asrwt>
<pdfrwt beam="1">0</pdfrwt>
<pdfrwt beam="2">  1        2 0.29408217E+00 0.56876155E+03</pdfrwt>
<totfact> 0.96938382E+00</totfact>
</mgrwt>
</event>
<event>
 5    1  0.2369161E-004  0.6472969E+03  0.7818608E-02  0.9811865E-01
         13   -1    0    0    0    0  0.00000000000E+00  0.00000000000E+00  0.10000000000E+04  0.10000000000E+04  0.00000000000E+00 0. -1.
          2   -1    0    0  501    0 -0.00000000000E+00 -0.00000000000E+00 -0.10474831346E+03  0.10474831346E+03  0.00000000000E+00 0. -1.
    9000006    2    1    2  501    0  0.00000000000E+00  0.00000000000E+00  0.89525168654E+03  0.11047483135E+04  0.64729688229E+03 0.  0.
         13    1    3    3    0    0 -0.24682691018E+03  0.12885108073E+03  0.72921851821E+03  0.78056759598E+03  0.00000000000E+00 0. -1.
          2    1    3    3  501    0  0.24682691018E+03 -0.12885108073E+03  0.16603316833E+03  0.32418071747E+03  0.00000000000E+00 0. -1.
<mgrwt>
<rscale>  0 0.64729688E+03</rscale>
<asrwt>0</asrwt>
<pdfrwt beam="1">0</pdfrwt>
<pdfrwt beam="2">  1        2 0.38090376E+00 0.64729688E+03</pdfrwt>
<totfact> 0.46918470E+00</totfact>
</mgrwt>
</event>
<event>
 5    1  0.2369161E-004  0.6577231E+03  0.7818608E-02  0.9792394E-01
         13   -1    0    0    0    0  0.00000000000E+00  0.00000000000E+00  0.10000000000E+04  0.10000000000E+04  0.00000000000E+00 0. -1.
          2   -1    0    0  501    0 -0.00000000000E+00 -0.00000000000E+00 -0.10814991367E+03  0.10814991367E+03  0.00000000000E+00 0. -1.
    9000006    2    1    2  501    0  0.00000000000E+00  0.00000000000E+00  0.89185008633E+03  0.11081499137E+04  0.65772308359E+03 0.  0.
         13    1    3    3    0    0  0.21050773503E+03  0.62279779939E+02  0.33374005330E+02  0.22204977309E+03  0.00000000000E+00 0. -1.
          2    1    3    3  501    0 -0.21050773503E+03 -0.62279779939E+02  0.85847608100E+03  0.88610014058E+03  0.00000000000E+00 0. -1.
<mgrwt>
<rscale>  0 0.65772308E+03</rscale>
<asrwt>0</asrwt>
<pdfrwt beam="1">0</pdfrwt>
<pdfrwt beam="2">  1        2 0.39327324E+00 0.65772308E+03</pdfrwt>
<totfact> 0.42178405E+00</totfact>
</mgrwt>
</event>
<event>
 5    1  0.2369161E-004  0.6574819E+03  0.7818608E-02  0.9792840E-01
         13   -1    0    0    0    0  0.00000000000E+00  0.00000000000E+00  0.10000000000E+04  0.10000000000E+04  0.00000000000E+00 0. -1.
          2   -1    0    0  501    0 -0.00000000000E+00 -0.00000000000E+00 -0.10807060494E+03  0.10807060494E+03  0.00000000000E+00 0. -1.
    9000006    2    1    2  501    0  0.00000000000E+00  0.00000000000E+00  0.89192939506E+03  0.11080706049E+04  0.65748187791E+03 0.  0.
         13    1    3    3    0    0  0.19761533520E+03  0.25790624511E+03  0.53028406551E+03  0.62190726166E+03  0.00000000000E+00 0. -1.
          4    1    3    3  501    0 -0.19761533520E+03 -0.25790624511E+03  0.36164532955E+03  0.48616334329E+03  0.00000000000E+00 0. -1.
<mgrwt>
<rscale>  0 0.65748188E+03</rscale>
<asrwt>0</asrwt>
<pdfrwt beam="1">0</pdfrwt>
<pdfrwt beam="2">  1        2 0.39298485E+00 0.65748188E+03</pdfrwt>
<totfact> 0.42283793E+00</totfact>
</mgrwt>
</event>
<event>
 5    1  0.2369161E-004  0.6440628E+03  0.7818608E-02  0.9817984E-01
         13   -1    0    0    0    0  0.00000000000E+00  0.00000000000E+00  0.10000000000E+04  0.10000000000E+04  0.00000000000E+00 0. -1.
          2   -1    0    0  501    0 -0.00000000000E+00 -0.00000000000E+00 -0.10370421287E+03  0.10370421287E+03  0.00000000000E+00 0. -1.
    9000006    2    1    2  501    0  0.00000000000E+00  0.00000000000E+00  0.89629578713E+03  0.11037042129E+04  0.64406276981E+03 0.  0.
         13    1    3    3    0    0  0.22705336675E+02  0.82000071539E+02  0.98038928239E+03  0.98407453431E+03  0.00000000000E+00 0. -1.
          4    1    3    3  501    0 -0.22705336675E+02 -0.82000071539E+02 -0.84093495260E+02  0.11962967855E+03  0.00000000000E+00 0. -1.
<mgrwt>
<rscale>  0 0.64406277E+03</rscale>
<asrwt>0</asrwt>
<pdfrwt beam="1">0</pdfrwt>
<pdfrwt beam="2">  1        2 0.37710702E+00 0.64406277E+03</pdfrwt>
<totfact> 0.48467466E+00</totfact>
</mgrwt>
</event>
<event>
 5    1  0.2369161E-004  0.6445067E+03  0.7818608E-02  0.9817142E-01
         13   -1    0    0    0    0  0.00000000000E+00  0.00000000000E+00  0.10000000000E+04  0.10000000000E+04  0.00000000000E+00 0. -1.
          2   -1    0    0  501    0 -0.00000000000E+00 -0.00000000000E+00 -0.10384722249E+03  0.10384722249E+03  0.00000000000E+00 0. -1.
    9000006    2    1    2  501    0  0.00000000000E+00  0.00000000000E+00  0.89615277751E+03  0.11038472225E+04  0.64450670281E+03 0.  0.
         13    1    3    3    0    0 -0.12118591458E+03  0.29475541969E+03  0.36628816506E+03  0.48552425603E+03  0.00000000000E+00 0. -1.
          2    1    3    3  501    0  0.12118591458E+03 -0.29475541969E+03  0.52986461245E+03  0.61832296647E+03  0.00000000000E+00 0. -1.
<mgrwt>
<rscale>  0 0.64450670E+03</rscale>
<asrwt>0</asrwt>
<pdfrwt beam="1">0</pdfrwt>
<pdfrwt beam="2">  1        2 0.37762706E+00 0.64450670E+03</pdfrwt>
<totfact> 0.48252583E+00</totfact>
</mgrwt>
</event>
<event>
 5    1  0.2369161E-004  0.6388086E+03  0.7818608E-02  0.9828009E-01
         13   -1    0    0    0    0  0.00000000000E+00  0.00000000000E+00  0.10000000000E+04  0.10000000000E+04  0.00000000000E+00 0. -1.
          2   -1    0    0  501    0 -0.00000000000E+00 -0.00000000000E+00 -0.10201911395E+03  0.10201911395E+03  0.00000000000E+00 0. -1.
    9000006    2    1    2  501    0  0.00000000000E+00  0.00000000000E+00  0.89798088605E+03  0.11020191140E+04  0.63880862221E+03 0.  0.
         13    1    3    3    0    0  0.15043490791E+03  0.48661060456E+02  0.92775465149E+03  0.94113083771E+03  0.00000000000E+00 0. -1.
          2    1    3    3  501    0 -0.15043490791E+03 -0.48661060456E+02 -0.29773765442E+02  0.16088827624E+03  0.00000000000E+00 0. -1.
<mgrwt>
<rscale>  0 0.63880862E+03</rscale>
<asrwt>0</asrwt>
<pdfrwt beam="1">0</pdfrwt>
<pdfrwt beam="2">  1        2 0.37097938E+00 0.63880862E+03</pdfrwt>
<totfact> 0.51066301E+00</totfact>
</mgrwt>
</event>
<event>
 5    1  0.2369161E-004  0.6493465E+03  0.7818608E-02  0.9808006E-01
         13   -1    0    0    0    0  0.00000000000E+00  0.00000000000E+00  0.10000000000E+04  0.10000000000E+04  0.00000000000E+00 0. -1.
          2   -1    0    0  501    0 -0.00000000000E+00 -0.00000000000E+00 -0.10541270739E+03  0.10541270739E+03  0.00000000000E+00 0. -1.
    9000006    2    1    2  501    0  0.00000000000E+00  0.00000000000E+00  0.89458729261E+03  0.11054127074E+04  0.64934646343E+03 0.  0.
         13    1    3    3    0    0 -0.20066599556E+03  0.13723679282E+03  0.80945156693E+02  0.25622821365E+03  0.00000000000E+00 0. -1.
          4    1    3    3  501    0  0.20066599556E+03 -0.13723679282E+03  0.81364213592E+03  0.84918449374E+03  0.00000000000E+00 0. -1.
<mgrwt>
<rscale>  0 0.64934646E+03</rscale>
<asrwt>0</asrwt>
<pdfrwt beam="1">0</pdfrwt>
<pdfrwt beam="2">  1        2 0.38331974E+00 0.64934646E+03</pdfrwt>
<totfact> 0.45956387E+00</totfact>
</mgrwt>
</event>
<event>
 5    1  0.2369161E-004  0.6495671E+03  0.7818608E-02  0.9807592E-01
         13   -1    0    0    0    0  0.00000000000E+00  0.00000000000E+00  0.10000000000E+04  0.10000000000E+04  0.00000000000E+00 0. -1.
          2   -1    0    0  501    0 -0.00000000000E+00 -0.00000000000E+00 -0.10548434088E+03  0.10548434088E+03  0.00000000000E+00 0. -1.
    9000006    2    1    2  501    0  0.00000000000E+00  0.00000000000E+00  0.89451565912E+03  0.11054843409E+04  0.64956705851E+03 0.  0.
         13    1    3    3    0    0 -0.23771489484E+03  0.19950327359E+02  0.72156837462E+02  0.24922479007E+03  0.00000000000E+00 0. -1.
          2    1    3    3  501    0  0.23771489484E+03 -0.19950327359E+02  0.82235882166E+03  0.85625955081E+03  0.00000000000E+00 0. -1.
<mgrwt>
<rscale>  0 0.64956706E+03</rscale>
<asrwt>0</asrwt>
<pdfrwt beam="1">0</pdfrwt>
<pdfrwt beam="2">  1        2 0.38358023E+00 0.64956706E+03</pdfrwt>
<totfact> 0.45853734E+00</totfact>
</mgrwt>
</event>
<event>
 5    1  0.2369161E-004  0.6463447E+03  0.7818608E-02  0.9813662E-01
         13   -1    0    0    0    0  0.00000000000E+00  0.00000000000E+00  0.10000000000E+04  0.10000000000E+04  0.00000000000E+00 0. -1.
          2   -1    0    0  501    0 -0.00000000000E+00 -0.00000000000E+00 -0.10444036605E+03  0.10444036605E+03  0.00000000000E+00 0. -1.
    9000006    2    1    2  501    0  0.00000000000E+00  0.00000000000E+00  0.89555963395E+03  0.11044403661E+04  0.64634469458E+03 0.  0.
         13    1    3    3    0    0  0.23223451728E+03  0.16935646492E+03  0.70022320058E+03  0.75691942362E+03  0.00000000000E+00 0. -1.
          4    1    3    3  501    0 -0.23223451728E+03 -0.16935646492E+03  0.19533643336E+03  0.34752094243E+03  0.00000000000E+00 0. -1.
<mgrwt>
<rscale>  0 0.64634469E+03</rscale>
<asrwt>0</asrwt>
<pdfrwt beam="1">0</pdfrwt>
<pdfrwt beam="2">  1        2 0.37978395E+00 0.64634469E+03</pdfrwt>
<totfact> 0.47370577E+00</totfact>
</mgrwt>
</event>
<event>
 5    1  0.2369161E-004  0.6523850E+03  0.7818608E-02  0.9802314E-01
         13   -1    0    0    0    0  0.00000000000E+00  0.00000000000E+00  0.10000000000E+04  0.10000000000E+04  0.00000000000E+00 0. -1.
          2   -1    0    0  501    0 -0.00000000000E+00 -0.00000000000E+00 -0.10640153075E+03  0.10640153075E+03  0.00000000000E+00 0. -1.
    9000006    2    1    2  501    0  0.00000000000E+00  0.00000000000E+00  0.89359846925E+03  0.11064015307E+04  0.65238495001E+03 0.  0.
         13    1    3    3    0    0  0.28481248331E+03 -0.92230755215E+02  0.66646596036E+03  0.73061723165E+03  0.00000000000E+00 0. -1.
          4    1    3    3  501    0 -0.28481248331E+03  0.92230755215E+02  0.22713250889E+03  0.37578429910E+03  0.00000000000E+00 0. -1.
<mgrwt>
<rscale>  0 0.65238495E+03</rscale>
<asrwt>0</asrwt>
<pdfrwt beam="1">0</pdfrwt>
<pdfrwt beam="2">  1        2 0.38691547E+00 0.65238495E+03</pdfrwt>
<totfact> 0.44557635E+00</totfact>
</mgrwt>
</event>
<event>
 5    1  0.2369161E-004  0.5571064E+03  0.7818608E-02  0.9998623E-01
         13   -1    0    0    0    0  0.00000000000E+00  0.00000000000E+00  0.10000000000E+04  0.10000000000E+04  0.00000000000E+00 0. -1.
          2   -1    0    0  501    0 -0.00000000000E+00 -0.00000000000E+00 -0.77591878512E+02  0.77591878512E+02  0.00000000000E+00 0. -1.
    9000006    2    1    2  501    0  0.00000000000E+00  0.00000000000E+00  0.92240812149E+03  0.10775918785E+04  0.55710637588E+03 0.  0.
         13    1    3    3    0    0 -0.77272646196E+02 -0.14757332413E+03  0.29368934438E+02  0.16914928954E+03  0.00000000000E+00 0. -1.
          2    1    3    3  501    0  0.77272646196E+02  0.14757332413E+03  0.89303918705E+03  0.90844258897E+03  0.00000000000E+00 0. -1.
<mgrwt>
<rscale>  0 0.55710638E+03</rscale>
<asrwt>0</asrwt>
<pdfrwt beam="1">0</pdfrwt>
<pdfrwt beam="2">  1        2 0.28215288E+00 0.55710638E+03</pdfrwt>
<totfact> 0.10693551E+01</totfact>
</mgrwt>
</event>
<event>
 5    1  0.2369161E-004  0.6583374E+03  0.7818608E-02  0.9791259E-01
         13   -1    0    0    0    0  0.00000000000E+00  0.00000000000E+00  0.10000000000E+04  0.10000000000E+04  0.00000000000E+00 0. -1.
          2   -1    0    0  501    0 -0.00000000000E+00 -0.00000000000E+00 -0.10835203671E+03  0.10835203671E+03  0.00000000000E+00 0. -1.
    9000006    2    1    2  501    0  0.00000000000E+00  0.00000000000E+00  0.89164796329E+03  0.11083520367E+04  0.65833741108E+03 0.  0.
         13    1    3    3    0    0 -0.27620879096E+02  0.30134905192E+03  0.22775312217E+03  0.37874219294E+03  0.00000000000E+00 0. -1.
          2    1    3    3  501    0  0.27620879096E+02 -0.30134905192E+03  0.66389484112E+03  0.72960984377E+03  0.00000000000E+00 0. -1.
<mgrwt>
<rscale>  0 0.65833741E+03</rscale>
<asrwt>0</asrwt>
<pdfrwt beam="1">0</pdfrwt>
<pdfrwt beam="2">  1        2 0.39400824E+00 0.65833741E+03</pdfrwt>
<totfact> 0.41910890E+00</totfact>
</mgrwt>
</event>
<event>
 5    1  0.2369161E-004  0.6639634E+03  0.7818608E-02  0.9780925E-01
         13   -1    0    0    0    0  0.00000000000E+00  0.00000000000E+00  0.10000000000E+04  0.10000000000E+04  0.00000000000E+00 0. -1.
          2   -1    0    0  501    0 -0.00000000000E+00 -0.00000000000E+00 -0.11021184768E+03  0.11021184768E+03  0.00000000000E+00 0. -1.
    9000006    2    1    2  501    0  0.00000000000E+00  0.00000000000E+00  0.88978815232E+03  0.11102118477E+04  0.66396339560E+03 0.  0.
         13    1    3    3    0    0 -0.76960247189E+02 -0.25501859220E+03  0.77618258033E+03  0.82061974142E+03  0.00000000000E+00 0. -1.
          4    1    3    3  501    0  0.76960247189E+02  0.25501859220E+03  0.11360557200E+03  0.28959210625E+03  0.00000000000E+00 0. -1.
<mgrwt>
<rscale>  0 0.66396340E+03</rscale>
<asrwt>0</asrwt>
<pdfrwt beam="1">0</pdfrwt>
<pdfrwt beam="2">  1        2 0.40077120E+00 0.66396340E+03</pdfrwt>
<totfact> 0.39520298E+00</totfact>
</mgrwt>
</event>
<event>
 5    1  0.2369161E-004  0.6489968E+03  0.7818608E-02  0.9808663E-01
         13   -1    0    0    0    0  0.00000000000E+00  0.00000000000E+00  0.10000000000E+04  0.10000000000E+04  0.00000000000E+00 0. -1.
          2   -1    0    0  501    0 -0.00000000000E+00 -0.00000000000E+00 -0.10529922331E+03  0.10529922331E+03  0.00000000000E+00 0. -1.
    9000006    2    1    2  501    0  0.00000000000E+00  0.00000000000E+00  0.89470077669E+03  0.11052992233E+04  0.64899683608E+03 0.  0.
         13    1    3    3    0    0 -0.93474356697E+02 -0.31029979646E+03  0.47563418947E+03  0.57554435210E+03  0.00000000000E+00 0. -1.
          2    1    3    3  501    0  0.93474356697E+02  0.31029979646E+03  0.41906658722E+03  0.52975487121E+03  0.00000000000E+00 0. -1.
<mgrwt>
<rscale>  0 0.64899684E+03</rscale>
<asrwt>0</asrwt>
<pdfrwt beam="1">0</pdfrwt>
<pdfrwt beam="2">  1        2 0.38290707E+00 0.64899684E+03</pdfrwt>
<totfact> 0.46119439E+00</totfact>
</mgrwt>
</event>
<event>
 5    1  0.2369161E-004  0.6513473E+03  0.7818608E-02  0.9804254E-01
         13   -1    0    0    0    0  0.00000000000E+00  0.00000000000E+00  0.10000000000E+04  0.10000000000E+04  0.00000000000E+00 0. -1.
          2   -1    0    0  501    0 -0.00000000000E+00 -0.00000000000E+00 -0.10606333084E+03  0.10606333084E+03  0.00000000000E+00 0. -1.
    9000006    2    1    2  501    0  0.00000000000E+00  0.00000000000E+00  0.89393666916E+03  0.11060633308E+04  0.65134731393E+03 0.  0.
         13    1    3    3    0    0  0.69176371097E+02  0.99678655285E+02  0.96018757109E+03  0.96782300878E+03  0.00000000000E+00 0. -1.
          2    1    3    3  501    0 -0.69176371097E+02 -0.99678655285E+02 -0.66250901933E+02  0.13824032207E+03  0.00000000000E+00 0. -1.
<mgrwt>
<rscale>  0 0.65134731E+03</rscale>
<asrwt>0</asrwt>
<pdfrwt beam="1">0</pdfrwt>
<pdfrwt beam="2">  1        2 0.38568565E+00 0.65134731E+03</pdfrwt>
<totfact> 0.45031635E+00</totfact>
</mgrwt>
</event>
<event>
 5    1  0.2369161E-004  0.6467907E+03  0.7818608E-02  0.9812820E-01
         13   -1    0    0    0    0  0.00000000000E+00  0.00000000000E+00  0.10000000000E+04  0.10000000000E+04  0.00000000000E+00 0. -1.
          2   -1    0    0  501    0 -0.00000000000E+00 -0.00000000000E+00 -0.10458455573E+03  0.10458455573E+03  0.00000000000E+00 0. -1.
    9000006    2    1    2  501    0  0.00000000000E+00  0.00000000000E+00  0.89541544427E+03  0.11045845557E+04  0.64679071028E+03 0.  0.
         13    1    3    3    0    0 -0.83883557934E+02 -0.64446253072E+01 -0.85568396685E+02  0.11999972916E+03  0.00000000000E+00 0. -1.
          2    1    3    3  501    0  0.83883557934E+02  0.64446253072E+01  0.98098384096E+03  0.98458482657E+03  0.00000000000E+00 0. -1.
<mgrwt>
<rscale>  0 0.64679071E+03</rscale>
<asrwt>0</asrwt>
<pdfrwt beam="1">0</pdfrwt>
<pdfrwt beam="2">  1        2 0.38030828E+00 0.64679071E+03</pdfrwt>
<totfact> 0.47158396E+00</totfact>
</mgrwt>
</event>
<event>
 5    1  0.2369161E-004  0.6401052E+03  0.7818608E-02  0.9825525E-01
         13   -1    0    0    0    0  0.00000000000E+00  0.00000000000E+00  0.10000000000E+04  0.10000000000E+04  0.00000000000E+00 0. -1.
          2   -1    0    0  501    0 -0.00000000000E+00 -0.00000000000E+00 -0.10243366782E+03  0.10243366782E+03  0.00000000000E+00 0. -1.
    9000006    2    1    2  501    0  0.00000000000E+00  0.00000000000E+00  0.89756633218E+03  0.11024336678E+04  0.64010520330E+03 0.  0.
         13    1    3    3    0    0  0.27362220459E+03  0.15372007538E+03  0.34075010810E+03  0.46325976362E+03  0.00000000000E+00 0. -1.
          2    1    3    3  501    0 -0.27362220459E+03 -0.15372007538E+03  0.55681622407E+03  0.63917390420E+03  0.00000000000E+00 0. -1.
<mgrwt>
<rscale>  0 0.64010520E+03</rscale>
<asrwt>0</asrwt>
<pdfrwt beam="1">0</pdfrwt>
<pdfrwt beam="2">  1        2 0.37248685E+00 0.64010520E+03</pdfrwt>
<totfact> 0.50415389E+00</totfact>
</mgrwt>
</event>
<event>
 5    1  0.2369161E-004  0.6510589E+03  0.7818608E-02  0.9804794E-01
         13   -1    0    0    0    0  0.00000000000E+00  0.00000000000E+00  0.10000000000E+04  0.10000000000E+04  0.00000000000E+00 0. -1.
          2   -1    0    0  501    0 -0.00000000000E+00 -0.00000000000E+00 -0.10596942277E+03  0.10596942277E+03  0.00000000000E+00 0. -1.
    9000006    2    1    2  501    0  0.00000000000E+00  0.00000000000E+00  0.89403057723E+03  0.11059694228E+04  0.65105889986E+03 0.  0.
         13    1    3    3    0    0  0.23883005247E+03  0.19504296219E+03  0.62426859191E+03  0.69627065565E+03  0.00000000000E+00 0. -1.
          2    1    3    3  501    0 -0.23883005247E+03 -0.19504296219E+03  0.26976198531E+03  0.40969876713E+03  0.00000000000E+00 0. -1.
<mgrwt>
<rscale>  0 0.65105890E+03</rscale>
<asrwt>0</asrwt>
<pdfrwt beam="1">0</pdfrwt>
<pdfrwt beam="2">  1        2 0.38534417E+00 0.65105890E+03</pdfrwt>
<totfact> 0.45164059E+00</totfact>
</mgrwt>
</event>
<event>
 5    1  0.2369161E-004  0.5711890E+03  0.7818608E-02  0.9967051E-01
         13   -1    0    0    0    0  0.00000000000E+00  0.00000000000E+00  0.10000000000E+04  0.10000000000E+04  0.00000000000E+00 0. -1.
          2   -1    0    0  501    0 -0.00000000000E+00 -0.00000000000E+00 -0.81564205610E+02  0.81564205610E+02  0.00000000000E+00 0. -1.
    9000006    2    1    2  501    0  0.00000000000E+00  0.00000000000E+00  0.91843579439E+03  0.10815642056E+04  0.57118895511E+03 0.  0.
         13    1    3    3    0    0  0.13666479511E+03  0.24888629864E+03  0.51735115257E+03  0.59014732986E+03  0.00000000000E+00 0. -1.
          4    1    3    3  501    0 -0.13666479511E+03 -0.24888629864E+03  0.40108464182E+03  0.49141687576E+03  0.00000000000E+00 0. -1.
<mgrwt>
<rscale>  0 0.57118896E+03</rscale>
<asrwt>0</asrwt>
<pdfrwt beam="1">0</pdfrwt>
<pdfrwt beam="2">  1        2 0.29659774E+00 0.57118896E+03</pdfrwt>
<totfact> 0.94951450E+00</totfact>
</mgrwt>
</event>
<event>
 5    1  0.2369161E-004  0.5928179E+03  0.7818608E-02  0.9920420E-01
         13   -1    0    0    0    0  0.00000000000E+00  0.00000000000E+00  0.10000000000E+04  0.10000000000E+04  0.00000000000E+00 0. -1.
          2   -1    0    0  501    0 -0.00000000000E+00 -0.00000000000E+00 -0.87858268009E+02  0.87858268009E+02  0.00000000000E+00 0. -1.
    9000006    2    1    2  501    0  0.00000000000E+00  0.00000000000E+00  0.91214173199E+03  0.10878582680E+04  0.59281790799E+03 0.  0.
         13    1    3    3    0    0 -0.25906030775E+03 -0.43178507650E+02  0.70822777690E+03  0.75535634673E+03  0.00000000000E+00 0. -1.
          4    1    3    3  501    0  0.25906030775E+03  0.43178507650E+02  0.20391395509E+03  0.33250192128E+03  0.00000000000E+00 0. -1.
<mgrwt>
<rscale>  0 0.59281791E+03</rscale>
<asrwt>0</asrwt>
<pdfrwt beam="1">0</pdfrwt>
<pdfrwt beam="2">  1        2 0.31948528E+00 0.59281791E+03</pdfrwt>
<totfact> 0.78607076E+00</totfact>
</mgrwt>
</event>
<event>
 5    1  0.2369161E-004  0.6546620E+03  0.7818608E-02  0.9798070E-01
         13   -1    0    0    0    0  0.00000000000E+00  0.00000000000E+00  0.10000000000E+04  0.10000000000E+04  0.00000000000E+00 0. -1.
          2   -1    0    0  501    0 -0.00000000000E+00 -0.00000000000E+00 -0.10714558353E+03  0.10714558353E+03  0.00000000000E+00 0. -1.
    9000006    2    1    2  501    0  0.00000000000E+00  0.00000000000E+00  0.89285441647E+03  0.11071455835E+04  0.65466199989E+03 0.  0.
         13    1    3    3    0    0 -0.11834644558E+03  0.29372887604E+03  0.30632461571E+03  0.44058745329E+03  0.00000000000E+00 0. -1.
          2    1    3    3  501    0  0.11834644558E+03 -0.29372887604E+03  0.58652980076E+03  0.66655813024E+03  0.00000000000E+00 0. -1.
<mgrwt>
<rscale>  0 0.65466200E+03</rscale>
<asrwt>0</asrwt>
<pdfrwt beam="1">0</pdfrwt>
<pdfrwt beam="2">  1        2 0.38962113E+00 0.65466200E+03</pdfrwt>
<totfact> 0.43530676E+00</totfact>
</mgrwt>
</event>
<event>
 5    1  0.2369161E-004  0.6472556E+03  0.7818608E-02  0.9811943E-01
         13   -1    0    0    0    0  0.00000000000E+00  0.00000000000E+00  0.10000000000E+04  0.10000000000E+04  0.00000000000E+00 0. -1.
          2   -1    0    0  501    0 -0.00000000000E+00 -0.00000000000E+00 -0.10473494135E+03  0.10473494135E+03  0.00000000000E+00 0. -1.
    9000006    2    1    2  501    0  0.00000000000E+00  0.00000000000E+00  0.89526505865E+03  0.11047349414E+04  0.64725556422E+03 0.  0.
         13    1    3    3    0    0  0.17415858627E+03 -0.11748536901E+03  0.27465574577E+02  0.21186878696E+03  0.00000000000E+00 0. -1.
          2    1    3    3  501    0 -0.17415858627E+03  0.11748536901E+03  0.86779948407E+03  0.89286615439E+03  0.00000000000E+00 0. -1.
<mgrwt>
<rscale>  0 0.64725556E+03</rscale>
<asrwt>0</asrwt>
<pdfrwt beam="1">0</pdfrwt>
<pdfrwt beam="2">  1        2 0.38085514E+00 0.64725556E+03</pdfrwt>
<totfact> 0.46938020E+00</totfact>
</mgrwt>
</event>
<event>
 5    1  0.2369161E-004  0.6431697E+03  0.7818608E-02  0.9819681E-01
         13   -1    0    0    0    0  0.00000000000E+00  0.00000000000E+00  0.10000000000E+04  0.10000000000E+04  0.00000000000E+00 0. -1.
          2   -1    0    0  501    0 -0.00000000000E+00 -0.00000000000E+00 -0.10341680682E+03  0.10341680682E+03  0.00000000000E+00 0. -1.
    9000006    2    1    2  501    0  0.00000000000E+00  0.00000000000E+00  0.89658319318E+03  0.11034168068E+04  0.64316967222E+03 0.  0.
         13    1    3    3    0    0 -0.25352621540E+03  0.17214800517E+02  0.11016360265E+03  0.27696192987E+03  0.00000000000E+00 0. -1.
          4    1    3    3  501    0  0.25352621540E+03 -0.17214800517E+02  0.78641959053E+03  0.82645487694E+03  0.00000000000E+00 0. -1.
<mgrwt>
<rscale>  0 0.64316967E+03</rscale>
<asrwt>0</asrwt>
<pdfrwt beam="1">0</pdfrwt>
<pdfrwt beam="2">  1        2 0.37606191E+00 0.64316967E+03</pdfrwt>
<totfact> 0.48901957E+00</totfact>
</mgrwt>
</event>
<event>
 5    1  0.2369161E-004  0.6296496E+03  0.7818608E-02  0.9845733E-01
         13   -1    0    0    0    0  0.00000000000E+00  0.00000000000E+00  0.10000000000E+04  0.10000000000E+04  0.00000000000E+00 0. -1.
          2   -1    0    0  501    0 -0.00000000000E+00 -0.00000000000E+00 -0.99114648307E+02  0.99114648307E+02  0.00000000000E+00 0. -1.
    9000006    2    1    2  501    0  0.00000000000E+00  0.00000000000E+00  0.90088535169E+03  0.10991146483E+04  0.62964957971E+03 0.  0.
         13    1    3    3    0    0  0.19243203864E+02  0.85875532565E+02  0.97809186296E+03  0.98204307460E+03  0.00000000000E+00 0. -1.
          4    1    3    3  501    0 -0.19243203864E+02 -0.85875532565E+02 -0.77206511264E+02  0.11707157371E+03  0.00000000000E+00 0. -1.
<mgrwt>
<rscale>  0 0.62964958E+03</rscale>
<asrwt>0</asrwt>
<pdfrwt beam="1">0</pdfrwt>
<pdfrwt beam="2">  1        2 0.36041766E+00 0.62964958E+03</pdfrwt>
<totfact> 0.55847610E+00</totfact>
</mgrwt>
</event>
<event>
 5    1  0.2369161E-004  0.6503234E+03  0.7818608E-02  0.9806172E-01
         13   -1    0    0    0    0  0.00000000000E+00  0.00000000000E+00  0.10000000000E+04  0.10000000000E+04  0.00000000000E+00 0. -1.
          2   -1    0    0  501    0 -0.00000000000E+00 -0.00000000000E+00 -0.10573013881E+03  0.10573013881E+03  0.00000000000E+00 0. -1.
    9000006    2    1    2  501    0  0.00000000000E+00  0.00000000000E+00  0.89426986119E+03  0.11057301388E+04  0.65032342356E+03 0.  0.
         13    1    3    3    0    0  0.11986242453E+03  0.83229485809E+02 -0.46929458404E+02  0.15328575338E+03  0.00000000000E+00 0. -1.
          4    1    3    3  501    0 -0.11986242453E+03 -0.83229485809E+02  0.94119931960E+03  0.95244438543E+03  0.00000000000E+00 0. -1.
<mgrwt>
<rscale>  0 0.65032342E+03</rscale>
<asrwt>0</asrwt>
<pdfrwt beam="1">0</pdfrwt>
<pdfrwt beam="2">  1        2 0.38447404E+00 0.65032342E+03</pdfrwt>
<totfact> 0.45503081E+00</totfact>
</mgrwt>
</event>
<event>
 5    1  0.2369161E-004  0.6503685E+03  0.7818608E-02  0.9806088E-01
         13   -1    0    0    0    0  0.00000000000E+00  0.00000000000E+00  0.10000000000E+04  0.10000000000E+04  0.00000000000E+00 0. -1.
          2   -1    0    0  501    0 -0.00000000000E+00 -0.00000000000E+00 -0.10574478206E+03  0.10574478206E+03  0.00000000000E+00 0. -1.
    9000006    2    1    2  501    0  0.00000000000E+00  0.00000000000E+00  0.89425521794E+03  0.11057447821E+04  0.65036845576E+03 0.  0.
         13    1    3    3    0    0 -0.29034913827E+03 -0.13773267393E+03  0.53165710642E+03  0.62123440855E+03  0.00000000000E+00 0. -1.
          4    1    3    3  501    0  0.29034913827E+03  0.13773267393E+03  0.36259811151E+03  0.48451037351E+03  0.00000000000E+00 0. -1.
<mgrwt>
<rscale>  0 0.65036846E+03</rscale>
<asrwt>0</asrwt>
<pdfrwt beam="1">0</pdfrwt>
<pdfrwt beam="2">  1        2 0.38452729E+00 0.65036846E+03</pdfrwt>
<totfact> 0.45482268E+00</totfact>
</mgrwt>
</event>
<event>
 5    1  0.2369161E-004  0.6484871E+03  0.7818608E-02  0.9809622E-01
         13   -1    0    0    0    0  0.00000000000E+00  0.00000000000E+00  0.10000000000E+04  0.10000000000E+04  0.00000000000E+00 0. -1.
          2   -1    0    0  501    0 -0.00000000000E+00 -0.00000000000E+00 -0.10513388325E+03  0.10513388325E+03  0.00000000000E+00 0. -1.
    9000006    2    1    2  501    0  0.00000000000E+00  0.00000000000E+00  0.89486611675E+03  0.11051338833E+04  0.64848711091E+03 0.  0.
         13    1    3    3    0    0 -0.20309296244E+03 -0.46818343744E+02  0.24141951237E+02  0.20981311330E+03  0.00000000000E+00 0. -1.
          4    1    3    3  501    0  0.20309296244E+03  0.46818343744E+02  0.87072416551E+03  0.89532076995E+03  0.00000000000E+00 0. -1.
<mgrwt>
<rscale>  0 0.64848711E+03</rscale>
<asrwt>0</asrwt>
<pdfrwt beam="1">0</pdfrwt>
<pdfrwt beam="2">  1        2 0.38230584E+00 0.64848711E+03</pdfrwt>
<totfact> 0.46357937E+00</totfact>
</mgrwt>
</event>
<event>
 5    1  0.2369161E-004  0.6369748E+03  0.7818608E-02  0.9831532E-01
         13   -1    0    0    0    0  0.00000000000E+00  0.00000000000E+00  0.10000000000E+04  0.10000000000E+04  0.00000000000E+00 0. -1.
          4   -1    0    0  501    0 -0.00000000000E+00 -0.00000000000E+00 -0.10143422422E+03  0.10143422422E+03  0.00000000000E+00 0. -1.
    9000006    2    1    2  501    0  0.00000000000E+00  0.00000000000E+00  0.89856577578E+03  0.11014342242E+04  0.63697480081E+03 0.  0.
         13    1    3    3    0    0  0.25196043108E+03  0.19441015969E+03  0.42776502166E+03  0.53316252942E+03  0.00000000000E+00 0. -1.
          2    1    3    3  501    0 -0.25196043108E+03 -0.19441015969E+03  0.47080075413E+03  0.56827169480E+03  0.00000000000E+00 0. -1.
<mgrwt>
<rscale>  0 0.63697480E+03</rscale>
<asrwt>0</asrwt>
<pdfrwt beam="1">0</pdfrwt>
<pdfrwt beam="2">  1        4 0.36885250E+00 0.63697480E+03</pdfrwt>
<totfact> 0.52065558E-02</totfact>
</mgrwt>
</event>
<event>
 5    1  0.2369161E-004  0.6563313E+03  0.7818608E-02  0.9794971E-01
         13   -1    0    0    0    0  0.00000000000E+00  0.00000000000E+00  0.10000000000E+04  0.10000000000E+04  0.00000000000E+00 0. -1.
          2   -1    0    0  501    0 -0.00000000000E+00 -0.00000000000E+00 -0.10769269538E+03  0.10769269538E+03  0.00000000000E+00 0. -1.
    9000006    2    1    2  501    0  0.00000000000E+00  0.00000000000E+00  0.89230730462E+03  0.11076926954E+04  0.65633130470E+03 0.  0.
         13    1    3    3    0    0  0.79204423877E+02  0.23706053179E+03  0.80505031307E+03  0.84295731983E+03  0.00000000000E+00 0. -1.
          4    1    3    3  501    0 -0.79204423877E+02 -0.23706053179E+03  0.87256991551E+02  0.26473537555E+03  0.00000000000E+00 0. -1.
<mgrwt>
<rscale>  0 0.65633130E+03</rscale>
<asrwt>0</asrwt>
<pdfrwt beam="1">0</pdfrwt>
<pdfrwt beam="2">  1        2 0.39161063E+00 0.65633130E+03</pdfrwt>
<totfact> 0.42789246E+00</totfact>
</mgrwt>
</event>
<event>
 5    1  0.2369161E-004  0.6517559E+03  0.7818608E-02  0.9803490E-01
         13   -1    0    0    0    0  0.00000000000E+00  0.00000000000E+00  0.10000000000E+04  0.10000000000E+04  0.00000000000E+00 0. -1.
          2   -1    0    0  501    0 -0.00000000000E+00 -0.00000000000E+00 -0.10619644968E+03  0.10619644968E+03  0.00000000000E+00 0. -1.
    9000006    2    1    2  501    0  0.00000000000E+00  0.00000000000E+00  0.89380355032E+03  0.11061964497E+04  0.65175593494E+03 0.  0.
         13    1    3    3    0    0 -0.28233978110E+03  0.14656197373E+03  0.32688424958E+03  0.45612440931E+03  0.00000000000E+00 0. -1.
          4    1    3    3  501    0  0.28233978110E+03 -0.14656197373E+03  0.56691930073E+03  0.65007204038E+03  0.00000000000E+00 0. -1.
<mgrwt>
<rscale>  0 0.65175593E+03</rscale>
<asrwt>0</asrwt>
<pdfrwt beam="1">0</pdfrwt>
<pdfrwt beam="2">  1        2 0.38616972E+00 0.65175593E+03</pdfrwt>
<totfact> 0.44844522E+00</totfact>
</mgrwt>
</event>
<event>
 5    1  0.2369161E-004  0.6518040E+03  0.7818608E-02  0.9803400E-01
         13   -1    0    0    0    0  0.00000000000E+00  0.00000000000E+00  0.10000000000E+04  0.10000000000E+04  0.00000000000E+00 0. -1.
          2   -1    0    0  501    0 -0.00000000000E+00 -0.00000000000E+00 -0.10621211333E+03  0.10621211333E+03  0.00000000000E+00 0. -1.
    9000006    2    1    2  501    0  0.00000000000E+00  0.00000000000E+00  0.89378788667E+03  0.11062121133E+04  0.65180399916E+03 0.  0.
         13    1    3    3    0    0 -0.16746859654E+03 -0.26409436876E+03  0.60263084791E+03  0.67893704074E+03  0.00000000000E+00 0. -1.
          4    1    3    3  501    0  0.16746859654E+03  0.26409436876E+03  0.29115703876E+03  0.42727507259E+03  0.00000000000E+00 0. -1.
<mgrwt>
<rscale>  0 0.65180400E+03</rscale>
<asrwt>0</asrwt>
<pdfrwt beam="1">0</pdfrwt>
<pdfrwt beam="2">  1        2 0.38622668E+00 0.65180400E+03</pdfrwt>
<totfact> 0.44822551E+00</totfact>
</mgrwt>
</event>
<event>
 5    1  0.2369161E-004  0.6513272E+03  0.7818608E-02  0.9804292E-01
         13   -1    0    0    0    0  0.00000000000E+00  0.00000000000E+00  0.10000000000E+04  0.10000000000E+04  0.00000000000E+00 0. -1.
          2   -1    0    0  501    0 -0.00000000000E+00 -0.00000000000E+00 -0.10605677496E+03  0.10605677496E+03  0.00000000000E+00 0. -1.
    9000006    2    1    2  501    0  0.00000000000E+00  0.00000000000E+00  0.89394322504E+03  0.11060567750E+04  0.65132718340E+03 0.  0.
         13    1    3    3    0    0  0.13815236139E+03 -0.25530384875E+03  0.69764790174E+03  0.75563134196E+03  0.00000000000E+00 0. -1.
          4    1    3    3  501    0 -0.13815236139E+03  0.25530384875E+03  0.19629532330E+03  0.35042543300E+03  0.00000000000E+00 0. -1.
<mgrwt>
<rscale>  0 0.65132718E+03</rscale>
<asrwt>0</asrwt>
<pdfrwt beam="1">0</pdfrwt>
<pdfrwt beam="2">  1        2 0.38566181E+00 0.65132718E+03</pdfrwt>
<totfact> 0.45040869E+00</totfact>
</mgrwt>
</event>
<event>
 5    1  0.2369161E-004  0.6545253E+03  0.7818608E-02  0.9798325E-01
         13   -1    0    0    0    0  0.00000000000E+00  0.00000000000E+00  0.10000000000E+04  0.10000000000E+04  0.00000000000E+00 0. -1.
          2   -1    0    0  501    0 -0.00000000000E+00 -0.00000000000E+00 -0.10710083930E+03  0.10710083930E+03  0.00000000000E+00 0. -1.
    9000006    2    1    2  501    0  0.00000000000E+00  0.00000000000E+00  0.89289916070E+03  0.11071008393E+04  0.65452529149E+03 0.  0.
         13    1    3    3    0    0  0.10940233184E+03 -0.23664492229E+03  0.78104658748E+03  0.82340965580E+03  0.00000000000E+00 0. -1.
          4    1    3    3  501    0 -0.10940233184E+03  0.23664492229E+03  0.11185257322E+03  0.28369118350E+03  0.00000000000E+00 0. -1.
<mgrwt>
<rscale>  0 0.65452529E+03</rscale>
<asrwt>0</asrwt>
<pdfrwt beam="1">0</pdfrwt>
<pdfrwt beam="2">  1        2 0.38945842E+00 0.65452529E+03</pdfrwt>
<totfact> 0.43591823E+00</totfact>
</mgrwt>
</event>
<event>
 5    1  0.2369161E-004  0.5980491E+03  0.7818608E-02  0.9909462E-01
         13   -1    0    0    0    0  0.00000000000E+00  0.00000000000E+00  0.10000000000E+04  0.10000000000E+04  0.00000000000E+00 0. -1.
          2   -1    0    0  501    0 -0.00000000000E+00 -0.00000000000E+00 -0.89415690773E+02  0.89415690773E+02  0.00000000000E+00 0. -1.
    9000006    2    1    2  501    0  0.00000000000E+00  0.00000000000E+00  0.91058430923E+03  0.10894156908E+04  0.59804913100E+03 0.  0.
         13    1    3    3    0    0  0.22569780406E+03  0.16590365857E+03  0.26465532242E+03  0.38536471344E+03  0.00000000000E+00 0. -1.
          2    1    3    3  501    0 -0.22569780406E+03 -0.16590365857E+03  0.64592898680E+03  0.70405097733E+03  0.00000000000E+00 0. -1.
<mgrwt>
<rscale>  0 0.59804913E+03</rscale>
<asrwt>0</asrwt>
<pdfrwt beam="1">0</pdfrwt>
<pdfrwt beam="2">  1        2 0.32514865E+00 0.59804913E+03</pdfrwt>
<totfact> 0.75003407E+00</totfact>
</mgrwt>
</event>
<event>
 5    1  0.2369161E-004  0.6378756E+03  0.7818608E-02  0.9829800E-01
         13   -1    0    0    0    0  0.00000000000E+00  0.00000000000E+00  0.10000000000E+04  0.10000000000E+04  0.00000000000E+00 0. -1.
          2   -1    0    0  501    0 -0.00000000000E+00 -0.00000000000E+00 -0.10172131373E+03  0.10172131373E+03  0.00000000000E+00 0. -1.
    9000006    2    1    2  501    0  0.00000000000E+00  0.00000000000E+00  0.89827868627E+03  0.11017213137E+04  0.63787557950E+03 0.  0.
         13    1    3    3    0    0  0.17077811439E+03  0.19669105005E+03  0.76699910468E+03  0.81002478981E+03  0.00000000000E+00 0. -1.
          2    1    3    3  501    0 -0.17077811439E+03 -0.19669105005E+03  0.13127958159E+03  0.29169652392E+03  0.00000000000E+00 0. -1.
<mgrwt>
<rscale>  0 0.63787558E+03</rscale>
<asrwt>0</asrwt>
<pdfrwt beam="1">0</pdfrwt>
<pdfrwt beam="2">  1        2 0.36989647E+00 0.63787558E+03</pdfrwt>
<totfact> 0.51538632E+00</totfact>
</mgrwt>
</event>
<event>
 5    1  0.2369161E-004  0.6510507E+03  0.7818608E-02  0.9804810E-01
         13   -1    0    0    0    0  0.00000000000E+00  0.00000000000E+00  0.10000000000E+04  0.10000000000E+04  0.00000000000E+00 0. -1.
          2   -1    0    0  501    0 -0.00000000000E+00 -0.00000000000E+00 -0.10596674711E+03  0.10596674711E+03  0.00000000000E+00 0. -1.
    9000006    2    1    2  501    0  0.00000000000E+00  0.00000000000E+00  0.89403325289E+03  0.11059667471E+04  0.65105068039E+03 0.  0.
         13    1    3    3    0    0  0.19568704885E+03  0.24527734546E+03  0.29978023198E+03  0.43396150149E+03  0.00000000000E+00 0. -1.
          2    1    3    3  501    0 -0.19568704885E+03 -0.24527734546E+03  0.59425302091E+03  0.67200524562E+03  0.00000000000E+00 0. -1.
<mgrwt>
<rscale>  0 0.65105068E+03</rscale>
<asrwt>0</asrwt>
<pdfrwt beam="1">0</pdfrwt>
<pdfrwt beam="2">  1        2 0.38533444E+00 0.65105068E+03</pdfrwt>
<totfact> 0.45167837E+00</totfact>
</mgrwt>
</event>
<event>
 5    1  0.2369161E-004  0.6191072E+03  0.7818608E-02  0.9866539E-01
         13   -1    0    0    0    0  0.00000000000E+00  0.00000000000E+00  0.10000000000E+04  0.10000000000E+04  0.00000000000E+00 0. -1.
          2   -1    0    0  501    0 -0.00000000000E+00 -0.00000000000E+00 -0.95823430759E+02  0.95823430759E+02  0.00000000000E+00 0. -1.
    9000006    2    1    2  501    0  0.00000000000E+00  0.00000000000E+00  0.90417656924E+03  0.10958234308E+04  0.61910719834E+03 0.  0.
         13    1    3    3    0    0 -0.30689983627E+03  0.30133960768E+01  0.52347990560E+03  0.60681776641E+03  0.00000000000E+00 0. -1.
          4    1    3    3  501    0  0.30689983627E+03 -0.30133960768E+01  0.38069666364E+03  0.48900566435E+03  0.00000000000E+00 0. -1.
<mgrwt>
<rscale>  0 0.61910720E+03</rscale>
<asrwt>0</asrwt>
<pdfrwt beam="1">0</pdfrwt>
<pdfrwt beam="2">  1        2 0.34844957E+00 0.61910720E+03</pdfrwt>
<totfact> 0.61764056E+00</totfact>
</mgrwt>
</event>
<event>
 5    1  0.2369161E-004  0.6007658E+03  0.7818608E-02  0.9903819E-01
         13   -1    0    0    0    0  0.00000000000E+00  0.00000000000E+00  0.10000000000E+04  0.10000000000E+04  0.00000000000E+00 0. -1.
          2   -1    0    0  501    0 -0.00000000000E+00 -0.00000000000E+00 -0.90229881443E+02  0.90229881443E+02  0.00000000000E+00 0. -1.
    9000006    2    1    2  501    0  0.00000000000E+00  0.00000000000E+00  0.90977011856E+03  0.10902298814E+04  0.60076578279E+03 0.  0.
         13    1    3    3    0    0 -0.34256541335E+02  0.51235673071E+01  0.99636375134E+03  0.99696563961E+03  0.00000000000E+00 0. -1.
          4    1    3    3  501    0  0.34256541335E+02 -0.51235673071E+01 -0.86593632787E+02  0.93264241837E+02  0.00000000000E+00 0. -1.
<mgrwt>
<rscale>  0 0.60076578E+03</rscale>
<asrwt>0</asrwt>
<pdfrwt beam="1">0</pdfrwt>
<pdfrwt beam="2">  1        2 0.32810935E+00 0.60076578E+03</pdfrwt>
<totfact> 0.73183519E+00</totfact>
</mgrwt>
</event>
<event>
 5    1  0.2369161E-004  0.6508423E+03  0.7818608E-02  0.9805200E-01
         13   -1    0    0    0    0  0.00000000000E+00  0.00000000000E+00  0.10000000000E+04  0.10000000000E+04  0.00000000000E+00 0. -1.
          2   -1    0    0  501    0 -0.00000000000E+00 -0.00000000000E+00 -0.10589893297E+03  0.10589893297E+03  0.00000000000E+00 0. -1.
    9000006    2    1    2  501    0  0.00000000000E+00  0.00000000000E+00  0.89410106703E+03  0.11058989330E+04  0.65084232490E+03 0.  0.
         13    1    3    3    0    0  0.13178215585E+03 -0.24496148614E+03  0.73403746467E+03  0.78497367206E+03  0.00000000000E+00 0. -1.
          4    1    3    3  501    0 -0.13178215585E+03  0.24496148614E+03  0.16006360236E+03  0.32092526091E+03  0.00000000000E+00 0. -1.
<mgrwt>
<rscale>  0 0.65084232E+03</rscale>
<asrwt>0</asrwt>
<pdfrwt beam="1">0</pdfrwt>
<pdfrwt beam="2">  1        2 0.38508784E+00 0.65084232E+03</pdfrwt>
<totfact> 0.45263692E+00</totfact>
</mgrwt>
</event>
<event>
 5    1  0.2369161E-004  0.6293852E+03  0.7818608E-02  0.9846249E-01
         13   -1    0    0    0    0  0.00000000000E+00  0.00000000000E+00  0.10000000000E+04  0.10000000000E+04  0.00000000000E+00 0. -1.
          2   -1    0    0  501    0 -0.00000000000E+00 -0.00000000000E+00 -0.99031433504E+02  0.99031433504E+02  0.00000000000E+00 0. -1.
    9000006    2    1    2  501    0  0.00000000000E+00  0.00000000000E+00  0.90096856650E+03  0.10990314335E+04  0.62938520321E+03 0.  0.
         13    1    3    3    0    0  0.23475237262E+03  0.19890916837E+03  0.56575850669E+03  0.64401569981E+03  0.00000000000E+00 0. -1.
          4    1    3    3  501    0 -0.23475237262E+03 -0.19890916837E+03  0.33521005980E+03  0.45501573369E+03  0.00000000000E+00 0. -1.
<mgrwt>
<rscale>  0 0.62938520E+03</rscale>
<asrwt>0</asrwt>
<pdfrwt beam="1">0</pdfrwt>
<pdfrwt beam="2">  1        2 0.36011506E+00 0.62938520E+03</pdfrwt>
<totfact> 0.55990482E+00</totfact>
</mgrwt>
</event>
<event>
 5    1  0.2369161E-004  0.6342754E+03  0.7818608E-02  0.9836741E-01
         13   -1    0    0    0    0  0.00000000000E+00  0.00000000000E+00  0.10000000000E+04  0.10000000000E+04  0.00000000000E+00 0. -1.
          2   -1    0    0  501    0 -0.00000000000E+00 -0.00000000000E+00 -0.10057631503E+03  0.10057631503E+03  0.00000000000E+00 0. -1.
    9000006    2    1    2  501    0  0.00000000000E+00  0.00000000000E+00  0.89942368497E+03  0.11005763150E+04  0.63427538194E+03 0.  0.
         13    1    3    3    0    0 -0.11182110363E+03  0.14464236973E+03  0.68303524820E-01  0.18282608950E+03  0.00000000000E+00 0. -1.
          2    1    3    3  501    0  0.11182110363E+03 -0.14464236973E+03  0.89935538144E+03  0.91775022553E+03  0.00000000000E+00 0. -1.
<mgrwt>
<rscale>  0 0.63427538E+03</rscale>
<asrwt>0</asrwt>
<pdfrwt beam="1">0</pdfrwt>
<pdfrwt beam="2">  1        2 0.36573283E+00 0.63427538E+03</pdfrwt>
<totfact> 0.53392249E+00</totfact>
</mgrwt>
</event>
<event>
 5    1  0.2369161E-004  0.6319400E+03  0.7818608E-02  0.9841270E-01
         13   -1    0    0    0    0  0.00000000000E+00  0.00000000000E+00  0.10000000000E+04  0.10000000000E+04  0.00000000000E+00 0. -1.
          2   -1    0    0  501    0 -0.00000000000E+00 -0.00000000000E+00 -0.99837041538E+02  0.99837041538E+02  0.00000000000E+00 0. -1.
    9000006    2    1    2  501    0  0.00000000000E+00  0.00000000000E+00  0.90016295846E+03  0.10998370415E+04  0.63194000202E+03 0.  0.
         13    1    3    3    0    0 -0.11291533410E+01 -0.29305959477E+03  0.65565550738E+03  0.71817083304E+03  0.00000000000E+00 0. -1.
          4    1    3    3  501    0  0.11291533410E+01  0.29305959477E+03  0.24450745109E+03  0.38166620850E+03  0.00000000000E+00 0. -1.
<mgrwt>
<rscale>  0 0.63194000E+03</rscale>
<asrwt>0</asrwt>
<pdfrwt beam="1">0</pdfrwt>
<pdfrwt beam="2">  1        2 0.36304455E+00 0.63194000E+03</pdfrwt>
<totfact> 0.54621392E+00</totfact>
</mgrwt>
</event>
<event>
 5    1  0.2369161E-004  0.6559639E+03  0.7818608E-02  0.9795652E-01
         13   -1    0    0    0    0  0.00000000000E+00  0.00000000000E+00  0.10000000000E+04  0.10000000000E+04  0.00000000000E+00 0. -1.
          2   -1    0    0  501    0 -0.00000000000E+00 -0.00000000000E+00 -0.10757217466E+03  0.10757217466E+03  0.00000000000E+00 0. -1.
    9000006    2    1    2  501    0  0.00000000000E+00  0.00000000000E+00  0.89242782534E+03  0.11075721747E+04  0.65596394615E+03 0.  0.
         13    1    3    3    0    0  0.85531778337E+02  0.23728351568E+02 -0.86906596367E+02  0.12422349321E+03  0.00000000000E+00 0. -1.
          2    1    3    3  501    0 -0.85531778337E+02 -0.23728351568E+02  0.97933442171E+03  0.98334868145E+03  0.00000000000E+00 0. -1.
<mgrwt>
<rscale>  0 0.65596395E+03</rscale>
<asrwt>0</asrwt>
<pdfrwt beam="1">0</pdfrwt>
<pdfrwt beam="2">  1        2 0.39117237E+00 0.65596395E+03</pdfrwt>
<totfact> 0.42951586E+00</totfact>
</mgrwt>
</event>
<event>
 5    1  0.2369161E-004  0.6571305E+03  0.7818608E-02  0.9793491E-01
         13   -1    0    0    0    0  0.00000000000E+00  0.00000000000E+00  0.10000000000E+04  0.10000000000E+04  0.00000000000E+00 0. -1.
          2   -1    0    0  501    0 -0.00000000000E+00 -0.00000000000E+00 -0.10795512560E+03  0.10795512560E+03  0.00000000000E+00 0. -1.
    9000006    2    1    2  501    0  0.00000000000E+00  0.00000000000E+00  0.89204487440E+03  0.11079551256E+04  0.65713050637E+03 0.  0.
         13    1    3    3    0    0 -0.31289665444E+03  0.98628373965E+02  0.47633634210E+03  0.57838411399E+03  0.00000000000E+00 0. -1.
          2    1    3    3  501    0  0.31289665444E+03 -0.98628373965E+02  0.41570853230E+03  0.52957101161E+03  0.00000000000E+00 0. -1.
<mgrwt>
<rscale>  0 0.65713051E+03</rscale>
<asrwt>0</asrwt>
<pdfrwt beam="1">0</pdfrwt>
<pdfrwt beam="2">  1        2 0.39256492E+00 0.65713051E+03</pdfrwt>
<totfact> 0.42437672E+00</totfact>
</mgrwt>
</event>
<event>
 5    1  0.2369161E-004  0.6534417E+03  0.7818608E-02  0.9800342E-01
         13   -1    0    0    0    0  0.00000000000E+00  0.00000000000E+00  0.10000000000E+04  0.10000000000E+04  0.00000000000E+00 0. -1.
          2   -1    0    0  501    0 -0.00000000000E+00 -0.00000000000E+00 -0.10674650433E+03  0.10674650433E+03  0.00000000000E+00 0. -1.
    9000006    2    1    2  501    0  0.00000000000E+00  0.00000000000E+00  0.89325349567E+03  0.11067465043E+04  0.65344167095E+03 0.  0.
         13    1    3    3    0    0  0.14398007343E+03  0.22547294211E+03  0.12895535346E+03  0.29698113131E+03  0.00000000000E+00 0. -1.
          2    1    3    3  501    0 -0.14398007343E+03 -0.22547294211E+03  0.76429814221E+03  0.80976537302E+03  0.00000000000E+00 0. -1.
<mgrwt>
<rscale>  0 0.65344167E+03</rscale>
<asrwt>0</asrwt>
<pdfrwt beam="1">0</pdfrwt>
<pdfrwt beam="2">  1        2 0.38816993E+00 0.65344167E+03</pdfrwt>
<totfact> 0.44078800E+00</totfact>
</mgrwt>
</event>
<event>
 5    1  0.2369161E-004  0.6547841E+03  0.7818608E-02  0.9797843E-01
         13   -1    0    0    0    0  0.00000000000E+00  0.00000000000E+00  0.10000000000E+04  0.10000000000E+04  0.00000000000E+00 0. -1.
          2   -1    0    0  501    0 -0.00000000000E+00 -0.00000000000E+00 -0.10718556467E+03  0.10718556467E+03  0.00000000000E+00 0. -1.
    9000006    2    1    2  501    0  0.00000000000E+00  0.00000000000E+00  0.89281443533E+03  0.11071855647E+04  0.65478413136E+03 0.  0.
         13    1    3    3    0    0 -0.31513904413E+03  0.36724758628E+02  0.30982718211E+03  0.44345710932E+03  0.00000000000E+00 0. -1.
          4    1    3    3  501    0  0.31513904413E+03 -0.36724758628E+02  0.58298725322E+03  0.66372845535E+03  0.00000000000E+00 0. -1.
<mgrwt>
<rscale>  0 0.65478413E+03</rscale>
<asrwt>0</asrwt>
<pdfrwt beam="1">0</pdfrwt>
<pdfrwt beam="2">  1        2 0.38976651E+00 0.65478413E+03</pdfrwt>
<totfact> 0.43476105E+00</totfact>
</mgrwt>
</event>
<event>
 5    1  0.2369161E-004  0.6537439E+03  0.7818608E-02  0.9799779E-01
         13   -1    0    0    0    0  0.00000000000E+00  0.00000000000E+00  0.10000000000E+04  0.10000000000E+04  0.00000000000E+00 0. -1.
          2   -1    0    0  501    0 -0.00000000000E+00 -0.00000000000E+00 -0.10684527086E+03  0.10684527086E+03  0.00000000000E+00 0. -1.
    9000006    2    1    2  501    0  0.00000000000E+00  0.00000000000E+00  0.89315472914E+03  0.11068452709E+04  0.65374389743E+03 0.  0.
         13    1    3    3    0    0 -0.16844423646E+03 -0.23659309686E+03  0.70051510524E+03  0.75833446905E+03  0.00000000000E+00 0. -1.
          4    1    3    3  501    0  0.16844423646E+03  0.23659309686E+03  0.19263962390E+03  0.34851080180E+03  0.00000000000E+00 0. -1.
<mgrwt>
<rscale>  0 0.65374390E+03</rscale>
<asrwt>0</asrwt>
<pdfrwt beam="1">0</pdfrwt>
<pdfrwt beam="2">  1        2 0.38852908E+00 0.65374390E+03</pdfrwt>
<totfact> 0.43942569E+00</totfact>
</mgrwt>
</event>
<event>
 5    1  0.2369161E-004  0.5706926E+03  0.7818608E-02  0.9968147E-01
         13   -1    0    0    0    0  0.00000000000E+00  0.00000000000E+00  0.10000000000E+04  0.10000000000E+04  0.00000000000E+00 0. -1.
          2   -1    0    0  501    0 -0.00000000000E+00 -0.00000000000E+00 -0.81422506594E+02  0.81422506594E+02  0.00000000000E+00 0. -1.
    9000006    2    1    2  501    0  0.00000000000E+00  0.00000000000E+00  0.91857749341E+03  0.10814225066E+04  0.57069258483E+03 0.  0.
         13    1    3    3    0    0 -0.25474743453E+03  0.12308902710E+03  0.38901410786E+03  0.48101885629E+03  0.00000000000E+00 0. -1.
          4    1    3    3  501    0  0.25474743453E+03 -0.12308902710E+03  0.52956338555E+03  0.60040365031E+03  0.00000000000E+00 0. -1.
<mgrwt>
<rscale>  0 0.57069258E+03</rscale>
<asrwt>0</asrwt>
<pdfrwt beam="1">0</pdfrwt>
<pdfrwt beam="2">  1        2 0.29608247E+00 0.57069258E+03</pdfrwt>
<totfact> 0.95355148E+00</totfact>
</mgrwt>
</event>
<event>
 5    1  0.2369161E-004  0.6554402E+03  0.7818608E-02  0.9796624E-01
         13   -1    0    0    0    0  0.00000000000E+00  0.00000000000E+00  0.10000000000E+04  0.10000000000E+04  0.00000000000E+00 0. -1.
          2   -1    0    0  501    0 -0.00000000000E+00 -0.00000000000E+00 -0.10740047245E+03  0.10740047245E+03  0.00000000000E+00 0. -1.
    9000006    2    1    2  501    0  0.00000000000E+00  0.00000000000E+00  0.89259952755E+03  0.11074004724E+04  0.65544022594E+03 0.  0.
         13    1    3    3    0    0 -0.59118220235E+02  0.31488255531E+03  0.32980045557E+03  0.45979813842E+03  0.00000000000E+00 0. -1.
          4    1    3    3  501    0  0.59118220235E+02 -0.31488255531E+03  0.56279907199E+03  0.64760233402E+03  0.00000000000E+00 0. -1.
<mgrwt>
<rscale>  0 0.65544023E+03</rscale>
<asrwt>0</asrwt>
<pdfrwt beam="1">0</pdfrwt>
<pdfrwt beam="2">  1        2 0.39054800E+00 0.65544023E+03</pdfrwt>
<totfact> 0.43183826E+00</totfact>
</mgrwt>
</event>
<event>
 5    1  0.2369161E-004  0.6482004E+03  0.7818608E-02  0.9810162E-01
         13   -1    0    0    0    0  0.00000000000E+00  0.00000000000E+00  0.10000000000E+04  0.10000000000E+04  0.00000000000E+00 0. -1.
          2   -1    0    0  501    0 -0.00000000000E+00 -0.00000000000E+00 -0.10504093437E+03  0.10504093437E+03  0.00000000000E+00 0. -1.
    9000006    2    1    2  501    0  0.00000000000E+00  0.00000000000E+00  0.89495906563E+03  0.11050409344E+04  0.64820038375E+03 0.  0.
         13    1    3    3    0    0  0.18108466355E+03 -0.89311888782E+00 -0.10750387854E+02  0.18140568864E+03  0.00000000000E+00 0. -1.
          2    1    3    3  501    0 -0.18108466355E+03  0.89311888782E+00  0.90570945348E+03  0.92363524573E+03  0.00000000000E+00 0. -1.
<mgrwt>
<rscale>  0 0.64820038E+03</rscale>
<asrwt>0</asrwt>
<pdfrwt beam="1">0</pdfrwt>
<pdfrwt beam="2">  1        2 0.38196784E+00 0.64820038E+03</pdfrwt>
<totfact> 0.46492504E+00</totfact>
</mgrwt>
</event>
<event>
 5    1  0.2369161E-004  0.6431462E+03  0.7818608E-02  0.9819726E-01
         13   -1    0    0    0    0  0.00000000000E+00  0.00000000000E+00  0.10000000000E+04  0.10000000000E+04  0.00000000000E+00 0. -1.
          2   -1    0    0  501    0 -0.00000000000E+00 -0.00000000000E+00 -0.10340925747E+03  0.10340925747E+03  0.00000000000E+00 0. -1.
    9000006    2    1    2  501    0  0.00000000000E+00  0.00000000000E+00  0.89659074253E+03  0.11034092575E+04  0.64314619635E+03 0.  0.
         13    1    3    3    0    0 -0.19391380789E+03 -0.25337645715E+03  0.37951833742E+03  0.49581888061E+03  0.00000000000E+00 0. -1.
          2    1    3    3  501    0  0.19391380789E+03  0.25337645715E+03  0.51707240511E+03  0.60759037686E+03  0.00000000000E+00 0. -1.
<mgrwt>
<rscale>  0 0.64314620E+03</rscale>
<asrwt>0</asrwt>
<pdfrwt beam="1">0</pdfrwt>
<pdfrwt beam="2">  1        2 0.37603446E+00 0.64314620E+03</pdfrwt>
<totfact> 0.48913418E+00</totfact>
</mgrwt>
</event>
<event>
 5    1  0.2369161E-004  0.6414838E+03  0.7818608E-02  0.9822892E-01
         13   -1    0    0    0    0  0.00000000000E+00  0.00000000000E+00  0.10000000000E+04  0.10000000000E+04  0.00000000000E+00 0. -1.
          2   -1    0    0  501    0 -0.00000000000E+00 -0.00000000000E+00 -0.10287537627E+03  0.10287537627E+03  0.00000000000E+00 0. -1.
    9000006    2    1    2  501    0  0.00000000000E+00  0.00000000000E+00  0.89712462373E+03  0.11028753763E+04  0.64148383073E+03 0.  0.
         13    1    3    3    0    0  0.21563816829E+03 -0.21909542616E+03  0.60587900594E+03  0.67940561907E+03  0.00000000000E+00 0. -1.
          4    1    3    3  501    0 -0.21563816829E+03  0.21909542616E+03  0.29124561779E+03  0.42346975721E+03  0.00000000000E+00 0. -1.
<mgrwt>
<rscale>  0 0.64148383E+03</rscale>
<asrwt>0</asrwt>
<pdfrwt beam="1">0</pdfrwt>
<pdfrwt beam="2">  1        2 0.37409307E+00 0.64148383E+03</pdfrwt>
<totfact> 0.49730202E+00</totfact>
</mgrwt>
</event>
<event>
 5    1  0.2369161E-004  0.6512474E+03  0.7818608E-02  0.9804441E-01
         13   -1    0    0    0    0  0.00000000000E+00  0.00000000000E+00  0.10000000000E+04  0.10000000000E+04  0.00000000000E+00 0. -1.
          2   -1    0    0  501    0 -0.00000000000E+00 -0.00000000000E+00 -0.10603078508E+03  0.10603078508E+03  0.00000000000E+00 0. -1.
    9000006    2    1    2  501    0  0.00000000000E+00  0.00000000000E+00  0.89396921492E+03  0.11060307851E+04  0.65124737260E+03 0.  0.
         13    1    3    3    0    0  0.49777807183E+01  0.31115900003E+03  0.60975912808E+03  0.68458081763E+03  0.00000000000E+00 0. -1.
          4    1    3    3  501    0 -0.49777807183E+01 -0.31115900003E+03  0.28421008684E+03  0.42144996745E+03  0.00000000000E+00 0. -1.
<mgrwt>
<rscale>  0 0.65124737E+03</rscale>
<asrwt>0</asrwt>
<pdfrwt beam="1">0</pdfrwt>
<pdfrwt beam="2">  1        2 0.38556730E+00 0.65124737E+03</pdfrwt>
<totfact> 0.45077490E+00</totfact>
</mgrwt>
</event>
<event>
 5    1  0.2369161E-004  0.6591260E+03  0.7818608E-02  0.9789804E-01
         13   -1    0    0    0    0  0.00000000000E+00  0.00000000000E+00  0.10000000000E+04  0.10000000000E+04  0.00000000000E+00 0. -1.
          2   -1    0    0  501    0 -0.00000000000E+00 -0.00000000000E+00 -0.10861175545E+03  0.10861175545E+03  0.00000000000E+00 0. -1.
    9000006    2    1    2  501    0  0.00000000000E+00  0.00000000000E+00  0.89138824455E+03  0.11086117554E+04  0.65912595291E+03 0.  0.
         13    1    3    3    0    0  0.21422228372E+03  0.81518961343E+02  0.47406702108E+02  0.23405965758E+03  0.00000000000E+00 0. -1.
          2    1    3    3  501    0 -0.21422228372E+03 -0.81518961343E+02  0.84398154244E+03  0.87455209787E+03  0.00000000000E+00 0. -1.
<mgrwt>
<rscale>  0 0.65912595E+03</rscale>
<asrwt>0</asrwt>
<pdfrwt beam="1">0</pdfrwt>
<pdfrwt beam="2">  1        2 0.39495267E+00 0.65912595E+03</pdfrwt>
<totfact> 0.41569415E+00</totfact>
</mgrwt>
</event>
<event>
 5    1  0.2369161E-004  0.6476631E+03  0.7818608E-02  0.9811174E-01
         13   -1    0    0    0    0  0.00000000000E+00  0.00000000000E+00  0.10000000000E+04  0.10000000000E+04  0.00000000000E+00 0. -1.
          2   -1    0    0  501    0 -0.00000000000E+00 -0.00000000000E+00 -0.10486686611E+03  0.10486686611E+03  0.00000000000E+00 0. -1.
    9000006    2    1    2  501    0  0.00000000000E+00  0.00000000000E+00  0.89513313389E+03  0.11048668661E+04  0.64766307941E+03 0.  0.
         13    1    3    3    0    0 -0.24981990104E+03  0.36557882845E+02  0.79349757912E+03  0.83269734587E+03  0.00000000000E+00 0. -1.
          4    1    3    3  501    0  0.24981990104E+03 -0.36557882845E+02  0.10163555477E+03  0.27216952024E+03  0.00000000000E+00 0. -1.
<mgrwt>
<rscale>  0 0.64766308E+03</rscale>
<asrwt>0</asrwt>
<pdfrwt beam="1">0</pdfrwt>
<pdfrwt beam="2">  1        2 0.38133486E+00 0.64766308E+03</pdfrwt>
<totfact> 0.46745468E+00</totfact>
</mgrwt>
</event>
<event>
 5    1  0.2369161E-004  0.6489251E+03  0.7818608E-02  0.9808798E-01
         13   -1    0    0    0    0  0.00000000000E+00  0.00000000000E+00  0.10000000000E+04  0.10000000000E+04  0.00000000000E+00 0. -1.
          2   -1    0    0  501    0 -0.00000000000E+00 -0.00000000000E+00 -0.10527595996E+03  0.10527595996E+03  0.00000000000E+00 0. -1.
    9000006    2    1    2  501    0  0.00000000000E+00  0.00000000000E+00  0.89472404004E+03  0.11052759600E+04  0.64892514193E+03 0.  0.
         13    1    3    3    0    0 -0.28448154220E+03  0.66966084758E+02  0.20732128935E+03  0.35832432429E+03  0.00000000000E+00 0. -1.
          2    1    3    3  501    0  0.28448154220E+03 -0.66966084758E+02  0.68740275069E+03  0.74695163567E+03  0.00000000000E+00 0. -1.
<mgrwt>
<rscale>  0 0.64892514E+03</rscale>
<asrwt>0</asrwt>
<pdfrwt beam="1">0</pdfrwt>
<pdfrwt beam="2">  1        2 0.38282248E+00 0.64892514E+03</pdfrwt>
<totfact> 0.46152928E+00</totfact>
</mgrwt>
</event>
<event>
 5    1  0.2369161E-004  0.6585099E+03  0.7818608E-02  0.9790941E-01
         13   -1    0    0    0    0  0.00000000000E+00  0.00000000000E+00  0.10000000000E+04  0.10000000000E+04  0.00000000000E+00 0. -1.
          2   -1    0    0  501    0 -0.00000000000E+00 -0.00000000000E+00 -0.10840883619E+03  0.10840883619E+03  0.00000000000E+00 0. -1.
    9000006    2    1    2  501    0  0.00000000000E+00  0.00000000000E+00  0.89159116381E+03  0.11084088362E+04  0.65850994278E+03 0.  0.
         13    1    3    3    0    0  0.16749802508E+03  0.25668039598E+03  0.24333138846E+03  0.39134457796E+03  0.00000000000E+00 0. -1.
          4    1    3    3  501    0 -0.16749802508E+03 -0.25668039598E+03  0.64825977536E+03  0.71706425823E+03  0.00000000000E+00 0. -1.
<mgrwt>
<rscale>  0 0.65850994E+03</rscale>
<asrwt>0</asrwt>
<pdfrwt beam="1">0</pdfrwt>
<pdfrwt beam="2">  1        2 0.39421478E+00 0.65850994E+03</pdfrwt>
<totfact> 0.41835995E+00</totfact>
</mgrwt>
</event>
<event>
 5    1  0.2369161E-004  0.6491442E+03  0.7818608E-02  0.9808386E-01
         13   -1    0    0    0    0  0.00000000000E+00  0.00000000000E+00  0.10000000000E+04  0.10000000000E+04  0.00000000000E+00 0. -1.
          2   -1    0    0  501    0 -0.00000000000E+00 -0.00000000000E+00 -0.10534705447E+03  0.10534705447E+03  0.00000000000E+00 0. -1.
    9000006    2    1    2  501    0  0.00000000000E+00  0.00000000000E+00  0.89465294553E+03  0.11053470545E+04  0.64914421962E+03 0.  0.
         13    1    3    3    0    0  0.28277571478E+03 -0.15786136680E+03  0.48403456173E+03  0.58238455761E+03  0.00000000000E+00 0. -1.
          2    1    3    3  501    0 -0.28277571478E+03  0.15786136680E+03  0.41061838381E+03  0.52296249686E+03  0.00000000000E+00 0. -1.
<mgrwt>
<rscale>  0 0.64914422E+03</rscale>
<asrwt>0</asrwt>
<pdfrwt beam="1">0</pdfrwt>
<pdfrwt beam="2">  1        2 0.38308101E+00 0.64914422E+03</pdfrwt>
<totfact> 0.46050652E+00</totfact>
</mgrwt>
</event>
<event>
 5    1  0.2369161E-004  0.6609453E+03  0.7818608E-02  0.9786455E-01
         13   -1    0    0    0    0  0.00000000000E+00  0.00000000000E+00  0.10000000000E+04  0.10000000000E+04  0.00000000000E+00 0. -1.
          2   -1    0    0  501    0 -0.00000000000E+00 -0.00000000000E+00 -0.10921216314E+03  0.10921216314E+03  0.00000000000E+00 0. -1.
    9000006    2    1    2  501    0  0.00000000000E+00  0.00000000000E+00  0.89078783686E+03  0.11092121631E+04  0.66094527199E+03 0.  0.
         13    1    3    3    0    0 -0.92519812323E+02  0.24304443941E+03  0.78760965113E+03  0.82943322682E+03  0.00000000000E+00 0. -1.
          4    1    3    3  501    0  0.92519812323E+02 -0.24304443941E+03  0.10317818572E+03  0.27977893632E+03  0.00000000000E+00 0. -1.
<mgrwt>
<rscale>  0 0.66094527E+03</rscale>
<asrwt>0</asrwt>
<pdfrwt beam="1">0</pdfrwt>
<pdfrwt beam="2">  1        2 0.39713598E+00 0.66094527E+03</pdfrwt>
<totfact> 0.40789581E+00</totfact>
</mgrwt>
</event>
<event>
 5    1  0.2369161E-004  0.6577409E+03  0.7818608E-02  0.9792361E-01
         13   -1    0    0    0    0  0.00000000000E+00  0.00000000000E+00  0.10000000000E+04  0.10000000000E+04  0.00000000000E+00 0. -1.
          2   -1    0    0  501    0 -0.00000000000E+00 -0.00000000000E+00 -0.10815575736E+03  0.10815575736E+03  0.00000000000E+00 0. -1.
    9000006    2    1    2  501    0  0.00000000000E+00  0.00000000000E+00  0.89184424264E+03  0.11081557574E+04  0.65774085279E+03 0.  0.
         13    1    3    3    0    0 -0.16140642216E+03 -0.23736016773E+03  0.71635007506E+03  0.77171841521E+03  0.00000000000E+00 0. -1.
          2    1    3    3  501    0  0.16140642216E+03  0.23736016773E+03  0.17549416758E+03  0.33643734215E+03  0.00000000000E+00 0. -1.
<mgrwt>
<rscale>  0 0.65774085E+03</rscale>
<asrwt>0</asrwt>
<pdfrwt beam="1">0</pdfrwt>
<pdfrwt beam="2">  1        2 0.39329449E+00 0.65774085E+03</pdfrwt>
<totfact> 0.42170649E+00</totfact>
</mgrwt>
</event>
<event>
 5    1  0.2369161E-004  0.6291412E+03  0.7818608E-02  0.9846726E-01
         13   -1    0    0    0    0  0.00000000000E+00  0.00000000000E+00  0.10000000000E+04  0.10000000000E+04  0.00000000000E+00 0. -1.
          2   -1    0    0  501    0 -0.00000000000E+00 -0.00000000000E+00 -0.98954648561E+02  0.98954648561E+02  0.00000000000E+00 0. -1.
    9000006    2    1    2  501    0  0.00000000000E+00  0.00000000000E+00  0.90104535144E+03  0.10989546486E+04  0.62914115606E+03 0.  0.
         13    1    3    3    0    0 -0.73249870900E+02  0.38926843367E+02 -0.79506433656E+02  0.11490046003E+03  0.00000000000E+00 0. -1.
          2    1    3    3  501    0  0.73249870900E+02 -0.38926843367E+02  0.98055178509E+03  0.98405418854E+03  0.00000000000E+00 0. -1.
<mgrwt>
<rscale>  0 0.62914116E+03</rscale>
<asrwt>0</asrwt>
<pdfrwt beam="1">0</pdfrwt>
<pdfrwt beam="2">  1        2 0.35983584E+00 0.62914116E+03</pdfrwt>
<totfact> 0.56122614E+00</totfact>
</mgrwt>
</event>
<event>
 5    1  0.2369161E-004  0.6480890E+03  0.7818608E-02  0.9810372E-01
         13   -1    0    0    0    0  0.00000000000E+00  0.00000000000E+00  0.10000000000E+04  0.10000000000E+04  0.00000000000E+00 0. -1.
          2   -1    0    0  501    0 -0.00000000000E+00 -0.00000000000E+00 -0.10500482912E+03  0.10500482912E+03  0.00000000000E+00 0. -1.
    9000006    2    1    2  501    0  0.00000000000E+00  0.00000000000E+00  0.89499517088E+03  0.11050048291E+04  0.64808897267E+03 0.  0.
         13    1    3    3    0    0 -0.18901538576E+03  0.24944209416E+03  0.30426923887E+03  0.43649506769E+03  0.00000000000E+00 0. -1.
          2    1    3    3  501    0  0.18901538576E+03 -0.24944209416E+03  0.59072593201E+03  0.66850976144E+03  0.00000000000E+00 0. -1.
<mgrwt>
<rscale>  0 0.64808897E+03</rscale>
<asrwt>0</asrwt>
<pdfrwt beam="1">0</pdfrwt>
<pdfrwt beam="2">  1        2 0.38183655E+00 0.64808897E+03</pdfrwt>
<totfact> 0.46544872E+00</totfact>
</mgrwt>
</event>
<event>
 5    1  0.2369161E-004  0.6326679E+03  0.7818608E-02  0.9839856E-01
         13   -1    0    0    0    0  0.00000000000E+00  0.00000000000E+00  0.10000000000E+04  0.10000000000E+04  0.00000000000E+00 0. -1.
          2   -1    0    0  501    0 -0.00000000000E+00 -0.00000000000E+00 -0.10006718142E+03  0.10006718142E+03  0.00000000000E+00 0. -1.
    9000006    2    1    2  501    0  0.00000000000E+00  0.00000000000E+00  0.89993281858E+03  0.11000671814E+04  0.63266794267E+03 0.  0.
         13    1    3    3    0    0 -0.11692785853E+03 -0.25591940527E+03  0.19859273198E+03  0.34439213012E+03  0.00000000000E+00 0. -1.
          4    1    3    3  501    0  0.11692785853E+03  0.25591940527E+03  0.70134008660E+03  0.75567505131E+03  0.00000000000E+00 0. -1.
<mgrwt>
<rscale>  0 0.63266794E+03</rscale>
<asrwt>0</asrwt>
<pdfrwt beam="1">0</pdfrwt>
<pdfrwt beam="2">  1        2 0.36388143E+00 0.63266794E+03</pdfrwt>
<totfact> 0.54235989E+00</totfact>
</mgrwt>
</event>
<event>
 5    1  0.2369161E-004  0.6353896E+03  0.7818608E-02  0.9834587E-01
         13   -1    0    0    0    0  0.00000000000E+00  0.00000000000E+00  0.10000000000E+04  0.10000000000E+04  0.00000000000E+00 0. -1.
          2   -1    0    0  501    0 -0.00000000000E+00 -0.00000000000E+00 -0.10093000126E+03  0.10093000126E+03  0.00000000000E+00 0. -1.
    9000006    2    1    2  501    0  0.00000000000E+00  0.00000000000E+00  0.89906999874E+03  0.11009300013E+04  0.63538964820E+03 0.  0.
         13    1    3    3    0    0  0.24256900467E+03  0.20359378744E+03  0.40570632831E+03  0.51467249503E+03  0.00000000000E+00 0. -1.
          2    1    3    3  501    0 -0.24256900467E+03 -0.20359378744E+03  0.49336367043E+03  0.58625750623E+03  0.00000000000E+00 0. -1.
<mgrwt>
<rscale>  0 0.63538965E+03</rscale>
<asrwt>0</asrwt>
<pdfrwt beam="1">0</pdfrwt>
<pdfrwt beam="2">  1        2 0.36701896E+00 0.63538965E+03</pdfrwt>
<totfact> 0.52813242E+00</totfact>
</mgrwt>
</event>
<event>
 5    1  0.2369161E-004  0.6579810E+03  0.7818608E-02  0.9791918E-01
         13   -1    0    0    0    0  0.00000000000E+00  0.00000000000E+00  0.10000000000E+04  0.10000000000E+04  0.00000000000E+00 0. -1.
          2   -1    0    0  501    0 -0.00000000000E+00 -0.00000000000E+00 -0.10823474256E+03  0.10823474256E+03  0.00000000000E+00 0. -1.
    9000006    2    1    2  501    0  0.00000000000E+00  0.00000000000E+00  0.89176525744E+03  0.11082347426E+04  0.65798098014E+03 0.  0.
         13    1    3    3    0    0  0.26695502229E+03  0.22278210281E+02  0.12421542495E+03  0.29528083984E+03  0.00000000000E+00 0. -1.
          4    1    3    3  501    0 -0.26695502229E+03 -0.22278210281E+02  0.76754983250E+03  0.81295390272E+03  0.00000000000E+00 0. -1.
<mgrwt>
<rscale>  0 0.65798098E+03</rscale>
<asrwt>0</asrwt>
<pdfrwt beam="1">0</pdfrwt>
<pdfrwt beam="2">  1        2 0.39358171E+00 0.65798098E+03</pdfrwt>
<totfact> 0.42065943E+00</totfact>
</mgrwt>
</event>
<event>
 5    1  0.2369161E-004  0.6306875E+03  0.7818608E-02  0.9843708E-01
         13   -1    0    0    0    0  0.00000000000E+00  0.00000000000E+00  0.10000000000E+04  0.10000000000E+04  0.00000000000E+00 0. -1.
          2   -1    0    0  501    0 -0.00000000000E+00 -0.00000000000E+00 -0.99441677015E+02  0.99441677015E+02  0.00000000000E+00 0. -1.
    9000006    2    1    2  501    0  0.00000000000E+00  0.00000000000E+00  0.90055832298E+03  0.10994416770E+04  0.63068748843E+03 0.  0.
         13    1    3    3    0    0 -0.13116927117E+03 -0.16579649471E+03  0.42390716605E+02  0.21561731890E+03  0.00000000000E+00 0. -1.
          4    1    3    3  501    0  0.13116927117E+03  0.16579649471E+03  0.85816760638E+03  0.88382435811E+03  0.00000000000E+00 0. -1.
<mgrwt>
<rscale>  0 0.63068749E+03</rscale>
<asrwt>0</asrwt>
<pdfrwt beam="1">0</pdfrwt>
<pdfrwt beam="2">  1        2 0.36160686E+00 0.63068749E+03</pdfrwt>
<totfact> 0.55289387E+00</totfact>
</mgrwt>
</event>
<event>
 5    1  0.2369161E-004  0.5502434E+03  0.7818608E-02  0.1001438E+00
         13   -1    0    0    0    0  0.00000000000E+00  0.00000000000E+00  0.10000000000E+04  0.10000000000E+04  0.00000000000E+00 0. -1.
          2   -1    0    0  501    0 -0.00000000000E+00 -0.00000000000E+00 -0.75691949415E+02  0.75691949415E+02  0.00000000000E+00 0. -1.
    9000006    2    1    2  501    0  0.00000000000E+00  0.00000000000E+00  0.92430805059E+03  0.10756919494E+04  0.55024339856E+03 0.  0.
         13    1    3    3    0    0  0.13464943227E+03  0.10506101100E+03  0.40486619903E+02  0.17552051742E+03  0.00000000000E+00 0. -1.
          4    1    3    3  501    0 -0.13464943227E+03 -0.10506101100E+03  0.88382143068E+03  0.90017143199E+03  0.00000000000E+00 0. -1.
<mgrwt>
<rscale>  0 0.55024340E+03</rscale>
<asrwt>0</asrwt>
<pdfrwt beam="1">0</pdfrwt>
<pdfrwt beam="2">  1        2 0.27524403E+00 0.55024340E+03</pdfrwt>
<totfact> 0.11319016E+01</totfact>
</mgrwt>
</event>
<event>
 5    1  0.2369161E-004  0.6411050E+03  0.7818608E-02  0.9823615E-01
         13   -1    0    0    0    0  0.00000000000E+00  0.00000000000E+00  0.10000000000E+04  0.10000000000E+04  0.00000000000E+00 0. -1.
          2   -1    0    0  501    0 -0.00000000000E+00 -0.00000000000E+00 -0.10275389119E+03  0.10275389119E+03  0.00000000000E+00 0. -1.
    9000006    2    1    2  501    0  0.00000000000E+00  0.00000000000E+00  0.89724610881E+03  0.11027538912E+04  0.64110495611E+03 0.  0.
         13    1    3    3    0    0 -0.18054684142E+03 -0.50103744724E+02  0.12481386963E+01  0.18737423791E+03  0.00000000000E+00 0. -1.
          4    1    3    3  501    0  0.18054684142E+03  0.50103744724E+02  0.89599797012E+03  0.91537965328E+03  0.00000000000E+00 0. -1.
<mgrwt>
<rscale>  0 0.64110496E+03</rscale>
<asrwt>0</asrwt>
<pdfrwt beam="1">0</pdfrwt>
<pdfrwt beam="2">  1        2 0.37365130E+00 0.64110496E+03</pdfrwt>
<totfact> 0.49917798E+00</totfact>
</mgrwt>
</event>
<event>
 5    1  0.2369161E-004  0.6847512E+03  0.7818608E-02  0.9743671E-01
         13   -1    0    0    0    0  0.00000000000E+00  0.00000000000E+00  0.10000000000E+04  0.10000000000E+04  0.00000000000E+00 0. -1.
          2   -1    0    0  501    0 -0.00000000000E+00 -0.00000000000E+00 -0.11722105936E+03  0.11722105936E+03  0.00000000000E+00 0. -1.
    9000006    2    1    2  501    0  0.00000000000E+00  0.00000000000E+00  0.88277894064E+03  0.11172210594E+04  0.68475122303E+03 0.  0.
         13    1    3    3    0    0 -0.26570614433E+03 -0.21372412831E+03  0.39127865243E+03  0.51901516549E+03  0.00000000000E+00 0. -1.
          2    1    3    3  501    0  0.26570614433E+03  0.21372412831E+03  0.49150028821E+03  0.59820589387E+03  0.00000000000E+00 0. -1.
<mgrwt>
<rscale>  0 0.68475122E+03</rscale>
<asrwt>0</asrwt>
<pdfrwt beam="1">0</pdfrwt>
<pdfrwt beam="2">  1        2 0.42625930E+00 0.68475122E+03</pdfrwt>
<totfact> 0.31567773E+00</totfact>
</mgrwt>
</event>
<event>
 5    1  0.2369161E-004  0.6616479E+03  0.7818608E-02  0.9785165E-01
         13   -1    0    0    0    0  0.00000000000E+00  0.00000000000E+00  0.10000000000E+04  0.10000000000E+04  0.00000000000E+00 0. -1.
          2   -1    0    0  501    0 -0.00000000000E+00 -0.00000000000E+00 -0.10944447090E+03  0.10944447090E+03  0.00000000000E+00 0. -1.
    9000006    2    1    2  501    0  0.00000000000E+00  0.00000000000E+00  0.89055552910E+03  0.11094444709E+04  0.66164785468E+03 0.  0.
         13    1    3    3    0    0  0.15226440620E+03  0.28994225619E+03  0.36674544421E+03  0.49168402676E+03  0.00000000000E+00 0. -1.
          4    1    3    3  501    0 -0.15226440620E+03 -0.28994225619E+03  0.52381008489E+03  0.61776044415E+03  0.00000000000E+00 0. -1.
<mgrwt>
<rscale>  0 0.66164785E+03</rscale>
<asrwt>0</asrwt>
<pdfrwt beam="1">0</pdfrwt>
<pdfrwt beam="2">  1        2 0.39798073E+00 0.66164785E+03</pdfrwt>
<totfact> 0.40491400E+00</totfact>
</mgrwt>
</event>
<event>
 5    1  0.2369161E-004  0.6440913E+03  0.7818608E-02  0.9817930E-01
         13   -1    0    0    0    0  0.00000000000E+00  0.00000000000E+00  0.10000000000E+04  0.10000000000E+04  0.00000000000E+00 0. -1.
          2   -1    0    0  501    0 -0.00000000000E+00 -0.00000000000E+00 -0.10371341066E+03  0.10371341066E+03  0.00000000000E+00 0. -1.
    9000006    2    1    2  501    0  0.00000000000E+00  0.00000000000E+00  0.89628658934E+03  0.11037134107E+04  0.64409133098E+03 0.  0.
         13    1    3    3    0    0 -0.18870921306E+03  0.20284755266E+03  0.72948197864E+03  0.78032189119E+03  0.00000000000E+00 0. -1.
          4    1    3    3  501    0  0.18870921306E+03 -0.20284755266E+03  0.16680461070E+03  0.32339151947E+03  0.00000000000E+00 0. -1.
<mgrwt>
<rscale>  0 0.64409133E+03</rscale>
<asrwt>0</asrwt>
<pdfrwt beam="1">0</pdfrwt>
<pdfrwt beam="2">  1        2 0.37714047E+00 0.64409133E+03</pdfrwt>
<totfact> 0.48453619E+00</totfact>
</mgrwt>
</event>
<event>
 5    1  0.2369161E-004  0.6454817E+03  0.7818608E-02  0.9815294E-01
         13   -1    0    0    0    0  0.00000000000E+00  0.00000000000E+00  0.10000000000E+04  0.10000000000E+04  0.00000000000E+00 0. -1.
          2   -1    0    0  501    0 -0.00000000000E+00 -0.00000000000E+00 -0.10416166987E+03  0.10416166987E+03  0.00000000000E+00 0. -1.
    9000006    2    1    2  501    0  0.00000000000E+00  0.00000000000E+00  0.89583833013E+03  0.11041616699E+04  0.64548174217E+03 0.  0.
         13    1    3    3    0    0  0.21411750654E+03  0.20432188744E+03  0.22773665201E+03  0.37344038743E+03  0.00000000000E+00 0. -1.
          2    1    3    3  501    0 -0.21411750654E+03 -0.20432188744E+03  0.66810167812E+03  0.73072128244E+03  0.00000000000E+00 0. -1.
<mgrwt>
<rscale>  0 0.64548174E+03</rscale>
<asrwt>0</asrwt>
<pdfrwt beam="1">0</pdfrwt>
<pdfrwt beam="2">  1        2 0.37877051E+00 0.64548174E+03</pdfrwt>
<totfact> 0.47783153E+00</totfact>
</mgrwt>
</event>
<event>
 5    1  0.2369161E-004  0.6562746E+03  0.7818608E-02  0.9795076E-01
         13   -1    0    0    0    0  0.00000000000E+00  0.00000000000E+00  0.10000000000E+04  0.10000000000E+04  0.00000000000E+00 0. -1.
          2   -1    0    0  501    0 -0.00000000000E+00 -0.00000000000E+00 -0.10767408122E+03  0.10767408122E+03  0.00000000000E+00 0. -1.
    9000006    2    1    2  501    0  0.00000000000E+00  0.00000000000E+00  0.89232591878E+03  0.11076740812E+04  0.65627458039E+03 0.  0.
         13    1    3    3    0    0 -0.28670040575E+03 -0.14771865010E+03  0.34410686452E+03  0.47162215432E+03  0.00000000000E+00 0. -1.
          2    1    3    3  501    0  0.28670040575E+03  0.14771865010E+03  0.54821905427E+03  0.63605192689E+03  0.00000000000E+00 0. -1.
<mgrwt>
<rscale>  0 0.65627458E+03</rscale>
<asrwt>0</asrwt>
<pdfrwt beam="1">0</pdfrwt>
<pdfrwt beam="2">  1        2 0.39154294E+00 0.65627458E+03</pdfrwt>
<totfact> 0.42814283E+00</totfact>
</mgrwt>
</event>
<event>
 5    1  0.2369161E-004  0.6521544E+03  0.7818608E-02  0.9802745E-01
         13   -1    0    0    0    0  0.00000000000E+00  0.00000000000E+00  0.10000000000E+04  0.10000000000E+04  0.00000000000E+00 0. -1.
          2   -1    0    0  501    0 -0.00000000000E+00 -0.00000000000E+00 -0.10632635582E+03  0.10632635582E+03  0.00000000000E+00 0. -1.
    9000006    2    1    2  501    0  0.00000000000E+00  0.00000000000E+00  0.89367364418E+03  0.11063263558E+04  0.65215444742E+03 0.  0.
         13    1    3    3    0    0 -0.44060001690E+02 -0.14575817204E+03  0.93598093969E+03  0.94828637443E+03  0.00000000000E+00 0. -1.
          4    1    3    3  501    0  0.44060001690E+02  0.14575817204E+03 -0.42307295507E+02  0.15803998140E+03  0.00000000000E+00 0. -1.
<mgrwt>
<rscale>  0 0.65215445E+03</rscale>
<asrwt>0</asrwt>
<pdfrwt beam="1">0</pdfrwt>
<pdfrwt beam="2">  1        2 0.38664211E+00 0.65215445E+03</pdfrwt>
<totfact> 0.44662603E+00</totfact>
</mgrwt>
</event>
<event>
 5    1  0.2369161E-004  0.6404301E+03  0.7818608E-02  0.9824904E-01
         13   -1    0    0    0    0  0.00000000000E+00  0.00000000000E+00  0.10000000000E+04  0.10000000000E+04  0.00000000000E+00 0. -1.
          2   -1    0    0  501    0 -0.00000000000E+00 -0.00000000000E+00 -0.10253768944E+03  0.10253768944E+03  0.00000000000E+00 0. -1.
    9000006    2    1    2  501    0  0.00000000000E+00  0.00000000000E+00  0.89746231056E+03  0.11025376894E+04  0.64043013497E+03 0.  0.
         13    1    3    3    0    0 -0.88920813161E+02  0.30253968836E+03  0.35287088893E+03  0.47323888080E+03  0.00000000000E+00 0. -1.
          4    1    3    3  501    0  0.88920813161E+02 -0.30253968836E+03  0.54459142163E+03  0.62929880864E+03  0.00000000000E+00 0. -1.
<mgrwt>
<rscale>  0 0.64043013E+03</rscale>
<asrwt>0</asrwt>
<pdfrwt beam="1">0</pdfrwt>
<pdfrwt beam="2">  1        2 0.37286511E+00 0.64043013E+03</pdfrwt>
<totfact> 0.50253256E+00</totfact>
</mgrwt>
</event>
<event>
 5    1  0.2369161E-004  0.6503740E+03  0.7818608E-02  0.9806078E-01
         13   -1    0    0    0    0  0.00000000000E+00  0.00000000000E+00  0.10000000000E+04  0.10000000000E+04  0.00000000000E+00 0. -1.
          4   -1    0    0  501    0 -0.00000000000E+00 -0.00000000000E+00 -0.10574657118E+03  0.10574657118E+03  0.00000000000E+00 0. -1.
    9000006    2    1    2  501    0  0.00000000000E+00  0.00000000000E+00  0.89425342882E+03  0.11057465712E+04  0.65037395759E+03 0.  0.
         13    1    3    3    0    0 -0.22373322320E+03  0.15675580075E+03  0.14721339794E+03  0.31032357430E+03  0.00000000000E+00 0. -1.
          4    1    3    3  501    0  0.22373322320E+03 -0.15675580075E+03  0.74704003088E+03  0.79542299688E+03  0.00000000000E+00 0. -1.
<mgrwt>
<rscale>  0 0.65037396E+03</rscale>
<asrwt>0</asrwt>
<pdfrwt beam="1">0</pdfrwt>
<pdfrwt beam="2">  1        4 0.38453380E+00 0.65037396E+03</pdfrwt>
<totfact> 0.40890729E-02</totfact>
</mgrwt>
</event>
<event>
 5    1  0.2369161E-004  0.5297175E+03  0.7818608E-02  0.1006301E+00
         13   -1    0    0    0    0  0.00000000000E+00  0.00000000000E+00  0.10000000000E+04  0.10000000000E+04  0.00000000000E+00 0. -1.
          2   -1    0    0  501    0 -0.00000000000E+00 -0.00000000000E+00 -0.70150159123E+02  0.70150159123E+02  0.00000000000E+00 0. -1.
    9000006    2    1    2  501    0  0.00000000000E+00  0.00000000000E+00  0.92984984088E+03  0.10701501591E+04  0.52971750631E+03 0.  0.
         13    1    3    3    0    0  0.16697244980E+03  0.90363229356E+02  0.83801048592E+03  0.85924786105E+03  0.00000000000E+00 0. -1.
          4    1    3    3  501    0 -0.16697244980E+03 -0.90363229356E+02  0.91839354958E+02  0.21090229807E+03  0.00000000000E+00 0. -1.
<mgrwt>
<rscale>  0 0.52971751E+03</rscale>
<asrwt>0</asrwt>
<pdfrwt beam="1">0</pdfrwt>
<pdfrwt beam="2">  1        2 0.25509203E+00 0.52971751E+03</pdfrwt>
<totfact> 0.13364558E+01</totfact>
</mgrwt>
</event>
<event>
 5    1  0.2369161E-004  0.6681647E+03  0.7818608E-02  0.9773279E-01
         13   -1    0    0    0    0  0.00000000000E+00  0.00000000000E+00  0.10000000000E+04  0.10000000000E+04  0.00000000000E+00 0. -1.
          2   -1    0    0  501    0 -0.00000000000E+00 -0.00000000000E+00 -0.11161100704E+03  0.11161100704E+03  0.00000000000E+00 0. -1.
    9000006    2    1    2  501    0  0.00000000000E+00  0.00000000000E+00  0.88838899296E+03  0.11116110070E+04  0.66816467145E+03 0.  0.
         13    1    3    3    0    0  0.18631601576E+03  0.10122416197E+03  0.14685045940E+02  0.21254561691E+03  0.00000000000E+00 0. -1.
          4    1    3    3  501    0 -0.18631601576E+03 -0.10122416197E+03  0.87370394702E+03  0.89906539013E+03  0.00000000000E+00 0. -1.
<mgrwt>
<rscale>  0 0.66816467E+03</rscale>
<asrwt>0</asrwt>
<pdfrwt beam="1">0</pdfrwt>
<pdfrwt beam="2">  1        2 0.40585906E+00 0.66816467E+03</pdfrwt>
<totfact> 0.37803307E+00</totfact>
</mgrwt>
</event>
<event>
 5    1  0.2369161E-004  0.6490743E+03  0.7818608E-02  0.9808518E-01
         13   -1    0    0    0    0  0.00000000000E+00  0.00000000000E+00  0.10000000000E+04  0.10000000000E+04  0.00000000000E+00 0. -1.
          2   -1    0    0  501    0 -0.00000000000E+00 -0.00000000000E+00 -0.10532436179E+03  0.10532436179E+03  0.00000000000E+00 0. -1.
    9000006    2    1    2  501    0  0.00000000000E+00  0.00000000000E+00  0.89467563821E+03  0.11053243618E+04  0.64907430020E+03 0.  0.
         13    1    3    3    0    0 -0.18876876006E+03  0.26305803133E+03  0.48507936805E+03  0.58321108180E+03  0.00000000000E+00 0. -1.
          4    1    3    3  501    0  0.18876876006E+03 -0.26305803133E+03  0.40959627016E+03  0.52211328000E+03  0.00000000000E+00 0. -1.
<mgrwt>
<rscale>  0 0.64907430E+03</rscale>
<asrwt>0</asrwt>
<pdfrwt beam="1">0</pdfrwt>
<pdfrwt beam="2">  1        2 0.38299849E+00 0.64907430E+03</pdfrwt>
<totfact> 0.46083275E+00</totfact>
</mgrwt>
</event>
<event>
 5    1  0.2369161E-004  0.6295880E+03  0.7818608E-02  0.9845853E-01
         13   -1    0    0    0    0  0.00000000000E+00  0.00000000000E+00  0.10000000000E+04  0.10000000000E+04  0.00000000000E+00 0. -1.
          2   -1    0    0  501    0 -0.00000000000E+00 -0.00000000000E+00 -0.99095263321E+02  0.99095263321E+02  0.00000000000E+00 0. -1.
    9000006    2    1    2  501    0  0.00000000000E+00  0.00000000000E+00  0.90090473668E+03  0.10990952633E+04  0.62958800281E+03 0.  0.
         13    1    3    3    0    0  0.98248426432E+01  0.16855284726E+03 -0.13364354294E+02  0.16936704467E+03  0.00000000000E+00 0. -1.
          2    1    3    3  501    0 -0.98248426432E+01 -0.16855284726E+03  0.91426909097E+03  0.92972821865E+03  0.00000000000E+00 0. -1.
<mgrwt>
<rscale>  0 0.62958800E+03</rscale>
<asrwt>0</asrwt>
<pdfrwt beam="1">0</pdfrwt>
<pdfrwt beam="2">  1        2 0.36034717E+00 0.62958800E+03</pdfrwt>
<totfact> 0.55880862E+00</totfact>
</mgrwt>
</event>
<event>
 5    1  0.2369161E-004  0.6387567E+03  0.7818608E-02  0.9828108E-01
         13   -1    0    0    0    0  0.00000000000E+00  0.00000000000E+00  0.10000000000E+04  0.10000000000E+04  0.00000000000E+00 0. -1.
          2   -1    0    0  501    0 -0.00000000000E+00 -0.00000000000E+00 -0.10200253255E+03  0.10200253255E+03  0.00000000000E+00 0. -1.
    9000006    2    1    2  501    0  0.00000000000E+00  0.00000000000E+00  0.89799746745E+03  0.11020025326E+04  0.63875670659E+03 0.  0.
         13    1    3    3    0    0  0.25765706416E+03 -0.30971341374E+02  0.12782704820E+03  0.28928556990E+03  0.00000000000E+00 0. -1.
          2    1    3    3  501    0 -0.25765706416E+03  0.30971341374E+02  0.77017041925E+03  0.81271696265E+03  0.00000000000E+00 0. -1.
<mgrwt>
<rscale>  0 0.63875671E+03</rscale>
<asrwt>0</asrwt>
<pdfrwt beam="1">0</pdfrwt>
<pdfrwt beam="2">  1        2 0.37091908E+00 0.63875671E+03</pdfrwt>
<totfact> 0.51092495E+00</totfact>
</mgrwt>
</event>
<event>
 5    1  0.2369161E-004  0.6539905E+03  0.7818608E-02  0.9799320E-01
         13   -1    0    0    0    0  0.00000000000E+00  0.00000000000E+00  0.10000000000E+04  0.10000000000E+04  0.00000000000E+00 0. -1.
          2   -1    0    0  501    0 -0.00000000000E+00 -0.00000000000E+00 -0.10692588104E+03  0.10692588104E+03  0.00000000000E+00 0. -1.
    9000006    2    1    2  501    0  0.00000000000E+00  0.00000000000E+00  0.89307411896E+03  0.11069258810E+04  0.65399046184E+03 0.  0.
         13    1    3    3    0    0  0.26881298738E+03 -0.12340498421E+03  0.68250773938E+03  0.74384543194E+03  0.00000000000E+00 0. -1.
          4    1    3    3  501    0 -0.26881298738E+03  0.12340498421E+03  0.21056637958E+03  0.36308044910E+03  0.00000000000E+00 0. -1.
<mgrwt>
<rscale>  0 0.65399046E+03</rscale>
<asrwt>0</asrwt>
<pdfrwt beam="1">0</pdfrwt>
<pdfrwt beam="2">  1        2 0.38882221E+00 0.65399046E+03</pdfrwt>
<totfact> 0.43831664E+00</totfact>
</mgrwt>
</event>
<event>
 5    1  0.2369161E-004  0.6527251E+03  0.7818608E-02  0.9801679E-01
         13   -1    0    0    0    0  0.00000000000E+00  0.00000000000E+00  0.10000000000E+04  0.10000000000E+04  0.00000000000E+00 0. -1.
          2   -1    0    0  501    0 -0.00000000000E+00 -0.00000000000E+00 -0.10651251159E+03  0.10651251159E+03  0.00000000000E+00 0. -1.
    9000006    2    1    2  501    0  0.00000000000E+00  0.00000000000E+00  0.89348748841E+03  0.11065125116E+04  0.65272509249E+03 0.  0.
         13    1    3    3    0    0 -0.90079350453E+02  0.21255921828E+01 -0.85008921278E+02  0.12387624557E+03  0.00000000000E+00 0. -1.
          4    1    3    3  501    0  0.90079350453E+02 -0.21255921828E+01  0.97849640969E+03  0.98263626602E+03  0.00000000000E+00 0. -1.
<mgrwt>
<rscale>  0 0.65272509E+03</rscale>
<asrwt>0</asrwt>
<pdfrwt beam="1">0</pdfrwt>
<pdfrwt beam="2">  1        2 0.38731904E+00 0.65272509E+03</pdfrwt>
<totfact> 0.44403079E+00</totfact>
</mgrwt>
</event>
<event>
 5    1  0.2369161E-004  0.5471147E+03  0.7818608E-02  0.1002164E+00
         13   -1    0    0    0    0  0.00000000000E+00  0.00000000000E+00  0.10000000000E+04  0.10000000000E+04  0.00000000000E+00 0. -1.
          2   -1    0    0  501    0 -0.00000000000E+00 -0.00000000000E+00 -0.74833611334E+02  0.74833611334E+02  0.00000000000E+00 0. -1.
    9000006    2    1    2  501    0  0.00000000000E+00  0.00000000000E+00  0.92516638867E+03  0.10748336113E+04  0.54711465465E+03 0.  0.
         13    1    3    3    0    0 -0.23669122603E+03  0.12509124868E+03  0.57307147584E+03  0.63251993913E+03  0.00000000000E+00 0. -1.
          2    1    3    3  501    0  0.23669122603E+03 -0.12509124868E+03  0.35209491283E+03  0.44231367220E+03  0.00000000000E+00 0. -1.
<mgrwt>
<rscale>  0 0.54711465E+03</rscale>
<asrwt>0</asrwt>
<pdfrwt beam="1">0</pdfrwt>
<pdfrwt beam="2">  1        2 0.27212280E+00 0.54711465E+03</pdfrwt>
<totfact> 0.11613561E+01</totfact>
</mgrwt>
</event>
<event>
 5    1  0.2369161E-004  0.6530104E+03  0.7818608E-02  0.9801147E-01
         13   -1    0    0    0    0  0.00000000000E+00  0.00000000000E+00  0.10000000000E+04  0.10000000000E+04  0.00000000000E+00 0. -1.
          2   -1    0    0  501    0 -0.00000000000E+00 -0.00000000000E+00 -0.10660563681E+03  0.10660563681E+03  0.00000000000E+00 0. -1.
    9000006    2    1    2  501    0  0.00000000000E+00  0.00000000000E+00  0.89339436319E+03  0.11066056368E+04  0.65301037299E+03 0.  0.
         13    1    3    3    0    0 -0.30941525597E+03 -0.85776285835E+02  0.54709927041E+03  0.63436029472E+03  0.00000000000E+00 0. -1.
          4    1    3    3  501    0  0.30941525597E+03  0.85776285835E+02  0.34629509278E+03  0.47224534209E+03  0.00000000000E+00 0. -1.
<mgrwt>
<rscale>  0 0.65301037E+03</rscale>
<asrwt>0</asrwt>
<pdfrwt beam="1">0</pdfrwt>
<pdfrwt beam="2">  1        2 0.38765768E+00 0.65301037E+03</pdfrwt>
<totfact> 0.44273763E+00</totfact>
</mgrwt>
</event>
<event>
 5    1  0.2369161E-004  0.6353258E+03  0.7818608E-02  0.9834711E-01
         13   -1    0    0    0    0  0.00000000000E+00  0.00000000000E+00  0.10000000000E+04  0.10000000000E+04  0.00000000000E+00 0. -1.
          2   -1    0    0  501    0 -0.00000000000E+00 -0.00000000000E+00 -0.10090970265E+03  0.10090970265E+03  0.00000000000E+00 0. -1.
    9000006    2    1    2  501    0  0.00000000000E+00  0.00000000000E+00  0.89909029735E+03  0.11009097026E+04  0.63532575156E+03 0.  0.
         13    1    3    3    0    0 -0.28753043830E+03  0.14157024682E+02  0.68225762907E+03  0.74050634482E+03  0.00000000000E+00 0. -1.
          2    1    3    3  501    0  0.28753043830E+03 -0.14157024682E+02  0.21683266829E+03  0.36040335783E+03  0.00000000000E+00 0. -1.
<mgrwt>
<rscale>  0 0.63532575E+03</rscale>
<asrwt>0</asrwt>
<pdfrwt beam="1">0</pdfrwt>
<pdfrwt beam="2">  1        2 0.36694515E+00 0.63532575E+03</pdfrwt>
<totfact> 0.52846315E+00</totfact>
</mgrwt>
</event>
<event>
 5    1  0.2369161E-004  0.6404776E+03  0.7818608E-02  0.9824813E-01
         13   -1    0    0    0    0  0.00000000000E+00  0.00000000000E+00  0.10000000000E+04  0.10000000000E+04  0.00000000000E+00 0. -1.
          2   -1    0    0  501    0 -0.00000000000E+00 -0.00000000000E+00 -0.10255288834E+03  0.10255288834E+03  0.00000000000E+00 0. -1.
    9000006    2    1    2  501    0  0.00000000000E+00  0.00000000000E+00  0.89744711166E+03  0.11025528883E+04  0.64047759785E+03 0.  0.
         13    1    3    3    0    0 -0.46040549959E+02 -0.28985963525E+03  0.66927502285E+03  0.73079914928E+03  0.00000000000E+00 0. -1.
          4    1    3    3  501    0  0.46040549959E+02  0.28985963525E+03  0.22817208881E+03  0.37175373905E+03  0.00000000000E+00 0. -1.
<mgrwt>
<rscale>  0 0.64047760E+03</rscale>
<asrwt>0</asrwt>
<pdfrwt beam="1">0</pdfrwt>
<pdfrwt beam="2">  1        2 0.37292038E+00 0.64047760E+03</pdfrwt>
<totfact> 0.50229606E+00</totfact>
</mgrwt>
</event>
<event>
 5    1  0.2369161E-004  0.6653922E+03  0.7818608E-02  0.9778318E-01
         13   -1    0    0    0    0  0.00000000000E+00  0.00000000000E+00  0.10000000000E+04  0.10000000000E+04  0.00000000000E+00 0. -1.
          2   -1    0    0  501    0 -0.00000000000E+00 -0.00000000000E+00 -0.11068668185E+03  0.11068668185E+03  0.00000000000E+00 0. -1.
    9000006    2    1    2  501    0  0.00000000000E+00  0.00000000000E+00  0.88931331815E+03  0.11106866818E+04  0.66539216059E+03 0.  0.
         13    1    3    3    0    0  0.21656023914E+03 -0.22862087237E+03  0.26549050010E+03  0.41188717642E+03  0.00000000000E+00 0. -1.
          2    1    3    3  501    0 -0.21656023914E+03  0.22862087237E+03  0.62382281805E+03  0.69879950542E+03  0.00000000000E+00 0. -1.
<mgrwt>
<rscale>  0 0.66539216E+03</rscale>
<asrwt>0</asrwt>
<pdfrwt beam="1">0</pdfrwt>
<pdfrwt beam="2">  1        2 0.40249787E+00 0.66539216E+03</pdfrwt>
<totfact> 0.38929926E+00</totfact>
</mgrwt>
</event>
<event>
 5    1  0.2369161E-004  0.6372910E+03  0.7818608E-02  0.9830923E-01
         13   -1    0    0    0    0  0.00000000000E+00  0.00000000000E+00  0.10000000000E+04  0.10000000000E+04  0.00000000000E+00 0. -1.
          2   -1    0    0  501    0 -0.00000000000E+00 -0.00000000000E+00 -0.10153494976E+03  0.10153494976E+03  0.00000000000E+00 0. -1.
    9000006    2    1    2  501    0  0.00000000000E+00  0.00000000000E+00  0.89846505024E+03  0.11015349498E+04  0.63729098459E+03 0.  0.
         13    1    3    3    0    0  0.10050108387E+03 -0.25282079064E+03  0.16251503885E+03  0.31690685996E+03  0.00000000000E+00 0. -1.
          2    1    3    3  501    0 -0.10050108387E+03  0.25282079064E+03  0.73595001139E+03  0.78462808980E+03  0.00000000000E+00 0. -1.
<mgrwt>
<rscale>  0 0.63729098E+03</rscale>
<asrwt>0</asrwt>
<pdfrwt beam="1">0</pdfrwt>
<pdfrwt beam="2">  1        2 0.36921878E+00 0.63729098E+03</pdfrwt>
<totfact> 0.51836251E+00</totfact>
</mgrwt>
</event>
<event>
 5    1  0.2369161E-004  0.6548388E+03  0.7818608E-02  0.9797742E-01
         13   -1    0    0    0    0  0.00000000000E+00  0.00000000000E+00  0.10000000000E+04  0.10000000000E+04  0.00000000000E+00 0. -1.
          2   -1    0    0  501    0 -0.00000000000E+00 -0.00000000000E+00 -0.10720347304E+03  0.10720347304E+03  0.00000000000E+00 0. -1.
    9000006    2    1    2  501    0  0.00000000000E+00  0.00000000000E+00  0.89279652696E+03  0.11072034730E+04  0.65483882915E+03 0.  0.
         13    1    3    3    0    0 -0.82829455784E+02  0.28568973188E+03  0.21503529057E+03  0.36704157508E+03  0.00000000000E+00 0. -1.
          4    1    3    3  501    0  0.82829455784E+02 -0.28568973188E+03  0.67776123639E+03  0.74016189796E+03  0.00000000000E+00 0. -1.
<mgrwt>
<rscale>  0 0.65483883E+03</rscale>
<asrwt>0</asrwt>
<pdfrwt beam="1">0</pdfrwt>
<pdfrwt beam="2">  1        2 0.38983163E+00 0.65483883E+03</pdfrwt>
<totfact> 0.43451681E+00</totfact>
</mgrwt>
</event>
<event>
 5    1  0.2369161E-004  0.6705100E+03  0.7818608E-02  0.9769037E-01
         13   -1    0    0    0    0  0.00000000000E+00  0.00000000000E+00  0.10000000000E+04  0.10000000000E+04  0.00000000000E+00 0. -1.
          2   -1    0    0  501    0 -0.00000000000E+00 -0.00000000000E+00 -0.11239590314E+03  0.11239590314E+03  0.00000000000E+00 0. -1.
    9000006    2    1    2  501    0  0.00000000000E+00  0.00000000000E+00  0.88760409686E+03  0.11123959031E+04  0.67050996454E+03 0.  0.
         13    1    3    3    0    0 -0.29080067296E+03  0.16173275088E+03  0.51166810339E+03  0.61034970478E+03  0.00000000000E+00 0. -1.
          4    1    3    3  501    0  0.29080067296E+03 -0.16173275088E+03  0.37593599347E+03  0.50204619836E+03  0.00000000000E+00 0. -1.
<mgrwt>
<rscale>  0 0.67050996E+03</rscale>
<asrwt>0</asrwt>
<pdfrwt beam="1">0</pdfrwt>
<pdfrwt beam="2">  1        2 0.40871324E+00 0.67050996E+03</pdfrwt>
<totfact> 0.36869630E+00</totfact>
</mgrwt>
</event>
<event>
 5    1  0.2369161E-004  0.6531580E+03  0.7818608E-02  0.9800871E-01
         13   -1    0    0    0    0  0.00000000000E+00  0.00000000000E+00  0.10000000000E+04  0.10000000000E+04  0.00000000000E+00 0. -1.
          2   -1    0    0  501    0 -0.00000000000E+00 -0.00000000000E+00 -0.10665385135E+03  0.10665385135E+03  0.00000000000E+00 0. -1.
    9000006    2    1    2  501    0  0.00000000000E+00  0.00000000000E+00  0.89334614865E+03  0.11066538513E+04  0.65315802482E+03 0.  0.
         13    1    3    3    0    0 -0.67476397430E+02 -0.91917653505E+02 -0.71830677877E+02  0.13476485269E+03  0.00000000000E+00 0. -1.
          4    1    3    3  501    0  0.67476397430E+02  0.91917653505E+02  0.96517682653E+03  0.97188899866E+03  0.00000000000E+00 0. -1.
<mgrwt>
<rscale>  0 0.65315802E+03</rscale>
<asrwt>0</asrwt>
<pdfrwt beam="1">0</pdfrwt>
<pdfrwt beam="2">  1        2 0.38783300E+00 0.65315802E+03</pdfrwt>
<totfact> 0.44206946E+00</totfact>
</mgrwt>
</event>
<event>
 5    1  0.2369161E-004  0.6654769E+03  0.7818608E-02  0.9778164E-01
         13   -1    0    0    0    0  0.00000000000E+00  0.00000000000E+00  0.10000000000E+04  0.10000000000E+04  0.00000000000E+00 0. -1.
          2   -1    0    0  501    0 -0.00000000000E+00 -0.00000000000E+00 -0.11071486667E+03  0.11071486667E+03  0.00000000000E+00 0. -1.
    9000006    2    1    2  501    0  0.00000000000E+00  0.00000000000E+00  0.88928513333E+03  0.11107148667E+04  0.66547687162E+03 0.  0.
         13    1    3    3    0    0  0.14403733712E+03 -0.23357389390E+03  0.13056215623E+03  0.30389141982E+03  0.00000000000E+00 0. -1.
          4    1    3    3  501    0 -0.14403733712E+03  0.23357389390E+03  0.75872297710E+03  0.80682344685E+03  0.00000000000E+00 0. -1.
<mgrwt>
<rscale>  0 0.66547687E+03</rscale>
<asrwt>0</asrwt>
<pdfrwt beam="1">0</pdfrwt>
<pdfrwt beam="2">  1        2 0.40260036E+00 0.66547687E+03</pdfrwt>
<totfact> 0.38895133E+00</totfact>
</mgrwt>
</event>
<event>
 5    1  0.2369161E-004  0.6429891E+03  0.7818608E-02  0.9820024E-01
         13   -1    0    0    0    0  0.00000000000E+00  0.00000000000E+00  0.10000000000E+04  0.10000000000E+04  0.00000000000E+00 0. -1.
          2   -1    0    0  501    0 -0.00000000000E+00 -0.00000000000E+00 -0.10335873948E+03  0.10335873948E+03  0.00000000000E+00 0. -1.
    9000006    2    1    2  501    0  0.00000000000E+00  0.00000000000E+00  0.89664126052E+03  0.11033587395E+04  0.64298908071E+03 0.  0.
         13    1    3    3    0    0 -0.12116717457E+03  0.25065928582E+02 -0.60863949956E+02  0.13789200620E+03  0.00000000000E+00 0. -1.
          4    1    3    3  501    0  0.12116717457E+03 -0.25065928582E+02  0.95750521048E+03  0.96546673328E+03  0.00000000000E+00 0. -1.
<mgrwt>
<rscale>  0 0.64298908E+03</rscale>
<asrwt>0</asrwt>
<pdfrwt beam="1">0</pdfrwt>
<pdfrwt beam="2">  1        2 0.37585075E+00 0.64298908E+03</pdfrwt>
<totfact> 0.48990172E+00</totfact>
</mgrwt>
</event>
<event>
 5    1  0.2369161E-004  0.6448260E+03  0.7818608E-02  0.9816537E-01
         13   -1    0    0    0    0  0.00000000000E+00  0.00000000000E+00  0.10000000000E+04  0.10000000000E+04  0.00000000000E+00 0. -1.
          2   -1    0    0  501    0 -0.00000000000E+00 -0.00000000000E+00 -0.10395013086E+03  0.10395013086E+03  0.00000000000E+00 0. -1.
    9000006    2    1    2  501    0  0.00000000000E+00  0.00000000000E+00  0.89604986914E+03  0.11039501309E+04  0.64482596369E+03 0.  0.
         13    1    3    3    0    0 -0.25157570476E+03 -0.15305021314E+03  0.67278439165E+03  0.73440693121E+03  0.00000000000E+00 0. -1.
          4    1    3    3  501    0  0.25157570476E+03  0.15305021314E+03  0.22326547749E+03  0.36954319965E+03  0.00000000000E+00 0. -1.
<mgrwt>
<rscale>  0 0.64482596E+03</rscale>
<asrwt>0</asrwt>
<pdfrwt beam="1">0</pdfrwt>
<pdfrwt beam="2">  1        2 0.37800127E+00 0.64482596E+03</pdfrwt>
<totfact> 0.48098493E+00</totfact>
</mgrwt>
</event>
<event>
 5    1  0.2369161E-004  0.6525893E+03  0.7818608E-02  0.9801933E-01
         13   -1    0    0    0    0  0.00000000000E+00  0.00000000000E+00  0.10000000000E+04  0.10000000000E+04  0.00000000000E+00 0. -1.
          2   -1    0    0  501    0 -0.00000000000E+00 -0.00000000000E+00 -0.10646820133E+03  0.10646820133E+03  0.00000000000E+00 0. -1.
    9000006    2    1    2  501    0  0.00000000000E+00  0.00000000000E+00  0.89353179867E+03  0.11064682013E+04  0.65258930830E+03 0.  0.
         13    1    3    3    0    0  0.19416596862E+03  0.53392481038E+02  0.88207502215E+03  0.90476932149E+03  0.00000000000E+00 0. -1.
          4    1    3    3  501    0 -0.19416596862E+03 -0.53392481038E+02  0.11456776522E+02  0.20169887984E+03  0.00000000000E+00 0. -1.
<mgrwt>
<rscale>  0 0.65258931E+03</rscale>
<asrwt>0</asrwt>
<pdfrwt beam="1">0</pdfrwt>
<pdfrwt beam="2">  1        2 0.38715791E+00 0.65258931E+03</pdfrwt>
<totfact> 0.44464728E+00</totfact>
</mgrwt>
</event>
<event>
 5    1  0.2369161E-004  0.6539866E+03  0.7818608E-02  0.9799327E-01
         13   -1    0    0    0    0  0.00000000000E+00  0.00000000000E+00  0.10000000000E+04  0.10000000000E+04  0.00000000000E+00 0. -1.
          2   -1    0    0  501    0 -0.00000000000E+00 -0.00000000000E+00 -0.10692463286E+03  0.10692463286E+03  0.00000000000E+00 0. -1.
    9000006    2    1    2  501    0  0.00000000000E+00  0.00000000000E+00  0.89307536714E+03  0.11069246329E+04  0.65398664469E+03 0.  0.
         13    1    3    3    0    0 -0.18957893967E+03  0.88886680067E+01 -0.41637937314E+01  0.18983287377E+03  0.00000000000E+00 0. -1.
          2    1    3    3  501    0  0.18957893967E+03 -0.88886680067E+01  0.89723916087E+03  0.91709175909E+03  0.00000000000E+00 0. -1.
<mgrwt>
<rscale>  0 0.65398664E+03</rscale>
<asrwt>0</asrwt>
<pdfrwt beam="1">0</pdfrwt>
<pdfrwt beam="2">  1        2 0.38881767E+00 0.65398664E+03</pdfrwt>
<totfact> 0.43833379E+00</totfact>
</mgrwt>
</event>
<event>
 5    1  0.2369161E-004  0.6516126E+03  0.7818608E-02  0.9803758E-01
         13   -1    0    0    0    0  0.00000000000E+00  0.00000000000E+00  0.10000000000E+04  0.10000000000E+04  0.00000000000E+00 0. -1.
          2   -1    0    0  501    0 -0.00000000000E+00 -0.00000000000E+00 -0.10614975869E+03  0.10614975869E+03  0.00000000000E+00 0. -1.
    9000006    2    1    2  501    0  0.00000000000E+00  0.00000000000E+00  0.89385024131E+03  0.11061497587E+04  0.65161264166E+03 0.  0.
         13    1    3    3    0    0  0.21403901345E+03  0.24172462879E+03  0.52104178495E+03  0.61296658727E+03  0.00000000000E+00 0. -1.
          2    1    3    3  501    0 -0.21403901345E+03 -0.24172462879E+03  0.37280845635E+03  0.49318317142E+03  0.00000000000E+00 0. -1.
<mgrwt>
<rscale>  0 0.65161264E+03</rscale>
<asrwt>0</asrwt>
<pdfrwt beam="1">0</pdfrwt>
<pdfrwt beam="2">  1        2 0.38599994E+00 0.65161264E+03</pdfrwt>
<totfact> 0.44910071E+00</totfact>
</mgrwt>
</event>
<event>
 5    1  0.2369161E-004  0.6750878E+03  0.7818608E-02  0.9760810E-01
         13   -1    0    0    0    0  0.00000000000E+00  0.00000000000E+00  0.10000000000E+04  0.10000000000E+04  0.00000000000E+00 0. -1.
          2   -1    0    0  501    0 -0.00000000000E+00 -0.00000000000E+00 -0.11393589290E+03  0.11393589290E+03  0.00000000000E+00 0. -1.
    9000006    2    1    2  501    0  0.00000000000E+00  0.00000000000E+00  0.88606410710E+03  0.11139358929E+04  0.67508782510E+03 0.  0.
         13    1    3    3    0    0  0.10924164901E+03 -0.26879432102E+03  0.72764608803E+03  0.78336004131E+03  0.00000000000E+00 0. -1.
          4    1    3    3  501    0 -0.10924164901E+03  0.26879432102E+03  0.15841801907E+03  0.33057585159E+03  0.00000000000E+00 0. -1.
<mgrwt>
<rscale>  0 0.67508783E+03</rscale>
<asrwt>0</asrwt>
<pdfrwt beam="1">0</pdfrwt>
<pdfrwt beam="2">  1        2 0.41431321E+00 0.67508783E+03</pdfrwt>
<totfact> 0.35097380E+00</totfact>
</mgrwt>
</event>
<event>
 5    1  0.2369161E-004  0.6548143E+03  0.7818608E-02  0.9797787E-01
         13   -1    0    0    0    0  0.00000000000E+00  0.00000000000E+00  0.10000000000E+04  0.10000000000E+04  0.00000000000E+00 0. -1.
          2   -1    0    0  501    0 -0.00000000000E+00 -0.00000000000E+00 -0.10719545622E+03  0.10719545622E+03  0.00000000000E+00 0. -1.
    9000006    2    1    2  501    0  0.00000000000E+00  0.00000000000E+00  0.89280454378E+03  0.11071954562E+04  0.65481434382E+03 0.  0.
         13    1    3    3    0    0 -0.82004704281E+02 -0.26415728230E+03  0.15018117835E+03  0.31473517065E+03  0.00000000000E+00 0. -1.
          4    1    3    3  501    0  0.82004704281E+02  0.26415728230E+03  0.74262336544E+03  0.79246028557E+03  0.00000000000E+00 0. -1.
<mgrwt>
<rscale>  0 0.65481434E+03</rscale>
<asrwt>0</asrwt>
<pdfrwt beam="1">0</pdfrwt>
<pdfrwt beam="2">  1        2 0.38980248E+00 0.65481434E+03</pdfrwt>
<totfact> 0.43462613E+00</totfact>
</mgrwt>
</event>
<event>
 5    1  0.2369161E-004  0.5542593E+03  0.7818608E-02  0.1000513E+00
         13   -1    0    0    0    0  0.00000000000E+00  0.00000000000E+00  0.10000000000E+04  0.10000000000E+04  0.00000000000E+00 0. -1.
          2   -1    0    0  501    0 -0.00000000000E+00 -0.00000000000E+00 -0.76800853254E+02  0.76800853254E+02  0.00000000000E+00 0. -1.
    9000006    2    1    2  501    0  0.00000000000E+00  0.00000000000E+00  0.92319914675E+03  0.10768008533E+04  0.55425933733E+03 0.  0.
         13    1    3    3    0    0  0.18861991957E+03  0.19754876931E+03  0.55267950081E+03  0.61648813527E+03  0.00000000000E+00 0. -1.
          4    1    3    3  501    0 -0.18861991957E+03 -0.19754876931E+03  0.37051964593E+03  0.46031271798E+03  0.00000000000E+00 0. -1.
<mgrwt>
<rscale>  0 0.55425934E+03</rscale>
<asrwt>0</asrwt>
<pdfrwt beam="1">0</pdfrwt>
<pdfrwt beam="2">  1        2 0.27927642E+00 0.55425934E+03</pdfrwt>
<totfact> 0.10949625E+01</totfact>
</mgrwt>
</event>
<event>
 5    1  0.2369161E-004  0.6516155E+03  0.7818608E-02  0.9803753E-01
         13   -1    0    0    0    0  0.00000000000E+00  0.00000000000E+00  0.10000000000E+04  0.10000000000E+04  0.00000000000E+00 0. -1.
          2   -1    0    0  501    0 -0.00000000000E+00 -0.00000000000E+00 -0.10615068752E+03  0.10615068752E+03  0.00000000000E+00 0. -1.
    9000006    2    1    2  501    0  0.00000000000E+00  0.00000000000E+00  0.89384931248E+03  0.11061506875E+04  0.65161549252E+03 0.  0.
         13    1    3    3    0    0 -0.10844724443E+03  0.29617831381E+03  0.30830331285E+03  0.44105932833E+03  0.00000000000E+00 0. -1.
          2    1    3    3  501    0  0.10844724443E+03 -0.29617831381E+03  0.58554599963E+03  0.66509135919E+03  0.00000000000E+00 0. -1.
<mgrwt>
<rscale>  0 0.65161549E+03</rscale>
<asrwt>0</asrwt>
<pdfrwt beam="1">0</pdfrwt>
<pdfrwt beam="2">  1        2 0.38600331E+00 0.65161549E+03</pdfrwt>
<totfact> 0.44908766E+00</totfact>
</mgrwt>
</event>
<event>
 5    1  0.2369161E-004  0.6487021E+03  0.7818608E-02  0.9809218E-01
         13   -1    0    0    0    0  0.00000000000E+00  0.00000000000E+00  0.10000000000E+04  0.10000000000E+04  0.00000000000E+00 0. -1.
          2   -1    0    0  501    0 -0.00000000000E+00 -0.00000000000E+00 -0.10520361022E+03  0.10520361022E+03  0.00000000000E+00 0. -1.
    9000006    2    1    2  501    0  0.00000000000E+00  0.00000000000E+00  0.89479638978E+03  0.11052036102E+04  0.64870212029E+03 0.  0.
         13    1    3    3    0    0  0.20470907898E+03  0.22042459451E+03  0.65403855154E+03  0.71990224043E+03  0.00000000000E+00 0. -1.
          4    1    3    3  501    0 -0.20470907898E+03 -0.22042459451E+03  0.24075783825E+03  0.38530136979E+03  0.00000000000E+00 0. -1.
<mgrwt>
<rscale>  0 0.64870212E+03</rscale>
<asrwt>0</asrwt>
<pdfrwt beam="1">0</pdfrwt>
<pdfrwt beam="2">  1        2 0.38255939E+00 0.64870212E+03</pdfrwt>
<totfact> 0.46257221E+00</totfact>
</mgrwt>
</event>
<event>
 5    1  0.2369161E-004  0.6459154E+03  0.7818608E-02  0.9814474E-01
         13   -1    0    0    0    0  0.00000000000E+00  0.00000000000E+00  0.10000000000E+04  0.10000000000E+04  0.00000000000E+00 0. -1.
          2   -1    0    0  501    0 -0.00000000000E+00 -0.00000000000E+00 -0.10430166152E+03  0.10430166152E+03  0.00000000000E+00 0. -1.
    9000006    2    1    2  501    0  0.00000000000E+00  0.00000000000E+00  0.89569833848E+03  0.11043016615E+04  0.64591535519E+03 0.  0.
         13    1    3    3    0    0 -0.25067971993E+03  0.56909717698E+02  0.11359844018E+03  0.28104028815E+03  0.00000000000E+00 0. -1.
          2    1    3    3  501    0  0.25067971993E+03 -0.56909717698E+02  0.78209989830E+03  0.82326137336E+03  0.00000000000E+00 0. -1.
<mgrwt>
<rscale>  0 0.64591536E+03</rscale>
<asrwt>0</asrwt>
<pdfrwt beam="1">0</pdfrwt>
<pdfrwt beam="2">  1        2 0.37927957E+00 0.64591536E+03</pdfrwt>
<totfact> 0.47575505E+00</totfact>
</mgrwt>
</event>
<event>
 5    1  0.2369161E-004  0.6660557E+03  0.7818608E-02  0.9777110E-01
         13   -1    0    0    0    0  0.00000000000E+00  0.00000000000E+00  0.10000000000E+04  0.10000000000E+04  0.00000000000E+00 0. -1.
          2   -1    0    0  501    0 -0.00000000000E+00 -0.00000000000E+00 -0.11090753698E+03  0.11090753698E+03  0.00000000000E+00 0. -1.
    9000006    2    1    2  501    0  0.00000000000E+00  0.00000000000E+00  0.88909246302E+03  0.11109075370E+04  0.66605566427E+03 0.  0.
         13    1    3    3    0    0  0.17436328724E+03 -0.22338082111E+02 -0.27221945282E+02  0.17788361407E+03  0.00000000000E+00 0. -1.
          2    1    3    3  501    0 -0.17436328724E+03  0.22338082111E+02  0.91631440831E+03  0.93302392291E+03  0.00000000000E+00 0. -1.
<mgrwt>
<rscale>  0 0.66605566E+03</rscale>
<asrwt>0</asrwt>
<pdfrwt beam="1">0</pdfrwt>
<pdfrwt beam="2">  1        2 0.40330098E+00 0.66605566E+03</pdfrwt>
<totfact> 0.38658036E+00</totfact>
</mgrwt>
</event>
<event>
 5    1  0.2369161E-004  0.6354587E+03  0.7818608E-02  0.9834454E-01
         13   -1    0    0    0    0  0.00000000000E+00  0.00000000000E+00  0.10000000000E+04  0.10000000000E+04  0.00000000000E+00 0. -1.
          2   -1    0    0  501    0 -0.00000000000E+00 -0.00000000000E+00 -0.10095194983E+03  0.10095194983E+03  0.00000000000E+00 0. -1.
    9000006    2    1    2  501    0  0.00000000000E+00  0.00000000000E+00  0.89904805017E+03  0.11009519498E+04  0.63545873139E+03 0.  0.
         13    1    3    3    0    0 -0.26719712246E+03  0.13426896454E+03  0.26349268542E+03  0.39856097697E+03  0.00000000000E+00 0. -1.
          2    1    3    3  501    0  0.26719712246E+03 -0.13426896454E+03  0.63555536475E+03  0.70239097286E+03  0.00000000000E+00 0. -1.
<mgrwt>
<rscale>  0 0.63545873E+03</rscale>
<asrwt>0</asrwt>
<pdfrwt beam="1">0</pdfrwt>
<pdfrwt beam="2">  1        2 0.36709877E+00 0.63545873E+03</pdfrwt>
<totfact> 0.52777501E+00</totfact>
</mgrwt>
</event>
<event>
 5    1  0.2369161E-004  0.6601622E+03  0.7818608E-02  0.9787895E-01
         13   -1    0    0    0    0  0.00000000000E+00  0.00000000000E+00  0.10000000000E+04  0.10000000000E+04  0.00000000000E+00 0. -1.
          2   -1    0    0  501    0 -0.00000000000E+00 -0.00000000000E+00 -0.10895353232E+03  0.10895353232E+03  0.00000000000E+00 0. -1.
    9000006    2    1    2  501    0  0.00000000000E+00  0.00000000000E+00  0.89104646768E+03  0.11089535323E+04  0.66016219921E+03 0.  0.
         13    1    3    3    0    0  0.22213191593E+03  0.23939878289E+03  0.52606997123E+03  0.61919623703E+03  0.00000000000E+00 0. -1.
          2    1    3    3  501    0 -0.22213191593E+03 -0.23939878289E+03  0.36497649646E+03  0.48975729529E+03  0.00000000000E+00 0. -1.
<mgrwt>
<rscale>  0 0.66016220E+03</rscale>
<asrwt>0</asrwt>
<pdfrwt beam="1">0</pdfrwt>
<pdfrwt beam="2">  1        2 0.39619550E+00 0.66016220E+03</pdfrwt>
<totfact> 0.41123872E+00</totfact>
</mgrwt>
</event>
<event>
 5    1  0.2369161E-004  0.6501803E+03  0.7818608E-02  0.9806441E-01
         13   -1    0    0    0    0  0.00000000000E+00  0.00000000000E+00  0.10000000000E+04  0.10000000000E+04  0.00000000000E+00 0. -1.
          2   -1    0    0  501    0 -0.00000000000E+00 -0.00000000000E+00 -0.10568359589E+03  0.10568359589E+03  0.00000000000E+00 0. -1.
    9000006    2    1    2  501    0  0.00000000000E+00  0.00000000000E+00  0.89431640411E+03  0.11056835959E+04  0.65018027005E+03 0.  0.
         13    1    3    3    0    0 -0.32305599030E+03  0.32075604487E+02  0.47609698936E+03  0.57624852325E+03  0.00000000000E+00 0. -1.
          2    1    3    3  501    0  0.32305599030E+03 -0.32075604487E+02  0.41821941475E+03  0.52943507264E+03  0.00000000000E+00 0. -1.
<mgrwt>
<rscale>  0 0.65018027E+03</rscale>
<asrwt>0</asrwt>
<pdfrwt beam="1">0</pdfrwt>
<pdfrwt beam="2">  1        2 0.38430480E+00 0.65018027E+03</pdfrwt>
<totfact> 0.45569292E+00</totfact>
</mgrwt>
</event>
<event>
 5    1  0.2369161E-004  0.6465997E+03  0.7818608E-02  0.9813181E-01
         13   -1    0    0    0    0  0.00000000000E+00  0.00000000000E+00  0.10000000000E+04  0.10000000000E+04  0.00000000000E+00 0. -1.
          2   -1    0    0  501    0 -0.00000000000E+00 -0.00000000000E+00 -0.10452279765E+03  0.10452279765E+03  0.00000000000E+00 0. -1.
    9000006    2    1    2  501    0  0.00000000000E+00  0.00000000000E+00  0.89547720235E+03  0.11045227977E+04  0.64659971436E+03 0.  0.
         13    1    3    3    0    0  0.12576472423E+03  0.28693522692E+03  0.31135810413E+03  0.44169272047E+03  0.00000000000E+00 0. -1.
          2    1    3    3  501    0 -0.12576472423E+03 -0.28693522692E+03  0.58411909822E+03  0.66283007718E+03  0.00000000000E+00 0. -1.
<mgrwt>
<rscale>  0 0.64659971E+03</rscale>
<asrwt>0</asrwt>
<pdfrwt beam="1">0</pdfrwt>
<pdfrwt beam="2">  1        2 0.38008370E+00 0.64659971E+03</pdfrwt>
<totfact> 0.47249169E+00</totfact>
</mgrwt>
</event>
<event>
 5    1  0.2369161E-004  0.6536022E+03  0.7818608E-02  0.9800043E-01
         13   -1    0    0    0    0  0.00000000000E+00  0.00000000000E+00  0.10000000000E+04  0.10000000000E+04  0.00000000000E+00 0. -1.
          2   -1    0    0  501    0 -0.00000000000E+00 -0.00000000000E+00 -0.10679897213E+03  0.10679897213E+03  0.00000000000E+00 0. -1.
    9000006    2    1    2  501    0  0.00000000000E+00  0.00000000000E+00  0.89320102787E+03  0.11067989721E+04  0.65360224030E+03 0.  0.
         13    1    3    3    0    0 -0.43098856856E+02 -0.11276138002E+03  0.96086043974E+03  0.96841387069E+03  0.00000000000E+00 0. -1.
          2    1    3    3  501    0  0.43098856856E+02  0.11276138002E+03 -0.67659411872E+02  0.13838510144E+03  0.00000000000E+00 0. -1.
<mgrwt>
<rscale>  0 0.65360224E+03</rscale>
<asrwt>0</asrwt>
<pdfrwt beam="1">0</pdfrwt>
<pdfrwt beam="2">  1        2 0.38836072E+00 0.65360224E+03</pdfrwt>
<totfact> 0.44006382E+00</totfact>
</mgrwt>
</event>
<event>
 5    1  0.2369161E-004  0.6590859E+03  0.7818608E-02  0.9789878E-01
         13   -1    0    0    0    0  0.00000000000E+00  0.00000000000E+00  0.10000000000E+04  0.10000000000E+04  0.00000000000E+00 0. -1.
          2   -1    0    0  501    0 -0.00000000000E+00 -0.00000000000E+00 -0.10859853958E+03  0.10859853958E+03  0.00000000000E+00 0. -1.
    9000006    2    1    2  501    0  0.00000000000E+00  0.00000000000E+00  0.89140146042E+03  0.11085985396E+04  0.65908585051E+03 0.  0.
         13    1    3    3    0    0  0.26777483552E+03 -0.21998078163E+02  0.76666018785E+03  0.81237621925E+03  0.00000000000E+00 0. -1.
          2    1    3    3  501    0 -0.26777483552E+03  0.21998078163E+02  0.12474127257E+03  0.29622232033E+03  0.00000000000E+00 0. -1.
<mgrwt>
<rscale>  0 0.65908585E+03</rscale>
<asrwt>0</asrwt>
<pdfrwt beam="1">0</pdfrwt>
<pdfrwt beam="2">  1        2 0.39490461E+00 0.65908585E+03</pdfrwt>
<totfact> 0.41586730E+00</totfact>
</mgrwt>
</event>
<event>
 5    1  0.2369161E-004  0.6483277E+03  0.7818608E-02  0.9809922E-01
         13   -1    0    0    0    0  0.00000000000E+00  0.00000000000E+00  0.10000000000E+04  0.10000000000E+04  0.00000000000E+00 0. -1.
          2   -1    0    0  501    0 -0.00000000000E+00 -0.00000000000E+00 -0.10508221358E+03  0.10508221358E+03  0.00000000000E+00 0. -1.
    9000006    2    1    2  501    0  0.00000000000E+00  0.00000000000E+00  0.89491778642E+03  0.11050822136E+04  0.64832773683E+03 0.  0.
         13    1    3    3    0    0 -0.23679516632E+03  0.20591710556E+03  0.58602225936E+03  0.66475250554E+03  0.00000000000E+00 0. -1.
          4    1    3    3  501    0  0.23679516632E+03 -0.20591710556E+03  0.30889552706E+03  0.44032970805E+03  0.00000000000E+00 0. -1.
<mgrwt>
<rscale>  0 0.64832774E+03</rscale>
<asrwt>0</asrwt>
<pdfrwt beam="1">0</pdfrwt>
<pdfrwt beam="2">  1        2 0.38211795E+00 0.64832774E+03</pdfrwt>
<totfact> 0.46432698E+00</totfact>
</mgrwt>
</event>
<event>
 5    1  0.2369161E-004  0.6449828E+03  0.7818608E-02  0.9816239E-01
         13   -1    0    0    0    0  0.00000000000E+00  0.00000000000E+00  0.10000000000E+04  0.10000000000E+04  0.00000000000E+00 0. -1.
          2   -1    0    0  501    0 -0.00000000000E+00 -0.00000000000E+00 -0.10400068795E+03  0.10400068795E+03  0.00000000000E+00 0. -1.
    9000006    2    1    2  501    0  0.00000000000E+00  0.00000000000E+00  0.89599931205E+03  0.11040006879E+04  0.64498275310E+03 0.  0.
         13    1    3    3    0    0  0.25311784456E+03 -0.17730888546E+03  0.29025042786E+03  0.42397216296E+03  0.00000000000E+00 0. -1.
          4    1    3    3  501    0 -0.25311784456E+03  0.17730888546E+03  0.60574888419E+03  0.68002852499E+03  0.00000000000E+00 0. -1.
<mgrwt>
<rscale>  0 0.64498275E+03</rscale>
<asrwt>0</asrwt>
<pdfrwt beam="1">0</pdfrwt>
<pdfrwt beam="2">  1        2 0.37818512E+00 0.64498275E+03</pdfrwt>
<totfact> 0.48022956E+00</totfact>
</mgrwt>
</event>
<event>
 5    1  0.2369161E-004  0.6534248E+03  0.7818608E-02  0.9800374E-01
         13   -1    0    0    0    0  0.00000000000E+00  0.00000000000E+00  0.10000000000E+04  0.10000000000E+04  0.00000000000E+00 0. -1.
          2   -1    0    0  501    0 -0.00000000000E+00 -0.00000000000E+00 -0.10674097960E+03  0.10674097960E+03  0.00000000000E+00 0. -1.
    9000006    2    1    2  501    0  0.00000000000E+00  0.00000000000E+00  0.89325902040E+03  0.11067409796E+04  0.65342476108E+03 0.  0.
         13    1    3    3    0    0 -0.17417728728E+03  0.35711779280E+02  0.91087862969E+03  0.92806946755E+03  0.00000000000E+00 0. -1.
          4    1    3    3  501    0  0.17417728728E+03 -0.35711779280E+02 -0.17619609284E+02  0.17867151204E+03  0.00000000000E+00 0. -1.
<mgrwt>
<rscale>  0 0.65342476E+03</rscale>
<asrwt>0</asrwt>
<pdfrwt beam="1">0</pdfrwt>
<pdfrwt beam="2">  1        2 0.38814984E+00 0.65342476E+03</pdfrwt>
<totfact> 0.44086432E+00</totfact>
</mgrwt>
</event>
<event>
 5    1  0.2369161E-004  0.6350750E+03  0.7818608E-02  0.9835195E-01
         13   -1    0    0    0    0  0.00000000000E+00  0.00000000000E+00  0.10000000000E+04  0.10000000000E+04  0.00000000000E+00 0. -1.
          2   -1    0    0  501    0 -0.00000000000E+00 -0.00000000000E+00 -0.10083005542E+03  0.10083005542E+03  0.00000000000E+00 0. -1.
    9000006    2    1    2  501    0  0.00000000000E+00  0.00000000000E+00  0.89916994458E+03  0.11008300554E+04  0.63507497328E+03 0.  0.
         13    1    3    3    0    0  0.26395562566E+03 -0.12149442565E+03  0.22762635171E+03  0.36911681589E+03  0.00000000000E+00 0. -1.
          4    1    3    3  501    0 -0.26395562566E+03  0.12149442565E+03  0.67154359287E+03  0.73171323953E+03  0.00000000000E+00 0. -1.
<mgrwt>
<rscale>  0 0.63507497E+03</rscale>
<asrwt>0</asrwt>
<pdfrwt beam="1">0</pdfrwt>
<pdfrwt beam="2">  1        2 0.36665552E+00 0.63507497E+03</pdfrwt>
<totfact> 0.52976272E+00</totfact>
</mgrwt>
</event>
<event>
 5    1  0.2369161E-004  0.6480923E+03  0.7818608E-02  0.9810365E-01
         13   -1    0    0    0    0  0.00000000000E+00  0.00000000000E+00  0.10000000000E+04  0.10000000000E+04  0.00000000000E+00 0. -1.
          2   -1    0    0  501    0 -0.00000000000E+00 -0.00000000000E+00 -0.10500591025E+03  0.10500591025E+03  0.00000000000E+00 0. -1.
    9000006    2    1    2  501    0  0.00000000000E+00  0.00000000000E+00  0.89499408975E+03  0.11050059103E+04  0.64809230902E+03 0.  0.
         13    1    3    3    0    0  0.33929464734E+02  0.22358538677E+03  0.51786021483E+02  0.23199876244E+03  0.00000000000E+00 0. -1.
          4    1    3    3  501    0 -0.33929464734E+02 -0.22358538677E+03  0.84320806826E+03  0.87300714782E+03  0.00000000000E+00 0. -1.
<mgrwt>
<rscale>  0 0.64809231E+03</rscale>
<asrwt>0</asrwt>
<pdfrwt beam="1">0</pdfrwt>
<pdfrwt beam="2">  1        2 0.38184048E+00 0.64809231E+03</pdfrwt>
<totfact> 0.46543303E+00</totfact>
</mgrwt>
</event>
<event>
 5    1  0.2369161E-004  0.6493662E+03  0.7818608E-02  0.9807969E-01
         13   -1    0    0    0    0  0.00000000000E+00  0.00000000000E+00  0.10000000000E+04  0.10000000000E+04  0.00000000000E+00 0. -1.
          2   -1    0    0  501    0 -0.00000000000E+00 -0.00000000000E+00 -0.10541909954E+03  0.10541909954E+03  0.00000000000E+00 0. -1.
    9000006    2    1    2  501    0  0.00000000000E+00  0.00000000000E+00  0.89458090046E+03  0.11054190995E+04  0.64936615108E+03 0.  0.
         13    1    3    3    0    0  0.45284020061E+01 -0.22398186970E+03  0.84735277164E+03  0.87646740042E+03  0.00000000000E+00 0. -1.
          4    1    3    3  501    0 -0.45284020061E+01  0.22398186970E+03  0.47228128814E+02  0.22895169913E+03  0.00000000000E+00 0. -1.
<mgrwt>
<rscale>  0 0.64936615E+03</rscale>
<asrwt>0</asrwt>
<pdfrwt beam="1">0</pdfrwt>
<pdfrwt beam="2">  1        2 0.38334299E+00 0.64936615E+03</pdfrwt>
<totfact> 0.45947218E+00</totfact>
</mgrwt>
</event>
<event>
 5    1  0.2369161E-004  0.6180726E+03  0.7818608E-02  0.9868605E-01
         13   -1    0    0    0    0  0.00000000000E+00  0.00000000000E+00  0.10000000000E+04  0.10000000000E+04  0.00000000000E+00 0. -1.
          2   -1    0    0  501    0 -0.00000000000E+00 -0.00000000000E+00 -0.95503428139E+02  0.95503428139E+02  0.00000000000E+00 0. -1.
    9000006    2    1    2  501    0  0.00000000000E+00  0.00000000000E+00  0.90449657186E+03  0.10955034281E+04  0.61807257871E+03 0.  0.
         13    1    3    3    0    0  0.71667494801E+02 -0.55792059164E+02  0.97581019621E+03  0.98002781732E+03  0.00000000000E+00 0. -1.
          4    1    3    3  501    0 -0.71667494801E+02  0.55792059164E+02 -0.71313624353E+02  0.11547561082E+03  0.00000000000E+00 0. -1.
<mgrwt>
<rscale>  0 0.61807258E+03</rscale>
<asrwt>0</asrwt>
<pdfrwt beam="1">0</pdfrwt>
<pdfrwt beam="2">  1        2 0.34728593E+00 0.61807258E+03</pdfrwt>
<totfact> 0.62369378E+00</totfact>
</mgrwt>
</event>
<event>
 5    1  0.2369161E-004  0.6476979E+03  0.7818608E-02  0.9811109E-01
         13   -1    0    0    0    0  0.00000000000E+00  0.00000000000E+00  0.10000000000E+04  0.10000000000E+04  0.00000000000E+00 0. -1.
          2   -1    0    0  501    0 -0.00000000000E+00 -0.00000000000E+00 -0.10487814030E+03  0.10487814030E+03  0.00000000000E+00 0. -1.
    9000006    2    1    2  501    0  0.00000000000E+00  0.00000000000E+00  0.89512185970E+03  0.11048781403E+04  0.64769789345E+03 0.  0.
         13    1    3    3    0    0 -0.79793187394E+02 -0.10597809885E+03 -0.56402290912E+02  0.14415106178E+03  0.00000000000E+00 0. -1.
          4    1    3    3  501    0  0.79793187394E+02  0.10597809885E+03  0.95152415062E+03  0.96072707852E+03  0.00000000000E+00 0. -1.
<mgrwt>
<rscale>  0 0.64769789E+03</rscale>
<asrwt>0</asrwt>
<pdfrwt beam="1">0</pdfrwt>
<pdfrwt beam="2">  1        2 0.38137586E+00 0.64769789E+03</pdfrwt>
<totfact> 0.46729046E+00</totfact>
</mgrwt>
</event>
<event>
 5    1  0.2369161E-004  0.6456627E+03  0.7818608E-02  0.9814952E-01
         13   -1    0    0    0    0  0.00000000000E+00  0.00000000000E+00  0.10000000000E+04  0.10000000000E+04  0.00000000000E+00 0. -1.
          2   -1    0    0  501    0 -0.00000000000E+00 -0.00000000000E+00 -0.10422009638E+03  0.10422009638E+03  0.00000000000E+00 0. -1.
    9000006    2    1    2  501    0  0.00000000000E+00  0.00000000000E+00  0.89577990362E+03  0.11042200964E+04  0.64566274905E+03 0.  0.
         13    1    3    3    0    0  0.25423009779E+03 -0.13697427740E+03  0.20109031412E+03  0.35189801040E+03  0.00000000000E+00 0. -1.
          4    1    3    3  501    0 -0.25423009779E+03  0.13697427740E+03  0.69468958950E+03  0.75232208598E+03  0.00000000000E+00 0. -1.
<mgrwt>
<rscale>  0 0.64566275E+03</rscale>
<asrwt>0</asrwt>
<pdfrwt beam="1">0</pdfrwt>
<pdfrwt beam="2">  1        2 0.37898297E+00 0.64566275E+03</pdfrwt>
<totfact> 0.47696389E+00</totfact>
</mgrwt>
</event>
<event>
 5    1  0.2369161E-004  0.6413842E+03  0.7818608E-02  0.9823082E-01
         13   -1    0    0    0    0  0.00000000000E+00  0.00000000000E+00  0.10000000000E+04  0.10000000000E+04  0.00000000000E+00 0. -1.
          2   -1    0    0  501    0 -0.00000000000E+00 -0.00000000000E+00 -0.10284342515E+03  0.10284342515E+03  0.00000000000E+00 0. -1.
    9000006    2    1    2  501    0  0.00000000000E+00  0.00000000000E+00  0.89715657485E+03  0.11028434251E+04  0.64138420670E+03 0.  0.
         13    1    3    3    0    0  0.23473878608E+03 -0.41673246938E+02  0.81738227053E+03  0.85144156193E+03  0.00000000000E+00 0. -1.
          2    1    3    3  501    0 -0.23473878608E+03  0.41673246938E+02  0.79774304321E+02  0.25140186322E+03  0.00000000000E+00 0. -1.
<mgrwt>
<rscale>  0 0.64138421E+03</rscale>
<asrwt>0</asrwt>
<pdfrwt beam="1">0</pdfrwt>
<pdfrwt beam="2">  1        2 0.37397688E+00 0.64138421E+03</pdfrwt>
<totfact> 0.49779478E+00</totfact>
</mgrwt>
</event>
<event>
 5    1  0.2369161E-004  0.6498360E+03  0.7818608E-02  0.9807087E-01
         13   -1    0    0    0    0  0.00000000000E+00  0.00000000000E+00  0.10000000000E+04  0.10000000000E+04  0.00000000000E+00 0. -1.
          2   -1    0    0  501    0 -0.00000000000E+00 -0.00000000000E+00 -0.10557169491E+03  0.10557169491E+03  0.00000000000E+00 0. -1.
    9000006    2    1    2  501    0  0.00000000000E+00  0.00000000000E+00  0.89442830509E+03  0.11055716949E+04  0.64983596365E+03 0.  0.
         13    1    3    3    0    0 -0.18641496705E+03  0.11249676746E+03  0.36900095990E+02  0.22083405469E+03  0.00000000000E+00 0. -1.
          4    1    3    3  501    0  0.18641496705E+03 -0.11249676746E+03  0.85752820910E+03  0.88473764022E+03  0.00000000000E+00 0. -1.
<mgrwt>
<rscale>  0 0.64983596E+03</rscale>
<asrwt>0</asrwt>
<pdfrwt beam="1">0</pdfrwt>
<pdfrwt beam="2">  1        2 0.38389788E+00 0.64983596E+03</pdfrwt>
<totfact> 0.45728836E+00</totfact>
</mgrwt>
</event>
<event>
 5    1  0.2369161E-004  0.6619584E+03  0.7818608E-02  0.9784595E-01
         13   -1    0    0    0    0  0.00000000000E+00  0.00000000000E+00  0.10000000000E+04  0.10000000000E+04  0.00000000000E+00 0. -1.
          2   -1    0    0  501    0 -0.00000000000E+00 -0.00000000000E+00 -0.10954722225E+03  0.10954722225E+03  0.00000000000E+00 0. -1.
    9000006    2    1    2  501    0  0.00000000000E+00  0.00000000000E+00  0.89045277775E+03  0.11095472222E+04  0.66195837406E+03 0.  0.
         13    1    3    3    0    0 -0.11335747982E+01 -0.27463387275E+03  0.13560321980E+03  0.30628953993E+03  0.00000000000E+00 0. -1.
          4    1    3    3  501    0  0.11335747982E+01  0.27463387275E+03  0.75484955795E+03  0.80325768231E+03  0.00000000000E+00 0. -1.
<mgrwt>
<rscale>  0 0.66195837E+03</rscale>
<asrwt>0</asrwt>
<pdfrwt beam="1">0</pdfrwt>
<pdfrwt beam="2">  1        2 0.39835438E+00 0.66195837E+03</pdfrwt>
<totfact> 0.40360139E+00</totfact>
</mgrwt>
</event>
<event>
 5    1  0.2369161E-004  0.6252848E+03  0.7818608E-02  0.9854294E-01
         13   -1    0    0    0    0  0.00000000000E+00  0.00000000000E+00  0.10000000000E+04  0.10000000000E+04  0.00000000000E+00 0. -1.
          2   -1    0    0  501    0 -0.00000000000E+00 -0.00000000000E+00 -0.97745279315E+02  0.97745279315E+02  0.00000000000E+00 0. -1.
    9000006    2    1    2  501    0  0.00000000000E+00  0.00000000000E+00  0.90225472068E+03  0.10977452793E+04  0.62528482891E+03 0.  0.
         13    1    3    3    0    0 -0.78843986878E+02 -0.15267700058E+03  0.90966523157E+03  0.92575238282E+03  0.00000000000E+00 0. -1.
          4    1    3    3  501    0  0.78843986878E+02  0.15267700058E+03 -0.74105108877E+01  0.17199289649E+03  0.00000000000E+00 0. -1.
<mgrwt>
<rscale>  0 0.62528483E+03</rscale>
<asrwt>0</asrwt>
<pdfrwt beam="1">0</pdfrwt>
<pdfrwt beam="2">  1        2 0.35543813E+00 0.62528483E+03</pdfrwt>
<totfact> 0.58242199E+00</totfact>
</mgrwt>
</event>
<event>
 5    1  0.2369161E-004  0.6495725E+03  0.7818608E-02  0.9807582E-01
         13   -1    0    0    0    0  0.00000000000E+00  0.00000000000E+00  0.10000000000E+04  0.10000000000E+04  0.00000000000E+00 0. -1.
          2   -1    0    0  501    0 -0.00000000000E+00 -0.00000000000E+00 -0.10548609483E+03  0.10548609483E+03  0.00000000000E+00 0. -1.
    9000006    2    1    2  501    0  0.00000000000E+00  0.00000000000E+00  0.89451390517E+03  0.11054860948E+04  0.64957245887E+03 0.  0.
         13    1    3    3    0    0 -0.68838937561E+02 -0.74798381733E+02  0.97222851372E+03  0.97752845490E+03  0.00000000000E+00 0. -1.
          2    1    3    3  501    0  0.68838937561E+02  0.74798381733E+02 -0.77714608555E+02  0.12795763993E+03  0.00000000000E+00 0. -1.
<mgrwt>
<rscale>  0 0.64957246E+03</rscale>
<asrwt>0</asrwt>
<pdfrwt beam="1">0</pdfrwt>
<pdfrwt beam="2">  1        2 0.38358661E+00 0.64957246E+03</pdfrwt>
<totfact> 0.45851224E+00</totfact>
</mgrwt>
</event>
<event>
 5    1  0.2369161E-004  0.6292305E+03  0.7818608E-02  0.9846552E-01
         13   -1    0    0    0    0  0.00000000000E+00  0.00000000000E+00  0.10000000000E+04  0.10000000000E+04  0.00000000000E+00 0. -1.
          2   -1    0    0  501    0 -0.00000000000E+00 -0.00000000000E+00 -0.98982754796E+02  0.98982754796E+02  0.00000000000E+00 0. -1.
    9000006    2    1    2  501    0  0.00000000000E+00  0.00000000000E+00  0.90101724520E+03  0.10989827548E+04  0.62923049766E+03 0.  0.
         13    1    3    3    0    0 -0.10119364944E+03  0.26730130922E+03  0.68018238750E+03  0.73779280619E+03  0.00000000000E+00 0. -1.
          2    1    3    3  501    0  0.10119364944E+03 -0.26730130922E+03  0.22083485770E+03  0.36118994860E+03  0.00000000000E+00 0. -1.
<mgrwt>
<rscale>  0 0.62923050E+03</rscale>
<asrwt>0</asrwt>
<pdfrwt beam="1">0</pdfrwt>
<pdfrwt beam="2">  1        2 0.35993805E+00 0.62923050E+03</pdfrwt>
<totfact> 0.56074215E+00</totfact>
</mgrwt>
</event>
<event>
 5    1  0.2369161E-004  0.6445763E+03  0.7818608E-02  0.9817010E-01
         13   -1    0    0    0    0  0.00000000000E+00  0.00000000000E+00  0.10000000000E+04  0.10000000000E+04  0.00000000000E+00 0. -1.
          2   -1    0    0  501    0 -0.00000000000E+00 -0.00000000000E+00 -0.10386964547E+03  0.10386964547E+03  0.00000000000E+00 0. -1.
    9000006    2    1    2  501    0  0.00000000000E+00  0.00000000000E+00  0.89613035453E+03  0.11038696455E+04  0.64457628088E+03 0.  0.
         13    1    3    3    0    0  0.32872605913E+02  0.31488957658E+03  0.55129651137E+03  0.63573885921E+03  0.00000000000E+00 0. -1.
          4    1    3    3  501    0 -0.32872605913E+02 -0.31488957658E+03  0.34483384316E+03  0.46813078626E+03  0.00000000000E+00 0. -1.
<mgrwt>
<rscale>  0 0.64457628E+03</rscale>
<asrwt>0</asrwt>
<pdfrwt beam="1">0</pdfrwt>
<pdfrwt beam="2">  1        2 0.37770860E+00 0.64457628E+03</pdfrwt>
<totfact> 0.48218970E+00</totfact>
</mgrwt>
</event>
<event>
 5    1  0.2369161E-004  0.6391331E+03  0.7818608E-02  0.9827387E-01
         13   -1    0    0    0    0  0.00000000000E+00  0.00000000000E+00  0.10000000000E+04  0.10000000000E+04  0.00000000000E+00 0. -1.
          2   -1    0    0  501    0 -0.00000000000E+00 -0.00000000000E+00 -0.10212276867E+03  0.10212276867E+03  0.00000000000E+00 0. -1.
    9000006    2    1    2  501    0  0.00000000000E+00  0.00000000000E+00  0.89787723133E+03  0.11021227687E+04  0.63913306492E+03 0.  0.
         13    1    3    3    0    0 -0.28427565018E+03  0.14433202298E+03  0.48665499319E+03  0.58178815779E+03  0.00000000000E+00 0. -1.
          4    1    3    3  501    0  0.28427565018E+03 -0.14433202298E+03  0.41122223814E+03  0.52033461088E+03  0.00000000000E+00 0. -1.
<mgrwt>
<rscale>  0 0.63913306E+03</rscale>
<asrwt>0</asrwt>
<pdfrwt beam="1">0</pdfrwt>
<pdfrwt beam="2">  1        2 0.37135631E+00 0.63913306E+03</pdfrwt>
<totfact> 0.50902830E+00</totfact>
</mgrwt>
</event>
<event>
 5    1  0.2369161E-004  0.6415350E+03  0.7818608E-02  0.9822794E-01
         13   -1    0    0    0    0  0.00000000000E+00  0.00000000000E+00  0.10000000000E+04  0.10000000000E+04  0.00000000000E+00 0. -1.
          2   -1    0    0  501    0 -0.00000000000E+00 -0.00000000000E+00 -0.10289178521E+03  0.10289178521E+03  0.00000000000E+00 0. -1.
    9000006    2    1    2  501    0  0.00000000000E+00  0.00000000000E+00  0.89710821479E+03  0.11028917852E+04  0.64153498800E+03 0.  0.
         13    1    3    3    0    0 -0.24229573563E+03  0.27012200690E+02  0.80692435441E+03  0.84294946244E+03  0.00000000000E+00 0. -1.
          2    1    3    3  501    0  0.24229573563E+03 -0.27012200690E+02  0.90183860380E+02  0.25994232276E+03  0.00000000000E+00 0. -1.
<mgrwt>
<rscale>  0 0.64153499E+03</rscale>
<asrwt>0</asrwt>
<pdfrwt beam="1">0</pdfrwt>
<pdfrwt beam="2">  1        2 0.37415274E+00 0.64153499E+03</pdfrwt>
<totfact> 0.49704913E+00</totfact>
</mgrwt>
</event>
<event>
 5    1  0.2369161E-004  0.6529313E+03  0.7818608E-02  0.9801294E-01
         13   -1    0    0    0    0  0.00000000000E+00  0.00000000000E+00  0.10000000000E+04  0.10000000000E+04  0.00000000000E+00 0. -1.
          2   -1    0    0  501    0 -0.00000000000E+00 -0.00000000000E+00 -0.10657982503E+03  0.10657982503E+03  0.00000000000E+00 0. -1.
    9000006    2    1    2  501    0  0.00000000000E+00  0.00000000000E+00  0.89342017497E+03  0.11065798250E+04  0.65293131347E+03 0.  0.
         13    1    3    3    0    0  0.10503590910E+03 -0.27855333429E+02 -0.75029529103E+02  0.13205261087E+03  0.00000000000E+00 0. -1.
          4    1    3    3  501    0 -0.10503590910E+03  0.27855333429E+02  0.96844970408E+03  0.97452721415E+03  0.00000000000E+00 0. -1.
<mgrwt>
<rscale>  0 0.65293131E+03</rscale>
<asrwt>0</asrwt>
<pdfrwt beam="1">0</pdfrwt>
<pdfrwt beam="2">  1        2 0.38756382E+00 0.65293131E+03</pdfrwt>
<totfact> 0.44309572E+00</totfact>
</mgrwt>
</event>
<event>
 5    1  0.2369161E-004  0.6440933E+03  0.7818608E-02  0.9817926E-01
         13   -1    0    0    0    0  0.00000000000E+00  0.00000000000E+00  0.10000000000E+04  0.10000000000E+04  0.00000000000E+00 0. -1.
          2   -1    0    0  501    0 -0.00000000000E+00 -0.00000000000E+00 -0.10371402957E+03  0.10371402957E+03  0.00000000000E+00 0. -1.
    9000006    2    1    2  501    0  0.00000000000E+00  0.00000000000E+00  0.89628597043E+03  0.11037140296E+04  0.64409325279E+03 0.  0.
         13    1    3    3    0    0 -0.26129960743E+03 -0.16410757309E+03  0.29010869349E+03  0.42352312148E+03  0.00000000000E+00 0. -1.
          2    1    3    3  501    0  0.26129960743E+03  0.16410757309E+03  0.60617727693E+03  0.68019090810E+03  0.00000000000E+00 0. -1.
<mgrwt>
<rscale>  0 0.64409325E+03</rscale>
<asrwt>0</asrwt>
<pdfrwt beam="1">0</pdfrwt>
<pdfrwt beam="2">  1        2 0.37714272E+00 0.64409325E+03</pdfrwt>
<totfact> 0.48452688E+00</totfact>
</mgrwt>
</event>
<event>
 5    1  0.2369161E-004  0.6424125E+03  0.7818608E-02  0.9821122E-01
         13   -1    0    0    0    0  0.00000000000E+00  0.00000000000E+00  0.10000000000E+04  0.10000000000E+04  0.00000000000E+00 0. -1.
          2   -1    0    0  501    0 -0.00000000000E+00 -0.00000000000E+00 -0.10317344828E+03  0.10317344828E+03  0.00000000000E+00 0. -1.
    9000006    2    1    2  501    0  0.00000000000E+00  0.00000000000E+00  0.89682655172E+03  0.11031734483E+04  0.64241247895E+03 0.  0.
         13    1    3    3    0    0  0.29557281263E+03  0.29274820940E+02  0.65840206655E+03  0.72229743455E+03  0.00000000000E+00 0. -1.
          4    1    3    3  501    0 -0.29557281263E+03 -0.29274820940E+02  0.23842448517E+03  0.38087601373E+03  0.00000000000E+00 0. -1.
<mgrwt>
<rscale>  0 0.64241248E+03</rscale>
<asrwt>0</asrwt>
<pdfrwt beam="1">0</pdfrwt>
<pdfrwt beam="2">  1        2 0.37517697E+00 0.64241248E+03</pdfrwt>
<totfact> 0.49272648E+00</totfact>
</mgrwt>
</event>
<event>
 5    1  0.2369161E-004  0.6492808E+03  0.7818608E-02  0.9808130E-01
         13   -1    0    0    0    0  0.00000000000E+00  0.00000000000E+00  0.10000000000E+04  0.10000000000E+04  0.00000000000E+00 0. -1.
          2   -1    0    0  501    0 -0.00000000000E+00 -0.00000000000E+00 -0.10539138348E+03  0.10539138348E+03  0.00000000000E+00 0. -1.
    9000006    2    1    2  501    0  0.00000000000E+00  0.00000000000E+00  0.89460861652E+03  0.11053913835E+04  0.64928078202E+03 0.  0.
         13    1    3    3    0    0 -0.19706813259E+03 -0.22533013414E+03  0.23342799372E+03  0.37960261655E+03  0.00000000000E+00 0. -1.
          4    1    3    3  501    0  0.19706813259E+03  0.22533013414E+03  0.66118062280E+03  0.72578876693E+03  0.00000000000E+00 0. -1.
<mgrwt>
<rscale>  0 0.64928078E+03</rscale>
<asrwt>0</asrwt>
<pdfrwt beam="1">0</pdfrwt>
<pdfrwt beam="2">  1        2 0.38324220E+00 0.64928078E+03</pdfrwt>
<totfact> 0.45986984E+00</totfact>
</mgrwt>
</event>
<event>
 5    1  0.2369161E-004  0.6453284E+03  0.7818608E-02  0.9815585E-01
         13   -1    0    0    0    0  0.00000000000E+00  0.00000000000E+00  0.10000000000E+04  0.10000000000E+04  0.00000000000E+00 0. -1.
          2   -1    0    0  501    0 -0.00000000000E+00 -0.00000000000E+00 -0.10411217223E+03  0.10411217223E+03  0.00000000000E+00 0. -1.
    9000006    2    1    2  501    0  0.00000000000E+00  0.00000000000E+00  0.89588782777E+03  0.11041121722E+04  0.64532835745E+03 0.  0.
         13    1    3    3    0    0  0.19378464792E+03  0.12504314179E+03  0.61849733233E+02  0.23877534751E+03  0.00000000000E+00 0. -1.
          4    1    3    3  501    0 -0.19378464792E+03 -0.12504314179E+03  0.83403809454E+03  0.86533682472E+03  0.00000000000E+00 0. -1.
<mgrwt>
<rscale>  0 0.64532836E+03</rscale>
<asrwt>0</asrwt>
<pdfrwt beam="1">0</pdfrwt>
<pdfrwt beam="2">  1        2 0.37859052E+00 0.64532836E+03</pdfrwt>
<totfact> 0.47856770E+00</totfact>
</mgrwt>
</event>
<event>
 5    1  0.2369161E-004  0.6553544E+03  0.7818608E-02  0.9796784E-01
         13   -1    0    0    0    0  0.00000000000E+00  0.00000000000E+00  0.10000000000E+04  0.10000000000E+04  0.00000000000E+00 0. -1.
          2   -1    0    0  501    0 -0.00000000000E+00 -0.00000000000E+00 -0.10737235119E+03  0.10737235119E+03  0.00000000000E+00 0. -1.
    9000006    2    1    2  501    0  0.00000000000E+00  0.00000000000E+00  0.89262764881E+03  0.11073723512E+04  0.65535441155E+03 0.  0.
         13    1    3    3    0    0  0.12065766350E+03  0.14143335311E+03 -0.96338555680E+01  0.18615712800E+03  0.00000000000E+00 0. -1.
          2    1    3    3  501    0 -0.12065766350E+03 -0.14143335311E+03  0.90226150438E+03  0.92121522318E+03  0.00000000000E+00 0. -1.
<mgrwt>
<rscale>  0 0.65535441E+03</rscale>
<asrwt>0</asrwt>
<pdfrwt beam="1">0</pdfrwt>
<pdfrwt beam="2">  1        2 0.39044574E+00 0.65535441E+03</pdfrwt>
<totfact> 0.43221971E+00</totfact>
</mgrwt>
</event>
<event>
 5    1  0.2369161E-004  0.6489480E+03  0.7818608E-02  0.9808755E-01
         13   -1    0    0    0    0  0.00000000000E+00  0.00000000000E+00  0.10000000000E+04  0.10000000000E+04  0.00000000000E+00 0. -1.
          2   -1    0    0  501    0 -0.00000000000E+00 -0.00000000000E+00 -0.10528336055E+03  0.10528336055E+03  0.00000000000E+00 0. -1.
    9000006    2    1    2  501    0  0.00000000000E+00  0.00000000000E+00  0.89471663945E+03  0.11052833606E+04  0.64894795031E+03 0.  0.
         13    1    3    3    0    0  0.26030527963E+03 -0.22907669424E+02  0.11974373745E+03  0.28744071141E+03  0.00000000000E+00 0. -1.
          2    1    3    3  501    0 -0.26030527963E+03  0.22907669424E+02  0.77497290200E+03  0.81784264914E+03  0.00000000000E+00 0. -1.
<mgrwt>
<rscale>  0 0.64894795E+03</rscale>
<asrwt>0</asrwt>
<pdfrwt beam="1">0</pdfrwt>
<pdfrwt beam="2">  1        2 0.38284939E+00 0.64894795E+03</pdfrwt>
<totfact> 0.46142272E+00</totfact>
</mgrwt>
</event>
<event>
 5    1  0.2369161E-004  0.6505644E+03  0.7818608E-02  0.9805721E-01
         13   -1    0    0    0    0  0.00000000000E+00  0.00000000000E+00  0.10000000000E+04  0.10000000000E+04  0.00000000000E+00 0. -1.
          2   -1    0    0  501    0 -0.00000000000E+00 -0.00000000000E+00 -0.10580850461E+03  0.10580850461E+03  0.00000000000E+00 0. -1.
    9000006    2    1    2  501    0  0.00000000000E+00  0.00000000000E+00  0.89419149539E+03  0.11058085046E+04  0.65056438454E+03 0.  0.
         13    1    3    3    0    0 -0.23208548605E+03 -0.15452253668E+03  0.16232694062E+03  0.32263124900E+03  0.00000000000E+00 0. -1.
          4    1    3    3  501    0  0.23208548605E+03  0.15452253668E+03  0.73186455477E+03  0.78317725561E+03  0.00000000000E+00 0. -1.
<mgrwt>
<rscale>  0 0.65056438E+03</rscale>
<asrwt>0</asrwt>
<pdfrwt beam="1">0</pdfrwt>
<pdfrwt beam="2">  1        2 0.38475901E+00 0.65056438E+03</pdfrwt>
<totfact> 0.45391798E+00</totfact>
</mgrwt>
</event>
<event>
 5    1  0.2369161E-004  0.6132095E+03  0.7818608E-02  0.9878373E-01
         13   -1    0    0    0    0  0.00000000000E+00  0.00000000000E+00  0.10000000000E+04  0.10000000000E+04  0.00000000000E+00 0. -1.
          2   -1    0    0  501    0 -0.00000000000E+00 -0.00000000000E+00 -0.94006464106E+02  0.94006464106E+02  0.00000000000E+00 0. -1.
    9000006    2    1    2  501    0  0.00000000000E+00  0.00000000000E+00  0.90599353589E+03  0.10940064641E+04  0.61320947190E+03 0.  0.
         13    1    3    3    0    0  0.40632603117E+02  0.55903252780E+02  0.98592308396E+03  0.98834230386E+03  0.00000000000E+00 0. -1.
          2    1    3    3  501    0 -0.40632603117E+02 -0.55903252780E+02 -0.79929548065E+02  0.10566416025E+03  0.00000000000E+00 0. -1.
<mgrwt>
<rscale>  0 0.61320947E+03</rscale>
<asrwt>0</asrwt>
<pdfrwt beam="1">0</pdfrwt>
<pdfrwt beam="2">  1        2 0.34184241E+00 0.61320947E+03</pdfrwt>
<totfact> 0.65275420E+00</totfact>
</mgrwt>
</event>
<event>
 5    1  0.2369161E-004  0.6450886E+03  0.7818608E-02  0.9816039E-01
         13   -1    0    0    0    0  0.00000000000E+00  0.00000000000E+00  0.10000000000E+04  0.10000000000E+04  0.00000000000E+00 0. -1.
          2   -1    0    0  501    0 -0.00000000000E+00 -0.00000000000E+00 -0.10403483054E+03  0.10403483054E+03  0.00000000000E+00 0. -1.
    9000006    2    1    2  501    0  0.00000000000E+00  0.00000000000E+00  0.89596516946E+03  0.11040348305E+04  0.64508861575E+03 0.  0.
         13    1    3    3    0    0 -0.41794728391E+01 -0.10823940917E+03  0.96794026203E+03  0.97398233483E+03  0.00000000000E+00 0. -1.
          4    1    3    3  501    0  0.41794728391E+01  0.10823940917E+03 -0.71975092578E+02  0.13005249571E+03  0.00000000000E+00 0. -1.
<mgrwt>
<rscale>  0 0.64508862E+03</rscale>
<asrwt>0</asrwt>
<pdfrwt beam="1">0</pdfrwt>
<pdfrwt beam="2">  1        2 0.37830927E+00 0.64508862E+03</pdfrwt>
<totfact> 0.47972005E+00</totfact>
</mgrwt>
</event>
<event>
 5    1  0.2369161E-004  0.6326914E+03  0.7818608E-02  0.9839811E-01
         13   -1    0    0    0    0  0.00000000000E+00  0.00000000000E+00  0.10000000000E+04  0.10000000000E+04  0.00000000000E+00 0. -1.
          2   -1    0    0  501    0 -0.00000000000E+00 -0.00000000000E+00 -0.10007459869E+03  0.10007459869E+03  0.00000000000E+00 0. -1.
    9000006    2    1    2  501    0  0.00000000000E+00  0.00000000000E+00  0.89992540131E+03  0.11000745987E+04  0.63269138984E+03 0.  0.
         13    1    3    3    0    0 -0.19846259149E+03  0.79329205250E+02  0.44448550755E+02  0.21830299286E+03  0.00000000000E+00 0. -1.
          4    1    3    3  501    0  0.19846259149E+03 -0.79329205250E+02  0.85547685055E+03  0.88177160583E+03  0.00000000000E+00 0. -1.
<mgrwt>
<rscale>  0 0.63269139E+03</rscale>
<asrwt>0</asrwt>
<pdfrwt beam="1">0</pdfrwt>
<pdfrwt beam="2">  1        2 0.36390840E+00 0.63269139E+03</pdfrwt>
<totfact> 0.54223610E+00</totfact>
</mgrwt>
</event>
<event>
 5    1  0.2369161E-004  0.5400656E+03  0.7818608E-02  0.1003820E+00
         13   -1    0    0    0    0  0.00000000000E+00  0.00000000000E+00  0.10000000000E+04  0.10000000000E+04  0.00000000000E+00 0. -1.
          2   -1    0    0  501    0 -0.00000000000E+00 -0.00000000000E+00 -0.72917716258E+02  0.72917716258E+02  0.00000000000E+00 0. -1.
    9000006    2    1    2  501    0  0.00000000000E+00  0.00000000000E+00  0.92708228374E+03  0.10729177163E+04  0.54006561178E+03 0.  0.
         13    1    3    3    0    0  0.18571319027E+03  0.17840671800E+03  0.30215318000E+03  0.39700741838E+03  0.00000000000E+00 0. -1.
          4    1    3    3  501    0 -0.18571319027E+03 -0.17840671800E+03  0.62492910375E+03  0.67591029788E+03  0.00000000000E+00 0. -1.
<mgrwt>
<rscale>  0 0.54006561E+03</rscale>
<asrwt>0</asrwt>
<pdfrwt beam="1">0</pdfrwt>
<pdfrwt beam="2">  1        2 0.26515589E+00 0.54006561E+03</pdfrwt>
<totfact> 0.12299446E+01</totfact>
</mgrwt>
</event>
<event>
 5    1  0.2369161E-004  0.6413409E+03  0.7818608E-02  0.9823164E-01
         13   -1    0    0    0    0  0.00000000000E+00  0.00000000000E+00  0.10000000000E+04  0.10000000000E+04  0.00000000000E+00 0. -1.
          2   -1    0    0  501    0 -0.00000000000E+00 -0.00000000000E+00 -0.10282954110E+03  0.10282954110E+03  0.00000000000E+00 0. -1.
    9000006    2    1    2  501    0  0.00000000000E+00  0.00000000000E+00  0.89717045890E+03  0.11028295411E+04  0.64134091122E+03 0.  0.
         13    1    3    3    0    0  0.18557468796E+03  0.26116823307E+03  0.42534048594E+03  0.53250477909E+03  0.00000000000E+00 0. -1.
          2    1    3    3  501    0 -0.18557468796E+03 -0.26116823307E+03  0.47182997296E+03  0.57032476201E+03  0.00000000000E+00 0. -1.
<mgrwt>
<rscale>  0 0.64134091E+03</rscale>
<asrwt>0</asrwt>
<pdfrwt beam="1">0</pdfrwt>
<pdfrwt beam="2">  1        2 0.37392639E+00 0.64134091E+03</pdfrwt>
<totfact> 0.49800904E+00</totfact>
</mgrwt>
</event>
<event>
 5    1  0.2369161E-004  0.6890862E+03  0.7818608E-02  0.9736080E-01
         13   -1    0    0    0    0  0.00000000000E+00  0.00000000000E+00  0.10000000000E+04  0.10000000000E+04  0.00000000000E+00 0. -1.
          2   -1    0    0  501    0 -0.00000000000E+00 -0.00000000000E+00 -0.11870994328E+03  0.11870994328E+03  0.00000000000E+00 0. -1.
    9000006    2    1    2  501    0  0.00000000000E+00  0.00000000000E+00  0.88129005672E+03  0.11187099433E+04  0.68908618701E+03 0.  0.
         13    1    3    3    0    0  0.28584169843E+02 -0.28632067444E+03  0.74830569213E+03  0.80172189208E+03  0.00000000000E+00 0. -1.
          2    1    3    3  501    0 -0.28584169843E+02  0.28632067444E+03  0.13298436459E+03  0.31698805120E+03  0.00000000000E+00 0. -1.
<mgrwt>
<rscale>  0 0.68908619E+03</rscale>
<asrwt>0</asrwt>
<pdfrwt beam="1">0</pdfrwt>
<pdfrwt beam="2">  1        2 0.43167343E+00 0.68908619E+03</pdfrwt>
<totfact> 0.30074366E+00</totfact>
</mgrwt>
</event>
<event>
 5    1  0.2369161E-004  0.6850106E+03  0.7818608E-02  0.9743215E-01
         13   -1    0    0    0    0  0.00000000000E+00  0.00000000000E+00  0.10000000000E+04  0.10000000000E+04  0.00000000000E+00 0. -1.
          2   -1    0    0  501    0 -0.00000000000E+00 -0.00000000000E+00 -0.11730987846E+03  0.11730987846E+03  0.00000000000E+00 0. -1.
    9000006    2    1    2  501    0  0.00000000000E+00  0.00000000000E+00  0.88269012154E+03  0.11173098785E+04  0.68501059396E+03 0.  0.
         13    1    3    3    0    0 -0.28929858096E+03 -0.18329478108E+03  0.44849820444E+03  0.56430602079E+03  0.00000000000E+00 0. -1.
          4    1    3    3  501    0  0.28929858096E+03  0.18329478108E+03  0.43419191710E+03  0.55300385766E+03  0.00000000000E+00 0. -1.
<mgrwt>
<rscale>  0 0.68501059E+03</rscale>
<asrwt>0</asrwt>
<pdfrwt beam="1">0</pdfrwt>
<pdfrwt beam="2">  1        2 0.42658228E+00 0.68501059E+03</pdfrwt>
<totfact> 0.31476880E+00</totfact>
</mgrwt>
</event>
<event>
 5    1  0.2369161E-004  0.6509684E+03  0.7818608E-02  0.9804964E-01
         13   -1    0    0    0    0  0.00000000000E+00  0.00000000000E+00  0.10000000000E+04  0.10000000000E+04  0.00000000000E+00 0. -1.
          2   -1    0    0  501    0 -0.00000000000E+00 -0.00000000000E+00 -0.10593995341E+03  0.10593995341E+03  0.00000000000E+00 0. -1.
    9000006    2    1    2  501    0  0.00000000000E+00  0.00000000000E+00  0.89406004659E+03  0.11059399534E+04  0.65096836609E+03 0.  0.
         13    1    3    3    0    0  0.13733130531E+03  0.74346740510E+02 -0.38136295902E+02  0.16075354524E+03  0.00000000000E+00 0. -1.
          2    1    3    3  501    0 -0.13733130531E+03 -0.74346740510E+02  0.93219634249E+03  0.94518640817E+03  0.00000000000E+00 0. -1.
<mgrwt>
<rscale>  0 0.65096837E+03</rscale>
<asrwt>0</asrwt>
<pdfrwt beam="1">0</pdfrwt>
<pdfrwt beam="2">  1        2 0.38523701E+00 0.65096837E+03</pdfrwt>
<totfact> 0.45205688E+00</totfact>
</mgrwt>
</event>
<event>
 5    1  0.2369161E-004  0.6503530E+03  0.7818608E-02  0.9806117E-01
         13   -1    0    0    0    0  0.00000000000E+00  0.00000000000E+00  0.10000000000E+04  0.10000000000E+04  0.00000000000E+00 0. -1.
          2   -1    0    0  501    0 -0.00000000000E+00 -0.00000000000E+00 -0.10573974289E+03  0.10573974289E+03  0.00000000000E+00 0. -1.
    9000006    2    1    2  501    0  0.00000000000E+00  0.00000000000E+00  0.89426025711E+03  0.11057397429E+04  0.65035295921E+03 0.  0.
         13    1    3    3    0    0 -0.10578783196E+03  0.28217052570E+03  0.23939426647E+03  0.38486476298E+03  0.00000000000E+00 0. -1.
          4    1    3    3  501    0  0.10578783196E+03 -0.28217052570E+03  0.65486599064E+03  0.72087497991E+03  0.00000000000E+00 0. -1.
<mgrwt>
<rscale>  0 0.65035296E+03</rscale>
<asrwt>0</asrwt>
<pdfrwt beam="1">0</pdfrwt>
<pdfrwt beam="2">  1        2 0.38450897E+00 0.65035296E+03</pdfrwt>
<totfact> 0.45489430E+00</totfact>
</mgrwt>
</event>
<event>
 5    1  0.2369161E-004  0.6168402E+03  0.7818608E-02  0.9871071E-01
         13   -1    0    0    0    0  0.00000000000E+00  0.00000000000E+00  0.10000000000E+04  0.10000000000E+04  0.00000000000E+00 0. -1.
          2   -1    0    0  501    0 -0.00000000000E+00 -0.00000000000E+00 -0.95122947909E+02  0.95122947909E+02  0.00000000000E+00 0. -1.
    9000006    2    1    2  501    0  0.00000000000E+00  0.00000000000E+00  0.90487705209E+03  0.10951229479E+04  0.61684016701E+03 0.  0.
         13    1    3    3    0    0 -0.21387827760E+03  0.21388092889E+03  0.34541446840E+03  0.45912974675E+03  0.00000000000E+00 0. -1.
          4    1    3    3  501    0  0.21387827760E+03 -0.21388092889E+03  0.55946258369E+03  0.63599320116E+03  0.00000000000E+00 0. -1.
<mgrwt>
<rscale>  0 0.61684017E+03</rscale>
<asrwt>0</asrwt>
<pdfrwt beam="1">0</pdfrwt>
<pdfrwt beam="2">  1        2 0.34590236E+00 0.61684017E+03</pdfrwt>
<totfact> 0.63096306E+00</totfact>
</mgrwt>
</event>
<event>
 5    1  0.2369161E-004  0.7002522E+03  0.7818608E-02  0.9716801E-01
         13   -1    0    0    0    0  0.00000000000E+00  0.00000000000E+00  0.10000000000E+04  0.10000000000E+04  0.00000000000E+00 0. -1.
          2   -1    0    0  501    0 -0.00000000000E+00 -0.00000000000E+00 -0.12258827797E+03  0.12258827797E+03  0.00000000000E+00 0. -1.
    9000006    2    1    2  501    0  0.00000000000E+00  0.00000000000E+00  0.87741172203E+03  0.11225882780E+04  0.70025217736E+03 0.  0.
         13    1    3    3    0    0  0.17573572011E+03 -0.28791408882E+03  0.28822837027E+03  0.44368137136E+03  0.00000000000E+00 0. -1.
          4    1    3    3  501    0 -0.17573572011E+03  0.28791408882E+03  0.58918335176E+03  0.67890690661E+03  0.00000000000E+00 0. -1.
<mgrwt>
<rscale>  0 0.70025218E+03</rscale>
<asrwt>0</asrwt>
<pdfrwt beam="1">0</pdfrwt>
<pdfrwt beam="2">  1        2 0.44577650E+00 0.70025218E+03</pdfrwt>
<totfact> 0.26472398E+00</totfact>
</mgrwt>
</event>
<event>
 5    1  0.2369161E-004  0.6489965E+03  0.7818608E-02  0.9808664E-01
         13   -1    0    0    0    0  0.00000000000E+00  0.00000000000E+00  0.10000000000E+04  0.10000000000E+04  0.00000000000E+00 0. -1.
          2   -1    0    0  501    0 -0.00000000000E+00 -0.00000000000E+00 -0.10529911271E+03  0.10529911271E+03  0.00000000000E+00 0. -1.
    9000006    2    1    2  501    0  0.00000000000E+00  0.00000000000E+00  0.89470088729E+03  0.11052991127E+04  0.64899649525E+03 0.  0.
         13    1    3    3    0    0  0.83160553298E+02  0.26603814978E+03  0.73032550488E+03  0.78170794920E+03  0.00000000000E+00 0. -1.
          2    1    3    3  501    0 -0.83160553298E+02 -0.26603814978E+03  0.16437538241E+03  0.32359116352E+03  0.00000000000E+00 0. -1.
<mgrwt>
<rscale>  0 0.64899650E+03</rscale>
<asrwt>0</asrwt>
<pdfrwt beam="1">0</pdfrwt>
<pdfrwt beam="2">  1        2 0.38290667E+00 0.64899650E+03</pdfrwt>
<totfact> 0.46119598E+00</totfact>
</mgrwt>
</event>
<event>
 5    1  0.2369161E-004  0.6496210E+03  0.7818608E-02  0.9807491E-01
         13   -1    0    0    0    0  0.00000000000E+00  0.00000000000E+00  0.10000000000E+04  0.10000000000E+04  0.00000000000E+00 0. -1.
          2   -1    0    0  501    0 -0.00000000000E+00 -0.00000000000E+00 -0.10550186225E+03  0.10550186225E+03  0.00000000000E+00 0. -1.
    9000006    2    1    2  501    0  0.00000000000E+00  0.00000000000E+00  0.89449813775E+03  0.11055018622E+04  0.64962100412E+03 0.  0.
         13    1    3    3    0    0 -0.17207121164E+03 -0.24209583062E+03  0.67097101971E+03  0.73377176449E+03  0.00000000000E+00 0. -1.
          2    1    3    3  501    0  0.17207121164E+03  0.24209583062E+03  0.22352711804E+03  0.37173009776E+03  0.00000000000E+00 0. -1.
<mgrwt>
<rscale>  0 0.64962100E+03</rscale>
<asrwt>0</asrwt>
<pdfrwt beam="1">0</pdfrwt>
<pdfrwt beam="2">  1        2 0.38364394E+00 0.64962100E+03</pdfrwt>
<totfact> 0.45828658E+00</totfact>
</mgrwt>
</event>
<event>
 5    1  0.2369161E-004  0.6713821E+03  0.7818608E-02  0.9767464E-01
         13   -1    0    0    0    0  0.00000000000E+00  0.00000000000E+00  0.10000000000E+04  0.10000000000E+04  0.00000000000E+00 0. -1.
          2   -1    0    0  501    0 -0.00000000000E+00 -0.00000000000E+00 -0.11268848017E+03  0.11268848017E+03  0.00000000000E+00 0. -1.
    9000006    2    1    2  501    0  0.00000000000E+00  0.00000000000E+00  0.88731151983E+03  0.11126884802E+04  0.67138209739E+03 0.  0.
         13    1    3    3    0    0 -0.30950977502E+03 -0.12252018473E+03  0.37177769964E+03  0.49902520422E+03  0.00000000000E+00 0. -1.
          2    1    3    3  501    0  0.30950977502E+03  0.12252018473E+03  0.51553382019E+03  0.61366327596E+03  0.00000000000E+00 0. -1.
<mgrwt>
<rscale>  0 0.67138210E+03</rscale>
<asrwt>0</asrwt>
<pdfrwt beam="1">0</pdfrwt>
<pdfrwt beam="2">  1        2 0.40977716E+00 0.67138210E+03</pdfrwt>
<totfact> 0.36526901E+00</totfact>
</mgrwt>
</event>
<event>
 5    1  0.2369161E-004  0.6502337E+03  0.7818608E-02  0.9806341E-01
         13   -1    0    0    0    0  0.00000000000E+00  0.00000000000E+00  0.10000000000E+04  0.10000000000E+04  0.00000000000E+00 0. -1.
          2   -1    0    0  501    0 -0.00000000000E+00 -0.00000000000E+00 -0.10570095920E+03  0.10570095920E+03  0.00000000000E+00 0. -1.
    9000006    2    1    2  501    0  0.00000000000E+00  0.00000000000E+00  0.89429904080E+03  0.11057009592E+04  0.65023367861E+03 0.  0.
         13    1    3    3    0    0  0.10337840197E+03 -0.25257725434E+03  0.74760138863E+03  0.79585815299E+03  0.00000000000E+00 0. -1.
          2    1    3    3  501    0 -0.10337840197E+03  0.25257725434E+03  0.14669765217E+03  0.30984280621E+03  0.00000000000E+00 0. -1.
<mgrwt>
<rscale>  0 0.65023368E+03</rscale>
<asrwt>0</asrwt>
<pdfrwt beam="1">0</pdfrwt>
<pdfrwt beam="2">  1        2 0.38436793E+00 0.65023368E+03</pdfrwt>
<totfact> 0.45544581E+00</totfact>
</mgrwt>
</event>
<event>
 5    1  0.2369161E-004  0.6505677E+03  0.7818608E-02  0.9805714E-01
         13   -1    0    0    0    0  0.00000000000E+00  0.00000000000E+00  0.10000000000E+04  0.10000000000E+04  0.00000000000E+00 0. -1.
          2   -1    0    0  501    0 -0.00000000000E+00 -0.00000000000E+00 -0.10580959104E+03  0.10580959104E+03  0.00000000000E+00 0. -1.
    9000006    2    1    2  501    0  0.00000000000E+00  0.00000000000E+00  0.89419040896E+03  0.11058095910E+04  0.65056772448E+03 0.  0.
         13    1    3    3    0    0  0.30940713431E+03 -0.64736504621E+02  0.31668907247E+03  0.44745453223E+03  0.00000000000E+00 0. -1.
          2    1    3    3  501    0 -0.30940713431E+03  0.64736504621E+02  0.57750133650E+03  0.65835505880E+03  0.00000000000E+00 0. -1.
<mgrwt>
<rscale>  0 0.65056772E+03</rscale>
<asrwt>0</asrwt>
<pdfrwt beam="1">0</pdfrwt>
<pdfrwt beam="2">  1        2 0.38476296E+00 0.65056772E+03</pdfrwt>
<totfact> 0.45390257E+00</totfact>
</mgrwt>
</event>
<event>
 5    1  0.2369161E-004  0.6472649E+03  0.7818608E-02  0.9811925E-01
         13   -1    0    0    0    0  0.00000000000E+00  0.00000000000E+00  0.10000000000E+04  0.10000000000E+04  0.00000000000E+00 0. -1.
          2   -1    0    0  501    0 -0.00000000000E+00 -0.00000000000E+00 -0.10473796112E+03  0.10473796112E+03  0.00000000000E+00 0. -1.
    9000006    2    1    2  501    0  0.00000000000E+00  0.00000000000E+00  0.89526203888E+03  0.11047379611E+04  0.64726489515E+03 0.  0.
         13    1    3    3    0    0 -0.32037060996E+03 -0.43297549868E+02  0.47328700780E+03  0.57316018469E+03  0.00000000000E+00 0. -1.
          2    1    3    3  501    0  0.32037060996E+03  0.43297549868E+02  0.42197503107E+03  0.53157777644E+03  0.00000000000E+00 0. -1.
<mgrwt>
<rscale>  0 0.64726490E+03</rscale>
<asrwt>0</asrwt>
<pdfrwt beam="1">0</pdfrwt>
<pdfrwt beam="2">  1        2 0.38086612E+00 0.64726490E+03</pdfrwt>
<totfact> 0.46933605E+00</totfact>
</mgrwt>
</event>
<event>
 5    1  0.2369161E-004  0.6327338E+03  0.7818608E-02  0.9839728E-01
         13   -1    0    0    0    0  0.00000000000E+00  0.00000000000E+00  0.10000000000E+04  0.10000000000E+04  0.00000000000E+00 0. -1.
          2   -1    0    0  501    0 -0.00000000000E+00 -0.00000000000E+00 -0.10008802002E+03  0.10008802002E+03  0.00000000000E+00 0. -1.
    9000006    2    1    2  501    0  0.00000000000E+00  0.00000000000E+00  0.89991197998E+03  0.11000880200E+04  0.63273381455E+03 0.  0.
         13    1    3    3    0    0  0.13311900358E+03 -0.26653705182E+03  0.63498176172E+03  0.70140181552E+03  0.00000000000E+00 0. -1.
          4    1    3    3  501    0 -0.13311900358E+03  0.26653705182E+03  0.26493021826E+03  0.39868620450E+03  0.00000000000E+00 0. -1.
<mgrwt>
<rscale>  0 0.63273381E+03</rscale>
<asrwt>0</asrwt>
<pdfrwt beam="1">0</pdfrwt>
<pdfrwt beam="2">  1        2 0.36395720E+00 0.63273381E+03</pdfrwt>
<totfact> 0.54201216E+00</totfact>
</mgrwt>
</event>
<event>
 5    1  0.2369161E-004  0.6352442E+03  0.7818608E-02  0.9834868E-01
         13   -1    0    0    0    0  0.00000000000E+00  0.00000000000E+00  0.10000000000E+04  0.10000000000E+04  0.00000000000E+00 0. -1.
          2   -1    0    0  501    0 -0.00000000000E+00 -0.00000000000E+00 -0.10088380278E+03  0.10088380278E+03  0.00000000000E+00 0. -1.
    9000006    2    1    2  501    0  0.00000000000E+00  0.00000000000E+00  0.89911619722E+03  0.11008838028E+04  0.63524421377E+03 0.  0.
         13    1    3    3    0    0 -0.16104585842E+02 -0.24640703075E+03  0.79576112206E+03  0.83319358247E+03  0.00000000000E+00 0. -1.
          2    1    3    3  501    0  0.16104585842E+02  0.24640703075E+03  0.10335507516E+03  0.26769022031E+03  0.00000000000E+00 0. -1.
<mgrwt>
<rscale>  0 0.63524421E+03</rscale>
<asrwt>0</asrwt>
<pdfrwt beam="1">0</pdfrwt>
<pdfrwt beam="2">  1        2 0.36685097E+00 0.63524421E+03</pdfrwt>
<totfact> 0.52888543E+00</totfact>
</mgrwt>
</event>
<event>
 5    1  0.2369161E-004  0.6555383E+03  0.7818608E-02  0.9796442E-01
         13   -1    0    0    0    0  0.00000000000E+00  0.00000000000E+00  0.10000000000E+04  0.10000000000E+04  0.00000000000E+00 0. -1.
          2   -1    0    0  501    0 -0.00000000000E+00 -0.00000000000E+00 -0.10743260645E+03  0.10743260645E+03  0.00000000000E+00 0. -1.
    9000006    2    1    2  501    0  0.00000000000E+00  0.00000000000E+00  0.89256739355E+03  0.11074326064E+04  0.65553827179E+03 0.  0.
         13    1    3    3    0    0 -0.81547179860E+02 -0.21089018073E+03  0.84715437281E+03  0.87680963854E+03  0.00000000000E+00 0. -1.
          2    1    3    3  501    0  0.81547179860E+02  0.21089018073E+03  0.45413020747E+02  0.23062296790E+03  0.00000000000E+00 0. -1.
<mgrwt>
<rscale>  0 0.65553827E+03</rscale>
<asrwt>0</asrwt>
<pdfrwt beam="1">0</pdfrwt>
<pdfrwt beam="2">  1        2 0.39066485E+00 0.65553827E+03</pdfrwt>
<totfact> 0.43140277E+00</totfact>
</mgrwt>
</event>
<event>
 5    1  0.2369161E-004  0.6572107E+03  0.7818608E-02  0.9793342E-01
         13   -1    0    0    0    0  0.00000000000E+00  0.00000000000E+00  0.10000000000E+04  0.10000000000E+04  0.00000000000E+00 0. -1.
          2   -1    0    0  501    0 -0.00000000000E+00 -0.00000000000E+00 -0.10798148776E+03  0.10798148776E+03  0.00000000000E+00 0. -1.
    9000006    2    1    2  501    0  0.00000000000E+00  0.00000000000E+00  0.89201851224E+03  0.11079814878E+04  0.65721073565E+03 0.  0.
         13    1    3    3    0    0 -0.35213064379E+02 -0.68057906731E+02 -0.92708446768E+02  0.12027757345E+03  0.00000000000E+00 0. -1.
          2    1    3    3  501    0  0.35213064379E+02  0.68057906731E+02  0.98472695900E+03  0.98770391432E+03  0.00000000000E+00 0. -1.
<mgrwt>
<rscale>  0 0.65721074E+03</rscale>
<asrwt>0</asrwt>
<pdfrwt beam="1">0</pdfrwt>
<pdfrwt beam="2">  1        2 0.39266078E+00 0.65721074E+03</pdfrwt>
<totfact> 0.42402499E+00</totfact>
</mgrwt>
</event>
<event>
 5    1  0.2369161E-004  0.6443928E+03  0.7818608E-02  0.9817358E-01
         13   -1    0    0    0    0  0.00000000000E+00  0.00000000000E+00  0.10000000000E+04  0.10000000000E+04  0.00000000000E+00 0. -1.
          2   -1    0    0  501    0 -0.00000000000E+00 -0.00000000000E+00 -0.10381050635E+03  0.10381050635E+03  0.00000000000E+00 0. -1.
    9000006    2    1    2  501    0  0.00000000000E+00  0.00000000000E+00  0.89618949365E+03  0.11038105063E+04  0.64439275709E+03 0.  0.
         13    1    3    3    0    0 -0.25514138200E+03 -0.92979947192E+02  0.15106705167E+03  0.31074692193E+03  0.00000000000E+00 0. -1.
          2    1    3    3  501    0  0.25514138200E+03  0.92979947192E+02  0.74512244198E+03  0.79306358442E+03  0.00000000000E+00 0. -1.
<mgrwt>
<rscale>  0 0.64439276E+03</rscale>
<asrwt>0</asrwt>
<pdfrwt beam="1">0</pdfrwt>
<pdfrwt beam="2">  1        2 0.37749355E+00 0.64439276E+03</pdfrwt>
<totfact> 0.48307669E+00</totfact>
</mgrwt>
</event>
<event>
 5    1  0.2369161E-004  0.6487677E+03  0.7818608E-02  0.9809094E-01
         13   -1    0    0    0    0  0.00000000000E+00  0.00000000000E+00  0.10000000000E+04  0.10000000000E+04  0.00000000000E+00 0. -1.
          2   -1    0    0  501    0 -0.00000000000E+00 -0.00000000000E+00 -0.10522488972E+03  0.10522488972E+03  0.00000000000E+00 0. -1.
    9000006    2    1    2  501    0  0.00000000000E+00  0.00000000000E+00  0.89477511028E+03  0.11052248897E+04  0.64876772336E+03 0.  0.
         13    1    3    3    0    0 -0.21225250689E+03 -0.23270072408E+03  0.31516400699E+03  0.44556605006E+03  0.00000000000E+00 0. -1.
          2    1    3    3  501    0  0.21225250689E+03  0.23270072408E+03  0.57961110330E+03  0.65965883965E+03  0.00000000000E+00 0. -1.
<mgrwt>
<rscale>  0 0.64876772E+03</rscale>
<asrwt>0</asrwt>
<pdfrwt beam="1">0</pdfrwt>
<pdfrwt beam="2">  1        2 0.38263677E+00 0.64876772E+03</pdfrwt>
<totfact> 0.46226524E+00</totfact>
</mgrwt>
</event>
<event>
 5    1  0.2369161E-004  0.6332087E+03  0.7818608E-02  0.9838807E-01
         13   -1    0    0    0    0  0.00000000000E+00  0.00000000000E+00  0.10000000000E+04  0.10000000000E+04  0.00000000000E+00 0. -1.
          2   -1    0    0  501    0 -0.00000000000E+00 -0.00000000000E+00 -0.10023830859E+03  0.10023830859E+03  0.00000000000E+00 0. -1.
    9000006    2    1    2  501    0  0.00000000000E+00  0.00000000000E+00  0.89976169141E+03  0.11002383086E+04  0.63320868154E+03 0.  0.
         13    1    3    3    0    0 -0.40787532119E+02  0.93415237541E+01  0.99517430192E+03  0.99605360200E+03  0.00000000000E+00 0. -1.
          2    1    3    3  501    0  0.40787532119E+02 -0.93415237541E+01 -0.95412610519E+02  0.10418470660E+03  0.00000000000E+00 0. -1.
<mgrwt>
<rscale>  0 0.63320868E+03</rscale>
<asrwt>0</asrwt>
<pdfrwt beam="1">0</pdfrwt>
<pdfrwt beam="2">  1        2 0.36450371E+00 0.63320868E+03</pdfrwt>
<totfact> 0.53951037E+00</totfact>
</mgrwt>
</event>
<event>
 5    1  0.2369161E-004  0.6536576E+03  0.7818608E-02  0.9799940E-01
         13   -1    0    0    0    0  0.00000000000E+00  0.00000000000E+00  0.10000000000E+04  0.10000000000E+04  0.00000000000E+00 0. -1.
          2   -1    0    0  501    0 -0.00000000000E+00 -0.00000000000E+00 -0.10681706394E+03  0.10681706394E+03  0.00000000000E+00 0. -1.
    9000006    2    1    2  501    0  0.00000000000E+00  0.00000000000E+00  0.89318293606E+03  0.11068170639E+04  0.65365759826E+03 0.  0.
         13    1    3    3    0    0 -0.25322926996E+03 -0.13378086270E+03  0.71321888148E+03  0.76857241382E+03  0.00000000000E+00 0. -1.
          4    1    3    3  501    0  0.25322926996E+03  0.13378086270E+03  0.17996405458E+03  0.33824465012E+03  0.00000000000E+00 0. -1.
<mgrwt>
<rscale>  0 0.65365760E+03</rscale>
<asrwt>0</asrwt>
<pdfrwt beam="1">0</pdfrwt>
<pdfrwt beam="2">  1        2 0.38842651E+00 0.65365760E+03</pdfrwt>
<totfact> 0.43981437E+00</totfact>
</mgrwt>
</event>
<event>
 5    1  0.2369161E-004  0.6474004E+03  0.7818608E-02  0.9811669E-01
         13   -1    0    0    0    0  0.00000000000E+00  0.00000000000E+00  0.10000000000E+04  0.10000000000E+04  0.00000000000E+00 0. -1.
          2   -1    0    0  501    0 -0.00000000000E+00 -0.00000000000E+00 -0.10478182260E+03  0.10478182260E+03  0.00000000000E+00 0. -1.
    9000006    2    1    2  501    0  0.00000000000E+00  0.00000000000E+00  0.89521817740E+03  0.11047818226E+04  0.64740040963E+03 0.  0.
         13    1    3    3    0    0 -0.14348468003E+02  0.24340428621E+03  0.84281953165E+02  0.25798250466E+03  0.00000000000E+00 0. -1.
          2    1    3    3  501    0  0.14348468003E+02 -0.24340428621E+03  0.81093622424E+03  0.84679931794E+03  0.00000000000E+00 0. -1.
<mgrwt>
<rscale>  0 0.64740041E+03</rscale>
<asrwt>0</asrwt>
<pdfrwt beam="1">0</pdfrwt>
<pdfrwt beam="2">  1        2 0.38102561E+00 0.64740041E+03</pdfrwt>
<totfact> 0.46869512E+00</totfact>
</mgrwt>
</event>
<event>
 5    1  0.2369161E-004  0.6570678E+03  0.7818608E-02  0.9793607E-01
         13   -1    0    0    0    0  0.00000000000E+00  0.00000000000E+00  0.10000000000E+04  0.10000000000E+04  0.00000000000E+00 0. -1.
          2   -1    0    0  501    0 -0.00000000000E+00 -0.00000000000E+00 -0.10793453038E+03  0.10793453038E+03  0.00000000000E+00 0. -1.
    9000006    2    1    2  501    0  0.00000000000E+00  0.00000000000E+00  0.89206546962E+03  0.11079345304E+04  0.65706782109E+03 0.  0.
         13    1    3    3    0    0  0.21150275257E+03 -0.14131142952E+03  0.95436258443E+02  0.27168072048E+03  0.00000000000E+00 0. -1.
          2    1    3    3  501    0 -0.21150275257E+03  0.14131142952E+03  0.79662921118E+03  0.83625380989E+03  0.00000000000E+00 0. -1.
<mgrwt>
<rscale>  0 0.65706782E+03</rscale>
<asrwt>0</asrwt>
<pdfrwt beam="1">0</pdfrwt>
<pdfrwt beam="2">  1        2 0.39249003E+00 0.65706782E+03</pdfrwt>
<totfact> 0.42465169E+00</totfact>
</mgrwt>
</event>
<event>
 5    1  0.2369161E-004  0.6631185E+03  0.7818608E-02  0.9782470E-01
         13   -1    0    0    0    0  0.00000000000E+00  0.00000000000E+00  0.10000000000E+04  0.10000000000E+04  0.00000000000E+00 0. -1.
          2   -1    0    0  501    0 -0.00000000000E+00 -0.00000000000E+00 -0.10993153896E+03  0.10993153896E+03  0.00000000000E+00 0. -1.
    9000006    2    1    2  501    0  0.00000000000E+00  0.00000000000E+00  0.89006846104E+03  0.11099315390E+04  0.66311850815E+03 0.  0.
         13    1    3    3    0    0 -0.34422224770E+02  0.29570506742E+03  0.68934773208E+03  0.75088392723E+03  0.00000000000E+00 0. -1.
          4    1    3    3  501    0  0.34422224770E+02 -0.29570506742E+03  0.20072072896E+03  0.35904761173E+03  0.00000000000E+00 0. -1.
<mgrwt>
<rscale>  0 0.66311851E+03</rscale>
<asrwt>0</asrwt>
<pdfrwt beam="1">0</pdfrwt>
<pdfrwt beam="2">  1        2 0.39975189E+00 0.66311851E+03</pdfrwt>
<totfact> 0.39872572E+00</totfact>
</mgrwt>
</event>
<event>
 5    1  0.2369161E-004  0.6492311E+03  0.7818608E-02  0.9808223E-01
         13   -1    0    0    0    0  0.00000000000E+00  0.00000000000E+00  0.10000000000E+04  0.10000000000E+04  0.00000000000E+00 0. -1.
          2   -1    0    0  501    0 -0.00000000000E+00 -0.00000000000E+00 -0.10537524445E+03  0.10537524445E+03  0.00000000000E+00 0. -1.
    9000006    2    1    2  501    0  0.00000000000E+00  0.00000000000E+00  0.89462475555E+03  0.11053752444E+04  0.64923106657E+03 0.  0.
         13    1    3    3    0    0 -0.22549079953E+03 -0.16791491948E+03  0.17102148025E+03  0.32907425844E+03  0.00000000000E+00 0. -1.
          2    1    3    3  501    0  0.22549079953E+03  0.16791491948E+03  0.72360327530E+03  0.77630098601E+03  0.00000000000E+00 0. -1.
<mgrwt>
<rscale>  0 0.64923107E+03</rscale>
<asrwt>0</asrwt>
<pdfrwt beam="1">0</pdfrwt>
<pdfrwt beam="2">  1        2 0.38318352E+00 0.64923107E+03</pdfrwt>
<totfact> 0.46010155E+00</totfact>
</mgrwt>
</event>
<event>
 5    1  0.2369161E-004  0.6494446E+03  0.7818608E-02  0.9807822E-01
         13   -1    0    0    0    0  0.00000000000E+00  0.00000000000E+00  0.10000000000E+04  0.10000000000E+04  0.00000000000E+00 0. -1.
          2   -1    0    0  501    0 -0.00000000000E+00 -0.00000000000E+00 -0.10544457042E+03  0.10544457042E+03  0.00000000000E+00 0. -1.
    9000006    2    1    2  501    0  0.00000000000E+00  0.00000000000E+00  0.89455542958E+03  0.11054445704E+04  0.64944459476E+03 0.  0.
         13    1    3    3    0    0 -0.32364005835E+03 -0.11613393279E+02  0.40675351604E+03  0.51992901543E+03  0.00000000000E+00 0. -1.
          4    1    3    3  501    0  0.32364005835E+03  0.11613393279E+02  0.48780191354E+03  0.58551555498E+03  0.00000000000E+00 0. -1.
<mgrwt>
<rscale>  0 0.64944459E+03</rscale>
<asrwt>0</asrwt>
<pdfrwt beam="1">0</pdfrwt>
<pdfrwt beam="2">  1        2 0.38343561E+00 0.64944459E+03</pdfrwt>
<totfact> 0.45910701E+00</totfact>
</mgrwt>
</event>
<event>
 5    1  0.2369161E-004  0.6518776E+03  0.7818608E-02  0.9803262E-01
         13   -1    0    0    0    0  0.00000000000E+00  0.00000000000E+00  0.10000000000E+04  0.10000000000E+04  0.00000000000E+00 0. -1.
          2   -1    0    0  501    0 -0.00000000000E+00 -0.00000000000E+00 -0.10623610731E+03  0.10623610731E+03  0.00000000000E+00 0. -1.
    9000006    2    1    2  501    0  0.00000000000E+00  0.00000000000E+00  0.89376389269E+03  0.11062361073E+04  0.65187761829E+03 0.  0.
         13    1    3    3    0    0  0.73014440467E+02 -0.18518144900E+03  0.88954700321E+01  0.19925462845E+03  0.00000000000E+00 0. -1.
          4    1    3    3  501    0 -0.73014440467E+02  0.18518144900E+03  0.88486842266E+03  0.90698147886E+03  0.00000000000E+00 0. -1.
<mgrwt>
<rscale>  0 0.65187762E+03</rscale>
<asrwt>0</asrwt>
<pdfrwt beam="1">0</pdfrwt>
<pdfrwt beam="2">  1        2 0.38631393E+00 0.65187762E+03</pdfrwt>
<totfact> 0.44788915E+00</totfact>
</mgrwt>
</event>
<event>
 5    1  0.2369161E-004  0.6583163E+03  0.7818608E-02  0.9791298E-01
         13   -1    0    0    0    0  0.00000000000E+00  0.00000000000E+00  0.10000000000E+04  0.10000000000E+04  0.00000000000E+00 0. -1.
          2   -1    0    0  501    0 -0.00000000000E+00 -0.00000000000E+00 -0.10834508494E+03  0.10834508494E+03  0.00000000000E+00 0. -1.
    9000006    2    1    2  501    0  0.00000000000E+00  0.00000000000E+00  0.89165491506E+03  0.11083450849E+04  0.65831629159E+03 0.  0.
         13    1    3    3    0    0 -0.20979015243E+03 -0.28891205357E+02  0.21577268057E+02  0.21286659743E+03  0.00000000000E+00 0. -1.
          4    1    3    3  501    0  0.20979015243E+03  0.28891205357E+02  0.87007764700E+03  0.89547848752E+03  0.00000000000E+00 0. -1.
<mgrwt>
<rscale>  0 0.65831629E+03</rscale>
<asrwt>0</asrwt>
<pdfrwt beam="1">0</pdfrwt>
<pdfrwt beam="2">  1        2 0.39398296E+00 0.65831629E+03</pdfrwt>
<totfact> 0.41920065E+00</totfact>
</mgrwt>
</event>
<event>
 5    1  0.2369161E-004  0.6472646E+03  0.7818608E-02  0.9811926E-01
         13   -1    0    0    0    0  0.00000000000E+00  0.00000000000E+00  0.10000000000E+04  0.10000000000E+04  0.00000000000E+00 0. -1.
          2   -1    0    0  501    0 -0.00000000000E+00 -0.00000000000E+00 -0.10473785459E+03  0.10473785459E+03  0.00000000000E+00 0. -1.
    9000006    2    1    2  501    0  0.00000000000E+00  0.00000000000E+00  0.89526214541E+03  0.11047378546E+04  0.64726456597E+03 0.  0.
         13    1    3    3    0    0  0.18764661857E+03  0.19233913615E+03  0.13978437025E+03  0.30289481165E+03  0.00000000000E+00 0. -1.
          4    1    3    3  501    0 -0.18764661857E+03 -0.19233913615E+03  0.75547777516E+03  0.80184304295E+03  0.00000000000E+00 0. -1.
<mgrwt>
<rscale>  0 0.64726457E+03</rscale>
<asrwt>0</asrwt>
<pdfrwt beam="1">0</pdfrwt>
<pdfrwt beam="2">  1        2 0.38086573E+00 0.64726457E+03</pdfrwt>
<totfact> 0.46933760E+00</totfact>
</mgrwt>
</event>
<event>
 5    1  0.2369161E-004  0.6131365E+03  0.7818608E-02  0.9878521E-01
         13   -1    0    0    0    0  0.00000000000E+00  0.00000000000E+00  0.10000000000E+04  0.10000000000E+04  0.00000000000E+00 0. -1.
          2   -1    0    0  501    0 -0.00000000000E+00 -0.00000000000E+00 -0.93984093954E+02  0.93984093954E+02  0.00000000000E+00 0. -1.
    9000006    2    1    2  501    0  0.00000000000E+00  0.00000000000E+00  0.90601590605E+03  0.10939840940E+04  0.61313650667E+03 0.  0.
         13    1    3    3    0    0  0.22146708516E+03 -0.80357439699E+02  0.80300656279E+03  0.83685394652E+03  0.00000000000E+00 0. -1.
          2    1    3    3  501    0 -0.22146708516E+03  0.80357439699E+02  0.10300934326E+03  0.25713014744E+03  0.00000000000E+00 0. -1.
<mgrwt>
<rscale>  0 0.61313651E+03</rscale>
<asrwt>0</asrwt>
<pdfrwt beam="1">0</pdfrwt>
<pdfrwt beam="2">  1        2 0.34176106E+00 0.61313651E+03</pdfrwt>
<totfact> 0.65319793E+00</totfact>
</mgrwt>
</event>
<event>
 5    1  0.2369161E-004  0.6614715E+03  0.7818608E-02  0.9785489E-01
         13   -1    0    0    0    0  0.00000000000E+00  0.00000000000E+00  0.10000000000E+04  0.10000000000E+04  0.00000000000E+00 0. -1.
          2   -1    0    0  501    0 -0.00000000000E+00 -0.00000000000E+00 -0.10938612073E+03  0.10938612073E+03  0.00000000000E+00 0. -1.
    9000006    2    1    2  501    0  0.00000000000E+00  0.00000000000E+00  0.89061387927E+03  0.11093861207E+04  0.66147145283E+03 0.  0.
         13    1    3    3    0    0  0.19539080560E+03  0.17070325057E+03  0.10131166295E+03  0.27853405486E+03  0.00000000000E+00 0. -1.
          2    1    3    3  501    0 -0.19539080560E+03 -0.17070325057E+03  0.78930221632E+03  0.83085206587E+03  0.00000000000E+00 0. -1.
<mgrwt>
<rscale>  0 0.66147145E+03</rscale>
<asrwt>0</asrwt>
<pdfrwt beam="1">0</pdfrwt>
<pdfrwt beam="2">  1        2 0.39776855E+00 0.66147145E+03</pdfrwt>
<totfact> 0.40566111E+00</totfact>
</mgrwt>
</event>
<event>
 5    1  0.2369161E-004  0.6469021E+03  0.7818608E-02  0.9812610E-01
         13   -1    0    0    0    0  0.00000000000E+00  0.00000000000E+00  0.10000000000E+04  0.10000000000E+04  0.00000000000E+00 0. -1.
          2   -1    0    0  501    0 -0.00000000000E+00 -0.00000000000E+00 -0.10462058372E+03  0.10462058372E+03  0.00000000000E+00 0. -1.
    9000006    2    1    2  501    0  0.00000000000E+00  0.00000000000E+00  0.89537941628E+03  0.11046205837E+04  0.64690210610E+03 0.  0.
         13    1    3    3    0    0  0.76477678478E+02  0.23589399389E+03  0.93086216025E+02  0.26487705690E+03  0.00000000000E+00 0. -1.
          4    1    3    3  501    0 -0.76477678478E+02 -0.23589399389E+03  0.80229320026E+03  0.83974352682E+03  0.00000000000E+00 0. -1.
<mgrwt>
<rscale>  0 0.64690211E+03</rscale>
<asrwt>0</asrwt>
<pdfrwt beam="1">0</pdfrwt>
<pdfrwt beam="2">  1        2 0.38043929E+00 0.64690211E+03</pdfrwt>
<totfact> 0.47105515E+00</totfact>
</mgrwt>
</event>
<event>
 5    1  0.2369161E-004  0.6459003E+03  0.7818608E-02  0.9814503E-01
         13   -1    0    0    0    0  0.00000000000E+00  0.00000000000E+00  0.10000000000E+04  0.10000000000E+04  0.00000000000E+00 0. -1.
          2   -1    0    0  501    0 -0.00000000000E+00 -0.00000000000E+00 -0.10429679443E+03  0.10429679443E+03  0.00000000000E+00 0. -1.
    9000006    2    1    2  501    0  0.00000000000E+00  0.00000000000E+00  0.89570320557E+03  0.11042967944E+04  0.64590028467E+03 0.  0.
         13    1    3    3    0    0  0.10219481356E+03  0.16519850393E+03  0.88894955986E+03  0.90992617590E+03  0.00000000000E+00 0. -1.
          4    1    3    3  501    0 -0.10219481356E+03 -0.16519850393E+03  0.67536457094E+01  0.19437061853E+03  0.00000000000E+00 0. -1.
<mgrwt>
<rscale>  0 0.64590028E+03</rscale>
<asrwt>0</asrwt>
<pdfrwt beam="1">0</pdfrwt>
<pdfrwt beam="2">  1        2 0.37926187E+00 0.64590028E+03</pdfrwt>
<totfact> 0.47582710E+00</totfact>
</mgrwt>
</event>
<event>
 5    1  0.2369161E-004  0.6464012E+03  0.7818608E-02  0.9813556E-01
         13   -1    0    0    0    0  0.00000000000E+00  0.00000000000E+00  0.10000000000E+04  0.10000000000E+04  0.00000000000E+00 0. -1.
          2   -1    0    0  501    0 -0.00000000000E+00 -0.00000000000E+00 -0.10445861626E+03  0.10445861626E+03  0.00000000000E+00 0. -1.
    9000006    2    1    2  501    0  0.00000000000E+00  0.00000000000E+00  0.89554138374E+03  0.11044586163E+04  0.64640116417E+03 0.  0.
         13    1    3    3    0    0  0.17842026781E+02 -0.31872617486E+03  0.36142322831E+03  0.48221516196E+03  0.00000000000E+00 0. -1.
          4    1    3    3  501    0 -0.17842026781E+02  0.31872617486E+03  0.53411815543E+03  0.62224345430E+03  0.00000000000E+00 0. -1.
<mgrwt>
<rscale>  0 0.64640116E+03</rscale>
<asrwt>0</asrwt>
<pdfrwt beam="1">0</pdfrwt>
<pdfrwt beam="2">  1        2 0.37985031E+00 0.64640116E+03</pdfrwt>
<totfact> 0.47343673E+00</totfact>
</mgrwt>
</event>
<event>
 5    1  0.2369161E-004  0.6578894E+03  0.7818608E-02  0.9792087E-01
         13   -1    0    0    0    0  0.00000000000E+00  0.00000000000E+00  0.10000000000E+04  0.10000000000E+04  0.00000000000E+00 0. -1.
          2   -1    0    0  501    0 -0.00000000000E+00 -0.00000000000E+00 -0.10820460922E+03  0.10820460922E+03  0.00000000000E+00 0. -1.
    9000006    2    1    2  501    0  0.00000000000E+00  0.00000000000E+00  0.89179539078E+03  0.11082046092E+04  0.65788938044E+03 0.  0.
         13    1    3    3    0    0  0.27359797263E+03 -0.15721437924E+03  0.28939104641E+03  0.42815813598E+03  0.00000000000E+00 0. -1.
          4    1    3    3  501    0 -0.27359797263E+03  0.15721437924E+03  0.60240434436E+03  0.68004647324E+03  0.00000000000E+00 0. -1.
<mgrwt>
<rscale>  0 0.65788938E+03</rscale>
<asrwt>0</asrwt>
<pdfrwt beam="1">0</pdfrwt>
<pdfrwt beam="2">  1        2 0.39347214E+00 0.65788938E+03</pdfrwt>
<totfact> 0.42105861E+00</totfact>
</mgrwt>
</event>
<event>
 5    1  0.2369161E-004  0.6535688E+03  0.7818608E-02  0.9800106E-01
         13   -1    0    0    0    0  0.00000000000E+00  0.00000000000E+00  0.10000000000E+04  0.10000000000E+04  0.00000000000E+00 0. -1.
          2   -1    0    0  501    0 -0.00000000000E+00 -0.00000000000E+00 -0.10678804851E+03  0.10678804851E+03  0.00000000000E+00 0. -1.
    9000006    2    1    2  501    0  0.00000000000E+00  0.00000000000E+00  0.89321195149E+03  0.11067880485E+04  0.65356881354E+03 0.  0.
         13    1    3    3    0    0  0.31769412165E+03 -0.76445283325E+02  0.44013259030E+03  0.54816980336E+03  0.00000000000E+00 0. -1.
          2    1    3    3  501    0 -0.31769412165E+03  0.76445283325E+02  0.45307936119E+03  0.55861824514E+03  0.00000000000E+00 0. -1.
<mgrwt>
<rscale>  0 0.65356881E+03</rscale>
<asrwt>0</asrwt>
<pdfrwt beam="1">0</pdfrwt>
<pdfrwt beam="2">  1        2 0.38832100E+00 0.65356881E+03</pdfrwt>
<totfact> 0.44021451E+00</totfact>
</mgrwt>
</event>
<event>
 5    1  0.2369161E-004  0.6392714E+03  0.7818608E-02  0.9827122E-01
         13   -1    0    0    0    0  0.00000000000E+00  0.00000000000E+00  0.10000000000E+04  0.10000000000E+04  0.00000000000E+00 0. -1.
          2   -1    0    0  501    0 -0.00000000000E+00 -0.00000000000E+00 -0.10216696950E+03  0.10216696950E+03  0.00000000000E+00 0. -1.
    9000006    2    1    2  501    0  0.00000000000E+00  0.00000000000E+00  0.89783303050E+03  0.11021669695E+04  0.63927136492E+03 0.  0.
         13    1    3    3    0    0 -0.10086573628E+03  0.23090803036E+03  0.78797514204E+03  0.82728304691E+03  0.00000000000E+00 0. -1.
          2    1    3    3  501    0  0.10086573628E+03 -0.23090803036E+03  0.10985788846E+03  0.27488392259E+03  0.00000000000E+00 0. -1.
<mgrwt>
<rscale>  0 0.63927136E+03</rscale>
<asrwt>0</asrwt>
<pdfrwt beam="1">0</pdfrwt>
<pdfrwt beam="2">  1        2 0.37151704E+00 0.63927136E+03</pdfrwt>
<totfact> 0.50833268E+00</totfact>
</mgrwt>
</event>
<event>
 5    1  0.2369161E-004  0.6447741E+03  0.7818608E-02  0.9816635E-01
         13   -1    0    0    0    0  0.00000000000E+00  0.00000000000E+00  0.10000000000E+04  0.10000000000E+04  0.00000000000E+00 0. -1.
          2   -1    0    0  501    0 -0.00000000000E+00 -0.00000000000E+00 -0.10393341339E+03  0.10393341339E+03  0.00000000000E+00 0. -1.
    9000006    2    1    2  501    0  0.00000000000E+00  0.00000000000E+00  0.89606658661E+03  0.11039334134E+04  0.64477411049E+03 0.  0.
         13    1    3    3    0    0 -0.24299576428E+03  0.20501098398E+03  0.53954739149E+03  0.62624901810E+03  0.00000000000E+00 0. -1.
          2    1    3    3  501    0  0.24299576428E+03 -0.20501098398E+03  0.35651919512E+03  0.47768439529E+03  0.00000000000E+00 0. -1.
<mgrwt>
<rscale>  0 0.64477411E+03</rscale>
<asrwt>0</asrwt>
<pdfrwt beam="1">0</pdfrwt>
<pdfrwt beam="2">  1        2 0.37794048E+00 0.64477411E+03</pdfrwt>
<totfact> 0.48123495E+00</totfact>
</mgrwt>
</event>
<event>
 5    1  0.2369161E-004  0.6543302E+03  0.7818608E-02  0.9798688E-01
         13   -1    0    0    0    0  0.00000000000E+00  0.00000000000E+00  0.10000000000E+04  0.10000000000E+04  0.00000000000E+00 0. -1.
          2   -1    0    0  501    0 -0.00000000000E+00 -0.00000000000E+00 -0.10703700783E+03  0.10703700783E+03  0.00000000000E+00 0. -1.
    9000006    2    1    2  501    0  0.00000000000E+00  0.00000000000E+00  0.89296299217E+03  0.11070370078E+04  0.65433021580E+03 0.  0.
         13    1    3    3    0    0 -0.78006070632E+02 -0.16031381729E+03 -0.17630572656E+02  0.17915441430E+03  0.00000000000E+00 0. -1.
          2    1    3    3  501    0  0.78006070632E+02  0.16031381729E+03  0.91059356483E+03  0.92788259353E+03  0.00000000000E+00 0. -1.
<mgrwt>
<rscale>  0 0.65433022E+03</rscale>
<asrwt>0</asrwt>
<pdfrwt beam="1">0</pdfrwt>
<pdfrwt beam="2">  1        2 0.38922630E+00 0.65433022E+03</pdfrwt>
<totfact> 0.43679188E+00</totfact>
</mgrwt>
</event>
<event>
 5    1  0.2369161E-004  0.6544939E+03  0.7818608E-02  0.9798383E-01
         13   -1    0    0    0    0  0.00000000000E+00  0.00000000000E+00  0.10000000000E+04  0.10000000000E+04  0.00000000000E+00 0. -1.
          2   -1    0    0  501    0 -0.00000000000E+00 -0.00000000000E+00 -0.10709056906E+03  0.10709056906E+03  0.00000000000E+00 0. -1.
    9000006    2    1    2  501    0  0.00000000000E+00  0.00000000000E+00  0.89290943094E+03  0.11070905691E+04  0.65449390848E+03 0.  0.
         13    1    3    3    0    0 -0.26845605994E+03  0.18588838625E+03  0.40988415992E+03  0.52404978086E+03  0.00000000000E+00 0. -1.
          4    1    3    3  501    0  0.26845605994E+03 -0.18588838625E+03  0.48302527102E+03  0.58304078820E+03  0.00000000000E+00 0. -1.
<mgrwt>
<rscale>  0 0.65449391E+03</rscale>
<asrwt>0</asrwt>
<pdfrwt beam="1">0</pdfrwt>
<pdfrwt beam="2">  1        2 0.38942107E+00 0.65449391E+03</pdfrwt>
<totfact> 0.43605869E+00</totfact>
</mgrwt>
</event>
<event>
 5    1  0.2369161E-004  0.6676161E+03  0.7818608E-02  0.9774274E-01
         13   -1    0    0    0    0  0.00000000000E+00  0.00000000000E+00  0.10000000000E+04  0.10000000000E+04  0.00000000000E+00 0. -1.
          2   -1    0    0  501    0 -0.00000000000E+00 -0.00000000000E+00 -0.11142782105E+03  0.11142782105E+03  0.00000000000E+00 0. -1.
    9000006    2    1    2  501    0  0.00000000000E+00  0.00000000000E+00  0.88857217895E+03  0.11114278211E+04  0.66761612040E+03 0.  0.
         13    1    3    3    0    0 -0.19413558913E+03  0.70586612987E+01 -0.76290274311E+01  0.19441361507E+03  0.00000000000E+00 0. -1.
          4    1    3    3  501    0  0.19413558913E+03 -0.70586612987E+01  0.89620120638E+03  0.91701420598E+03  0.00000000000E+00 0. -1.
<mgrwt>
<rscale>  0 0.66761612E+03</rscale>
<asrwt>0</asrwt>
<pdfrwt beam="1">0</pdfrwt>
<pdfrwt beam="2">  1        2 0.40519293E+00 0.66761612E+03</pdfrwt>
<totfact> 0.38024236E+00</totfact>
</mgrwt>
</event>
<event>
 5    1  0.2369161E-004  0.6433902E+03  0.7818608E-02  0.9819262E-01
         13   -1    0    0    0    0  0.00000000000E+00  0.00000000000E+00  0.10000000000E+04  0.10000000000E+04  0.00000000000E+00 0. -1.
          2   -1    0    0  501    0 -0.00000000000E+00 -0.00000000000E+00 -0.10348773213E+03  0.10348773213E+03  0.00000000000E+00 0. -1.
    9000006    2    1    2  501    0  0.00000000000E+00  0.00000000000E+00  0.89651226787E+03  0.11034877321E+04  0.64339018372E+03 0.  0.
         13    1    3    3    0    0 -0.65979062153E+02 -0.21397797623E+03  0.52113277150E+02  0.22990346802E+03  0.00000000000E+00 0. -1.
          4    1    3    3  501    0  0.65979062153E+02  0.21397797623E+03  0.84439899072E+03  0.87358426410E+03  0.00000000000E+00 0. -1.
<mgrwt>
<rscale>  0 0.64339018E+03</rscale>
<asrwt>0</asrwt>
<pdfrwt beam="1">0</pdfrwt>
<pdfrwt beam="2">  1        2 0.37631982E+00 0.64339018E+03</pdfrwt>
<totfact> 0.48794406E+00</totfact>
</mgrwt>
</event>
<event>
 5    1  0.2369161E-004  0.6659318E+03  0.7818608E-02  0.9777335E-01
         13   -1    0    0    0    0  0.00000000000E+00  0.00000000000E+00  0.10000000000E+04  0.10000000000E+04  0.00000000000E+00 0. -1.
          2   -1    0    0  501    0 -0.00000000000E+00 -0.00000000000E+00 -0.11086628120E+03  0.11086628120E+03  0.00000000000E+00 0. -1.
    9000006    2    1    2  501    0  0.00000000000E+00  0.00000000000E+00  0.88913371880E+03  0.11108662812E+04  0.66593177188E+03 0.  0.
         13    1    3    3    0    0  0.13695301913E+03 -0.92142537134E+02  0.92694418201E+03  0.94152636350E+03  0.00000000000E+00 0. -1.
          2    1    3    3  501    0 -0.13695301913E+03  0.92142537134E+02 -0.37810463212E+02  0.16933991770E+03  0.00000000000E+00 0. -1.
<mgrwt>
<rscale>  0 0.66593177E+03</rscale>
<asrwt>0</asrwt>
<pdfrwt beam="1">0</pdfrwt>
<pdfrwt beam="2">  1        2 0.40315096E+00 0.66593177E+03</pdfrwt>
<totfact> 0.38708695E+00</totfact>
</mgrwt>
</event>
<event>
 5    1  0.2369161E-004  0.6687530E+03  0.7818608E-02  0.9772213E-01
         13   -1    0    0    0    0  0.00000000000E+00  0.00000000000E+00  0.10000000000E+04  0.10000000000E+04  0.00000000000E+00 0. -1.
          2   -1    0    0  501    0 -0.00000000000E+00 -0.00000000000E+00 -0.11180765544E+03  0.11180765544E+03  0.00000000000E+00 0. -1.
    9000006    2    1    2  501    0  0.00000000000E+00  0.00000000000E+00  0.88819234456E+03  0.11118076554E+04  0.66875303496E+03 0.  0.
         13    1    3    3    0    0  0.12617968783E+03  0.27801008626E+03  0.67081220374E+03  0.73702098638E+03  0.00000000000E+00 0. -1.
          4    1    3    3  501    0 -0.12617968783E+03 -0.27801008626E+03  0.21738014082E+03  0.37478666906E+03  0.00000000000E+00 0. -1.
<mgrwt>
<rscale>  0 0.66875303E+03</rscale>
<asrwt>0</asrwt>
<pdfrwt beam="1">0</pdfrwt>
<pdfrwt beam="2">  1        2 0.40657415E+00 0.66875303E+03</pdfrwt>
<totfact> 0.37567420E+00</totfact>
</mgrwt>
</event>
<event>
 5    1  0.2369161E-004  0.6500304E+03  0.7818608E-02  0.9806722E-01
         13   -1    0    0    0    0  0.00000000000E+00  0.00000000000E+00  0.10000000000E+04  0.10000000000E+04  0.00000000000E+00 0. -1.
          2   -1    0    0  501    0 -0.00000000000E+00 -0.00000000000E+00 -0.10563486574E+03  0.10563486574E+03  0.00000000000E+00 0. -1.
    9000006    2    1    2  501    0  0.00000000000E+00  0.00000000000E+00  0.89436513426E+03  0.11056348657E+04  0.65003035540E+03 0.  0.
         13    1    3    3    0    0 -0.21896930231E+03 -0.89437772890E+02  0.82632701320E+03  0.85951323627E+03  0.00000000000E+00 0. -1.
          4    1    3    3  501    0  0.21896930231E+03  0.89437772890E+02  0.68038121059E+02  0.24612162947E+03  0.00000000000E+00 0. -1.
<mgrwt>
<rscale>  0 0.65003036E+03</rscale>
<asrwt>0</asrwt>
<pdfrwt beam="1">0</pdfrwt>
<pdfrwt beam="2">  1        2 0.38412759E+00 0.65003036E+03</pdfrwt>
<totfact> 0.45638707E+00</totfact>
</mgrwt>
</event>
<event>
 5    1  0.2369161E-004  0.6562487E+03  0.7818608E-02  0.9795124E-01
         13   -1    0    0    0    0  0.00000000000E+00  0.00000000000E+00  0.10000000000E+04  0.10000000000E+04  0.00000000000E+00 0. -1.
          2   -1    0    0  501    0 -0.00000000000E+00 -0.00000000000E+00 -0.10766560059E+03  0.10766560059E+03  0.00000000000E+00 0. -1.
    9000006    2    1    2  501    0  0.00000000000E+00  0.00000000000E+00  0.89233439941E+03  0.11076656006E+04  0.65624873512E+03 0.  0.
         13    1    3    3    0    0  0.15991746679E+03  0.92746701297E+02 -0.11399564875E+02  0.18521743132E+03  0.00000000000E+00 0. -1.
          2    1    3    3  501    0 -0.15991746679E+03 -0.92746701297E+02  0.90373396429E+03  0.92244816927E+03  0.00000000000E+00 0. -1.
<mgrwt>
<rscale>  0 0.65624874E+03</rscale>
<asrwt>0</asrwt>
<pdfrwt beam="1">0</pdfrwt>
<pdfrwt beam="2">  1        2 0.39151210E+00 0.65624874E+03</pdfrwt>
<totfact> 0.42825694E+00</totfact>
</mgrwt>
</event>
<event>
 5    1  0.2369161E-004  0.7433054E+03  0.7818608E-02  0.9645912E-01
         13   -1    0    0    0    0  0.00000000000E+00  0.00000000000E+00  0.10000000000E+04  0.10000000000E+04  0.00000000000E+00 0. -1.
          2   -1    0    0  501    0 -0.00000000000E+00 -0.00000000000E+00 -0.13812573820E+03  0.13812573820E+03  0.00000000000E+00 0. -1.
    9000006    2    1    2  501    0  0.00000000000E+00  0.00000000000E+00  0.86187426180E+03  0.11381257382E+04  0.74330542363E+03 0.  0.
         13    1    3    3    0    0 -0.26506981417E+03 -0.24341222297E+03  0.57304919949E+03  0.67668079751E+03  0.00000000000E+00 0. -1.
          4    1    3    3  501    0  0.26506981417E+03  0.24341222297E+03  0.28882506230E+03  0.46144494069E+03  0.00000000000E+00 0. -1.
<mgrwt>
<rscale>  0 0.74330542E+03</rscale>
<asrwt>0</asrwt>
<pdfrwt beam="1">0</pdfrwt>
<pdfrwt beam="2">  1        2 0.50227647E+00 0.74330542E+03</pdfrwt>
<totfact> 0.15530380E+00</totfact>
</mgrwt>
</event>
<event>
 5    1  0.2369161E-004  0.6216770E+03  0.7818608E-02  0.9861426E-01
         13   -1    0    0    0    0  0.00000000000E+00  0.00000000000E+00  0.10000000000E+04  0.10000000000E+04  0.00000000000E+00 0. -1.
          2   -1    0    0  501    0 -0.00000000000E+00 -0.00000000000E+00 -0.96620584533E+02  0.96620584533E+02  0.00000000000E+00 0. -1.
    9000006    2    1    2  501    0  0.00000000000E+00  0.00000000000E+00  0.90337941547E+03  0.10966205845E+04  0.62167703684E+03 0.  0.
         13    1    3    3    0    0 -0.11569235257E+03 -0.13890956054E+03  0.56455275576E+01  0.18086585757E+03  0.00000000000E+00 0. -1.
          2    1    3    3  501    0  0.11569235257E+03  0.13890956054E+03  0.89773388791E+03  0.91575472696E+03  0.00000000000E+00 0. -1.
<mgrwt>
<rscale>  0 0.62167704E+03</rscale>
<asrwt>0</asrwt>
<pdfrwt beam="1">0</pdfrwt>
<pdfrwt beam="2">  1        2 0.35134832E+00 0.62167704E+03</pdfrwt>
<totfact> 0.60279873E+00</totfact>
</mgrwt>
</event>
<event>
 5    1  0.2369161E-004  0.6542194E+03  0.7818608E-02  0.9798894E-01
         13   -1    0    0    0    0  0.00000000000E+00  0.00000000000E+00  0.10000000000E+04  0.10000000000E+04  0.00000000000E+00 0. -1.
          2   -1    0    0  501    0 -0.00000000000E+00 -0.00000000000E+00 -0.10700076060E+03  0.10700076060E+03  0.00000000000E+00 0. -1.
    9000006    2    1    2  501    0  0.00000000000E+00  0.00000000000E+00  0.89299923940E+03  0.11070007606E+04  0.65421941457E+03 0.  0.
         13    1    3    3    0    0 -0.30653748293E+03  0.58155049977E+02  0.61275181695E+03  0.68761328336E+03  0.00000000000E+00 0. -1.
          4    1    3    3  501    0  0.30653748293E+03 -0.58155049977E+02  0.28024742246E+03  0.41938747724E+03  0.00000000000E+00 0. -1.
<mgrwt>
<rscale>  0 0.65421941E+03</rscale>
<asrwt>0</asrwt>
<pdfrwt beam="1">0</pdfrwt>
<pdfrwt beam="2">  1        2 0.38909450E+00 0.65421941E+03</pdfrwt>
<totfact> 0.43728870E+00</totfact>
</mgrwt>
</event>
<event>
 5    1  0.2369161E-004  0.6555923E+03  0.7818608E-02  0.9796342E-01
         13   -1    0    0    0    0  0.00000000000E+00  0.00000000000E+00  0.10000000000E+04  0.10000000000E+04  0.00000000000E+00 0. -1.
          2   -1    0    0  501    0 -0.00000000000E+00 -0.00000000000E+00 -0.10745031244E+03  0.10745031244E+03  0.00000000000E+00 0. -1.
    9000006    2    1    2  501    0  0.00000000000E+00  0.00000000000E+00  0.89254968756E+03  0.11074503124E+04  0.65559228928E+03 0.  0.
         13    1    3    3    0    0  0.46379948584E+02 -0.29686533630E+03  0.22492567309E+03  0.37532877046E+03  0.00000000000E+00 0. -1.
          2    1    3    3  501    0 -0.46379948584E+02  0.29686533630E+03  0.66762401447E+03  0.73212154198E+03  0.00000000000E+00 0. -1.
<mgrwt>
<rscale>  0 0.65559229E+03</rscale>
<asrwt>0</asrwt>
<pdfrwt beam="1">0</pdfrwt>
<pdfrwt beam="2">  1        2 0.39072923E+00 0.65559229E+03</pdfrwt>
<totfact> 0.43116297E+00</totfact>
</mgrwt>
</event>
<event>
 5    1  0.2369161E-004  0.6455300E+03  0.7818608E-02  0.9815203E-01
         13   -1    0    0    0    0  0.00000000000E+00  0.00000000000E+00  0.10000000000E+04  0.10000000000E+04  0.00000000000E+00 0. -1.
          2   -1    0    0  501    0 -0.00000000000E+00 -0.00000000000E+00 -0.10417725542E+03  0.10417725542E+03  0.00000000000E+00 0. -1.
    9000006    2    1    2  501    0  0.00000000000E+00  0.00000000000E+00  0.89582274458E+03  0.11041772554E+04  0.64553003159E+03 0.  0.
         13    1    3    3    0    0  0.17231076901E+03 -0.27109432496E+03  0.39397993058E+03  0.50833386652E+03  0.00000000000E+00 0. -1.
          2    1    3    3  501    0 -0.17231076901E+03  0.27109432496E+03  0.50184281400E+03  0.59584338890E+03  0.00000000000E+00 0. -1.
<mgrwt>
<rscale>  0 0.64553003E+03</rscale>
<asrwt>0</asrwt>
<pdfrwt beam="1">0</pdfrwt>
<pdfrwt beam="2">  1        2 0.37882718E+00 0.64553003E+03</pdfrwt>
<totfact> 0.47759994E+00</totfact>
</mgrwt>
</event>
<event>
 5    1  0.2369161E-004  0.6333756E+03  0.7818608E-02  0.9838484E-01
         13   -1    0    0    0    0  0.00000000000E+00  0.00000000000E+00  0.10000000000E+04  0.10000000000E+04  0.00000000000E+00 0. -1.
          2   -1    0    0  501    0 -0.00000000000E+00 -0.00000000000E+00 -0.10029117510E+03  0.10029117510E+03  0.00000000000E+00 0. -1.
    9000006    2    1    2  501    0  0.00000000000E+00  0.00000000000E+00  0.89970882490E+03  0.11002911751E+04  0.63337563924E+03 0.  0.
         13    1    3    3    0    0  0.52697028562E+02  0.25835330682E+03  0.75456971457E+03  0.79931149254E+03  0.00000000000E+00 0. -1.
          4    1    3    3  501    0 -0.52697028562E+02 -0.25835330682E+03  0.14513911033E+03  0.30097968256E+03  0.00000000000E+00 0. -1.
<mgrwt>
<rscale>  0 0.63337564E+03</rscale>
<asrwt>0</asrwt>
<pdfrwt beam="1">0</pdfrwt>
<pdfrwt beam="2">  1        2 0.36469595E+00 0.63337564E+03</pdfrwt>
<totfact> 0.53863285E+00</totfact>
</mgrwt>
</event>
<event>
 5    1  0.2369161E-004  0.6538920E+03  0.7818608E-02  0.9799503E-01
         13   -1    0    0    0    0  0.00000000000E+00  0.00000000000E+00  0.10000000000E+04  0.10000000000E+04  0.00000000000E+00 0. -1.
          2   -1    0    0  501    0 -0.00000000000E+00 -0.00000000000E+00 -0.10689368880E+03  0.10689368880E+03  0.00000000000E+00 0. -1.
    9000006    2    1    2  501    0  0.00000000000E+00  0.00000000000E+00  0.89310631120E+03  0.11068936888E+04  0.65389200577E+03 0.  0.
         13    1    3    3    0    0  0.18081553219E+03 -0.23385215093E+03  0.68301305178E+03  0.74423646382E+03  0.00000000000E+00 0. -1.
          2    1    3    3  501    0 -0.18081553219E+03  0.23385215093E+03  0.21009325942E+03  0.36265722498E+03  0.00000000000E+00 0. -1.
<mgrwt>
<rscale>  0 0.65389201E+03</rscale>
<asrwt>0</asrwt>
<pdfrwt beam="1">0</pdfrwt>
<pdfrwt beam="2">  1        2 0.38870514E+00 0.65389201E+03</pdfrwt>
<totfact> 0.43875924E+00</totfact>
</mgrwt>
</event>
<event>
 5    1  0.2369161E-004  0.6499731E+03  0.7818608E-02  0.9806830E-01
         13   -1    0    0    0    0  0.00000000000E+00  0.00000000000E+00  0.10000000000E+04  0.10000000000E+04  0.00000000000E+00 0. -1.
          2   -1    0    0  501    0 -0.00000000000E+00 -0.00000000000E+00 -0.10561625025E+03  0.10561625025E+03  0.00000000000E+00 0. -1.
    9000006    2    1    2  501    0  0.00000000000E+00  0.00000000000E+00  0.89438374975E+03  0.11056162503E+04  0.64997307715E+03 0.  0.
         13    1    3    3    0    0 -0.26109841165E+02 -0.97111753450E+02  0.97286944688E+03  0.97805284987E+03  0.00000000000E+00 0. -1.
          2    1    3    3  501    0  0.26109841165E+02  0.97111753450E+02 -0.78485697132E+02  0.12756340039E+03  0.00000000000E+00 0. -1.
<mgrwt>
<rscale>  0 0.64997308E+03</rscale>
<asrwt>0</asrwt>
<pdfrwt beam="1">0</pdfrwt>
<pdfrwt beam="2">  1        2 0.38405990E+00 0.64997308E+03</pdfrwt>
<totfact> 0.45665250E+00</totfact>
</mgrwt>
</event>
<event>
 5    1  0.2369161E-004  0.6495384E+03  0.7818608E-02  0.9807646E-01
         13   -1    0    0    0    0  0.00000000000E+00  0.00000000000E+00  0.10000000000E+04  0.10000000000E+04  0.00000000000E+00 0. -1.
          2   -1    0    0  501    0 -0.00000000000E+00 -0.00000000000E+00 -0.10547504383E+03  0.10547504383E+03  0.00000000000E+00 0. -1.
    9000006    2    1    2  501    0  0.00000000000E+00  0.00000000000E+00  0.89452495617E+03  0.11054750438E+04  0.64953843251E+03 0.  0.
         13    1    3    3    0    0 -0.13640898174E+03  0.26715028387E+03  0.23538394712E+03  0.38129029233E+03  0.00000000000E+00 0. -1.
          4    1    3    3  501    0  0.13640898174E+03 -0.26715028387E+03  0.65914100906E+03  0.72418475149E+03  0.00000000000E+00 0. -1.
<mgrwt>
<rscale>  0 0.64953843E+03</rscale>
<asrwt>0</asrwt>
<pdfrwt beam="1">0</pdfrwt>
<pdfrwt beam="2">  1        2 0.38354642E+00 0.64953843E+03</pdfrwt>
<totfact> 0.45867046E+00</totfact>
</mgrwt>
</event>
<event>
 5    1  0.2369161E-004  0.6681672E+03  0.7818608E-02  0.9773274E-01
         13   -1    0    0    0    0  0.00000000000E+00  0.00000000000E+00  0.10000000000E+04  0.10000000000E+04  0.00000000000E+00 0. -1.
          2   -1    0    0  501    0 -0.00000000000E+00 -0.00000000000E+00 -0.11161186513E+03  0.11161186513E+03  0.00000000000E+00 0. -1.
    9000006    2    1    2  501    0  0.00000000000E+00  0.00000000000E+00  0.88838813487E+03  0.11116118651E+04  0.66816723992E+03 0.  0.
         13    1    3    3    0    0  0.16824209154E+03 -0.22102084071E+03  0.75301164438E+03  0.80260958751E+03  0.00000000000E+00 0. -1.
          2    1    3    3  501    0 -0.16824209154E+03  0.22102084071E+03  0.13537649050E+03  0.30900227762E+03  0.00000000000E+00 0. -1.
<mgrwt>
<rscale>  0 0.66816724E+03</rscale>
<asrwt>0</asrwt>
<pdfrwt beam="1">0</pdfrwt>
<pdfrwt beam="2">  1        2 0.40586218E+00 0.66816724E+03</pdfrwt>
<totfact> 0.37802275E+00</totfact>
</mgrwt>
</event>
<event>
 5    1  0.2369161E-004  0.6477919E+03  0.7818608E-02  0.9810931E-01
         13   -1    0    0    0    0  0.00000000000E+00  0.00000000000E+00  0.10000000000E+04  0.10000000000E+04  0.00000000000E+00 0. -1.
          2   -1    0    0  501    0 -0.00000000000E+00 -0.00000000000E+00 -0.10490857475E+03  0.10490857475E+03  0.00000000000E+00 0. -1.
    9000006    2    1    2  501    0  0.00000000000E+00  0.00000000000E+00  0.89509142525E+03  0.11049085747E+04  0.64779186395E+03 0.  0.
         13    1    3    3    0    0 -0.24967208162E+03  0.10746202526E+03  0.74797490288E+03  0.79583333089E+03  0.00000000000E+00 0. -1.
          4    1    3    3  501    0  0.24967208162E+03 -0.10746202526E+03  0.14711652237E+03  0.30907524386E+03  0.00000000000E+00 0. -1.
<mgrwt>
<rscale>  0 0.64779186E+03</rscale>
<asrwt>0</asrwt>
<pdfrwt beam="1">0</pdfrwt>
<pdfrwt beam="2">  1        2 0.38148653E+00 0.64779186E+03</pdfrwt>
<totfact> 0.46684742E+00</totfact>
</mgrwt>
</event>
<event>
 5    1  0.2369161E-004  0.6501157E+03  0.7818608E-02  0.9806562E-01
         13   -1    0    0    0    0  0.00000000000E+00  0.00000000000E+00  0.10000000000E+04  0.10000000000E+04  0.00000000000E+00 0. -1.
          2   -1    0    0  501    0 -0.00000000000E+00 -0.00000000000E+00 -0.10566259839E+03  0.10566259839E+03  0.00000000000E+00 0. -1.
    9000006    2    1    2  501    0  0.00000000000E+00  0.00000000000E+00  0.89433740161E+03  0.11056625984E+04  0.65011567706E+03 0.  0.
         13    1    3    3    0    0 -0.53986295462E+02 -0.13738238939E+03  0.93971387126E+03  0.95123635383E+03  0.00000000000E+00 0. -1.
          4    1    3    3  501    0  0.53986295462E+02  0.13738238939E+03 -0.45376469646E+02  0.15442624456E+03  0.00000000000E+00 0. -1.
<mgrwt>
<rscale>  0 0.65011568E+03</rscale>
<asrwt>0</asrwt>
<pdfrwt beam="1">0</pdfrwt>
<pdfrwt beam="2">  1        2 0.38422844E+00 0.65011568E+03</pdfrwt>
<totfact> 0.45599191E+00</totfact>
</mgrwt>
</event>
<event>
 5    1  0.2369161E-004  0.6089121E+03  0.7818608E-02  0.9887087E-01
         13   -1    0    0    0    0  0.00000000000E+00  0.00000000000E+00  0.10000000000E+04  0.10000000000E+04  0.00000000000E+00 0. -1.
          2   -1    0    0  501    0 -0.00000000000E+00 -0.00000000000E+00 -0.92693500207E+02  0.92693500207E+02  0.00000000000E+00 0. -1.
    9000006    2    1    2  501    0  0.00000000000E+00  0.00000000000E+00  0.90730649979E+03  0.10926935002E+04  0.60891214541E+03 0.  0.
         13    1    3    3    0    0  0.29134038930E+03  0.62023132609E+02  0.34062234646E+03  0.45249273400E+03  0.00000000000E+00 0. -1.
          2    1    3    3  501    0 -0.29134038930E+03 -0.62023132609E+02  0.56668415334E+03  0.64020076621E+03  0.00000000000E+00 0. -1.
<mgrwt>
<rscale>  0 0.60891215E+03</rscale>
<asrwt>0</asrwt>
<pdfrwt beam="1">0</pdfrwt>
<pdfrwt beam="2">  1        2 0.33706798E+00 0.60891215E+03</pdfrwt>
<totfact> 0.67928423E+00</totfact>
</mgrwt>
</event>
<event>
 5    1  0.2369161E-004  0.6465242E+03  0.7818608E-02  0.9813323E-01
         13   -1    0    0    0    0  0.00000000000E+00  0.00000000000E+00  0.10000000000E+04  0.10000000000E+04  0.00000000000E+00 0. -1.
          2   -1    0    0  501    0 -0.00000000000E+00 -0.00000000000E+00 -0.10449838358E+03  0.10449838358E+03  0.00000000000E+00 0. -1.
    9000006    2    1    2  501    0  0.00000000000E+00  0.00000000000E+00  0.89550161642E+03  0.11044983836E+04  0.64652419470E+03 0.  0.
         13    1    3    3    0    0  0.27068659225E+03  0.14831577945E+03  0.28362710138E+03  0.41918150520E+03  0.00000000000E+00 0. -1.
          2    1    3    3  501    0 -0.27068659225E+03 -0.14831577945E+03  0.61187451503E+03  0.68531687839E+03  0.00000000000E+00 0. -1.
<mgrwt>
<rscale>  0 0.64652419E+03</rscale>
<asrwt>0</asrwt>
<pdfrwt beam="1">0</pdfrwt>
<pdfrwt beam="2">  1        2 0.37999492E+00 0.64652419E+03</pdfrwt>
<totfact> 0.47285098E+00</totfact>
</mgrwt>
</event>
<event>
 5    1  0.2369161E-004  0.6535494E+03  0.7818608E-02  0.9800142E-01
         13   -1    0    0    0    0  0.00000000000E+00  0.00000000000E+00  0.10000000000E+04  0.10000000000E+04  0.00000000000E+00 0. -1.
          2   -1    0    0  501    0 -0.00000000000E+00 -0.00000000000E+00 -0.10678170808E+03  0.10678170808E+03  0.00000000000E+00 0. -1.
    9000006    2    1    2  501    0  0.00000000000E+00  0.00000000000E+00  0.89321829192E+03  0.11067817081E+04  0.65354941078E+03 0.  0.
         13    1    3    3    0    0  0.19814472222E+03  0.85582188459E+02  0.31112424889E+02  0.21806793645E+03  0.00000000000E+00 0. -1.
          4    1    3    3  501    0 -0.19814472222E+03 -0.85582188459E+02  0.86210586703E+03  0.88871377163E+03  0.00000000000E+00 0. -1.
<mgrwt>
<rscale>  0 0.65354941E+03</rscale>
<asrwt>0</asrwt>
<pdfrwt beam="1">0</pdfrwt>
<pdfrwt beam="2">  1        2 0.38829794E+00 0.65354941E+03</pdfrwt>
<totfact> 0.44030199E+00</totfact>
</mgrwt>
</event>
<event>
 5    1  0.2369161E-004  0.6482060E+03  0.7818608E-02  0.9810151E-01
         13   -1    0    0    0    0  0.00000000000E+00  0.00000000000E+00  0.10000000000E+04  0.10000000000E+04  0.00000000000E+00 0. -1.
          2   -1    0    0  501    0 -0.00000000000E+00 -0.00000000000E+00 -0.10504276782E+03  0.10504276782E+03  0.00000000000E+00 0. -1.
    9000006    2    1    2  501    0  0.00000000000E+00  0.00000000000E+00  0.89495723218E+03  0.11050427678E+04  0.64820604076E+03 0.  0.
         13    1    3    3    0    0 -0.14916174130E+03  0.12217363750E+03  0.89159398524E+03  0.91220362709E+03  0.00000000000E+00 0. -1.
          4    1    3    3  501    0  0.14916174130E+03 -0.12217363750E+03  0.33632469384E+01  0.19283914072E+03  0.00000000000E+00 0. -1.
<mgrwt>
<rscale>  0 0.64820604E+03</rscale>
<asrwt>0</asrwt>
<pdfrwt beam="1">0</pdfrwt>
<pdfrwt beam="2">  1        2 0.38197451E+00 0.64820604E+03</pdfrwt>
<totfact> 0.46489846E+00</totfact>
</mgrwt>
</event>
<event>
 5    1  0.2369161E-004  0.6573369E+03  0.7818608E-02  0.9793109E-01
         13   -1    0    0    0    0  0.00000000000E+00  0.00000000000E+00  0.10000000000E+04  0.10000000000E+04  0.00000000000E+00 0. -1.
          2   -1    0    0  501    0 -0.00000000000E+00 -0.00000000000E+00 -0.10802294299E+03  0.10802294299E+03  0.00000000000E+00 0. -1.
    9000006    2    1    2  501    0  0.00000000000E+00  0.00000000000E+00  0.89197705701E+03  0.11080229430E+04  0.65733687861E+03 0.  0.
         13    1    3    3    0    0  0.26951450658E+03  0.87167978855E+02  0.16500646739E+03  0.32781619862E+03  0.00000000000E+00 0. -1.
          2    1    3    3  501    0 -0.26951450658E+03 -0.87167978855E+02  0.72697058962E+03  0.78020674438E+03  0.00000000000E+00 0. -1.
<mgrwt>
<rscale>  0 0.65733688E+03</rscale>
<asrwt>0</asrwt>
<pdfrwt beam="1">0</pdfrwt>
<pdfrwt beam="2">  1        2 0.39281153E+00 0.65733688E+03</pdfrwt>
<totfact> 0.42347243E+00</totfact>
</mgrwt>
</event>
<event>
 5    1  0.2369161E-004  0.6606563E+03  0.7818608E-02  0.9786986E-01
         13   -1    0    0    0    0  0.00000000000E+00  0.00000000000E+00  0.10000000000E+04  0.10000000000E+04  0.00000000000E+00 0. -1.
          2   -1    0    0  501    0 -0.00000000000E+00 -0.00000000000E+00 -0.10911669273E+03  0.10911669273E+03  0.00000000000E+00 0. -1.
    9000006    2    1    2  501    0  0.00000000000E+00  0.00000000000E+00  0.89088330727E+03  0.11091166927E+04  0.66065631830E+03 0.  0.
         13    1    3    3    0    0 -0.10305116460E+03  0.48853014605E+02  0.96590139566E+03  0.97261074727E+03  0.00000000000E+00 0. -1.
          4    1    3    3  501    0  0.10305116460E+03 -0.48853014605E+02 -0.75018088385E+02  0.13650594546E+03  0.00000000000E+00 0. -1.
<mgrwt>
<rscale>  0 0.66065632E+03</rscale>
<asrwt>0</asrwt>
<pdfrwt beam="1">0</pdfrwt>
<pdfrwt beam="2">  1        2 0.39678881E+00 0.66065632E+03</pdfrwt>
<totfact> 0.40912694E+00</totfact>
</mgrwt>
</event>
<event>
 5    1  0.2369161E-004  0.6455951E+03  0.7818608E-02  0.9815080E-01
         13   -1    0    0    0    0  0.00000000000E+00  0.00000000000E+00  0.10000000000E+04  0.10000000000E+04  0.00000000000E+00 0. -1.
          2   -1    0    0  501    0 -0.00000000000E+00 -0.00000000000E+00 -0.10419825674E+03  0.10419825674E+03  0.00000000000E+00 0. -1.
    9000006    2    1    2  501    0  0.00000000000E+00  0.00000000000E+00  0.89580174326E+03  0.11041982567E+04  0.64559509521E+03 0.  0.
         13    1    3    3    0    0  0.25710786527E+03  0.19486457184E+03  0.46676146703E+03  0.56740014350E+03  0.00000000000E+00 0. -1.
          4    1    3    3  501    0 -0.25710786527E+03 -0.19486457184E+03  0.42904027623E+03  0.53679811324E+03  0.00000000000E+00 0. -1.
<mgrwt>
<rscale>  0 0.64559510E+03</rscale>
<asrwt>0</asrwt>
<pdfrwt beam="1">0</pdfrwt>
<pdfrwt beam="2">  1        2 0.37890355E+00 0.64559510E+03</pdfrwt>
<totfact> 0.47728805E+00</totfact>
</mgrwt>
</event>
<event>
 5    1  0.2369161E-004  0.6194511E+03  0.7818608E-02  0.9865853E-01
         13   -1    0    0    0    0  0.00000000000E+00  0.00000000000E+00  0.10000000000E+04  0.10000000000E+04  0.00000000000E+00 0. -1.
          2   -1    0    0  501    0 -0.00000000000E+00 -0.00000000000E+00 -0.95929911361E+02  0.95929911361E+02  0.00000000000E+00 0. -1.
    9000006    2    1    2  501    0  0.00000000000E+00  0.00000000000E+00  0.90407008864E+03  0.10959299114E+04  0.61945108398E+03 0.  0.
         13    1    3    3    0    0 -0.24983300115E+03  0.17154358705E+03  0.33894235177E+03  0.45467092335E+03  0.00000000000E+00 0. -1.
          2    1    3    3  501    0  0.24983300115E+03 -0.17154358705E+03  0.56512773687E+03  0.64125898801E+03  0.00000000000E+00 0. -1.
<mgrwt>
<rscale>  0 0.61945108E+03</rscale>
<asrwt>0</asrwt>
<pdfrwt beam="1">0</pdfrwt>
<pdfrwt beam="2">  1        2 0.34883678E+00 0.61945108E+03</pdfrwt>
<totfact> 0.61563854E+00</totfact>
</mgrwt>
</event>
<event>
 5    1  0.2369161E-004  0.6507451E+03  0.7818608E-02  0.9805382E-01
         13   -1    0    0    0    0  0.00000000000E+00  0.00000000000E+00  0.10000000000E+04  0.10000000000E+04  0.00000000000E+00 0. -1.
          2   -1    0    0  501    0 -0.00000000000E+00 -0.00000000000E+00 -0.10586730427E+03  0.10586730427E+03  0.00000000000E+00 0. -1.
    9000006    2    1    2  501    0  0.00000000000E+00  0.00000000000E+00  0.89413269573E+03  0.11058673043E+04  0.65074512450E+03 0.  0.
         13    1    3    3    0    0  0.57678873984E+01  0.28135692109E+03  0.72460436484E+03  0.77733292167E+03  0.00000000000E+00 0. -1.
          2    1    3    3  501    0 -0.57678873984E+01 -0.28135692109E+03  0.16952833089E+03  0.32853438259E+03  0.00000000000E+00 0. -1.
<mgrwt>
<rscale>  0 0.65074512E+03</rscale>
<asrwt>0</asrwt>
<pdfrwt beam="1">0</pdfrwt>
<pdfrwt beam="2">  1        2 0.38497283E+00 0.65074512E+03</pdfrwt>
<totfact> 0.45308461E+00</totfact>
</mgrwt>
</event>
<event>
 5    1  0.2369161E-004  0.6487777E+03  0.7818608E-02  0.9809075E-01
         13   -1    0    0    0    0  0.00000000000E+00  0.00000000000E+00  0.10000000000E+04  0.10000000000E+04  0.00000000000E+00 0. -1.
          2   -1    0    0  501    0 -0.00000000000E+00 -0.00000000000E+00 -0.10522814008E+03  0.10522814008E+03  0.00000000000E+00 0. -1.
    9000006    2    1    2  501    0  0.00000000000E+00  0.00000000000E+00  0.89477185992E+03  0.11052281401E+04  0.64877774340E+03 0.  0.
         13    1    3    3    0    0  0.30804600242E+02 -0.65646280118E+02 -0.91243854657E+02  0.11654955385E+03  0.00000000000E+00 0. -1.
          4    1    3    3  501    0 -0.30804600242E+02  0.65646280118E+02  0.98601571458E+03  0.98867858623E+03  0.00000000000E+00 0. -1.
<mgrwt>
<rscale>  0 0.64877774E+03</rscale>
<asrwt>0</asrwt>
<pdfrwt beam="1">0</pdfrwt>
<pdfrwt beam="2">  1        2 0.38264859E+00 0.64877774E+03</pdfrwt>
<totfact> 0.46221837E+00</totfact>
</mgrwt>
</event>
<event>
 5    1  0.2369161E-004  0.6037587E+03  0.7818608E-02  0.9897639E-01
         13   -1    0    0    0    0  0.00000000000E+00  0.00000000000E+00  0.10000000000E+04  0.10000000000E+04  0.00000000000E+00 0. -1.
          2   -1    0    0  501    0 -0.00000000000E+00 -0.00000000000E+00 -0.91131130709E+02  0.91131130709E+02  0.00000000000E+00 0. -1.
    9000006    2    1    2  501    0  0.00000000000E+00  0.00000000000E+00  0.90886886929E+03  0.10911311307E+04  0.60375866274E+03 0.  0.
         13    1    3    3    0    0 -0.21666230833E+03  0.29131985048E+02  0.78200871506E+02  0.23217795914E+03  0.00000000000E+00 0. -1.
          4    1    3    3  501    0  0.21666230833E+03 -0.29131985048E+02  0.83066799778E+03  0.85895317157E+03  0.00000000000E+00 0. -1.
<mgrwt>
<rscale>  0 0.60375866E+03</rscale>
<asrwt>0</asrwt>
<pdfrwt beam="1">0</pdfrwt>
<pdfrwt beam="2">  1        2 0.33138663E+00 0.60375866E+03</pdfrwt>
<totfact> 0.71217974E+00</totfact>
</mgrwt>
</event>
<event>
 5    1  0.2369161E-004  0.6570181E+03  0.7818608E-02  0.9793699E-01
         13   -1    0    0    0    0  0.00000000000E+00  0.00000000000E+00  0.10000000000E+04  0.10000000000E+04  0.00000000000E+00 0. -1.
          2   -1    0    0  501    0 -0.00000000000E+00 -0.00000000000E+00 -0.10791817965E+03  0.10791817965E+03  0.00000000000E+00 0. -1.
    9000006    2    1    2  501    0  0.00000000000E+00  0.00000000000E+00  0.89208182035E+03  0.11079181796E+04  0.65701805042E+03 0.  0.
         13    1    3    3    0    0  0.19327246273E+03 -0.19221921587E+03  0.13686794028E+03  0.30501689278E+03  0.00000000000E+00 0. -1.
          2    1    3    3  501    0 -0.19327246273E+03  0.19221921587E+03  0.75521388007E+03  0.80290128687E+03  0.00000000000E+00 0. -1.
<mgrwt>
<rscale>  0 0.65701805E+03</rscale>
<asrwt>0</asrwt>
<pdfrwt beam="1">0</pdfrwt>
<pdfrwt beam="2">  1        2 0.39243057E+00 0.65701805E+03</pdfrwt>
<totfact> 0.42487010E+00</totfact>
</mgrwt>
</event>
<event>
 5    1  0.2369161E-004  0.6163101E+03  0.7818608E-02  0.9872134E-01
         13   -1    0    0    0    0  0.00000000000E+00  0.00000000000E+00  0.10000000000E+04  0.10000000000E+04  0.00000000000E+00 0. -1.
          2   -1    0    0  501    0 -0.00000000000E+00 -0.00000000000E+00 -0.94959532210E+02  0.94959532210E+02  0.00000000000E+00 0. -1.
    9000006    2    1    2  501    0  0.00000000000E+00  0.00000000000E+00  0.90504046779E+03  0.10949595322E+04  0.61631009146E+03 0.  0.
         13    1    3    3    0    0 -0.23305446920E+03  0.18397685829E+03  0.59900031766E+03  0.66855310227E+03  0.00000000000E+00 0. -1.
          4    1    3    3  501    0  0.23305446920E+03 -0.18397685829E+03  0.30604015013E+03  0.42640642994E+03  0.00000000000E+00 0. -1.
<mgrwt>
<rscale>  0 0.61631009E+03</rscale>
<asrwt>0</asrwt>
<pdfrwt beam="1">0</pdfrwt>
<pdfrwt beam="2">  1        2 0.34530812E+00 0.61631009E+03</pdfrwt>
<totfact> 0.63410945E+00</totfact>
</mgrwt>
</event>
<event>
 5    1  0.2369161E-004  0.6510589E+03  0.7818608E-02  0.9804794E-01
         13   -1    0    0    0    0  0.00000000000E+00  0.00000000000E+00  0.10000000000E+04  0.10000000000E+04  0.00000000000E+00 0. -1.
          2   -1    0    0  501    0 -0.00000000000E+00 -0.00000000000E+00 -0.10596942277E+03  0.10596942277E+03  0.00000000000E+00 0. -1.
    9000006    2    1    2  501    0  0.00000000000E+00  0.00000000000E+00  0.89403057723E+03  0.11059694228E+04  0.65105889986E+03 0.  0.
         13    1    3    3    0    0  0.18876175389E+03  0.19745231048E+03  0.74779503951E+03  0.79612551508E+03  0.00000000000E+00 0. -1.
          4    1    3    3  501    0 -0.18876175389E+03 -0.19745231048E+03  0.14623553772E+03  0.30984390770E+03  0.00000000000E+00 0. -1.
<mgrwt>
<rscale>  0 0.65105890E+03</rscale>
<asrwt>0</asrwt>
<pdfrwt beam="1">0</pdfrwt>
<pdfrwt beam="2">  1        2 0.38534417E+00 0.65105890E+03</pdfrwt>
<totfact> 0.45164059E+00</totfact>
</mgrwt>
</event>
<event>
 5    1  0.2369161E-004  0.6491658E+03  0.7818608E-02  0.9808346E-01
         13   -1    0    0    0    0  0.00000000000E+00  0.00000000000E+00  0.10000000000E+04  0.10000000000E+04  0.00000000000E+00 0. -1.
          2   -1    0    0  501    0 -0.00000000000E+00 -0.00000000000E+00 -0.10535407449E+03  0.10535407449E+03  0.00000000000E+00 0. -1.
    9000006    2    1    2  501    0  0.00000000000E+00  0.00000000000E+00  0.89464592551E+03  0.11053540745E+04  0.64916584780E+03 0.  0.
         13    1    3    3    0    0  0.87620298602E+02 -0.28577302105E+03  0.66277406398E+03  0.72705776673E+03  0.00000000000E+00 0. -1.
          4    1    3    3  501    0 -0.87620298602E+02  0.28577302105E+03  0.23187186154E+03  0.37829630775E+03  0.00000000000E+00 0. -1.
<mgrwt>
<rscale>  0 0.64916585E+03</rscale>
<asrwt>0</asrwt>
<pdfrwt beam="1">0</pdfrwt>
<pdfrwt beam="2">  1        2 0.38310653E+00 0.64916585E+03</pdfrwt>
<totfact> 0.46040564E+00</totfact>
</mgrwt>
</event>
<event>
 5    1  0.2369161E-004  0.6465181E+03  0.7818608E-02  0.9813335E-01
         13   -1    0    0    0    0  0.00000000000E+00  0.00000000000E+00  0.10000000000E+04  0.10000000000E+04  0.00000000000E+00 0. -1.
          2   -1    0    0  501    0 -0.00000000000E+00 -0.00000000000E+00 -0.10449642168E+03  0.10449642168E+03  0.00000000000E+00 0. -1.
    9000006    2    1    2  501    0  0.00000000000E+00  0.00000000000E+00  0.89550357832E+03  0.11044964217E+04  0.64651812559E+03 0.  0.
         13    1    3    3    0    0 -0.18254035660E+03 -0.19589711284E+03  0.13835275892E+03  0.30139367363E+03  0.00000000000E+00 0. -1.
          2    1    3    3  501    0  0.18254035660E+03  0.19589711284E+03  0.75715081940E+03  0.80310274805E+03  0.00000000000E+00 0. -1.
<mgrwt>
<rscale>  0 0.64651813E+03</rscale>
<asrwt>0</asrwt>
<pdfrwt beam="1">0</pdfrwt>
<pdfrwt beam="2">  1        2 0.37998779E+00 0.64651813E+03</pdfrwt>
<totfact> 0.47287986E+00</totfact>
</mgrwt>
</event>
<event>
 5    1  0.2369161E-004  0.6525077E+03  0.7818608E-02  0.9802085E-01
         13   -1    0    0    0    0  0.00000000000E+00  0.00000000000E+00  0.10000000000E+04  0.10000000000E+04  0.00000000000E+00 0. -1.
          2   -1    0    0  501    0 -0.00000000000E+00 -0.00000000000E+00 -0.10644156032E+03  0.10644156032E+03  0.00000000000E+00 0. -1.
    9000006    2    1    2  501    0  0.00000000000E+00  0.00000000000E+00  0.89355843968E+03  0.11064415603E+04  0.65250765610E+03 0.  0.
         13    1    3    3    0    0 -0.24740887595E+03  0.13990268416E+03  0.17516576177E+03  0.33386667553E+03  0.00000000000E+00 0. -1.
          2    1    3    3  501    0  0.24740887595E+03 -0.13990268416E+03  0.71839267791E+03  0.77257488479E+03  0.00000000000E+00 0. -1.
<mgrwt>
<rscale>  0 0.65250766E+03</rscale>
<asrwt>0</asrwt>
<pdfrwt beam="1">0</pdfrwt>
<pdfrwt beam="2">  1        2 0.38706104E+00 0.65250766E+03</pdfrwt>
<totfact> 0.44501832E+00</totfact>
</mgrwt>
</event>
<event>
 5    1  0.2369161E-004  0.6707446E+03  0.7818608E-02  0.9768614E-01
         13   -1    0    0    0    0  0.00000000000E+00  0.00000000000E+00  0.10000000000E+04  0.10000000000E+04  0.00000000000E+00 0. -1.
          2   -1    0    0  501    0 -0.00000000000E+00 -0.00000000000E+00 -0.11247459035E+03  0.11247459035E+03  0.00000000000E+00 0. -1.
    9000006    2    1    2  501    0  0.00000000000E+00  0.00000000000E+00  0.88752540965E+03  0.11124745903E+04  0.67074463202E+03 0.  0.
         13    1    3    3    0    0 -0.66881161749E+02  0.32260100941E+03  0.54773894346E+03  0.63918890107E+03  0.00000000000E+00 0. -1.
          2    1    3    3  501    0  0.66881161749E+02 -0.32260100941E+03  0.33978646619E+03  0.47328568928E+03  0.00000000000E+00 0. -1.
<mgrwt>
<rscale>  0 0.67074463E+03</rscale>
<asrwt>0</asrwt>
<pdfrwt beam="1">0</pdfrwt>
<pdfrwt beam="2">  1        2 0.40899937E+00 0.67074463E+03</pdfrwt>
<totfact> 0.36777174E+00</totfact>
</mgrwt>
</event>
<event>
 5    1  0.2369161E-004  0.7271474E+03  0.7818608E-02  0.9671901E-01
         13   -1    0    0    0    0  0.00000000000E+00  0.00000000000E+00  0.10000000000E+04  0.10000000000E+04  0.00000000000E+00 0. -1.
          2   -1    0    0  501    0 -0.00000000000E+00 -0.00000000000E+00 -0.13218584080E+03  0.13218584080E+03  0.00000000000E+00 0. -1.
    9000006    2    1    2  501    0  0.00000000000E+00  0.00000000000E+00  0.86781415920E+03  0.11321858408E+04  0.72714741504E+03 0.  0.
         13    1    3    3    0    0 -0.32621109948E+03  0.73735426979E+02  0.65594132960E+03  0.73628093992E+03  0.00000000000E+00 0. -1.
          4    1    3    3  501    0  0.32621109948E+03 -0.73735426979E+02  0.21187282960E+03  0.39590490088E+03  0.00000000000E+00 0. -1.
<mgrwt>
<rscale>  0 0.72714742E+03</rscale>
<asrwt>0</asrwt>
<pdfrwt beam="1">0</pdfrwt>
<pdfrwt beam="2">  1        2 0.48067680E+00 0.72714742E+03</pdfrwt>
<totfact> 0.19129767E+00</totfact>
</mgrwt>
</event>
<event>
 5    1  0.2369161E-004  0.6418202E+03  0.7818608E-02  0.9822250E-01
         13   -1    0    0    0    0  0.00000000000E+00  0.00000000000E+00  0.10000000000E+04  0.10000000000E+04  0.00000000000E+00 0. -1.
          2   -1    0    0  501    0 -0.00000000000E+00 -0.00000000000E+00 -0.10298327768E+03  0.10298327768E+03  0.00000000000E+00 0. -1.
    9000006    2    1    2  501    0  0.00000000000E+00  0.00000000000E+00  0.89701672232E+03  0.11029832777E+04  0.64182015449E+03 0.  0.
         13    1    3    3    0    0  0.22520473919E+03  0.16666181957E+03  0.71744467443E+03  0.77020789240E+03  0.00000000000E+00 0. -1.
          2    1    3    3  501    0 -0.22520473919E+03 -0.16666181957E+03  0.17957204790E+03  0.33277538527E+03  0.00000000000E+00 0. -1.
<mgrwt>
<rscale>  0 0.64182015E+03</rscale>
<asrwt>0</asrwt>
<pdfrwt beam="1">0</pdfrwt>
<pdfrwt beam="2">  1        2 0.37448544E+00 0.64182015E+03</pdfrwt>
<totfact> 0.49564122E+00</totfact>
</mgrwt>
</event>
<event>
 5    1  0.2369161E-004  0.6485925E+03  0.7818608E-02  0.9809424E-01
         13   -1    0    0    0    0  0.00000000000E+00  0.00000000000E+00  0.10000000000E+04  0.10000000000E+04  0.00000000000E+00 0. -1.
          2   -1    0    0  501    0 -0.00000000000E+00 -0.00000000000E+00 -0.10516805369E+03  0.10516805369E+03  0.00000000000E+00 0. -1.
    9000006    2    1    2  501    0  0.00000000000E+00  0.00000000000E+00  0.89483194631E+03  0.11051680537E+04  0.64859248745E+03 0.  0.
         13    1    3    3    0    0  0.60025836076E+02 -0.30024200924E+03  0.26532704520E+03  0.40515034990E+03  0.00000000000E+00 0. -1.
          2    1    3    3  501    0 -0.60025836076E+02  0.30024200924E+03  0.62950490111E+03  0.70001770379E+03  0.00000000000E+00 0. -1.
<mgrwt>
<rscale>  0 0.64859249E+03</rscale>
<asrwt>0</asrwt>
<pdfrwt beam="1">0</pdfrwt>
<pdfrwt beam="2">  1        2 0.38243009E+00 0.64859249E+03</pdfrwt>
<totfact> 0.46308555E+00</totfact>
</mgrwt>
</event>
<event>
 5    1  0.2369161E-004  0.6502443E+03  0.7818608E-02  0.9806321E-01
         13   -1    0    0    0    0  0.00000000000E+00  0.00000000000E+00  0.10000000000E+04  0.10000000000E+04  0.00000000000E+00 0. -1.
          2   -1    0    0  501    0 -0.00000000000E+00 -0.00000000000E+00 -0.10570442086E+03  0.10570442086E+03  0.00000000000E+00 0. -1.
    9000006    2    1    2  501    0  0.00000000000E+00  0.00000000000E+00  0.89429557914E+03  0.11057044209E+04  0.65024432596E+03 0.  0.
         13    1    3    3    0    0  0.19857469226E+03  0.22796470163E+03  0.24377144173E+03  0.38836108121E+03  0.00000000000E+00 0. -1.
          2    1    3    3  501    0 -0.19857469226E+03 -0.22796470163E+03  0.65052413740E+03  0.71734333965E+03  0.00000000000E+00 0. -1.
<mgrwt>
<rscale>  0 0.65024433E+03</rscale>
<asrwt>0</asrwt>
<pdfrwt beam="1">0</pdfrwt>
<pdfrwt beam="2">  1        2 0.38438052E+00 0.65024433E+03</pdfrwt>
<totfact> 0.45539656E+00</totfact>
</mgrwt>
</event>
<event>
 5    1  0.2369161E-004  0.6177224E+03  0.7818608E-02  0.9869305E-01
         13   -1    0    0    0    0  0.00000000000E+00  0.00000000000E+00  0.10000000000E+04  0.10000000000E+04  0.00000000000E+00 0. -1.
          2   -1    0    0  501    0 -0.00000000000E+00 -0.00000000000E+00 -0.95395231514E+02  0.95395231514E+02  0.00000000000E+00 0. -1.
    9000006    2    1    2  501    0  0.00000000000E+00  0.00000000000E+00  0.90460476849E+03  0.10953952315E+04  0.61772236972E+03 0.  0.
         13    1    3    3    0    0  0.10721084116E+03 -0.22823088918E+03  0.76858196126E+03  0.80888919785E+03  0.00000000000E+00 0. -1.
          2    1    3    3  501    0 -0.10721084116E+03  0.22823088918E+03  0.13602280723E+03  0.28650603366E+03  0.00000000000E+00 0. -1.
<mgrwt>
<rscale>  0 0.61772237E+03</rscale>
<asrwt>0</asrwt>
<pdfrwt beam="1">0</pdfrwt>
<pdfrwt beam="2">  1        2 0.34689248E+00 0.61772237E+03</pdfrwt>
<totfact> 0.62575294E+00</totfact>
</mgrwt>
</event>
<event>
 5    1  0.2369161E-004  0.6500939E+03  0.7818608E-02  0.9806603E-01
         13   -1    0    0    0    0  0.00000000000E+00  0.00000000000E+00  0.10000000000E+04  0.10000000000E+04  0.00000000000E+00 0. -1.
          2   -1    0    0  501    0 -0.00000000000E+00 -0.00000000000E+00 -0.10565553322E+03  0.10565553322E+03  0.00000000000E+00 0. -1.
    9000006    2    1    2  501    0  0.00000000000E+00  0.00000000000E+00  0.89434446678E+03  0.11056555332E+04  0.65009394159E+03 0.  0.
         13    1    3    3    0    0  0.24597825045E+03 -0.10323767386E+03  0.13130521937E+03  0.29732873664E+03  0.00000000000E+00 0. -1.
          2    1    3    3  501    0 -0.24597825045E+03  0.10323767386E+03  0.76303924741E+03  0.80832679659E+03  0.00000000000E+00 0. -1.
<mgrwt>
<rscale>  0 0.65009394E+03</rscale>
<asrwt>0</asrwt>
<pdfrwt beam="1">0</pdfrwt>
<pdfrwt beam="2">  1        2 0.38420275E+00 0.65009394E+03</pdfrwt>
<totfact> 0.45609255E+00</totfact>
</mgrwt>
</event>
<event>
 5    1  0.2369161E-004  0.6486014E+03  0.7818608E-02  0.9809407E-01
         13   -1    0    0    0    0  0.00000000000E+00  0.00000000000E+00  0.10000000000E+04  0.10000000000E+04  0.00000000000E+00 0. -1.
          2   -1    0    0  501    0 -0.00000000000E+00 -0.00000000000E+00 -0.10517095651E+03  0.10517095651E+03  0.00000000000E+00 0. -1.
    9000006    2    1    2  501    0  0.00000000000E+00  0.00000000000E+00  0.89482904349E+03  0.11051709565E+04  0.64860143852E+03 0.  0.
         13    1    3    3    0    0  0.29884565559E+03 -0.11263712766E+03  0.54342769315E+03  0.63032492103E+03  0.00000000000E+00 0. -1.
          2    1    3    3  501    0 -0.29884565559E+03  0.11263712766E+03  0.35140135034E+03  0.47484603548E+03  0.00000000000E+00 0. -1.
<mgrwt>
<rscale>  0 0.64860144E+03</rscale>
<asrwt>0</asrwt>
<pdfrwt beam="1">0</pdfrwt>
<pdfrwt beam="2">  1        2 0.38244065E+00 0.64860144E+03</pdfrwt>
<totfact> 0.46304362E+00</totfact>
</mgrwt>
</event>
<event>
 5    1  0.2369161E-004  0.6486539E+03  0.7818608E-02  0.9809308E-01
         13   -1    0    0    0    0  0.00000000000E+00  0.00000000000E+00  0.10000000000E+04  0.10000000000E+04  0.00000000000E+00 0. -1.
          4   -1    0    0  501    0 -0.00000000000E+00 -0.00000000000E+00 -0.10518795754E+03  0.10518795754E+03  0.00000000000E+00 0. -1.
    9000006    2    1    2  501    0  0.00000000000E+00  0.00000000000E+00  0.89481204246E+03  0.11051879575E+04  0.64865386005E+03 0.  0.
         13    1    3    3    0    0 -0.82395637139E+02 -0.12706674758E+03 -0.41245100697E+02  0.15695909560E+03  0.00000000000E+00 0. -1.
          2    1    3    3  501    0  0.82395637139E+02  0.12706674758E+03  0.93605714316E+03  0.94822886194E+03  0.00000000000E+00 0. -1.
<mgrwt>
<rscale>  0 0.64865386E+03</rscale>
<asrwt>0</asrwt>
<pdfrwt beam="1">0</pdfrwt>
<pdfrwt beam="2">  1        4 0.38250247E+00 0.64865386E+03</pdfrwt>
<totfact> 0.42203655E-02</totfact>
</mgrwt>
</event>
<event>
 5    1  0.2369161E-004  0.5979676E+03  0.7818608E-02  0.9909632E-01
         13   -1    0    0    0    0  0.00000000000E+00  0.00000000000E+00  0.10000000000E+04  0.10000000000E+04  0.00000000000E+00 0. -1.
          2   -1    0    0  501    0 -0.00000000000E+00 -0.00000000000E+00 -0.89391315923E+02  0.89391315923E+02  0.00000000000E+00 0. -1.
    9000006    2    1    2  501    0  0.00000000000E+00  0.00000000000E+00  0.91060868408E+03  0.10893913159E+04  0.59796761091E+03 0.  0.
         13    1    3    3    0    0  0.18580995631E+03  0.57659473251E+02  0.86890782763E+03  0.89042167968E+03  0.00000000000E+00 0. -1.
          4    1    3    3  501    0 -0.18580995631E+03 -0.57659473251E+02  0.41700856446E+02  0.19896963625E+03  0.00000000000E+00 0. -1.
<mgrwt>
<rscale>  0 0.59796761E+03</rscale>
<asrwt>0</asrwt>
<pdfrwt beam="1">0</pdfrwt>
<pdfrwt beam="2">  1        2 0.32506002E+00 0.59796761E+03</pdfrwt>
<totfact> 0.75058548E+00</totfact>
</mgrwt>
</event>
<event>
 5    1  0.2369161E-004  0.6458458E+03  0.7818608E-02  0.9814606E-01
         13   -1    0    0    0    0  0.00000000000E+00  0.00000000000E+00  0.10000000000E+04  0.10000000000E+04  0.00000000000E+00 0. -1.
          2   -1    0    0  501    0 -0.00000000000E+00 -0.00000000000E+00 -0.10427918524E+03  0.10427918524E+03  0.00000000000E+00 0. -1.
    9000006    2    1    2  501    0  0.00000000000E+00  0.00000000000E+00  0.89572081476E+03  0.11042791852E+04  0.64584575632E+03 0.  0.
         13    1    3    3    0    0 -0.28336635867E+03 -0.36716692996E+02  0.70509908129E+03  0.76079519137E+03  0.00000000000E+00 0. -1.
          4    1    3    3  501    0  0.28336635867E+03  0.36716692996E+02  0.19062173347E+03  0.34348399387E+03  0.00000000000E+00 0. -1.
<mgrwt>
<rscale>  0 0.64584576E+03</rscale>
<asrwt>0</asrwt>
<pdfrwt beam="1">0</pdfrwt>
<pdfrwt beam="2">  1        2 0.37919784E+00 0.64584576E+03</pdfrwt>
<totfact> 0.47608788E+00</totfact>
</mgrwt>
</event>
<event>
 5    1  0.2369161E-004  0.6545599E+03  0.7818608E-02  0.9798260E-01
         13   -1    0    0    0    0  0.00000000000E+00  0.00000000000E+00  0.10000000000E+04  0.10000000000E+04  0.00000000000E+00 0. -1.
          2   -1    0    0  501    0 -0.00000000000E+00 -0.00000000000E+00 -0.10711217087E+03  0.10711217087E+03  0.00000000000E+00 0. -1.
    9000006    2    1    2  501    0  0.00000000000E+00  0.00000000000E+00  0.89288782913E+03  0.11071121709E+04  0.65455991589E+03 0.  0.
         13    1    3    3    0    0 -0.17484539203E+03 -0.26762826837E+03  0.56503839768E+03  0.64920273567E+03  0.00000000000E+00 0. -1.
          4    1    3    3  501    0  0.17484539203E+03  0.26762826837E+03  0.32784943145E+03  0.45790943520E+03  0.00000000000E+00 0. -1.
<mgrwt>
<rscale>  0 0.65455992E+03</rscale>
<asrwt>0</asrwt>
<pdfrwt beam="1">0</pdfrwt>
<pdfrwt beam="2">  1        2 0.38949962E+00 0.65455992E+03</pdfrwt>
<totfact> 0.43576330E+00</totfact>
</mgrwt>
</event>
<event>
 5    1  0.2369161E-004  0.6395958E+03  0.7818608E-02  0.9826500E-01
         13   -1    0    0    0    0  0.00000000000E+00  0.00000000000E+00  0.10000000000E+04  0.10000000000E+04  0.00000000000E+00 0. -1.
          2   -1    0    0  501    0 -0.00000000000E+00 -0.00000000000E+00 -0.10227068565E+03  0.10227068565E+03  0.00000000000E+00 0. -1.
    9000006    2    1    2  501    0  0.00000000000E+00  0.00000000000E+00  0.89772931435E+03  0.11022706856E+04  0.63959576498E+03 0.  0.
         13    1    3    3    0    0 -0.67706757057E+02  0.16516718736E+03 -0.84218427944E+01  0.17870459471E+03  0.00000000000E+00 0. -1.
          2    1    3    3  501    0  0.67706757057E+02 -0.16516718736E+03  0.90615115715E+03  0.92356609094E+03  0.00000000000E+00 0. -1.
<mgrwt>
<rscale>  0 0.63959576E+03</rscale>
<asrwt>0</asrwt>
<pdfrwt beam="1">0</pdfrwt>
<pdfrwt beam="2">  1        2 0.37189419E+00 0.63959576E+03</pdfrwt>
<totfact> 0.50670384E+00</totfact>
</mgrwt>
</event>
<event>
 5    1  0.2369161E-004  0.6476322E+03  0.7818608E-02  0.9811232E-01
         13   -1    0    0    0    0  0.00000000000E+00  0.00000000000E+00  0.10000000000E+04  0.10000000000E+04  0.00000000000E+00 0. -1.
          2   -1    0    0  501    0 -0.00000000000E+00 -0.00000000000E+00 -0.10485687783E+03  0.10485687783E+03  0.00000000000E+00 0. -1.
    9000006    2    1    2  501    0  0.00000000000E+00  0.00000000000E+00  0.89514312217E+03  0.11048568778E+04  0.64763223462E+03 0.  0.
         13    1    3    3    0    0  0.62277929184E+02 -0.10168194693E+03  0.96118384804E+03  0.96855157247E+03  0.00000000000E+00 0. -1.
          4    1    3    3  501    0 -0.62277929184E+02  0.10168194693E+03 -0.66040725870E+02  0.13630530536E+03  0.00000000000E+00 0. -1.
<mgrwt>
<rscale>  0 0.64763223E+03</rscale>
<asrwt>0</asrwt>
<pdfrwt beam="1">0</pdfrwt>
<pdfrwt beam="2">  1        2 0.38129854E+00 0.64763223E+03</pdfrwt>
<totfact> 0.46760022E+00</totfact>
</mgrwt>
</event>
<event>
 5    1  0.2369161E-004  0.6495193E+03  0.7818608E-02  0.9807682E-01
         13   -1    0    0    0    0  0.00000000000E+00  0.00000000000E+00  0.10000000000E+04  0.10000000000E+04  0.00000000000E+00 0. -1.
          2   -1    0    0  501    0 -0.00000000000E+00 -0.00000000000E+00 -0.10546881676E+03  0.10546881676E+03  0.00000000000E+00 0. -1.
    9000006    2    1    2  501    0  0.00000000000E+00  0.00000000000E+00  0.89453118324E+03  0.11054688168E+04  0.64951925839E+03 0.  0.
         13    1    3    3    0    0  0.30838052547E+03 -0.10058880834E+03  0.42023892535E+03  0.53086477679E+03  0.00000000000E+00 0. -1.
          4    1    3    3  501    0 -0.30838052547E+03  0.10058880834E+03  0.47429225789E+03  0.57460403997E+03  0.00000000000E+00 0. -1.
<mgrwt>
<rscale>  0 0.64951926E+03</rscale>
<asrwt>0</asrwt>
<pdfrwt beam="1">0</pdfrwt>
<pdfrwt beam="2">  1        2 0.38352378E+00 0.64951926E+03</pdfrwt>
<totfact> 0.45875963E+00</totfact>
</mgrwt>
</event>
<event>
 5    1  0.2369161E-004  0.6452412E+03  0.7818608E-02  0.9815750E-01
         13   -1    0    0    0    0  0.00000000000E+00  0.00000000000E+00  0.10000000000E+04  0.10000000000E+04  0.00000000000E+00 0. -1.
          2   -1    0    0  501    0 -0.00000000000E+00 -0.00000000000E+00 -0.10408406282E+03  0.10408406282E+03  0.00000000000E+00 0. -1.
    9000006    2    1    2  501    0  0.00000000000E+00  0.00000000000E+00  0.89591593718E+03  0.11040840628E+04  0.64524123495E+03 0.  0.
         13    1    3    3    0    0  0.80239330786E+02 -0.30507740314E+03  0.56367677028E+03  0.64594277879E+03  0.00000000000E+00 0. -1.
          2    1    3    3  501    0 -0.80239330786E+02  0.30507740314E+03  0.33223916690E+03  0.45814128403E+03  0.00000000000E+00 0. -1.
<mgrwt>
<rscale>  0 0.64524123E+03</rscale>
<asrwt>0</asrwt>
<pdfrwt beam="1">0</pdfrwt>
<pdfrwt beam="2">  1        2 0.37848830E+00 0.64524123E+03</pdfrwt>
<totfact> 0.47898622E+00</totfact>
</mgrwt>
</event>
<event>
 5    1  0.2369161E-004  0.6694131E+03  0.7818608E-02  0.9771019E-01
         13   -1    0    0    0    0  0.00000000000E+00  0.00000000000E+00  0.10000000000E+04  0.10000000000E+04  0.00000000000E+00 0. -1.
          2   -1    0    0  501    0 -0.00000000000E+00 -0.00000000000E+00 -0.11202846584E+03  0.11202846584E+03  0.00000000000E+00 0. -1.
    9000006    2    1    2  501    0  0.00000000000E+00  0.00000000000E+00  0.88797153416E+03  0.11120284658E+04  0.66941307380E+03 0.  0.
         13    1    3    3    0    0  0.66250326215E+01 -0.47147036632E+02 -0.10637464822E+03  0.11654312465E+03  0.00000000000E+00 0. -1.
          2    1    3    3  501    0 -0.66250326215E+01  0.47147036632E+02  0.99434618237E+03  0.99548534119E+03  0.00000000000E+00 0. -1.
<mgrwt>
<rscale>  0 0.66941307E+03</rscale>
<asrwt>0</asrwt>
<pdfrwt beam="1">0</pdfrwt>
<pdfrwt beam="2">  1        2 0.40737710E+00 0.66941307E+03</pdfrwt>
<totfact> 0.37304119E+00</totfact>
</mgrwt>
</event>
<event>
 5    1  0.2369161E-004  0.8072398E+03  0.7818608E-02  0.9549596E-01
         13   -1    0    0    0    0  0.00000000000E+00  0.00000000000E+00  0.10000000000E+04  0.10000000000E+04  0.00000000000E+00 0. -1.
          2   -1    0    0  501    0 -0.00000000000E+00 -0.00000000000E+00 -0.16290903469E+03  0.16290903469E+03  0.00000000000E+00 0. -1.
    9000006    2    1    2  501    0  0.00000000000E+00  0.00000000000E+00  0.83709096531E+03  0.11629090347E+04  0.80723982728E+03 0.  0.
         13    1    3    3    0    0  0.24102341655E+03  0.12667133454E+03  0.84776455769E+03  0.89041712674E+03  0.00000000000E+00 0. -1.
          4    1    3    3  501    0 -0.24102341655E+03 -0.12667133454E+03 -0.10673592377E+02  0.27249190794E+03  0.00000000000E+00 0. -1.
<mgrwt>
<rscale>  0 0.80723983E+03</rscale>
<asrwt>0</asrwt>
<pdfrwt beam="1">0</pdfrwt>
<pdfrwt beam="2">  1        2 0.59239774E+00 0.80723983E+03</pdfrwt>
<totfact> 0.60056361E-01</totfact>
</mgrwt>
</event>
<event>
 5    1  0.2369161E-004  0.6478765E+03  0.7818608E-02  0.9810772E-01
         13   -1    0    0    0    0  0.00000000000E+00  0.00000000000E+00  0.10000000000E+04  0.10000000000E+04  0.00000000000E+00 0. -1.
          2   -1    0    0  501    0 -0.00000000000E+00 -0.00000000000E+00 -0.10493597761E+03  0.10493597761E+03  0.00000000000E+00 0. -1.
    9000006    2    1    2  501    0  0.00000000000E+00  0.00000000000E+00  0.89506402239E+03  0.11049359776E+04  0.64787646231E+03 0.  0.
         13    1    3    3    0    0  0.31238927188E+03  0.68013271584E+02  0.35853448632E+03  0.48037468727E+03  0.00000000000E+00 0. -1.
          4    1    3    3  501    0 -0.31238927188E+03 -0.68013271584E+02  0.53652953608E+03  0.62456129033E+03  0.00000000000E+00 0. -1.
<mgrwt>
<rscale>  0 0.64787646E+03</rscale>
<asrwt>0</asrwt>
<pdfrwt beam="1">0</pdfrwt>
<pdfrwt beam="2">  1        2 0.38158618E+00 0.64787646E+03</pdfrwt>
<totfact> 0.46644883E+00</totfact>
</mgrwt>
</event>
<event>
 5    1  0.2369161E-004  0.6472807E+03  0.7818608E-02  0.9811895E-01
         13   -1    0    0    0    0  0.00000000000E+00  0.00000000000E+00  0.10000000000E+04  0.10000000000E+04  0.00000000000E+00 0. -1.
          2   -1    0    0  501    0 -0.00000000000E+00 -0.00000000000E+00 -0.10474308414E+03  0.10474308414E+03  0.00000000000E+00 0. -1.
    9000006    2    1    2  501    0  0.00000000000E+00  0.00000000000E+00  0.89525691586E+03  0.11047430841E+04  0.64728072470E+03 0.  0.
         13    1    3    3    0    0  0.13674891632E+03 -0.29201251932E+03  0.49503501732E+03  0.59078866436E+03  0.00000000000E+00 0. -1.
          4    1    3    3  501    0 -0.13674891632E+03  0.29201251932E+03  0.40022189853E+03  0.51395441979E+03  0.00000000000E+00 0. -1.
<mgrwt>
<rscale>  0 0.64728072E+03</rscale>
<asrwt>0</asrwt>
<pdfrwt beam="1">0</pdfrwt>
<pdfrwt beam="2">  1        2 0.38088475E+00 0.64728072E+03</pdfrwt>
<totfact> 0.46926114E+00</totfact>
</mgrwt>
</event>
<event>
 5    1  0.2369161E-004  0.6790705E+03  0.7818608E-02  0.9753709E-01
         13   -1    0    0    0    0  0.00000000000E+00  0.00000000000E+00  0.10000000000E+04  0.10000000000E+04  0.00000000000E+00 0. -1.
          2   -1    0    0  501    0 -0.00000000000E+00 -0.00000000000E+00 -0.11528417253E+03  0.11528417253E+03  0.00000000000E+00 0. -1.
    9000006    2    1    2  501    0  0.00000000000E+00  0.00000000000E+00  0.88471582747E+03  0.11152841725E+04  0.67907046034E+03 0.  0.
         13    1    3    3    0    0  0.75173451325E+02  0.30685696098E+03  0.23806987017E+03  0.39558754451E+03  0.00000000000E+00 0. -1.
          2    1    3    3  501    0 -0.75173451325E+02 -0.30685696098E+03  0.64664595731E+03  0.71969662802E+03  0.00000000000E+00 0. -1.
<mgrwt>
<rscale>  0 0.67907046E+03</rscale>
<asrwt>0</asrwt>
<pdfrwt beam="1">0</pdfrwt>
<pdfrwt beam="2">  1        2 0.41921606E+00 0.67907046E+03</pdfrwt>
<totfact> 0.33608533E+00</totfact>
</mgrwt>
</event>
<event>
 5    1  0.2369161E-004  0.6460592E+03  0.7818608E-02  0.9814202E-01
         13   -1    0    0    0    0  0.00000000000E+00  0.00000000000E+00  0.10000000000E+04  0.10000000000E+04  0.00000000000E+00 0. -1.
          2   -1    0    0  501    0 -0.00000000000E+00 -0.00000000000E+00 -0.10434811663E+03  0.10434811663E+03  0.00000000000E+00 0. -1.
    9000006    2    1    2  501    0  0.00000000000E+00  0.00000000000E+00  0.89565188337E+03  0.11043481166E+04  0.64605918192E+03 0.  0.
         13    1    3    3    0    0 -0.32233052958E+03  0.32941215525E+01  0.41195806932E+03  0.52308438365E+03  0.00000000000E+00 0. -1.
          2    1    3    3  501    0  0.32233052958E+03 -0.32941215525E+01  0.48369381405E+03  0.58126373299E+03  0.00000000000E+00 0. -1.
<mgrwt>
<rscale>  0 0.64605918E+03</rscale>
<asrwt>0</asrwt>
<pdfrwt beam="1">0</pdfrwt>
<pdfrwt beam="2">  1        2 0.37944850E+00 0.64605918E+03</pdfrwt>
<totfact> 0.47506780E+00</totfact>
</mgrwt>
</event>
<event>
 5    1  0.2369161E-004  0.6530351E+03  0.7818608E-02  0.9801101E-01
         13   -1    0    0    0    0  0.00000000000E+00  0.00000000000E+00  0.10000000000E+04  0.10000000000E+04  0.00000000000E+00 0. -1.
          2   -1    0    0  501    0 -0.00000000000E+00 -0.00000000000E+00 -0.10661369950E+03  0.10661369950E+03  0.00000000000E+00 0. -1.
    9000006    2    1    2  501    0  0.00000000000E+00  0.00000000000E+00  0.89338630050E+03  0.11066136995E+04  0.65303506644E+03 0.  0.
         13    1    3    3    0    0  0.39290599809E+02  0.32287222561E+03  0.39806535965E+03  0.51404888469E+03  0.00000000000E+00 0. -1.
          4    1    3    3  501    0 -0.39290599809E+02 -0.32287222561E+03  0.49532094085E+03  0.59256481481E+03  0.00000000000E+00 0. -1.
<mgrwt>
<rscale>  0 0.65303507E+03</rscale>
<asrwt>0</asrwt>
<pdfrwt beam="1">0</pdfrwt>
<pdfrwt beam="2">  1        2 0.38768700E+00 0.65303507E+03</pdfrwt>
<totfact> 0.44262583E+00</totfact>
</mgrwt>
</event>
<event>
 5    1  0.2369161E-004  0.6446241E+03  0.7818608E-02  0.9816919E-01
         13   -1    0    0    0    0  0.00000000000E+00  0.00000000000E+00  0.10000000000E+04  0.10000000000E+04  0.00000000000E+00 0. -1.
          2   -1    0    0  501    0 -0.00000000000E+00 -0.00000000000E+00 -0.10388505949E+03  0.10388505949E+03  0.00000000000E+00 0. -1.
    9000006    2    1    2  501    0  0.00000000000E+00  0.00000000000E+00  0.89611494051E+03  0.11038850595E+04  0.64462410593E+03 0.  0.
         13    1    3    3    0    0  0.17303080410E+03 -0.18963304396E+03  0.78180780881E+03  0.82287532498E+03  0.00000000000E+00 0. -1.
          2    1    3    3  501    0 -0.17303080410E+03  0.18963304396E+03  0.11430713170E+03  0.28100973451E+03  0.00000000000E+00 0. -1.
<mgrwt>
<rscale>  0 0.64462411E+03</rscale>
<asrwt>0</asrwt>
<pdfrwt beam="1">0</pdfrwt>
<pdfrwt beam="2">  1        2 0.37776465E+00 0.64462411E+03</pdfrwt>
<totfact> 0.48195876E+00</totfact>
</mgrwt>
</event>
<event>
 5    1  0.2369161E-004  0.6516805E+03  0.7818608E-02  0.9803631E-01
         13   -1    0    0    0    0  0.00000000000E+00  0.00000000000E+00  0.10000000000E+04  0.10000000000E+04  0.00000000000E+00 0. -1.
          2   -1    0    0  501    0 -0.00000000000E+00 -0.00000000000E+00 -0.10617187436E+03  0.10617187436E+03  0.00000000000E+00 0. -1.
    9000006    2    1    2  501    0  0.00000000000E+00  0.00000000000E+00  0.89382812564E+03  0.11061718744E+04  0.65168051793E+03 0.  0.
         13    1    3    3    0    0  0.36207040023E+02 -0.30757412931E+03  0.61884026649E+03  0.69200872119E+03  0.00000000000E+00 0. -1.
          2    1    3    3  501    0 -0.36207040023E+02  0.30757412931E+03  0.27498785914E+03  0.41416315317E+03  0.00000000000E+00 0. -1.
<mgrwt>
<rscale>  0 0.65168052E+03</rscale>
<asrwt>0</asrwt>
<pdfrwt beam="1">0</pdfrwt>
<pdfrwt beam="2">  1        2 0.38608036E+00 0.65168052E+03</pdfrwt>
<totfact> 0.44879012E+00</totfact>
</mgrwt>
</event>
<event>
 5    1  0.2369161E-004  0.6550872E+03  0.7818608E-02  0.9797280E-01
         13   -1    0    0    0    0  0.00000000000E+00  0.00000000000E+00  0.10000000000E+04  0.10000000000E+04  0.00000000000E+00 0. -1.
          2   -1    0    0  501    0 -0.00000000000E+00 -0.00000000000E+00 -0.10728480813E+03  0.10728480813E+03  0.00000000000E+00 0. -1.
    9000006    2    1    2  501    0  0.00000000000E+00  0.00000000000E+00  0.89271519187E+03  0.11072848081E+04  0.65508719459E+03 0.  0.
         13    1    3    3    0    0  0.25567677966E+03  0.86721192191E+02  0.13288525886E+03  0.30091472688E+03  0.00000000000E+00 0. -1.
          4    1    3    3  501    0 -0.25567677966E+03 -0.86721192191E+02  0.75982993302E+03  0.80637008125E+03  0.00000000000E+00 0. -1.
<mgrwt>
<rscale>  0 0.65508719E+03</rscale>
<asrwt>0</asrwt>
<pdfrwt beam="1">0</pdfrwt>
<pdfrwt beam="2">  1        2 0.39012740E+00 0.65508719E+03</pdfrwt>
<totfact> 0.43340910E+00</totfact>
</mgrwt>
</event>
<event>
 5    1  0.2369161E-004  0.6469398E+03  0.7818608E-02  0.9812539E-01
         13   -1    0    0    0    0  0.00000000000E+00  0.00000000000E+00  0.10000000000E+04  0.10000000000E+04  0.00000000000E+00 0. -1.
          2   -1    0    0  501    0 -0.00000000000E+00 -0.00000000000E+00 -0.10463276215E+03  0.10463276215E+03  0.00000000000E+00 0. -1.
    9000006    2    1    2  501    0  0.00000000000E+00  0.00000000000E+00  0.89536723785E+03  0.11046327621E+04  0.64693975654E+03 0.  0.
         13    1    3    3    0    0  0.59792290759E+02  0.12551835827E+03 -0.51012153231E+02  0.14809529390E+03  0.00000000000E+00 0. -1.
          2    1    3    3  501    0 -0.59792290759E+02 -0.12551835827E+03  0.94637939108E+03  0.95653746825E+03  0.00000000000E+00 0. -1.
<mgrwt>
<rscale>  0 0.64693976E+03</rscale>
<asrwt>0</asrwt>
<pdfrwt beam="1">0</pdfrwt>
<pdfrwt beam="2">  1        2 0.38048357E+00 0.64693976E+03</pdfrwt>
<totfact> 0.47087652E+00</totfact>
</mgrwt>
</event>
<event>
 5    1  0.2369161E-004  0.6493247E+03  0.7818608E-02  0.9808047E-01
         13   -1    0    0    0    0  0.00000000000E+00  0.00000000000E+00  0.10000000000E+04  0.10000000000E+04  0.00000000000E+00 0. -1.
          2   -1    0    0  501    0 -0.00000000000E+00 -0.00000000000E+00 -0.10540562738E+03  0.10540562738E+03  0.00000000000E+00 0. -1.
    9000006    2    1    2  501    0  0.00000000000E+00  0.00000000000E+00  0.89459437262E+03  0.11054056274E+04  0.64932465649E+03 0.  0.
         13    1    3    3    0    0  0.77911927356E+02  0.31097743678E+03  0.36001916154E+03  0.48206952951E+03  0.00000000000E+00 0. -1.
          2    1    3    3  501    0 -0.77911927356E+02 -0.31097743678E+03  0.53457521108E+03  0.62333609787E+03  0.00000000000E+00 0. -1.
<mgrwt>
<rscale>  0 0.64932466E+03</rscale>
<asrwt>0</asrwt>
<pdfrwt beam="1">0</pdfrwt>
<pdfrwt beam="2">  1        2 0.38329400E+00 0.64932466E+03</pdfrwt>
<totfact> 0.45966544E+00</totfact>
</mgrwt>
</event>
<event>
 5    1  0.2369161E-004  0.6539151E+03  0.7818608E-02  0.9799460E-01
         13   -1    0    0    0    0  0.00000000000E+00  0.00000000000E+00  0.10000000000E+04  0.10000000000E+04  0.00000000000E+00 0. -1.
          2   -1    0    0  501    0 -0.00000000000E+00 -0.00000000000E+00 -0.10690124059E+03  0.10690124059E+03  0.00000000000E+00 0. -1.
    9000006    2    1    2  501    0  0.00000000000E+00  0.00000000000E+00  0.89309875941E+03  0.11069012406E+04  0.65391510334E+03 0.  0.
         13    1    3    3    0    0  0.18737401722E+03 -0.93658937800E+02  0.21609521135E+02  0.21058962548E+03  0.00000000000E+00 0. -1.
          2    1    3    3  501    0 -0.18737401722E+03  0.93658937800E+02  0.87148923827E+03  0.89631161511E+03  0.00000000000E+00 0. -1.
<mgrwt>
<rscale>  0 0.65391510E+03</rscale>
<asrwt>0</asrwt>
<pdfrwt beam="1">0</pdfrwt>
<pdfrwt beam="2">  1        2 0.38873260E+00 0.65391510E+03</pdfrwt>
<totfact> 0.43865538E+00</totfact>
</mgrwt>
</event>
<event>
 5    1  0.2369161E-004  0.6457129E+03  0.7818608E-02  0.9814857E-01
         13   -1    0    0    0    0  0.00000000000E+00  0.00000000000E+00  0.10000000000E+04  0.10000000000E+04  0.00000000000E+00 0. -1.
          2   -1    0    0  501    0 -0.00000000000E+00 -0.00000000000E+00 -0.10423627197E+03  0.10423627197E+03  0.00000000000E+00 0. -1.
    9000006    2    1    2  501    0  0.00000000000E+00  0.00000000000E+00  0.89576372803E+03  0.11042362720E+04  0.64571285249E+03 0.  0.
         13    1    3    3    0    0 -0.87824886630E+02  0.21079958425E+03  0.83817019628E+03  0.86872259863E+03  0.00000000000E+00 0. -1.
          4    1    3    3  501    0  0.87824886630E+02 -0.21079958425E+03  0.57593531753E+02  0.23551367334E+03  0.00000000000E+00 0. -1.
<mgrwt>
<rscale>  0 0.64571285E+03</rscale>
<asrwt>0</asrwt>
<pdfrwt beam="1">0</pdfrwt>
<pdfrwt beam="2">  1        2 0.37904179E+00 0.64571285E+03</pdfrwt>
<totfact> 0.47672394E+00</totfact>
</mgrwt>
</event>
<event>
 5    1  0.2369161E-004  0.6543278E+03  0.7818608E-02  0.9798692E-01
         13   -1    0    0    0    0  0.00000000000E+00  0.00000000000E+00  0.10000000000E+04  0.10000000000E+04  0.00000000000E+00 0. -1.
          2   -1    0    0  501    0 -0.00000000000E+00 -0.00000000000E+00 -0.10703621022E+03  0.10703621022E+03  0.00000000000E+00 0. -1.
    9000006    2    1    2  501    0  0.00000000000E+00  0.00000000000E+00  0.89296378978E+03  0.11070362102E+04  0.65432777785E+03 0.  0.
         13    1    3    3    0    0  0.20036359156E+03  0.42555506624E+02  0.87808955196E+03  0.90166390703E+03  0.00000000000E+00 0. -1.
          4    1    3    3  501    0 -0.20036359156E+03 -0.42555506624E+02  0.14874237820E+02  0.20537230319E+03  0.00000000000E+00 0. -1.
<mgrwt>
<rscale>  0 0.65432778E+03</rscale>
<asrwt>0</asrwt>
<pdfrwt beam="1">0</pdfrwt>
<pdfrwt beam="2">  1        2 0.38922340E+00 0.65432778E+03</pdfrwt>
<totfact> 0.43680281E+00</totfact>
</mgrwt>
</event>
<event>
 5    1  0.2369161E-004  0.6447254E+03  0.7818608E-02  0.9816727E-01
         13   -1    0    0    0    0  0.00000000000E+00  0.00000000000E+00  0.10000000000E+04  0.10000000000E+04  0.00000000000E+00 0. -1.
          2   -1    0    0  501    0 -0.00000000000E+00 -0.00000000000E+00 -0.10391769730E+03  0.10391769730E+03  0.00000000000E+00 0. -1.
    9000006    2    1    2  501    0  0.00000000000E+00  0.00000000000E+00  0.89608230270E+03  0.11039176973E+04  0.64472535951E+03 0.  0.
         13    1    3    3    0    0 -0.15500877513E+02  0.16393017846E+03 -0.26479106315E+02  0.16677686796E+03  0.00000000000E+00 0. -1.
          4    1    3    3  501    0  0.15500877513E+02 -0.16393017846E+03  0.92256140901E+03  0.93714082934E+03  0.00000000000E+00 0. -1.
<mgrwt>
<rscale>  0 0.64472536E+03</rscale>
<asrwt>0</asrwt>
<pdfrwt beam="1">0</pdfrwt>
<pdfrwt beam="2">  1        2 0.37788333E+00 0.64472536E+03</pdfrwt>
<totfact> 0.48147009E+00</totfact>
</mgrwt>
</event>
<event>
 5    1  0.2369161E-004  0.6514374E+03  0.7818608E-02  0.9804086E-01
         13   -1    0    0    0    0  0.00000000000E+00  0.00000000000E+00  0.10000000000E+04  0.10000000000E+04  0.00000000000E+00 0. -1.
          2   -1    0    0  501    0 -0.00000000000E+00 -0.00000000000E+00 -0.10609267728E+03  0.10609267728E+03  0.00000000000E+00 0. -1.
    9000006    2    1    2  501    0  0.00000000000E+00  0.00000000000E+00  0.89390732272E+03  0.11060926773E+04  0.65143741766E+03 0.  0.
         13    1    3    3    0    0  0.43481688374E+02  0.21943660236E+02  0.99378212069E+03  0.99497491669E+03  0.00000000000E+00 0. -1.
          2    1    3    3  501    0 -0.43481688374E+02 -0.21943660236E+02 -0.99874797969E+02  0.11111776059E+03  0.00000000000E+00 0. -1.
<mgrwt>
<rscale>  0 0.65143742E+03</rscale>
<asrwt>0</asrwt>
<pdfrwt beam="1">0</pdfrwt>
<pdfrwt beam="2">  1        2 0.38579237E+00 0.65143742E+03</pdfrwt>
<totfact> 0.44990325E+00</totfact>
</mgrwt>
</event>
<event>
 5    1  0.2369161E-004  0.6486287E+03  0.7818608E-02  0.9809356E-01
         13   -1    0    0    0    0  0.00000000000E+00  0.00000000000E+00  0.10000000000E+04  0.10000000000E+04  0.00000000000E+00 0. -1.
          2   -1    0    0  501    0 -0.00000000000E+00 -0.00000000000E+00 -0.10517980729E+03  0.10517980729E+03  0.00000000000E+00 0. -1.
    9000006    2    1    2  501    0  0.00000000000E+00  0.00000000000E+00  0.89482019271E+03  0.11051798073E+04  0.64862872983E+03 0.  0.
         13    1    3    3    0    0  0.29349910814E+03 -0.73944645853E+02  0.24892358105E+03  0.39188325600E+03  0.00000000000E+00 0. -1.
          4    1    3    3  501    0 -0.29349910814E+03  0.73944645853E+02  0.64589661166E+03  0.71329655129E+03  0.00000000000E+00 0. -1.
<mgrwt>
<rscale>  0 0.64862873E+03</rscale>
<asrwt>0</asrwt>
<pdfrwt beam="1">0</pdfrwt>
<pdfrwt beam="2">  1        2 0.38247283E+00 0.64862873E+03</pdfrwt>
<totfact> 0.46291581E+00</totfact>
</mgrwt>
</event>
<event>
 5    1  0.2369161E-004  0.6551475E+03  0.7818608E-02  0.9797168E-01
         13   -1    0    0    0    0  0.00000000000E+00  0.00000000000E+00  0.10000000000E+04  0.10000000000E+04  0.00000000000E+00 0. -1.
          2   -1    0    0  501    0 -0.00000000000E+00 -0.00000000000E+00 -0.10730454689E+03  0.10730454689E+03  0.00000000000E+00 0. -1.
    9000006    2    1    2  501    0  0.00000000000E+00  0.00000000000E+00  0.89269545311E+03  0.11073045469E+04  0.65514745482E+03 0.  0.
         13    1    3    3    0    0 -0.16720504473E+03  0.27752650986E+03  0.52786283858E+03  0.61936876496E+03  0.00000000000E+00 0. -1.
          2    1    3    3  501    0  0.16720504473E+03 -0.27752650986E+03  0.36483261453E+03  0.48793578193E+03  0.00000000000E+00 0. -1.
<mgrwt>
<rscale>  0 0.65514745E+03</rscale>
<asrwt>0</asrwt>
<pdfrwt beam="1">0</pdfrwt>
<pdfrwt beam="2">  1        2 0.39019918E+00 0.65514745E+03</pdfrwt>
<totfact> 0.43314067E+00</totfact>
</mgrwt>
</event>
<event>
 5    1  0.2369161E-004  0.6348717E+03  0.7818608E-02  0.9835588E-01
         13   -1    0    0    0    0  0.00000000000E+00  0.00000000000E+00  0.10000000000E+04  0.10000000000E+04  0.00000000000E+00 0. -1.
          2   -1    0    0  501    0 -0.00000000000E+00 -0.00000000000E+00 -0.10076550836E+03  0.10076550836E+03  0.00000000000E+00 0. -1.
    9000006    2    1    2  501    0  0.00000000000E+00  0.00000000000E+00  0.89923449164E+03  0.11007655084E+04  0.63487166691E+03 0.  0.
         13    1    3    3    0    0 -0.97283012904E+02 -0.96676179501E+02  0.94597776535E+03  0.95586829680E+03  0.00000000000E+00 0. -1.
          4    1    3    3  501    0  0.97283012904E+02  0.96676179501E+02 -0.46743273712E+02  0.14489721157E+03  0.00000000000E+00 0. -1.
<mgrwt>
<rscale>  0 0.63487167E+03</rscale>
<asrwt>0</asrwt>
<pdfrwt beam="1">0</pdfrwt>
<pdfrwt beam="2">  1        2 0.36642080E+00 0.63487167E+03</pdfrwt>
<totfact> 0.53081806E+00</totfact>
</mgrwt>
</event>
<event>
 5    1  0.2369161E-004  0.6459819E+03  0.7818608E-02  0.9814348E-01
         13   -1    0    0    0    0  0.00000000000E+00  0.00000000000E+00  0.10000000000E+04  0.10000000000E+04  0.00000000000E+00 0. -1.
          2   -1    0    0  501    0 -0.00000000000E+00 -0.00000000000E+00 -0.10432316730E+03  0.10432316730E+03  0.00000000000E+00 0. -1.
    9000006    2    1    2  501    0  0.00000000000E+00  0.00000000000E+00  0.89567683270E+03  0.11043231673E+04  0.64598194184E+03 0.  0.
         13    1    3    3    0    0 -0.17754807902E+03  0.15761720494E+03  0.73469065572E+02  0.24852405770E+03  0.00000000000E+00 0. -1.
          2    1    3    3  501    0  0.17754807902E+03 -0.15761720494E+03  0.82220776713E+03  0.85579910960E+03  0.00000000000E+00 0. -1.
<mgrwt>
<rscale>  0 0.64598194E+03</rscale>
<asrwt>0</asrwt>
<pdfrwt beam="1">0</pdfrwt>
<pdfrwt beam="2">  1        2 0.37935777E+00 0.64598194E+03</pdfrwt>
<totfact> 0.47543679E+00</totfact>
</mgrwt>
</event>
<event>
 5    1  0.2369161E-004  0.6508441E+03  0.7818608E-02  0.9805197E-01
         13   -1    0    0    0    0  0.00000000000E+00  0.00000000000E+00  0.10000000000E+04  0.10000000000E+04  0.00000000000E+00 0. -1.
          2   -1    0    0  501    0 -0.00000000000E+00 -0.00000000000E+00 -0.10589950784E+03  0.10589950784E+03  0.00000000000E+00 0. -1.
    9000006    2    1    2  501    0  0.00000000000E+00  0.00000000000E+00  0.89410049216E+03  0.11058995078E+04  0.65084409145E+03 0.  0.
         13    1    3    3    0    0 -0.23419283961E+03  0.12329895503E+03  0.12532373575E+03  0.29283947339E+03  0.00000000000E+00 0. -1.
          2    1    3    3  501    0  0.23419283961E+03 -0.12329895503E+03  0.76877675640E+03  0.81306003445E+03  0.00000000000E+00 0. -1.
<mgrwt>
<rscale>  0 0.65084409E+03</rscale>
<asrwt>0</asrwt>
<pdfrwt beam="1">0</pdfrwt>
<pdfrwt beam="2">  1        2 0.38508993E+00 0.65084409E+03</pdfrwt>
<totfact> 0.45262878E+00</totfact>
</mgrwt>
</event>
<event>
 5    1  0.2369161E-004  0.6713771E+03  0.7818608E-02  0.9767473E-01
         13   -1    0    0    0    0  0.00000000000E+00  0.00000000000E+00  0.10000000000E+04  0.10000000000E+04  0.00000000000E+00 0. -1.
          2   -1    0    0  501    0 -0.00000000000E+00 -0.00000000000E+00 -0.11268681361E+03  0.11268681361E+03  0.00000000000E+00 0. -1.
    9000006    2    1    2  501    0  0.00000000000E+00  0.00000000000E+00  0.88731318639E+03  0.11126868136E+04  0.67137713280E+03 0.  0.
         13    1    3    3    0    0 -0.16183767479E+02  0.28039285992E+03  0.13894062175E+03  0.31334735774E+03  0.00000000000E+00 0. -1.
          2    1    3    3  501    0  0.16183767479E+02 -0.28039285992E+03  0.74837256463E+03  0.79933945588E+03  0.00000000000E+00 0. -1.
<mgrwt>
<rscale>  0 0.67137713E+03</rscale>
<asrwt>0</asrwt>
<pdfrwt beam="1">0</pdfrwt>
<pdfrwt beam="2">  1        2 0.40977110E+00 0.67137713E+03</pdfrwt>
<totfact> 0.36528845E+00</totfact>
</mgrwt>
</event>
<event>
 5    1  0.2369161E-004  0.5930045E+03  0.7818608E-02  0.9920027E-01
         13   -1    0    0    0    0  0.00000000000E+00  0.00000000000E+00  0.10000000000E+04  0.10000000000E+04  0.00000000000E+00 0. -1.
          2   -1    0    0  501    0 -0.00000000000E+00 -0.00000000000E+00 -0.87913597008E+02  0.87913597008E+02  0.00000000000E+00 0. -1.
    9000006    2    1    2  501    0  0.00000000000E+00  0.00000000000E+00  0.91208640299E+03  0.10879135970E+04  0.59300454301E+03 0.  0.
         13    1    3    3    0    0 -0.22604577275E+03 -0.36422892145E+02  0.11042939102E+03  0.25420064683E+03  0.00000000000E+00 0. -1.
          4    1    3    3  501    0  0.22604577275E+03  0.36422892145E+02  0.80165701197E+03  0.83371295017E+03  0.00000000000E+00 0. -1.
<mgrwt>
<rscale>  0 0.59300454E+03</rscale>
<asrwt>0</asrwt>
<pdfrwt beam="1">0</pdfrwt>
<pdfrwt beam="2">  1        2 0.31968648E+00 0.59300454E+03</pdfrwt>
<totfact> 0.78476227E+00</totfact>
</mgrwt>
</event>
<event>
 5    1  0.2369161E-004  0.6524760E+03  0.7818608E-02  0.9802144E-01
         13   -1    0    0    0    0  0.00000000000E+00  0.00000000000E+00  0.10000000000E+04  0.10000000000E+04  0.00000000000E+00 0. -1.
          2   -1    0    0  501    0 -0.00000000000E+00 -0.00000000000E+00 -0.10643124297E+03  0.10643124297E+03  0.00000000000E+00 0. -1.
    9000006    2    1    2  501    0  0.00000000000E+00  0.00000000000E+00  0.89356875703E+03  0.11064312430E+04  0.65247603166E+03 0.  0.
         13    1    3    3    0    0  0.22775512915E+03  0.10823845962E+03  0.79777961617E+03  0.83668409748E+03  0.00000000000E+00 0. -1.
          4    1    3    3  501    0 -0.22775512915E+03 -0.10823845962E+03  0.95789140860E+02  0.26974714550E+03  0.00000000000E+00 0. -1.
<mgrwt>
<rscale>  0 0.65247603E+03</rscale>
<asrwt>0</asrwt>
<pdfrwt beam="1">0</pdfrwt>
<pdfrwt beam="2">  1        2 0.38702352E+00 0.65247603E+03</pdfrwt>
<totfact> 0.44516209E+00</totfact>
</mgrwt>
</event>
<event>
 5    1  0.2369161E-004  0.6533455E+03  0.7818608E-02  0.9800522E-01
         13   -1    0    0    0    0  0.00000000000E+00  0.00000000000E+00  0.10000000000E+04  0.10000000000E+04  0.00000000000E+00 0. -1.
          2   -1    0    0  501    0 -0.00000000000E+00 -0.00000000000E+00 -0.10671509710E+03  0.10671509710E+03  0.00000000000E+00 0. -1.
    9000006    2    1    2  501    0  0.00000000000E+00  0.00000000000E+00  0.89328490290E+03  0.11067150971E+04  0.65334553524E+03 0.  0.
         13    1    3    3    0    0  0.29707893327E+03  0.13076667704E+03  0.38419028916E+03  0.50294929635E+03  0.00000000000E+00 0. -1.
          2    1    3    3  501    0 -0.29707893327E+03 -0.13076667704E+03  0.50909461374E+03  0.60376580075E+03  0.00000000000E+00 0. -1.
<mgrwt>
<rscale>  0 0.65334554E+03</rscale>
<asrwt>0</asrwt>
<pdfrwt beam="1">0</pdfrwt>
<pdfrwt beam="2">  1        2 0.38805572E+00 0.65334554E+03</pdfrwt>
<totfact> 0.44122201E+00</totfact>
</mgrwt>
</event>
<event>
 5    1  0.2369161E-004  0.6499559E+03  0.7818608E-02  0.9806862E-01
         13   -1    0    0    0    0  0.00000000000E+00  0.00000000000E+00  0.10000000000E+04  0.10000000000E+04  0.00000000000E+00 0. -1.
          2   -1    0    0  501    0 -0.00000000000E+00 -0.00000000000E+00 -0.10561067126E+03  0.10561067126E+03  0.00000000000E+00 0. -1.
    9000006    2    1    2  501    0  0.00000000000E+00  0.00000000000E+00  0.89438932874E+03  0.11056106713E+04  0.64995591008E+03 0.  0.
         13    1    3    3    0    0 -0.20527248600E+03  0.18446092376E+03  0.73910304345E+03  0.78894609115E+03  0.00000000000E+00 0. -1.
          2    1    3    3  501    0  0.20527248600E+03 -0.18446092376E+03  0.15528628529E+03  0.31666458012E+03  0.00000000000E+00 0. -1.
<mgrwt>
<rscale>  0 0.64995591E+03</rscale>
<asrwt>0</asrwt>
<pdfrwt beam="1">0</pdfrwt>
<pdfrwt beam="2">  1        2 0.38403961E+00 0.64995591E+03</pdfrwt>
<totfact> 0.45673208E+00</totfact>
</mgrwt>
</event>
<event>
 5    1  0.2369161E-004  0.6400219E+03  0.7818608E-02  0.9825685E-01
         13   -1    0    0    0    0  0.00000000000E+00  0.00000000000E+00  0.10000000000E+04  0.10000000000E+04  0.00000000000E+00 0. -1.
          2   -1    0    0  501    0 -0.00000000000E+00 -0.00000000000E+00 -0.10240701649E+03  0.10240701649E+03  0.00000000000E+00 0. -1.
    9000006    2    1    2  501    0  0.00000000000E+00  0.00000000000E+00  0.89759298351E+03  0.11024070165E+04  0.64002192617E+03 0.  0.
         13    1    3    3    0    0  0.19599224190E+03 -0.10883443089E+03  0.84213876745E+03  0.87146749560E+03  0.00000000000E+00 0. -1.
          4    1    3    3  501    0 -0.19599224190E+03  0.10883443089E+03  0.55454216053E+02  0.23093952090E+03  0.00000000000E+00 0. -1.
<mgrwt>
<rscale>  0 0.64002193E+03</rscale>
<asrwt>0</asrwt>
<pdfrwt beam="1">0</pdfrwt>
<pdfrwt beam="2">  1        2 0.37238994E+00 0.64002193E+03</pdfrwt>
<totfact> 0.50457006E+00</totfact>
</mgrwt>
</event>
<event>
 5    1  0.2369161E-004  0.6481323E+03  0.7818608E-02  0.9810290E-01
         13   -1    0    0    0    0  0.00000000000E+00  0.00000000000E+00  0.10000000000E+04  0.10000000000E+04  0.00000000000E+00 0. -1.
          2   -1    0    0  501    0 -0.00000000000E+00 -0.00000000000E+00 -0.10501886288E+03  0.10501886288E+03  0.00000000000E+00 0. -1.
    9000006    2    1    2  501    0  0.00000000000E+00  0.00000000000E+00  0.89498113712E+03  0.11050188629E+04  0.64813227935E+03 0.  0.
         13    1    3    3    0    0  0.62045639504E+02 -0.17374704858E+03 -0.67412997503E+01  0.18461620566E+03  0.00000000000E+00 0. -1.
          4    1    3    3  501    0 -0.62045639504E+02  0.17374704858E+03  0.90172243687E+03  0.92040265722E+03  0.00000000000E+00 0. -1.
<mgrwt>
<rscale>  0 0.64813228E+03</rscale>
<asrwt>0</asrwt>
<pdfrwt beam="1">0</pdfrwt>
<pdfrwt beam="2">  1        2 0.38188758E+00 0.64813228E+03</pdfrwt>
<totfact> 0.46524511E+00</totfact>
</mgrwt>
</event>
<event>
 5    1  0.2369161E-004  0.6475433E+03  0.7818608E-02  0.9811400E-01
         13   -1    0    0    0    0  0.00000000000E+00  0.00000000000E+00  0.10000000000E+04  0.10000000000E+04  0.00000000000E+00 0. -1.
          2   -1    0    0  501    0 -0.00000000000E+00 -0.00000000000E+00 -0.10482807155E+03  0.10482807155E+03  0.00000000000E+00 0. -1.
    9000006    2    1    2  501    0  0.00000000000E+00  0.00000000000E+00  0.89517192845E+03  0.11048280716E+04  0.64754326977E+03 0.  0.
         13    1    3    3    0    0  0.61674145607E+02 -0.31783599453E+03  0.44390602256E+03  0.54943241306E+03  0.00000000000E+00 0. -1.
          2    1    3    3  501    0 -0.61674145607E+02  0.31783599453E+03  0.45126590589E+03  0.55539565849E+03  0.00000000000E+00 0. -1.
<mgrwt>
<rscale>  0 0.64754327E+03</rscale>
<asrwt>0</asrwt>
<pdfrwt beam="1">0</pdfrwt>
<pdfrwt beam="2">  1        2 0.38119379E+00 0.64754327E+03</pdfrwt>
<totfact> 0.46802016E+00</totfact>
</mgrwt>
</event>
<event>
 5    1  0.2369161E-004  0.6440656E+03  0.7818608E-02  0.9817979E-01
         13   -1    0    0    0    0  0.00000000000E+00  0.00000000000E+00  0.10000000000E+04  0.10000000000E+04  0.00000000000E+00 0. -1.
          2   -1    0    0  501    0 -0.00000000000E+00 -0.00000000000E+00 -0.10370512004E+03  0.10370512004E+03  0.00000000000E+00 0. -1.
    9000006    2    1    2  501    0  0.00000000000E+00  0.00000000000E+00  0.89629487996E+03  0.11037051200E+04  0.64406558684E+03 0.  0.
         13    1    3    3    0    0 -0.12415390350E+03 -0.72349779671E+02  0.94201399033E+03  0.95291082497E+03  0.00000000000E+00 0. -1.
          2    1    3    3  501    0  0.12415390350E+03  0.72349779671E+02 -0.45719110368E+02  0.15079429507E+03  0.00000000000E+00 0. -1.
<mgrwt>
<rscale>  0 0.64406559E+03</rscale>
<asrwt>0</asrwt>
<pdfrwt beam="1">0</pdfrwt>
<pdfrwt beam="2">  1        2 0.37711032E+00 0.64406559E+03</pdfrwt>
<totfact> 0.48466100E+00</totfact>
</mgrwt>
</event>
<event>
 5    1  0.2369161E-004  0.6459993E+03  0.7818608E-02  0.9814315E-01
         13   -1    0    0    0    0  0.00000000000E+00  0.00000000000E+00  0.10000000000E+04  0.10000000000E+04  0.00000000000E+00 0. -1.
          2   -1    0    0  501    0 -0.00000000000E+00 -0.00000000000E+00 -0.10432878304E+03  0.10432878304E+03  0.00000000000E+00 0. -1.
    9000006    2    1    2  501    0  0.00000000000E+00  0.00000000000E+00  0.89567121696E+03  0.11043287830E+04  0.64599932828E+03 0.  0.
         13    1    3    3    0    0 -0.23309231753E+03  0.26561773563E+02  0.68301214310E+02  0.24434117987E+03  0.00000000000E+00 0. -1.
          2    1    3    3  501    0  0.23309231753E+03 -0.26561773563E+02  0.82737000266E+03  0.85998760317E+03  0.00000000000E+00 0. -1.
<mgrwt>
<rscale>  0 0.64599933E+03</rscale>
<asrwt>0</asrwt>
<pdfrwt beam="1">0</pdfrwt>
<pdfrwt beam="2">  1        2 0.37937819E+00 0.64599933E+03</pdfrwt>
<totfact> 0.47535371E+00</totfact>
</mgrwt>
</event>
<event>
 5    1  0.2369161E-004  0.6662416E+03  0.7818608E-02  0.9776771E-01
         13   -1    0    0    0    0  0.00000000000E+00  0.00000000000E+00  0.10000000000E+04  0.10000000000E+04  0.00000000000E+00 0. -1.
          2   -1    0    0  501    0 -0.00000000000E+00 -0.00000000000E+00 -0.11096945614E+03  0.11096945614E+03  0.00000000000E+00 0. -1.
    9000006    2    1    2  501    0  0.00000000000E+00  0.00000000000E+00  0.88903054386E+03  0.11109694561E+04  0.66624156622E+03 0.  0.
         13    1    3    3    0    0 -0.14855014306E+03  0.18670236760E+03  0.83217108000E+03  0.86569834553E+03  0.00000000000E+00 0. -1.
          2    1    3    3  501    0  0.14855014306E+03 -0.18670236760E+03  0.56859463860E+02  0.24527111061E+03  0.00000000000E+00 0. -1.
<mgrwt>
<rscale>  0 0.66624157E+03</rscale>
<asrwt>0</asrwt>
<pdfrwt beam="1">0</pdfrwt>
<pdfrwt beam="2">  1        2 0.40352615E+00 0.66624157E+03</pdfrwt>
<totfact> 0.38582114E+00</totfact>
</mgrwt>
</event>
<event>
 5    1  0.2369161E-004  0.6512025E+03  0.7818608E-02  0.9804525E-01
         13   -1    0    0    0    0  0.00000000000E+00  0.00000000000E+00  0.10000000000E+04  0.10000000000E+04  0.00000000000E+00 0. -1.
          2   -1    0    0  501    0 -0.00000000000E+00 -0.00000000000E+00 -0.10601618110E+03  0.10601618110E+03  0.00000000000E+00 0. -1.
    9000006    2    1    2  501    0  0.00000000000E+00  0.00000000000E+00  0.89398381890E+03  0.11060161811E+04  0.65120252179E+03 0.  0.
         13    1    3    3    0    0  0.28223463574E+03  0.37783841127E+02  0.71517134446E+03  0.76977533099E+03  0.00000000000E+00 0. -1.
          4    1    3    3  501    0 -0.28223463574E+03 -0.37783841127E+02  0.17881247444E+03  0.33624085010E+03  0.00000000000E+00 0. -1.
<mgrwt>
<rscale>  0 0.65120252E+03</rscale>
<asrwt>0</asrwt>
<pdfrwt beam="1">0</pdfrwt>
<pdfrwt beam="2">  1        2 0.38551420E+00 0.65120252E+03</pdfrwt>
<totfact> 0.45098079E+00</totfact>
</mgrwt>
</event>
<event>
 5    1  0.2369161E-004  0.6674641E+03  0.7818608E-02  0.9774550E-01
         13   -1    0    0    0    0  0.00000000000E+00  0.00000000000E+00  0.10000000000E+04  0.10000000000E+04  0.00000000000E+00 0. -1.
          2   -1    0    0  501    0 -0.00000000000E+00 -0.00000000000E+00 -0.11137708046E+03  0.11137708046E+03  0.00000000000E+00 0. -1.
    9000006    2    1    2  501    0  0.00000000000E+00  0.00000000000E+00  0.88862291954E+03  0.11113770805E+04  0.66746409781E+03 0.  0.
         13    1    3    3    0    0  0.25123403770E+03  0.17450440058E+03  0.22212075194E+03  0.37803168645E+03  0.00000000000E+00 0. -1.
          2    1    3    3  501    0 -0.25123403770E+03 -0.17450440058E+03  0.66650216759E+03  0.73334539401E+03  0.00000000000E+00 0. -1.
<mgrwt>
<rscale>  0 0.66746410E+03</rscale>
<asrwt>0</asrwt>
<pdfrwt beam="1">0</pdfrwt>
<pdfrwt beam="2">  1        2 0.40500842E+00 0.66746410E+03</pdfrwt>
<totfact> 0.38085635E+00</totfact>
</mgrwt>
</event>
<event>
 5    1  0.2369161E-004  0.6476480E+03  0.7818608E-02  0.9811203E-01
         13   -1    0    0    0    0  0.00000000000E+00  0.00000000000E+00  0.10000000000E+04  0.10000000000E+04  0.00000000000E+00 0. -1.
          2   -1    0    0  501    0 -0.00000000000E+00 -0.00000000000E+00 -0.10486197939E+03  0.10486197939E+03  0.00000000000E+00 0. -1.
    9000006    2    1    2  501    0  0.00000000000E+00  0.00000000000E+00  0.89513802061E+03  0.11048619794E+04  0.64764798891E+03 0.  0.
         13    1    3    3    0    0  0.31843307573E+03 -0.48716662358E+02  0.50386680937E+03  0.59804238854E+03  0.00000000000E+00 0. -1.
          2    1    3    3  501    0 -0.31843307573E+03  0.48716662358E+02  0.39127121124E+03  0.50681959084E+03  0.00000000000E+00 0. -1.
<mgrwt>
<rscale>  0 0.64764799E+03</rscale>
<asrwt>0</asrwt>
<pdfrwt beam="1">0</pdfrwt>
<pdfrwt beam="2">  1        2 0.38131709E+00 0.64764799E+03</pdfrwt>
<totfact> 0.46752588E+00</totfact>
</mgrwt>
</event>
<event>
 5    1  0.2369161E-004  0.6490329E+03  0.7818608E-02  0.9808596E-01
         13   -1    0    0    0    0  0.00000000000E+00  0.00000000000E+00  0.10000000000E+04  0.10000000000E+04  0.00000000000E+00 0. -1.
          2   -1    0    0  501    0 -0.00000000000E+00 -0.00000000000E+00 -0.10531093397E+03  0.10531093397E+03  0.00000000000E+00 0. -1.
    9000006    2    1    2  501    0  0.00000000000E+00  0.00000000000E+00  0.89468906603E+03  0.11053109340E+04  0.64903292358E+03 0.  0.
         13    1    3    3    0    0 -0.14440644188E+03 -0.27129706312E+03  0.26990720226E+03  0.40902960131E+03  0.00000000000E+00 0. -1.
          2    1    3    3  501    0  0.14440644188E+03  0.27129706312E+03  0.62478186377E+03  0.69628133266E+03  0.00000000000E+00 0. -1.
<mgrwt>
<rscale>  0 0.64903292E+03</rscale>
<asrwt>0</asrwt>
<pdfrwt beam="1">0</pdfrwt>
<pdfrwt beam="2">  1        2 0.38294966E+00 0.64903292E+03</pdfrwt>
<totfact> 0.46102589E+00</totfact>
</mgrwt>
</event>
<event>
 5    1  0.2369161E-004  0.6565315E+03  0.7818608E-02  0.9794600E-01
         13   -1    0    0    0    0  0.00000000000E+00  0.00000000000E+00  0.10000000000E+04  0.10000000000E+04  0.00000000000E+00 0. -1.
          2   -1    0    0  501    0 -0.00000000000E+00 -0.00000000000E+00 -0.10775839329E+03  0.10775839329E+03  0.00000000000E+00 0. -1.
    9000006    2    1    2  501    0  0.00000000000E+00  0.00000000000E+00  0.89224160671E+03  0.11077583933E+04  0.65653147157E+03 0.  0.
         13    1    3    3    0    0 -0.32104923432E+03  0.16132581902E+02  0.55836703337E+03  0.64428768032E+03  0.00000000000E+00 0. -1.
          4    1    3    3  501    0  0.32104923432E+03 -0.16132581902E+02  0.33387457334E+03  0.46347071297E+03  0.00000000000E+00 0. -1.
<mgrwt>
<rscale>  0 0.65653147E+03</rscale>
<asrwt>0</asrwt>
<pdfrwt beam="1">0</pdfrwt>
<pdfrwt beam="2">  1        2 0.39184953E+00 0.65653147E+03</pdfrwt>
<totfact> 0.42700986E+00</totfact>
</mgrwt>
</event>
<event>
 5    1  0.2369161E-004  0.6479215E+03  0.7818608E-02  0.9810687E-01
         13   -1    0    0    0    0  0.00000000000E+00  0.00000000000E+00  0.10000000000E+04  0.10000000000E+04  0.00000000000E+00 0. -1.
          2   -1    0    0  501    0 -0.00000000000E+00 -0.00000000000E+00 -0.10495055592E+03  0.10495055592E+03  0.00000000000E+00 0. -1.
    9000006    2    1    2  501    0  0.00000000000E+00  0.00000000000E+00  0.89504944408E+03  0.11049505559E+04  0.64792146412E+03 0.  0.
         13    1    3    3    0    0  0.21838752801E+03  0.18714653403E+03  0.19323690683E+03  0.34649305874E+03  0.00000000000E+00 0. -1.
          2    1    3    3  501    0 -0.21838752801E+03 -0.18714653403E+03  0.70181253725E+03  0.75845749718E+03  0.00000000000E+00 0. -1.
<mgrwt>
<rscale>  0 0.64792146E+03</rscale>
<asrwt>0</asrwt>
<pdfrwt beam="1">0</pdfrwt>
<pdfrwt beam="2">  1        2 0.38163919E+00 0.64792146E+03</pdfrwt>
<totfact> 0.46623691E+00</totfact>
</mgrwt>
</event>
<event>
 5    1  0.2369161E-004  0.6442326E+03  0.7818608E-02  0.9817662E-01
         13   -1    0    0    0    0  0.00000000000E+00  0.00000000000E+00  0.10000000000E+04  0.10000000000E+04  0.00000000000E+00 0. -1.
          2   -1    0    0  501    0 -0.00000000000E+00 -0.00000000000E+00 -0.10375891584E+03  0.10375891584E+03  0.00000000000E+00 0. -1.
    9000006    2    1    2  501    0  0.00000000000E+00  0.00000000000E+00  0.89624108416E+03  0.11037589158E+04  0.64423261587E+03 0.  0.
         13    1    3    3    0    0  0.27792364567E+03 -0.76672715151E+02  0.69425490005E+03  0.75173806895E+03  0.00000000000E+00 0. -1.
          4    1    3    3  501    0 -0.27792364567E+03  0.76672715151E+02  0.20198618411E+03  0.35202084688E+03  0.00000000000E+00 0. -1.
<mgrwt>
<rscale>  0 0.64423262E+03</rscale>
<asrwt>0</asrwt>
<pdfrwt beam="1">0</pdfrwt>
<pdfrwt beam="2">  1        2 0.37730594E+00 0.64423262E+03</pdfrwt>
<totfact> 0.48385168E+00</totfact>
</mgrwt>
</event>
<event>
 5    1  0.2369161E-004  0.6453268E+03  0.7818608E-02  0.9815588E-01
         13   -1    0    0    0    0  0.00000000000E+00  0.00000000000E+00  0.10000000000E+04  0.10000000000E+04  0.00000000000E+00 0. -1.
          2   -1    0    0  501    0 -0.00000000000E+00 -0.00000000000E+00 -0.10411166824E+03  0.10411166824E+03  0.00000000000E+00 0. -1.
    9000006    2    1    2  501    0  0.00000000000E+00  0.00000000000E+00  0.89588833176E+03  0.11041116682E+04  0.64532679549E+03 0.  0.
         13    1    3    3    0    0 -0.11507468711E+03 -0.26156229164E+03  0.19156279365E+03  0.34402517340E+03  0.00000000000E+00 0. -1.
          2    1    3    3  501    0  0.11507468711E+03  0.26156229164E+03  0.70432553810E+03  0.76008649484E+03  0.00000000000E+00 0. -1.
<mgrwt>
<rscale>  0 0.64532680E+03</rscale>
<asrwt>0</asrwt>
<pdfrwt beam="1">0</pdfrwt>
<pdfrwt beam="2">  1        2 0.37858868E+00 0.64532680E+03</pdfrwt>
<totfact> 0.47857520E+00</totfact>
</mgrwt>
</event>
<event>
 5    1  0.2369161E-004  0.6401564E+03  0.7818608E-02  0.9825427E-01
         13   -1    0    0    0    0  0.00000000000E+00  0.00000000000E+00  0.10000000000E+04  0.10000000000E+04  0.00000000000E+00 0. -1.
          2   -1    0    0  501    0 -0.00000000000E+00 -0.00000000000E+00 -0.10245004471E+03  0.10245004471E+03  0.00000000000E+00 0. -1.
    9000006    2    1    2  501    0  0.00000000000E+00  0.00000000000E+00  0.89754995529E+03  0.11024500447E+04  0.64015637060E+03 0.  0.
         13    1    3    3    0    0  0.19169510408E+03 -0.71047183523E+02  0.87291312080E+03  0.89653334109E+03  0.00000000000E+00 0. -1.
          4    1    3    3  501    0 -0.19169510408E+03  0.71047183523E+02  0.24636834491E+02  0.20591670362E+03  0.00000000000E+00 0. -1.
<mgrwt>
<rscale>  0 0.64015637E+03</rscale>
<asrwt>0</asrwt>
<pdfrwt beam="1">0</pdfrwt>
<pdfrwt beam="2">  1        2 0.37254640E+00 0.64015637E+03</pdfrwt>
<totfact> 0.50389832E+00</totfact>
</mgrwt>
</event>
<event>
 5    1  0.2369161E-004  0.6435408E+03  0.7818608E-02  0.9818976E-01
         13   -1    0    0    0    0  0.00000000000E+00  0.00000000000E+00  0.10000000000E+04  0.10000000000E+04  0.00000000000E+00 0. -1.
          2   -1    0    0  501    0 -0.00000000000E+00 -0.00000000000E+00 -0.10353617578E+03  0.10353617578E+03  0.00000000000E+00 0. -1.
    9000006    2    1    2  501    0  0.00000000000E+00  0.00000000000E+00  0.89646382422E+03  0.11035361758E+04  0.64354075484E+03 0.  0.
         13    1    3    3    0    0  0.28944478833E+03 -0.29016105707E+02  0.21238800254E+03  0.36017896038E+03  0.00000000000E+00 0. -1.
          4    1    3    3  501    0 -0.28944478833E+03  0.29016105707E+02  0.68407582168E+03  0.74335721540E+03  0.00000000000E+00 0. -1.
<mgrwt>
<rscale>  0 0.64354075E+03</rscale>
<asrwt>0</asrwt>
<pdfrwt beam="1">0</pdfrwt>
<pdfrwt beam="2">  1        2 0.37649598E+00 0.64354075E+03</pdfrwt>
<totfact> 0.48721069E+00</totfact>
</mgrwt>
</event>
<event>
 5    1  0.2369161E-004  0.6546506E+03  0.7818608E-02  0.9798092E-01
         13   -1    0    0    0    0  0.00000000000E+00  0.00000000000E+00  0.10000000000E+04  0.10000000000E+04  0.00000000000E+00 0. -1.
          2   -1    0    0  501    0 -0.00000000000E+00 -0.00000000000E+00 -0.10714184772E+03  0.10714184772E+03  0.00000000000E+00 0. -1.
    9000006    2    1    2  501    0  0.00000000000E+00  0.00000000000E+00  0.89285815228E+03  0.11071418477E+04  0.65465058685E+03 0.  0.
         13    1    3    3    0    0  0.97294269095E+02  0.18841143462E+03  0.24724898749E+02  0.21348621528E+03  0.00000000000E+00 0. -1.
          2    1    3    3  501    0 -0.97294269095E+02 -0.18841143462E+03  0.86813325354E+03  0.89365563244E+03  0.00000000000E+00 0. -1.
<mgrwt>
<rscale>  0 0.65465059E+03</rscale>
<asrwt>0</asrwt>
<pdfrwt beam="1">0</pdfrwt>
<pdfrwt beam="2">  1        2 0.38960754E+00 0.65465059E+03</pdfrwt>
<totfact> 0.43535779E+00</totfact>
</mgrwt>
</event>
<event>
 5    1  0.2369161E-004  0.6549535E+03  0.7818608E-02  0.9797529E-01
         13   -1    0    0    0    0  0.00000000000E+00  0.00000000000E+00  0.10000000000E+04  0.10000000000E+04  0.00000000000E+00 0. -1.
          2   -1    0    0  501    0 -0.00000000000E+00 -0.00000000000E+00 -0.10724100962E+03  0.10724100962E+03  0.00000000000E+00 0. -1.
    9000006    2    1    2  501    0  0.00000000000E+00  0.00000000000E+00  0.89275899038E+03  0.11072410096E+04  0.65495346284E+03 0.  0.
         13    1    3    3    0    0 -0.19431214551E+03  0.50999380966E+02  0.88358854941E+03  0.90613843942E+03  0.00000000000E+00 0. -1.
          2    1    3    3  501    0  0.19431214551E+03 -0.50999380966E+02  0.91704409665E+01  0.20110257020E+03  0.00000000000E+00 0. -1.
<mgrwt>
<rscale>  0 0.65495346E+03</rscale>
<asrwt>0</asrwt>
<pdfrwt beam="1">0</pdfrwt>
<pdfrwt beam="2">  1        2 0.38996813E+00 0.65495346E+03</pdfrwt>
<totfact> 0.43400528E+00</totfact>
</mgrwt>
</event>
<event>
 5    1  0.2369161E-004  0.6418546E+03  0.7818608E-02  0.9822185E-01
         13   -1    0    0    0    0  0.00000000000E+00  0.00000000000E+00  0.10000000000E+04  0.10000000000E+04  0.00000000000E+00 0. -1.
          2   -1    0    0  501    0 -0.00000000000E+00 -0.00000000000E+00 -0.10299431800E+03  0.10299431800E+03  0.00000000000E+00 0. -1.
    9000006    2    1    2  501    0  0.00000000000E+00  0.00000000000E+00  0.89700568200E+03  0.11029943180E+04  0.64185455672E+03 0.  0.
         13    1    3    3    0    0 -0.10112823323E+03  0.16178859574E+03  0.89195541742E+03  0.91213317884E+03  0.00000000000E+00 0. -1.
          4    1    3    3  501    0  0.10112823323E+03 -0.16178859574E+03  0.50502645788E+01  0.19086113916E+03  0.00000000000E+00 0. -1.
<mgrwt>
<rscale>  0 0.64185456E+03</rscale>
<asrwt>0</asrwt>
<pdfrwt beam="1">0</pdfrwt>
<pdfrwt beam="2">  1        2 0.37452558E+00 0.64185456E+03</pdfrwt>
<totfact> 0.49547158E+00</totfact>
</mgrwt>
</event>
<event>
 5    1  0.2369161E-004  0.6194867E+03  0.7818608E-02  0.9865782E-01
         13   -1    0    0    0    0  0.00000000000E+00  0.00000000000E+00  0.10000000000E+04  0.10000000000E+04  0.00000000000E+00 0. -1.
          2   -1    0    0  501    0 -0.00000000000E+00 -0.00000000000E+00 -0.95940940823E+02  0.95940940823E+02  0.00000000000E+00 0. -1.
    9000006    2    1    2  501    0  0.00000000000E+00  0.00000000000E+00  0.90405905918E+03  0.10959409408E+04  0.61948669339E+03 0.  0.
         13    1    3    3    0    0  0.13031247111E+03  0.19423057242E+03  0.92790634354E+02  0.25162860969E+03  0.00000000000E+00 0. -1.
          4    1    3    3  501    0 -0.13031247111E+03 -0.19423057242E+03  0.81126842482E+03  0.84431233113E+03  0.00000000000E+00 0. -1.
<mgrwt>
<rscale>  0 0.61948669E+03</rscale>
<asrwt>0</asrwt>
<pdfrwt beam="1">0</pdfrwt>
<pdfrwt beam="2">  1        2 0.34887688E+00 0.61948669E+03</pdfrwt>
<totfact> 0.61543151E+00</totfact>
</mgrwt>
</event>
<event>
 5    1  0.2369161E-004  0.6484020E+03  0.7818608E-02  0.9809782E-01
         13   -1    0    0    0    0  0.00000000000E+00  0.00000000000E+00  0.10000000000E+04  0.10000000000E+04  0.00000000000E+00 0. -1.
          2   -1    0    0  501    0 -0.00000000000E+00 -0.00000000000E+00 -0.10510629388E+03  0.10510629388E+03  0.00000000000E+00 0. -1.
    9000006    2    1    2  501    0  0.00000000000E+00  0.00000000000E+00  0.89489370612E+03  0.11051062939E+04  0.64840201689E+03 0.  0.
         13    1    3    3    0    0  0.21238898894E+03 -0.17467172835E+03  0.15477902835E+03  0.31555640213E+03  0.00000000000E+00 0. -1.
          4    1    3    3  501    0 -0.21238898894E+03  0.17467172835E+03  0.74011467777E+03  0.78954989175E+03  0.00000000000E+00 0. -1.
<mgrwt>
<rscale>  0 0.64840202E+03</rscale>
<asrwt>0</asrwt>
<pdfrwt beam="1">0</pdfrwt>
<pdfrwt beam="2">  1        2 0.38220551E+00 0.64840202E+03</pdfrwt>
<totfact> 0.46397843E+00</totfact>
</mgrwt>
</event>
<event>
 5    1  0.2369161E-004  0.6454661E+03  0.7818608E-02  0.9815324E-01
         13   -1    0    0    0    0  0.00000000000E+00  0.00000000000E+00  0.10000000000E+04  0.10000000000E+04  0.00000000000E+00 0. -1.
          2   -1    0    0  501    0 -0.00000000000E+00 -0.00000000000E+00 -0.10415663278E+03  0.10415663278E+03  0.00000000000E+00 0. -1.
    9000006    2    1    2  501    0  0.00000000000E+00  0.00000000000E+00  0.89584336722E+03  0.11041566328E+04  0.64546613475E+03 0.  0.
         13    1    3    3    0    0  0.10190676959E+03 -0.19463331990E+03  0.43511213976E+02  0.22396505229E+03  0.00000000000E+00 0. -1.
          4    1    3    3  501    0 -0.10190676959E+03  0.19463331990E+03  0.85233215325E+03  0.88019158049E+03  0.00000000000E+00 0. -1.
<mgrwt>
<rscale>  0 0.64546613E+03</rscale>
<asrwt>0</asrwt>
<pdfrwt beam="1">0</pdfrwt>
<pdfrwt beam="2">  1        2 0.37875219E+00 0.64546613E+03</pdfrwt>
<totfact> 0.47790640E+00</totfact>
</mgrwt>
</event>
<event>
 5    1  0.2369161E-004  0.6401784E+03  0.7818608E-02  0.9825385E-01
         13   -1    0    0    0    0  0.00000000000E+00  0.00000000000E+00  0.10000000000E+04  0.10000000000E+04  0.00000000000E+00 0. -1.
          2   -1    0    0  501    0 -0.00000000000E+00 -0.00000000000E+00 -0.10245711126E+03  0.10245711126E+03  0.00000000000E+00 0. -1.
    9000006    2    1    2  501    0  0.00000000000E+00  0.00000000000E+00  0.89754288874E+03  0.11024571113E+04  0.64017844781E+03 0.  0.
         13    1    3    3    0    0  0.11565078044E+03  0.12641038381E+03 -0.16843102657E+02  0.17215800376E+03  0.00000000000E+00 0. -1.
          2    1    3    3  501    0 -0.11565078044E+03 -0.12641038381E+03  0.91438599140E+03  0.93029910750E+03  0.00000000000E+00 0. -1.
<mgrwt>
<rscale>  0 0.64017845E+03</rscale>
<asrwt>0</asrwt>
<pdfrwt beam="1">0</pdfrwt>
<pdfrwt beam="2">  1        2 0.37257210E+00 0.64017845E+03</pdfrwt>
<totfact> 0.50378807E+00</totfact>
</mgrwt>
</event>
<event>
 5    1  0.2369161E-004  0.6506830E+03  0.7818608E-02  0.9805498E-01
         13   -1    0    0    0    0  0.00000000000E+00  0.00000000000E+00  0.10000000000E+04  0.10000000000E+04  0.00000000000E+00 0. -1.
          2   -1    0    0  501    0 -0.00000000000E+00 -0.00000000000E+00 -0.10584710457E+03  0.10584710457E+03  0.00000000000E+00 0. -1.
    9000006    2    1    2  501    0  0.00000000000E+00  0.00000000000E+00  0.89415289543E+03  0.11058471046E+04  0.65068303979E+03 0.  0.
         13    1    3    3    0    0 -0.21098187951E+02 -0.31302111753E+03  0.59346943198E+03  0.67129227632E+03  0.00000000000E+00 0. -1.
          2    1    3    3  501    0  0.21098187951E+02  0.31302111753E+03  0.30068346345E+03  0.43455482825E+03  0.00000000000E+00 0. -1.
<mgrwt>
<rscale>  0 0.65068304E+03</rscale>
<asrwt>0</asrwt>
<pdfrwt beam="1">0</pdfrwt>
<pdfrwt beam="2">  1        2 0.38489937E+00 0.65068304E+03</pdfrwt>
<totfact> 0.45337075E+00</totfact>
</mgrwt>
</event>
<event>
 5    1  0.2369161E-004  0.6447425E+03  0.7818608E-02  0.9816695E-01
         13   -1    0    0    0    0  0.00000000000E+00  0.00000000000E+00  0.10000000000E+04  0.10000000000E+04  0.00000000000E+00 0. -1.
          2   -1    0    0  501    0 -0.00000000000E+00 -0.00000000000E+00 -0.10392322789E+03  0.10392322789E+03  0.00000000000E+00 0. -1.
    9000006    2    1    2  501    0  0.00000000000E+00  0.00000000000E+00  0.89607677211E+03  0.11039232279E+04  0.64474251570E+03 0.  0.
         13    1    3    3    0    0 -0.31056091334E+03  0.11886454081E+02  0.30140973270E+03  0.43294017560E+03  0.00000000000E+00 0. -1.
          4    1    3    3  501    0  0.31056091334E+03 -0.11886454081E+02  0.59466703942E+03  0.67098305228E+03  0.00000000000E+00 0. -1.
<mgrwt>
<rscale>  0 0.64474252E+03</rscale>
<asrwt>0</asrwt>
<pdfrwt beam="1">0</pdfrwt>
<pdfrwt beam="2">  1        2 0.37790344E+00 0.64474252E+03</pdfrwt>
<totfact> 0.48138733E+00</totfact>
</mgrwt>
</event>
<event>
 5    1  0.2369161E-004  0.6571554E+03  0.7818608E-02  0.9793444E-01
         13   -1    0    0    0    0  0.00000000000E+00  0.00000000000E+00  0.10000000000E+04  0.10000000000E+04  0.00000000000E+00 0. -1.
          4   -1    0    0  501    0 -0.00000000000E+00 -0.00000000000E+00 -0.10796331628E+03  0.10796331628E+03  0.00000000000E+00 0. -1.
    9000006    2    1    2  501    0  0.00000000000E+00  0.00000000000E+00  0.89203668372E+03  0.11079633163E+04  0.65715543452E+03 0.  0.
         13    1    3    3    0    0 -0.10162574811E+03 -0.21661735297E+03  0.66341107983E+02  0.24829823377E+03  0.00000000000E+00 0. -1.
          2    1    3    3  501    0  0.10162574811E+03  0.21661735297E+03  0.82569557574E+03  0.85966508251E+03  0.00000000000E+00 0. -1.
<mgrwt>
<rscale>  0 0.65715543E+03</rscale>
<asrwt>0</asrwt>
<pdfrwt beam="1">0</pdfrwt>
<pdfrwt beam="2">  1        4 0.39259471E+00 0.65715543E+03</pdfrwt>
<totfact> 0.36038133E-02</totfact>
</mgrwt>
</event>
<event>
 5    1  0.2369161E-004  0.6539967E+03  0.7818608E-02  0.9799308E-01
         13   -1    0    0    0    0  0.00000000000E+00  0.00000000000E+00  0.10000000000E+04  0.10000000000E+04  0.00000000000E+00 0. -1.
          2   -1    0    0  501    0 -0.00000000000E+00 -0.00000000000E+00 -0.10692791672E+03  0.10692791672E+03  0.00000000000E+00 0. -1.
    9000006    2    1    2  501    0  0.00000000000E+00  0.00000000000E+00  0.89307208328E+03  0.11069279167E+04  0.65399668720E+03 0.  0.
         13    1    3    3    0    0  0.23213007403E+03  0.22122038801E+03  0.55497988197E+03  0.64095670738E+03  0.00000000000E+00 0. -1.
          4    1    3    3  501    0 -0.23213007403E+03 -0.22122038801E+03  0.33809220131E+03  0.46597120934E+03  0.00000000000E+00 0. -1.
<mgrwt>
<rscale>  0 0.65399669E+03</rscale>
<asrwt>0</asrwt>
<pdfrwt beam="1">0</pdfrwt>
<pdfrwt beam="2">  1        2 0.38882961E+00 0.65399669E+03</pdfrwt>
<totfact> 0.43828866E+00</totfact>
</mgrwt>
</event>
<event>
 5    1  0.2369161E-004  0.6581323E+03  0.7818608E-02  0.9791638E-01
         13   -1    0    0    0    0  0.00000000000E+00  0.00000000000E+00  0.10000000000E+04  0.10000000000E+04  0.00000000000E+00 0. -1.
          2   -1    0    0  501    0 -0.00000000000E+00 -0.00000000000E+00 -0.10828453123E+03  0.10828453123E+03  0.00000000000E+00 0. -1.
    9000006    2    1    2  501    0  0.00000000000E+00  0.00000000000E+00  0.89171546877E+03  0.11082845312E+04  0.65813230047E+03 0.  0.
         13    1    3    3    0    0  0.25911020192E+03 -0.12860985439E+03  0.71001225327E+03  0.76667854488E+03  0.00000000000E+00 0. -1.
          2    1    3    3  501    0 -0.25911020192E+03  0.12860985439E+03  0.18170321550E+03  0.34160598635E+03  0.00000000000E+00 0. -1.
<mgrwt>
<rscale>  0 0.65813230E+03</rscale>
<asrwt>0</asrwt>
<pdfrwt beam="1">0</pdfrwt>
<pdfrwt beam="2">  1        2 0.39376276E+00 0.65813230E+03</pdfrwt>
<totfact> 0.42000062E+00</totfact>
</mgrwt>
</event>
<event>
 5    1  0.2369161E-004  0.5581088E+03  0.7818608E-02  0.9996343E-01
         13   -1    0    0    0    0  0.00000000000E+00  0.00000000000E+00  0.10000000000E+04  0.10000000000E+04  0.00000000000E+00 0. -1.
          2   -1    0    0  501    0 -0.00000000000E+00 -0.00000000000E+00 -0.77871357072E+02  0.77871357072E+02  0.00000000000E+00 0. -1.
    9000006    2    1    2  501    0  0.00000000000E+00  0.00000000000E+00  0.92212864293E+03  0.10778713571E+04  0.55810879610E+03 0.  0.
         13    1    3    3    0    0 -0.17347017287E+03 -0.20742027549E+03  0.32787113090E+03  0.42498770575E+03  0.00000000000E+00 0. -1.
          4    1    3    3  501    0  0.17347017287E+03  0.20742027549E+03  0.59425751203E+03  0.65288365132E+03  0.00000000000E+00 0. -1.
<mgrwt>
<rscale>  0 0.55810880E+03</rscale>
<asrwt>0</asrwt>
<pdfrwt beam="1">0</pdfrwt>
<pdfrwt beam="2">  1        2 0.28316917E+00 0.55810880E+03</pdfrwt>
<totfact> 0.10604518E+01</totfact>
</mgrwt>
</event>
<event>
 5    1  0.2369161E-004  0.6521024E+03  0.7818608E-02  0.9802842E-01
         13   -1    0    0    0    0  0.00000000000E+00  0.00000000000E+00  0.10000000000E+04  0.10000000000E+04  0.00000000000E+00 0. -1.
          2   -1    0    0  501    0 -0.00000000000E+00 -0.00000000000E+00 -0.10630937304E+03  0.10630937304E+03  0.00000000000E+00 0. -1.
    9000006    2    1    2  501    0  0.00000000000E+00  0.00000000000E+00  0.89369062696E+03  0.11063093730E+04  0.65210236325E+03 0.  0.
         13    1    3    3    0    0 -0.32440742885E+03 -0.29631260334E+02  0.42338770068E+03  0.53420533184E+03  0.00000000000E+00 0. -1.
          4    1    3    3  501    0  0.32440742885E+03  0.29631260334E+02  0.47030292628E+03  0.57210404120E+03  0.00000000000E+00 0. -1.
<mgrwt>
<rscale>  0 0.65210236E+03</rscale>
<asrwt>0</asrwt>
<pdfrwt beam="1">0</pdfrwt>
<pdfrwt beam="2">  1        2 0.38658035E+00 0.65210236E+03</pdfrwt>
<totfact> 0.44686347E+00</totfact>
</mgrwt>
</event>
<event>
 5    1  0.2369161E-004  0.6443539E+03  0.7818608E-02  0.9817432E-01
         13   -1    0    0    0    0  0.00000000000E+00  0.00000000000E+00  0.10000000000E+04  0.10000000000E+04  0.00000000000E+00 0. -1.
          2   -1    0    0  501    0 -0.00000000000E+00 -0.00000000000E+00 -0.10379797476E+03  0.10379797476E+03  0.00000000000E+00 0. -1.
    9000006    2    1    2  501    0  0.00000000000E+00  0.00000000000E+00  0.89620202524E+03  0.11037979748E+04  0.64435386165E+03 0.  0.
         13    1    3    3    0    0 -0.27955546760E+03  0.10052729162E+03  0.23454866844E+03  0.37851033499E+03  0.00000000000E+00 0. -1.
          4    1    3    3  501    0  0.27955546760E+03 -0.10052729162E+03  0.66165335681E+03  0.72528763977E+03  0.00000000000E+00 0. -1.
<mgrwt>
<rscale>  0 0.64435386E+03</rscale>
<asrwt>0</asrwt>
<pdfrwt beam="1">0</pdfrwt>
<pdfrwt beam="2">  1        2 0.37744798E+00 0.64435386E+03</pdfrwt>
<totfact> 0.48326483E+00</totfact>
</mgrwt>
</event>
<event>
 5    1  0.2369161E-004  0.6369930E+03  0.7818608E-02  0.9831497E-01
         13   -1    0    0    0    0  0.00000000000E+00  0.00000000000E+00  0.10000000000E+04  0.10000000000E+04  0.00000000000E+00 0. -1.
          2   -1    0    0  501    0 -0.00000000000E+00 -0.00000000000E+00 -0.10144003400E+03  0.10144003400E+03  0.00000000000E+00 0. -1.
    9000006    2    1    2  501    0  0.00000000000E+00  0.00000000000E+00  0.89855996600E+03  0.11014400340E+04  0.63699304234E+03 0.  0.
         13    1    3    3    0    0 -0.19747011513E+03  0.24312681785E+03  0.34942492791E+03  0.46925779288E+03  0.00000000000E+00 0. -1.
          2    1    3    3  501    0  0.19747011513E+03 -0.24312681785E+03  0.54913503809E+03  0.63218224112E+03  0.00000000000E+00 0. -1.
<mgrwt>
<rscale>  0 0.63699304E+03</rscale>
<asrwt>0</asrwt>
<pdfrwt beam="1">0</pdfrwt>
<pdfrwt beam="2">  1        2 0.36887363E+00 0.63699304E+03</pdfrwt>
<totfact> 0.51988435E+00</totfact>
</mgrwt>
</event>
<event>
 5    1  0.2369161E-004  0.6054083E+03  0.7818608E-02  0.9894249E-01
         13   -1    0    0    0    0  0.00000000000E+00  0.00000000000E+00  0.10000000000E+04  0.10000000000E+04  0.00000000000E+00 0. -1.
          2   -1    0    0  501    0 -0.00000000000E+00 -0.00000000000E+00 -0.91629815289E+02  0.91629815289E+02  0.00000000000E+00 0. -1.
    9000006    2    1    2  501    0  0.00000000000E+00  0.00000000000E+00  0.90837018471E+03  0.10916298153E+04  0.60540834249E+03 0.  0.
         13    1    3    3    0    0  0.25522016593E+03 -0.14876405524E+03  0.57327001477E+03  0.64490820050E+03  0.00000000000E+00 0. -1.
          4    1    3    3  501    0 -0.25522016593E+03  0.14876405524E+03  0.33510016994E+03  0.44672161479E+03  0.00000000000E+00 0. -1.
<mgrwt>
<rscale>  0 0.60540834E+03</rscale>
<asrwt>0</asrwt>
<pdfrwt beam="1">0</pdfrwt>
<pdfrwt beam="2">  1        2 0.33320003E+00 0.60540834E+03</pdfrwt>
<totfact> 0.70151989E+00</totfact>
</mgrwt>
</event>
<event>
 5    1  0.2369161E-004  0.6442835E+03  0.7818608E-02  0.9817565E-01
         13   -1    0    0    0    0  0.00000000000E+00  0.00000000000E+00  0.10000000000E+04  0.10000000000E+04  0.00000000000E+00 0. -1.
          2   -1    0    0  501    0 -0.00000000000E+00 -0.00000000000E+00 -0.10377530848E+03  0.10377530848E+03  0.00000000000E+00 0. -1.
    9000006    2    1    2  501    0  0.00000000000E+00  0.00000000000E+00  0.89622469152E+03  0.11037753085E+04  0.64428350431E+03 0.  0.
         13    1    3    3    0    0 -0.22235172030E+03  0.21413029486E+03  0.60590416476E+03  0.68000877021E+03  0.00000000000E+00 0. -1.
          4    1    3    3  501    0  0.22235172030E+03 -0.21413029486E+03  0.29032052676E+03  0.42376653827E+03  0.00000000000E+00 0. -1.
<mgrwt>
<rscale>  0 0.64428350E+03</rscale>
<asrwt>0</asrwt>
<pdfrwt beam="1">0</pdfrwt>
<pdfrwt beam="2">  1        2 0.37736555E+00 0.64428350E+03</pdfrwt>
<totfact> 0.48360530E+00</totfact>
</mgrwt>
</event>
<event>
 5    1  0.2369161E-004  0.6619155E+03  0.7818608E-02  0.9784674E-01
         13   -1    0    0    0    0  0.00000000000E+00  0.00000000000E+00  0.10000000000E+04  0.10000000000E+04  0.00000000000E+00 0. -1.
          2   -1    0    0  501    0 -0.00000000000E+00 -0.00000000000E+00 -0.10953301899E+03  0.10953301899E+03  0.00000000000E+00 0. -1.
    9000006    2    1    2  501    0  0.00000000000E+00  0.00000000000E+00  0.89046698101E+03  0.11095330190E+04  0.66191545982E+03 0.  0.
         13    1    3    3    0    0 -0.22300620472E+03 -0.19658289193E+03  0.68904756849E+03  0.75044197136E+03  0.00000000000E+00 0. -1.
          4    1    3    3  501    0  0.22300620472E+03  0.19658289193E+03  0.20141941253E+03  0.35909104763E+03  0.00000000000E+00 0. -1.
<mgrwt>
<rscale>  0 0.66191546E+03</rscale>
<asrwt>0</asrwt>
<pdfrwt beam="1">0</pdfrwt>
<pdfrwt beam="2">  1        2 0.39830273E+00 0.66191546E+03</pdfrwt>
<totfact> 0.40378260E+00</totfact>
</mgrwt>
</event>
<event>
 5    1  0.2369161E-004  0.6491107E+03  0.7818608E-02  0.9808449E-01
         13   -1    0    0    0    0  0.00000000000E+00  0.00000000000E+00  0.10000000000E+04  0.10000000000E+04  0.00000000000E+00 0. -1.
          2   -1    0    0  501    0 -0.00000000000E+00 -0.00000000000E+00 -0.10533617423E+03  0.10533617423E+03  0.00000000000E+00 0. -1.
    9000006    2    1    2  501    0  0.00000000000E+00  0.00000000000E+00  0.89466382577E+03  0.11053361742E+04  0.64911069697E+03 0.  0.
         13    1    3    3    0    0  0.17211674037E+03 -0.13656753304E+03  0.85409964056E+03  0.88190762521E+03  0.00000000000E+00 0. -1.
          4    1    3    3  501    0 -0.17211674037E+03  0.13656753304E+03  0.40564185212E+02  0.22342854902E+03  0.00000000000E+00 0. -1.
<mgrwt>
<rscale>  0 0.64911070E+03</rscale>
<asrwt>0</asrwt>
<pdfrwt beam="1">0</pdfrwt>
<pdfrwt beam="2">  1        2 0.38304144E+00 0.64911070E+03</pdfrwt>
<totfact> 0.46066291E+00</totfact>
</mgrwt>
</event>
<event>
 5    1  0.2369161E-004  0.6605403E+03  0.7818608E-02  0.9787200E-01
         13   -1    0    0    0    0  0.00000000000E+00  0.00000000000E+00  0.10000000000E+04  0.10000000000E+04  0.00000000000E+00 0. -1.
          2   -1    0    0  501    0 -0.00000000000E+00 -0.00000000000E+00 -0.10907836515E+03  0.10907836515E+03  0.00000000000E+00 0. -1.
    9000006    2    1    2  501    0  0.00000000000E+00  0.00000000000E+00  0.89092163485E+03  0.11090783651E+04  0.66054027931E+03 0.  0.
         13    1    3    3    0    0 -0.14917464007E+03  0.18469222409E+03  0.59959186378E+02  0.24486607546E+03  0.00000000000E+00 0. -1.
          4    1    3    3  501    0  0.14917464007E+03 -0.18469222409E+03  0.83096244848E+03  0.86421228969E+03  0.00000000000E+00 0. -1.
<mgrwt>
<rscale>  0 0.66054028E+03</rscale>
<asrwt>0</asrwt>
<pdfrwt beam="1">0</pdfrwt>
<pdfrwt beam="2">  1        2 0.39664944E+00 0.66054028E+03</pdfrwt>
<totfact> 0.40962214E+00</totfact>
</mgrwt>
</event>
<event>
 5    1  0.2369161E-004  0.6501131E+03  0.7818608E-02  0.9806567E-01
         13   -1    0    0    0    0  0.00000000000E+00  0.00000000000E+00  0.10000000000E+04  0.10000000000E+04  0.00000000000E+00 0. -1.
          2   -1    0    0  501    0 -0.00000000000E+00 -0.00000000000E+00 -0.10566175500E+03  0.10566175500E+03  0.00000000000E+00 0. -1.
    9000006    2    1    2  501    0  0.00000000000E+00  0.00000000000E+00  0.89433824500E+03  0.11056617550E+04  0.65011308246E+03 0.  0.
         13    1    3    3    0    0  0.24201126722E+03  0.19315772885E+03  0.27895752235E+03  0.41676931384E+03  0.00000000000E+00 0. -1.
          2    1    3    3  501    0 -0.24201126722E+03 -0.19315772885E+03  0.61538072265E+03  0.68889244116E+03  0.00000000000E+00 0. -1.
<mgrwt>
<rscale>  0 0.65011308E+03</rscale>
<asrwt>0</asrwt>
<pdfrwt beam="1">0</pdfrwt>
<pdfrwt beam="2">  1        2 0.38422537E+00 0.65011308E+03</pdfrwt>
<totfact> 0.45600392E+00</totfact>
</mgrwt>
</event>
<event>
 5    1  0.2369161E-004  0.6407642E+03  0.7818608E-02  0.9824265E-01
         13   -1    0    0    0    0  0.00000000000E+00  0.00000000000E+00  0.10000000000E+04  0.10000000000E+04  0.00000000000E+00 0. -1.
          2   -1    0    0  501    0 -0.00000000000E+00 -0.00000000000E+00 -0.10264469828E+03  0.10264469828E+03  0.00000000000E+00 0. -1.
    9000006    2    1    2  501    0  0.00000000000E+00  0.00000000000E+00  0.89735530172E+03  0.11026446983E+04  0.64076422584E+03 0.  0.
         13    1    3    3    0    0  0.25101792449E+03  0.12097635988E+03  0.72076121318E+03  0.77274963894E+03  0.00000000000E+00 0. -1.
          4    1    3    3  501    0 -0.25101792449E+03 -0.12097635988E+03  0.17659408854E+03  0.32989505934E+03  0.00000000000E+00 0. -1.
<mgrwt>
<rscale>  0 0.64076423E+03</rscale>
<asrwt>0</asrwt>
<pdfrwt beam="1">0</pdfrwt>
<pdfrwt beam="2">  1        2 0.37325424E+00 0.64076423E+03</pdfrwt>
<totfact> 0.50086965E+00</totfact>
</mgrwt>
</event>
<event>
 5    1  0.2369161E-004  0.6845098E+03  0.7818608E-02  0.9744095E-01
         13   -1    0    0    0    0  0.00000000000E+00  0.00000000000E+00  0.10000000000E+04  0.10000000000E+04  0.00000000000E+00 0. -1.
          2   -1    0    0  501    0 -0.00000000000E+00 -0.00000000000E+00 -0.11713842620E+03  0.11713842620E+03  0.00000000000E+00 0. -1.
    9000006    2    1    2  501    0  0.00000000000E+00  0.00000000000E+00  0.88286157380E+03  0.11171384262E+04  0.68450982813E+03 0.  0.
         13    1    3    3    0    0  0.80023557289E+02  0.33008244869E+03  0.37257098118E+03  0.50415010530E+03  0.00000000000E+00 0. -1.
          4    1    3    3  501    0 -0.80023557289E+02 -0.33008244869E+03  0.51029059262E+03  0.61298832091E+03  0.00000000000E+00 0. -1.
<mgrwt>
<rscale>  0 0.68450983E+03</rscale>
<asrwt>0</asrwt>
<pdfrwt beam="1">0</pdfrwt>
<pdfrwt beam="2">  1        2 0.42595881E+00 0.68450983E+03</pdfrwt>
<totfact> 0.31652544E+00</totfact>
</mgrwt>
</event>
<event>
 5    1  0.2369161E-004  0.6571933E+03  0.7818608E-02  0.9793374E-01
         13   -1    0    0    0    0  0.00000000000E+00  0.00000000000E+00  0.10000000000E+04  0.10000000000E+04  0.00000000000E+00 0. -1.
          2   -1    0    0  501    0 -0.00000000000E+00 -0.00000000000E+00 -0.10797574377E+03  0.10797574377E+03  0.00000000000E+00 0. -1.
    9000006    2    1    2  501    0  0.00000000000E+00  0.00000000000E+00  0.89202425623E+03  0.11079757438E+04  0.65719325551E+03 0.  0.
         13    1    3    3    0    0  0.16773865599E+03  0.27719173997E+03  0.35360542397E+03  0.47959181945E+03  0.00000000000E+00 0. -1.
          4    1    3    3  501    0 -0.16773865599E+03 -0.27719173997E+03  0.53841883226E+03  0.62838392433E+03  0.00000000000E+00 0. -1.
<mgrwt>
<rscale>  0 0.65719326E+03</rscale>
<asrwt>0</asrwt>
<pdfrwt beam="1">0</pdfrwt>
<pdfrwt beam="2">  1        2 0.39263990E+00 0.65719326E+03</pdfrwt>
<totfact> 0.42410161E+00</totfact>
</mgrwt>
</event>
<event>
 5    1  0.2369161E-004  0.6674482E+03  0.7818608E-02  0.9774579E-01
         13   -1    0    0    0    0  0.00000000000E+00  0.00000000000E+00  0.10000000000E+04  0.10000000000E+04  0.00000000000E+00 0. -1.
          2   -1    0    0  501    0 -0.00000000000E+00 -0.00000000000E+00 -0.11137177088E+03  0.11137177088E+03  0.00000000000E+00 0. -1.
    9000006    2    1    2  501    0  0.00000000000E+00  0.00000000000E+00  0.88862822912E+03  0.11113717709E+04  0.66744818788E+03 0.  0.
         13    1    3    3    0    0 -0.45540991962E+02  0.14846887938E+03 -0.47540124799E+02  0.16241013995E+03  0.00000000000E+00 0. -1.
          2    1    3    3  501    0  0.45540991962E+02 -0.14846887938E+03  0.93616835392E+03  0.94896163093E+03  0.00000000000E+00 0. -1.
<mgrwt>
<rscale>  0 0.66744819E+03</rscale>
<asrwt>0</asrwt>
<pdfrwt beam="1">0</pdfrwt>
<pdfrwt beam="2">  1        2 0.40498911E+00 0.66744819E+03</pdfrwt>
<totfact> 0.38092065E+00</totfact>
</mgrwt>
</event>
<event>
 5    1  0.2369161E-004  0.6279308E+03  0.7818608E-02  0.9849095E-01
         13   -1    0    0    0    0  0.00000000000E+00  0.00000000000E+00  0.10000000000E+04  0.10000000000E+04  0.00000000000E+00 0. -1.
          2   -1    0    0  501    0 -0.00000000000E+00 -0.00000000000E+00 -0.98574277922E+02  0.98574277922E+02  0.00000000000E+00 0. -1.
    9000006    2    1    2  501    0  0.00000000000E+00  0.00000000000E+00  0.90142572208E+03  0.10985742779E+04  0.62793081760E+03 0.  0.
         13    1    3    3    0    0  0.23991404685E+03  0.12336132358E+03  0.73171300278E+03  0.77985940045E+03  0.00000000000E+00 0. -1.
          4    1    3    3  501    0 -0.23991404685E+03 -0.12336132358E+03  0.16971271930E+03  0.31871487748E+03  0.00000000000E+00 0. -1.
<mgrwt>
<rscale>  0 0.62793082E+03</rscale>
<asrwt>0</asrwt>
<pdfrwt beam="1">0</pdfrwt>
<pdfrwt beam="2">  1        2 0.35845268E+00 0.62793082E+03</pdfrwt>
<totfact> 0.56781418E+00</totfact>
</mgrwt>
</event>
<event>
 5    1  0.2369161E-004  0.6455482E+03  0.7818608E-02  0.9815169E-01
         13   -1    0    0    0    0  0.00000000000E+00  0.00000000000E+00  0.10000000000E+04  0.10000000000E+04  0.00000000000E+00 0. -1.
          2   -1    0    0  501    0 -0.00000000000E+00 -0.00000000000E+00 -0.10418311570E+03  0.10418311570E+03  0.00000000000E+00 0. -1.
    9000006    2    1    2  501    0  0.00000000000E+00  0.00000000000E+00  0.89581688430E+03  0.11041831157E+04  0.64554818782E+03 0.  0.
         13    1    3    3    0    0 -0.12172376074E+03 -0.11289287690E+03  0.92137374469E+03  0.93621100879E+03  0.00000000000E+00 0. -1.
          2    1    3    3  501    0  0.12172376074E+03  0.11289287690E+03 -0.25556860388E+02  0.16797210690E+03  0.00000000000E+00 0. -1.
<mgrwt>
<rscale>  0 0.64554819E+03</rscale>
<asrwt>0</asrwt>
<pdfrwt beam="1">0</pdfrwt>
<pdfrwt beam="2">  1        2 0.37884849E+00 0.64554819E+03</pdfrwt>
<totfact> 0.47751289E+00</totfact>
</mgrwt>
</event>
<event>
 5    1  0.2369161E-004  0.6529733E+03  0.7818608E-02  0.9801216E-01
         13   -1    0    0    0    0  0.00000000000E+00  0.00000000000E+00  0.10000000000E+04  0.10000000000E+04  0.00000000000E+00 0. -1.
          2   -1    0    0  501    0 -0.00000000000E+00 -0.00000000000E+00 -0.10659352268E+03  0.10659352268E+03  0.00000000000E+00 0. -1.
    9000006    2    1    2  501    0  0.00000000000E+00  0.00000000000E+00  0.89340647732E+03  0.11065935227E+04  0.65297326954E+03 0.  0.
         13    1    3    3    0    0  0.16912196238E+02  0.66524728850E+02  0.98763361210E+03  0.99001601688E+03  0.00000000000E+00 0. -1.
          4    1    3    3  501    0 -0.16912196238E+02 -0.66524728850E+02 -0.94227134781E+02  0.11657750580E+03  0.00000000000E+00 0. -1.
<mgrwt>
<rscale>  0 0.65297327E+03</rscale>
<asrwt>0</asrwt>
<pdfrwt beam="1">0</pdfrwt>
<pdfrwt beam="2">  1        2 0.38761363E+00 0.65297327E+03</pdfrwt>
<totfact> 0.44290566E+00</totfact>
</mgrwt>
</event>
<event>
 5    1  0.2369161E-004  0.6554533E+03  0.7818608E-02  0.9796600E-01
         13   -1    0    0    0    0  0.00000000000E+00  0.00000000000E+00  0.10000000000E+04  0.10000000000E+04  0.00000000000E+00 0. -1.
          2   -1    0    0  501    0 -0.00000000000E+00 -0.00000000000E+00 -0.10740476224E+03  0.10740476224E+03  0.00000000000E+00 0. -1.
    9000006    2    1    2  501    0  0.00000000000E+00  0.00000000000E+00  0.89259523776E+03  0.11074047622E+04  0.65545331561E+03 0.  0.
         13    1    3    3    0    0 -0.12628906105E+03  0.29030747365E+03  0.58943345525E+03  0.66907335500E+03  0.00000000000E+00 0. -1.
          2    1    3    3  501    0  0.12628906105E+03 -0.29030747365E+03  0.30316178251E+03  0.43833140724E+03  0.00000000000E+00 0. -1.
<mgrwt>
<rscale>  0 0.65545332E+03</rscale>
<asrwt>0</asrwt>
<pdfrwt beam="1">0</pdfrwt>
<pdfrwt beam="2">  1        2 0.39056360E+00 0.65545332E+03</pdfrwt>
<totfact> 0.43178010E+00</totfact>
</mgrwt>
</event>
<event>
 5    1  0.2369161E-004  0.6456295E+03  0.7818608E-02  0.9815015E-01
         13   -1    0    0    0    0  0.00000000000E+00  0.00000000000E+00  0.10000000000E+04  0.10000000000E+04  0.00000000000E+00 0. -1.
          2   -1    0    0  501    0 -0.00000000000E+00 -0.00000000000E+00 -0.10420936560E+03  0.10420936560E+03  0.00000000000E+00 0. -1.
    9000006    2    1    2  501    0  0.00000000000E+00  0.00000000000E+00  0.89579063440E+03  0.11042093656E+04  0.64562950861E+03 0.  0.
         13    1    3    3    0    0 -0.70462256944E+02  0.19891898292E+03  0.86569366841E+03  0.89104389283E+03  0.00000000000E+00 0. -1.
          4    1    3    3  501    0  0.70462256944E+02 -0.19891898292E+03  0.30096965992E+02  0.21316547277E+03  0.00000000000E+00 0. -1.
<mgrwt>
<rscale>  0 0.64562951E+03</rscale>
<asrwt>0</asrwt>
<pdfrwt beam="1">0</pdfrwt>
<pdfrwt beam="2">  1        2 0.37894395E+00 0.64562951E+03</pdfrwt>
<totfact> 0.47712314E+00</totfact>
</mgrwt>
</event>
<event>
 5    1  0.2369161E-004  0.6549525E+03  0.7818608E-02  0.9797530E-01
         13   -1    0    0    0    0  0.00000000000E+00  0.00000000000E+00  0.10000000000E+04  0.10000000000E+04  0.00000000000E+00 0. -1.
          2   -1    0    0  501    0 -0.00000000000E+00 -0.00000000000E+00 -0.10724069047E+03  0.10724069047E+03  0.00000000000E+00 0. -1.
    9000006    2    1    2  501    0  0.00000000000E+00  0.00000000000E+00  0.89275930953E+03  0.11072406905E+04  0.65495248827E+03 0.  0.
         13    1    3    3    0    0  0.23231805252E+03  0.20606911787E+03  0.62210532692E+03  0.69530654869E+03  0.00000000000E+00 0. -1.
          4    1    3    3  501    0 -0.23231805252E+03 -0.20606911787E+03  0.27065398260E+03  0.41193414178E+03  0.00000000000E+00 0. -1.
<mgrwt>
<rscale>  0 0.65495249E+03</rscale>
<asrwt>0</asrwt>
<pdfrwt beam="1">0</pdfrwt>
<pdfrwt beam="2">  1        2 0.38996697E+00 0.65495249E+03</pdfrwt>
<totfact> 0.43400963E+00</totfact>
</mgrwt>
</event>
<event>
 5    1  0.2369161E-004  0.6505368E+03  0.7818608E-02  0.9805772E-01
         13   -1    0    0    0    0  0.00000000000E+00  0.00000000000E+00  0.10000000000E+04  0.10000000000E+04  0.00000000000E+00 0. -1.
          2   -1    0    0  501    0 -0.00000000000E+00 -0.00000000000E+00 -0.10579954153E+03  0.10579954153E+03  0.00000000000E+00 0. -1.
    9000006    2    1    2  501    0  0.00000000000E+00  0.00000000000E+00  0.89420045847E+03  0.11057995415E+04  0.65053682919E+03 0.  0.
         13    1    3    3    0    0 -0.11352949160E+03 -0.25638986120E+03  0.72731303328E+03  0.77949275479E+03  0.00000000000E+00 0. -1.
          2    1    3    3  501    0  0.11352949160E+03  0.25638986120E+03  0.16688742519E+03  0.32630678674E+03  0.00000000000E+00 0. -1.
<mgrwt>
<rscale>  0 0.65053683E+03</rscale>
<asrwt>0</asrwt>
<pdfrwt beam="1">0</pdfrwt>
<pdfrwt beam="2">  1        2 0.38472642E+00 0.65053683E+03</pdfrwt>
<totfact> 0.45404513E+00</totfact>
</mgrwt>
</event>
<event>
 5    1  0.2369161E-004  0.6515027E+03  0.7818608E-02  0.9803964E-01
         13   -1    0    0    0    0  0.00000000000E+00  0.00000000000E+00  0.10000000000E+04  0.10000000000E+04  0.00000000000E+00 0. -1.
          2   -1    0    0  501    0 -0.00000000000E+00 -0.00000000000E+00 -0.10611393755E+03  0.10611393755E+03  0.00000000000E+00 0. -1.
    9000006    2    1    2  501    0  0.00000000000E+00  0.00000000000E+00  0.89388606245E+03  0.11061139375E+04  0.65150268625E+03 0.  0.
         13    1    3    3    0    0 -0.67965440063E+02  0.19817052009E+03  0.23437183521E+02  0.21080834340E+03  0.00000000000E+00 0. -1.
          2    1    3    3  501    0  0.67965440063E+02 -0.19817052009E+03  0.87044887893E+03  0.89530559415E+03  0.00000000000E+00 0. -1.
<mgrwt>
<rscale>  0 0.65150269E+03</rscale>
<asrwt>0</asrwt>
<pdfrwt beam="1">0</pdfrwt>
<pdfrwt beam="2">  1        2 0.38586968E+00 0.65150269E+03</pdfrwt>
<totfact> 0.44960419E+00</totfact>
</mgrwt>
</event>
<event>
 5    1  0.2369161E-004  0.6758834E+03  0.7818608E-02  0.9759387E-01
         13   -1    0    0    0    0  0.00000000000E+00  0.00000000000E+00  0.10000000000E+04  0.10000000000E+04  0.00000000000E+00 0. -1.
          2   -1    0    0  501    0 -0.00000000000E+00 -0.00000000000E+00 -0.11420458566E+03  0.11420458566E+03  0.00000000000E+00 0. -1.
    9000006    2    1    2  501    0  0.00000000000E+00  0.00000000000E+00  0.88579541434E+03  0.11142045857E+04  0.67588337947E+03 0.  0.
         13    1    3    3    0    0  0.21057292692E+03 -0.25551792860E+03  0.55439171368E+03  0.64574030506E+03  0.00000000000E+00 0. -1.
          4    1    3    3  501    0 -0.21057292692E+03  0.25551792860E+03  0.33140370066E+03  0.46846428060E+03  0.00000000000E+00 0. -1.
<mgrwt>
<rscale>  0 0.67588338E+03</rscale>
<asrwt>0</asrwt>
<pdfrwt beam="1">0</pdfrwt>
<pdfrwt beam="2">  1        2 0.41529028E+00 0.67588338E+03</pdfrwt>
<totfact> 0.34796080E+00</totfact>
</mgrwt>
</event>
<event>
 5    1  0.2369161E-004  0.6452622E+03  0.7818608E-02  0.9815710E-01
         13   -1    0    0    0    0  0.00000000000E+00  0.00000000000E+00  0.10000000000E+04  0.10000000000E+04  0.00000000000E+00 0. -1.
          2   -1    0    0  501    0 -0.00000000000E+00 -0.00000000000E+00 -0.10409083286E+03  0.10409083286E+03  0.00000000000E+00 0. -1.
    9000006    2    1    2  501    0  0.00000000000E+00  0.00000000000E+00  0.89590916714E+03  0.11040908329E+04  0.64526221912E+03 0.  0.
         13    1    3    3    0    0  0.17236513695E+03 -0.26877131113E+03  0.52716589886E+03  0.61632105517E+03  0.00000000000E+00 0. -1.
          4    1    3    3  501    0 -0.17236513695E+03  0.26877131113E+03  0.36874326828E+03  0.48776977769E+03  0.00000000000E+00 0. -1.
<mgrwt>
<rscale>  0 0.64526222E+03</rscale>
<asrwt>0</asrwt>
<pdfrwt beam="1">0</pdfrwt>
<pdfrwt beam="2">  1        2 0.37851292E+00 0.64526222E+03</pdfrwt>
<totfact> 0.47888539E+00</totfact>
</mgrwt>
</event>
<event>
 5    1  0.2369161E-004  0.6550217E+03  0.7818608E-02  0.9797402E-01
         13   -1    0    0    0    0  0.00000000000E+00  0.00000000000E+00  0.10000000000E+04  0.10000000000E+04  0.00000000000E+00 0. -1.
          2   -1    0    0  501    0 -0.00000000000E+00 -0.00000000000E+00 -0.10726335193E+03  0.10726335193E+03  0.00000000000E+00 0. -1.
    9000006    2    1    2  501    0  0.00000000000E+00  0.00000000000E+00  0.89273664807E+03  0.11072633519E+04  0.65502168491E+03 0.  0.
         13    1    3    3    0    0 -0.11660574291E+02  0.31213632295E+03  0.61284102620E+03  0.68785112959E+03  0.00000000000E+00 0. -1.
          2    1    3    3  501    0  0.11660574291E+02 -0.31213632295E+03  0.27989562188E+03  0.41941222233E+03  0.00000000000E+00 0. -1.
<mgrwt>
<rscale>  0 0.65502168E+03</rscale>
<asrwt>0</asrwt>
<pdfrwt beam="1">0</pdfrwt>
<pdfrwt beam="2">  1        2 0.39004937E+00 0.65502168E+03</pdfrwt>
<totfact> 0.43370107E+00</totfact>
</mgrwt>
</event>
<event>
 5    1  0.2369161E-004  0.6537985E+03  0.7818608E-02  0.9799678E-01
         13   -1    0    0    0    0  0.00000000000E+00  0.00000000000E+00  0.10000000000E+04  0.10000000000E+04  0.00000000000E+00 0. -1.
          2   -1    0    0  501    0 -0.00000000000E+00 -0.00000000000E+00 -0.10686311971E+03  0.10686311971E+03  0.00000000000E+00 0. -1.
    9000006    2    1    2  501    0  0.00000000000E+00  0.00000000000E+00  0.89313688029E+03  0.11068631197E+04  0.65379850019E+03 0.  0.
         13    1    3    3    0    0  0.15014416422E+03 -0.26618221123E+03  0.25010420866E+03  0.39490296886E+03  0.00000000000E+00 0. -1.
          2    1    3    3  501    0 -0.15014416422E+03  0.26618221123E+03  0.64303267163E+03  0.71196015086E+03  0.00000000000E+00 0. -1.
<mgrwt>
<rscale>  0 0.65379850E+03</rscale>
<asrwt>0</asrwt>
<pdfrwt beam="1">0</pdfrwt>
<pdfrwt beam="2">  1        2 0.38859398E+00 0.65379850E+03</pdfrwt>
<totfact> 0.43917990E+00</totfact>
</mgrwt>
</event>
<event>
 5    1  0.2369161E-004  0.6616700E+03  0.7818608E-02  0.9785124E-01
         13   -1    0    0    0    0  0.00000000000E+00  0.00000000000E+00  0.10000000000E+04  0.10000000000E+04  0.00000000000E+00 0. -1.
          2   -1    0    0  501    0 -0.00000000000E+00 -0.00000000000E+00 -0.10945180627E+03  0.10945180627E+03  0.00000000000E+00 0. -1.
    9000006    2    1    2  501    0  0.00000000000E+00  0.00000000000E+00  0.89054819373E+03  0.11094518063E+04  0.66167002733E+03 0.  0.
         13    1    3    3    0    0  0.18394573721E+03 -0.27498015831E+03  0.44745035825E+03  0.55647277094E+03  0.00000000000E+00 0. -1.
          2    1    3    3  501    0 -0.18394573721E+03  0.27498015831E+03  0.44309783548E+03  0.55297903532E+03  0.00000000000E+00 0. -1.
<mgrwt>
<rscale>  0 0.66167003E+03</rscale>
<asrwt>0</asrwt>
<pdfrwt beam="1">0</pdfrwt>
<pdfrwt beam="2">  1        2 0.39800741E+00 0.66167003E+03</pdfrwt>
<totfact> 0.40482017E+00</totfact>
</mgrwt>
</event>
<event>
 5    1  0.2369161E-004  0.6225780E+03  0.7818608E-02  0.9859640E-01
         13   -1    0    0    0    0  0.00000000000E+00  0.00000000000E+00  0.10000000000E+04  0.10000000000E+04  0.00000000000E+00 0. -1.
          2   -1    0    0  501    0 -0.00000000000E+00 -0.00000000000E+00 -0.96900854103E+02  0.96900854103E+02  0.00000000000E+00 0. -1.
    9000006    2    1    2  501    0  0.00000000000E+00  0.00000000000E+00  0.90309914590E+03  0.10969008541E+04  0.62257804042E+03 0.  0.
         13    1    3    3    0    0  0.17405729369E+03 -0.25805752856E+03  0.44564676775E+03  0.54359053628E+03  0.00000000000E+00 0. -1.
          4    1    3    3  501    0 -0.17405729369E+03  0.25805752856E+03  0.45745237815E+03  0.55331031782E+03  0.00000000000E+00 0. -1.
<mgrwt>
<rscale>  0 0.62257804E+03</rscale>
<asrwt>0</asrwt>
<pdfrwt beam="1">0</pdfrwt>
<pdfrwt beam="2">  1        2 0.35236749E+00 0.62257804E+03</pdfrwt>
<totfact> 0.59765988E+00</totfact>
</mgrwt>
</event>
<event>
 5    1  0.2369161E-004  0.6518479E+03  0.7818608E-02  0.9803318E-01
         13   -1    0    0    0    0  0.00000000000E+00  0.00000000000E+00  0.10000000000E+04  0.10000000000E+04  0.00000000000E+00 0. -1.
          2   -1    0    0  501    0 -0.00000000000E+00 -0.00000000000E+00 -0.10622641317E+03  0.10622641317E+03  0.00000000000E+00 0. -1.
    9000006    2    1    2  501    0  0.00000000000E+00  0.00000000000E+00  0.89377358683E+03  0.11062264132E+04  0.65184787542E+03 0.  0.
         13    1    3    3    0    0  0.14772572175E+03  0.27821686105E+03  0.58886207616E+03  0.66782187399E+03  0.00000000000E+00 0. -1.
          4    1    3    3  501    0 -0.14772572175E+03 -0.27821686105E+03  0.30491151066E+03  0.43840453918E+03  0.00000000000E+00 0. -1.
<mgrwt>
<rscale>  0 0.65184788E+03</rscale>
<asrwt>0</asrwt>
<pdfrwt beam="1">0</pdfrwt>
<pdfrwt beam="2">  1        2 0.38627868E+00 0.65184788E+03</pdfrwt>
<totfact> 0.44802502E+00</totfact>
</mgrwt>
</event>
<event>
 5    1  0.2369161E-004  0.6437624E+03  0.7818608E-02  0.9818555E-01
         13   -1    0    0    0    0  0.00000000000E+00  0.00000000000E+00  0.10000000000E+04  0.10000000000E+04  0.00000000000E+00 0. -1.
          2   -1    0    0  501    0 -0.00000000000E+00 -0.00000000000E+00 -0.10360749757E+03  0.10360749757E+03  0.00000000000E+00 0. -1.
    9000006    2    1    2  501    0  0.00000000000E+00  0.00000000000E+00  0.89639250243E+03  0.11036074976E+04  0.64376237097E+03 0.  0.
         13    1    3    3    0    0  0.12409102569E+03  0.28002381965E+03  0.61786584853E+03  0.68961592862E+03  0.00000000000E+00 0. -1.
          4    1    3    3  501    0 -0.12409102569E+03 -0.28002381965E+03  0.27852665390E+03  0.41399156895E+03  0.00000000000E+00 0. -1.
<mgrwt>
<rscale>  0 0.64376237E+03</rscale>
<asrwt>0</asrwt>
<pdfrwt beam="1">0</pdfrwt>
<pdfrwt beam="2">  1        2 0.37675533E+00 0.64376237E+03</pdfrwt>
<totfact> 0.48613282E+00</totfact>
</mgrwt>
</event>
<event>
 5    1  0.2369161E-004  0.6487468E+03  0.7818608E-02  0.9809134E-01
         13   -1    0    0    0    0  0.00000000000E+00  0.00000000000E+00  0.10000000000E+04  0.10000000000E+04  0.00000000000E+00 0. -1.
          2   -1    0    0  501    0 -0.00000000000E+00 -0.00000000000E+00 -0.10521809818E+03  0.10521809818E+03  0.00000000000E+00 0. -1.
    9000006    2    1    2  501    0  0.00000000000E+00  0.00000000000E+00  0.89478190182E+03  0.11052180982E+04  0.64874678629E+03 0.  0.
         13    1    3    3    0    0 -0.17347165799E+03 -0.23405711638E+03  0.20440580992E+03  0.35588886605E+03  0.00000000000E+00 0. -1.
          2    1    3    3  501    0  0.17347165799E+03  0.23405711638E+03  0.69037609190E+03  0.74932923212E+03  0.00000000000E+00 0. -1.
<mgrwt>
<rscale>  0 0.64874679E+03</rscale>
<asrwt>0</asrwt>
<pdfrwt beam="1">0</pdfrwt>
<pdfrwt beam="2">  1        2 0.38261207E+00 0.64874679E+03</pdfrwt>
<totfact> 0.46236320E+00</totfact>
</mgrwt>
</event>
<event>
 5    1  0.2369161E-004  0.6109795E+03  0.7818608E-02  0.9882885E-01
         13   -1    0    0    0    0  0.00000000000E+00  0.00000000000E+00  0.10000000000E+04  0.10000000000E+04  0.00000000000E+00 0. -1.
          2   -1    0    0  501    0 -0.00000000000E+00 -0.00000000000E+00 -0.93323997378E+02  0.93323997378E+02  0.00000000000E+00 0. -1.
    9000006    2    1    2  501    0  0.00000000000E+00  0.00000000000E+00  0.90667600262E+03  0.10933239974E+04  0.61097953281E+03 0.  0.
         13    1    3    3    0    0 -0.24757539303E+02  0.28862588559E+03  0.27978649209E+03  0.40273852403E+03  0.00000000000E+00 0. -1.
          2    1    3    3  501    0  0.24757539303E+02 -0.28862588559E+03  0.62688951053E+03  0.69058547334E+03  0.00000000000E+00 0. -1.
<mgrwt>
<rscale>  0 0.61097953E+03</rscale>
<asrwt>0</asrwt>
<pdfrwt beam="1">0</pdfrwt>
<pdfrwt beam="2">  1        2 0.33936071E+00 0.61097953E+03</pdfrwt>
<totfact> 0.66641977E+00</totfact>
</mgrwt>
</event>
<event>
 5    1  0.2369161E-004  0.6535667E+03  0.7818608E-02  0.9800109E-01
         13   -1    0    0    0    0  0.00000000000E+00  0.00000000000E+00  0.10000000000E+04  0.10000000000E+04  0.00000000000E+00 0. -1.
          2   -1    0    0  501    0 -0.00000000000E+00 -0.00000000000E+00 -0.10678735784E+03  0.10678735784E+03  0.00000000000E+00 0. -1.
    9000006    2    1    2  501    0  0.00000000000E+00  0.00000000000E+00  0.89321264216E+03  0.11067873578E+04  0.65356670000E+03 0.  0.
         13    1    3    3    0    0 -0.79515856354E+02 -0.17423773727E+03 -0.17788487823E+01  0.19153256852E+03  0.00000000000E+00 0. -1.
          2    1    3    3  501    0  0.79515856354E+02  0.17423773727E+03  0.89499149094E+03  0.91525478932E+03  0.00000000000E+00 0. -1.
<mgrwt>
<rscale>  0 0.65356670E+03</rscale>
<asrwt>0</asrwt>
<pdfrwt beam="1">0</pdfrwt>
<pdfrwt beam="2">  1        2 0.38831848E+00 0.65356670E+03</pdfrwt>
<totfact> 0.44022404E+00</totfact>
</mgrwt>
</event>
<event>
 5    1  0.2369161E-004  0.6536982E+03  0.7818608E-02  0.9799864E-01
         13   -1    0    0    0    0  0.00000000000E+00  0.00000000000E+00  0.10000000000E+04  0.10000000000E+04  0.00000000000E+00 0. -1.
          2   -1    0    0  501    0 -0.00000000000E+00 -0.00000000000E+00 -0.10683033997E+03  0.10683033997E+03  0.00000000000E+00 0. -1.
    9000006    2    1    2  501    0  0.00000000000E+00  0.00000000000E+00  0.89316966003E+03  0.11068303400E+04  0.65369821775E+03 0.  0.
         13    1    3    3    0    0 -0.19300544267E+03  0.25030902957E+03  0.30568774671E+03  0.43971662429E+03  0.00000000000E+00 0. -1.
          2    1    3    3  501    0  0.19300544267E+03 -0.25030902957E+03  0.58748191331E+03  0.66711371569E+03  0.00000000000E+00 0. -1.
<mgrwt>
<rscale>  0 0.65369822E+03</rscale>
<asrwt>0</asrwt>
<pdfrwt beam="1">0</pdfrwt>
<pdfrwt beam="2">  1        2 0.38847478E+00 0.65369822E+03</pdfrwt>
<totfact> 0.43963139E+00</totfact>
</mgrwt>
</event>
<event>
 5    1  0.2369161E-004  0.6629088E+03  0.7818608E-02  0.9782854E-01
         13   -1    0    0    0    0  0.00000000000E+00  0.00000000000E+00  0.10000000000E+04  0.10000000000E+04  0.00000000000E+00 0. -1.
          2   -1    0    0  501    0 -0.00000000000E+00 -0.00000000000E+00 -0.10986201842E+03  0.10986201842E+03  0.00000000000E+00 0. -1.
    9000006    2    1    2  501    0  0.00000000000E+00  0.00000000000E+00  0.89013798158E+03  0.11098620184E+04  0.66290879740E+03 0.  0.
         13    1    3    3    0    0  0.16054864135E+03  0.61755867043E+02  0.91941826031E+03  0.93537136515E+03  0.00000000000E+00 0. -1.
          4    1    3    3  501    0 -0.16054864135E+03 -0.61755867043E+02 -0.29280278731E+02  0.17449065326E+03  0.00000000000E+00 0. -1.
<mgrwt>
<rscale>  0 0.66290880E+03</rscale>
<asrwt>0</asrwt>
<pdfrwt beam="1">0</pdfrwt>
<pdfrwt beam="2">  1        2 0.39949909E+00 0.66290880E+03</pdfrwt>
<totfact> 0.39960376E+00</totfact>
</mgrwt>
</event>
<event>
 5    1  0.2369161E-004  0.6464820E+03  0.7818608E-02  0.9813403E-01
         13   -1    0    0    0    0  0.00000000000E+00  0.00000000000E+00  0.10000000000E+04  0.10000000000E+04  0.00000000000E+00 0. -1.
          2   -1    0    0  501    0 -0.00000000000E+00 -0.00000000000E+00 -0.10448474501E+03  0.10448474501E+03  0.00000000000E+00 0. -1.
    9000006    2    1    2  501    0  0.00000000000E+00  0.00000000000E+00  0.89551525499E+03  0.11044847450E+04  0.64648200287E+03 0.  0.
         13    1    3    3    0    0  0.37178586661E+02 -0.31550820806E+03  0.34586344539E+03  0.46962665972E+03  0.00000000000E+00 0. -1.
          4    1    3    3  501    0 -0.37178586661E+02  0.31550820806E+03  0.54965180960E+03  0.63485808529E+03  0.00000000000E+00 0. -1.
<mgrwt>
<rscale>  0 0.64648200E+03</rscale>
<asrwt>0</asrwt>
<pdfrwt beam="1">0</pdfrwt>
<pdfrwt beam="2">  1        2 0.37994533E+00 0.64648200E+03</pdfrwt>
<totfact> 0.47305179E+00</totfact>
</mgrwt>
</event>
<event>
 5    1  0.2369161E-004  0.6491842E+03  0.7818608E-02  0.9808311E-01
         13   -1    0    0    0    0  0.00000000000E+00  0.00000000000E+00  0.10000000000E+04  0.10000000000E+04  0.00000000000E+00 0. -1.
          2   -1    0    0  501    0 -0.00000000000E+00 -0.00000000000E+00 -0.10536002983E+03  0.10536002983E+03  0.00000000000E+00 0. -1.
    9000006    2    1    2  501    0  0.00000000000E+00  0.00000000000E+00  0.89463997017E+03  0.11053600298E+04  0.64918419522E+03 0.  0.
         13    1    3    3    0    0  0.17070266614E+02  0.26173645106E+03  0.77289775634E+03  0.81619134127E+03  0.00000000000E+00 0. -1.
          2    1    3    3  501    0 -0.17070266614E+02 -0.26173645106E+03  0.12174221383E+03  0.28916868856E+03  0.00000000000E+00 0. -1.
<mgrwt>
<rscale>  0 0.64918420E+03</rscale>
<asrwt>0</asrwt>
<pdfrwt beam="1">0</pdfrwt>
<pdfrwt beam="2">  1        2 0.38312819E+00 0.64918420E+03</pdfrwt>
<totfact> 0.46032008E+00</totfact>
</mgrwt>
</event>
<event>
 5    1  0.2369161E-004  0.6522727E+03  0.7818608E-02  0.9802524E-01
         13   -1    0    0    0    0  0.00000000000E+00  0.00000000000E+00  0.10000000000E+04  0.10000000000E+04  0.00000000000E+00 0. -1.
          2   -1    0    0  501    0 -0.00000000000E+00 -0.00000000000E+00 -0.10636492210E+03  0.10636492210E+03  0.00000000000E+00 0. -1.
    9000006    2    1    2  501    0  0.00000000000E+00  0.00000000000E+00  0.89363507790E+03  0.11063649221E+04  0.65227271016E+03 0.  0.
         13    1    3    3    0    0  0.22164717656E+02  0.30143751859E+03  0.23901728339E+03  0.38533766242E+03  0.00000000000E+00 0. -1.
          2    1    3    3  501    0 -0.22164717656E+02 -0.30143751859E+03  0.65461779450E+03  0.72102725968E+03  0.00000000000E+00 0. -1.
<mgrwt>
<rscale>  0 0.65227271E+03</rscale>
<asrwt>0</asrwt>
<pdfrwt beam="1">0</pdfrwt>
<pdfrwt beam="2">  1        2 0.38678235E+00 0.65227271E+03</pdfrwt>
<totfact> 0.44608724E+00</totfact>
</mgrwt>
</event>
<event>
 5    1  0.2369161E-004  0.6539994E+03  0.7818608E-02  0.9799303E-01
         13   -1    0    0    0    0  0.00000000000E+00  0.00000000000E+00  0.10000000000E+04  0.10000000000E+04  0.00000000000E+00 0. -1.
          2   -1    0    0  501    0 -0.00000000000E+00 -0.00000000000E+00 -0.10692880076E+03  0.10692880076E+03  0.00000000000E+00 0. -1.
    9000006    2    1    2  501    0  0.00000000000E+00  0.00000000000E+00  0.89307119924E+03  0.11069288008E+04  0.65399939072E+03 0.  0.
         13    1    3    3    0    0  0.13310196188E+03  0.12059467193E+03  0.90903826240E+03  0.92661198441E+03  0.00000000000E+00 0. -1.
          4    1    3    3  501    0 -0.13310196188E+03 -0.12059467193E+03 -0.15967063160E+02  0.18031681635E+03  0.00000000000E+00 0. -1.
<mgrwt>
<rscale>  0 0.65399939E+03</rscale>
<asrwt>0</asrwt>
<pdfrwt beam="1">0</pdfrwt>
<pdfrwt beam="2">  1        2 0.38883282E+00 0.65399939E+03</pdfrwt>
<totfact> 0.43827652E+00</totfact>
</mgrwt>
</event>
<event>
 5    1  0.2369161E-004  0.6777583E+03  0.7818608E-02  0.9756043E-01
         13   -1    0    0    0    0  0.00000000000E+00  0.00000000000E+00  0.10000000000E+04  0.10000000000E+04  0.00000000000E+00 0. -1.
          2   -1    0    0  501    0 -0.00000000000E+00 -0.00000000000E+00 -0.11483909347E+03  0.11483909347E+03  0.00000000000E+00 0. -1.
    9000006    2    1    2  501    0  0.00000000000E+00  0.00000000000E+00  0.88516090653E+03  0.11148390935E+04  0.67775834476E+03 0.  0.
         13    1    3    3    0    0  0.19129638341E+02  0.10502749024E+03  0.97161807972E+03  0.97746529842E+03  0.00000000000E+00 0. -1.
          2    1    3    3  501    0 -0.19129638341E+02 -0.10502749024E+03 -0.86457173198E+02  0.13737379505E+03  0.00000000000E+00 0. -1.
<mgrwt>
<rscale>  0 0.67775834E+03</rscale>
<asrwt>0</asrwt>
<pdfrwt beam="1">0</pdfrwt>
<pdfrwt beam="2">  1        2 0.41759758E+00 0.67775834E+03</pdfrwt>
<totfact> 0.34093685E+00</totfact>
</mgrwt>
</event>
<event>
 5    1  0.2369161E-004  0.6682242E+03  0.7818608E-02  0.9773171E-01
         13   -1    0    0    0    0  0.00000000000E+00  0.00000000000E+00  0.10000000000E+04  0.10000000000E+04  0.00000000000E+00 0. -1.
          2   -1    0    0  501    0 -0.00000000000E+00 -0.00000000000E+00 -0.11163090256E+03  0.11163090256E+03  0.00000000000E+00 0. -1.
    9000006    2    1    2  501    0  0.00000000000E+00  0.00000000000E+00  0.88836909744E+03  0.11116309026E+04  0.66822422153E+03 0.  0.
         13    1    3    3    0    0 -0.28919919376E+03  0.15716670114E+03  0.53965254317E+03  0.63210949445E+03  0.00000000000E+00 0. -1.
          2    1    3    3  501    0  0.28919919376E+03 -0.15716670114E+03  0.34871655427E+03  0.47952140811E+03  0.00000000000E+00 0. -1.
<mgrwt>
<rscale>  0 0.66822422E+03</rscale>
<asrwt>0</asrwt>
<pdfrwt beam="1">0</pdfrwt>
<pdfrwt beam="2">  1        2 0.40593141E+00 0.66822422E+03</pdfrwt>
<totfact> 0.37779382E+00</totfact>
</mgrwt>
</event>
<event>
 5    1  0.2369161E-004  0.6741979E+03  0.7818608E-02  0.9762404E-01
         13   -1    0    0    0    0  0.00000000000E+00  0.00000000000E+00  0.10000000000E+04  0.10000000000E+04  0.00000000000E+00 0. -1.
          2   -1    0    0  501    0 -0.00000000000E+00 -0.00000000000E+00 -0.11363570717E+03  0.11363570717E+03  0.00000000000E+00 0. -1.
    9000006    2    1    2  501    0  0.00000000000E+00  0.00000000000E+00  0.88636429283E+03  0.11136357072E+04  0.67419791508E+03 0.  0.
         13    1    3    3    0    0 -0.31348183358E+03 -0.99006098851E+02  0.56637803182E+03  0.65487185199E+03  0.00000000000E+00 0. -1.
          2    1    3    3  501    0  0.31348183358E+03  0.99006098851E+02  0.31998626100E+03  0.45876385518E+03  0.00000000000E+00 0. -1.
<mgrwt>
<rscale>  0 0.67419792E+03</rscale>
<asrwt>0</asrwt>
<pdfrwt beam="1">0</pdfrwt>
<pdfrwt beam="2">  1        2 0.41322162E+00 0.67419792E+03</pdfrwt>
<totfact> 0.35436739E+00</totfact>
</mgrwt>
</event>
<event>
 5    1  0.2369161E-004  0.6516496E+03  0.7818608E-02  0.9803689E-01
         13   -1    0    0    0    0  0.00000000000E+00  0.00000000000E+00  0.10000000000E+04  0.10000000000E+04  0.00000000000E+00 0. -1.
          2   -1    0    0  501    0 -0.00000000000E+00 -0.00000000000E+00 -0.10616178527E+03  0.10616178527E+03  0.00000000000E+00 0. -1.
    9000006    2    1    2  501    0  0.00000000000E+00  0.00000000000E+00  0.89383821473E+03  0.11061617853E+04  0.65164955389E+03 0.  0.
         13    1    3    3    0    0 -0.14274233424E+03  0.28426490058E+03  0.56670726404E+03  0.64987616574E+03  0.00000000000E+00 0. -1.
          2    1    3    3  501    0  0.14274233424E+03 -0.28426490058E+03  0.32713095069E+03  0.45628561953E+03  0.00000000000E+00 0. -1.
<mgrwt>
<rscale>  0 0.65164955E+03</rscale>
<asrwt>0</asrwt>
<pdfrwt beam="1">0</pdfrwt>
<pdfrwt beam="2">  1        2 0.38604367E+00 0.65164955E+03</pdfrwt>
<totfact> 0.44893178E+00</totfact>
</mgrwt>
</event>
<event>
 5    1  0.2369161E-004  0.6495575E+03  0.7818608E-02  0.9807610E-01
         13   -1    0    0    0    0  0.00000000000E+00  0.00000000000E+00  0.10000000000E+04  0.10000000000E+04  0.00000000000E+00 0. -1.
          2   -1    0    0  501    0 -0.00000000000E+00 -0.00000000000E+00 -0.10548125058E+03  0.10548125058E+03  0.00000000000E+00 0. -1.
    9000006    2    1    2  501    0  0.00000000000E+00  0.00000000000E+00  0.89451874942E+03  0.11054812506E+04  0.64955754351E+03 0.  0.
         13    1    3    3    0    0 -0.46405568992E+02 -0.18081088870E+03  0.89957785143E+03  0.91874172927E+03  0.00000000000E+00 0. -1.
          4    1    3    3  501    0  0.46405568992E+02  0.18081088870E+03 -0.50591020149E+01  0.18673952131E+03  0.00000000000E+00 0. -1.
<mgrwt>
<rscale>  0 0.64955754E+03</rscale>
<asrwt>0</asrwt>
<pdfrwt beam="1">0</pdfrwt>
<pdfrwt beam="2">  1        2 0.38356899E+00 0.64955754E+03</pdfrwt>
<totfact> 0.45858159E+00</totfact>
</mgrwt>
</event>
<event>
 5    1  0.2369161E-004  0.6539043E+03  0.7818608E-02  0.9799480E-01
         13   -1    0    0    0    0  0.00000000000E+00  0.00000000000E+00  0.10000000000E+04  0.10000000000E+04  0.00000000000E+00 0. -1.
          2   -1    0    0  501    0 -0.00000000000E+00 -0.00000000000E+00 -0.10689771310E+03  0.10689771310E+03  0.00000000000E+00 0. -1.
    9000006    2    1    2  501    0  0.00000000000E+00  0.00000000000E+00  0.89310228690E+03  0.11068977131E+04  0.65390431440E+03 0.  0.
         13    1    3    3    0    0 -0.22218430215E+03  0.83194024231E+02  0.65736145210E+02  0.24618763287E+03  0.00000000000E+00 0. -1.
          4    1    3    3  501    0  0.22218430215E+03 -0.83194024231E+02  0.82736614169E+03  0.86071008023E+03  0.00000000000E+00 0. -1.
<mgrwt>
<rscale>  0 0.65390431E+03</rscale>
<asrwt>0</asrwt>
<pdfrwt beam="1">0</pdfrwt>
<pdfrwt beam="2">  1        2 0.38871978E+00 0.65390431E+03</pdfrwt>
<totfact> 0.43870389E+00</totfact>
</mgrwt>
</event>
<event>
 5    1  0.2369161E-004  0.6095878E+03  0.7818608E-02  0.9885712E-01
         13   -1    0    0    0    0  0.00000000000E+00  0.00000000000E+00  0.10000000000E+04  0.10000000000E+04  0.00000000000E+00 0. -1.
          2   -1    0    0  501    0 -0.00000000000E+00 -0.00000000000E+00 -0.92899327202E+02  0.92899327202E+02  0.00000000000E+00 0. -1.
    9000006    2    1    2  501    0  0.00000000000E+00  0.00000000000E+00  0.90710067280E+03  0.10928993272E+04  0.60958781878E+03 0.  0.
         13    1    3    3    0    0 -0.26513542570E+03 -0.11501869613E+03  0.62712589834E+03  0.69051646381E+03  0.00000000000E+00 0. -1.
          4    1    3    3  501    0  0.26513542570E+03  0.11501869613E+03  0.27997477446E+03  0.40238286340E+03  0.00000000000E+00 0. -1.
<mgrwt>
<rscale>  0 0.60958782E+03</rscale>
<asrwt>0</asrwt>
<pdfrwt beam="1">0</pdfrwt>
<pdfrwt beam="2">  1        2 0.33781645E+00 0.60958782E+03</pdfrwt>
<totfact> 0.67505903E+00</totfact>
</mgrwt>
</event>
<event>
 5    1  0.2369161E-004  0.6522405E+03  0.7818608E-02  0.9802584E-01
         13   -1    0    0    0    0  0.00000000000E+00  0.00000000000E+00  0.10000000000E+04  0.10000000000E+04  0.00000000000E+00 0. -1.
          2   -1    0    0  501    0 -0.00000000000E+00 -0.00000000000E+00 -0.10635441405E+03  0.10635441405E+03  0.00000000000E+00 0. -1.
    9000006    2    1    2  501    0  0.00000000000E+00  0.00000000000E+00  0.89364558595E+03  0.11063544141E+04  0.65224048955E+03 0.  0.
         13    1    3    3    0    0 -0.22846155831E+01 -0.25342593526E+03  0.79496272901E+03  0.83438340386E+03  0.00000000000E+00 0. -1.
          4    1    3    3  501    0  0.22846155831E+01  0.25342593526E+03  0.98682856943E+02  0.27197101019E+03  0.00000000000E+00 0. -1.
<mgrwt>
<rscale>  0 0.65224049E+03</rscale>
<asrwt>0</asrwt>
<pdfrwt beam="1">0</pdfrwt>
<pdfrwt beam="2">  1        2 0.38674414E+00 0.65224049E+03</pdfrwt>
<totfact> 0.44623399E+00</totfact>
</mgrwt>
</event>
<event>
 5    1  0.2369161E-004  0.6535219E+03  0.7818608E-02  0.9800193E-01
         13   -1    0    0    0    0  0.00000000000E+00  0.00000000000E+00  0.10000000000E+04  0.10000000000E+04  0.00000000000E+00 0. -1.
          2   -1    0    0  501    0 -0.00000000000E+00 -0.00000000000E+00 -0.10677273027E+03  0.10677273027E+03  0.00000000000E+00 0. -1.
    9000006    2    1    2  501    0  0.00000000000E+00  0.00000000000E+00  0.89322726973E+03  0.11067727303E+04  0.65352193619E+03 0.  0.
         13    1    3    3    0    0  0.25094891727E+03  0.67110805693E+02  0.11090794813E+03  0.28245316829E+03  0.00000000000E+00 0. -1.
          2    1    3    3  501    0 -0.25094891727E+03 -0.67110805693E+02  0.78231932160E+03  0.82431956198E+03  0.00000000000E+00 0. -1.
<mgrwt>
<rscale>  0 0.65352194E+03</rscale>
<asrwt>0</asrwt>
<pdfrwt beam="1">0</pdfrwt>
<pdfrwt beam="2">  1        2 0.38826529E+00 0.65352194E+03</pdfrwt>
<totfact> 0.44042589E+00</totfact>
</mgrwt>
</event>
<event>
 5    1  0.2369161E-004  0.6130987E+03  0.7818608E-02  0.9878597E-01
         13   -1    0    0    0    0  0.00000000000E+00  0.00000000000E+00  0.10000000000E+04  0.10000000000E+04  0.00000000000E+00 0. -1.
          2   -1    0    0  501    0 -0.00000000000E+00 -0.00000000000E+00 -0.93972516091E+02  0.93972516091E+02  0.00000000000E+00 0. -1.
    9000006    2    1    2  501    0  0.00000000000E+00  0.00000000000E+00  0.90602748391E+03  0.10939725161E+04  0.61309873949E+03 0.  0.
         13    1    3    3    0    0  0.28553600428E+03 -0.10503287813E+03  0.38601681633E+03  0.49149943817E+03  0.00000000000E+00 0. -1.
          4    1    3    3  501    0 -0.28553600428E+03  0.10503287813E+03  0.52001066758E+03  0.60247307792E+03  0.00000000000E+00 0. -1.
<mgrwt>
<rscale>  0 0.61309874E+03</rscale>
<asrwt>0</asrwt>
<pdfrwt beam="1">0</pdfrwt>
<pdfrwt beam="2">  1        2 0.34171896E+00 0.61309874E+03</pdfrwt>
<totfact> 0.65342770E+00</totfact>
</mgrwt>
</event>
<event>
 5    1  0.2369161E-004  0.6482340E+03  0.7818608E-02  0.9810099E-01
         13   -1    0    0    0    0  0.00000000000E+00  0.00000000000E+00  0.10000000000E+04  0.10000000000E+04  0.00000000000E+00 0. -1.
          2   -1    0    0  501    0 -0.00000000000E+00 -0.00000000000E+00 -0.10505183293E+03  0.10505183293E+03  0.00000000000E+00 0. -1.
    9000006    2    1    2  501    0  0.00000000000E+00  0.00000000000E+00  0.89494816707E+03  0.11050518329E+04  0.64823401001E+03 0.  0.
         13    1    3    3    0    0  0.16921605438E+03  0.20668387009E+03  0.13453283702E+03  0.29908423470E+03  0.00000000000E+00 0. -1.
          4    1    3    3  501    0 -0.16921605438E+03 -0.20668387009E+03  0.76041533005E+03  0.80596759823E+03  0.00000000000E+00 0. -1.
<mgrwt>
<rscale>  0 0.64823401E+03</rscale>
<asrwt>0</asrwt>
<pdfrwt beam="1">0</pdfrwt>
<pdfrwt beam="2">  1        2 0.38200747E+00 0.64823401E+03</pdfrwt>
<totfact> 0.46476707E+00</totfact>
</mgrwt>
</event>
<event>
 5    1  0.2369161E-004  0.6590025E+03  0.7818608E-02  0.9790032E-01
         13   -1    0    0    0    0  0.00000000000E+00  0.00000000000E+00  0.10000000000E+04  0.10000000000E+04  0.00000000000E+00 0. -1.
          2   -1    0    0  501    0 -0.00000000000E+00 -0.00000000000E+00 -0.10857106166E+03  0.10857106166E+03  0.00000000000E+00 0. -1.
    9000006    2    1    2  501    0  0.00000000000E+00  0.00000000000E+00  0.89142893834E+03  0.11085710617E+04  0.65900246330E+03 0.  0.
         13    1    3    3    0    0  0.23322131173E+03  0.60412301039E+02  0.82385032688E+03  0.85835376592E+03  0.00000000000E+00 0. -1.
          2    1    3    3  501    0 -0.23322131173E+03 -0.60412301039E+02  0.67578611460E+02  0.25021729574E+03  0.00000000000E+00 0. -1.
<mgrwt>
<rscale>  0 0.65900246E+03</rscale>
<asrwt>0</asrwt>
<pdfrwt beam="1">0</pdfrwt>
<pdfrwt beam="2">  1        2 0.39480469E+00 0.65900246E+03</pdfrwt>
<totfact> 0.41622752E+00</totfact>
</mgrwt>
</event>
<event>
 5    1  0.2369161E-004  0.6451778E+03  0.7818608E-02  0.9815870E-01
         13   -1    0    0    0    0  0.00000000000E+00  0.00000000000E+00  0.10000000000E+04  0.10000000000E+04  0.00000000000E+00 0. -1.
          2   -1    0    0  501    0 -0.00000000000E+00 -0.00000000000E+00 -0.10406359799E+03  0.10406359799E+03  0.00000000000E+00 0. -1.
    9000006    2    1    2  501    0  0.00000000000E+00  0.00000000000E+00  0.89593640201E+03  0.11040635980E+04  0.64517779870E+03 0.  0.
         13    1    3    3    0    0 -0.77777934569E+02 -0.29840195350E+03  0.28589091517E+03  0.42050772684E+03  0.00000000000E+00 0. -1.
          2    1    3    3  501    0  0.77777934569E+02  0.29840195350E+03  0.61004548685E+03  0.68355587115E+03  0.00000000000E+00 0. -1.
<mgrwt>
<rscale>  0 0.64517780E+03</rscale>
<asrwt>0</asrwt>
<pdfrwt beam="1">0</pdfrwt>
<pdfrwt beam="2">  1        2 0.37841388E+00 0.64517780E+03</pdfrwt>
<totfact> 0.47929113E+00</totfact>
</mgrwt>
</event>
<event>
 5    1  0.2369161E-004  0.6430245E+03  0.7818608E-02  0.9819957E-01
         13   -1    0    0    0    0  0.00000000000E+00  0.00000000000E+00  0.10000000000E+04  0.10000000000E+04  0.00000000000E+00 0. -1.
          2   -1    0    0  501    0 -0.00000000000E+00 -0.00000000000E+00 -0.10337012709E+03  0.10337012709E+03  0.00000000000E+00 0. -1.
    9000006    2    1    2  501    0  0.00000000000E+00  0.00000000000E+00  0.89662987291E+03  0.11033701271E+04  0.64302450058E+03 0.  0.
         13    1    3    3    0    0 -0.59118910542E+02 -0.15054661599E+03 -0.28481192881E+02  0.16422699996E+03  0.00000000000E+00 0. -1.
          4    1    3    3  501    0  0.59118910542E+02  0.15054661599E+03  0.92511106579E+03  0.93914312712E+03  0.00000000000E+00 0. -1.
<mgrwt>
<rscale>  0 0.64302450E+03</rscale>
<asrwt>0</asrwt>
<pdfrwt beam="1">0</pdfrwt>
<pdfrwt beam="2">  1        2 0.37589216E+00 0.64302450E+03</pdfrwt>
<totfact> 0.48972861E+00</totfact>
</mgrwt>
</event>
<event>
 5    1  0.2369161E-004  0.6508598E+03  0.7818608E-02  0.9805167E-01
         13   -1    0    0    0    0  0.00000000000E+00  0.00000000000E+00  0.10000000000E+04  0.10000000000E+04  0.00000000000E+00 0. -1.
          2   -1    0    0  501    0 -0.00000000000E+00 -0.00000000000E+00 -0.10590461957E+03  0.10590461957E+03  0.00000000000E+00 0. -1.
    9000006    2    1    2  501    0  0.00000000000E+00  0.00000000000E+00  0.89409538043E+03  0.11059046196E+04  0.65085979924E+03 0.  0.
         13    1    3    3    0    0  0.45216563316E+01 -0.17742489060E+03 -0.16431314853E+02  0.17824148027E+03  0.00000000000E+00 0. -1.
          4    1    3    3  501    0 -0.45216563316E+01  0.17742489060E+03  0.91052669529E+03  0.92766313930E+03  0.00000000000E+00 0. -1.
<mgrwt>
<rscale>  0 0.65085980E+03</rscale>
<asrwt>0</asrwt>
<pdfrwt beam="1">0</pdfrwt>
<pdfrwt beam="2">  1        2 0.38510852E+00 0.65085980E+03</pdfrwt>
<totfact> 0.45255647E+00</totfact>
</mgrwt>
</event>
<event>
 5    1  0.2369161E-004  0.6237778E+03  0.7818608E-02  0.9857267E-01
         13   -1    0    0    0    0  0.00000000000E+00  0.00000000000E+00  0.10000000000E+04  0.10000000000E+04  0.00000000000E+00 0. -1.
          2   -1    0    0  501    0 -0.00000000000E+00 -0.00000000000E+00 -0.97274672608E+02  0.97274672608E+02  0.00000000000E+00 0. -1.
    9000006    2    1    2  501    0  0.00000000000E+00  0.00000000000E+00  0.90272532739E+03  0.10972746726E+04  0.62377775724E+03 0.  0.
         13    1    3    3    0    0  0.76185883413E+02  0.28960569072E+03  0.60470484115E+03  0.67479158993E+03  0.00000000000E+00 0. -1.
          2    1    3    3  501    0 -0.76185883413E+02 -0.28960569072E+03  0.29802048624E+03  0.42248308267E+03  0.00000000000E+00 0. -1.
<mgrwt>
<rscale>  0 0.62377776E+03</rscale>
<asrwt>0</asrwt>
<pdfrwt beam="1">0</pdfrwt>
<pdfrwt beam="2">  1        2 0.35372683E+00 0.62377776E+03</pdfrwt>
<totfact> 0.59086913E+00</totfact>
</mgrwt>
</event>
<event>
 5    1  0.2369161E-004  0.6474808E+03  0.7818608E-02  0.9811518E-01
         13   -1    0    0    0    0  0.00000000000E+00  0.00000000000E+00  0.10000000000E+04  0.10000000000E+04  0.00000000000E+00 0. -1.
          2   -1    0    0  501    0 -0.00000000000E+00 -0.00000000000E+00 -0.10480785425E+03  0.10480785425E+03  0.00000000000E+00 0. -1.
    9000006    2    1    2  501    0  0.00000000000E+00  0.00000000000E+00  0.89519214575E+03  0.11048078542E+04  0.64748082365E+03 0.  0.
         13    1    3    3    0    0 -0.28988966466E+03  0.12109602382E+03  0.58094660883E+03  0.66045380382E+03  0.00000000000E+00 0. -1.
          4    1    3    3  501    0  0.28988966466E+03 -0.12109602382E+03  0.31424553692E+03  0.44435405043E+03  0.00000000000E+00 0. -1.
<mgrwt>
<rscale>  0 0.64748082E+03</rscale>
<asrwt>0</asrwt>
<pdfrwt beam="1">0</pdfrwt>
<pdfrwt beam="2">  1        2 0.38112027E+00 0.64748082E+03</pdfrwt>
<totfact> 0.46831511E+00</totfact>
</mgrwt>
</event>
<event>
 5    1  0.2369161E-004  0.6430002E+03  0.7818608E-02  0.9820003E-01
         13   -1    0    0    0    0  0.00000000000E+00  0.00000000000E+00  0.10000000000E+04  0.10000000000E+04  0.00000000000E+00 0. -1.
          2   -1    0    0  501    0 -0.00000000000E+00 -0.00000000000E+00 -0.10336232287E+03  0.10336232287E+03  0.00000000000E+00 0. -1.
    9000006    2    1    2  501    0  0.00000000000E+00  0.00000000000E+00  0.89663767713E+03  0.11033623229E+04  0.64300022665E+03 0.  0.
         13    1    3    3    0    0  0.31176522526E+03 -0.31155557162E+02  0.57198819819E+03  0.65217997768E+03  0.00000000000E+00 0. -1.
          4    1    3    3  501    0 -0.31176522526E+03  0.31155557162E+02  0.32464947895E+03  0.45118234518E+03  0.00000000000E+00 0. -1.
<mgrwt>
<rscale>  0 0.64300023E+03</rscale>
<asrwt>0</asrwt>
<pdfrwt beam="1">0</pdfrwt>
<pdfrwt beam="2">  1        2 0.37586378E+00 0.64300023E+03</pdfrwt>
<totfact> 0.48984724E+00</totfact>
</mgrwt>
</event>
<event>
 5    1  0.2369161E-004  0.6600757E+03  0.7818608E-02  0.9788054E-01
         13   -1    0    0    0    0  0.00000000000E+00  0.00000000000E+00  0.10000000000E+04  0.10000000000E+04  0.00000000000E+00 0. -1.
          2   -1    0    0  501    0 -0.00000000000E+00 -0.00000000000E+00 -0.10892497575E+03  0.10892497575E+03  0.00000000000E+00 0. -1.
    9000006    2    1    2  501    0  0.00000000000E+00  0.00000000000E+00  0.89107502425E+03  0.11089249757E+04  0.66007567974E+03 0.  0.
         13    1    3    3    0    0 -0.15220470172E+03  0.29283842156E+03  0.44202821647E+03  0.55164259854E+03  0.00000000000E+00 0. -1.
          2    1    3    3  501    0  0.15220470172E+03 -0.29283842156E+03  0.44904680779E+03  0.55728237721E+03  0.00000000000E+00 0. -1.
<mgrwt>
<rscale>  0 0.66007568E+03</rscale>
<asrwt>0</asrwt>
<pdfrwt beam="1">0</pdfrwt>
<pdfrwt beam="2">  1        2 0.39609166E+00 0.66007568E+03</pdfrwt>
<totfact> 0.41160933E+00</totfact>
</mgrwt>
</event>
<event>
 5    1  0.2369161E-004  0.6618719E+03  0.7818608E-02  0.9784754E-01
         13   -1    0    0    0    0  0.00000000000E+00  0.00000000000E+00  0.10000000000E+04  0.10000000000E+04  0.00000000000E+00 0. -1.
          2   -1    0    0  501    0 -0.00000000000E+00 -0.00000000000E+00 -0.10951859210E+03  0.10951859210E+03  0.00000000000E+00 0. -1.
    9000006    2    1    2  501    0  0.00000000000E+00  0.00000000000E+00  0.89048140790E+03  0.11095185921E+04  0.66187186706E+03 0.  0.
         13    1    3    3    0    0  0.27968154414E+03 -0.90615220597E+02  0.19053876027E+03  0.35033969730E+03  0.00000000000E+00 0. -1.
          4    1    3    3  501    0 -0.27968154414E+03  0.90615220597E+02  0.69994264763E+03  0.75917889480E+03  0.00000000000E+00 0. -1.
<mgrwt>
<rscale>  0 0.66187187E+03</rscale>
<asrwt>0</asrwt>
<pdfrwt beam="1">0</pdfrwt>
<pdfrwt beam="2">  1        2 0.39825027E+00 0.66187187E+03</pdfrwt>
<totfact> 0.40396675E+00</totfact>
</mgrwt>
</event>
<event>
 5    1  0.2369161E-004  0.6582698E+03  0.7818608E-02  0.9791384E-01
         13   -1    0    0    0    0  0.00000000000E+00  0.00000000000E+00  0.10000000000E+04  0.10000000000E+04  0.00000000000E+00 0. -1.
          2   -1    0    0  501    0 -0.00000000000E+00 -0.00000000000E+00 -0.10832978603E+03  0.10832978603E+03  0.00000000000E+00 0. -1.
    9000006    2    1    2  501    0  0.00000000000E+00  0.00000000000E+00  0.89167021397E+03  0.11083297860E+04  0.65826981102E+03 0.  0.
         13    1    3    3    0    0  0.25999312720E+03 -0.84856372040E+02  0.75415368246E+03  0.80221244496E+03  0.00000000000E+00 0. -1.
          2    1    3    3  501    0 -0.25999312720E+03  0.84856372040E+02  0.13751653151E+03  0.30611734107E+03  0.00000000000E+00 0. -1.
<mgrwt>
<rscale>  0 0.65826981E+03</rscale>
<asrwt>0</asrwt>
<pdfrwt beam="1">0</pdfrwt>
<pdfrwt beam="2">  1        2 0.39392733E+00 0.65826981E+03</pdfrwt>
<totfact> 0.41940262E+00</totfact>
</mgrwt>
</event>
<event>
 5    1  0.2369161E-004  0.6507946E+03  0.7818608E-02  0.9805289E-01
         13   -1    0    0    0    0  0.00000000000E+00  0.00000000000E+00  0.10000000000E+04  0.10000000000E+04  0.00000000000E+00 0. -1.
          2   -1    0    0  501    0 -0.00000000000E+00 -0.00000000000E+00 -0.10588340023E+03  0.10588340023E+03  0.00000000000E+00 0. -1.
    9000006    2    1    2  501    0  0.00000000000E+00  0.00000000000E+00  0.89411659977E+03  0.11058834002E+04  0.65079459197E+03 0.  0.
         13    1    3    3    0    0 -0.16376917374E+02  0.32374153619E+03  0.49531953486E+03  0.59196133936E+03  0.00000000000E+00 0. -1.
          4    1    3    3  501    0  0.16376917374E+02 -0.32374153619E+03  0.39879706490E+03  0.51392206087E+03  0.00000000000E+00 0. -1.
<mgrwt>
<rscale>  0 0.65079459E+03</rscale>
<asrwt>0</asrwt>
<pdfrwt beam="1">0</pdfrwt>
<pdfrwt beam="2">  1        2 0.38503136E+00 0.65079459E+03</pdfrwt>
<totfact> 0.45285673E+00</totfact>
</mgrwt>
</event>
<event>
 5    1  0.2369161E-004  0.6490464E+03  0.7818608E-02  0.9808570E-01
         13   -1    0    0    0    0  0.00000000000E+00  0.00000000000E+00  0.10000000000E+04  0.10000000000E+04  0.00000000000E+00 0. -1.
          2   -1    0    0  501    0 -0.00000000000E+00 -0.00000000000E+00 -0.10531530364E+03  0.10531530364E+03  0.00000000000E+00 0. -1.
    9000006    2    1    2  501    0  0.00000000000E+00  0.00000000000E+00  0.89468469636E+03  0.11053153036E+04  0.64904638859E+03 0.  0.
         13    1    3    3    0    0 -0.71991211268E+02  0.60716387460E+02 -0.81532309064E+02  0.12456617369E+03  0.00000000000E+00 0. -1.
          2    1    3    3  501    0  0.71991211268E+02 -0.60716387460E+02  0.97621700543E+03  0.98074912995E+03  0.00000000000E+00 0. -1.
<mgrwt>
<rscale>  0 0.64904639E+03</rscale>
<asrwt>0</asrwt>
<pdfrwt beam="1">0</pdfrwt>
<pdfrwt beam="2">  1        2 0.38296555E+00 0.64904639E+03</pdfrwt>
<totfact> 0.46096303E+00</totfact>
</mgrwt>
</event>
<event>
 5    1  0.2369161E-004  0.6611181E+03  0.7818608E-02  0.9786138E-01
         13   -1    0    0    0    0  0.00000000000E+00  0.00000000000E+00  0.10000000000E+04  0.10000000000E+04  0.00000000000E+00 0. -1.
          2   -1    0    0  501    0 -0.00000000000E+00 -0.00000000000E+00 -0.10926929899E+03  0.10926929899E+03  0.00000000000E+00 0. -1.
    9000006    2    1    2  501    0  0.00000000000E+00  0.00000000000E+00  0.89073070101E+03  0.11092692990E+04  0.66111814069E+03 0.  0.
         13    1    3    3    0    0 -0.22629284466E+02  0.74202597944E+02  0.98451018644E+03  0.98756185491E+03  0.00000000000E+00 0. -1.
          2    1    3    3  501    0  0.22629284466E+02 -0.74202597944E+02 -0.93779485431E+02  0.12170744408E+03  0.00000000000E+00 0. -1.
<mgrwt>
<rscale>  0 0.66111814E+03</rscale>
<asrwt>0</asrwt>
<pdfrwt beam="1">0</pdfrwt>
<pdfrwt beam="2">  1        2 0.39734374E+00 0.66111814E+03</pdfrwt>
<totfact> 0.40716061E+00</totfact>
</mgrwt>
</event>
<event>
 5    1  0.2369161E-004  0.6307950E+03  0.7818608E-02  0.9843499E-01
         13   -1    0    0    0    0  0.00000000000E+00  0.00000000000E+00  0.10000000000E+04  0.10000000000E+04  0.00000000000E+00 0. -1.
          2   -1    0    0  501    0 -0.00000000000E+00 -0.00000000000E+00 -0.99475569674E+02  0.99475569674E+02  0.00000000000E+00 0. -1.
    9000006    2    1    2  501    0  0.00000000000E+00  0.00000000000E+00  0.90052443033E+03  0.10994755697E+04  0.63079495773E+03 0.  0.
         13    1    3    3    0    0 -0.39818211965E+02  0.24008364706E+03  0.10057488871E+03  0.26332670929E+03  0.00000000000E+00 0. -1.
          4    1    3    3  501    0  0.39818211965E+02 -0.24008364706E+03  0.79994954161E+03  0.83614886038E+03  0.00000000000E+00 0. -1.
<mgrwt>
<rscale>  0 0.63079496E+03</rscale>
<asrwt>0</asrwt>
<pdfrwt beam="1">0</pdfrwt>
<pdfrwt beam="2">  1        2 0.36173011E+00 0.63079496E+03</pdfrwt>
<totfact> 0.55231829E+00</totfact>
</mgrwt>
</event>
<event>
 5    1  0.2369161E-004  0.6389060E+03  0.7818608E-02  0.9827822E-01
         13   -1    0    0    0    0  0.00000000000E+00  0.00000000000E+00  0.10000000000E+04  0.10000000000E+04  0.00000000000E+00 0. -1.
          2   -1    0    0  501    0 -0.00000000000E+00 -0.00000000000E+00 -0.10205020678E+03  0.10205020678E+03  0.00000000000E+00 0. -1.
    9000006    2    1    2  501    0  0.00000000000E+00  0.00000000000E+00  0.89794979322E+03  0.11020502068E+04  0.63890596110E+03 0.  0.
         13    1    3    3    0    0 -0.25689469927E+02  0.31807025497E+03  0.42329928928E+03  0.53010463521E+03  0.00000000000E+00 0. -1.
          4    1    3    3  501    0  0.25689469927E+02 -0.31807025497E+03  0.47465050393E+03  0.57194557157E+03  0.00000000000E+00 0. -1.
<mgrwt>
<rscale>  0 0.63890596E+03</rscale>
<asrwt>0</asrwt>
<pdfrwt beam="1">0</pdfrwt>
<pdfrwt beam="2">  1        2 0.37109244E+00 0.63890596E+03</pdfrwt>
<totfact> 0.51017215E+00</totfact>
</mgrwt>
</event>
<event>
 5    1  0.2369161E-004  0.6730128E+03  0.7818608E-02  0.9764530E-01
         13   -1    0    0    0    0  0.00000000000E+00  0.00000000000E+00  0.10000000000E+04  0.10000000000E+04  0.00000000000E+00 0. -1.
          2   -1    0    0  501    0 -0.00000000000E+00 -0.00000000000E+00 -0.11323657114E+03  0.11323657114E+03  0.00000000000E+00 0. -1.
    9000006    2    1    2  501    0  0.00000000000E+00  0.00000000000E+00  0.88676342886E+03  0.11132365711E+04  0.67301284132E+03 0.  0.
         13    1    3    3    0    0  0.20401156772E+03 -0.13121181724E+03  0.57582968713E+02  0.24930515244E+03  0.00000000000E+00 0. -1.
          2    1    3    3  501    0 -0.20401156772E+03  0.13121181724E+03  0.82918046014E+03  0.86393141871E+03  0.00000000000E+00 0. -1.
<mgrwt>
<rscale>  0 0.67301284E+03</rscale>
<asrwt>0</asrwt>
<pdfrwt beam="1">0</pdfrwt>
<pdfrwt beam="2">  1        2 0.41177022E+00 0.67301284E+03</pdfrwt>
<totfact> 0.35892501E+00</totfact>
</mgrwt>
</event>
<event>
 5    1  0.2369161E-004  0.6804513E+03  0.7818608E-02  0.9751260E-01
         13   -1    0    0    0    0  0.00000000000E+00  0.00000000000E+00  0.10000000000E+04  0.10000000000E+04  0.00000000000E+00 0. -1.
          2   -1    0    0  501    0 -0.00000000000E+00 -0.00000000000E+00 -0.11575348458E+03  0.11575348458E+03  0.00000000000E+00 0. -1.
    9000006    2    1    2  501    0  0.00000000000E+00  0.00000000000E+00  0.88424651542E+03  0.11157534846E+04  0.68045127551E+03 0.  0.
         13    1    3    3    0    0  0.29654294287E+03  0.14513914536E+03  0.30740208702E+03  0.45110878021E+03  0.00000000000E+00 0. -1.
          2    1    3    3  501    0 -0.29654294287E+03 -0.14513914536E+03  0.57684442840E+03  0.66464470438E+03  0.00000000000E+00 0. -1.
<mgrwt>
<rscale>  0 0.68045128E+03</rscale>
<asrwt>0</asrwt>
<pdfrwt beam="1">0</pdfrwt>
<pdfrwt beam="2">  1        2 0.42092265E+00 0.68045128E+03</pdfrwt>
<totfact> 0.33103612E+00</totfact>
</mgrwt>
</event>
<event>
 5    1  0.2369161E-004  0.6536229E+03  0.7818608E-02  0.9800005E-01
         13   -1    0    0    0    0  0.00000000000E+00  0.00000000000E+00  0.10000000000E+04  0.10000000000E+04  0.00000000000E+00 0. -1.
          2   -1    0    0  501    0 -0.00000000000E+00 -0.00000000000E+00 -0.10680572791E+03  0.10680572791E+03  0.00000000000E+00 0. -1.
    9000006    2    1    2  501    0  0.00000000000E+00  0.00000000000E+00  0.89319427209E+03  0.11068057279E+04  0.65362291242E+03 0.  0.
         13    1    3    3    0    0 -0.25358812208E+03  0.70734024615E+02  0.11870300220E+03  0.28879169072E+03  0.00000000000E+00 0. -1.
          2    1    3    3  501    0  0.25358812208E+03 -0.70734024615E+02  0.77449126989E+03  0.81801403719E+03  0.00000000000E+00 0. -1.
<mgrwt>
<rscale>  0 0.65362291E+03</rscale>
<asrwt>0</asrwt>
<pdfrwt beam="1">0</pdfrwt>
<pdfrwt beam="2">  1        2 0.38838528E+00 0.65362291E+03</pdfrwt>
<totfact> 0.43997066E+00</totfact>
</mgrwt>
</event>
<event>
 5    1  0.2369161E-004  0.6489414E+03  0.7818608E-02  0.9808768E-01
         13   -1    0    0    0    0  0.00000000000E+00  0.00000000000E+00  0.10000000000E+04  0.10000000000E+04  0.00000000000E+00 0. -1.
          2   -1    0    0  501    0 -0.00000000000E+00 -0.00000000000E+00 -0.10528122174E+03  0.10528122174E+03  0.00000000000E+00 0. -1.
    9000006    2    1    2  501    0  0.00000000000E+00  0.00000000000E+00  0.89471877826E+03  0.11052812217E+04  0.64894135865E+03 0.  0.
         13    1    3    3    0    0  0.17435783419E+02 -0.32378826114E+03  0.42732391983E+03  0.53642201396E+03  0.00000000000E+00 0. -1.
          2    1    3    3  501    0 -0.17435783419E+02  0.32378826114E+03  0.46739485843E+03  0.56885920778E+03  0.00000000000E+00 0. -1.
<mgrwt>
<rscale>  0 0.64894136E+03</rscale>
<asrwt>0</asrwt>
<pdfrwt beam="1">0</pdfrwt>
<pdfrwt beam="2">  1        2 0.38284161E+00 0.64894136E+03</pdfrwt>
<totfact> 0.46145351E+00</totfact>
</mgrwt>
</event>
<event>
 5    1  0.2369161E-004  0.6475985E+03  0.7818608E-02  0.9811296E-01
         13   -1    0    0    0    0  0.00000000000E+00  0.00000000000E+00  0.10000000000E+04  0.10000000000E+04  0.00000000000E+00 0. -1.
          2   -1    0    0  501    0 -0.00000000000E+00 -0.00000000000E+00 -0.10484596900E+03  0.10484596900E+03  0.00000000000E+00 0. -1.
    9000006    2    1    2  501    0  0.00000000000E+00  0.00000000000E+00  0.89515403100E+03  0.11048459690E+04  0.64759854540E+03 0.  0.
         13    1    3    3    0    0  0.32389754411E+02  0.77736673103E+02  0.98098913445E+03  0.98459726206E+03  0.00000000000E+00 0. -1.
          4    1    3    3  501    0 -0.32389754411E+02 -0.77736673103E+02 -0.85835103456E+02  0.12024870694E+03  0.00000000000E+00 0. -1.
<mgrwt>
<rscale>  0 0.64759855E+03</rscale>
<asrwt>0</asrwt>
<pdfrwt beam="1">0</pdfrwt>
<pdfrwt beam="2">  1        2 0.38125887E+00 0.64759855E+03</pdfrwt>
<totfact> 0.46775921E+00</totfact>
</mgrwt>
</event>
<event>
 5    1  0.2369161E-004  0.6438535E+03  0.7818608E-02  0.9818382E-01
         13   -1    0    0    0    0  0.00000000000E+00  0.00000000000E+00  0.10000000000E+04  0.10000000000E+04  0.00000000000E+00 0. -1.
          2   -1    0    0  501    0 -0.00000000000E+00 -0.00000000000E+00 -0.10363682142E+03  0.10363682142E+03  0.00000000000E+00 0. -1.
    9000006    2    1    2  501    0  0.00000000000E+00  0.00000000000E+00  0.89636317858E+03  0.11036368214E+04  0.64385346599E+03 0.  0.
         13    1    3    3    0    0 -0.23966560011E+03  0.15623354547E+03  0.70119924355E+03  0.75731690841E+03  0.00000000000E+00 0. -1.
          2    1    3    3  501    0  0.23966560011E+03 -0.15623354547E+03  0.19516393503E+03  0.34631991301E+03  0.00000000000E+00 0. -1.
<mgrwt>
<rscale>  0 0.64385347E+03</rscale>
<asrwt>0</asrwt>
<pdfrwt beam="1">0</pdfrwt>
<pdfrwt beam="2">  1        2 0.37686196E+00 0.64385347E+03</pdfrwt>
<totfact> 0.48569029E+00</totfact>
</mgrwt>
</event>
<event>
 5    1  0.2369161E-004  0.6377364E+03  0.7818608E-02  0.9830067E-01
         13   -1    0    0    0    0  0.00000000000E+00  0.00000000000E+00  0.10000000000E+04  0.10000000000E+04  0.00000000000E+00 0. -1.
          2   -1    0    0  501    0 -0.00000000000E+00 -0.00000000000E+00 -0.10167691403E+03  0.10167691403E+03  0.00000000000E+00 0. -1.
    9000006    2    1    2  501    0  0.00000000000E+00  0.00000000000E+00  0.89832308597E+03  0.11016769140E+04  0.63773635313E+03 0.  0.
         13    1    3    3    0    0  0.29280474238E+03  0.10232989977E+03  0.32138768568E+03  0.44664982935E+03  0.00000000000E+00 0. -1.
          2    1    3    3  501    0 -0.29280474238E+03 -0.10232989977E+03  0.57693540029E+03  0.65502708468E+03  0.00000000000E+00 0. -1.
<mgrwt>
<rscale>  0 0.63773635E+03</rscale>
<asrwt>0</asrwt>
<pdfrwt beam="1">0</pdfrwt>
<pdfrwt beam="2">  1        2 0.36973501E+00 0.63773635E+03</pdfrwt>
<totfact> 0.51609395E+00</totfact>
</mgrwt>
</event>
<event>
 5    1  0.2369161E-004  0.6727415E+03  0.7818608E-02  0.9765018E-01
         13   -1    0    0    0    0  0.00000000000E+00  0.00000000000E+00  0.10000000000E+04  0.10000000000E+04  0.00000000000E+00 0. -1.
          2   -1    0    0  501    0 -0.00000000000E+00 -0.00000000000E+00 -0.11314526690E+03  0.11314526690E+03  0.00000000000E+00 0. -1.
    9000006    2    1    2  501    0  0.00000000000E+00  0.00000000000E+00  0.88685473310E+03  0.11131452669E+04  0.67274145674E+03 0.  0.
         13    1    3    3    0    0 -0.43105133685E+02 -0.51096718794E+02  0.98889772320E+03  0.99115469739E+03  0.00000000000E+00 0. -1.
          2    1    3    3  501    0  0.43105133685E+02  0.51096718794E+02 -0.10204299010E+03  0.12199056951E+03  0.00000000000E+00 0. -1.
<mgrwt>
<rscale>  0 0.67274146E+03</rscale>
<asrwt>0</asrwt>
<pdfrwt beam="1">0</pdfrwt>
<pdfrwt beam="2">  1        2 0.41143820E+00 0.67274146E+03</pdfrwt>
<totfact> 0.35997496E+00</totfact>
</mgrwt>
</event>
<event>
 5    1  0.2369161E-004  0.6442591E+03  0.7818608E-02  0.9817612E-01
         13   -1    0    0    0    0  0.00000000000E+00  0.00000000000E+00  0.10000000000E+04  0.10000000000E+04  0.00000000000E+00 0. -1.
          2   -1    0    0  501    0 -0.00000000000E+00 -0.00000000000E+00 -0.10376746203E+03  0.10376746203E+03  0.00000000000E+00 0. -1.
    9000006    2    1    2  501    0  0.00000000000E+00  0.00000000000E+00  0.89623253797E+03  0.11037674620E+04  0.64425914672E+03 0.  0.
         13    1    3    3    0    0  0.23134487023E+03  0.63972043946E+02  0.80051332971E+02  0.25302388681E+03  0.00000000000E+00 0. -1.
          2    1    3    3  501    0 -0.23134487023E+03 -0.63972043946E+02  0.81618120500E+03  0.85074357522E+03  0.00000000000E+00 0. -1.
<mgrwt>
<rscale>  0 0.64425915E+03</rscale>
<asrwt>0</asrwt>
<pdfrwt beam="1">0</pdfrwt>
<pdfrwt beam="2">  1        2 0.37733702E+00 0.64425915E+03</pdfrwt>
<totfact> 0.48372322E+00</totfact>
</mgrwt>
</event>
<event>
 5    1  0.2369161E-004  0.6391637E+03  0.7818608E-02  0.9827328E-01
         13   -1    0    0    0    0  0.00000000000E+00  0.00000000000E+00  0.10000000000E+04  0.10000000000E+04  0.00000000000E+00 0. -1.
          2   -1    0    0  501    0 -0.00000000000E+00 -0.00000000000E+00 -0.10213256028E+03  0.10213256028E+03  0.00000000000E+00 0. -1.
    9000006    2    1    2  501    0  0.00000000000E+00  0.00000000000E+00  0.89786743972E+03  0.11021325603E+04  0.63916370446E+03 0.  0.
         13    1    3    3    0    0  0.18617038242E+03  0.10240775795E+03  0.86056185632E+03  0.88640479958E+03  0.00000000000E+00 0. -1.
          2    1    3    3  501    0 -0.18617038242E+03 -0.10240775795E+03  0.37305583409E+02  0.21572776069E+03  0.00000000000E+00 0. -1.
<mgrwt>
<rscale>  0 0.63916370E+03</rscale>
<asrwt>0</asrwt>
<pdfrwt beam="1">0</pdfrwt>
<pdfrwt beam="2">  1        2 0.37139191E+00 0.63916370E+03</pdfrwt>
<totfact> 0.50887413E+00</totfact>
</mgrwt>
</event>
<event>
 5    1  0.2369161E-004  0.6393797E+03  0.7818608E-02  0.9826914E-01
         13   -1    0    0    0    0  0.00000000000E+00  0.00000000000E+00  0.10000000000E+04  0.10000000000E+04  0.00000000000E+00 0. -1.
          2   -1    0    0  501    0 -0.00000000000E+00 -0.00000000000E+00 -0.10220159778E+03  0.10220159778E+03  0.00000000000E+00 0. -1.
    9000006    2    1    2  501    0  0.00000000000E+00  0.00000000000E+00  0.89779840222E+03  0.11022015978E+04  0.63937969246E+03 0.  0.
         13    1    3    3    0    0 -0.29487852110E+03  0.78758699139E+02  0.28494813878E+03  0.41755444757E+03  0.00000000000E+00 0. -1.
          2    1    3    3  501    0  0.29487852110E+03 -0.78758699139E+02  0.61285026344E+03  0.68464715021E+03  0.00000000000E+00 0. -1.
<mgrwt>
<rscale>  0 0.63937969E+03</rscale>
<asrwt>0</asrwt>
<pdfrwt beam="1">0</pdfrwt>
<pdfrwt beam="2">  1        2 0.37164296E+00 0.63937969E+03</pdfrwt>
<totfact> 0.50778832E+00</totfact>
</mgrwt>
</event>
<event>
 5    1  0.2369161E-004  0.6455210E+03  0.7818608E-02  0.9815220E-01
         13   -1    0    0    0    0  0.00000000000E+00  0.00000000000E+00  0.10000000000E+04  0.10000000000E+04  0.00000000000E+00 0. -1.
          2   -1    0    0  501    0 -0.00000000000E+00 -0.00000000000E+00 -0.10417434527E+03  0.10417434527E+03  0.00000000000E+00 0. -1.
    9000006    2    1    2  501    0  0.00000000000E+00  0.00000000000E+00  0.89582565473E+03  0.11041743453E+04  0.64552101523E+03 0.  0.
         13    1    3    3    0    0 -0.28984838440E+03  0.19665759043E+02  0.20737067490E+03  0.35693336188E+03  0.00000000000E+00 0. -1.
          2    1    3    3  501    0  0.28984838440E+03 -0.19665759043E+02  0.68845497982E+03  0.74724098339E+03  0.00000000000E+00 0. -1.
<mgrwt>
<rscale>  0 0.64552102E+03</rscale>
<asrwt>0</asrwt>
<pdfrwt beam="1">0</pdfrwt>
<pdfrwt beam="2">  1        2 0.37881660E+00 0.64552102E+03</pdfrwt>
<totfact> 0.47764318E+00</totfact>
</mgrwt>
</event>
<event>
 5    1  0.2369161E-004  0.6442951E+03  0.7818608E-02  0.9817543E-01
         13   -1    0    0    0    0  0.00000000000E+00  0.00000000000E+00  0.10000000000E+04  0.10000000000E+04  0.00000000000E+00 0. -1.
          2   -1    0    0  501    0 -0.00000000000E+00 -0.00000000000E+00 -0.10377904850E+03  0.10377904850E+03  0.00000000000E+00 0. -1.
    9000006    2    1    2  501    0  0.00000000000E+00  0.00000000000E+00  0.89622095150E+03  0.11037790485E+04  0.64429511406E+03 0.  0.
         13    1    3    3    0    0  0.17071521879E+03  0.25145767423E+03  0.26516000081E+03  0.40334163421E+03  0.00000000000E+00 0. -1.
          4    1    3    3  501    0 -0.17071521879E+03 -0.25145767423E+03  0.63106095069E+03  0.70043741429E+03  0.00000000000E+00 0. -1.
<mgrwt>
<rscale>  0 0.64429511E+03</rscale>
<asrwt>0</asrwt>
<pdfrwt beam="1">0</pdfrwt>
<pdfrwt beam="2">  1        2 0.37737915E+00 0.64429511E+03</pdfrwt>
<totfact> 0.48354911E+00</totfact>
</mgrwt>
</event>
<event>
 5    1  0.2369161E-004  0.5018334E+03  0.7818608E-02  0.1013301E+00
         13   -1    0    0    0    0  0.00000000000E+00  0.00000000000E+00  0.10000000000E+04  0.10000000000E+04  0.00000000000E+00 0. -1.
          2   -1    0    0  501    0 -0.00000000000E+00 -0.00000000000E+00 -0.62959189147E+02  0.62959189147E+02  0.00000000000E+00 0. -1.
    9000006    2    1    2  501    0  0.00000000000E+00  0.00000000000E+00  0.93704081085E+03  0.10629591891E+04  0.50183339525E+03 0.  0.
         13    1    3    3    0    0  0.22516070032E+03 -0.47777536727E+02  0.25692612718E+03  0.34495082086E+03  0.00000000000E+00 0. -1.
          4    1    3    3  501    0 -0.22516070032E+03  0.47777536727E+02  0.68011468367E+03  0.71800836829E+03  0.00000000000E+00 0. -1.
<mgrwt>
<rscale>  0 0.50183340E+03</rscale>
<asrwt>0</asrwt>
<pdfrwt beam="1">0</pdfrwt>
<pdfrwt beam="2">  1        2 0.22894299E+00 0.50183340E+03</pdfrwt>
<totfact> 0.16610953E+01</totfact>
</mgrwt>
</event>
<event>
 5    1  0.2369161E-004  0.6513274E+03  0.7818608E-02  0.9804292E-01
         13   -1    0    0    0    0  0.00000000000E+00  0.00000000000E+00  0.10000000000E+04  0.10000000000E+04  0.00000000000E+00 0. -1.
          2   -1    0    0  501    0 -0.00000000000E+00 -0.00000000000E+00 -0.10605684633E+03  0.10605684633E+03  0.00000000000E+00 0. -1.
    9000006    2    1    2  501    0  0.00000000000E+00  0.00000000000E+00  0.89394315367E+03  0.11060568463E+04  0.65132740256E+03 0.  0.
         13    1    3    3    0    0  0.52320219559E+02 -0.37208266665E+02  0.98914688085E+03  0.99122823425E+03  0.00000000000E+00 0. -1.
          2    1    3    3  501    0 -0.52320219559E+02  0.37208266665E+02 -0.95203727183E+02  0.11482861208E+03  0.00000000000E+00 0. -1.
<mgrwt>
<rscale>  0 0.65132740E+03</rscale>
<asrwt>0</asrwt>
<pdfrwt beam="1">0</pdfrwt>
<pdfrwt beam="2">  1        2 0.38566207E+00 0.65132740E+03</pdfrwt>
<totfact> 0.45040768E+00</totfact>
</mgrwt>
</event>
<event>
 5    1  0.2369161E-004  0.6210307E+03  0.7818608E-02  0.9862710E-01
         13   -1    0    0    0    0  0.00000000000E+00  0.00000000000E+00  0.10000000000E+04  0.10000000000E+04  0.00000000000E+00 0. -1.
          2   -1    0    0  501    0 -0.00000000000E+00 -0.00000000000E+00 -0.96419786973E+02  0.96419786973E+02  0.00000000000E+00 0. -1.
    9000006    2    1    2  501    0  0.00000000000E+00  0.00000000000E+00  0.90358021303E+03  0.10964197870E+04  0.62103071413E+03 0.  0.
         13    1    3    3    0    0  0.10859859399E+03  0.13721848155E+03  0.90465385777E+03  0.92142344699E+03  0.00000000000E+00 0. -1.
          4    1    3    3  501    0 -0.10859859399E+03 -0.13721848155E+03 -0.10736447403E+01  0.17499633998E+03  0.00000000000E+00 0. -1.
<mgrwt>
<rscale>  0 0.62103071E+03</rscale>
<asrwt>0</asrwt>
<pdfrwt beam="1">0</pdfrwt>
<pdfrwt beam="2">  1        2 0.35061815E+00 0.62103071E+03</pdfrwt>
<totfact> 0.60650567E+00</totfact>
</mgrwt>
</event>
<event>
 5    1  0.2369161E-004  0.5823556E+03  0.7818608E-02  0.9942704E-01
         13   -1    0    0    0    0  0.00000000000E+00  0.00000000000E+00  0.10000000000E+04  0.10000000000E+04  0.00000000000E+00 0. -1.
          2   -1    0    0  501    0 -0.00000000000E+00 -0.00000000000E+00 -0.84784502544E+02  0.84784502544E+02  0.00000000000E+00 0. -1.
    9000006    2    1    2  501    0  0.00000000000E+00  0.00000000000E+00  0.91521549746E+03  0.10847845025E+04  0.58235557023E+03 0.  0.
         13    1    3    3    0    0 -0.16216382594E+03 -0.30886292295E+02  0.10805466309E+02  0.16543224474E+03  0.00000000000E+00 0. -1.
          2    1    3    3  501    0  0.16216382594E+03  0.30886292295E+02  0.90441003115E+03  0.91935225781E+03  0.00000000000E+00 0. -1.
<mgrwt>
<rscale>  0 0.58235557E+03</rscale>
<asrwt>0</asrwt>
<pdfrwt beam="1">0</pdfrwt>
<pdfrwt beam="2">  1        2 0.30830793E+00 0.58235557E+03</pdfrwt>
<totfact> 0.86215269E+00</totfact>
</mgrwt>
</event>
<event>
 5    1  0.2369161E-004  0.6797423E+03  0.7818608E-02  0.9752517E-01
         13   -1    0    0    0    0  0.00000000000E+00  0.00000000000E+00  0.10000000000E+04  0.10000000000E+04  0.00000000000E+00 0. -1.
          2   -1    0    0  501    0 -0.00000000000E+00 -0.00000000000E+00 -0.11551241535E+03  0.11551241535E+03  0.00000000000E+00 0. -1.
    9000006    2    1    2  501    0  0.00000000000E+00  0.00000000000E+00  0.88448758465E+03  0.11155124153E+04  0.67974234927E+03 0.  0.
         13    1    3    3    0    0  0.84502879753E+02  0.16093412303E+03 -0.29040586703E+02  0.18407575701E+03  0.00000000000E+00 0. -1.
          2    1    3    3  501    0 -0.84502879753E+02 -0.16093412303E+03  0.91352817135E+03  0.93143665834E+03  0.00000000000E+00 0. -1.
<mgrwt>
<rscale>  0 0.67974235E+03</rscale>
<asrwt>0</asrwt>
<pdfrwt beam="1">0</pdfrwt>
<pdfrwt beam="2">  1        2 0.42004603E+00 0.67974235E+03</pdfrwt>
<totfact> 0.33362125E+00</totfact>
</mgrwt>
</event>
<event>
 5    1  0.2369161E-004  0.6381397E+03  0.7818608E-02  0.9829292E-01
         13   -1    0    0    0    0  0.00000000000E+00  0.00000000000E+00  0.10000000000E+04  0.10000000000E+04  0.00000000000E+00 0. -1.
          2   -1    0    0  501    0 -0.00000000000E+00 -0.00000000000E+00 -0.10180557834E+03  0.10180557834E+03  0.00000000000E+00 0. -1.
    9000006    2    1    2  501    0  0.00000000000E+00  0.00000000000E+00  0.89819442166E+03  0.11018055783E+04  0.63813972870E+03 0.  0.
         13    1    3    3    0    0 -0.59422125601E+02 -0.22235982718E+03  0.83063331716E+03  0.86193189367E+03  0.00000000000E+00 0. -1.
          4    1    3    3  501    0  0.59422125601E+02  0.22235982718E+03  0.67561104502E+02  0.23987368467E+03  0.00000000000E+00 0. -1.
<mgrwt>
<rscale>  0 0.63813973E+03</rscale>
<asrwt>0</asrwt>
<pdfrwt beam="1">0</pdfrwt>
<pdfrwt beam="2">  1        2 0.37020288E+00 0.63813973E+03</pdfrwt>
<totfact> 0.51404578E+00</totfact>
</mgrwt>
</event>
<event>
 5    1  0.2369161E-004  0.6642988E+03  0.7818608E-02  0.9780312E-01
         13   -1    0    0    0    0  0.00000000000E+00  0.00000000000E+00  0.10000000000E+04  0.10000000000E+04  0.00000000000E+00 0. -1.
          2   -1    0    0  501    0 -0.00000000000E+00 -0.00000000000E+00 -0.11032321323E+03  0.11032321323E+03  0.00000000000E+00 0. -1.
    9000006    2    1    2  501    0  0.00000000000E+00  0.00000000000E+00  0.88967678677E+03  0.11103232132E+04  0.66429876781E+03 0.  0.
         13    1    3    3    0    0  0.20186878604E+03 -0.24365150333E+03  0.61369457938E+03  0.69046223547E+03  0.00000000000E+00 0. -1.
          4    1    3    3  501    0 -0.20186878604E+03  0.24365150333E+03  0.27598220739E+03  0.41986097776E+03  0.00000000000E+00 0. -1.
<mgrwt>
<rscale>  0 0.66429877E+03</rscale>
<asrwt>0</asrwt>
<pdfrwt beam="1">0</pdfrwt>
<pdfrwt beam="2">  1        2 0.40117617E+00 0.66429877E+03</pdfrwt>
<totfact> 0.39381119E+00</totfact>
</mgrwt>
</event>
<event>
 5    1  0.2369161E-004  0.6460299E+03  0.7818608E-02  0.9814257E-01
         13   -1    0    0    0    0  0.00000000000E+00  0.00000000000E+00  0.10000000000E+04  0.10000000000E+04  0.00000000000E+00 0. -1.
          2   -1    0    0  501    0 -0.00000000000E+00 -0.00000000000E+00 -0.10433866186E+03  0.10433866186E+03  0.00000000000E+00 0. -1.
    9000006    2    1    2  501    0  0.00000000000E+00  0.00000000000E+00  0.89566133814E+03  0.11043386619E+04  0.64602991220E+03 0.  0.
         13    1    3    3    0    0 -0.27528512619E+03 -0.15234151013E+03  0.32281085095E+03  0.45077342634E+03  0.00000000000E+00 0. -1.
          2    1    3    3  501    0  0.27528512619E+03  0.15234151013E+03  0.57285048719E+03  0.65356523552E+03  0.00000000000E+00 0. -1.
<mgrwt>
<rscale>  0 0.64602991E+03</rscale>
<asrwt>0</asrwt>
<pdfrwt beam="1">0</pdfrwt>
<pdfrwt beam="2">  1        2 0.37941412E+00 0.64602991E+03</pdfrwt>
<totfact> 0.47520760E+00</totfact>
</mgrwt>
</event>
<event>
 5    1  0.2369161E-004  0.6503782E+03  0.7818608E-02  0.9806070E-01
         13   -1    0    0    0    0  0.00000000000E+00  0.00000000000E+00  0.10000000000E+04  0.10000000000E+04  0.00000000000E+00 0. -1.
          2   -1    0    0  501    0 -0.00000000000E+00 -0.00000000000E+00 -0.10574793855E+03  0.10574793855E+03  0.00000000000E+00 0. -1.
    9000006    2    1    2  501    0  0.00000000000E+00  0.00000000000E+00  0.89425206145E+03  0.11057479385E+04  0.65037816245E+03 0.  0.
         13    1    3    3    0    0 -0.28348790306E+03  0.10129050954E+03  0.65620290824E+03  0.72196081285E+03  0.00000000000E+00 0. -1.
          2    1    3    3  501    0  0.28348790306E+03 -0.10129050954E+03  0.23804915321E+03  0.38378712570E+03  0.00000000000E+00 0. -1.
<mgrwt>
<rscale>  0 0.65037816E+03</rscale>
<asrwt>0</asrwt>
<pdfrwt beam="1">0</pdfrwt>
<pdfrwt beam="2">  1        2 0.38453877E+00 0.65037816E+03</pdfrwt>
<totfact> 0.45477783E+00</totfact>
</mgrwt>
</event>
<event>
 5    1  0.2369161E-004  0.6591547E+03  0.7818608E-02  0.9789751E-01
         13   -1    0    0    0    0  0.00000000000E+00  0.00000000000E+00  0.10000000000E+04  0.10000000000E+04  0.00000000000E+00 0. -1.
          2   -1    0    0  501    0 -0.00000000000E+00 -0.00000000000E+00 -0.10862121358E+03  0.10862121358E+03  0.00000000000E+00 0. -1.
    9000006    2    1    2  501    0  0.00000000000E+00  0.00000000000E+00  0.89137878642E+03  0.11086212136E+04  0.65915465130E+03 0.  0.
         13    1    3    3    0    0  0.30936607523E+03 -0.19424857151E+02  0.63400415386E+03  0.70572371413E+03  0.00000000000E+00 0. -1.
          2    1    3    3  501    0 -0.30936607523E+03  0.19424857151E+02  0.25737463256E+03  0.40289749945E+03  0.00000000000E+00 0. -1.
<mgrwt>
<rscale>  0 0.65915465E+03</rscale>
<asrwt>0</asrwt>
<pdfrwt beam="1">0</pdfrwt>
<pdfrwt beam="2">  1        2 0.39498706E+00 0.65915465E+03</pdfrwt>
<totfact> 0.41557027E+00</totfact>
</mgrwt>
</event>
<event>
 5    1  0.2369161E-004  0.6410975E+03  0.7818608E-02  0.9823629E-01
         13   -1    0    0    0    0  0.00000000000E+00  0.00000000000E+00  0.10000000000E+04  0.10000000000E+04  0.00000000000E+00 0. -1.
          2   -1    0    0  501    0 -0.00000000000E+00 -0.00000000000E+00 -0.10275148626E+03  0.10275148626E+03  0.00000000000E+00 0. -1.
    9000006    2    1    2  501    0  0.00000000000E+00  0.00000000000E+00  0.89724851374E+03  0.11027514863E+04  0.64109745363E+03 0.  0.
         13    1    3    3    0    0 -0.23427674868E+02 -0.31199510413E+03  0.56855955583E+03  0.64896052999E+03  0.00000000000E+00 0. -1.
          2    1    3    3  501    0  0.23427674868E+02  0.31199510413E+03  0.32868895790E+03  0.45379095628E+03  0.00000000000E+00 0. -1.
<mgrwt>
<rscale>  0 0.64109745E+03</rscale>
<asrwt>0</asrwt>
<pdfrwt beam="1">0</pdfrwt>
<pdfrwt beam="2">  1        2 0.37364256E+00 0.64109745E+03</pdfrwt>
<totfact> 0.49921518E+00</totfact>
</mgrwt>
</event>
<event>
 5    1  0.2369161E-004  0.6500159E+03  0.7818608E-02  0.9806749E-01
         13   -1    0    0    0    0  0.00000000000E+00  0.00000000000E+00  0.10000000000E+04  0.10000000000E+04  0.00000000000E+00 0. -1.
          2   -1    0    0  501    0 -0.00000000000E+00 -0.00000000000E+00 -0.10563018275E+03  0.10563018275E+03  0.00000000000E+00 0. -1.
    9000006    2    1    2  501    0  0.00000000000E+00  0.00000000000E+00  0.89436981725E+03  0.11056301828E+04  0.65001594673E+03 0.  0.
         13    1    3    3    0    0 -0.38894076528E+02 -0.32265985158E+03  0.44235782679E+03  0.54891035328E+03  0.00000000000E+00 0. -1.
          2    1    3    3  501    0  0.38894076528E+02  0.32265985158E+03  0.45201199046E+03  0.55671982947E+03  0.00000000000E+00 0. -1.
<mgrwt>
<rscale>  0 0.65001595E+03</rscale>
<asrwt>0</asrwt>
<pdfrwt beam="1">0</pdfrwt>
<pdfrwt beam="2">  1        2 0.38411057E+00 0.65001595E+03</pdfrwt>
<totfact> 0.45645383E+00</totfact>
</mgrwt>
</event>
<event>
 5    1  0.2369161E-004  0.6561095E+03  0.7818608E-02  0.9795382E-01
         13   -1    0    0    0    0  0.00000000000E+00  0.00000000000E+00  0.10000000000E+04  0.10000000000E+04  0.00000000000E+00 0. -1.
          2   -1    0    0  501    0 -0.00000000000E+00 -0.00000000000E+00 -0.10761991610E+03  0.10761991610E+03  0.00000000000E+00 0. -1.
    9000006    2    1    2  501    0  0.00000000000E+00  0.00000000000E+00  0.89238008390E+03  0.11076199161E+04  0.65610949116E+03 0.  0.
         13    1    3    3    0    0 -0.27424658623E+03 -0.13780527625E+03  0.25063666558E+03  0.39625777261E+03  0.00000000000E+00 0. -1.
          4    1    3    3  501    0  0.27424658623E+03  0.13780527625E+03  0.64174341832E+03  0.71136214349E+03  0.00000000000E+00 0. -1.
<mgrwt>
<rscale>  0 0.65610949E+03</rscale>
<asrwt>0</asrwt>
<pdfrwt beam="1">0</pdfrwt>
<pdfrwt beam="2">  1        2 0.39134597E+00 0.65610949E+03</pdfrwt>
<totfact> 0.42887212E+00</totfact>
</mgrwt>
</event>
<event>
 5    1  0.2369161E-004  0.5931467E+03  0.7818608E-02  0.9919727E-01
         13   -1    0    0    0    0  0.00000000000E+00  0.00000000000E+00  0.10000000000E+04  0.10000000000E+04  0.00000000000E+00 0. -1.
          2   -1    0    0  501    0 -0.00000000000E+00 -0.00000000000E+00 -0.87955748783E+02  0.87955748783E+02  0.00000000000E+00 0. -1.
    9000006    2    1    2  501    0  0.00000000000E+00  0.00000000000E+00  0.91204425122E+03  0.10879557488E+04  0.59314668939E+03 0.  0.
         13    1    3    3    0    0 -0.49385788330E+02 -0.12530971064E+03 -0.28620064368E+02  0.13769745006E+03  0.00000000000E+00 0. -1.
          2    1    3    3  501    0  0.49385788330E+02  0.12530971064E+03  0.94066431558E+03  0.95025829872E+03  0.00000000000E+00 0. -1.
<mgrwt>
<rscale>  0 0.59314669E+03</rscale>
<asrwt>0</asrwt>
<pdfrwt beam="1">0</pdfrwt>
<pdfrwt beam="2">  1        2 0.31983976E+00 0.59314669E+03</pdfrwt>
<totfact> 0.78376681E+00</totfact>
</mgrwt>
</event>
<event>
 5    1  0.2369161E-004  0.6530541E+03  0.7818608E-02  0.9801065E-01
         13   -1    0    0    0    0  0.00000000000E+00  0.00000000000E+00  0.10000000000E+04  0.10000000000E+04  0.00000000000E+00 0. -1.
          2   -1    0    0  501    0 -0.00000000000E+00 -0.00000000000E+00 -0.10661992171E+03  0.10661992171E+03  0.00000000000E+00 0. -1.
    9000006    2    1    2  501    0  0.00000000000E+00  0.00000000000E+00  0.89338007829E+03  0.11066199217E+04  0.65305412245E+03 0.  0.
         13    1    3    3    0    0  0.18318592635E+03 -0.23365326674E+03  0.67697780727E+03  0.73922248627E+03  0.00000000000E+00 0. -1.
          4    1    3    3  501    0 -0.18318592635E+03  0.23365326674E+03  0.21640227102E+03  0.36739743544E+03  0.00000000000E+00 0. -1.
<mgrwt>
<rscale>  0 0.65305412E+03</rscale>
<asrwt>0</asrwt>
<pdfrwt beam="1">0</pdfrwt>
<pdfrwt beam="2">  1        2 0.38770962E+00 0.65305412E+03</pdfrwt>
<totfact> 0.44253957E+00</totfact>
</mgrwt>
</event>
<event>
 5    1  0.2369161E-004  0.5217404E+03  0.7818608E-02  0.1008255E+00
         13   -1    0    0    0    0  0.00000000000E+00  0.00000000000E+00  0.10000000000E+04  0.10000000000E+04  0.00000000000E+00 0. -1.
          2   -1    0    0  501    0 -0.00000000000E+00 -0.00000000000E+00 -0.68053266592E+02  0.68053266592E+02  0.00000000000E+00 0. -1.
    9000006    2    1    2  501    0  0.00000000000E+00  0.00000000000E+00  0.93194673341E+03  0.10680532666E+04  0.52174042049E+03 0.  0.
         13    1    3    3    0    0 -0.64776918697E+02  0.11709091820E+02 -0.50772132603E+02  0.83132192779E+02  0.00000000000E+00 0. -1.
          4    1    3    3  501    0  0.64776918697E+02 -0.11709091820E+02  0.98271886601E+03  0.98492107381E+03  0.00000000000E+00 0. -1.
<mgrwt>
<rscale>  0 0.52174042E+03</rscale>
<asrwt>0</asrwt>
<pdfrwt beam="1">0</pdfrwt>
<pdfrwt beam="2">  1        2 0.24746695E+00 0.52174042E+03</pdfrwt>
<totfact> 0.14235167E+01</totfact>
</mgrwt>
</event>
<event>
 5    1  0.2369161E-004  0.6347280E+03  0.7818608E-02  0.9835866E-01
         13   -1    0    0    0    0  0.00000000000E+00  0.00000000000E+00  0.10000000000E+04  0.10000000000E+04  0.00000000000E+00 0. -1.
          2   -1    0    0  501    0 -0.00000000000E+00 -0.00000000000E+00 -0.10071991969E+03  0.10071991969E+03  0.00000000000E+00 0. -1.
    9000006    2    1    2  501    0  0.00000000000E+00  0.00000000000E+00  0.89928008031E+03  0.11007199197E+04  0.63472803527E+03 0.  0.
         13    1    3    3    0    0  0.15126669104E+03 -0.27898684890E+03  0.45337795411E+03  0.55341380806E+03  0.00000000000E+00 0. -1.
          2    1    3    3  501    0 -0.15126669104E+03  0.27898684890E+03  0.44590212620E+03  0.54730611163E+03  0.00000000000E+00 0. -1.
<mgrwt>
<rscale>  0 0.63472804E+03</rscale>
<asrwt>0</asrwt>
<pdfrwt beam="1">0</pdfrwt>
<pdfrwt beam="2">  1        2 0.36625503E+00 0.63472804E+03</pdfrwt>
<totfact> 0.53156459E+00</totfact>
</mgrwt>
</event>
<event>
 5    1  0.2369161E-004  0.6717257E+03  0.7818608E-02  0.9766845E-01
         13   -1    0    0    0    0  0.00000000000E+00  0.00000000000E+00  0.10000000000E+04  0.10000000000E+04  0.00000000000E+00 0. -1.
          2   -1    0    0  501    0 -0.00000000000E+00 -0.00000000000E+00 -0.11280384368E+03  0.11280384368E+03  0.00000000000E+00 0. -1.
    9000006    2    1    2  501    0  0.00000000000E+00  0.00000000000E+00  0.88719615632E+03  0.11128038437E+04  0.67172566923E+03 0.  0.
         13    1    3    3    0    0 -0.27590390621E+03 -0.26117875953E+02  0.12927932655E+03  0.30580754272E+03  0.00000000000E+00 0. -1.
          4    1    3    3  501    0  0.27590390621E+03  0.26117875953E+02  0.75791682977E+03  0.80699630096E+03  0.00000000000E+00 0. -1.
<mgrwt>
<rscale>  0 0.67172567E+03</rscale>
<asrwt>0</asrwt>
<pdfrwt beam="1">0</pdfrwt>
<pdfrwt beam="2">  1        2 0.41019666E+00 0.67172567E+03</pdfrwt>
<totfact> 0.36392546E+00</totfact>
</mgrwt>
</event>
<event>
 5    1  0.2369161E-004  0.6222650E+03  0.7818608E-02  0.9860260E-01
         13   -1    0    0    0    0  0.00000000000E+00  0.00000000000E+00  0.10000000000E+04  0.10000000000E+04  0.00000000000E+00 0. -1.
          2   -1    0    0  501    0 -0.00000000000E+00 -0.00000000000E+00 -0.96803445519E+02  0.96803445519E+02  0.00000000000E+00 0. -1.
    9000006    2    1    2  501    0  0.00000000000E+00  0.00000000000E+00  0.90319655448E+03  0.10968034455E+04  0.62226504166E+03 0.  0.
         13    1    3    3    0    0 -0.24656699120E+03  0.99458380069E+02  0.73644311562E+03  0.78296597184E+03  0.00000000000E+00 0. -1.
          4    1    3    3  501    0  0.24656699120E+03 -0.99458380069E+02  0.16675343886E+03  0.31383747368E+03  0.00000000000E+00 0. -1.
<mgrwt>
<rscale>  0 0.62226504E+03</rscale>
<asrwt>0</asrwt>
<pdfrwt beam="1">0</pdfrwt>
<pdfrwt beam="2">  1        2 0.35201327E+00 0.62226504E+03</pdfrwt>
<totfact> 0.59944127E+00</totfact>
</mgrwt>
</event>
<event>
 5    1  0.2369161E-004  0.6507939E+03  0.7818608E-02  0.9805291E-01
         13   -1    0    0    0    0  0.00000000000E+00  0.00000000000E+00  0.10000000000E+04  0.10000000000E+04  0.00000000000E+00 0. -1.
          2   -1    0    0  501    0 -0.00000000000E+00 -0.00000000000E+00 -0.10588318667E+03  0.10588318667E+03  0.00000000000E+00 0. -1.
    9000006    2    1    2  501    0  0.00000000000E+00  0.00000000000E+00  0.89411681333E+03  0.11058831867E+04  0.65079393566E+03 0.  0.
         13    1    3    3    0    0 -0.25320805589E+03 -0.13928674651E+03  0.70120249279E+03  0.75841944412E+03  0.00000000000E+00 0. -1.
          4    1    3    3  501    0  0.25320805589E+03  0.13928674651E+03  0.19291432053E+03  0.34746374255E+03  0.00000000000E+00 0. -1.
<mgrwt>
<rscale>  0 0.65079394E+03</rscale>
<asrwt>0</asrwt>
<pdfrwt beam="1">0</pdfrwt>
<pdfrwt beam="2">  1        2 0.38503058E+00 0.65079394E+03</pdfrwt>
<totfact> 0.45285975E+00</totfact>
</mgrwt>
</event>
<event>
 5    1  0.2369161E-004  0.6583086E+03  0.7818608E-02  0.9791312E-01
         13   -1    0    0    0    0  0.00000000000E+00  0.00000000000E+00  0.10000000000E+04  0.10000000000E+04  0.00000000000E+00 0. -1.
          2   -1    0    0  501    0 -0.00000000000E+00 -0.00000000000E+00 -0.10834255687E+03  0.10834255687E+03  0.00000000000E+00 0. -1.
    9000006    2    1    2  501    0  0.00000000000E+00  0.00000000000E+00  0.89165744313E+03  0.11083425569E+04  0.65830861112E+03 0.  0.
         13    1    3    3    0    0 -0.19259519268E+03 -0.17251891066E+03  0.10290318269E+03  0.27828896454E+03  0.00000000000E+00 0. -1.
          2    1    3    3  501    0  0.19259519268E+03  0.17251891066E+03  0.78875426044E+03  0.83005359233E+03  0.00000000000E+00 0. -1.
<mgrwt>
<rscale>  0 0.65830861E+03</rscale>
<asrwt>0</asrwt>
<pdfrwt beam="1">0</pdfrwt>
<pdfrwt beam="2">  1        2 0.39397376E+00 0.65830861E+03</pdfrwt>
<totfact> 0.41923402E+00</totfact>
</mgrwt>
</event>
<event>
 5    1  0.2369161E-004  0.6183385E+03  0.7818608E-02  0.9868073E-01
         13   -1    0    0    0    0  0.00000000000E+00  0.00000000000E+00  0.10000000000E+04  0.10000000000E+04  0.00000000000E+00 0. -1.
          2   -1    0    0  501    0 -0.00000000000E+00 -0.00000000000E+00 -0.95585609812E+02  0.95585609812E+02  0.00000000000E+00 0. -1.
    9000006    2    1    2  501    0  0.00000000000E+00  0.00000000000E+00  0.90441439019E+03  0.10955856098E+04  0.61833845040E+03 0.  0.
         13    1    3    3    0    0  0.91426117185E+02  0.69227500944E+02 -0.56507614009E+02  0.12784479744E+03  0.00000000000E+00 0. -1.
          2    1    3    3  501    0 -0.91426117185E+02 -0.69227500944E+02  0.96092200420E+03  0.96774081238E+03  0.00000000000E+00 0. -1.
<mgrwt>
<rscale>  0 0.61833845E+03</rscale>
<asrwt>0</asrwt>
<pdfrwt beam="1">0</pdfrwt>
<pdfrwt beam="2">  1        2 0.34758477E+00 0.61833845E+03</pdfrwt>
<totfact> 0.62213396E+00</totfact>
</mgrwt>
</event>
<event>
 5    1  0.2369161E-004  0.6479016E+03  0.7818608E-02  0.9810725E-01
         13   -1    0    0    0    0  0.00000000000E+00  0.00000000000E+00  0.10000000000E+04  0.10000000000E+04  0.00000000000E+00 0. -1.
          2   -1    0    0  501    0 -0.00000000000E+00 -0.00000000000E+00 -0.10494410633E+03  0.10494410633E+03  0.00000000000E+00 0. -1.
    9000006    2    1    2  501    0  0.00000000000E+00  0.00000000000E+00  0.89505589367E+03  0.11049441063E+04  0.64790155528E+03 0.  0.
         13    1    3    3    0    0 -0.24075240828E+03  0.12515518309E+03  0.74933696352E+03  0.79695133280E+03  0.00000000000E+00 0. -1.
          4    1    3    3  501    0  0.24075240828E+03 -0.12515518309E+03  0.14571893014E+03  0.30799277353E+03  0.00000000000E+00 0. -1.
<mgrwt>
<rscale>  0 0.64790156E+03</rscale>
<asrwt>0</asrwt>
<pdfrwt beam="1">0</pdfrwt>
<pdfrwt beam="2">  1        2 0.38161574E+00 0.64790156E+03</pdfrwt>
<totfact> 0.46633065E+00</totfact>
</mgrwt>
</event>
<event>
 5    1  0.2369161E-004  0.6597520E+03  0.7818608E-02  0.9788650E-01
         13   -1    0    0    0    0  0.00000000000E+00  0.00000000000E+00  0.10000000000E+04  0.10000000000E+04  0.00000000000E+00 0. -1.
          2   -1    0    0  501    0 -0.00000000000E+00 -0.00000000000E+00 -0.10881818084E+03  0.10881818084E+03  0.00000000000E+00 0. -1.
    9000006    2    1    2  501    0  0.00000000000E+00  0.00000000000E+00  0.89118181916E+03  0.11088181808E+04  0.65975201655E+03 0.  0.
         13    1    3    3    0    0  0.10034851599E+03 -0.27373948388E+03  0.18622949204E+03  0.34595455396E+03  0.00000000000E+00 0. -1.
          2    1    3    3  501    0 -0.10034851599E+03  0.27373948388E+03  0.70495232713E+03  0.76286362688E+03  0.00000000000E+00 0. -1.
<mgrwt>
<rscale>  0 0.65975202E+03</rscale>
<asrwt>0</asrwt>
<pdfrwt beam="1">0</pdfrwt>
<pdfrwt beam="2">  1        2 0.39570331E+00 0.65975202E+03</pdfrwt>
<totfact> 0.41299800E+00</totfact>
</mgrwt>
</event>
<event>
 5    1  0.2369161E-004  0.6541449E+03  0.7818608E-02  0.9799033E-01
         13   -1    0    0    0    0  0.00000000000E+00  0.00000000000E+00  0.10000000000E+04  0.10000000000E+04  0.00000000000E+00 0. -1.
          2   -1    0    0  501    0 -0.00000000000E+00 -0.00000000000E+00 -0.10697637137E+03  0.10697637137E+03  0.00000000000E+00 0. -1.
    9000006    2    1    2  501    0  0.00000000000E+00  0.00000000000E+00  0.89302362863E+03  0.11069763714E+04  0.65414485053E+03 0.  0.
         13    1    3    3    0    0 -0.58355347721E+02  0.23188018171E+03  0.82416265741E+03  0.85814791915E+03  0.00000000000E+00 0. -1.
          2    1    3    3  501    0  0.58355347721E+02 -0.23188018171E+03  0.68860971222E+02  0.24882845222E+03  0.00000000000E+00 0. -1.
<mgrwt>
<rscale>  0 0.65414485E+03</rscale>
<asrwt>0</asrwt>
<pdfrwt beam="1">0</pdfrwt>
<pdfrwt beam="2">  1        2 0.38900581E+00 0.65414485E+03</pdfrwt>
<totfact> 0.43762327E+00</totfact>
</mgrwt>
</event>
<event>
 5    1  0.2369161E-004  0.6520567E+03  0.7818608E-02  0.9802928E-01
         13   -1    0    0    0    0  0.00000000000E+00  0.00000000000E+00  0.10000000000E+04  0.10000000000E+04  0.00000000000E+00 0. -1.
          4   -1    0    0  501    0 -0.00000000000E+00 -0.00000000000E+00 -0.10629448480E+03  0.10629448480E+03  0.00000000000E+00 0. -1.
    9000006    2    1    2  501    0  0.00000000000E+00  0.00000000000E+00  0.89370551520E+03  0.11062944848E+04  0.65205669938E+03 0.  0.
         13    1    3    3    0    0  0.28474532198E+03 -0.15371309763E+03  0.51443865193E+03  0.60774562225E+03  0.00000000000E+00 0. -1.
          4    1    3    3  501    0 -0.28474532198E+03  0.15371309763E+03  0.37926686327E+03  0.49854886255E+03  0.00000000000E+00 0. -1.
<mgrwt>
<rscale>  0 0.65205670E+03</rscale>
<asrwt>0</asrwt>
<pdfrwt beam="1">0</pdfrwt>
<pdfrwt beam="2">  1        4 0.38652621E+00 0.65205670E+03</pdfrwt>
<totfact> 0.39639097E-02</totfact>
</mgrwt>
</event>
<event>
 5    1  0.2369161E-004  0.6728767E+03  0.7818608E-02  0.9764775E-01
         13   -1    0    0    0    0  0.00000000000E+00  0.00000000000E+00  0.10000000000E+04  0.10000000000E+04  0.00000000000E+00 0. -1.
          2   -1    0    0  501    0 -0.00000000000E+00 -0.00000000000E+00 -0.11319075004E+03  0.11319075004E+03  0.00000000000E+00 0. -1.
    9000006    2    1    2  501    0  0.00000000000E+00  0.00000000000E+00  0.88680924996E+03  0.11131907500E+04  0.67287666044E+03 0.  0.
         13    1    3    3    0    0  0.51479617039E+02 -0.28963794091E+03  0.71348093889E+03  0.77174823482E+03  0.00000000000E+00 0. -1.
          4    1    3    3  501    0 -0.51479617039E+02  0.28963794091E+03  0.17332831106E+03  0.34144251522E+03  0.00000000000E+00 0. -1.
<mgrwt>
<rscale>  0 0.67287666E+03</rscale>
<asrwt>0</asrwt>
<pdfrwt beam="1">0</pdfrwt>
<pdfrwt beam="2">  1        2 0.41160360E+00 0.67287666E+03</pdfrwt>
<totfact> 0.35945159E+00</totfact>
</mgrwt>
</event>
<event>
 5    1  0.2369161E-004  0.6494392E+03  0.7818608E-02  0.9807832E-01
         13   -1    0    0    0    0  0.00000000000E+00  0.00000000000E+00  0.10000000000E+04  0.10000000000E+04  0.00000000000E+00 0. -1.
          2   -1    0    0  501    0 -0.00000000000E+00 -0.00000000000E+00 -0.10544280601E+03  0.10544280601E+03  0.00000000000E+00 0. -1.
    9000006    2    1    2  501    0  0.00000000000E+00  0.00000000000E+00  0.89455719399E+03  0.11054428060E+04  0.64943916114E+03 0.  0.
         13    1    3    3    0    0 -0.20693602184E+03  0.22692128937E+03  0.62682933164E+03  0.69801919723E+03  0.00000000000E+00 0. -1.
          4    1    3    3  501    0  0.20693602184E+03 -0.22692128937E+03  0.26772786236E+03  0.40742360877E+03  0.00000000000E+00 0. -1.
<mgrwt>
<rscale>  0 0.64943916E+03</rscale>
<asrwt>0</asrwt>
<pdfrwt beam="1">0</pdfrwt>
<pdfrwt beam="2">  1        2 0.38342919E+00 0.64943916E+03</pdfrwt>
<totfact> 0.45913229E+00</totfact>
</mgrwt>
</event>
<event>
 5    1  0.2369161E-004  0.5185512E+03  0.7818608E-02  0.1009047E+00
         13   -1    0    0    0    0  0.00000000000E+00  0.00000000000E+00  0.10000000000E+04  0.10000000000E+04  0.00000000000E+00 0. -1.
          2   -1    0    0  501    0 -0.00000000000E+00 -0.00000000000E+00 -0.67223823898E+02  0.67223823898E+02  0.00000000000E+00 0. -1.
    9000006    2    1    2  501    0  0.00000000000E+00  0.00000000000E+00  0.93277617610E+03  0.10672238239E+04  0.51855115041E+03 0.  0.
         13    1    3    3    0    0  0.25273727947E+03 -0.43873322469E+02  0.54401983411E+03  0.60146369862E+03  0.00000000000E+00 0. -1.
          2    1    3    3  501    0 -0.25273727947E+03  0.43873322469E+02  0.38875634199E+03  0.46576012528E+03  0.00000000000E+00 0. -1.
<mgrwt>
<rscale>  0 0.51855115E+03</rscale>
<asrwt>0</asrwt>
<pdfrwt beam="1">0</pdfrwt>
<pdfrwt beam="2">  1        2 0.24445078E+00 0.51855115E+03</pdfrwt>
<totfact> 0.14595855E+01</totfact>
</mgrwt>
</event>
<event>
 5    1  0.2369161E-004  0.6698805E+03  0.7818608E-02  0.9770174E-01
         13   -1    0    0    0    0  0.00000000000E+00  0.00000000000E+00  0.10000000000E+04  0.10000000000E+04  0.00000000000E+00 0. -1.
          2   -1    0    0  501    0 -0.00000000000E+00 -0.00000000000E+00 -0.11218497822E+03  0.11218497822E+03  0.00000000000E+00 0. -1.
    9000006    2    1    2  501    0  0.00000000000E+00  0.00000000000E+00  0.88781502178E+03  0.11121849782E+04  0.66988052135E+03 0.  0.
         13    1    3    3    0    0  0.19031590077E+03 -0.25581705671E+03  0.61421687045E+03  0.69204398165E+03  0.00000000000E+00 0. -1.
          2    1    3    3  501    0 -0.19031590077E+03  0.25581705671E+03  0.27359815133E+03  0.42014099657E+03  0.00000000000E+00 0. -1.
<mgrwt>
<rscale>  0 0.66988052E+03</rscale>
<asrwt>0</asrwt>
<pdfrwt beam="1">0</pdfrwt>
<pdfrwt beam="2">  1        2 0.40794624E+00 0.66988052E+03</pdfrwt>
<totfact> 0.37118490E+00</totfact>
</mgrwt>
</event>
<event>
 5    1  0.2369161E-004  0.6460395E+03  0.7818608E-02  0.9814239E-01
         13   -1    0    0    0    0  0.00000000000E+00  0.00000000000E+00  0.10000000000E+04  0.10000000000E+04  0.00000000000E+00 0. -1.
          2   -1    0    0  501    0 -0.00000000000E+00 -0.00000000000E+00 -0.10434176004E+03  0.10434176004E+03  0.00000000000E+00 0. -1.
    9000006    2    1    2  501    0  0.00000000000E+00  0.00000000000E+00  0.89565823996E+03  0.11043417600E+04  0.64603950355E+03 0.  0.
         13    1    3    3    0    0  0.75102327148E+02  0.13784257040E+03  0.93041635737E+03  0.94356532991E+03  0.00000000000E+00 0. -1.
          4    1    3    3  501    0 -0.75102327148E+02 -0.13784257040E+03 -0.34758117401E+02  0.16077643012E+03  0.00000000000E+00 0. -1.
<mgrwt>
<rscale>  0 0.64603950E+03</rscale>
<asrwt>0</asrwt>
<pdfrwt beam="1">0</pdfrwt>
<pdfrwt beam="2">  1        2 0.37942538E+00 0.64603950E+03</pdfrwt>
<totfact> 0.47516179E+00</totfact>
</mgrwt>
</event>
<event>
 5    1  0.2369161E-004  0.6632845E+03  0.7818608E-02  0.9782166E-01
         13   -1    0    0    0    0  0.00000000000E+00  0.00000000000E+00  0.10000000000E+04  0.10000000000E+04  0.00000000000E+00 0. -1.
          2   -1    0    0  501    0 -0.00000000000E+00 -0.00000000000E+00 -0.10998656992E+03  0.10998656992E+03  0.00000000000E+00 0. -1.
    9000006    2    1    2  501    0  0.00000000000E+00  0.00000000000E+00  0.89001343008E+03  0.11099865699E+04  0.66328446363E+03 0.  0.
         13    1    3    3    0    0  0.16902277333E+03 -0.22543384358E+03  0.73773220796E+03  0.78970749420E+03  0.00000000000E+00 0. -1.
          4    1    3    3  501    0 -0.16902277333E+03  0.22543384358E+03  0.15228122211E+03  0.32027907572E+03  0.00000000000E+00 0. -1.
<mgrwt>
<rscale>  0 0.66328446E+03</rscale>
<asrwt>0</asrwt>
<pdfrwt beam="1">0</pdfrwt>
<pdfrwt beam="2">  1        2 0.39995201E+00 0.66328446E+03</pdfrwt>
<totfact> 0.39803191E+00</totfact>
</mgrwt>
</event>
<event>
 5    1  0.2369161E-004  0.6508628E+03  0.7818608E-02  0.9805162E-01
         13   -1    0    0    0    0  0.00000000000E+00  0.00000000000E+00  0.10000000000E+04  0.10000000000E+04  0.00000000000E+00 0. -1.
          2   -1    0    0  501    0 -0.00000000000E+00 -0.00000000000E+00 -0.10590559891E+03  0.10590559891E+03  0.00000000000E+00 0. -1.
    9000006    2    1    2  501    0  0.00000000000E+00  0.00000000000E+00  0.89409440109E+03  0.11059055989E+04  0.65086280863E+03 0.  0.
         13    1    3    3    0    0 -0.57128069853E+02  0.26637742242E+03  0.14459565463E+03  0.30842900460E+03  0.00000000000E+00 0. -1.
          2    1    3    3  501    0  0.57128069853E+02 -0.26637742242E+03  0.74949874645E+03  0.79747659431E+03  0.00000000000E+00 0. -1.
<mgrwt>
<rscale>  0 0.65086281E+03</rscale>
<asrwt>0</asrwt>
<pdfrwt beam="1">0</pdfrwt>
<pdfrwt beam="2">  1        2 0.38511208E+00 0.65086281E+03</pdfrwt>
<totfact> 0.45254261E+00</totfact>
</mgrwt>
</event>
<event>
 5    1  0.2369161E-004  0.6422516E+03  0.7818608E-02  0.9821428E-01
         13   -1    0    0    0    0  0.00000000000E+00  0.00000000000E+00  0.10000000000E+04  0.10000000000E+04  0.00000000000E+00 0. -1.
          2   -1    0    0  501    0 -0.00000000000E+00 -0.00000000000E+00 -0.10312178894E+03  0.10312178894E+03  0.00000000000E+00 0. -1.
    9000006    2    1    2  501    0  0.00000000000E+00  0.00000000000E+00  0.89687821106E+03  0.11031217889E+04  0.64225162964E+03 0.  0.
         13    1    3    3    0    0 -0.17070087470E+03  0.37680665876E+02  0.91111445829E+03  0.92773281569E+03  0.00000000000E+00 0. -1.
          2    1    3    3  501    0  0.17070087470E+03 -0.37680665876E+02 -0.14236247228E+02  0.17538897326E+03  0.00000000000E+00 0. -1.
<mgrwt>
<rscale>  0 0.64225163E+03</rscale>
<asrwt>0</asrwt>
<pdfrwt beam="1">0</pdfrwt>
<pdfrwt beam="2">  1        2 0.37498911E+00 0.64225163E+03</pdfrwt>
<totfact> 0.49351671E+00</totfact>
</mgrwt>
</event>
<event>
 5    1  0.2369161E-004  0.6471384E+03  0.7818608E-02  0.9812164E-01
         13   -1    0    0    0    0  0.00000000000E+00  0.00000000000E+00  0.10000000000E+04  0.10000000000E+04  0.00000000000E+00 0. -1.
          2   -1    0    0  501    0 -0.00000000000E+00 -0.00000000000E+00 -0.10469703017E+03  0.10469703017E+03  0.00000000000E+00 0. -1.
    9000006    2    1    2  501    0  0.00000000000E+00  0.00000000000E+00  0.89530296983E+03  0.11046970302E+04  0.64713840920E+03 0.  0.
         13    1    3    3    0    0 -0.20543599468E+03  0.49257382446E+02  0.86602408145E+03  0.89141906379E+03  0.00000000000E+00 0. -1.
          2    1    3    3  501    0  0.20543599468E+03 -0.49257382446E+02  0.29278888381E+02  0.21327796637E+03  0.00000000000E+00 0. -1.
<mgrwt>
<rscale>  0 0.64713841E+03</rscale>
<asrwt>0</asrwt>
<pdfrwt beam="1">0</pdfrwt>
<pdfrwt beam="2">  1        2 0.38071728E+00 0.64713841E+03</pdfrwt>
<totfact> 0.46993487E+00</totfact>
</mgrwt>
</event>
<event>
 5    1  0.2369161E-004  0.6472858E+03  0.7818608E-02  0.9811885E-01
         13   -1    0    0    0    0  0.00000000000E+00  0.00000000000E+00  0.10000000000E+04  0.10000000000E+04  0.00000000000E+00 0. -1.
          2   -1    0    0  501    0 -0.00000000000E+00 -0.00000000000E+00 -0.10474473993E+03  0.10474473993E+03  0.00000000000E+00 0. -1.
    9000006    2    1    2  501    0  0.00000000000E+00  0.00000000000E+00  0.89525526007E+03  0.11047447399E+04  0.64728584081E+03 0.  0.
         13    1    3    3    0    0 -0.90556180098E+02 -0.22719921328E+02  0.97651726532E+03  0.98097022689E+03  0.00000000000E+00 0. -1.
          4    1    3    3  501    0  0.90556180098E+02  0.22719921328E+02 -0.81262005251E+02  0.12377451303E+03  0.00000000000E+00 0. -1.
<mgrwt>
<rscale>  0 0.64728584E+03</rscale>
<asrwt>0</asrwt>
<pdfrwt beam="1">0</pdfrwt>
<pdfrwt beam="2">  1        2 0.38089077E+00 0.64728584E+03</pdfrwt>
<totfact> 0.46923694E+00</totfact>
</mgrwt>
</event>
<event>
 5    1  0.2369161E-004  0.6524381E+03  0.7818608E-02  0.9802215E-01
         13   -1    0    0    0    0  0.00000000000E+00  0.00000000000E+00  0.10000000000E+04  0.10000000000E+04  0.00000000000E+00 0. -1.
          2   -1    0    0  501    0 -0.00000000000E+00 -0.00000000000E+00 -0.10641886807E+03  0.10641886807E+03  0.00000000000E+00 0. -1.
    9000006    2    1    2  501    0  0.00000000000E+00  0.00000000000E+00  0.89358113193E+03  0.11064188681E+04  0.65243809843E+03 0.  0.
         13    1    3    3    0    0 -0.20153282402E+03 -0.11846405730E+03  0.83264002864E+03  0.86483445197E+03  0.00000000000E+00 0. -1.
          2    1    3    3  501    0  0.20153282402E+03  0.11846405730E+03  0.60941103293E+02  0.24158441610E+03  0.00000000000E+00 0. -1.
<mgrwt>
<rscale>  0 0.65243810E+03</rscale>
<asrwt>0</asrwt>
<pdfrwt beam="1">0</pdfrwt>
<pdfrwt beam="2">  1        2 0.38697852E+00 0.65243810E+03</pdfrwt>
<totfact> 0.44533458E+00</totfact>
</mgrwt>
</event>
<event>
 5    1  0.2369161E-004  0.6355687E+03  0.7818608E-02  0.9834242E-01
         13   -1    0    0    0    0  0.00000000000E+00  0.00000000000E+00  0.10000000000E+04  0.10000000000E+04  0.00000000000E+00 0. -1.
          2   -1    0    0  501    0 -0.00000000000E+00 -0.00000000000E+00 -0.10098689402E+03  0.10098689402E+03  0.00000000000E+00 0. -1.
    9000006    2    1    2  501    0  0.00000000000E+00  0.00000000000E+00  0.89901310598E+03  0.11009868940E+04  0.63556870287E+03 0.  0.
         13    1    3    3    0    0  0.24761742495E+03 -0.12220877896E+03  0.17704971108E+03  0.32801825405E+03  0.00000000000E+00 0. -1.
          2    1    3    3  501    0 -0.24761742495E+03  0.12220877896E+03  0.72196339490E+03  0.77296863997E+03  0.00000000000E+00 0. -1.
<mgrwt>
<rscale>  0 0.63556870E+03</rscale>
<asrwt>0</asrwt>
<pdfrwt beam="1">0</pdfrwt>
<pdfrwt beam="2">  1        2 0.36722584E+00 0.63556870E+03</pdfrwt>
<totfact> 0.52720645E+00</totfact>
</mgrwt>
</event>
<event>
 5    1  0.2369161E-004  0.6658836E+03  0.7818608E-02  0.9777423E-01
         13   -1    0    0    0    0  0.00000000000E+00  0.00000000000E+00  0.10000000000E+04  0.10000000000E+04  0.00000000000E+00 0. -1.
          2   -1    0    0  501    0 -0.00000000000E+00 -0.00000000000E+00 -0.11085023916E+03  0.11085023916E+03  0.00000000000E+00 0. -1.
    9000006    2    1    2  501    0  0.00000000000E+00  0.00000000000E+00  0.88914976084E+03  0.11108502392E+04  0.66588359092E+03 0.  0.
         13    1    3    3    0    0  0.17445294953E+02  0.30337491278E+03  0.67153799595E+03  0.73709155199E+03  0.00000000000E+00 0. -1.
          2    1    3    3  501    0 -0.17445294953E+02 -0.30337491278E+03  0.21761176489E+03  0.37375868717E+03  0.00000000000E+00 0. -1.
<mgrwt>
<rscale>  0 0.66588359E+03</rscale>
<asrwt>0</asrwt>
<pdfrwt beam="1">0</pdfrwt>
<pdfrwt beam="2">  1        2 0.40309263E+00 0.66588359E+03</pdfrwt>
<totfact> 0.38728410E+00</totfact>
</mgrwt>
</event>
<event>
 5    1  0.2369161E-004  0.6454755E+03  0.7818608E-02  0.9815306E-01
         13   -1    0    0    0    0  0.00000000000E+00  0.00000000000E+00  0.10000000000E+04  0.10000000000E+04  0.00000000000E+00 0. -1.
          2   -1    0    0  501    0 -0.00000000000E+00 -0.00000000000E+00 -0.10415965776E+03  0.10415965776E+03  0.00000000000E+00 0. -1.
    9000006    2    1    2  501    0  0.00000000000E+00  0.00000000000E+00  0.89584034224E+03  0.11041596578E+04  0.64547550771E+03 0.  0.
         13    1    3    3    0    0 -0.28860213287E+03 -0.63714083913E+02  0.66970039421E+03  0.73201727684E+03  0.00000000000E+00 0. -1.
          4    1    3    3  501    0  0.28860213287E+03  0.63714083913E+02  0.22613994803E+03  0.37214238092E+03  0.00000000000E+00 0. -1.
<mgrwt>
<rscale>  0 0.64547551E+03</rscale>
<asrwt>0</asrwt>
<pdfrwt beam="1">0</pdfrwt>
<pdfrwt beam="2">  1        2 0.37876319E+00 0.64547551E+03</pdfrwt>
<totfact> 0.47786144E+00</totfact>
</mgrwt>
</event>
<event>
 5    1  0.2369161E-004  0.6555976E+03  0.7818608E-02  0.9796332E-01
         13   -1    0    0    0    0  0.00000000000E+00  0.00000000000E+00  0.10000000000E+04  0.10000000000E+04  0.00000000000E+00 0. -1.
          2   -1    0    0  501    0 -0.00000000000E+00 -0.00000000000E+00 -0.10745204083E+03  0.10745204083E+03  0.00000000000E+00 0. -1.
    9000006    2    1    2  501    0  0.00000000000E+00  0.00000000000E+00  0.89254795917E+03  0.11074520408E+04  0.65559756201E+03 0.  0.
         13    1    3    3    0    0  0.13689586808E+03  0.68295091113E+02 -0.43447994342E+02  0.15903592795E+03  0.00000000000E+00 0. -1.
          2    1    3    3  501    0 -0.13689586808E+03 -0.68295091113E+02  0.93599595351E+03  0.94841611288E+03  0.00000000000E+00 0. -1.
<mgrwt>
<rscale>  0 0.65559756E+03</rscale>
<asrwt>0</asrwt>
<pdfrwt beam="1">0</pdfrwt>
<pdfrwt beam="2">  1        2 0.39073552E+00 0.65559756E+03</pdfrwt>
<totfact> 0.43113957E+00</totfact>
</mgrwt>
</event>
<event>
 5    1  0.2369161E-004  0.6540582E+03  0.7818608E-02  0.9799194E-01
         13   -1    0    0    0    0  0.00000000000E+00  0.00000000000E+00  0.10000000000E+04  0.10000000000E+04  0.00000000000E+00 0. -1.
          2   -1    0    0  501    0 -0.00000000000E+00 -0.00000000000E+00 -0.10694802257E+03  0.10694802257E+03  0.00000000000E+00 0. -1.
    9000006    2    1    2  501    0  0.00000000000E+00  0.00000000000E+00  0.89305197743E+03  0.11069480226E+04  0.65405817040E+03 0.  0.
         13    1    3    3    0    0  0.12715130713E+03  0.25745414824E+03  0.18162990275E+03  0.33976391057E+03  0.00000000000E+00 0. -1.
          4    1    3    3  501    0 -0.12715130713E+03 -0.25745414824E+03  0.71142207468E+03  0.76718411200E+03  0.00000000000E+00 0. -1.
<mgrwt>
<rscale>  0 0.65405817E+03</rscale>
<asrwt>0</asrwt>
<pdfrwt beam="1">0</pdfrwt>
<pdfrwt beam="2">  1        2 0.38890272E+00 0.65405817E+03</pdfrwt>
<totfact> 0.43801245E+00</totfact>
</mgrwt>
</event>
<event>
 5    1  0.2369161E-004  0.5773286E+03  0.7818608E-02  0.9953591E-01
         13   -1    0    0    0    0  0.00000000000E+00  0.00000000000E+00  0.10000000000E+04  0.10000000000E+04  0.00000000000E+00 0. -1.
          2   -1    0    0  501    0 -0.00000000000E+00 -0.00000000000E+00 -0.83327068516E+02  0.83327068516E+02  0.00000000000E+00 0. -1.
    9000006    2    1    2  501    0  0.00000000000E+00  0.00000000000E+00  0.91667293148E+03  0.10833270685E+04  0.57732856682E+03 0.  0.
         13    1    3    3    0    0  0.25421134922E+03 -0.13652267555E+03  0.44318276732E+03  0.52884101227E+03  0.00000000000E+00 0. -1.
          4    1    3    3  501    0 -0.25421134922E+03  0.13652267555E+03  0.47349016416E+03  0.55448605624E+03  0.00000000000E+00 0. -1.
<mgrwt>
<rscale>  0 0.57732857E+03</rscale>
<asrwt>0</asrwt>
<pdfrwt beam="1">0</pdfrwt>
<pdfrwt beam="2">  1        2 0.30300816E+00 0.57732857E+03</pdfrwt>
<totfact> 0.90067121E+00</totfact>
</mgrwt>
</event>
<event>
 5    1  0.2369161E-004  0.6897997E+03  0.7818608E-02  0.9734837E-01
         13   -1    0    0    0    0  0.00000000000E+00  0.00000000000E+00  0.10000000000E+04  0.10000000000E+04  0.00000000000E+00 0. -1.
          2   -1    0    0  501    0 -0.00000000000E+00 -0.00000000000E+00 -0.11895589625E+03  0.11895589625E+03  0.00000000000E+00 0. -1.
    9000006    2    1    2  501    0  0.00000000000E+00  0.00000000000E+00  0.88104410375E+03  0.11189558963E+04  0.68979967020E+03 0.  0.
         13    1    3    3    0    0  0.23588759295E+02  0.22375366879E+03  0.16481243927E+02  0.22559646554E+03  0.00000000000E+00 0. -1.
          4    1    3    3  501    0 -0.23588759295E+02 -0.22375366879E+03  0.86456285982E+03  0.89335943071E+03  0.00000000000E+00 0. -1.
<mgrwt>
<rscale>  0 0.68979967E+03</rscale>
<asrwt>0</asrwt>
<pdfrwt beam="1">0</pdfrwt>
<pdfrwt beam="2">  1        2 0.43256781E+00 0.68979967E+03</pdfrwt>
<totfact> 0.29833776E+00</totfact>
</mgrwt>
</event>
<event>
 5    1  0.2369161E-004  0.6300645E+03  0.7818608E-02  0.9844923E-01
         13   -1    0    0    0    0  0.00000000000E+00  0.00000000000E+00  0.10000000000E+04  0.10000000000E+04  0.00000000000E+00 0. -1.
          2   -1    0    0  501    0 -0.00000000000E+00 -0.00000000000E+00 -0.99245326828E+02  0.99245326828E+02  0.00000000000E+00 0. -1.
    9000006    2    1    2  501    0  0.00000000000E+00  0.00000000000E+00  0.90075467317E+03  0.10992453268E+04  0.63006452631E+03 0.  0.
         13    1    3    3    0    0 -0.26932864217E+03 -0.91200624444E+02  0.21378604410E+03  0.35575264447E+03  0.00000000000E+00 0. -1.
          4    1    3    3  501    0  0.26932864217E+03  0.91200624444E+02  0.68696862907E+03  0.74349268236E+03  0.00000000000E+00 0. -1.
<mgrwt>
<rscale>  0 0.63006453E+03</rscale>
<asrwt>0</asrwt>
<pdfrwt beam="1">0</pdfrwt>
<pdfrwt beam="2">  1        2 0.36089286E+00 0.63006453E+03</pdfrwt>
<totfact> 0.55623926E+00</totfact>
</mgrwt>
</event>
<event>
 5    1  0.2369161E-004  0.6528534E+03  0.7818608E-02  0.9801440E-01
         13   -1    0    0    0    0  0.00000000000E+00  0.00000000000E+00  0.10000000000E+04  0.10000000000E+04  0.00000000000E+00 0. -1.
          2   -1    0    0  501    0 -0.00000000000E+00 -0.00000000000E+00 -0.10655438965E+03  0.10655438965E+03  0.00000000000E+00 0. -1.
    9000006    2    1    2  501    0  0.00000000000E+00  0.00000000000E+00  0.89344561035E+03  0.11065543897E+04  0.65285339749E+03 0.  0.
         13    1    3    3    0    0 -0.55058237734E+01  0.32392584283E+03  0.51443866509E+03  0.60795181214E+03  0.00000000000E+00 0. -1.
          4    1    3    3  501    0  0.55058237734E+01 -0.32392584283E+03  0.37900694526E+03  0.49860257751E+03  0.00000000000E+00 0. -1.
<mgrwt>
<rscale>  0 0.65285340E+03</rscale>
<asrwt>0</asrwt>
<pdfrwt beam="1">0</pdfrwt>
<pdfrwt beam="2">  1        2 0.38747132E+00 0.65285340E+03</pdfrwt>
<totfact> 0.44344884E+00</totfact>
</mgrwt>
</event>
<event>
 5    1  0.2369161E-004  0.6374464E+03  0.7818608E-02  0.9830625E-01
         13   -1    0    0    0    0  0.00000000000E+00  0.00000000000E+00  0.10000000000E+04  0.10000000000E+04  0.00000000000E+00 0. -1.
          2   -1    0    0  501    0 -0.00000000000E+00 -0.00000000000E+00 -0.10158446553E+03  0.10158446553E+03  0.00000000000E+00 0. -1.
    9000006    2    1    2  501    0  0.00000000000E+00  0.00000000000E+00  0.89841553447E+03  0.11015844655E+04  0.63744636020E+03 0.  0.
         13    1    3    3    0    0 -0.11552763654E+02  0.27384995823E+03  0.73029821922E+03  0.78004022650E+03  0.00000000000E+00 0. -1.
          4    1    3    3  501    0  0.11552763654E+02 -0.27384995823E+03  0.16811731525E+03  0.32154423903E+03  0.00000000000E+00 0. -1.
<mgrwt>
<rscale>  0 0.63744636E+03</rscale>
<asrwt>0</asrwt>
<pdfrwt beam="1">0</pdfrwt>
<pdfrwt beam="2">  1        2 0.36939884E+00 0.63744636E+03</pdfrwt>
<totfact> 0.51757022E+00</totfact>
</mgrwt>
</event>
<event>
 5    1  0.2369161E-004  0.6440112E+03  0.7818608E-02  0.9818082E-01
         13   -1    0    0    0    0  0.00000000000E+00  0.00000000000E+00  0.10000000000E+04  0.10000000000E+04  0.00000000000E+00 0. -1.
          2   -1    0    0  501    0 -0.00000000000E+00 -0.00000000000E+00 -0.10368760973E+03  0.10368760973E+03  0.00000000000E+00 0. -1.
    9000006    2    1    2  501    0  0.00000000000E+00  0.00000000000E+00  0.89631239027E+03  0.11036876097E+04  0.64401121024E+03 0.  0.
         13    1    3    3    0    0  0.32463430375E+02  0.24355591423E+03  0.80482748280E+03  0.84149904025E+03  0.00000000000E+00 0. -1.
          4    1    3    3  501    0 -0.32463430375E+02 -0.24355591423E+03  0.91484907466E+02  0.26218856948E+03  0.00000000000E+00 0. -1.
<mgrwt>
<rscale>  0 0.64401121E+03</rscale>
<asrwt>0</asrwt>
<pdfrwt beam="1">0</pdfrwt>
<pdfrwt beam="2">  1        2 0.37704665E+00 0.64401121E+03</pdfrwt>
<totfact> 0.48492470E+00</totfact>
</mgrwt>
</event>
<event>
 5    1  0.2369161E-004  0.6516561E+03  0.7818608E-02  0.9803677E-01
         13   -1    0    0    0    0  0.00000000000E+00  0.00000000000E+00  0.10000000000E+04  0.10000000000E+04  0.00000000000E+00 0. -1.
          2   -1    0    0  501    0 -0.00000000000E+00 -0.00000000000E+00 -0.10616391978E+03  0.10616391978E+03  0.00000000000E+00 0. -1.
    9000006    2    1    2  501    0  0.00000000000E+00  0.00000000000E+00  0.89383608022E+03  0.11061639198E+04  0.65165610496E+03 0.  0.
         13    1    3    3    0    0 -0.21171249145E+03  0.10378976585E+03  0.82863814052E+03  0.86153099912E+03  0.00000000000E+00 0. -1.
          4    1    3    3  501    0  0.21171249145E+03 -0.10378976585E+03  0.65197939699E+02  0.24463292066E+03  0.00000000000E+00 0. -1.
<mgrwt>
<rscale>  0 0.65165610E+03</rscale>
<asrwt>0</asrwt>
<pdfrwt beam="1">0</pdfrwt>
<pdfrwt beam="2">  1        2 0.38605143E+00 0.65165610E+03</pdfrwt>
<totfact> 0.44890181E+00</totfact>
</mgrwt>
</event>
<event>
 5    1  0.2369161E-004  0.6491263E+03  0.7818608E-02  0.9808420E-01
         13   -1    0    0    0    0  0.00000000000E+00  0.00000000000E+00  0.10000000000E+04  0.10000000000E+04  0.00000000000E+00 0. -1.
          2   -1    0    0  501    0 -0.00000000000E+00 -0.00000000000E+00 -0.10534122227E+03  0.10534122227E+03  0.00000000000E+00 0. -1.
    9000006    2    1    2  501    0  0.00000000000E+00  0.00000000000E+00  0.89465877773E+03  0.11053412223E+04  0.64912625051E+03 0.  0.
         13    1    3    3    0    0 -0.28841451461E+02 -0.15307876636E+03  0.93218688323E+03  0.94511233369E+03  0.00000000000E+00 0. -1.
          4    1    3    3  501    0  0.28841451461E+02  0.15307876636E+03 -0.37528105504E+02  0.16022888858E+03  0.00000000000E+00 0. -1.
<mgrwt>
<rscale>  0 0.64912625E+03</rscale>
<asrwt>0</asrwt>
<pdfrwt beam="1">0</pdfrwt>
<pdfrwt beam="2">  1        2 0.38305980E+00 0.64912625E+03</pdfrwt>
<totfact> 0.46059034E+00</totfact>
</mgrwt>
</event>
<event>
 5    1  0.2369161E-004  0.6494598E+03  0.7818608E-02  0.9807793E-01
         13   -1    0    0    0    0  0.00000000000E+00  0.00000000000E+00  0.10000000000E+04  0.10000000000E+04  0.00000000000E+00 0. -1.
          2   -1    0    0  501    0 -0.00000000000E+00 -0.00000000000E+00 -0.10544950317E+03  0.10544950317E+03  0.00000000000E+00 0. -1.
    9000006    2    1    2  501    0  0.00000000000E+00  0.00000000000E+00  0.89455049683E+03  0.11054495032E+04  0.64945978526E+03 0.  0.
         13    1    3    3    0    0  0.27065325290E+01 -0.11695711962E+03  0.96288478691E+03  0.96996567259E+03  0.00000000000E+00 0. -1.
          2    1    3    3  501    0 -0.27065325290E+01  0.11695711962E+03 -0.68334290074E+02  0.13548383057E+03  0.00000000000E+00 0. -1.
<mgrwt>
<rscale>  0 0.64945979E+03</rscale>
<asrwt>0</asrwt>
<pdfrwt beam="1">0</pdfrwt>
<pdfrwt beam="2">  1        2 0.38345355E+00 0.64945979E+03</pdfrwt>
<totfact> 0.45903631E+00</totfact>
</mgrwt>
</event>
<event>
 5    1  0.2369161E-004  0.6535404E+03  0.7818608E-02  0.9800158E-01
         13   -1    0    0    0    0  0.00000000000E+00  0.00000000000E+00  0.10000000000E+04  0.10000000000E+04  0.00000000000E+00 0. -1.
          2   -1    0    0  501    0 -0.00000000000E+00 -0.00000000000E+00 -0.10677876845E+03  0.10677876845E+03  0.00000000000E+00 0. -1.
    9000006    2    1    2  501    0  0.00000000000E+00  0.00000000000E+00  0.89322123155E+03  0.11067787684E+04  0.65354041481E+03 0.  0.
         13    1    3    3    0    0 -0.89801748791E+02 -0.25773083345E+03  0.14229991324E+03  0.30779668924E+03  0.00000000000E+00 0. -1.
          2    1    3    3  501    0  0.89801748791E+02  0.25773083345E+03  0.75092131831E+03  0.79898207921E+03  0.00000000000E+00 0. -1.
<mgrwt>
<rscale>  0 0.65354041E+03</rscale>
<asrwt>0</asrwt>
<pdfrwt beam="1">0</pdfrwt>
<pdfrwt beam="2">  1        2 0.38828725E+00 0.65354041E+03</pdfrwt>
<totfact> 0.44034255E+00</totfact>
</mgrwt>
</event>
<event>
 5    1  0.2369161E-004  0.6281419E+03  0.7818608E-02  0.9848682E-01
         13   -1    0    0    0    0  0.00000000000E+00  0.00000000000E+00  0.10000000000E+04  0.10000000000E+04  0.00000000000E+00 0. -1.
          2   -1    0    0  501    0 -0.00000000000E+00 -0.00000000000E+00 -0.98640546682E+02  0.98640546682E+02  0.00000000000E+00 0. -1.
    9000006    2    1    2  501    0  0.00000000000E+00  0.00000000000E+00  0.90135945332E+03  0.10986405467E+04  0.62814185239E+03 0.  0.
         13    1    3    3    0    0 -0.20117243339E+03 -0.99580729172E+02  0.66473853755E+02  0.23410562319E+03  0.00000000000E+00 0. -1.
          2    1    3    3  501    0  0.20117243339E+03  0.99580729172E+02  0.83488559956E+03  0.86453492349E+03  0.00000000000E+00 0. -1.
<mgrwt>
<rscale>  0 0.62814185E+03</rscale>
<asrwt>0</asrwt>
<pdfrwt beam="1">0</pdfrwt>
<pdfrwt beam="2">  1        2 0.35869365E+00 0.62814185E+03</pdfrwt>
<totfact> 0.56666128E+00</totfact>
</mgrwt>
</event>
<event>
 5    1  0.2369161E-004  0.7338594E+03  0.7818608E-02  0.9661018E-01
         13   -1    0    0    0    0  0.00000000000E+00  0.00000000000E+00  0.10000000000E+04  0.10000000000E+04  0.00000000000E+00 0. -1.
          2   -1    0    0  501    0 -0.00000000000E+00 -0.00000000000E+00 -0.13463739876E+03  0.13463739876E+03  0.00000000000E+00 0. -1.
    9000006    2    1    2  501    0  0.00000000000E+00  0.00000000000E+00  0.86536260124E+03  0.11346373988E+04  0.73385938369E+03 0.  0.
         13    1    3    3    0    0 -0.19942308808E+03  0.22880357058E+03  0.11387690056E+03  0.32417370413E+03  0.00000000000E+00 0. -1.
          2    1    3    3  501    0  0.19942308808E+03 -0.22880357058E+03  0.75148570068E+03  0.81046369462E+03  0.00000000000E+00 0. -1.
<mgrwt>
<rscale>  0 0.73385938E+03</rscale>
<asrwt>0</asrwt>
<pdfrwt beam="1">0</pdfrwt>
<pdfrwt beam="2">  1        2 0.48959157E+00 0.73385938E+03</pdfrwt>
<totfact> 0.17565948E+00</totfact>
</mgrwt>
</event>
<event>
 5    1  0.2369161E-004  0.6614589E+03  0.7818608E-02  0.9785512E-01
         13   -1    0    0    0    0  0.00000000000E+00  0.00000000000E+00  0.10000000000E+04  0.10000000000E+04  0.00000000000E+00 0. -1.
          2   -1    0    0  501    0 -0.00000000000E+00 -0.00000000000E+00 -0.10938197380E+03  0.10938197380E+03  0.00000000000E+00 0. -1.
    9000006    2    1    2  501    0  0.00000000000E+00  0.00000000000E+00  0.89061802620E+03  0.11093819738E+04  0.66145891421E+03 0.  0.
         13    1    3    3    0    0 -0.45277669000E+02 -0.32031355828E+03  0.32994756158E+03  0.46207817123E+03  0.00000000000E+00 0. -1.
          2    1    3    3  501    0  0.45277669000E+02  0.32031355828E+03  0.56067046462E+03  0.64730380257E+03  0.00000000000E+00 0. -1.
<mgrwt>
<rscale>  0 0.66145891E+03</rscale>
<asrwt>0</asrwt>
<pdfrwt beam="1">0</pdfrwt>
<pdfrwt beam="2">  1        2 0.39775347E+00 0.66145891E+03</pdfrwt>
<totfact> 0.40571426E+00</totfact>
</mgrwt>
</event>
<event>
 5    1  0.2369161E-004  0.6654621E+03  0.7818608E-02  0.9778190E-01
         13   -1    0    0    0    0  0.00000000000E+00  0.00000000000E+00  0.10000000000E+04  0.10000000000E+04  0.00000000000E+00 0. -1.
          2   -1    0    0  501    0 -0.00000000000E+00 -0.00000000000E+00 -0.11070996809E+03  0.11070996809E+03  0.00000000000E+00 0. -1.
    9000006    2    1    2  501    0  0.00000000000E+00  0.00000000000E+00  0.88929003191E+03  0.11107099681E+04  0.66546214947E+03 0.  0.
         13    1    3    3    0    0 -0.21045817583E+00  0.43114595985E+02  0.99531782576E+03  0.99625121679E+03  0.00000000000E+00 0. -1.
          4    1    3    3  501    0  0.21045817583E+00 -0.43114595985E+02 -0.10602779386E+03  0.11445875130E+03  0.00000000000E+00 0. -1.
<mgrwt>
<rscale>  0 0.66546215E+03</rscale>
<asrwt>0</asrwt>
<pdfrwt beam="1">0</pdfrwt>
<pdfrwt beam="2">  1        2 0.40258255E+00 0.66546215E+03</pdfrwt>
<totfact> 0.38901178E+00</totfact>
</mgrwt>
</event>
<event>
 5    1  0.2369161E-004  0.6441660E+03  0.7818608E-02  0.9817788E-01
         13   -1    0    0    0    0  0.00000000000E+00  0.00000000000E+00  0.10000000000E+04  0.10000000000E+04  0.00000000000E+00 0. -1.
          2   -1    0    0  501    0 -0.00000000000E+00 -0.00000000000E+00 -0.10373744487E+03  0.10373744487E+03  0.00000000000E+00 0. -1.
    9000006    2    1    2  501    0  0.00000000000E+00  0.00000000000E+00  0.89626255513E+03  0.11037374449E+04  0.64416595646E+03 0.  0.
         13    1    3    3    0    0  0.73600379925E+02  0.58120039449E+02 -0.79825435116E+02  0.12315459797E+03  0.00000000000E+00 0. -1.
          2    1    3    3  501    0 -0.73600379925E+02 -0.58120039449E+02  0.97608799025E+03  0.98058284689E+03  0.00000000000E+00 0. -1.
<mgrwt>
<rscale>  0 0.64416596E+03</rscale>
<asrwt>0</asrwt>
<pdfrwt beam="1">0</pdfrwt>
<pdfrwt beam="2">  1        2 0.37722787E+00 0.64416596E+03</pdfrwt>
<totfact> 0.48417455E+00</totfact>
</mgrwt>
</event>
<event>
 5    1  0.2369161E-004  0.6520594E+03  0.7818608E-02  0.9802923E-01
         13   -1    0    0    0    0  0.00000000000E+00  0.00000000000E+00  0.10000000000E+04  0.10000000000E+04  0.00000000000E+00 0. -1.
          2   -1    0    0  501    0 -0.00000000000E+00 -0.00000000000E+00 -0.10629535979E+03  0.10629535979E+03  0.00000000000E+00 0. -1.
    9000006    2    1    2  501    0  0.00000000000E+00  0.00000000000E+00  0.89370464021E+03  0.11062953598E+04  0.65205938315E+03 0.  0.
         13    1    3    3    0    0 -0.27732477131E+02 -0.98118619827E+02 -0.78548800486E+02  0.12871001477E+03  0.00000000000E+00 0. -1.
          2    1    3    3  501    0  0.27732477131E+02  0.98118619827E+02  0.97225344070E+03  0.97758534502E+03  0.00000000000E+00 0. -1.
<mgrwt>
<rscale>  0 0.65205938E+03</rscale>
<asrwt>0</asrwt>
<pdfrwt beam="1">0</pdfrwt>
<pdfrwt beam="2">  1        2 0.38652940E+00 0.65205938E+03</pdfrwt>
<totfact> 0.44705949E+00</totfact>
</mgrwt>
</event>
<event>
 5    1  0.2369161E-004  0.6712117E+03  0.7818608E-02  0.9767771E-01
         13   -1    0    0    0    0  0.00000000000E+00  0.00000000000E+00  0.10000000000E+04  0.10000000000E+04  0.00000000000E+00 0. -1.
          2   -1    0    0  501    0 -0.00000000000E+00 -0.00000000000E+00 -0.11263127883E+03  0.11263127883E+03  0.00000000000E+00 0. -1.
    9000006    2    1    2  501    0  0.00000000000E+00  0.00000000000E+00  0.88736872117E+03  0.11126312788E+04  0.67121167697E+03 0.  0.
         13    1    3    3    0    0  0.50047194814E+02  0.27915785500E+03  0.14624222243E+03  0.31909343042E+03  0.00000000000E+00 0. -1.
          4    1    3    3  501    0 -0.50047194814E+02 -0.27915785500E+03  0.74112649875E+03  0.79353784841E+03  0.00000000000E+00 0. -1.
<mgrwt>
<rscale>  0 0.67121168E+03</rscale>
<asrwt>0</asrwt>
<pdfrwt beam="1">0</pdfrwt>
<pdfrwt beam="2">  1        2 0.40956915E+00 0.67121168E+03</pdfrwt>
<totfact> 0.36593683E+00</totfact>
</mgrwt>
</event>
<event>
 5    1  0.2369161E-004  0.5828057E+03  0.7818608E-02  0.9941735E-01
         13   -1    0    0    0    0  0.00000000000E+00  0.00000000000E+00  0.10000000000E+04  0.10000000000E+04  0.00000000000E+00 0. -1.
          2   -1    0    0  501    0 -0.00000000000E+00 -0.00000000000E+00 -0.84915624042E+02  0.84915624042E+02  0.00000000000E+00 0. -1.
    9000006    2    1    2  501    0  0.00000000000E+00  0.00000000000E+00  0.91508437596E+03  0.10849156240E+04  0.58280571048E+03 0.  0.
         13    1    3    3    0    0  0.20715171284E+03  0.15478952807E+03  0.70759889117E+03  0.75337097164E+03  0.00000000000E+00 0. -1.
          4    1    3    3  501    0 -0.20715171284E+03 -0.15478952807E+03  0.20748548479E+03  0.33154465240E+03  0.00000000000E+00 0. -1.
<mgrwt>
<rscale>  0 0.58280571E+03</rscale>
<asrwt>0</asrwt>
<pdfrwt beam="1">0</pdfrwt>
<pdfrwt beam="2">  1        2 0.30878474E+00 0.58280571E+03</pdfrwt>
<totfact> 0.85876681E+00</totfact>
</mgrwt>
</event>
<event>
 5    1  0.2369161E-004  0.6449069E+03  0.7818608E-02  0.9816383E-01
         13   -1    0    0    0    0  0.00000000000E+00  0.00000000000E+00  0.10000000000E+04  0.10000000000E+04  0.00000000000E+00 0. -1.
          2   -1    0    0  501    0 -0.00000000000E+00 -0.00000000000E+00 -0.10397621729E+03  0.10397621729E+03  0.00000000000E+00 0. -1.
    9000006    2    1    2  501    0  0.00000000000E+00  0.00000000000E+00  0.89602378271E+03  0.11039762173E+04  0.64490686859E+03 0.  0.
         13    1    3    3    0    0  0.28332094067E+03 -0.10019740000E+03  0.64812821512E+03  0.71440916681E+03  0.00000000000E+00 0. -1.
          4    1    3    3  501    0 -0.28332094067E+03  0.10019740000E+03  0.24789556759E+03  0.38956705048E+03  0.00000000000E+00 0. -1.
<mgrwt>
<rscale>  0 0.64490687E+03</rscale>
<asrwt>0</asrwt>
<pdfrwt beam="1">0</pdfrwt>
<pdfrwt beam="2">  1        2 0.37809613E+00 0.64490687E+03</pdfrwt>
<totfact> 0.48059504E+00</totfact>
</mgrwt>
</event>
<event>
 5    1  0.2369161E-004  0.6458237E+03  0.7818608E-02  0.9814647E-01
         13   -1    0    0    0    0  0.00000000000E+00  0.00000000000E+00  0.10000000000E+04  0.10000000000E+04  0.00000000000E+00 0. -1.
          2   -1    0    0  501    0 -0.00000000000E+00 -0.00000000000E+00 -0.10427207806E+03  0.10427207806E+03  0.00000000000E+00 0. -1.
    9000006    2    1    2  501    0  0.00000000000E+00  0.00000000000E+00  0.89572792194E+03  0.11042720781E+04  0.64582374703E+03 0.  0.
         13    1    3    3    0    0 -0.23014473866E+03  0.54116915782E+02  0.71783461744E+02  0.24707915065E+03  0.00000000000E+00 0. -1.
          2    1    3    3  501    0  0.23014473866E+03 -0.54116915782E+02  0.82394446020E+03  0.85719292741E+03  0.00000000000E+00 0. -1.
<mgrwt>
<rscale>  0 0.64582375E+03</rscale>
<asrwt>0</asrwt>
<pdfrwt beam="1">0</pdfrwt>
<pdfrwt beam="2">  1        2 0.37917199E+00 0.64582375E+03</pdfrwt>
<totfact> 0.47619317E+00</totfact>
</mgrwt>
</event>
<event>
 5    1  0.2369161E-004  0.6521256E+03  0.7818608E-02  0.9802799E-01
         13   -1    0    0    0    0  0.00000000000E+00  0.00000000000E+00  0.10000000000E+04  0.10000000000E+04  0.00000000000E+00 0. -1.
          2   -1    0    0  501    0 -0.00000000000E+00 -0.00000000000E+00 -0.10631693451E+03  0.10631693451E+03  0.00000000000E+00 0. -1.
    9000006    2    1    2  501    0  0.00000000000E+00  0.00000000000E+00  0.89368306549E+03  0.11063169345E+04  0.65212555389E+03 0.  0.
         13    1    3    3    0    0 -0.25181577070E+03 -0.20425395915E+03  0.38841583270E+03  0.50596217378E+03  0.00000000000E+00 0. -1.
          4    1    3    3  501    0  0.25181577070E+03  0.20425395915E+03  0.50526723279E+03  0.60035476073E+03  0.00000000000E+00 0. -1.
<mgrwt>
<rscale>  0 0.65212555E+03</rscale>
<asrwt>0</asrwt>
<pdfrwt beam="1">0</pdfrwt>
<pdfrwt beam="2">  1        2 0.38660785E+00 0.65212555E+03</pdfrwt>
<totfact> 0.44675774E+00</totfact>
</mgrwt>
</event>
<event>
 5    1  0.2369161E-004  0.6596604E+03  0.7818608E-02  0.9788819E-01
         13   -1    0    0    0    0  0.00000000000E+00  0.00000000000E+00  0.10000000000E+04  0.10000000000E+04  0.00000000000E+00 0. -1.
          2   -1    0    0  501    0 -0.00000000000E+00 -0.00000000000E+00 -0.10878797196E+03  0.10878797196E+03  0.00000000000E+00 0. -1.
    9000006    2    1    2  501    0  0.00000000000E+00  0.00000000000E+00  0.89121202804E+03  0.11087879720E+04  0.65966043374E+03 0.  0.
         13    1    3    3    0    0  0.17390436163E+03  0.19985817391E+03  0.77584833035E+03  0.81983330524E+03  0.00000000000E+00 0. -1.
          4    1    3    3  501    0 -0.17390436163E+03 -0.19985817391E+03  0.11536369769E+03  0.28895466672E+03  0.00000000000E+00 0. -1.
<mgrwt>
<rscale>  0 0.65966043E+03</rscale>
<asrwt>0</asrwt>
<pdfrwt beam="1">0</pdfrwt>
<pdfrwt beam="2">  1        2 0.39559346E+00 0.65966043E+03</pdfrwt>
<totfact> 0.41339158E+00</totfact>
</mgrwt>
</event>
<event>
 5    1  0.2369161E-004  0.6500641E+03  0.7818608E-02  0.9806659E-01
         13   -1    0    0    0    0  0.00000000000E+00  0.00000000000E+00  0.10000000000E+04  0.10000000000E+04  0.00000000000E+00 0. -1.
          2   -1    0    0  501    0 -0.00000000000E+00 -0.00000000000E+00 -0.10564582235E+03  0.10564582235E+03  0.00000000000E+00 0. -1.
    9000006    2    1    2  501    0  0.00000000000E+00  0.00000000000E+00  0.89435417765E+03  0.11056458223E+04  0.65006406561E+03 0.  0.
         13    1    3    3    0    0 -0.10316292424E+03  0.17212606242E+02 -0.76243518347E+02  0.12942927351E+03  0.00000000000E+00 0. -1.
          2    1    3    3  501    0  0.10316292424E+03 -0.17212606242E+02  0.97059769600E+03  0.97621654884E+03  0.00000000000E+00 0. -1.
<mgrwt>
<rscale>  0 0.65006407E+03</rscale>
<asrwt>0</asrwt>
<pdfrwt beam="1">0</pdfrwt>
<pdfrwt beam="2">  1        2 0.38416744E+00 0.65006407E+03</pdfrwt>
<totfact> 0.45623091E+00</totfact>
</mgrwt>
</event>
<event>
 5    1  0.2369161E-004  0.6437402E+03  0.7818608E-02  0.9818597E-01
         13   -1    0    0    0    0  0.00000000000E+00  0.00000000000E+00  0.10000000000E+04  0.10000000000E+04  0.00000000000E+00 0. -1.
          2   -1    0    0  501    0 -0.00000000000E+00 -0.00000000000E+00 -0.10360035595E+03  0.10360035595E+03  0.00000000000E+00 0. -1.
    9000006    2    1    2  501    0  0.00000000000E+00  0.00000000000E+00  0.89639964405E+03  0.11036003559E+04  0.64374018346E+03 0.  0.
         13    1    3    3    0    0  0.16831815252E+03 -0.24695677952E+03  0.24332375220E+03  0.38538954293E+03  0.00000000000E+00 0. -1.
          2    1    3    3  501    0 -0.16831815252E+03  0.24695677952E+03  0.65307589185E+03  0.71821081302E+03  0.00000000000E+00 0. -1.
<mgrwt>
<rscale>  0 0.64374018E+03</rscale>
<asrwt>0</asrwt>
<pdfrwt beam="1">0</pdfrwt>
<pdfrwt beam="2">  1        2 0.37672936E+00 0.64374018E+03</pdfrwt>
<totfact> 0.48624065E+00</totfact>
</mgrwt>
</event>
<event>
 5    1  0.2369161E-004  0.6468169E+03  0.7818608E-02  0.9812770E-01
         13   -1    0    0    0    0  0.00000000000E+00  0.00000000000E+00  0.10000000000E+04  0.10000000000E+04  0.00000000000E+00 0. -1.
          2   -1    0    0  501    0 -0.00000000000E+00 -0.00000000000E+00 -0.10459303645E+03  0.10459303645E+03  0.00000000000E+00 0. -1.
    9000006    2    1    2  501    0  0.00000000000E+00  0.00000000000E+00  0.89540696355E+03  0.11045930364E+04  0.64681693376E+03 0.  0.
         13    1    3    3    0    0  0.32793359215E+02  0.27961082339E+03  0.17588125278E+03  0.33195155075E+03  0.00000000000E+00 0. -1.
          4    1    3    3  501    0 -0.32793359215E+02 -0.27961082339E+03  0.71952571077E+03  0.77264148570E+03  0.00000000000E+00 0. -1.
<mgrwt>
<rscale>  0 0.64681693E+03</rscale>
<asrwt>0</asrwt>
<pdfrwt beam="1">0</pdfrwt>
<pdfrwt beam="2">  1        2 0.38033912E+00 0.64681693E+03</pdfrwt>
<totfact> 0.47145944E+00</totfact>
</mgrwt>
</event>
<event>
 5    1  0.2369161E-004  0.6676777E+03  0.7818608E-02  0.9774162E-01
         13   -1    0    0    0    0  0.00000000000E+00  0.00000000000E+00  0.10000000000E+04  0.10000000000E+04  0.00000000000E+00 0. -1.
          2   -1    0    0  501    0 -0.00000000000E+00 -0.00000000000E+00 -0.11144837153E+03  0.11144837153E+03  0.00000000000E+00 0. -1.
    9000006    2    1    2  501    0  0.00000000000E+00  0.00000000000E+00  0.88855162847E+03  0.11114483715E+04  0.66767768130E+03 0.  0.
         13    1    3    3    0    0  0.20220841927E+03  0.19875615289E+03  0.15091910749E+03  0.32119905065E+03  0.00000000000E+00 0. -1.
          4    1    3    3  501    0 -0.20220841927E+03 -0.19875615289E+03  0.73763252099E+03  0.79024932088E+03  0.00000000000E+00 0. -1.
<mgrwt>
<rscale>  0 0.66767768E+03</rscale>
<asrwt>0</asrwt>
<pdfrwt beam="1">0</pdfrwt>
<pdfrwt beam="2">  1        2 0.40526766E+00 0.66767768E+03</pdfrwt>
<totfact> 0.37999394E+00</totfact>
</mgrwt>
</event>
<event>
 5    1  0.2369161E-004  0.6515171E+03  0.7818608E-02  0.9803937E-01
         13   -1    0    0    0    0  0.00000000000E+00  0.00000000000E+00  0.10000000000E+04  0.10000000000E+04  0.00000000000E+00 0. -1.
          2   -1    0    0  501    0 -0.00000000000E+00 -0.00000000000E+00 -0.10611862594E+03  0.10611862594E+03  0.00000000000E+00 0. -1.
    9000006    2    1    2  501    0  0.00000000000E+00  0.00000000000E+00  0.89388137406E+03  0.11061186259E+04  0.65151707865E+03 0.  0.
         13    1    3    3    0    0 -0.27278122168E+03  0.13253699806E+03  0.24503605126E+03  0.38989526437E+03  0.00000000000E+00 0. -1.
          4    1    3    3  501    0  0.27278122168E+03 -0.13253699806E+03  0.64884532279E+03  0.71622336158E+03  0.00000000000E+00 0. -1.
<mgrwt>
<rscale>  0 0.65151708E+03</rscale>
<asrwt>0</asrwt>
<pdfrwt beam="1">0</pdfrwt>
<pdfrwt beam="2">  1        2 0.38588673E+00 0.65151708E+03</pdfrwt>
<totfact> 0.44953826E+00</totfact>
</mgrwt>
</event>
<event>
 5    1  0.2369161E-004  0.6513884E+03  0.7818608E-02  0.9804178E-01
         13   -1    0    0    0    0  0.00000000000E+00  0.00000000000E+00  0.10000000000E+04  0.10000000000E+04  0.00000000000E+00 0. -1.
          2   -1    0    0  501    0 -0.00000000000E+00 -0.00000000000E+00 -0.10607669956E+03  0.10607669956E+03  0.00000000000E+00 0. -1.
    9000006    2    1    2  501    0  0.00000000000E+00  0.00000000000E+00  0.89392330044E+03  0.11060766996E+04  0.65138836207E+03 0.  0.
         13    1    3    3    0    0 -0.27660944737E+02  0.15006201350E+03 -0.41625412826E+02  0.15816576985E+03  0.00000000000E+00 0. -1.
          4    1    3    3  501    0  0.27660944737E+02 -0.15006201350E+03  0.93554871327E+03  0.94791092971E+03  0.00000000000E+00 0. -1.
<mgrwt>
<rscale>  0 0.65138836E+03</rscale>
<asrwt>0</asrwt>
<pdfrwt beam="1">0</pdfrwt>
<pdfrwt beam="2">  1        2 0.38573427E+00 0.65138836E+03</pdfrwt>
<totfact> 0.45012812E+00</totfact>
</mgrwt>
</event>
<event>
 5    1  0.2369161E-004  0.5552872E+03  0.7818608E-02  0.1000278E+00
         13   -1    0    0    0    0  0.00000000000E+00  0.00000000000E+00  0.10000000000E+04  0.10000000000E+04  0.00000000000E+00 0. -1.
          2   -1    0    0  501    0 -0.00000000000E+00 -0.00000000000E+00 -0.77085973746E+02  0.77085973746E+02  0.00000000000E+00 0. -1.
    9000006    2    1    2  501    0  0.00000000000E+00  0.00000000000E+00  0.92291402625E+03  0.10770859737E+04  0.55528721846E+03 0.  0.
         13    1    3    3    0    0 -0.20057470705E+02 -0.23431993925E+03  0.17521058797E+03  0.29326930661E+03  0.00000000000E+00 0. -1.
          4    1    3    3  501    0  0.20057470705E+02  0.23431993925E+03  0.74770343828E+03  0.78381666714E+03  0.00000000000E+00 0. -1.
<mgrwt>
<rscale>  0 0.55528722E+03</rscale>
<asrwt>0</asrwt>
<pdfrwt beam="1">0</pdfrwt>
<pdfrwt beam="2">  1        2 0.28031322E+00 0.55528722E+03</pdfrwt>
<totfact> 0.10856623E+01</totfact>
</mgrwt>
</event>
<event>
 5    1  0.2369161E-004  0.6510151E+03  0.7818608E-02  0.9804876E-01
         13   -1    0    0    0    0  0.00000000000E+00  0.00000000000E+00  0.10000000000E+04  0.10000000000E+04  0.00000000000E+00 0. -1.
          2   -1    0    0  501    0 -0.00000000000E+00 -0.00000000000E+00 -0.10595516204E+03  0.10595516204E+03  0.00000000000E+00 0. -1.
    9000006    2    1    2  501    0  0.00000000000E+00  0.00000000000E+00  0.89404483796E+03  0.11059551620E+04  0.65101509057E+03 0.  0.
         13    1    3    3    0    0 -0.30230153602E+03 -0.10224721074E+03  0.55599128340E+03  0.64106709322E+03  0.00000000000E+00 0. -1.
          4    1    3    3  501    0  0.30230153602E+03  0.10224721074E+03  0.33805355456E+03  0.46488806882E+03  0.00000000000E+00 0. -1.
<mgrwt>
<rscale>  0 0.65101509E+03</rscale>
<asrwt>0</asrwt>
<pdfrwt beam="1">0</pdfrwt>
<pdfrwt beam="2">  1        2 0.38529231E+00 0.65101509E+03</pdfrwt>
<totfact> 0.45184200E+00</totfact>
</mgrwt>
</event>
<event>
 5    1  0.2369161E-004  0.6334389E+03  0.7818608E-02  0.9838361E-01
         13   -1    0    0    0    0  0.00000000000E+00  0.00000000000E+00  0.10000000000E+04  0.10000000000E+04  0.00000000000E+00 0. -1.
          2   -1    0    0  501    0 -0.00000000000E+00 -0.00000000000E+00 -0.10031120519E+03  0.10031120519E+03  0.00000000000E+00 0. -1.
    9000006    2    1    2  501    0  0.00000000000E+00  0.00000000000E+00  0.89968879481E+03  0.11003112052E+04  0.63343888478E+03 0.  0.
         13    1    3    3    0    0  0.15142753860E+03  0.48625318744E+02  0.92560575937E+03  0.93917024168E+03  0.00000000000E+00 0. -1.
          4    1    3    3  501    0 -0.15142753860E+03 -0.48625318744E+02 -0.25916964563E+02  0.16114096351E+03  0.00000000000E+00 0. -1.
<mgrwt>
<rscale>  0 0.63343888E+03</rscale>
<asrwt>0</asrwt>
<pdfrwt beam="1">0</pdfrwt>
<pdfrwt beam="2">  1        2 0.36476879E+00 0.63343888E+03</pdfrwt>
<totfact> 0.53830072E+00</totfact>
</mgrwt>
</event>
<event>
 5    1  0.2369161E-004  0.6530995E+03  0.7818608E-02  0.9800981E-01
         13   -1    0    0    0    0  0.00000000000E+00  0.00000000000E+00  0.10000000000E+04  0.10000000000E+04  0.00000000000E+00 0. -1.
          2   -1    0    0  501    0 -0.00000000000E+00 -0.00000000000E+00 -0.10663472581E+03  0.10663472581E+03  0.00000000000E+00 0. -1.
    9000006    2    1    2  501    0  0.00000000000E+00  0.00000000000E+00  0.89336527419E+03  0.11066347258E+04  0.65309945893E+03 0.  0.
         13    1    3    3    0    0 -0.26525428994E+03  0.16240435242E+03  0.27809089833E+03  0.41721644233E+03  0.00000000000E+00 0. -1.
          4    1    3    3  501    0  0.26525428994E+03 -0.16240435242E+03  0.61527437586E+03  0.68941828349E+03  0.00000000000E+00 0. -1.
<mgrwt>
<rscale>  0 0.65309946E+03</rscale>
<asrwt>0</asrwt>
<pdfrwt beam="1">0</pdfrwt>
<pdfrwt beam="2">  1        2 0.38776346E+00 0.65309946E+03</pdfrwt>
<totfact> 0.44233440E+00</totfact>
</mgrwt>
</event>
<event>
 5    1  0.2369161E-004  0.6467965E+03  0.7818608E-02  0.9812809E-01
         13   -1    0    0    0    0  0.00000000000E+00  0.00000000000E+00  0.10000000000E+04  0.10000000000E+04  0.00000000000E+00 0. -1.
          2   -1    0    0  501    0 -0.00000000000E+00 -0.00000000000E+00 -0.10458642604E+03  0.10458642604E+03  0.00000000000E+00 0. -1.
    9000006    2    1    2  501    0  0.00000000000E+00  0.00000000000E+00  0.89541357396E+03  0.11045864260E+04  0.64679649362E+03 0.  0.
         13    1    3    3    0    0 -0.59090755324E+02 -0.19420812852E+03  0.17773563448E+02  0.20377540113E+03  0.00000000000E+00 0. -1.
          2    1    3    3  501    0  0.59090755324E+02  0.19420812852E+03  0.87764001051E+03  0.90081102491E+03  0.00000000000E+00 0. -1.
<mgrwt>
<rscale>  0 0.64679649E+03</rscale>
<asrwt>0</asrwt>
<pdfrwt beam="1">0</pdfrwt>
<pdfrwt beam="2">  1        2 0.38031508E+00 0.64679649E+03</pdfrwt>
<totfact> 0.47155650E+00</totfact>
</mgrwt>
</event>
<event>
 5    1  0.2369161E-004  0.4649619E+03  0.7818608E-02  0.1023352E+00
         13   -1    0    0    0    0  0.00000000000E+00  0.00000000000E+00  0.10000000000E+04  0.10000000000E+04  0.00000000000E+00 0. -1.
          2   -1    0    0  501    0 -0.00000000000E+00 -0.00000000000E+00 -0.54047384501E+02  0.54047384501E+02  0.00000000000E+00 0. -1.
    9000006    2    1    2  501    0  0.00000000000E+00  0.00000000000E+00  0.94595261550E+03  0.10540473845E+04  0.46496186726E+03 0.  0.
         13    1    3    3    0    0 -0.13503928523E+03 -0.64003114836E+02  0.69258655572E+02  0.16470813166E+03  0.00000000000E+00 0. -1.
          4    1    3    3  501    0  0.13503928523E+03  0.64003114836E+02  0.87669395993E+03  0.88933925284E+03  0.00000000000E+00 0. -1.
<mgrwt>
<rscale>  0 0.46496187E+03</rscale>
<asrwt>0</asrwt>
<pdfrwt beam="1">0</pdfrwt>
<pdfrwt beam="2">  1        2 0.19653636E+00 0.46496187E+03</pdfrwt>
<totfact> 0.21891810E+01</totfact>
</mgrwt>
</event>
<event>
 5    1  0.2369161E-004  0.6431627E+03  0.7818608E-02  0.9819694E-01
         13   -1    0    0    0    0  0.00000000000E+00  0.00000000000E+00  0.10000000000E+04  0.10000000000E+04  0.00000000000E+00 0. -1.
          2   -1    0    0  501    0 -0.00000000000E+00 -0.00000000000E+00 -0.10341456023E+03  0.10341456023E+03  0.00000000000E+00 0. -1.
    9000006    2    1    2  501    0  0.00000000000E+00  0.00000000000E+00  0.89658543977E+03  0.11034145602E+04  0.64316268620E+03 0.  0.
         13    1    3    3    0    0 -0.12857431473E+03  0.10055413805E+03 -0.27063847743E+02  0.16545374260E+03  0.00000000000E+00 0. -1.
          2    1    3    3  501    0  0.12857431473E+03 -0.10055413805E+03  0.92364928751E+03  0.93796081763E+03  0.00000000000E+00 0. -1.
<mgrwt>
<rscale>  0 0.64316269E+03</rscale>
<asrwt>0</asrwt>
<pdfrwt beam="1">0</pdfrwt>
<pdfrwt beam="2">  1        2 0.37605374E+00 0.64316269E+03</pdfrwt>
<totfact> 0.48905368E+00</totfact>
</mgrwt>
</event>
<event>
 5    1  0.2369161E-004  0.6391545E+03  0.7818608E-02  0.9827345E-01
         13   -1    0    0    0    0  0.00000000000E+00  0.00000000000E+00  0.10000000000E+04  0.10000000000E+04  0.00000000000E+00 0. -1.
          2   -1    0    0  501    0 -0.00000000000E+00 -0.00000000000E+00 -0.10212963239E+03  0.10212963239E+03  0.00000000000E+00 0. -1.
    9000006    2    1    2  501    0  0.00000000000E+00  0.00000000000E+00  0.89787036761E+03  0.11021296324E+04  0.63915454280E+03 0.  0.
         13    1    3    3    0    0  0.99959602875E+02 -0.85742309472E+02  0.95103352538E+03  0.96010855232E+03  0.00000000000E+00 0. -1.
          2    1    3    3  501    0 -0.99959602875E+02  0.85742309472E+02 -0.53163157775E+02  0.14202108007E+03  0.00000000000E+00 0. -1.
<mgrwt>
<rscale>  0 0.63915454E+03</rscale>
<asrwt>0</asrwt>
<pdfrwt beam="1">0</pdfrwt>
<pdfrwt beam="2">  1        2 0.37138126E+00 0.63915454E+03</pdfrwt>
<totfact> 0.50892022E+00</totfact>
</mgrwt>
</event>
<event>
 5    1  0.2369161E-004  0.6412872E+03  0.7818608E-02  0.9823267E-01
         13   -1    0    0    0    0  0.00000000000E+00  0.00000000000E+00  0.10000000000E+04  0.10000000000E+04  0.00000000000E+00 0. -1.
          2   -1    0    0  501    0 -0.00000000000E+00 -0.00000000000E+00 -0.10281231128E+03  0.10281231128E+03  0.00000000000E+00 0. -1.
    9000006    2    1    2  501    0  0.00000000000E+00  0.00000000000E+00  0.89718768872E+03  0.11028123113E+04  0.64128717834E+03 0.  0.
         13    1    3    3    0    0 -0.16058442917E+03  0.21202816310E+03  0.75655208392E+03  0.80194411060E+03  0.00000000000E+00 0. -1.
          4    1    3    3  501    0  0.16058442917E+03 -0.21202816310E+03  0.14063560480E+03  0.30086820068E+03  0.00000000000E+00 0. -1.
<mgrwt>
<rscale>  0 0.64128718E+03</rscale>
<asrwt>0</asrwt>
<pdfrwt beam="1">0</pdfrwt>
<pdfrwt beam="2">  1        2 0.37386374E+00 0.64128718E+03</pdfrwt>
<totfact> 0.49827506E+00</totfact>
</mgrwt>
</event>
<event>
 5    1  0.2369161E-004  0.6445459E+03  0.7818608E-02  0.9817068E-01
         13   -1    0    0    0    0  0.00000000000E+00  0.00000000000E+00  0.10000000000E+04  0.10000000000E+04  0.00000000000E+00 0. -1.
          2   -1    0    0  501    0 -0.00000000000E+00 -0.00000000000E+00 -0.10385985676E+03  0.10385985676E+03  0.00000000000E+00 0. -1.
    9000006    2    1    2  501    0  0.00000000000E+00  0.00000000000E+00  0.89614014324E+03  0.11038598568E+04  0.64454590762E+03 0.  0.
         13    1    3    3    0    0  0.18428299267E+03 -0.23156823339E+03  0.22958030260E+03  0.37455464681E+03  0.00000000000E+00 0. -1.
          2    1    3    3  501    0 -0.18428299267E+03  0.23156823339E+03  0.66655984064E+03  0.72930520995E+03  0.00000000000E+00 0. -1.
<mgrwt>
<rscale>  0 0.64454591E+03</rscale>
<asrwt>0</asrwt>
<pdfrwt beam="1">0</pdfrwt>
<pdfrwt beam="2">  1        2 0.37767300E+00 0.64454591E+03</pdfrwt>
<totfact> 0.48233641E+00</totfact>
</mgrwt>
</event>
<event>
 5    1  0.2369161E-004  0.6295766E+03  0.7818608E-02  0.9845875E-01
         13   -1    0    0    0    0  0.00000000000E+00  0.00000000000E+00  0.10000000000E+04  0.10000000000E+04  0.00000000000E+00 0. -1.
          2   -1    0    0  501    0 -0.00000000000E+00 -0.00000000000E+00 -0.99091676947E+02  0.99091676947E+02  0.00000000000E+00 0. -1.
    9000006    2    1    2  501    0  0.00000000000E+00  0.00000000000E+00  0.90090832305E+03  0.10990916769E+04  0.62957660994E+03 0.  0.
         13    1    3    3    0    0 -0.61260698119E+01  0.10389343083E+03  0.96909658988E+03  0.97466895622E+03  0.00000000000E+00 0. -1.
          2    1    3    3  501    0  0.61260698119E+01 -0.10389343083E+03 -0.68188266828E+02  0.12442272073E+03  0.00000000000E+00 0. -1.
<mgrwt>
<rscale>  0 0.62957661E+03</rscale>
<asrwt>0</asrwt>
<pdfrwt beam="1">0</pdfrwt>
<pdfrwt beam="2">  1        2 0.36033413E+00 0.62957661E+03</pdfrwt>
<totfact> 0.55887016E+00</totfact>
</mgrwt>
</event>
<event>
 5    1  0.2369161E-004  0.6578857E+03  0.7818608E-02  0.9792094E-01
         13   -1    0    0    0    0  0.00000000000E+00  0.00000000000E+00  0.10000000000E+04  0.10000000000E+04  0.00000000000E+00 0. -1.
          2   -1    0    0  501    0 -0.00000000000E+00 -0.00000000000E+00 -0.10820338935E+03  0.10820338935E+03  0.00000000000E+00 0. -1.
    9000006    2    1    2  501    0  0.00000000000E+00  0.00000000000E+00  0.89179661065E+03  0.11082033893E+04  0.65788567198E+03 0.  0.
         13    1    3    3    0    0  0.17256220020E+03  0.21002473607E+03  0.13385644274E+03  0.30299447184E+03  0.00000000000E+00 0. -1.
          4    1    3    3  501    0 -0.17256220020E+03 -0.21002473607E+03  0.75794016792E+03  0.80520891751E+03  0.00000000000E+00 0. -1.
<mgrwt>
<rscale>  0 0.65788567E+03</rscale>
<asrwt>0</asrwt>
<pdfrwt beam="1">0</pdfrwt>
<pdfrwt beam="2">  1        2 0.39346770E+00 0.65788567E+03</pdfrwt>
<totfact> 0.42107478E+00</totfact>
</mgrwt>
</event>
<event>
 5    1  0.2369161E-004  0.6440899E+03  0.7818608E-02  0.9817933E-01
         13   -1    0    0    0    0  0.00000000000E+00  0.00000000000E+00  0.10000000000E+04  0.10000000000E+04  0.00000000000E+00 0. -1.
          2   -1    0    0  501    0 -0.00000000000E+00 -0.00000000000E+00 -0.10371295821E+03  0.10371295821E+03  0.00000000000E+00 0. -1.
    9000006    2    1    2  501    0  0.00000000000E+00  0.00000000000E+00  0.89628704179E+03  0.11037129582E+04  0.64408992604E+03 0.  0.
         13    1    3    3    0    0 -0.15059632858E+02  0.54520011971E+02 -0.95134753794E+02  0.11067902072E+03  0.00000000000E+00 0. -1.
          4    1    3    3  501    0  0.15059632858E+02 -0.54520011971E+02  0.99142179559E+03  0.99303393749E+03  0.00000000000E+00 0. -1.
<mgrwt>
<rscale>  0 0.64408993E+03</rscale>
<asrwt>0</asrwt>
<pdfrwt beam="1">0</pdfrwt>
<pdfrwt beam="2">  1        2 0.37713883E+00 0.64408993E+03</pdfrwt>
<totfact> 0.48454300E+00</totfact>
</mgrwt>
</event>
<event>
 5    1  0.2369161E-004  0.6416914E+03  0.7818608E-02  0.9822496E-01
         13   -1    0    0    0    0  0.00000000000E+00  0.00000000000E+00  0.10000000000E+04  0.10000000000E+04  0.00000000000E+00 0. -1.
          2   -1    0    0  501    0 -0.00000000000E+00 -0.00000000000E+00 -0.10294197490E+03  0.10294197490E+03  0.00000000000E+00 0. -1.
    9000006    2    1    2  501    0  0.00000000000E+00  0.00000000000E+00  0.89705802510E+03  0.11029419749E+04  0.64169143644E+03 0.  0.
         13    1    3    3    0    0 -0.17873950430E+03 -0.19060298695E+03  0.76854371437E+03  0.81174919152E+03  0.00000000000E+00 0. -1.
          2    1    3    3  501    0  0.17873950430E+03  0.19060298695E+03  0.12851431073E+03  0.29119278338E+03  0.00000000000E+00 0. -1.
<mgrwt>
<rscale>  0 0.64169144E+03</rscale>
<asrwt>0</asrwt>
<pdfrwt beam="1">0</pdfrwt>
<pdfrwt beam="2">  1        2 0.37433524E+00 0.64169144E+03</pdfrwt>
<totfact> 0.49627635E+00</totfact>
</mgrwt>
</event>
<event>
 5    1  0.2369161E-004  0.6642380E+03  0.7818608E-02  0.9780423E-01
         13   -1    0    0    0    0  0.00000000000E+00  0.00000000000E+00  0.10000000000E+04  0.10000000000E+04  0.00000000000E+00 0. -1.
          2   -1    0    0  501    0 -0.00000000000E+00 -0.00000000000E+00 -0.11030304634E+03  0.11030304634E+03  0.00000000000E+00 0. -1.
    9000006    2    1    2  501    0  0.00000000000E+00  0.00000000000E+00  0.88969695366E+03  0.11103030463E+04  0.66423804872E+03 0.  0.
         13    1    3    3    0    0  0.21107450468E+03 -0.22311652045E+02  0.87183810412E+03  0.89730258895E+03  0.00000000000E+00 0. -1.
          4    1    3    3  501    0 -0.21107450468E+03  0.22311652045E+02  0.17858849537E+02  0.21300045739E+03  0.00000000000E+00 0. -1.
<mgrwt>
<rscale>  0 0.66423805E+03</rscale>
<asrwt>0</asrwt>
<pdfrwt beam="1">0</pdfrwt>
<pdfrwt beam="2">  1        2 0.40110283E+00 0.66423805E+03</pdfrwt>
<totfact> 0.39406290E+00</totfact>
</mgrwt>
</event>
<event>
 5    1  0.2369161E-004  0.6291891E+03  0.7818608E-02  0.9846633E-01
         13   -1    0    0    0    0  0.00000000000E+00  0.00000000000E+00  0.10000000000E+04  0.10000000000E+04  0.00000000000E+00 0. -1.
          2   -1    0    0  501    0 -0.00000000000E+00 -0.00000000000E+00 -0.98969724953E+02  0.98969724953E+02  0.00000000000E+00 0. -1.
    9000006    2    1    2  501    0  0.00000000000E+00  0.00000000000E+00  0.90103027505E+03  0.10989697250E+04  0.62918908113E+03 0.  0.
         13    1    3    3    0    0  0.26392594772E+03  0.15366802864E+03  0.31865843675E+03  0.44137735353E+03  0.00000000000E+00 0. -1.
          4    1    3    3  501    0 -0.26392594772E+03 -0.15366802864E+03  0.58237183830E+03  0.65759237142E+03  0.00000000000E+00 0. -1.
<mgrwt>
<rscale>  0 0.62918908E+03</rscale>
<asrwt>0</asrwt>
<pdfrwt beam="1">0</pdfrwt>
<pdfrwt beam="2">  1        2 0.35989067E+00 0.62918908E+03</pdfrwt>
<totfact> 0.56096647E+00</totfact>
</mgrwt>
</event>
<event>
 5    1  0.2369161E-004  0.7304305E+03  0.7818608E-02  0.9666562E-01
         13   -1    0    0    0    0  0.00000000000E+00  0.00000000000E+00  0.10000000000E+04  0.10000000000E+04  0.00000000000E+00 0. -1.
          2   -1    0    0  501    0 -0.00000000000E+00 -0.00000000000E+00 -0.13338217087E+03  0.13338217087E+03  0.00000000000E+00 0. -1.
    9000006    2    1    2  501    0  0.00000000000E+00  0.00000000000E+00  0.86661782913E+03  0.11333821709E+04  0.73043047820E+03 0.  0.
         13    1    3    3    0    0 -0.20274299989E+03 -0.28017159713E+03  0.61546469032E+03  0.70597282729E+03  0.00000000000E+00 0. -1.
          2    1    3    3  501    0  0.20274299989E+03  0.28017159713E+03  0.25115313881E+03  0.42740934358E+03  0.00000000000E+00 0. -1.
<mgrwt>
<rscale>  0 0.73043048E+03</rscale>
<asrwt>0</asrwt>
<pdfrwt beam="1">0</pdfrwt>
<pdfrwt beam="2">  1        2 0.48502710E+00 0.73043048E+03</pdfrwt>
<totfact> 0.18352300E+00</totfact>
</mgrwt>
</event>
<event>
 5    1  0.2369161E-004  0.6540767E+03  0.7818608E-02  0.9799159E-01
         13   -1    0    0    0    0  0.00000000000E+00  0.00000000000E+00  0.10000000000E+04  0.10000000000E+04  0.00000000000E+00 0. -1.
          2   -1    0    0  501    0 -0.00000000000E+00 -0.00000000000E+00 -0.10695408854E+03  0.10695408854E+03  0.00000000000E+00 0. -1.
    9000006    2    1    2  501    0  0.00000000000E+00  0.00000000000E+00  0.89304591146E+03  0.11069540885E+04  0.65407671885E+03 0.  0.
         13    1    3    3    0    0  0.44988176180E+02 -0.26917283159E+03  0.14153470075E+03  0.30742482135E+03  0.00000000000E+00 0. -1.
          4    1    3    3  501    0 -0.44988176180E+02  0.26917283159E+03  0.75151121072E+03  0.79952926719E+03  0.00000000000E+00 0. -1.
<mgrwt>
<rscale>  0 0.65407672E+03</rscale>
<asrwt>0</asrwt>
<pdfrwt beam="1">0</pdfrwt>
<pdfrwt beam="2">  1        2 0.38892478E+00 0.65407672E+03</pdfrwt>
<totfact> 0.43792915E+00</totfact>
</mgrwt>
</event>
<event>
 5    1  0.2369161E-004  0.6487193E+03  0.7818608E-02  0.9809185E-01
         13   -1    0    0    0    0  0.00000000000E+00  0.00000000000E+00  0.10000000000E+04  0.10000000000E+04  0.00000000000E+00 0. -1.
          2   -1    0    0  501    0 -0.00000000000E+00 -0.00000000000E+00 -0.10520918674E+03  0.10520918674E+03  0.00000000000E+00 0. -1.
    9000006    2    1    2  501    0  0.00000000000E+00  0.00000000000E+00  0.89479081326E+03  0.11052091867E+04  0.64871931293E+03 0.  0.
         13    1    3    3    0    0 -0.62278638864E+02  0.21256916290E+03  0.43710186276E+02  0.22577612420E+03  0.00000000000E+00 0. -1.
          2    1    3    3  501    0  0.62278638864E+02 -0.21256916290E+03  0.85108062698E+03  0.87943306254E+03  0.00000000000E+00 0. -1.
<mgrwt>
<rscale>  0 0.64871931E+03</rscale>
<asrwt>0</asrwt>
<pdfrwt beam="1">0</pdfrwt>
<pdfrwt beam="2">  1        2 0.38257967E+00 0.64871931E+03</pdfrwt>
<totfact> 0.46249175E+00</totfact>
</mgrwt>
</event>
<event>
 5    1  0.2369161E-004  0.6620971E+03  0.7818608E-02  0.9784341E-01
         13   -1    0    0    0    0  0.00000000000E+00  0.00000000000E+00  0.10000000000E+04  0.10000000000E+04  0.00000000000E+00 0. -1.
          2   -1    0    0  501    0 -0.00000000000E+00 -0.00000000000E+00 -0.10959315613E+03  0.10959315613E+03  0.00000000000E+00 0. -1.
    9000006    2    1    2  501    0  0.00000000000E+00  0.00000000000E+00  0.89040684387E+03  0.11095931561E+04  0.66209714130E+03 0.  0.
         13    1    3    3    0    0  0.23094148653E+03  0.30104687259E+02  0.50916636814E+02  0.23839623801E+03  0.00000000000E+00 0. -1.
          4    1    3    3  501    0 -0.23094148653E+03 -0.30104687259E+02  0.83949020706E+03  0.87119691812E+03  0.00000000000E+00 0. -1.
<mgrwt>
<rscale>  0 0.66209714E+03</rscale>
<asrwt>0</asrwt>
<pdfrwt beam="1">0</pdfrwt>
<pdfrwt beam="2">  1        2 0.39852141E+00 0.66209714E+03</pdfrwt>
<totfact> 0.40301584E+00</totfact>
</mgrwt>
</event>
<event>
 5    1  0.2369161E-004  0.6801227E+03  0.7818608E-02  0.9751842E-01
         13   -1    0    0    0    0  0.00000000000E+00  0.00000000000E+00  0.10000000000E+04  0.10000000000E+04  0.00000000000E+00 0. -1.
          2   -1    0    0  501    0 -0.00000000000E+00 -0.00000000000E+00 -0.11564172040E+03  0.11564172040E+03  0.00000000000E+00 0. -1.
    9000006    2    1    2  501    0  0.00000000000E+00  0.00000000000E+00  0.88435827960E+03  0.11156417204E+04  0.68012269599E+03 0.  0.
         13    1    3    3    0    0  0.19390681112E+03 -0.59595939782E+02  0.88987907207E+03  0.91270821753E+03  0.00000000000E+00 0. -1.
          2    1    3    3  501    0 -0.19390681112E+03  0.59595939782E+02 -0.55207924701E+01  0.20293350287E+03  0.00000000000E+00 0. -1.
<mgrwt>
<rscale>  0 0.68012270E+03</rscale>
<asrwt>0</asrwt>
<pdfrwt beam="1">0</pdfrwt>
<pdfrwt beam="2">  1        2 0.42051623E+00 0.68012270E+03</pdfrwt>
<totfact> 0.33223242E+00</totfact>
</mgrwt>
</event>
<event>
 5    1  0.2369161E-004  0.6506868E+03  0.7818608E-02  0.9805491E-01
         13   -1    0    0    0    0  0.00000000000E+00  0.00000000000E+00  0.10000000000E+04  0.10000000000E+04  0.00000000000E+00 0. -1.
          2   -1    0    0  501    0 -0.00000000000E+00 -0.00000000000E+00 -0.10584834154E+03  0.10584834154E+03  0.00000000000E+00 0. -1.
    9000006    2    1    2  501    0  0.00000000000E+00  0.00000000000E+00  0.89415165846E+03  0.11058483415E+04  0.65068684186E+03 0.  0.
         13    1    3    3    0    0 -0.10348863165E+01 -0.60168493527E+02 -0.96307616119E+02  0.11356265022E+03  0.00000000000E+00 0. -1.
          4    1    3    3  501    0  0.10348863165E+01  0.60168493527E+02  0.99045927458E+03  0.99228569132E+03  0.00000000000E+00 0. -1.
<mgrwt>
<rscale>  0 0.65068684E+03</rscale>
<asrwt>0</asrwt>
<pdfrwt beam="1">0</pdfrwt>
<pdfrwt beam="2">  1        2 0.38490387E+00 0.65068684E+03</pdfrwt>
<totfact> 0.45335322E+00</totfact>
</mgrwt>
</event>
<event>
 5    1  0.2369161E-004  0.6584472E+03  0.7818608E-02  0.9791056E-01
         13   -1    0    0    0    0  0.00000000000E+00  0.00000000000E+00  0.10000000000E+04  0.10000000000E+04  0.00000000000E+00 0. -1.
          2   -1    0    0  501    0 -0.00000000000E+00 -0.00000000000E+00 -0.10838819007E+03  0.10838819007E+03  0.00000000000E+00 0. -1.
    9000006    2    1    2  501    0  0.00000000000E+00  0.00000000000E+00  0.89161180993E+03  0.11083881901E+04  0.65844723424E+03 0.  0.
         13    1    3    3    0    0 -0.11413949860E+02  0.32070463478E+03  0.32203260519E+03  0.45462813356E+03  0.00000000000E+00 0. -1.
          2    1    3    3  501    0  0.11413949860E+02 -0.32070463478E+03  0.56957920474E+03  0.65376005651E+03  0.00000000000E+00 0. -1.
<mgrwt>
<rscale>  0 0.65844723E+03</rscale>
<asrwt>0</asrwt>
<pdfrwt beam="1">0</pdfrwt>
<pdfrwt beam="2">  1        2 0.39413970E+00 0.65844723E+03</pdfrwt>
<totfact> 0.41863205E+00</totfact>
</mgrwt>
</event>
<event>
 5    1  0.2369161E-004  0.6539078E+03  0.7818608E-02  0.9799474E-01
         13   -1    0    0    0    0  0.00000000000E+00  0.00000000000E+00  0.10000000000E+04  0.10000000000E+04  0.00000000000E+00 0. -1.
          2   -1    0    0  501    0 -0.00000000000E+00 -0.00000000000E+00 -0.10689886763E+03  0.10689886763E+03  0.00000000000E+00 0. -1.
    9000006    2    1    2  501    0  0.00000000000E+00  0.00000000000E+00  0.89310113237E+03  0.11068988676E+04  0.65390784558E+03 0.  0.
         13    1    3    3    0    0 -0.25967667788E+02  0.10348043956E+03  0.96970540458E+03  0.97555681167E+03  0.00000000000E+00 0. -1.
          2    1    3    3  501    0  0.25967667788E+02 -0.10348043956E+03 -0.76604272204E+02  0.13134205595E+03  0.00000000000E+00 0. -1.
<mgrwt>
<rscale>  0 0.65390785E+03</rscale>
<asrwt>0</asrwt>
<pdfrwt beam="1">0</pdfrwt>
<pdfrwt beam="2">  1        2 0.38872397E+00 0.65390785E+03</pdfrwt>
<totfact> 0.43868801E+00</totfact>
</mgrwt>
</event>
<event>
 5    1  0.2369161E-004  0.6491990E+03  0.7818608E-02  0.9808283E-01
         13   -1    0    0    0    0  0.00000000000E+00  0.00000000000E+00  0.10000000000E+04  0.10000000000E+04  0.00000000000E+00 0. -1.
          2   -1    0    0  501    0 -0.00000000000E+00 -0.00000000000E+00 -0.10536484768E+03  0.10536484768E+03  0.00000000000E+00 0. -1.
    9000006    2    1    2  501    0  0.00000000000E+00  0.00000000000E+00  0.89463515232E+03  0.11053648477E+04  0.64919903784E+03 0.  0.
         13    1    3    3    0    0 -0.30973618827E+03  0.96998694063E+02  0.43978059912E+03  0.54658231616E+03  0.00000000000E+00 0. -1.
          2    1    3    3  501    0  0.30973618827E+03 -0.96998694063E+02  0.45485455319E+03  0.55878253152E+03  0.00000000000E+00 0. -1.
<mgrwt>
<rscale>  0 0.64919904E+03</rscale>
<asrwt>0</asrwt>
<pdfrwt beam="1">0</pdfrwt>
<pdfrwt beam="2">  1        2 0.38314571E+00 0.64919904E+03</pdfrwt>
<totfact> 0.46025087E+00</totfact>
</mgrwt>
</event>
<event>
 5    1  0.2369161E-004  0.5973996E+03  0.7818608E-02  0.9910816E-01
         13   -1    0    0    0    0  0.00000000000E+00  0.00000000000E+00  0.10000000000E+04  0.10000000000E+04  0.00000000000E+00 0. -1.
          2   -1    0    0  501    0 -0.00000000000E+00 -0.00000000000E+00 -0.89221567609E+02  0.89221567609E+02  0.00000000000E+00 0. -1.
    9000006    2    1    2  501    0  0.00000000000E+00  0.00000000000E+00  0.91077843239E+03  0.10892215676E+04  0.59739959026E+03 0.  0.
         13    1    3    3    0    0  0.24948444013E+03 -0.16424812154E+03  0.45305691550E+03  0.54266057529E+03  0.00000000000E+00 0. -1.
          2    1    3    3  501    0 -0.24948444013E+03  0.16424812154E+03  0.45772151689E+03  0.54656099232E+03  0.00000000000E+00 0. -1.
<mgrwt>
<rscale>  0 0.59739959E+03</rscale>
<asrwt>0</asrwt>
<pdfrwt beam="1">0</pdfrwt>
<pdfrwt beam="2">  1        2 0.32444275E+00 0.59739959E+03</pdfrwt>
<totfact> 0.75443631E+00</totfact>
</mgrwt>
</event>
<event>
 5    1  0.2369161E-004  0.4677532E+03  0.7818608E-02  0.1022556E+00
         13   -1    0    0    0    0  0.00000000000E+00  0.00000000000E+00  0.10000000000E+04  0.10000000000E+04  0.00000000000E+00 0. -1.
          2   -1    0    0  501    0 -0.00000000000E+00 -0.00000000000E+00 -0.54698262567E+02  0.54698262567E+02  0.00000000000E+00 0. -1.
    9000006    2    1    2  501    0  0.00000000000E+00  0.00000000000E+00  0.94530173743E+03  0.10546982626E+04  0.46775319375E+03 0.  0.
         13    1    3    3    0    0 -0.10407331860E+03  0.15819344399E+03  0.78215976654E+03  0.80475482090E+03  0.00000000000E+00 0. -1.
          4    1    3    3  501    0  0.10407331860E+03 -0.15819344399E+03  0.16314197089E+03  0.24994344167E+03  0.00000000000E+00 0. -1.
<mgrwt>
<rscale>  0 0.46775319E+03</rscale>
<asrwt>0</asrwt>
<pdfrwt beam="1">0</pdfrwt>
<pdfrwt beam="2">  1        2 0.19890319E+00 0.46775319E+03</pdfrwt>
<totfact> 0.21447141E+01</totfact>
</mgrwt>
</event>
<event>
 5    1  0.2369161E-004  0.6496340E+03  0.7818608E-02  0.9807466E-01
         13   -1    0    0    0    0  0.00000000000E+00  0.00000000000E+00  0.10000000000E+04  0.10000000000E+04  0.00000000000E+00 0. -1.
          2   -1    0    0  501    0 -0.00000000000E+00 -0.00000000000E+00 -0.10550609117E+03  0.10550609117E+03  0.00000000000E+00 0. -1.
    9000006    2    1    2  501    0  0.00000000000E+00  0.00000000000E+00  0.89449390883E+03  0.11055060912E+04  0.64963402365E+03 0.  0.
         13    1    3    3    0    0 -0.27232177702E+03 -0.17666077842E+03  0.42726257221E+03  0.53658315896E+03  0.00000000000E+00 0. -1.
          4    1    3    3  501    0  0.27232177702E+03  0.17666077842E+03  0.46723133662E+03  0.56892293221E+03  0.00000000000E+00 0. -1.
<mgrwt>
<rscale>  0 0.64963402E+03</rscale>
<asrwt>0</asrwt>
<pdfrwt beam="1">0</pdfrwt>
<pdfrwt beam="2">  1        2 0.38365932E+00 0.64963402E+03</pdfrwt>
<totfact> 0.45822607E+00</totfact>
</mgrwt>
</event>
<event>
 5    1  0.2369161E-004  0.6311925E+03  0.7818608E-02  0.9842724E-01
         13   -1    0    0    0    0  0.00000000000E+00  0.00000000000E+00  0.10000000000E+04  0.10000000000E+04  0.00000000000E+00 0. -1.
          2   -1    0    0  501    0 -0.00000000000E+00 -0.00000000000E+00 -0.99601005600E+02  0.99601005600E+02  0.00000000000E+00 0. -1.
    9000006    2    1    2  501    0  0.00000000000E+00  0.00000000000E+00  0.90039899440E+03  0.10996010056E+04  0.63119253988E+03 0.  0.
         13    1    3    3    0    0 -0.16040728459E+03  0.21042189608E+03  0.15051191110E+03  0.30440385458E+03  0.00000000000E+00 0. -1.
          4    1    3    3  501    0  0.16040728459E+03 -0.21042189608E+03  0.74988708330E+03  0.79519715102E+03  0.00000000000E+00 0. -1.
<mgrwt>
<rscale>  0 0.63119254E+03</rscale>
<asrwt>0</asrwt>
<pdfrwt beam="1">0</pdfrwt>
<pdfrwt beam="2">  1        2 0.36218624E+00 0.63119254E+03</pdfrwt>
<totfact> 0.55019290E+00</totfact>
</mgrwt>
</event>
<event>
 5    1  0.2369161E-004  0.6481765E+03  0.7818608E-02  0.9810207E-01
         13   -1    0    0    0    0  0.00000000000E+00  0.00000000000E+00  0.10000000000E+04  0.10000000000E+04  0.00000000000E+00 0. -1.
          2   -1    0    0  501    0 -0.00000000000E+00 -0.00000000000E+00 -0.10503320952E+03  0.10503320952E+03  0.00000000000E+00 0. -1.
    9000006    2    1    2  501    0  0.00000000000E+00  0.00000000000E+00  0.89496679048E+03  0.11050332095E+04  0.64817654854E+03 0.  0.
         13    1    3    3    0    0  0.27478847806E+03 -0.15887812510E+03  0.55904575211E+03  0.64287099738E+03  0.00000000000E+00 0. -1.
          2    1    3    3  501    0 -0.27478847806E+03  0.15887812510E+03  0.33592103837E+03  0.46216221214E+03  0.00000000000E+00 0. -1.
<mgrwt>
<rscale>  0 0.64817655E+03</rscale>
<asrwt>0</asrwt>
<pdfrwt beam="1">0</pdfrwt>
<pdfrwt beam="2">  1        2 0.38193975E+00 0.64817655E+03</pdfrwt>
<totfact> 0.46503704E+00</totfact>
</mgrwt>
</event>
<event>
 5    1  0.2369161E-004  0.6556047E+03  0.7818608E-02  0.9796319E-01
         13   -1    0    0    0    0  0.00000000000E+00  0.00000000000E+00  0.10000000000E+04  0.10000000000E+04  0.00000000000E+00 0. -1.
          2   -1    0    0  501    0 -0.00000000000E+00 -0.00000000000E+00 -0.10745436599E+03  0.10745436599E+03  0.00000000000E+00 0. -1.
    9000006    2    1    2  501    0  0.00000000000E+00  0.00000000000E+00  0.89254563401E+03  0.11074543660E+04  0.65560465523E+03 0.  0.
         13    1    3    3    0    0  0.31414686241E+03  0.34457104356E+02  0.29921616069E+03  0.43520782854E+03  0.00000000000E+00 0. -1.
          4    1    3    3  501    0 -0.31414686241E+03 -0.34457104356E+02  0.59332947332E+03  0.67224653745E+03  0.00000000000E+00 0. -1.
<mgrwt>
<rscale>  0 0.65560466E+03</rscale>
<asrwt>0</asrwt>
<pdfrwt beam="1">0</pdfrwt>
<pdfrwt beam="2">  1        2 0.39074397E+00 0.65560466E+03</pdfrwt>
<totfact> 0.43110809E+00</totfact>
</mgrwt>
</event>
<event>
 5    1  0.2369161E-004  0.6559913E+03  0.7818608E-02  0.9795601E-01
         13   -1    0    0    0    0  0.00000000000E+00  0.00000000000E+00  0.10000000000E+04  0.10000000000E+04  0.00000000000E+00 0. -1.
          2   -1    0    0  501    0 -0.00000000000E+00 -0.00000000000E+00 -0.10758114567E+03  0.10758114567E+03  0.00000000000E+00 0. -1.
    9000006    2    1    2  501    0  0.00000000000E+00  0.00000000000E+00  0.89241885433E+03  0.11075811457E+04  0.65599129771E+03 0.  0.
         13    1    3    3    0    0 -0.12097442636E+03  0.23310190638E+02  0.95944935891E+03  0.96732685745E+03  0.00000000000E+00 0. -1.
          2    1    3    3  501    0  0.12097442636E+03 -0.23310190638E+02 -0.67030504582E+02  0.14025428822E+03  0.00000000000E+00 0. -1.
<mgrwt>
<rscale>  0 0.65599130E+03</rscale>
<asrwt>0</asrwt>
<pdfrwt beam="1">0</pdfrwt>
<pdfrwt beam="2">  1        2 0.39120499E+00 0.65599130E+03</pdfrwt>
<totfact> 0.42939483E+00</totfact>
</mgrwt>
</event>
<event>
 5    1  0.2369161E-004  0.6420277E+03  0.7818608E-02  0.9821855E-01
         13   -1    0    0    0    0  0.00000000000E+00  0.00000000000E+00  0.10000000000E+04  0.10000000000E+04  0.00000000000E+00 0. -1.
          2   -1    0    0  501    0 -0.00000000000E+00 -0.00000000000E+00 -0.10304989661E+03  0.10304989661E+03  0.00000000000E+00 0. -1.
    9000006    2    1    2  501    0  0.00000000000E+00  0.00000000000E+00  0.89695010339E+03  0.11030498966E+04  0.64202771470E+03 0.  0.
         13    1    3    3    0    0  0.25575798799E+03  0.19024301413E+03  0.51379216143E+03  0.60463785690E+03  0.00000000000E+00 0. -1.
          4    1    3    3  501    0 -0.25575798799E+03 -0.19024301413E+03  0.38315794196E+03  0.49841203971E+03  0.00000000000E+00 0. -1.
<mgrwt>
<rscale>  0 0.64202771E+03</rscale>
<asrwt>0</asrwt>
<pdfrwt beam="1">0</pdfrwt>
<pdfrwt beam="2">  1        2 0.37472769E+00 0.64202771E+03</pdfrwt>
<totfact> 0.49461837E+00</totfact>
</mgrwt>
</event>
<event>
 5    1  0.2369161E-004  0.6493092E+03  0.7818608E-02  0.9808076E-01
         13   -1    0    0    0    0  0.00000000000E+00  0.00000000000E+00  0.10000000000E+04  0.10000000000E+04  0.00000000000E+00 0. -1.
          2   -1    0    0  501    0 -0.00000000000E+00 -0.00000000000E+00 -0.10540059832E+03  0.10540059832E+03  0.00000000000E+00 0. -1.
    9000006    2    1    2  501    0  0.00000000000E+00  0.00000000000E+00  0.89459940168E+03  0.11054005983E+04  0.64930916618E+03 0.  0.
         13    1    3    3    0    0 -0.12817659915E+03  0.29645441074E+03  0.39119347099E+03  0.50729359345E+03  0.00000000000E+00 0. -1.
          4    1    3    3  501    0  0.12817659915E+03 -0.29645441074E+03  0.50340593069E+03  0.59810700487E+03  0.00000000000E+00 0. -1.
<mgrwt>
<rscale>  0 0.64930917E+03</rscale>
<asrwt>0</asrwt>
<pdfrwt beam="1">0</pdfrwt>
<pdfrwt beam="2">  1        2 0.38327571E+00 0.64930917E+03</pdfrwt>
<totfact> 0.45973760E+00</totfact>
</mgrwt>
</event>
<event>
 5    1  0.2369161E-004  0.6689506E+03  0.7818608E-02  0.9771855E-01
         13   -1    0    0    0    0  0.00000000000E+00  0.00000000000E+00  0.10000000000E+04  0.10000000000E+04  0.00000000000E+00 0. -1.
          2   -1    0    0  501    0 -0.00000000000E+00 -0.00000000000E+00 -0.11187372413E+03  0.11187372413E+03  0.00000000000E+00 0. -1.
    9000006    2    1    2  501    0  0.00000000000E+00  0.00000000000E+00  0.88812627587E+03  0.11118737241E+04  0.66895059348E+03 0.  0.
         13    1    3    3    0    0  0.16384873412E+03  0.91511670445E+02  0.90424108842E+03  0.92351109332E+03  0.00000000000E+00 0. -1.
          2    1    3    3  501    0 -0.16384873412E+03 -0.91511670445E+02 -0.16114812552E+02  0.18836263081E+03  0.00000000000E+00 0. -1.
<mgrwt>
<rscale>  0 0.66895059E+03</rscale>
<asrwt>0</asrwt>
<pdfrwt beam="1">0</pdfrwt>
<pdfrwt beam="2">  1        2 0.40681440E+00 0.66895059E+03</pdfrwt>
<totfact> 0.37488464E+00</totfact>
</mgrwt>
</event>
<event>
 5    1  0.2369161E-004  0.6362681E+03  0.7818608E-02  0.9832893E-01
         13   -1    0    0    0    0  0.00000000000E+00  0.00000000000E+00  0.10000000000E+04  0.10000000000E+04  0.00000000000E+00 0. -1.
          2   -1    0    0  501    0 -0.00000000000E+00 -0.00000000000E+00 -0.10120927336E+03  0.10120927336E+03  0.00000000000E+00 0. -1.
    9000006    2    1    2  501    0  0.00000000000E+00  0.00000000000E+00  0.89879072664E+03  0.11012092734E+04  0.63626809871E+03 0.  0.
         13    1    3    3    0    0  0.30720101192E+03 -0.72774823439E+02  0.38146251384E+03  0.49515884938E+03  0.00000000000E+00 0. -1.
          2    1    3    3  501    0 -0.30720101192E+03  0.72774823439E+02  0.51732821280E+03  0.60605042398E+03  0.00000000000E+00 0. -1.
<mgrwt>
<rscale>  0 0.63626810E+03</rscale>
<asrwt>0</asrwt>
<pdfrwt beam="1">0</pdfrwt>
<pdfrwt beam="2">  1        2 0.36803450E+00 0.63626810E+03</pdfrwt>
<totfact> 0.52360137E+00</totfact>
</mgrwt>
</event>
<event>
 5    1  0.2369161E-004  0.6512331E+03  0.7818608E-02  0.9804468E-01
         13   -1    0    0    0    0  0.00000000000E+00  0.00000000000E+00  0.10000000000E+04  0.10000000000E+04  0.00000000000E+00 0. -1.
          2   -1    0    0  501    0 -0.00000000000E+00 -0.00000000000E+00 -0.10602615032E+03  0.10602615032E+03  0.00000000000E+00 0. -1.
    9000006    2    1    2  501    0  0.00000000000E+00  0.00000000000E+00  0.89397384968E+03  0.11060261503E+04  0.65123313896E+03 0.  0.
         13    1    3    3    0    0 -0.13602829890E+03  0.28758435788E+03  0.32910470696E+03  0.45773176549E+03  0.00000000000E+00 0. -1.
          4    1    3    3  501    0  0.13602829890E+03 -0.28758435788E+03  0.56486914272E+03  0.64829438483E+03  0.00000000000E+00 0. -1.
<mgrwt>
<rscale>  0 0.65123314E+03</rscale>
<asrwt>0</asrwt>
<pdfrwt beam="1">0</pdfrwt>
<pdfrwt beam="2">  1        2 0.38555045E+00 0.65123314E+03</pdfrwt>
<totfact> 0.45084023E+00</totfact>
</mgrwt>
</event>
<event>
 5    1  0.2369161E-004  0.5761648E+03  0.7818608E-02  0.9956129E-01
         13   -1    0    0    0    0  0.00000000000E+00  0.00000000000E+00  0.10000000000E+04  0.10000000000E+04  0.00000000000E+00 0. -1.
          2   -1    0    0  501    0 -0.00000000000E+00 -0.00000000000E+00 -0.82991461087E+02  0.82991461087E+02  0.00000000000E+00 0. -1.
    9000006    2    1    2  501    0  0.00000000000E+00  0.00000000000E+00  0.91700853891E+03  0.10829914611E+04  0.57616477187E+03 0.  0.
         13    1    3    3    0    0 -0.19438480320E+03  0.38214163298E+02  0.65365428820E+02  0.20861067392E+03  0.00000000000E+00 0. -1.
          2    1    3    3  501    0  0.19438480320E+03 -0.38214163298E+02  0.85164311009E+03  0.87438078716E+03  0.00000000000E+00 0. -1.
<mgrwt>
<rscale>  0 0.57616477E+03</rscale>
<asrwt>0</asrwt>
<pdfrwt beam="1">0</pdfrwt>
<pdfrwt beam="2">  1        2 0.30178777E+00 0.57616477E+03</pdfrwt>
<totfact> 0.90977579E+00</totfact>
</mgrwt>
</event>
<event>
 5    1  0.2369161E-004  0.4569848E+03  0.7818608E-02  0.1025659E+00
         13   -1    0    0    0    0  0.00000000000E+00  0.00000000000E+00  0.10000000000E+04  0.10000000000E+04  0.00000000000E+00 0. -1.
          2   -1    0    0  501    0 -0.00000000000E+00 -0.00000000000E+00 -0.52208781361E+02  0.52208781361E+02  0.00000000000E+00 0. -1.
    9000006    2    1    2  501    0  0.00000000000E+00  0.00000000000E+00  0.94779121864E+03  0.10522087814E+04  0.45698481971E+03 0.  0.
         13    1    3    3    0    0 -0.60210857503E+02  0.58581468478E+02  0.96315248718E+03  0.96680910700E+03  0.00000000000E+00 0. -1.
          2    1    3    3  501    0  0.60210857503E+02 -0.58581468478E+02 -0.15361268541E+02  0.85399674364E+02  0.00000000000E+00 0. -1.
<mgrwt>
<rscale>  0 0.45698482E+03</rscale>
<asrwt>0</asrwt>
<pdfrwt beam="1">0</pdfrwt>
<pdfrwt beam="2">  1        2 0.18985051E+00 0.45698482E+03</pdfrwt>
<totfact> 0.23207434E+01</totfact>
</mgrwt>
</event>
<event>
 5    1  0.2369161E-004  0.6296623E+03  0.7818608E-02  0.9845708E-01
         13   -1    0    0    0    0  0.00000000000E+00  0.00000000000E+00  0.10000000000E+04  0.10000000000E+04  0.00000000000E+00 0. -1.
          2   -1    0    0  501    0 -0.00000000000E+00 -0.00000000000E+00 -0.99118661343E+02  0.99118661343E+02  0.00000000000E+00 0. -1.
    9000006    2    1    2  501    0  0.00000000000E+00  0.00000000000E+00  0.90088133866E+03  0.10991186613E+04  0.62966232647E+03 0.  0.
         13    1    3    3    0    0 -0.18626101921E+03  0.69376312387E+02  0.87663262984E+03  0.89888320025E+03  0.00000000000E+00 0. -1.
          2    1    3    3  501    0  0.18626101921E+03 -0.69376312387E+02  0.24248708818E+02  0.20023546109E+03  0.00000000000E+00 0. -1.
<mgrwt>
<rscale>  0 0.62966233E+03</rscale>
<asrwt>0</asrwt>
<pdfrwt beam="1">0</pdfrwt>
<pdfrwt beam="2">  1        2 0.36043226E+00 0.62966233E+03</pdfrwt>
<totfact> 0.55840728E+00</totfact>
</mgrwt>
</event>
<event>
 5    1  0.2369161E-004  0.6590776E+03  0.7818608E-02  0.9789893E-01
         13   -1    0    0    0    0  0.00000000000E+00  0.00000000000E+00  0.10000000000E+04  0.10000000000E+04  0.00000000000E+00 0. -1.
          2   -1    0    0  501    0 -0.00000000000E+00 -0.00000000000E+00 -0.10859581294E+03  0.10859581294E+03  0.00000000000E+00 0. -1.
    9000006    2    1    2  501    0  0.00000000000E+00  0.00000000000E+00  0.89140418706E+03  0.11085958129E+04  0.65907757645E+03 0.  0.
         13    1    3    3    0    0 -0.15149486390E+03  0.19531306229E+03  0.81228653192E+03  0.84906259841E+03  0.00000000000E+00 0. -1.
          4    1    3    3  501    0  0.15149486390E+03 -0.19531306229E+03  0.79117655137E+02  0.25953321453E+03  0.00000000000E+00 0. -1.
<mgrwt>
<rscale>  0 0.65907758E+03</rscale>
<asrwt>0</asrwt>
<pdfrwt beam="1">0</pdfrwt>
<pdfrwt beam="2">  1        2 0.39489470E+00 0.65907758E+03</pdfrwt>
<totfact> 0.41590304E+00</totfact>
</mgrwt>
</event>
<event>
 5    1  0.2369161E-004  0.6500868E+03  0.7818608E-02  0.9806616E-01
         13   -1    0    0    0    0  0.00000000000E+00  0.00000000000E+00  0.10000000000E+04  0.10000000000E+04  0.00000000000E+00 0. -1.
          2   -1    0    0  501    0 -0.00000000000E+00 -0.00000000000E+00 -0.10565321193E+03  0.10565321193E+03  0.00000000000E+00 0. -1.
    9000006    2    1    2  501    0  0.00000000000E+00  0.00000000000E+00  0.89434678807E+03  0.11056532119E+04  0.65008680014E+03 0.  0.
         13    1    3    3    0    0 -0.10967618820E+03  0.18031822823E+03  0.86761200899E+03  0.89291328125E+03  0.00000000000E+00 0. -1.
          2    1    3    3  501    0  0.10967618820E+03 -0.18031822823E+03  0.26734779079E+02  0.21273993067E+03  0.00000000000E+00 0. -1.
<mgrwt>
<rscale>  0 0.65008680E+03</rscale>
<asrwt>0</asrwt>
<pdfrwt beam="1">0</pdfrwt>
<pdfrwt beam="2">  1        2 0.38419431E+00 0.65008680E+03</pdfrwt>
<totfact> 0.45612562E+00</totfact>
</mgrwt>
</event>
<event>
 5    1  0.2369161E-004  0.6520720E+03  0.7818608E-02  0.9802899E-01
         13   -1    0    0    0    0  0.00000000000E+00  0.00000000000E+00  0.10000000000E+04  0.10000000000E+04  0.00000000000E+00 0. -1.
          2   -1    0    0  501    0 -0.00000000000E+00 -0.00000000000E+00 -0.10629945872E+03  0.10629945872E+03  0.00000000000E+00 0. -1.
    9000006    2    1    2  501    0  0.00000000000E+00  0.00000000000E+00  0.89370054128E+03  0.11062994587E+04  0.65207195529E+03 0.  0.
         13    1    3    3    0    0 -0.80572910336E+02 -0.31459552807E+03  0.49593774223E+03  0.59280400162E+03  0.00000000000E+00 0. -1.
          2    1    3    3  501    0  0.80572910336E+02  0.31459552807E+03  0.39776279905E+03  0.51349545710E+03  0.00000000000E+00 0. -1.
<mgrwt>
<rscale>  0 0.65207196E+03</rscale>
<asrwt>0</asrwt>
<pdfrwt beam="1">0</pdfrwt>
<pdfrwt beam="2">  1        2 0.38654430E+00 0.65207196E+03</pdfrwt>
<totfact> 0.44700214E+00</totfact>
</mgrwt>
</event>
<event>
 5    1  0.2369161E-004  0.6605687E+03  0.7818608E-02  0.9787147E-01
         13   -1    0    0    0    0  0.00000000000E+00  0.00000000000E+00  0.10000000000E+04  0.10000000000E+04  0.00000000000E+00 0. -1.
          2   -1    0    0  501    0 -0.00000000000E+00 -0.00000000000E+00 -0.10908776504E+03  0.10908776504E+03  0.00000000000E+00 0. -1.
    9000006    2    1    2  501    0  0.00000000000E+00  0.00000000000E+00  0.89091223496E+03  0.11090877650E+04  0.66056873993E+03 0.  0.
         13    1    3    3    0    0 -0.16902294090E+03  0.52725318653E+02  0.91358723962E+03  0.93058602943E+03  0.00000000000E+00 0. -1.
          4    1    3    3  501    0  0.16902294090E+03 -0.52725318653E+02 -0.22675004665E+02  0.17850173561E+03  0.00000000000E+00 0. -1.
<mgrwt>
<rscale>  0 0.66056874E+03</rscale>
<asrwt>0</asrwt>
<pdfrwt beam="1">0</pdfrwt>
<pdfrwt beam="2">  1        2 0.39668362E+00 0.66056874E+03</pdfrwt>
<totfact> 0.40950064E+00</totfact>
</mgrwt>
</event>
<event>
 5    1  0.2369161E-004  0.6513247E+03  0.7818608E-02  0.9804297E-01
         13   -1    0    0    0    0  0.00000000000E+00  0.00000000000E+00  0.10000000000E+04  0.10000000000E+04  0.00000000000E+00 0. -1.
          2   -1    0    0  501    0 -0.00000000000E+00 -0.00000000000E+00 -0.10605596298E+03  0.10605596298E+03  0.00000000000E+00 0. -1.
    9000006    2    1    2  501    0  0.00000000000E+00  0.00000000000E+00  0.89394403702E+03  0.11060559630E+04  0.65132469008E+03 0.  0.
         13    1    3    3    0    0 -0.19432858007E+03  0.85970918000E+02  0.86604829949E+03  0.89173664993E+03  0.00000000000E+00 0. -1.
          4    1    3    3  501    0  0.19432858007E+03 -0.85970918000E+02  0.27895737532E+02  0.21431931305E+03  0.00000000000E+00 0. -1.
<mgrwt>
<rscale>  0 0.65132469E+03</rscale>
<asrwt>0</asrwt>
<pdfrwt beam="1">0</pdfrwt>
<pdfrwt beam="2">  1        2 0.38565886E+00 0.65132469E+03</pdfrwt>
<totfact> 0.45042012E+00</totfact>
</mgrwt>
</event>
<event>
 5    1  0.2369161E-004  0.5557201E+03  0.7818608E-02  0.1000179E+00
         13   -1    0    0    0    0  0.00000000000E+00  0.00000000000E+00  0.10000000000E+04  0.10000000000E+04  0.00000000000E+00 0. -1.
          2   -1    0    0  501    0 -0.00000000000E+00 -0.00000000000E+00 -0.77206204114E+02  0.77206204114E+02  0.00000000000E+00 0. -1.
    9000006    2    1    2  501    0  0.00000000000E+00  0.00000000000E+00  0.92279379589E+03  0.10772062041E+04  0.55572008822E+03 0.  0.
         13    1    3    3    0    0 -0.27766688643E+03  0.56647631972E+01  0.44458587026E+03  0.52420185558E+03  0.00000000000E+00 0. -1.
          2    1    3    3  501    0  0.27766688643E+03 -0.56647631972E+01  0.47820792562E+03  0.55300434853E+03  0.00000000000E+00 0. -1.
<mgrwt>
<rscale>  0 0.55572009E+03</rscale>
<asrwt>0</asrwt>
<pdfrwt beam="1">0</pdfrwt>
<pdfrwt beam="2">  1        2 0.28075043E+00 0.55572009E+03</pdfrwt>
<totfact> 0.10817644E+01</totfact>
</mgrwt>
</event>
<event>
 5    1  0.2369161E-004  0.6368145E+03  0.7818608E-02  0.9831840E-01
         13   -1    0    0    0    0  0.00000000000E+00  0.00000000000E+00  0.10000000000E+04  0.10000000000E+04  0.00000000000E+00 0. -1.
          2   -1    0    0  501    0 -0.00000000000E+00 -0.00000000000E+00 -0.10138317577E+03  0.10138317577E+03  0.00000000000E+00 0. -1.
    9000006    2    1    2  501    0  0.00000000000E+00  0.00000000000E+00  0.89861682423E+03  0.11013831758E+04  0.63681449659E+03 0.  0.
         13    1    3    3    0    0 -0.27911306823E+03 -0.14028758466E+03  0.34271520408E+03  0.46372235484E+03  0.00000000000E+00 0. -1.
          4    1    3    3  501    0  0.27911306823E+03  0.14028758466E+03  0.55590162015E+03  0.63766082093E+03  0.00000000000E+00 0. -1.
<mgrwt>
<rscale>  0 0.63681450E+03</rscale>
<asrwt>0</asrwt>
<pdfrwt beam="1">0</pdfrwt>
<pdfrwt beam="2">  1        2 0.36866687E+00 0.63681450E+03</pdfrwt>
<totfact> 0.52079795E+00</totfact>
</mgrwt>
</event>
<event>
 5    1  0.2369161E-004  0.6546812E+03  0.7818608E-02  0.9798035E-01
         13   -1    0    0    0    0  0.00000000000E+00  0.00000000000E+00  0.10000000000E+04  0.10000000000E+04  0.00000000000E+00 0. -1.
          2   -1    0    0  501    0 -0.00000000000E+00 -0.00000000000E+00 -0.10715188123E+03  0.10715188123E+03  0.00000000000E+00 0. -1.
    9000006    2    1    2  501    0  0.00000000000E+00  0.00000000000E+00  0.89284811877E+03  0.11071518812E+04  0.65468123917E+03 0.  0.
         13    1    3    3    0    0  0.24498930056E+03  0.13345953000E+02  0.79974969223E+02  0.25805787636E+03  0.00000000000E+00 0. -1.
          2    1    3    3  501    0 -0.24498930056E+03 -0.13345953000E+02  0.81287314955E+03  0.84909400487E+03  0.00000000000E+00 0. -1.
<mgrwt>
<rscale>  0 0.65468124E+03</rscale>
<asrwt>0</asrwt>
<pdfrwt beam="1">0</pdfrwt>
<pdfrwt beam="2">  1        2 0.38964403E+00 0.65468124E+03</pdfrwt>
<totfact> 0.43522076E+00</totfact>
</mgrwt>
</event>
<event>
 5    1  0.2369161E-004  0.6520020E+03  0.7818608E-02  0.9803030E-01
         13   -1    0    0    0    0  0.00000000000E+00  0.00000000000E+00  0.10000000000E+04  0.10000000000E+04  0.00000000000E+00 0. -1.
          2   -1    0    0  501    0 -0.00000000000E+00 -0.00000000000E+00 -0.10627666166E+03  0.10627666166E+03  0.00000000000E+00 0. -1.
    9000006    2    1    2  501    0  0.00000000000E+00  0.00000000000E+00  0.89372333834E+03  0.11062766617E+04  0.65200202963E+03 0.  0.
         13    1    3    3    0    0  0.71585103868E+02 -0.22852574302E+03  0.71547890971E+02  0.24993507761E+03  0.00000000000E+00 0. -1.
          2    1    3    3  501    0 -0.71585103868E+02  0.22852574302E+03  0.82217544737E+03  0.85634158405E+03  0.00000000000E+00 0. -1.
<mgrwt>
<rscale>  0 0.65200203E+03</rscale>
<asrwt>0</asrwt>
<pdfrwt beam="1">0</pdfrwt>
<pdfrwt beam="2">  1        2 0.38646140E+00 0.65200203E+03</pdfrwt>
<totfact> 0.44732115E+00</totfact>
</mgrwt>
</event>
<event>
 5    1  0.2369161E-004  0.6534806E+03  0.7818608E-02  0.9800270E-01
         13   -1    0    0    0    0  0.00000000000E+00  0.00000000000E+00  0.10000000000E+04  0.10000000000E+04  0.00000000000E+00 0. -1.
          2   -1    0    0  501    0 -0.00000000000E+00 -0.00000000000E+00 -0.10675923822E+03  0.10675923822E+03  0.00000000000E+00 0. -1.
    9000006    2    1    2  501    0  0.00000000000E+00  0.00000000000E+00  0.89324076178E+03  0.11067592382E+04  0.65348064460E+03 0.  0.
         13    1    3    3    0    0  0.15032082833E+03  0.26321706910E+03  0.24002673968E+03  0.38664248688E+03  0.00000000000E+00 0. -1.
          2    1    3    3  501    0 -0.15032082833E+03 -0.26321706910E+03  0.65321402210E+03  0.72011675134E+03  0.00000000000E+00 0. -1.
<mgrwt>
<rscale>  0 0.65348064E+03</rscale>
<asrwt>0</asrwt>
<pdfrwt beam="1">0</pdfrwt>
<pdfrwt beam="2">  1        2 0.38821623E+00 0.65348064E+03</pdfrwt>
<totfact> 0.44061214E+00</totfact>
</mgrwt>
</event>
<event>
 5    1  0.2369161E-004  0.6415531E+03  0.7818608E-02  0.9822760E-01
         13   -1    0    0    0    0  0.00000000000E+00  0.00000000000E+00  0.10000000000E+04  0.10000000000E+04  0.00000000000E+00 0. -1.
          2   -1    0    0  501    0 -0.00000000000E+00 -0.00000000000E+00 -0.10289758920E+03  0.10289758920E+03  0.00000000000E+00 0. -1.
    9000006    2    1    2  501    0  0.00000000000E+00  0.00000000000E+00  0.89710241080E+03  0.11028975892E+04  0.64155308182E+03 0.  0.
         13    1    3    3    0    0 -0.28620799751E+03 -0.16387110516E+02  0.20113113055E+03  0.35019606923E+03  0.00000000000E+00 0. -1.
          2    1    3    3  501    0  0.28620799751E+03  0.16387110516E+02  0.69597128025E+03  0.75270151997E+03  0.00000000000E+00 0. -1.
<mgrwt>
<rscale>  0 0.64155308E+03</rscale>
<asrwt>0</asrwt>
<pdfrwt beam="1">0</pdfrwt>
<pdfrwt beam="2">  1        2 0.37417384E+00 0.64155308E+03</pdfrwt>
<totfact> 0.49695971E+00</totfact>
</mgrwt>
</event>
<event>
 5    1  0.2369161E-004  0.6613398E+03  0.7818608E-02  0.9785731E-01
         13   -1    0    0    0    0  0.00000000000E+00  0.00000000000E+00  0.10000000000E+04  0.10000000000E+04  0.00000000000E+00 0. -1.
          2   -1    0    0  501    0 -0.00000000000E+00 -0.00000000000E+00 -0.10934256969E+03  0.10934256969E+03  0.00000000000E+00 0. -1.
    9000006    2    1    2  501    0  0.00000000000E+00  0.00000000000E+00  0.89065743031E+03  0.11093425697E+04  0.66133976045E+03 0.  0.
         13    1    3    3    0    0 -0.13049608646E+03  0.59302955072E+02 -0.54520449465E+02  0.15335758367E+03  0.00000000000E+00 0. -1.
          4    1    3    3  501    0  0.13049608646E+03 -0.59302955072E+02  0.94517787978E+03  0.95598498601E+03  0.00000000000E+00 0. -1.
<mgrwt>
<rscale>  0 0.66133976E+03</rscale>
<asrwt>0</asrwt>
<pdfrwt beam="1">0</pdfrwt>
<pdfrwt beam="2">  1        2 0.39761018E+00 0.66133976E+03</pdfrwt>
<totfact> 0.40621954E+00</totfact>
</mgrwt>
</event>
<event>
 5    1  0.2369161E-004  0.6533631E+03  0.7818608E-02  0.9800489E-01
         13   -1    0    0    0    0  0.00000000000E+00  0.00000000000E+00  0.10000000000E+04  0.10000000000E+04  0.00000000000E+00 0. -1.
          2   -1    0    0  501    0 -0.00000000000E+00 -0.00000000000E+00 -0.10672082658E+03  0.10672082658E+03  0.00000000000E+00 0. -1.
    9000006    2    1    2  501    0  0.00000000000E+00  0.00000000000E+00  0.89327917342E+03  0.11067208266E+04  0.65336307389E+03 0.  0.
         13    1    3    3    0    0 -0.14820301902E+03  0.26904686084E+03  0.25824138866E+03  0.40129660227E+03  0.00000000000E+00 0. -1.
          4    1    3    3  501    0  0.14820301902E+03 -0.26904686084E+03  0.63503778476E+03  0.70542422431E+03  0.00000000000E+00 0. -1.
<mgrwt>
<rscale>  0 0.65336307E+03</rscale>
<asrwt>0</asrwt>
<pdfrwt beam="1">0</pdfrwt>
<pdfrwt beam="2">  1        2 0.38807655E+00 0.65336307E+03</pdfrwt>
<totfact> 0.44114281E+00</totfact>
</mgrwt>
</event>
<event>
 5    1  0.2369161E-004  0.6484798E+03  0.7818608E-02  0.9809636E-01
         13   -1    0    0    0    0  0.00000000000E+00  0.00000000000E+00  0.10000000000E+04  0.10000000000E+04  0.00000000000E+00 0. -1.
          2   -1    0    0  501    0 -0.00000000000E+00 -0.00000000000E+00 -0.10513150107E+03  0.10513150107E+03  0.00000000000E+00 0. -1.
    9000006    2    1    2  501    0  0.00000000000E+00  0.00000000000E+00  0.89486849893E+03  0.11051315011E+04  0.64847976397E+03 0.  0.
         13    1    3    3    0    0 -0.37176905732E+02  0.18791078054E+03  0.16044482342E+01  0.19155980272E+03  0.00000000000E+00 0. -1.
          4    1    3    3  501    0  0.37176905732E+02 -0.18791078054E+03  0.89326405070E+03  0.91357169835E+03  0.00000000000E+00 0. -1.
<mgrwt>
<rscale>  0 0.64847976E+03</rscale>
<asrwt>0</asrwt>
<pdfrwt beam="1">0</pdfrwt>
<pdfrwt beam="2">  1        2 0.38229717E+00 0.64847976E+03</pdfrwt>
<totfact> 0.46361381E+00</totfact>
</mgrwt>
</event>
<event>
 5    1  0.2369161E-004  0.6340988E+03  0.7818608E-02  0.9837083E-01
         13   -1    0    0    0    0  0.00000000000E+00  0.00000000000E+00  0.10000000000E+04  0.10000000000E+04  0.00000000000E+00 0. -1.
          2   -1    0    0  501    0 -0.00000000000E+00 -0.00000000000E+00 -0.10052032823E+03  0.10052032823E+03  0.00000000000E+00 0. -1.
    9000006    2    1    2  501    0  0.00000000000E+00  0.00000000000E+00  0.89947967177E+03  0.11005203282E+04  0.63409881952E+03 0.  0.
         13    1    3    3    0    0  0.71186251147E+01  0.10065548027E+03  0.97138677935E+03  0.97661378017E+03  0.00000000000E+00 0. -1.
          2    1    3    3  501    0 -0.71186251147E+01 -0.10065548027E+03 -0.71907107577E+02  0.12390654806E+03  0.00000000000E+00 0. -1.
<mgrwt>
<rscale>  0 0.63409882E+03</rscale>
<asrwt>0</asrwt>
<pdfrwt beam="1">0</pdfrwt>
<pdfrwt beam="2">  1        2 0.36552924E+00 0.63409882E+03</pdfrwt>
<totfact> 0.53484436E+00</totfact>
</mgrwt>
</event>
<event>
 5    1  0.2369161E-004  0.6395535E+03  0.7818608E-02  0.9826581E-01
         13   -1    0    0    0    0  0.00000000000E+00  0.00000000000E+00  0.10000000000E+04  0.10000000000E+04  0.00000000000E+00 0. -1.
          2   -1    0    0  501    0 -0.00000000000E+00 -0.00000000000E+00 -0.10225718414E+03  0.10225718414E+03  0.00000000000E+00 0. -1.
    9000006    2    1    2  501    0  0.00000000000E+00  0.00000000000E+00  0.89774281586E+03  0.11022571841E+04  0.63955354473E+03 0.  0.
         13    1    3    3    0    0 -0.30059951766E+03 -0.24866073385E+02  0.63190775150E+03  0.70020411169E+03  0.00000000000E+00 0. -1.
          4    1    3    3  501    0  0.30059951766E+03  0.24866073385E+02  0.26583506436E+03  0.40205307245E+03  0.00000000000E+00 0. -1.
<mgrwt>
<rscale>  0 0.63955354E+03</rscale>
<asrwt>0</asrwt>
<pdfrwt beam="1">0</pdfrwt>
<pdfrwt beam="2">  1        2 0.37184509E+00 0.63955354E+03</pdfrwt>
<totfact> 0.50691561E+00</totfact>
</mgrwt>
</event>
<event>
 5    1  0.2369161E-004  0.6223547E+03  0.7818608E-02  0.9860083E-01
         13   -1    0    0    0    0  0.00000000000E+00  0.00000000000E+00  0.10000000000E+04  0.10000000000E+04  0.00000000000E+00 0. -1.
          2   -1    0    0  501    0 -0.00000000000E+00 -0.00000000000E+00 -0.96831349938E+02  0.96831349938E+02  0.00000000000E+00 0. -1.
    9000006    2    1    2  501    0  0.00000000000E+00  0.00000000000E+00  0.90316865006E+03  0.10968313499E+04  0.62235472180E+03 0.  0.
         13    1    3    3    0    0 -0.29359223602E+03  0.65969269969E+02  0.31188781872E+03  0.43338476796E+03  0.00000000000E+00 0. -1.
          4    1    3    3  501    0  0.29359223602E+03 -0.65969269969E+02  0.59128083134E+03  0.66344658198E+03  0.00000000000E+00 0. -1.
<mgrwt>
<rscale>  0 0.62235472E+03</rscale>
<asrwt>0</asrwt>
<pdfrwt beam="1">0</pdfrwt>
<pdfrwt beam="2">  1        2 0.35211474E+00 0.62235472E+03</pdfrwt>
<totfact> 0.59893046E+00</totfact>
</mgrwt>
</event>
<event>
 5    1  0.2369161E-004  0.6584817E+03  0.7818608E-02  0.9790993E-01
         13   -1    0    0    0    0  0.00000000000E+00  0.00000000000E+00  0.10000000000E+04  0.10000000000E+04  0.00000000000E+00 0. -1.
          2   -1    0    0  501    0 -0.00000000000E+00 -0.00000000000E+00 -0.10839952930E+03  0.10839952930E+03  0.00000000000E+00 0. -1.
    9000006    2    1    2  501    0  0.00000000000E+00  0.00000000000E+00  0.89160047070E+03  0.11083995293E+04  0.65848167567E+03 0.  0.
         13    1    3    3    0    0 -0.17465090996E+03  0.13147498855E+03  0.86020817146E+03  0.88755096260E+03  0.00000000000E+00 0. -1.
          4    1    3    3  501    0  0.17465090996E+03 -0.13147498855E+03  0.31392299241E+02  0.22084856670E+03  0.00000000000E+00 0. -1.
<mgrwt>
<rscale>  0 0.65848168E+03</rscale>
<asrwt>0</asrwt>
<pdfrwt beam="1">0</pdfrwt>
<pdfrwt beam="2">  1        2 0.39418094E+00 0.65848168E+03</pdfrwt>
<totfact> 0.41848259E+00</totfact>
</mgrwt>
</event>
<event>
 5    1  0.2369161E-004  0.6499765E+03  0.7818608E-02  0.9806823E-01
         13   -1    0    0    0    0  0.00000000000E+00  0.00000000000E+00  0.10000000000E+04  0.10000000000E+04  0.00000000000E+00 0. -1.
          2   -1    0    0  501    0 -0.00000000000E+00 -0.00000000000E+00 -0.10561737392E+03  0.10561737392E+03  0.00000000000E+00 0. -1.
    9000006    2    1    2  501    0  0.00000000000E+00  0.00000000000E+00  0.89438262608E+03  0.11056173739E+04  0.64997653472E+03 0.  0.
         13    1    3    3    0    0 -0.27686745118E+03  0.11424574490E+03  0.66174606948E+03  0.72637148638E+03  0.00000000000E+00 0. -1.
          2    1    3    3  501    0  0.27686745118E+03 -0.11424574490E+03  0.23263655659E+03  0.37924588754E+03  0.00000000000E+00 0. -1.
<mgrwt>
<rscale>  0 0.64997653E+03</rscale>
<asrwt>0</asrwt>
<pdfrwt beam="1">0</pdfrwt>
<pdfrwt beam="2">  1        2 0.38406399E+00 0.64997653E+03</pdfrwt>
<totfact> 0.45663647E+00</totfact>
</mgrwt>
</event>
<event>
 5    1  0.2369161E-004  0.6592748E+03  0.7818608E-02  0.9789530E-01
         13   -1    0    0    0    0  0.00000000000E+00  0.00000000000E+00  0.10000000000E+04  0.10000000000E+04  0.00000000000E+00 0. -1.
          2   -1    0    0  501    0 -0.00000000000E+00 -0.00000000000E+00 -0.10866080354E+03  0.10866080354E+03  0.00000000000E+00 0. -1.
    9000006    2    1    2  501    0  0.00000000000E+00  0.00000000000E+00  0.89133919646E+03  0.11086608035E+04  0.65927476377E+03 0.  0.
         13    1    3    3    0    0 -0.28273502992E+03 -0.15377218557E+03  0.32586171226E+03  0.45800746470E+03  0.00000000000E+00 0. -1.
          2    1    3    3  501    0  0.28273502992E+03  0.15377218557E+03  0.56547748420E+03  0.65065333884E+03  0.00000000000E+00 0. -1.
<mgrwt>
<rscale>  0 0.65927476E+03</rscale>
<asrwt>0</asrwt>
<pdfrwt beam="1">0</pdfrwt>
<pdfrwt beam="2">  1        2 0.39513103E+00 0.65927476E+03</pdfrwt>
<totfact> 0.41505209E+00</totfact>
</mgrwt>
</event>
<event>
 5    1  0.2369161E-004  0.6382437E+03  0.7818608E-02  0.9829093E-01
         13   -1    0    0    0    0  0.00000000000E+00  0.00000000000E+00  0.10000000000E+04  0.10000000000E+04  0.00000000000E+00 0. -1.
          2   -1    0    0  501    0 -0.00000000000E+00 -0.00000000000E+00 -0.10183874228E+03  0.10183874228E+03  0.00000000000E+00 0. -1.
    9000006    2    1    2  501    0  0.00000000000E+00  0.00000000000E+00  0.89816125772E+03  0.11018387423E+04  0.63824365969E+03 0.  0.
         13    1    3    3    0    0  0.91973256096E+02  0.15424460612E+03 -0.63261915065E+01  0.17969557327E+03  0.00000000000E+00 0. -1.
          2    1    3    3  501    0 -0.91973256096E+02 -0.15424460612E+03  0.90448744922E+03  0.92214316901E+03  0.00000000000E+00 0. -1.
<mgrwt>
<rscale>  0 0.63824366E+03</rscale>
<asrwt>0</asrwt>
<pdfrwt beam="1">0</pdfrwt>
<pdfrwt beam="2">  1        2 0.37032348E+00 0.63824366E+03</pdfrwt>
<totfact> 0.51351906E+00</totfact>
</mgrwt>
</event>
<event>
 5    1  0.2369161E-004  0.6471320E+03  0.7818608E-02  0.9812176E-01
         13   -1    0    0    0    0  0.00000000000E+00  0.00000000000E+00  0.10000000000E+04  0.10000000000E+04  0.00000000000E+00 0. -1.
          2   -1    0    0  501    0 -0.00000000000E+00 -0.00000000000E+00 -0.10469495930E+03  0.10469495930E+03  0.00000000000E+00 0. -1.
    9000006    2    1    2  501    0  0.00000000000E+00  0.00000000000E+00  0.89530504070E+03  0.11046949593E+04  0.64713200908E+03 0.  0.
         13    1    3    3    0    0  0.14410575248E+03 -0.65280030835E+02 -0.34171832326E+02  0.16185074744E+03  0.00000000000E+00 0. -1.
          2    1    3    3  501    0 -0.14410575248E+03  0.65280030835E+02  0.92947687303E+03  0.94284421185E+03  0.00000000000E+00 0. -1.
<mgrwt>
<rscale>  0 0.64713201E+03</rscale>
<asrwt>0</asrwt>
<pdfrwt beam="1">0</pdfrwt>
<pdfrwt beam="2">  1        2 0.38070975E+00 0.64713201E+03</pdfrwt>
<totfact> 0.46996519E+00</totfact>
</mgrwt>
</event>
<event>
 5    1  0.2369161E-004  0.6384867E+03  0.7818608E-02  0.9828626E-01
         13   -1    0    0    0    0  0.00000000000E+00  0.00000000000E+00  0.10000000000E+04  0.10000000000E+04  0.00000000000E+00 0. -1.
          2   -1    0    0  501    0 -0.00000000000E+00 -0.00000000000E+00 -0.10191631415E+03  0.10191631415E+03  0.00000000000E+00 0. -1.
    9000006    2    1    2  501    0  0.00000000000E+00  0.00000000000E+00  0.89808368585E+03  0.11019163141E+04  0.63848669256E+03 0.  0.
         13    1    3    3    0    0 -0.98752483095E+01  0.26550457218E+03  0.75449881134E+03  0.79991165430E+03  0.00000000000E+00 0. -1.
          4    1    3    3  501    0  0.98752483095E+01 -0.26550457218E+03  0.14358487452E+03  0.30200465985E+03  0.00000000000E+00 0. -1.
<mgrwt>
<rscale>  0 0.63848669E+03</rscale>
<asrwt>0</asrwt>
<pdfrwt beam="1">0</pdfrwt>
<pdfrwt beam="2">  1        2 0.37060556E+00 0.63848669E+03</pdfrwt>
<totfact> 0.51228898E+00</totfact>
</mgrwt>
</event>
<event>
 5    1  0.2369161E-004  0.6447040E+03  0.7818608E-02  0.9816768E-01
         13   -1    0    0    0    0  0.00000000000E+00  0.00000000000E+00  0.10000000000E+04  0.10000000000E+04  0.00000000000E+00 0. -1.
          2   -1    0    0  501    0 -0.00000000000E+00 -0.00000000000E+00 -0.10391080480E+03  0.10391080480E+03  0.00000000000E+00 0. -1.
    9000006    2    1    2  501    0  0.00000000000E+00  0.00000000000E+00  0.89608919520E+03  0.11039108048E+04  0.64470397797E+03 0.  0.
         13    1    3    3    0    0  0.60734660726E+02  0.28849252559E+03  0.67125970967E+03  0.73314816658E+03  0.00000000000E+00 0. -1.
          4    1    3    3  501    0 -0.60734660726E+02 -0.28849252559E+03  0.22482948553E+03  0.37076263822E+03  0.00000000000E+00 0. -1.
<mgrwt>
<rscale>  0 0.64470398E+03</rscale>
<asrwt>0</asrwt>
<pdfrwt beam="1">0</pdfrwt>
<pdfrwt beam="2">  1        2 0.37785827E+00 0.64470398E+03</pdfrwt>
<totfact> 0.48157325E+00</totfact>
</mgrwt>
</event>
<event>
 5    1  0.2369161E-004  0.6534487E+03  0.7818608E-02  0.9800329E-01
         13   -1    0    0    0    0  0.00000000000E+00  0.00000000000E+00  0.10000000000E+04  0.10000000000E+04  0.00000000000E+00 0. -1.
          2   -1    0    0  501    0 -0.00000000000E+00 -0.00000000000E+00 -0.10674880902E+03  0.10674880902E+03  0.00000000000E+00 0. -1.
    9000006    2    1    2  501    0  0.00000000000E+00  0.00000000000E+00  0.89325119098E+03  0.11067488090E+04  0.65344872489E+03 0.  0.
         13    1    3    3    0    0  0.19284233914E+03  0.20279695201E+03  0.73222468229E+03  0.78387993778E+03  0.00000000000E+00 0. -1.
          4    1    3    3  501    0 -0.19284233914E+03 -0.20279695201E+03  0.16102650870E+03  0.32286887123E+03  0.00000000000E+00 0. -1.
<mgrwt>
<rscale>  0 0.65344872E+03</rscale>
<asrwt>0</asrwt>
<pdfrwt beam="1">0</pdfrwt>
<pdfrwt beam="2">  1        2 0.38817831E+00 0.65344872E+03</pdfrwt>
<totfact> 0.44075617E+00</totfact>
</mgrwt>
</event>
<event>
 5    1  0.2369161E-004  0.6615572E+03  0.7818608E-02  0.9785331E-01
         13   -1    0    0    0    0  0.00000000000E+00  0.00000000000E+00  0.10000000000E+04  0.10000000000E+04  0.00000000000E+00 0. -1.
          2   -1    0    0  501    0 -0.00000000000E+00 -0.00000000000E+00 -0.10941448007E+03  0.10941448007E+03  0.00000000000E+00 0. -1.
    9000006    2    1    2  501    0  0.00000000000E+00  0.00000000000E+00  0.89058551993E+03  0.11094144801E+04  0.66155719352E+03 0.  0.
         13    1    3    3    0    0 -0.14671328638E+03 -0.13619033081E+03  0.36976485290E+01  0.20021555187E+03  0.00000000000E+00 0. -1.
          4    1    3    3  501    0  0.14671328638E+03  0.13619033081E+03  0.88688787140E+03  0.90919892820E+03  0.00000000000E+00 0. -1.
<mgrwt>
<rscale>  0 0.66155719E+03</rscale>
<asrwt>0</asrwt>
<pdfrwt beam="1">0</pdfrwt>
<pdfrwt beam="2">  1        2 0.39787168E+00 0.66155719E+03</pdfrwt>
<totfact> 0.40529785E+00</totfact>
</mgrwt>
</event>
<event>
 5    1  0.2369161E-004  0.6379443E+03  0.7818608E-02  0.9829667E-01
         13   -1    0    0    0    0  0.00000000000E+00  0.00000000000E+00  0.10000000000E+04  0.10000000000E+04  0.00000000000E+00 0. -1.
          2   -1    0    0  501    0 -0.00000000000E+00 -0.00000000000E+00 -0.10174324387E+03  0.10174324387E+03  0.00000000000E+00 0. -1.
    9000006    2    1    2  501    0  0.00000000000E+00  0.00000000000E+00  0.89825675613E+03  0.11017432439E+04  0.63794433571E+03 0.  0.
         13    1    3    3    0    0  0.19819384416E+03 -0.21131313370E+03  0.67960127403E+03  0.73877732234E+03  0.00000000000E+00 0. -1.
          2    1    3    3  501    0 -0.19819384416E+03  0.21131313370E+03  0.21865548210E+03  0.36296592152E+03  0.00000000000E+00 0. -1.
<mgrwt>
<rscale>  0 0.63794434E+03</rscale>
<asrwt>0</asrwt>
<pdfrwt beam="1">0</pdfrwt>
<pdfrwt beam="2">  1        2 0.36997621E+00 0.63794434E+03</pdfrwt>
<totfact> 0.51503713E+00</totfact>
</mgrwt>
</event>
<event>
 5    1  0.2369161E-004  0.6523947E+03  0.7818608E-02  0.9802296E-01
         13   -1    0    0    0    0  0.00000000000E+00  0.00000000000E+00  0.10000000000E+04  0.10000000000E+04  0.00000000000E+00 0. -1.
          2   -1    0    0  501    0 -0.00000000000E+00 -0.00000000000E+00 -0.10640471315E+03  0.10640471315E+03  0.00000000000E+00 0. -1.
    9000006    2    1    2  501    0  0.00000000000E+00  0.00000000000E+00  0.89359528685E+03  0.11064047131E+04  0.65239470614E+03 0.  0.
         13    1    3    3    0    0 -0.85155312473E+02  0.19161075956E+03  0.87056761250E+03  0.89546305248E+03  0.00000000000E+00 0. -1.
          4    1    3    3  501    0  0.85155312473E+02 -0.19161075956E+03  0.23027674352E+02  0.21094166067E+03  0.00000000000E+00 0. -1.
<mgrwt>
<rscale>  0 0.65239471E+03</rscale>
<asrwt>0</asrwt>
<pdfrwt beam="1">0</pdfrwt>
<pdfrwt beam="2">  1        2 0.38692705E+00 0.65239471E+03</pdfrwt>
<totfact> 0.44553196E+00</totfact>
</mgrwt>
</event>
<event>
 5    1  0.2369161E-004  0.6542034E+03  0.7818608E-02  0.9798924E-01
         13   -1    0    0    0    0  0.00000000000E+00  0.00000000000E+00  0.10000000000E+04  0.10000000000E+04  0.00000000000E+00 0. -1.
          2   -1    0    0  501    0 -0.00000000000E+00 -0.00000000000E+00 -0.10699553011E+03  0.10699553011E+03  0.00000000000E+00 0. -1.
    9000006    2    1    2  501    0  0.00000000000E+00  0.00000000000E+00  0.89300446989E+03  0.11069955301E+04  0.65420342436E+03 0.  0.
         13    1    3    3    0    0 -0.10639103329E+03 -0.29074046243E+03  0.26785283274E+03  0.40938271637E+03  0.00000000000E+00 0. -1.
          2    1    3    3  501    0  0.10639103329E+03  0.29074046243E+03  0.62515163715E+03  0.69761281374E+03  0.00000000000E+00 0. -1.
<mgrwt>
<rscale>  0 0.65420342E+03</rscale>
<asrwt>0</asrwt>
<pdfrwt beam="1">0</pdfrwt>
<pdfrwt beam="2">  1        2 0.38907548E+00 0.65420342E+03</pdfrwt>
<totfact> 0.43736043E+00</totfact>
</mgrwt>
</event>
<event>
 5    1  0.2369161E-004  0.6566241E+03  0.7818608E-02  0.9794428E-01
         13   -1    0    0    0    0  0.00000000000E+00  0.00000000000E+00  0.10000000000E+04  0.10000000000E+04  0.00000000000E+00 0. -1.
          2   -1    0    0  501    0 -0.00000000000E+00 -0.00000000000E+00 -0.10778878676E+03  0.10778878676E+03  0.00000000000E+00 0. -1.
    9000006    2    1    2  501    0  0.00000000000E+00  0.00000000000E+00  0.89221121324E+03  0.11077887868E+04  0.65662405305E+03 0.  0.
         13    1    3    3    0    0 -0.84078696671E+02 -0.52103890737E+02 -0.82052228485E+02  0.12851696722E+03  0.00000000000E+00 0. -1.
          2    1    3    3  501    0  0.84078696671E+02  0.52103890737E+02  0.97426344173E+03  0.97927181954E+03  0.00000000000E+00 0. -1.
<mgrwt>
<rscale>  0 0.65662405E+03</rscale>
<asrwt>0</asrwt>
<pdfrwt beam="1">0</pdfrwt>
<pdfrwt beam="2">  1        2 0.39196005E+00 0.65662405E+03</pdfrwt>
<totfact> 0.42660210E+00</totfact>
</mgrwt>
</event>
<event>
 5    1  0.2369161E-004  0.6502421E+03  0.7818608E-02  0.9806325E-01
         13   -1    0    0    0    0  0.00000000000E+00  0.00000000000E+00  0.10000000000E+04  0.10000000000E+04  0.00000000000E+00 0. -1.
          2   -1    0    0  501    0 -0.00000000000E+00 -0.00000000000E+00 -0.10570371257E+03  0.10570371257E+03  0.00000000000E+00 0. -1.
    9000006    2    1    2  501    0  0.00000000000E+00  0.00000000000E+00  0.89429628743E+03  0.11057037126E+04  0.65024214743E+03 0.  0.
         13    1    3    3    0    0 -0.68821075119E+02 -0.25637177014E+03  0.76636592240E+03  0.81103609779E+03  0.00000000000E+00 0. -1.
          2    1    3    3  501    0  0.68821075119E+02  0.25637177014E+03  0.12793036502E+03  0.29466761478E+03  0.00000000000E+00 0. -1.
<mgrwt>
<rscale>  0 0.65024215E+03</rscale>
<asrwt>0</asrwt>
<pdfrwt beam="1">0</pdfrwt>
<pdfrwt beam="2">  1        2 0.38437795E+00 0.65024215E+03</pdfrwt>
<totfact> 0.45540664E+00</totfact>
</mgrwt>
</event>
<event>
 5    1  0.2369161E-004  0.6403919E+03  0.7818608E-02  0.9824977E-01
         13   -1    0    0    0    0  0.00000000000E+00  0.00000000000E+00  0.10000000000E+04  0.10000000000E+04  0.00000000000E+00 0. -1.
          2   -1    0    0  501    0 -0.00000000000E+00 -0.00000000000E+00 -0.10252544439E+03  0.10252544439E+03  0.00000000000E+00 0. -1.
    9000006    2    1    2  501    0  0.00000000000E+00  0.00000000000E+00  0.89747455561E+03  0.11025254444E+04  0.64039189374E+03 0.  0.
         13    1    3    3    0    0 -0.18018905333E+03 -0.81038936464E+02  0.14931236029E+02  0.19813718977E+03  0.00000000000E+00 0. -1.
          4    1    3    3  501    0  0.18018905333E+03  0.81038936464E+02  0.88254331958E+03  0.90438825462E+03  0.00000000000E+00 0. -1.
<mgrwt>
<rscale>  0 0.64039189E+03</rscale>
<asrwt>0</asrwt>
<pdfrwt beam="1">0</pdfrwt>
<pdfrwt beam="2">  1        2 0.37282058E+00 0.64039189E+03</pdfrwt>
<totfact> 0.50272317E+00</totfact>
</mgrwt>
</event>
<event>
 5    1  0.2369161E-004  0.6414909E+03  0.7818608E-02  0.9822878E-01
         13   -1    0    0    0    0  0.00000000000E+00  0.00000000000E+00  0.10000000000E+04  0.10000000000E+04  0.00000000000E+00 0. -1.
          2   -1    0    0  501    0 -0.00000000000E+00 -0.00000000000E+00 -0.10287764064E+03  0.10287764064E+03  0.00000000000E+00 0. -1.
    9000006    2    1    2  501    0  0.00000000000E+00  0.00000000000E+00  0.89712235936E+03  0.11028776406E+04  0.64149089049E+03 0.  0.
         13    1    3    3    0    0 -0.11432873074E+03 -0.24774108089E+03  0.15867171059E+03  0.31563176896E+03  0.00000000000E+00 0. -1.
          4    1    3    3  501    0  0.11432873074E+03  0.24774108089E+03  0.73845064876E+03  0.78724587169E+03  0.00000000000E+00 0. -1.
<mgrwt>
<rscale>  0 0.64149089E+03</rscale>
<asrwt>0</asrwt>
<pdfrwt beam="1">0</pdfrwt>
<pdfrwt beam="2">  1        2 0.37410130E+00 0.64149089E+03</pdfrwt>
<totfact> 0.49726711E+00</totfact>
</mgrwt>
</event>
<event>
 5    1  0.2369161E-004  0.6369882E+03  0.7818608E-02  0.9831506E-01
         13   -1    0    0    0    0  0.00000000000E+00  0.00000000000E+00  0.10000000000E+04  0.10000000000E+04  0.00000000000E+00 0. -1.
          2   -1    0    0  501    0 -0.00000000000E+00 -0.00000000000E+00 -0.10143850268E+03  0.10143850268E+03  0.00000000000E+00 0. -1.
    9000006    2    1    2  501    0  0.00000000000E+00  0.00000000000E+00  0.89856149732E+03  0.11014385027E+04  0.63698823435E+03 0.  0.
         13    1    3    3    0    0 -0.12594134923E+03 -0.43223308831E+02  0.94956287206E+03  0.95885302621E+03  0.00000000000E+00 0. -1.
          4    1    3    3  501    0  0.12594134923E+03  0.43223308831E+02 -0.51001374738E+02  0.14258547646E+03  0.00000000000E+00 0. -1.
<mgrwt>
<rscale>  0 0.63698823E+03</rscale>
<asrwt>0</asrwt>
<pdfrwt beam="1">0</pdfrwt>
<pdfrwt beam="2">  1        2 0.36886806E+00 0.63698823E+03</pdfrwt>
<totfact> 0.51990893E+00</totfact>
</mgrwt>
</event>
<event>
 5    1  0.2369161E-004  0.6383518E+03  0.7818608E-02  0.9828885E-01
         13   -1    0    0    0    0  0.00000000000E+00  0.00000000000E+00  0.10000000000E+04  0.10000000000E+04  0.00000000000E+00 0. -1.
          2   -1    0    0  501    0 -0.00000000000E+00 -0.00000000000E+00 -0.10187325497E+03  0.10187325497E+03  0.00000000000E+00 0. -1.
    9000006    2    1    2  501    0  0.00000000000E+00  0.00000000000E+00  0.89812674503E+03  0.11018732550E+04  0.63835179948E+03 0.  0.
         13    1    3    3    0    0  0.23057843078E+03 -0.22034372807E+03  0.42753981616E+03  0.53339297487E+03  0.00000000000E+00 0. -1.
          4    1    3    3  501    0 -0.23057843078E+03  0.22034372807E+03  0.47058692887E+03  0.56848028010E+03  0.00000000000E+00 0. -1.
<mgrwt>
<rscale>  0 0.63835180E+03</rscale>
<asrwt>0</asrwt>
<pdfrwt beam="1">0</pdfrwt>
<pdfrwt beam="2">  1        2 0.37044898E+00 0.63835180E+03</pdfrwt>
<totfact> 0.51297145E+00</totfact>
</mgrwt>
</event>
<event>
 5    1  0.2369161E-004  0.6516550E+03  0.7818608E-02  0.9803679E-01
         13   -1    0    0    0    0  0.00000000000E+00  0.00000000000E+00  0.10000000000E+04  0.10000000000E+04  0.00000000000E+00 0. -1.
          2   -1    0    0  501    0 -0.00000000000E+00 -0.00000000000E+00 -0.10616356298E+03  0.10616356298E+03  0.00000000000E+00 0. -1.
    9000006    2    1    2  501    0  0.00000000000E+00  0.00000000000E+00  0.89383643702E+03  0.11061635630E+04  0.65165500991E+03 0.  0.
         13    1    3    3    0    0  0.32225119863E+03  0.33639467597E+02  0.38845740423E+03  0.50584246926E+03  0.00000000000E+00 0. -1.
          4    1    3    3  501    0 -0.32225119863E+03 -0.33639467597E+02  0.50537903278E+03  0.60032109373E+03  0.00000000000E+00 0. -1.
<mgrwt>
<rscale>  0 0.65165501E+03</rscale>
<asrwt>0</asrwt>
<pdfrwt beam="1">0</pdfrwt>
<pdfrwt beam="2">  1        2 0.38605013E+00 0.65165501E+03</pdfrwt>
<totfact> 0.44890682E+00</totfact>
</mgrwt>
</event>
<event>
 5    1  0.2369161E-004  0.6495355E+03  0.7818608E-02  0.9807651E-01
         13   -1    0    0    0    0  0.00000000000E+00  0.00000000000E+00  0.10000000000E+04  0.10000000000E+04  0.00000000000E+00 0. -1.
          2   -1    0    0  501    0 -0.00000000000E+00 -0.00000000000E+00 -0.10547410082E+03  0.10547410082E+03  0.00000000000E+00 0. -1.
    9000006    2    1    2  501    0  0.00000000000E+00  0.00000000000E+00  0.89452589918E+03  0.11054741008E+04  0.64953552889E+03 0.  0.
         13    1    3    3    0    0 -0.55400213912E+02 -0.17635807186E+03  0.90172622434E+03  0.92047897145E+03  0.00000000000E+00 0. -1.
          4    1    3    3  501    0  0.55400213912E+02  0.17635807186E+03 -0.72003251635E+01  0.18499512937E+03  0.00000000000E+00 0. -1.
<mgrwt>
<rscale>  0 0.64953553E+03</rscale>
<asrwt>0</asrwt>
<pdfrwt beam="1">0</pdfrwt>
<pdfrwt beam="2">  1        2 0.38354299E+00 0.64953553E+03</pdfrwt>
<totfact> 0.45868396E+00</totfact>
</mgrwt>
</event>
<event>
 5    1  0.2369161E-004  0.5706680E+03  0.7818608E-02  0.9968201E-01
         13   -1    0    0    0    0  0.00000000000E+00  0.00000000000E+00  0.10000000000E+04  0.10000000000E+04  0.00000000000E+00 0. -1.
          2   -1    0    0  501    0 -0.00000000000E+00 -0.00000000000E+00 -0.81415496251E+02  0.81415496251E+02  0.00000000000E+00 0. -1.
    9000006    2    1    2  501    0  0.00000000000E+00  0.00000000000E+00  0.91858450375E+03  0.10814154963E+04  0.57066801646E+03 0.  0.
         13    1    3    3    0    0 -0.18015473893E+03 -0.18522606244E+03  0.22991847894E+03  0.34587126380E+03  0.00000000000E+00 0. -1.
          2    1    3    3  501    0  0.18015473893E+03  0.18522606244E+03  0.68866602481E+03  0.73554423245E+03  0.00000000000E+00 0. -1.
<mgrwt>
<rscale>  0 0.57066802E+03</rscale>
<asrwt>0</asrwt>
<pdfrwt beam="1">0</pdfrwt>
<pdfrwt beam="2">  1        2 0.29605697E+00 0.57066802E+03</pdfrwt>
<totfact> 0.95375164E+00</totfact>
</mgrwt>
</event>
<event>
 5    1  0.2369161E-004  0.6486866E+03  0.7818608E-02  0.9809247E-01
         13   -1    0    0    0    0  0.00000000000E+00  0.00000000000E+00  0.10000000000E+04  0.10000000000E+04  0.00000000000E+00 0. -1.
          2   -1    0    0  501    0 -0.00000000000E+00 -0.00000000000E+00 -0.10519857345E+03  0.10519857345E+03  0.00000000000E+00 0. -1.
    9000006    2    1    2  501    0  0.00000000000E+00  0.00000000000E+00  0.89480142655E+03  0.11051985735E+04  0.64868659137E+03 0.  0.
         13    1    3    3    0    0 -0.31450440712E+03  0.48649354455E+01  0.58222182234E+03  0.66175444094E+03  0.00000000000E+00 0. -1.
          4    1    3    3  501    0  0.31450440712E+03 -0.48649354455E+01  0.31257960420E+03  0.44344413251E+03  0.00000000000E+00 0. -1.
<mgrwt>
<rscale>  0 0.64868659E+03</rscale>
<asrwt>0</asrwt>
<pdfrwt beam="1">0</pdfrwt>
<pdfrwt beam="2">  1        2 0.38254107E+00 0.64868659E+03</pdfrwt>
<totfact> 0.46264490E+00</totfact>
</mgrwt>
</event>
<event>
 5    1  0.2369161E-004  0.6273521E+03  0.7818608E-02  0.9850230E-01
         13   -1    0    0    0    0  0.00000000000E+00  0.00000000000E+00  0.10000000000E+04  0.10000000000E+04  0.00000000000E+00 0. -1.
          2   -1    0    0  501    0 -0.00000000000E+00 -0.00000000000E+00 -0.98392669172E+02  0.98392669172E+02  0.00000000000E+00 0. -1.
    9000006    2    1    2  501    0  0.00000000000E+00  0.00000000000E+00  0.90160733083E+03  0.10983926692E+04  0.62735211539E+03 0.  0.
         13    1    3    3    0    0  0.21812674705E+03  0.13726935696E+02  0.84474233762E+03  0.87255791986E+03  0.00000000000E+00 0. -1.
          4    1    3    3  501    0 -0.21812674705E+03 -0.13726935696E+02  0.56864993205E+02  0.22583474931E+03  0.00000000000E+00 0. -1.
<mgrwt>
<rscale>  0 0.62735212E+03</rscale>
<asrwt>0</asrwt>
<pdfrwt beam="1">0</pdfrwt>
<pdfrwt beam="2">  1        2 0.35779228E+00 0.62735212E+03</pdfrwt>
<totfact> 0.57098482E+00</totfact>
</mgrwt>
</event>
<event>
 5    1  0.2369161E-004  0.6460693E+03  0.7818608E-02  0.9814183E-01
         13   -1    0    0    0    0  0.00000000000E+00  0.00000000000E+00  0.10000000000E+04  0.10000000000E+04  0.00000000000E+00 0. -1.
          2   -1    0    0  501    0 -0.00000000000E+00 -0.00000000000E+00 -0.10435137463E+03  0.10435137463E+03  0.00000000000E+00 0. -1.
    9000006    2    1    2  501    0  0.00000000000E+00  0.00000000000E+00  0.89564862537E+03  0.11043513746E+04  0.64606926758E+03 0.  0.
         13    1    3    3    0    0  0.14105048111E+03 -0.23558739611E+02  0.94294614630E+03  0.95372830893E+03  0.00000000000E+00 0. -1.
          2    1    3    3  501    0 -0.14105048111E+03  0.23558739611E+02 -0.47297520927E+02  0.15062306570E+03  0.00000000000E+00 0. -1.
<mgrwt>
<rscale>  0 0.64606927E+03</rscale>
<asrwt>0</asrwt>
<pdfrwt beam="1">0</pdfrwt>
<pdfrwt beam="2">  1        2 0.37946034E+00 0.64606927E+03</pdfrwt>
<totfact> 0.47501964E+00</totfact>
</mgrwt>
</event>
<event>
 5    1  0.2369161E-004  0.6405159E+03  0.7818608E-02  0.9824740E-01
         13   -1    0    0    0    0  0.00000000000E+00  0.00000000000E+00  0.10000000000E+04  0.10000000000E+04  0.00000000000E+00 0. -1.
          2   -1    0    0  501    0 -0.00000000000E+00 -0.00000000000E+00 -0.10256515571E+03  0.10256515571E+03  0.00000000000E+00 0. -1.
    9000006    2    1    2  501    0  0.00000000000E+00  0.00000000000E+00  0.89743484429E+03  0.11025651557E+04  0.64051590366E+03 0.  0.
         13    1    3    3    0    0  0.19970419622E+03  0.20264866885E+03  0.70180516948E+03  0.75728379416E+03  0.00000000000E+00 0. -1.
          2    1    3    3  501    0 -0.19970419622E+03 -0.20264866885E+03  0.19562967480E+03  0.34528136156E+03  0.00000000000E+00 0. -1.
<mgrwt>
<rscale>  0 0.64051590E+03</rscale>
<asrwt>0</asrwt>
<pdfrwt beam="1">0</pdfrwt>
<pdfrwt beam="2">  1        2 0.37296499E+00 0.64051590E+03</pdfrwt>
<totfact> 0.50210525E+00</totfact>
</mgrwt>
</event>
<event>
 5    1  0.2369161E-004  0.6442372E+03  0.7818608E-02  0.9817653E-01
         13   -1    0    0    0    0  0.00000000000E+00  0.00000000000E+00  0.10000000000E+04  0.10000000000E+04  0.00000000000E+00 0. -1.
          2   -1    0    0  501    0 -0.00000000000E+00 -0.00000000000E+00 -0.10376040180E+03  0.10376040180E+03  0.00000000000E+00 0. -1.
    9000006    2    1    2  501    0  0.00000000000E+00  0.00000000000E+00  0.89623959820E+03  0.11037604018E+04  0.64423722899E+03 0.  0.
         13    1    3    3    0    0  0.37298054834E+02  0.24344173200E+03  0.92410900021E+02  0.26304903767E+03  0.00000000000E+00 0. -1.
          4    1    3    3  501    0 -0.37298054834E+02 -0.24344173200E+03  0.80382869818E+03  0.84071136413E+03  0.00000000000E+00 0. -1.
<mgrwt>
<rscale>  0 0.64423723E+03</rscale>
<asrwt>0</asrwt>
<pdfrwt beam="1">0</pdfrwt>
<pdfrwt beam="2">  1        2 0.37731135E+00 0.64423723E+03</pdfrwt>
<totfact> 0.48382934E+00</totfact>
</mgrwt>
</event>
<event>
 5    1  0.2369161E-004  0.6386473E+03  0.7818608E-02  0.9828318E-01
         13   -1    0    0    0    0  0.00000000000E+00  0.00000000000E+00  0.10000000000E+04  0.10000000000E+04  0.00000000000E+00 0. -1.
          2   -1    0    0  501    0 -0.00000000000E+00 -0.00000000000E+00 -0.10196758378E+03  0.10196758378E+03  0.00000000000E+00 0. -1.
    9000006    2    1    2  501    0  0.00000000000E+00  0.00000000000E+00  0.89803241622E+03  0.11019675838E+04  0.63864726971E+03 0.  0.
         13    1    3    3    0    0  0.31035825808E+03  0.58240367474E+02  0.53092422741E+03  0.61773353804E+03  0.00000000000E+00 0. -1.
          2    1    3    3  501    0 -0.31035825808E+03 -0.58240367474E+02  0.36710818881E+03  0.48423404574E+03  0.00000000000E+00 0. -1.
<mgrwt>
<rscale>  0 0.63864727E+03</rscale>
<asrwt>0</asrwt>
<pdfrwt beam="1">0</pdfrwt>
<pdfrwt beam="2">  1        2 0.37079200E+00 0.63864727E+03</pdfrwt>
<totfact> 0.51147746E+00</totfact>
</mgrwt>
</event>
<event>
 5    1  0.2369161E-004  0.6531342E+03  0.7818608E-02  0.9800916E-01
         13   -1    0    0    0    0  0.00000000000E+00  0.00000000000E+00  0.10000000000E+04  0.10000000000E+04  0.00000000000E+00 0. -1.
          2   -1    0    0  501    0 -0.00000000000E+00 -0.00000000000E+00 -0.10664606240E+03  0.10664606240E+03  0.00000000000E+00 0. -1.
    9000006    2    1    2  501    0  0.00000000000E+00  0.00000000000E+00  0.89335393760E+03  0.11066460624E+04  0.65313417427E+03 0.  0.
         13    1    3    3    0    0 -0.14150256356E+03  0.26045644346E+03  0.67890681664E+03  0.74079349357E+03  0.00000000000E+00 0. -1.
          4    1    3    3  501    0  0.14150256356E+03 -0.26045644346E+03  0.21444712096E+03  0.36585256883E+03  0.00000000000E+00 0. -1.
<mgrwt>
<rscale>  0 0.65313417E+03</rscale>
<asrwt>0</asrwt>
<pdfrwt beam="1">0</pdfrwt>
<pdfrwt beam="2">  1        2 0.38780468E+00 0.65313417E+03</pdfrwt>
<totfact> 0.44217734E+00</totfact>
</mgrwt>
</event>
<event>
 5    1  0.2369161E-004  0.6513894E+03  0.7818608E-02  0.9804176E-01
         13   -1    0    0    0    0  0.00000000000E+00  0.00000000000E+00  0.10000000000E+04  0.10000000000E+04  0.00000000000E+00 0. -1.
          2   -1    0    0  501    0 -0.00000000000E+00 -0.00000000000E+00 -0.10607703857E+03  0.10607703857E+03  0.00000000000E+00 0. -1.
    9000006    2    1    2  501    0  0.00000000000E+00  0.00000000000E+00  0.89392296143E+03  0.11060770386E+04  0.65138940296E+03 0.  0.
         13    1    3    3    0    0 -0.16678023010E+03  0.13156175406E+03  0.27741601778E+02  0.21422823519E+03  0.00000000000E+00 0. -1.
          2    1    3    3  501    0  0.16678023010E+03 -0.13156175406E+03  0.86618135965E+03  0.89184880338E+03  0.00000000000E+00 0. -1.
<mgrwt>
<rscale>  0 0.65138940E+03</rscale>
<asrwt>0</asrwt>
<pdfrwt beam="1">0</pdfrwt>
<pdfrwt beam="2">  1        2 0.38573550E+00 0.65138940E+03</pdfrwt>
<totfact> 0.45012335E+00</totfact>
</mgrwt>
</event>
<event>
 5    1  0.2369161E-004  0.6362732E+03  0.7818608E-02  0.9832883E-01
         13   -1    0    0    0    0  0.00000000000E+00  0.00000000000E+00  0.10000000000E+04  0.10000000000E+04  0.00000000000E+00 0. -1.
          2   -1    0    0  501    0 -0.00000000000E+00 -0.00000000000E+00 -0.10121088224E+03  0.10121088224E+03  0.00000000000E+00 0. -1.
    9000006    2    1    2  501    0  0.00000000000E+00  0.00000000000E+00  0.89878911776E+03  0.11012108822E+04  0.63627315593E+03 0.  0.
         13    1    3    3    0    0 -0.37927984854E+02 -0.31367569662E+03  0.38510330595E+03  0.49813204167E+03  0.00000000000E+00 0. -1.
          4    1    3    3  501    0  0.37927984854E+02  0.31367569662E+03  0.51368581181E+03  0.60307884057E+03  0.00000000000E+00 0. -1.
<mgrwt>
<rscale>  0 0.63627316E+03</rscale>
<asrwt>0</asrwt>
<pdfrwt beam="1">0</pdfrwt>
<pdfrwt beam="2">  1        2 0.36804035E+00 0.63627316E+03</pdfrwt>
<totfact> 0.52357537E+00</totfact>
</mgrwt>
</event>
<event>
 5    1  0.2369161E-004  0.6481576E+03  0.7818608E-02  0.9810242E-01
         13   -1    0    0    0    0  0.00000000000E+00  0.00000000000E+00  0.10000000000E+04  0.10000000000E+04  0.00000000000E+00 0. -1.
          2   -1    0    0  501    0 -0.00000000000E+00 -0.00000000000E+00 -0.10502707094E+03  0.10502707094E+03  0.00000000000E+00 0. -1.
    9000006    2    1    2  501    0  0.00000000000E+00  0.00000000000E+00  0.89497292906E+03  0.11050270709E+04  0.64815760718E+03 0.  0.
         13    1    3    3    0    0 -0.30991498332E+02 -0.26722825886E+03  0.75557213476E+03  0.80203532723E+03  0.00000000000E+00 0. -1.
          2    1    3    3  501    0  0.30991498332E+02  0.26722825886E+03  0.13940079430E+03  0.30299174370E+03  0.00000000000E+00 0. -1.
<mgrwt>
<rscale>  0 0.64815761E+03</rscale>
<asrwt>0</asrwt>
<pdfrwt beam="1">0</pdfrwt>
<pdfrwt beam="2">  1        2 0.38191743E+00 0.64815761E+03</pdfrwt>
<totfact> 0.46512606E+00</totfact>
</mgrwt>
</event>
<event>
 5    1  0.2369161E-004  0.6412689E+03  0.7818608E-02  0.9823302E-01
         13   -1    0    0    0    0  0.00000000000E+00  0.00000000000E+00  0.10000000000E+04  0.10000000000E+04  0.00000000000E+00 0. -1.
          2   -1    0    0  501    0 -0.00000000000E+00 -0.00000000000E+00 -0.10280646550E+03  0.10280646550E+03  0.00000000000E+00 0. -1.
    9000006    2    1    2  501    0  0.00000000000E+00  0.00000000000E+00  0.89719353450E+03  0.11028064655E+04  0.64126894669E+03 0.  0.
         13    1    3    3    0    0 -0.16524388565E+03 -0.20952409005E+03  0.14288889886E+03  0.30269311765E+03  0.00000000000E+00 0. -1.
          4    1    3    3  501    0  0.16524388565E+03  0.20952409005E+03  0.75430463564E+03  0.80011334785E+03  0.00000000000E+00 0. -1.
<mgrwt>
<rscale>  0 0.64126895E+03</rscale>
<asrwt>0</asrwt>
<pdfrwt beam="1">0</pdfrwt>
<pdfrwt beam="2">  1        2 0.37384248E+00 0.64126895E+03</pdfrwt>
<totfact> 0.49836534E+00</totfact>
</mgrwt>
</event>
<event>
 5    1  0.2369161E-004  0.6623668E+03  0.7818608E-02  0.9783847E-01
         13   -1    0    0    0    0  0.00000000000E+00  0.00000000000E+00  0.10000000000E+04  0.10000000000E+04  0.00000000000E+00 0. -1.
          2   -1    0    0  501    0 -0.00000000000E+00 -0.00000000000E+00 -0.10968243142E+03  0.10968243142E+03  0.00000000000E+00 0. -1.
    9000006    2    1    2  501    0  0.00000000000E+00  0.00000000000E+00  0.89031756858E+03  0.11096824314E+04  0.66236676069E+03 0.  0.
         13    1    3    3    0    0  0.24144358100E+03  0.21722488101E+03  0.55374260833E+03  0.64195991153E+03  0.00000000000E+00 0. -1.
          4    1    3    3  501    0 -0.24144358100E+03 -0.21722488101E+03  0.33657496025E+03  0.46772251988E+03  0.00000000000E+00 0. -1.
<mgrwt>
<rscale>  0 0.66236676E+03</rscale>
<asrwt>0</asrwt>
<pdfrwt beam="1">0</pdfrwt>
<pdfrwt beam="2">  1        2 0.39884605E+00 0.66236676E+03</pdfrwt>
<totfact> 0.40187997E+00</totfact>
</mgrwt>
</event>
<event>
 5    1  0.2369161E-004  0.6382377E+03  0.7818608E-02  0.9829104E-01
         13   -1    0    0    0    0  0.00000000000E+00  0.00000000000E+00  0.10000000000E+04  0.10000000000E+04  0.00000000000E+00 0. -1.
          2   -1    0    0  501    0 -0.00000000000E+00 -0.00000000000E+00 -0.10183684115E+03  0.10183684115E+03  0.00000000000E+00 0. -1.
    9000006    2    1    2  501    0  0.00000000000E+00  0.00000000000E+00  0.89816315885E+03  0.11018368411E+04  0.63823770227E+03 0.  0.
         13    1    3    3    0    0  0.31665620415E+03  0.37030202038E+02  0.47315528223E+03  0.57054211815E+03  0.00000000000E+00 0. -1.
          4    1    3    3  501    0 -0.31665620415E+03 -0.37030202038E+02  0.42500787662E+03  0.53129472299E+03  0.00000000000E+00 0. -1.
<mgrwt>
<rscale>  0 0.63823770E+03</rscale>
<asrwt>0</asrwt>
<pdfrwt beam="1">0</pdfrwt>
<pdfrwt beam="2">  1        2 0.37031657E+00 0.63823770E+03</pdfrwt>
<totfact> 0.51354924E+00</totfact>
</mgrwt>
</event>
<event>
 5    1  0.2369161E-004  0.6521351E+03  0.7818608E-02  0.9802781E-01
         13   -1    0    0    0    0  0.00000000000E+00  0.00000000000E+00  0.10000000000E+04  0.10000000000E+04  0.00000000000E+00 0. -1.
          2   -1    0    0  501    0 -0.00000000000E+00 -0.00000000000E+00 -0.10632006125E+03  0.10632006125E+03  0.00000000000E+00 0. -1.
    9000006    2    1    2  501    0  0.00000000000E+00  0.00000000000E+00  0.89367993875E+03  0.11063200612E+04  0.65213514320E+03 0.  0.
         13    1    3    3    0    0 -0.86399619885E+02  0.31434265413E+03  0.45807543316E+03  0.56223598336E+03  0.00000000000E+00 0. -1.
          2    1    3    3  501    0  0.86399619885E+02 -0.31434265413E+03  0.43560450559E+03  0.54408407789E+03  0.00000000000E+00 0. -1.
<mgrwt>
<rscale>  0 0.65213514E+03</rscale>
<asrwt>0</asrwt>
<pdfrwt beam="1">0</pdfrwt>
<pdfrwt beam="2">  1        2 0.38661922E+00 0.65213514E+03</pdfrwt>
<totfact> 0.44671402E+00</totfact>
</mgrwt>
</event>
<event>
 5    1  0.2369161E-004  0.7050189E+03  0.7818608E-02  0.9708687E-01
         13   -1    0    0    0    0  0.00000000000E+00  0.00000000000E+00  0.10000000000E+04  0.10000000000E+04  0.00000000000E+00 0. -1.
          2   -1    0    0  501    0 -0.00000000000E+00 -0.00000000000E+00 -0.12426291549E+03  0.12426291549E+03  0.00000000000E+00 0. -1.
    9000006    2    1    2  501    0  0.00000000000E+00  0.00000000000E+00  0.87573708451E+03  0.11242629155E+04  0.70501890895E+03 0.  0.
         13    1    3    3    0    0  0.33751431578E+03 -0.17902145308E+01  0.27568487349E+03  0.43579957284E+03  0.00000000000E+00 0. -1.
          4    1    3    3  501    0 -0.33751431578E+03  0.17902145308E+01  0.60005221102E+03  0.68846334265E+03  0.00000000000E+00 0. -1.
<mgrwt>
<rscale>  0 0.70501891E+03</rscale>
<asrwt>0</asrwt>
<pdfrwt beam="1">0</pdfrwt>
<pdfrwt beam="2">  1        2 0.45186610E+00 0.70501891E+03</pdfrwt>
<totfact> 0.25037918E+00</totfact>
</mgrwt>
</event>
<event>
 5    1  0.2369161E-004  0.5959891E+03  0.7818608E-02  0.9913762E-01
         13   -1    0    0    0    0  0.00000000000E+00  0.00000000000E+00  0.10000000000E+04  0.10000000000E+04  0.00000000000E+00 0. -1.
          2   -1    0    0  501    0 -0.00000000000E+00 -0.00000000000E+00 -0.88800758277E+02  0.88800758277E+02  0.00000000000E+00 0. -1.
    9000006    2    1    2  501    0  0.00000000000E+00  0.00000000000E+00  0.91119924172E+03  0.10888007583E+04  0.59598912164E+03 0.  0.
         13    1    3    3    0    0 -0.26019025783E+03  0.13888103267E+03  0.53340513554E+03  0.60951452003E+03  0.00000000000E+00 0. -1.
          4    1    3    3  501    0  0.26019025783E+03 -0.13888103267E+03  0.37779410618E+03  0.47928623824E+03  0.00000000000E+00 0. -1.
<mgrwt>
<rscale>  0 0.59598912E+03</rscale>
<asrwt>0</asrwt>
<pdfrwt beam="1">0</pdfrwt>
<pdfrwt beam="2">  1        2 0.32291253E+00 0.59598912E+03</pdfrwt>
<totfact> 0.76406559E+00</totfact>
</mgrwt>
</event>
<event>
 5    1  0.2369161E-004  0.6769290E+03  0.7818608E-02  0.9757521E-01
         13   -1    0    0    0    0  0.00000000000E+00  0.00000000000E+00  0.10000000000E+04  0.10000000000E+04  0.00000000000E+00 0. -1.
          2   -1    0    0  501    0 -0.00000000000E+00 -0.00000000000E+00 -0.11455823258E+03  0.11455823258E+03  0.00000000000E+00 0. -1.
    9000006    2    1    2  501    0  0.00000000000E+00  0.00000000000E+00  0.88544176742E+03  0.11145582326E+04  0.67692904379E+03 0.  0.
         13    1    3    3    0    0 -0.32988429219E+03 -0.23879225323E+02  0.56104363149E+03  0.65127860403E+03  0.00000000000E+00 0. -1.
          2    1    3    3  501    0  0.32988429219E+03  0.23879225323E+02  0.32439813593E+03  0.46327962855E+03  0.00000000000E+00 0. -1.
<mgrwt>
<rscale>  0 0.67692904E+03</rscale>
<asrwt>0</asrwt>
<pdfrwt beam="1">0</pdfrwt>
<pdfrwt beam="2">  1        2 0.41657627E+00 0.67692904E+03</pdfrwt>
<totfact> 0.34403026E+00</totfact>
</mgrwt>
</event>
<event>
 5    1  0.2369161E-004  0.6605485E+03  0.7818608E-02  0.9787185E-01
         13   -1    0    0    0    0  0.00000000000E+00  0.00000000000E+00  0.10000000000E+04  0.10000000000E+04  0.00000000000E+00 0. -1.
          2   -1    0    0  501    0 -0.00000000000E+00 -0.00000000000E+00 -0.10908107436E+03  0.10908107436E+03  0.00000000000E+00 0. -1.
    9000006    2    1    2  501    0  0.00000000000E+00  0.00000000000E+00  0.89091892564E+03  0.11090810744E+04  0.66054848227E+03 0.  0.
         13    1    3    3    0    0 -0.44084145278E+02  0.32683753992E+03  0.47525385804E+03  0.57847421633E+03  0.00000000000E+00 0. -1.
          4    1    3    3  501    0  0.44084145278E+02 -0.32683753992E+03  0.41566506760E+03  0.53060685803E+03  0.00000000000E+00 0. -1.
<mgrwt>
<rscale>  0 0.66054848E+03</rscale>
<asrwt>0</asrwt>
<pdfrwt beam="1">0</pdfrwt>
<pdfrwt beam="2">  1        2 0.39665929E+00 0.66054848E+03</pdfrwt>
<totfact> 0.40958711E+00</totfact>
</mgrwt>
</event>
<event>
 5    1  0.2369161E-004  0.5208050E+03  0.7818608E-02  0.1008487E+00
         13   -1    0    0    0    0  0.00000000000E+00  0.00000000000E+00  0.10000000000E+04  0.10000000000E+04  0.00000000000E+00 0. -1.
          2   -1    0    0  501    0 -0.00000000000E+00 -0.00000000000E+00 -0.67809467487E+02  0.67809467487E+02  0.00000000000E+00 0. -1.
    9000006    2    1    2  501    0  0.00000000000E+00  0.00000000000E+00  0.93219053251E+03  0.10678094675E+04  0.52080502105E+03 0.  0.
         13    1    3    3    0    0  0.87806168012E+02 -0.44641731436E+02  0.96032806317E+03  0.96536666414E+03  0.00000000000E+00 0. -1.
          2    1    3    3  501    0 -0.87806168012E+02  0.44641731436E+02 -0.28137530653E+02  0.10244280335E+03  0.00000000000E+00 0. -1.
<mgrwt>
<rscale>  0 0.52080502E+03</rscale>
<asrwt>0</asrwt>
<pdfrwt beam="1">0</pdfrwt>
<pdfrwt beam="2">  1        2 0.24658040E+00 0.52080502E+03</pdfrwt>
<totfact> 0.14340193E+01</totfact>
</mgrwt>
</event>
<event>
 5    1  0.2369161E-004  0.6457570E+03  0.7818608E-02  0.9814774E-01
         13   -1    0    0    0    0  0.00000000000E+00  0.00000000000E+00  0.10000000000E+04  0.10000000000E+04  0.00000000000E+00 0. -1.
          2   -1    0    0  501    0 -0.00000000000E+00 -0.00000000000E+00 -0.10425052835E+03  0.10425052835E+03  0.00000000000E+00 0. -1.
    9000006    2    1    2  501    0  0.00000000000E+00  0.00000000000E+00  0.89574947165E+03  0.11042505284E+04  0.64575700802E+03 0.  0.
         13    1    3    3    0    0  0.71278105924E+02  0.31490395406E+03  0.44387913355E+03  0.54888409876E+03  0.00000000000E+00 0. -1.
          4    1    3    3  501    0 -0.71278105924E+02 -0.31490395406E+03  0.45187033810E+03  0.55536642959E+03  0.00000000000E+00 0. -1.
<mgrwt>
<rscale>  0 0.64575701E+03</rscale>
<asrwt>0</asrwt>
<pdfrwt beam="1">0</pdfrwt>
<pdfrwt beam="2">  1        2 0.37909363E+00 0.64575701E+03</pdfrwt>
<totfact> 0.47651255E+00</totfact>
</mgrwt>
</event>
<event>
 5    1  0.2369161E-004  0.6400554E+03  0.7818608E-02  0.9825621E-01
         13   -1    0    0    0    0  0.00000000000E+00  0.00000000000E+00  0.10000000000E+04  0.10000000000E+04  0.00000000000E+00 0. -1.
          2   -1    0    0  501    0 -0.00000000000E+00 -0.00000000000E+00 -0.10241771530E+03  0.10241771530E+03  0.00000000000E+00 0. -1.
    9000006    2    1    2  501    0  0.00000000000E+00  0.00000000000E+00  0.89758228470E+03  0.11024177153E+04  0.64005535793E+03 0.  0.
         13    1    3    3    0    0  0.18551895750E+03  0.27487596416E+02  0.21505353223E+01  0.18755659506E+03  0.00000000000E+00 0. -1.
          2    1    3    3  501    0 -0.18551895750E+03 -0.27487596416E+02  0.89543174937E+03  0.91486112024E+03  0.00000000000E+00 0. -1.
<mgrwt>
<rscale>  0 0.64005536E+03</rscale>
<asrwt>0</asrwt>
<pdfrwt beam="1">0</pdfrwt>
<pdfrwt beam="2">  1        2 0.37242884E+00 0.64005536E+03</pdfrwt>
<totfact> 0.50440296E+00</totfact>
</mgrwt>
</event>
<event>
 5    1  0.2369161E-004  0.6417717E+03  0.7818608E-02  0.9822343E-01
         13   -1    0    0    0    0  0.00000000000E+00  0.00000000000E+00  0.10000000000E+04  0.10000000000E+04  0.00000000000E+00 0. -1.
          2   -1    0    0  501    0 -0.00000000000E+00 -0.00000000000E+00 -0.10296773966E+03  0.10296773966E+03  0.00000000000E+00 0. -1.
    9000006    2    1    2  501    0  0.00000000000E+00  0.00000000000E+00  0.89703226034E+03  0.11029677397E+04  0.64177173405E+03 0.  0.
         13    1    3    3    0    0 -0.26111653796E+03  0.76780708440E+02  0.74063568242E+03  0.78906168178E+03  0.00000000000E+00 0. -1.
          2    1    3    3  501    0  0.26111653796E+03 -0.76780708440E+02  0.15639657792E+03  0.31390605787E+03  0.00000000000E+00 0. -1.
<mgrwt>
<rscale>  0 0.64177173E+03</rscale>
<asrwt>0</asrwt>
<pdfrwt beam="1">0</pdfrwt>
<pdfrwt beam="2">  1        2 0.37442893E+00 0.64177173E+03</pdfrwt>
<totfact> 0.49588007E+00</totfact>
</mgrwt>
</event>
<event>
 5    1  0.2369161E-004  0.6503268E+03  0.7818608E-02  0.9806166E-01
         13   -1    0    0    0    0  0.00000000000E+00  0.00000000000E+00  0.10000000000E+04  0.10000000000E+04  0.00000000000E+00 0. -1.
          2   -1    0    0  501    0 -0.00000000000E+00 -0.00000000000E+00 -0.10573123622E+03  0.10573123622E+03  0.00000000000E+00 0. -1.
    9000006    2    1    2  501    0  0.00000000000E+00  0.00000000000E+00  0.89426876378E+03  0.11057312362E+04  0.65032679852E+03 0.  0.
         13    1    3    3    0    0 -0.19334793878E+03  0.23855452464E+03  0.62898818579E+03  0.69994130077E+03  0.00000000000E+00 0. -1.
          2    1    3    3  501    0  0.19334793878E+03 -0.23855452464E+03  0.26528057799E+03  0.40578993545E+03  0.00000000000E+00 0. -1.
<mgrwt>
<rscale>  0 0.65032680E+03</rscale>
<asrwt>0</asrwt>
<pdfrwt beam="1">0</pdfrwt>
<pdfrwt beam="2">  1        2 0.38447803E+00 0.65032680E+03</pdfrwt>
<totfact> 0.45501521E+00</totfact>
</mgrwt>
</event>
<event>
 5    1  0.2369161E-004  0.6492699E+03  0.7818608E-02  0.9808150E-01
         13   -1    0    0    0    0  0.00000000000E+00  0.00000000000E+00  0.10000000000E+04  0.10000000000E+04  0.00000000000E+00 0. -1.
          2   -1    0    0  501    0 -0.00000000000E+00 -0.00000000000E+00 -0.10538783728E+03  0.10538783728E+03  0.00000000000E+00 0. -1.
    9000006    2    1    2  501    0  0.00000000000E+00  0.00000000000E+00  0.89461216272E+03  0.11053878373E+04  0.64926985847E+03 0.  0.
         13    1    3    3    0    0 -0.24357773157E+03  0.18737863708E+03  0.26917633477E+03  0.40853000398E+03  0.00000000000E+00 0. -1.
          2    1    3    3  501    0  0.24357773157E+03 -0.18737863708E+03  0.62543582795E+03  0.69685783330E+03  0.00000000000E+00 0. -1.
<mgrwt>
<rscale>  0 0.64926986E+03</rscale>
<asrwt>0</asrwt>
<pdfrwt beam="1">0</pdfrwt>
<pdfrwt beam="2">  1        2 0.38322931E+00 0.64926986E+03</pdfrwt>
<totfact> 0.45992075E+00</totfact>
</mgrwt>
</event>
<event>
 5    1  0.2369161E-004  0.6525015E+03  0.7818608E-02  0.9802097E-01
         13   -1    0    0    0    0  0.00000000000E+00  0.00000000000E+00  0.10000000000E+04  0.10000000000E+04  0.00000000000E+00 0. -1.
          2   -1    0    0  501    0 -0.00000000000E+00 -0.00000000000E+00 -0.10643955949E+03  0.10643955949E+03  0.00000000000E+00 0. -1.
    9000006    2    1    2  501    0  0.00000000000E+00  0.00000000000E+00  0.89356044051E+03  0.11064395595E+04  0.65250152333E+03 0.  0.
         13    1    3    3    0    0 -0.16367193753E+03 -0.16015306240E+03  0.52730248824E+02  0.23498507543E+03  0.00000000000E+00 0. -1.
          4    1    3    3  501    0  0.16367193753E+03  0.16015306240E+03  0.84083019169E+03  0.87145448406E+03  0.00000000000E+00 0. -1.
<mgrwt>
<rscale>  0 0.65250152E+03</rscale>
<asrwt>0</asrwt>
<pdfrwt beam="1">0</pdfrwt>
<pdfrwt beam="2">  1        2 0.38705376E+00 0.65250152E+03</pdfrwt>
<totfact> 0.44504620E+00</totfact>
</mgrwt>
</event>
<event>
 5    1  0.2369161E-004  0.6463866E+03  0.7818608E-02  0.9813583E-01
         13   -1    0    0    0    0  0.00000000000E+00  0.00000000000E+00  0.10000000000E+04  0.10000000000E+04  0.00000000000E+00 0. -1.
          2   -1    0    0  501    0 -0.00000000000E+00 -0.00000000000E+00 -0.10445391109E+03  0.10445391109E+03  0.00000000000E+00 0. -1.
    9000006    2    1    2  501    0  0.00000000000E+00  0.00000000000E+00  0.89554608891E+03  0.11044539111E+04  0.64638660595E+03 0.  0.
         13    1    3    3    0    0 -0.27607669388E+03 -0.13891279685E+03  0.60931858794E+03  0.68321610611E+03  0.00000000000E+00 0. -1.
          4    1    3    3  501    0  0.27607669388E+03  0.13891279685E+03  0.28622750097E+03  0.42123780498E+03  0.00000000000E+00 0. -1.
<mgrwt>
<rscale>  0 0.64638661E+03</rscale>
<asrwt>0</asrwt>
<pdfrwt beam="1">0</pdfrwt>
<pdfrwt beam="2">  1        2 0.37983320E+00 0.64638661E+03</pdfrwt>
<totfact> 0.47350608E+00</totfact>
</mgrwt>
</event>
<event>
 5    1  0.2369161E-004  0.6329964E+03  0.7818608E-02  0.9839219E-01
         13   -1    0    0    0    0  0.00000000000E+00  0.00000000000E+00  0.10000000000E+04  0.10000000000E+04  0.00000000000E+00 0. -1.
          2   -1    0    0  501    0 -0.00000000000E+00 -0.00000000000E+00 -0.10017110570E+03  0.10017110570E+03  0.00000000000E+00 0. -1.
    9000006    2    1    2  501    0  0.00000000000E+00  0.00000000000E+00  0.89982889430E+03  0.11001711057E+04  0.63299638452E+03 0.  0.
         13    1    3    3    0    0  0.14321544995E+03 -0.16821075956E+03  0.84382272503E+03  0.87226275629E+03  0.00000000000E+00 0. -1.
          4    1    3    3  501    0 -0.14321544995E+03  0.16821075956E+03  0.56006169265E+02  0.22790834941E+03  0.00000000000E+00 0. -1.
<mgrwt>
<rscale>  0 0.63299638E+03</rscale>
<asrwt>0</asrwt>
<pdfrwt beam="1">0</pdfrwt>
<pdfrwt beam="2">  1        2 0.36425933E+00 0.63299638E+03</pdfrwt>
<totfact> 0.54062775E+00</totfact>
</mgrwt>
</event>
<event>
 5    1  0.2369161E-004  0.6616681E+03  0.7818608E-02  0.9785128E-01
         13   -1    0    0    0    0  0.00000000000E+00  0.00000000000E+00  0.10000000000E+04  0.10000000000E+04  0.00000000000E+00 0. -1.
          2   -1    0    0  501    0 -0.00000000000E+00 -0.00000000000E+00 -0.10945118385E+03  0.10945118385E+03  0.00000000000E+00 0. -1.
    9000006    2    1    2  501    0  0.00000000000E+00  0.00000000000E+00  0.89054881615E+03  0.11094511838E+04  0.66166814597E+03 0.  0.
         13    1    3    3    0    0 -0.36319798721E+02 -0.86684618831E+02 -0.86595537471E+02  0.12779725361E+03  0.00000000000E+00 0. -1.
          4    1    3    3  501    0  0.36319798721E+02  0.86684618831E+02  0.97714435363E+03  0.98165393023E+03  0.00000000000E+00 0. -1.
<mgrwt>
<rscale>  0 0.66166815E+03</rscale>
<asrwt>0</asrwt>
<pdfrwt beam="1">0</pdfrwt>
<pdfrwt beam="2">  1        2 0.39800514E+00 0.66166815E+03</pdfrwt>
<totfact> 0.40482813E+00</totfact>
</mgrwt>
</event>
<event>
 5    1  0.2369161E-004  0.6482705E+03  0.7818608E-02  0.9810030E-01
         13   -1    0    0    0    0  0.00000000000E+00  0.00000000000E+00  0.10000000000E+04  0.10000000000E+04  0.00000000000E+00 0. -1.
          2   -1    0    0  501    0 -0.00000000000E+00 -0.00000000000E+00 -0.10506367616E+03  0.10506367616E+03  0.00000000000E+00 0. -1.
    9000006    2    1    2  501    0  0.00000000000E+00  0.00000000000E+00  0.89493632384E+03  0.11050636762E+04  0.64827054896E+03 0.  0.
         13    1    3    3    0    0 -0.97094262412E+02  0.25307404059E+03  0.75044205570E+03  0.79789538461E+03  0.00000000000E+00 0. -1.
          2    1    3    3  501    0  0.97094262412E+02 -0.25307404059E+03  0.14449426814E+03  0.30716829156E+03  0.00000000000E+00 0. -1.
<mgrwt>
<rscale>  0 0.64827055E+03</rscale>
<asrwt>0</asrwt>
<pdfrwt beam="1">0</pdfrwt>
<pdfrwt beam="2">  1        2 0.38205054E+00 0.64827055E+03</pdfrwt>
<totfact> 0.46459547E+00</totfact>
</mgrwt>
</event>
<event>
 5    1  0.2369161E-004  0.6385056E+03  0.7818608E-02  0.9828590E-01
         13   -1    0    0    0    0  0.00000000000E+00  0.00000000000E+00  0.10000000000E+04  0.10000000000E+04  0.00000000000E+00 0. -1.
          2   -1    0    0  501    0 -0.00000000000E+00 -0.00000000000E+00 -0.10192233708E+03  0.10192233708E+03  0.00000000000E+00 0. -1.
    9000006    2    1    2  501    0  0.00000000000E+00  0.00000000000E+00  0.89807766292E+03  0.11019223371E+04  0.63850555857E+03 0.  0.
         13    1    3    3    0    0  0.13490485668E+03 -0.18765827532E+03  0.68945499248E+02  0.24118132291E+03  0.00000000000E+00 0. -1.
          2    1    3    3  501    0 -0.13490485668E+03  0.18765827532E+03  0.82913216367E+03  0.86074101418E+03  0.00000000000E+00 0. -1.
<mgrwt>
<rscale>  0 0.63850556E+03</rscale>
<asrwt>0</asrwt>
<pdfrwt beam="1">0</pdfrwt>
<pdfrwt beam="2">  1        2 0.37062746E+00 0.63850556E+03</pdfrwt>
<totfact> 0.51219359E+00</totfact>
</mgrwt>
</event>
<event>
 5    1  0.2369161E-004  0.6499946E+03  0.7818608E-02  0.9806789E-01
         13   -1    0    0    0    0  0.00000000000E+00  0.00000000000E+00  0.10000000000E+04  0.10000000000E+04  0.00000000000E+00 0. -1.
          2   -1    0    0  501    0 -0.00000000000E+00 -0.00000000000E+00 -0.10562325368E+03  0.10562325368E+03  0.00000000000E+00 0. -1.
    9000006    2    1    2  501    0  0.00000000000E+00  0.00000000000E+00  0.89437674632E+03  0.11056232537E+04  0.64999462668E+03 0.  0.
         13    1    3    3    0    0  0.13674233303E+02 -0.31955252642E+03  0.34914308041E+03  0.47349941119E+03  0.00000000000E+00 0. -1.
          4    1    3    3  501    0 -0.13674233303E+02  0.31955252642E+03  0.54523366591E+03  0.63212384249E+03  0.00000000000E+00 0. -1.
<mgrwt>
<rscale>  0 0.64999463E+03</rscale>
<asrwt>0</asrwt>
<pdfrwt beam="1">0</pdfrwt>
<pdfrwt beam="2">  1        2 0.38408537E+00 0.64999463E+03</pdfrwt>
<totfact> 0.45655263E+00</totfact>
</mgrwt>
</event>
<event>
 5    1  0.2369161E-004  0.6396990E+03  0.7818608E-02  0.9826303E-01
         13   -1    0    0    0    0  0.00000000000E+00  0.00000000000E+00  0.10000000000E+04  0.10000000000E+04  0.00000000000E+00 0. -1.
          2   -1    0    0  501    0 -0.00000000000E+00 -0.00000000000E+00 -0.10230371480E+03  0.10230371480E+03  0.00000000000E+00 0. -1.
    9000006    2    1    2  501    0  0.00000000000E+00  0.00000000000E+00  0.89769628520E+03  0.11023037148E+04  0.63969903799E+03 0.  0.
         13    1    3    3    0    0 -0.10232403014E+03  0.22920587408E+03  0.79044334635E+03  0.82934083684E+03  0.00000000000E+00 0. -1.
          2    1    3    3  501    0  0.10232403014E+03 -0.22920587408E+03  0.10725293885E+03  0.27296287797E+03  0.00000000000E+00 0. -1.
<mgrwt>
<rscale>  0 0.63969904E+03</rscale>
<asrwt>0</asrwt>
<pdfrwt beam="1">0</pdfrwt>
<pdfrwt beam="2">  1        2 0.37201429E+00 0.63969904E+03</pdfrwt>
<totfact> 0.50618613E+00</totfact>
</mgrwt>
</event>
<event>
 5    1  0.2369161E-004  0.6494613E+03  0.7818608E-02  0.9807791E-01
         13   -1    0    0    0    0  0.00000000000E+00  0.00000000000E+00  0.10000000000E+04  0.10000000000E+04  0.00000000000E+00 0. -1.
          2   -1    0    0  501    0 -0.00000000000E+00 -0.00000000000E+00 -0.10544998218E+03  0.10544998218E+03  0.00000000000E+00 0. -1.
    9000006    2    1    2  501    0  0.00000000000E+00  0.00000000000E+00  0.89455001782E+03  0.11054499822E+04  0.64946126037E+03 0.  0.
         13    1    3    3    0    0 -0.30143939495E+03 -0.11282279231E+03  0.52058984221E+03  0.61205267348E+03  0.00000000000E+00 0. -1.
          4    1    3    3  501    0  0.30143939495E+03  0.11282279231E+03  0.37396017561E+03  0.49339730870E+03  0.00000000000E+00 0. -1.
<mgrwt>
<rscale>  0 0.64946126E+03</rscale>
<asrwt>0</asrwt>
<pdfrwt beam="1">0</pdfrwt>
<pdfrwt beam="2">  1        2 0.38345529E+00 0.64946126E+03</pdfrwt>
<totfact> 0.45902945E+00</totfact>
</mgrwt>
</event>
<event>
 5    1  0.2369161E-004  0.6529109E+03  0.7818608E-02  0.9801332E-01
         13   -1    0    0    0    0  0.00000000000E+00  0.00000000000E+00  0.10000000000E+04  0.10000000000E+04  0.00000000000E+00 0. -1.
          2   -1    0    0  501    0 -0.00000000000E+00 -0.00000000000E+00 -0.10657314639E+03  0.10657314639E+03  0.00000000000E+00 0. -1.
    9000006    2    1    2  501    0  0.00000000000E+00  0.00000000000E+00  0.89342685361E+03  0.11065731464E+04  0.65291085574E+03 0.  0.
         13    1    3    3    0    0 -0.16061130474E+03 -0.28120303699E+03  0.51663431384E+03  0.60973941439E+03  0.00000000000E+00 0. -1.
          4    1    3    3  501    0  0.16061130474E+03  0.28120303699E+03  0.37679253977E+03  0.49683373199E+03  0.00000000000E+00 0. -1.
<mgrwt>
<rscale>  0 0.65291086E+03</rscale>
<asrwt>0</asrwt>
<pdfrwt beam="1">0</pdfrwt>
<pdfrwt beam="2">  1        2 0.38753953E+00 0.65291086E+03</pdfrwt>
<totfact> 0.44318841E+00</totfact>
</mgrwt>
</event>
<event>
 5    1  0.2369161E-004  0.6512627E+03  0.7818608E-02  0.9804413E-01
         13   -1    0    0    0    0  0.00000000000E+00  0.00000000000E+00  0.10000000000E+04  0.10000000000E+04  0.00000000000E+00 0. -1.
          2   -1    0    0  501    0 -0.00000000000E+00 -0.00000000000E+00 -0.10603576324E+03  0.10603576324E+03  0.00000000000E+00 0. -1.
    9000006    2    1    2  501    0  0.00000000000E+00  0.00000000000E+00  0.89396423676E+03  0.11060357632E+04  0.65126266049E+03 0.  0.
         13    1    3    3    0    0  0.15008096484E+03  0.22569410901E+03  0.14047108452E+03  0.30527733692E+03  0.00000000000E+00 0. -1.
          2    1    3    3  501    0 -0.15008096484E+03 -0.22569410901E+03  0.75349315224E+03  0.80075842632E+03  0.00000000000E+00 0. -1.
<mgrwt>
<rscale>  0 0.65126266E+03</rscale>
<asrwt>0</asrwt>
<pdfrwt beam="1">0</pdfrwt>
<pdfrwt beam="2">  1        2 0.38558541E+00 0.65126266E+03</pdfrwt>
<totfact> 0.45070473E+00</totfact>
</mgrwt>
</event>
<event>
 5    1  0.2369161E-004  0.6516915E+03  0.7818608E-02  0.9803610E-01
         13   -1    0    0    0    0  0.00000000000E+00  0.00000000000E+00  0.10000000000E+04  0.10000000000E+04  0.00000000000E+00 0. -1.
          2   -1    0    0  501    0 -0.00000000000E+00 -0.00000000000E+00 -0.10617544555E+03  0.10617544555E+03  0.00000000000E+00 0. -1.
    9000006    2    1    2  501    0  0.00000000000E+00  0.00000000000E+00  0.89382455445E+03  0.11061754456E+04  0.65169147778E+03 0.  0.
         13    1    3    3    0    0 -0.18938858401E+03 -0.93892739117E+02  0.86782275757E+03  0.89319663052E+03  0.00000000000E+00 0. -1.
          2    1    3    3  501    0  0.18938858401E+03  0.93892739117E+02  0.26001796876E+02  0.21297881504E+03  0.00000000000E+00 0. -1.
<mgrwt>
<rscale>  0 0.65169148E+03</rscale>
<asrwt>0</asrwt>
<pdfrwt beam="1">0</pdfrwt>
<pdfrwt beam="2">  1        2 0.38609334E+00 0.65169148E+03</pdfrwt>
<totfact> 0.44873998E+00</totfact>
</mgrwt>
</event>
<event>
 5    1  0.2369161E-004  0.6411257E+03  0.7818608E-02  0.9823575E-01
         13   -1    0    0    0    0  0.00000000000E+00  0.00000000000E+00  0.10000000000E+04  0.10000000000E+04  0.00000000000E+00 0. -1.
          2   -1    0    0  501    0 -0.00000000000E+00 -0.00000000000E+00 -0.10276053357E+03  0.10276053357E+03  0.00000000000E+00 0. -1.
    9000006    2    1    2  501    0  0.00000000000E+00  0.00000000000E+00  0.89723946643E+03  0.11027605336E+04  0.64112567743E+03 0.  0.
         13    1    3    3    0    0  0.93719907518E+01 -0.70811493284E+02  0.98613761529E+03  0.98872114273E+03  0.00000000000E+00 0. -1.
          2    1    3    3  501    0 -0.93719907518E+01  0.70811493284E+02 -0.88898148856E+02  0.11403939083E+03  0.00000000000E+00 0. -1.
<mgrwt>
<rscale>  0 0.64112568E+03</rscale>
<asrwt>0</asrwt>
<pdfrwt beam="1">0</pdfrwt>
<pdfrwt beam="2">  1        2 0.37367546E+00 0.64112568E+03</pdfrwt>
<totfact> 0.49907524E+00</totfact>
</mgrwt>
</event>
<event>
 5    1  0.2369161E-004  0.6503223E+03  0.7818608E-02  0.9806175E-01
         13   -1    0    0    0    0  0.00000000000E+00  0.00000000000E+00  0.10000000000E+04  0.10000000000E+04  0.00000000000E+00 0. -1.
          4   -1    0    0  501    0 -0.00000000000E+00 -0.00000000000E+00 -0.10572976260E+03  0.10572976260E+03  0.00000000000E+00 0. -1.
    9000006    2    1    2  501    0  0.00000000000E+00  0.00000000000E+00  0.89427023740E+03  0.11057297626E+04  0.65032226657E+03 0.  0.
         13    1    3    3    0    0 -0.31496887392E+03  0.70749784513E+02  0.51339890570E+03  0.60645639574E+03  0.00000000000E+00 0. -1.
          2    1    3    3  501    0  0.31496887392E+03 -0.70749784513E+02  0.38087133170E+03  0.49927336686E+03  0.00000000000E+00 0. -1.
<mgrwt>
<rscale>  0 0.65032227E+03</rscale>
<asrwt>0</asrwt>
<pdfrwt beam="1">0</pdfrwt>
<pdfrwt beam="2">  1        4 0.38447267E+00 0.65032227E+03</pdfrwt>
<totfact> 0.40929687E-02</totfact>
</mgrwt>
</event>
<event>
 5    1  0.2369161E-004  0.6153120E+03  0.7818608E-02  0.9874138E-01
         13   -1    0    0    0    0  0.00000000000E+00  0.00000000000E+00  0.10000000000E+04  0.10000000000E+04  0.00000000000E+00 0. -1.
          2   -1    0    0  501    0 -0.00000000000E+00 -0.00000000000E+00 -0.94652205026E+02  0.94652205026E+02  0.00000000000E+00 0. -1.
    9000006    2    1    2  501    0  0.00000000000E+00  0.00000000000E+00  0.90534779497E+03  0.10946522050E+04  0.61531196974E+03 0.  0.
         13    1    3    3    0    0  0.12839999154E+03  0.93230749628E+02  0.92158544459E+03  0.93514611809E+03  0.00000000000E+00 0. -1.
          4    1    3    3  501    0 -0.12839999154E+03 -0.93230749628E+02 -0.16237649615E+02  0.15950608693E+03  0.00000000000E+00 0. -1.
<mgrwt>
<rscale>  0 0.61531197E+03</rscale>
<asrwt>0</asrwt>
<pdfrwt beam="1">0</pdfrwt>
<pdfrwt beam="2">  1        2 0.34419056E+00 0.61531197E+03</pdfrwt>
<totfact> 0.64006646E+00</totfact>
</mgrwt>
</event>
<event>
 5    1  0.2369161E-004  0.6565398E+03  0.7818608E-02  0.9794584E-01
         13   -1    0    0    0    0  0.00000000000E+00  0.00000000000E+00  0.10000000000E+04  0.10000000000E+04  0.00000000000E+00 0. -1.
          2   -1    0    0  501    0 -0.00000000000E+00 -0.00000000000E+00 -0.10776113939E+03  0.10776113939E+03  0.00000000000E+00 0. -1.
    9000006    2    1    2  501    0  0.00000000000E+00  0.00000000000E+00  0.89223886061E+03  0.11077611394E+04  0.65653983699E+03 0.  0.
         13    1    3    3    0    0  0.89013818813E+02  0.41630652287E+02  0.97460077122E+03  0.97954235968E+03  0.00000000000E+00 0. -1.
          2    1    3    3  501    0 -0.89013818813E+02 -0.41630652287E+02 -0.82361910610E+02  0.12821877970E+03  0.00000000000E+00 0. -1.
<mgrwt>
<rscale>  0 0.65653984E+03</rscale>
<asrwt>0</asrwt>
<pdfrwt beam="1">0</pdfrwt>
<pdfrwt beam="2">  1        2 0.39185952E+00 0.65653984E+03</pdfrwt>
<totfact> 0.42697300E+00</totfact>
</mgrwt>
</event>
<event>
 5    1  0.2369161E-004  0.6550346E+03  0.7818608E-02  0.9797378E-01
         13   -1    0    0    0    0  0.00000000000E+00  0.00000000000E+00  0.10000000000E+04  0.10000000000E+04  0.00000000000E+00 0. -1.
          2   -1    0    0  501    0 -0.00000000000E+00 -0.00000000000E+00 -0.10726759125E+03  0.10726759125E+03  0.00000000000E+00 0. -1.
    9000006    2    1    2  501    0  0.00000000000E+00  0.00000000000E+00  0.89273240875E+03  0.11072675913E+04  0.65503462887E+03 0.  0.
         13    1    3    3    0    0 -0.23086781229E+03  0.11843560815E+03  0.78419440472E+03  0.82600714550E+03  0.00000000000E+00 0. -1.
          2    1    3    3  501    0  0.23086781229E+03 -0.11843560815E+03  0.10853800403E+03  0.28126044575E+03  0.00000000000E+00 0. -1.
<mgrwt>
<rscale>  0 0.65503463E+03</rscale>
<asrwt>0</asrwt>
<pdfrwt beam="1">0</pdfrwt>
<pdfrwt beam="2">  1        2 0.39006479E+00 0.65503463E+03</pdfrwt>
<totfact> 0.43364337E+00</totfact>
</mgrwt>
</event>
<event>
 5    1  0.2369161E-004  0.6384256E+03  0.7818608E-02  0.9828743E-01
         13   -1    0    0    0    0  0.00000000000E+00  0.00000000000E+00  0.10000000000E+04  0.10000000000E+04  0.00000000000E+00 0. -1.
          2   -1    0    0  501    0 -0.00000000000E+00 -0.00000000000E+00 -0.10189681807E+03  0.10189681807E+03  0.00000000000E+00 0. -1.
    9000006    2    1    2  501    0  0.00000000000E+00  0.00000000000E+00  0.89810318193E+03  0.11018968181E+04  0.63842562001E+03 0.  0.
         13    1    3    3    0    0  0.94920323226E+02  0.26725017345E+03  0.70191671682E+03  0.75704663022E+03  0.00000000000E+00 0. -1.
          2    1    3    3  501    0 -0.94920323226E+02 -0.26725017345E+03  0.19618646510E+03  0.34485018785E+03  0.00000000000E+00 0. -1.
<mgrwt>
<rscale>  0 0.63842562E+03</rscale>
<asrwt>0</asrwt>
<pdfrwt beam="1">0</pdfrwt>
<pdfrwt beam="2">  1        2 0.37053467E+00 0.63842562E+03</pdfrwt>
<totfact> 0.51259788E+00</totfact>
</mgrwt>
</event>
<event>
 5    1  0.2369161E-004  0.6536574E+03  0.7818608E-02  0.9799941E-01
         13   -1    0    0    0    0  0.00000000000E+00  0.00000000000E+00  0.10000000000E+04  0.10000000000E+04  0.00000000000E+00 0. -1.
          2   -1    0    0  501    0 -0.00000000000E+00 -0.00000000000E+00 -0.10681698297E+03  0.10681698297E+03  0.00000000000E+00 0. -1.
    9000006    2    1    2  501    0  0.00000000000E+00  0.00000000000E+00  0.89318301703E+03  0.11068169830E+04  0.65365735051E+03 0.  0.
         13    1    3    3    0    0  0.23373660912E+03  0.86452456038E+02  0.88553819844E+02  0.26447799267E+03  0.00000000000E+00 0. -1.
          4    1    3    3  501    0 -0.23373660912E+03 -0.86452456038E+02  0.80462919719E+03  0.84233899029E+03  0.00000000000E+00 0. -1.
<mgrwt>
<rscale>  0 0.65365735E+03</rscale>
<asrwt>0</asrwt>
<pdfrwt beam="1">0</pdfrwt>
<pdfrwt beam="2">  1        2 0.38842621E+00 0.65365735E+03</pdfrwt>
<totfact> 0.43981548E+00</totfact>
</mgrwt>
</event>
<event>
 5    1  0.2369161E-004  0.6180376E+03  0.7818608E-02  0.9868675E-01
         13   -1    0    0    0    0  0.00000000000E+00  0.00000000000E+00  0.10000000000E+04  0.10000000000E+04  0.00000000000E+00 0. -1.
          2   -1    0    0  501    0 -0.00000000000E+00 -0.00000000000E+00 -0.95492605248E+02  0.95492605248E+02  0.00000000000E+00 0. -1.
    9000006    2    1    2  501    0  0.00000000000E+00  0.00000000000E+00  0.90450739475E+03  0.10954926052E+04  0.61803755630E+03 0.  0.
         13    1    3    3    0    0  0.23695806893E+03  0.91281278136E+02  0.76439692675E+03  0.80547132773E+03  0.00000000000E+00 0. -1.
          2    1    3    3  501    0 -0.23695806893E+03 -0.91281278136E+02  0.14011046800E+03  0.29002127752E+03  0.00000000000E+00 0. -1.
<mgrwt>
<rscale>  0 0.61803756E+03</rscale>
<asrwt>0</asrwt>
<pdfrwt beam="1">0</pdfrwt>
<pdfrwt beam="2">  1        2 0.34724657E+00 0.61803756E+03</pdfrwt>
<totfact> 0.62389947E+00</totfact>
</mgrwt>
</event>
<event>
 5    1  0.2369161E-004  0.6456316E+03  0.7818608E-02  0.9815011E-01
         13   -1    0    0    0    0  0.00000000000E+00  0.00000000000E+00  0.10000000000E+04  0.10000000000E+04  0.00000000000E+00 0. -1.
          2   -1    0    0  501    0 -0.00000000000E+00 -0.00000000000E+00 -0.10421003073E+03  0.10421003073E+03  0.00000000000E+00 0. -1.
    9000006    2    1    2  501    0  0.00000000000E+00  0.00000000000E+00  0.89578996927E+03  0.11042100307E+04  0.64563156901E+03 0.  0.
         13    1    3    3    0    0 -0.19452932266E+03  0.24970382487E+03  0.55628367292E+03  0.64003529769E+03  0.00000000000E+00 0. -1.
          4    1    3    3  501    0  0.19452932266E+03 -0.24970382487E+03  0.33950629635E+03  0.46417473304E+03  0.00000000000E+00 0. -1.
<mgrwt>
<rscale>  0 0.64563157E+03</rscale>
<asrwt>0</asrwt>
<pdfrwt beam="1">0</pdfrwt>
<pdfrwt beam="2">  1        2 0.37894637E+00 0.64563157E+03</pdfrwt>
<totfact> 0.47711327E+00</totfact>
</mgrwt>
</event>
<event>
 5    1  0.2369161E-004  0.6512064E+03  0.7818608E-02  0.9804518E-01
         13   -1    0    0    0    0  0.00000000000E+00  0.00000000000E+00  0.10000000000E+04  0.10000000000E+04  0.00000000000E+00 0. -1.
          2   -1    0    0  501    0 -0.00000000000E+00 -0.00000000000E+00 -0.10601744542E+03  0.10601744542E+03  0.00000000000E+00 0. -1.
    9000006    2    1    2  501    0  0.00000000000E+00  0.00000000000E+00  0.89398255458E+03  0.11060174454E+04  0.65120640482E+03 0.  0.
         13    1    3    3    0    0  0.86051067762E+02 -0.17374336622E+03  0.89126801985E+03  0.91211305592E+03  0.00000000000E+00 0. -1.
          2    1    3    3  501    0 -0.86051067762E+02  0.17374336622E+03  0.27145347321E+01  0.19390438950E+03  0.00000000000E+00 0. -1.
<mgrwt>
<rscale>  0 0.65120640E+03</rscale>
<asrwt>0</asrwt>
<pdfrwt beam="1">0</pdfrwt>
<pdfrwt beam="2">  1        2 0.38551880E+00 0.65120640E+03</pdfrwt>
<totfact> 0.45096296E+00</totfact>
</mgrwt>
</event>
<event>
 5    1  0.2369161E-004  0.6466462E+03  0.7818608E-02  0.9813093E-01
         13   -1    0    0    0    0  0.00000000000E+00  0.00000000000E+00  0.10000000000E+04  0.10000000000E+04  0.00000000000E+00 0. -1.
          2   -1    0    0  501    0 -0.00000000000E+00 -0.00000000000E+00 -0.10453783189E+03  0.10453783189E+03  0.00000000000E+00 0. -1.
    9000006    2    1    2  501    0  0.00000000000E+00  0.00000000000E+00  0.89546216811E+03  0.11045378319E+04  0.64664621516E+03 0.  0.
         13    1    3    3    0    0 -0.26844304208E+03  0.10573793691E+03  0.69699496016E+03  0.75435015254E+03  0.00000000000E+00 0. -1.
          4    1    3    3  501    0  0.26844304208E+03 -0.10573793691E+03  0.19846720795E+03  0.35018767936E+03  0.00000000000E+00 0. -1.
<mgrwt>
<rscale>  0 0.64664622E+03</rscale>
<asrwt>0</asrwt>
<pdfrwt beam="1">0</pdfrwt>
<pdfrwt beam="2">  1        2 0.38013837E+00 0.64664622E+03</pdfrwt>
<totfact> 0.47227057E+00</totfact>
</mgrwt>
</event>
<event>
 5    1  0.2369161E-004  0.6431960E+03  0.7818608E-02  0.9819631E-01
         13   -1    0    0    0    0  0.00000000000E+00  0.00000000000E+00  0.10000000000E+04  0.10000000000E+04  0.00000000000E+00 0. -1.
          2   -1    0    0  501    0 -0.00000000000E+00 -0.00000000000E+00 -0.10342526272E+03  0.10342526272E+03  0.00000000000E+00 0. -1.
    9000006    2    1    2  501    0  0.00000000000E+00  0.00000000000E+00  0.89657473728E+03  0.11034252627E+04  0.64319596617E+03 0.  0.
         13    1    3    3    0    0 -0.12623595379E+02  0.31989510953E+03  0.39588552205E+03  0.50913415013E+03  0.00000000000E+00 0. -1.
          4    1    3    3  501    0  0.12623595379E+02 -0.31989510953E+03  0.50068921523E+03  0.59429111259E+03  0.00000000000E+00 0. -1.
<mgrwt>
<rscale>  0 0.64319597E+03</rscale>
<asrwt>0</asrwt>
<pdfrwt beam="1">0</pdfrwt>
<pdfrwt beam="2">  1        2 0.37609266E+00 0.64319597E+03</pdfrwt>
<totfact> 0.48889123E+00</totfact>
</mgrwt>
</event>
<event>
 5    1  0.2369161E-004  0.6637482E+03  0.7818608E-02  0.9781318E-01
         13   -1    0    0    0    0  0.00000000000E+00  0.00000000000E+00  0.10000000000E+04  0.10000000000E+04  0.00000000000E+00 0. -1.
          2   -1    0    0  501    0 -0.00000000000E+00 -0.00000000000E+00 -0.11014043218E+03  0.11014043218E+03  0.00000000000E+00 0. -1.
    9000006    2    1    2  501    0  0.00000000000E+00  0.00000000000E+00  0.88985956782E+03  0.11101404322E+04  0.66374824199E+03 0.  0.
         13    1    3    3    0    0  0.26335156035E+03  0.15910538381E+03  0.65296931478E+03  0.72182926896E+03  0.00000000000E+00 0. -1.
          2    1    3    3  501    0 -0.26335156035E+03 -0.15910538381E+03  0.23689025304E+03  0.38831116322E+03  0.00000000000E+00 0. -1.
<mgrwt>
<rscale>  0 0.66374824E+03</rscale>
<asrwt>0</asrwt>
<pdfrwt beam="1">0</pdfrwt>
<pdfrwt beam="2">  1        2 0.40051151E+00 0.66374824E+03</pdfrwt>
<totfact> 0.39609782E+00</totfact>
</mgrwt>
</event>
<event>
 5    1  0.2369161E-004  0.6569845E+03  0.7818608E-02  0.9793761E-01
         13   -1    0    0    0    0  0.00000000000E+00  0.00000000000E+00  0.10000000000E+04  0.10000000000E+04  0.00000000000E+00 0. -1.
          2   -1    0    0  501    0 -0.00000000000E+00 -0.00000000000E+00 -0.10790716693E+03  0.10790716693E+03  0.00000000000E+00 0. -1.
    9000006    2    1    2  501    0  0.00000000000E+00  0.00000000000E+00  0.89209283307E+03  0.11079071669E+04  0.65698452623E+03 0.  0.
         13    1    3    3    0    0 -0.11167249083E+03  0.30891469890E+03  0.45085489253E+03  0.55782539429E+03  0.00000000000E+00 0. -1.
          4    1    3    3  501    0  0.11167249083E+03 -0.30891469890E+03  0.44123794055E+03  0.55008177263E+03  0.00000000000E+00 0. -1.
<mgrwt>
<rscale>  0 0.65698453E+03</rscale>
<asrwt>0</asrwt>
<pdfrwt beam="1">0</pdfrwt>
<pdfrwt beam="2">  1        2 0.39239053E+00 0.65698453E+03</pdfrwt>
<totfact> 0.42501726E+00</totfact>
</mgrwt>
</event>
<event>
 5    1  0.2369161E-004  0.6691893E+03  0.7818608E-02  0.9771423E-01
         13   -1    0    0    0    0  0.00000000000E+00  0.00000000000E+00  0.10000000000E+04  0.10000000000E+04  0.00000000000E+00 0. -1.
          2   -1    0    0  501    0 -0.00000000000E+00 -0.00000000000E+00 -0.11195359039E+03  0.11195359039E+03  0.00000000000E+00 0. -1.
    9000006    2    1    2  501    0  0.00000000000E+00  0.00000000000E+00  0.88804640961E+03  0.11119535904E+04  0.66918933163E+03 0.  0.
         13    1    3    3    0    0 -0.30243983602E+03 -0.18173006921E+01  0.20622573786E+03  0.36606312563E+03  0.00000000000E+00 0. -1.
          2    1    3    3  501    0  0.30243983602E+03  0.18173006921E+01  0.68182067175E+03  0.74589046476E+03  0.00000000000E+00 0. -1.
<mgrwt>
<rscale>  0 0.66918933E+03</rscale>
<asrwt>0</asrwt>
<pdfrwt beam="1">0</pdfrwt>
<pdfrwt beam="2">  1        2 0.40710482E+00 0.66918933E+03</pdfrwt>
<totfact> 0.37393218E+00</totfact>
</mgrwt>
</event>
<event>
 5    1  0.2369161E-004  0.6526885E+03  0.7818608E-02  0.9801747E-01
         13   -1    0    0    0    0  0.00000000000E+00  0.00000000000E+00  0.10000000000E+04  0.10000000000E+04  0.00000000000E+00 0. -1.
          2   -1    0    0  501    0 -0.00000000000E+00 -0.00000000000E+00 -0.10650056799E+03  0.10650056799E+03  0.00000000000E+00 0. -1.
    9000006    2    1    2  501    0  0.00000000000E+00  0.00000000000E+00  0.89349943201E+03  0.11065005680E+04  0.65268849535E+03 0.  0.
         13    1    3    3    0    0  0.10447822247E+03 -0.25404426604E+03  0.74546068273E+03  0.79445944992E+03  0.00000000000E+00 0. -1.
          2    1    3    3  501    0 -0.10447822247E+03  0.25404426604E+03  0.14803874928E+03  0.31204111807E+03  0.00000000000E+00 0. -1.
<mgrwt>
<rscale>  0 0.65268850E+03</rscale>
<asrwt>0</asrwt>
<pdfrwt beam="1">0</pdfrwt>
<pdfrwt beam="2">  1        2 0.38727561E+00 0.65268850E+03</pdfrwt>
<totfact> 0.44419688E+00</totfact>
</mgrwt>
</event>
<event>
 5    1  0.2369161E-004  0.6389097E+03  0.7818608E-02  0.9827815E-01
         13   -1    0    0    0    0  0.00000000000E+00  0.00000000000E+00  0.10000000000E+04  0.10000000000E+04  0.00000000000E+00 0. -1.
          2   -1    0    0  501    0 -0.00000000000E+00 -0.00000000000E+00 -0.10205141616E+03  0.10205141616E+03  0.00000000000E+00 0. -1.
    9000006    2    1    2  501    0  0.00000000000E+00  0.00000000000E+00  0.89794858384E+03  0.11020514162E+04  0.63890974687E+03 0.  0.
         13    1    3    3    0    0  0.19210744679E+03  0.14597941122E+03  0.81011677356E+03  0.84528364850E+03  0.00000000000E+00 0. -1.
          2    1    3    3  501    0 -0.19210744679E+03 -0.14597941122E+03  0.87831810276E+02  0.25676776766E+03  0.00000000000E+00 0. -1.
<mgrwt>
<rscale>  0 0.63890975E+03</rscale>
<asrwt>0</asrwt>
<pdfrwt beam="1">0</pdfrwt>
<pdfrwt beam="2">  1        2 0.37109684E+00 0.63890975E+03</pdfrwt>
<totfact> 0.51015306E+00</totfact>
</mgrwt>
</event>
<event>
 5    1  0.2369161E-004  0.6525299E+03  0.7818608E-02  0.9802044E-01
         13   -1    0    0    0    0  0.00000000000E+00  0.00000000000E+00  0.10000000000E+04  0.10000000000E+04  0.00000000000E+00 0. -1.
          2   -1    0    0  501    0 -0.00000000000E+00 -0.00000000000E+00 -0.10644882012E+03  0.10644882012E+03  0.00000000000E+00 0. -1.
    9000006    2    1    2  501    0  0.00000000000E+00  0.00000000000E+00  0.89355117988E+03  0.11064488201E+04  0.65252990773E+03 0.  0.
         13    1    3    3    0    0  0.46519149125E+02 -0.29746362808E+03  0.65991409231E+03  0.72535181154E+03  0.00000000000E+00 0. -1.
          4    1    3    3  501    0 -0.46519149125E+02  0.29746362808E+03  0.23363708757E+03  0.38109700858E+03  0.00000000000E+00 0. -1.
<mgrwt>
<rscale>  0 0.65252991E+03</rscale>
<asrwt>0</asrwt>
<pdfrwt beam="1">0</pdfrwt>
<pdfrwt beam="2">  1        2 0.38708743E+00 0.65252991E+03</pdfrwt>
<totfact> 0.44491718E+00</totfact>
</mgrwt>
</event>
<event>
 5    1  0.2369161E-004  0.6588959E+03  0.7818608E-02  0.9790228E-01
         13   -1    0    0    0    0  0.00000000000E+00  0.00000000000E+00  0.10000000000E+04  0.10000000000E+04  0.00000000000E+00 0. -1.
          2   -1    0    0  501    0 -0.00000000000E+00 -0.00000000000E+00 -0.10853593535E+03  0.10853593535E+03  0.00000000000E+00 0. -1.
    9000006    2    1    2  501    0  0.00000000000E+00  0.00000000000E+00  0.89146406465E+03  0.11085359354E+04  0.65889585019E+03 0.  0.
         13    1    3    3    0    0 -0.48876202856E+02 -0.19062867083E+03  0.12186283202E+01  0.19679852236E+03  0.00000000000E+00 0. -1.
          4    1    3    3  501    0  0.48876202856E+02  0.19062867083E+03  0.89024543633E+03  0.91173741299E+03  0.00000000000E+00 0. -1.
<mgrwt>
<rscale>  0 0.65889585E+03</rscale>
<asrwt>0</asrwt>
<pdfrwt beam="1">0</pdfrwt>
<pdfrwt beam="2">  1        2 0.39467696E+00 0.65889585E+03</pdfrwt>
<totfact> 0.41668842E+00</totfact>
</mgrwt>
</event>
<event>
 5    1  0.2369161E-004  0.6601322E+03  0.7818608E-02  0.9787950E-01
         13   -1    0    0    0    0  0.00000000000E+00  0.00000000000E+00  0.10000000000E+04  0.10000000000E+04  0.00000000000E+00 0. -1.
          4   -1    0    0  501    0 -0.00000000000E+00 -0.00000000000E+00 -0.10894364420E+03  0.10894364420E+03  0.00000000000E+00 0. -1.
    9000006    2    1    2  501    0  0.00000000000E+00  0.00000000000E+00  0.89105635580E+03  0.11089436442E+04  0.66013224191E+03 0.  0.
         13    1    3    3    0    0 -0.12871567095E+03  0.25595967564E+03  0.72084712539E+03  0.77569559602E+03  0.00000000000E+00 0. -1.
          2    1    3    3  501    0  0.12871567095E+03 -0.25595967564E+03  0.17020923041E+03  0.33324804818E+03  0.00000000000E+00 0. -1.
<mgrwt>
<rscale>  0 0.66013224E+03</rscale>
<asrwt>0</asrwt>
<pdfrwt beam="1">0</pdfrwt>
<pdfrwt beam="2">  1        4 0.39615954E+00 0.66013224E+03</pdfrwt>
<totfact> 0.34063379E-02</totfact>
</mgrwt>
</event>
<event>
 5    1  0.2369161E-004  0.6512613E+03  0.7818608E-02  0.9804415E-01
         13   -1    0    0    0    0  0.00000000000E+00  0.00000000000E+00  0.10000000000E+04  0.10000000000E+04  0.00000000000E+00 0. -1.
          2   -1    0    0  501    0 -0.00000000000E+00 -0.00000000000E+00 -0.10603532122E+03  0.10603532122E+03  0.00000000000E+00 0. -1.
    9000006    2    1    2  501    0  0.00000000000E+00  0.00000000000E+00  0.89396467878E+03  0.11060353212E+04  0.65126130308E+03 0.  0.
         13    1    3    3    0    0  0.26389268612E+03  0.57632435528E+02  0.13812338679E+03  0.30337916440E+03  0.00000000000E+00 0. -1.
          4    1    3    3  501    0 -0.26389268612E+03 -0.57632435528E+02  0.75584129199E+03  0.80265615682E+03  0.00000000000E+00 0. -1.
<mgrwt>
<rscale>  0 0.65126130E+03</rscale>
<asrwt>0</asrwt>
<pdfrwt beam="1">0</pdfrwt>
<pdfrwt beam="2">  1        2 0.38558380E+00 0.65126130E+03</pdfrwt>
<totfact> 0.45071096E+00</totfact>
</mgrwt>
</event>
<event>
 5    1  0.2369161E-004  0.6359449E+03  0.7818608E-02  0.9833516E-01
         13   -1    0    0    0    0  0.00000000000E+00  0.00000000000E+00  0.10000000000E+04  0.10000000000E+04  0.00000000000E+00 0. -1.
          2   -1    0    0  501    0 -0.00000000000E+00 -0.00000000000E+00 -0.10110648723E+03  0.10110648723E+03  0.00000000000E+00 0. -1.
    9000006    2    1    2  501    0  0.00000000000E+00  0.00000000000E+00  0.89889351277E+03  0.11011064872E+04  0.63594492602E+03 0.  0.
         13    1    3    3    0    0  0.15476077755E+03  0.19289927299E+03  0.79550047870E+03  0.83305584410E+03  0.00000000000E+00 0. -1.
          2    1    3    3  501    0 -0.15476077755E+03 -0.19289927299E+03  0.10339303407E+03  0.26805064313E+03  0.00000000000E+00 0. -1.
<mgrwt>
<rscale>  0 0.63594493E+03</rscale>
<asrwt>0</asrwt>
<pdfrwt beam="1">0</pdfrwt>
<pdfrwt beam="2">  1        2 0.36766073E+00 0.63594493E+03</pdfrwt>
<totfact> 0.52526485E+00</totfact>
</mgrwt>
</event>
<event>
 5    1  0.2369161E-004  0.7006571E+03  0.7818608E-02  0.9716109E-01
         13   -1    0    0    0    0  0.00000000000E+00  0.00000000000E+00  0.10000000000E+04  0.10000000000E+04  0.00000000000E+00 0. -1.
          2   -1    0    0  501    0 -0.00000000000E+00 -0.00000000000E+00 -0.12273010736E+03  0.12273010736E+03  0.00000000000E+00 0. -1.
    9000006    2    1    2  501    0  0.00000000000E+00  0.00000000000E+00  0.87726989264E+03  0.11227301074E+04  0.70065714116E+03 0.  0.
         13    1    3    3    0    0  0.19005557230E+02 -0.41833373031E+02 -0.11788077193E+03  0.12651924239E+03  0.00000000000E+00 0. -1.
          2    1    3    3  501    0 -0.19005557230E+02  0.41833373031E+02  0.99515066456E+03  0.99621086497E+03  0.00000000000E+00 0. -1.
<mgrwt>
<rscale>  0 0.70065714E+03</rscale>
<asrwt>0</asrwt>
<pdfrwt beam="1">0</pdfrwt>
<pdfrwt beam="2">  1        2 0.44629224E+00 0.70065714E+03</pdfrwt>
<totfact> 0.26348181E+00</totfact>
</mgrwt>
</event>
<event>
 5    1  0.2369161E-004  0.6652948E+03  0.7818608E-02  0.9778495E-01
         13   -1    0    0    0    0  0.00000000000E+00  0.00000000000E+00  0.10000000000E+04  0.10000000000E+04  0.00000000000E+00 0. -1.
          2   -1    0    0  501    0 -0.00000000000E+00 -0.00000000000E+00 -0.11065429511E+03  0.11065429511E+03  0.00000000000E+00 0. -1.
    9000006    2    1    2  501    0  0.00000000000E+00  0.00000000000E+00  0.88934570489E+03  0.11106542951E+04  0.66529480716E+03 0.  0.
         13    1    3    3    0    0  0.23955290136E+03  0.18954969357E+03  0.22484409387E+03  0.37930139129E+03  0.00000000000E+00 0. -1.
          2    1    3    3  501    0 -0.23955290136E+03 -0.18954969357E+03  0.66450161102E+03  0.73135290382E+03  0.00000000000E+00 0. -1.
<mgrwt>
<rscale>  0 0.66529481E+03</rscale>
<asrwt>0</asrwt>
<pdfrwt beam="1">0</pdfrwt>
<pdfrwt beam="2">  1        2 0.40238010E+00 0.66529481E+03</pdfrwt>
<totfact> 0.38969940E+00</totfact>
</mgrwt>
</event>
<event>
 5    1  0.2369161E-004  0.6551462E+03  0.7818608E-02  0.9797170E-01
         13   -1    0    0    0    0  0.00000000000E+00  0.00000000000E+00  0.10000000000E+04  0.10000000000E+04  0.00000000000E+00 0. -1.
          2   -1    0    0  501    0 -0.00000000000E+00 -0.00000000000E+00 -0.10730413343E+03  0.10730413343E+03  0.00000000000E+00 0. -1.
    9000006    2    1    2  501    0  0.00000000000E+00  0.00000000000E+00  0.89269586657E+03  0.11073041334E+04  0.65514619264E+03 0.  0.
         13    1    3    3    0    0  0.27768136087E+03  0.85411690926E+01  0.15299747187E+03  0.31715629608E+03  0.00000000000E+00 0. -1.
          2    1    3    3  501    0 -0.27768136087E+03 -0.85411690926E+01  0.73969839470E+03  0.79014783735E+03  0.00000000000E+00 0. -1.
<mgrwt>
<rscale>  0 0.65514619E+03</rscale>
<asrwt>0</asrwt>
<pdfrwt beam="1">0</pdfrwt>
<pdfrwt beam="2">  1        2 0.39019767E+00 0.65514619E+03</pdfrwt>
<totfact> 0.43314629E+00</totfact>
</mgrwt>
</event>
<event>
 5    1  0.2369161E-004  0.6602496E+03  0.7818608E-02  0.9787734E-01
         13   -1    0    0    0    0  0.00000000000E+00  0.00000000000E+00  0.10000000000E+04  0.10000000000E+04  0.00000000000E+00 0. -1.
          2   -1    0    0  501    0 -0.00000000000E+00 -0.00000000000E+00 -0.10898238919E+03  0.10898238919E+03  0.00000000000E+00 0. -1.
    9000006    2    1    2  501    0  0.00000000000E+00  0.00000000000E+00  0.89101761081E+03  0.11089823892E+04  0.66024961700E+03 0.  0.
         13    1    3    3    0    0  0.42869491107E+02 -0.17559010296E+03  0.90950555103E+03  0.92729176901E+03  0.00000000000E+00 0. -1.
          4    1    3    3  501    0 -0.42869491107E+02  0.17559010296E+03 -0.18487940213E+02  0.18169062018E+03  0.00000000000E+00 0. -1.
<mgrwt>
<rscale>  0 0.66024962E+03</rscale>
<asrwt>0</asrwt>
<pdfrwt beam="1">0</pdfrwt>
<pdfrwt beam="2">  1        2 0.39630043E+00 0.66024962E+03</pdfrwt>
<totfact> 0.41086451E+00</totfact>
</mgrwt>
</event>
<event>
 5    1  0.2369161E-004  0.6542979E+03  0.7818608E-02  0.9798748E-01
         13   -1    0    0    0    0  0.00000000000E+00  0.00000000000E+00  0.10000000000E+04  0.10000000000E+04  0.00000000000E+00 0. -1.
          2   -1    0    0  501    0 -0.00000000000E+00 -0.00000000000E+00 -0.10702643647E+03  0.10702643647E+03  0.00000000000E+00 0. -1.
    9000006    2    1    2  501    0  0.00000000000E+00  0.00000000000E+00  0.89297356353E+03  0.11070264365E+04  0.65429790301E+03 0.  0.
         13    1    3    3    0    0  0.72924591056E+02  0.19474837420E+03  0.87378380411E+03  0.89818876722E+03  0.00000000000E+00 0. -1.
          4    1    3    3  501    0 -0.72924591056E+02 -0.19474837420E+03  0.19189759421E+02  0.20883766925E+03  0.00000000000E+00 0. -1.
<mgrwt>
<rscale>  0 0.65429790E+03</rscale>
<asrwt>0</asrwt>
<pdfrwt beam="1">0</pdfrwt>
<pdfrwt beam="2">  1        2 0.38918786E+00 0.65429790E+03</pdfrwt>
<totfact> 0.43693672E+00</totfact>
</mgrwt>
</event>
<event>
 5    1  0.2369161E-004  0.6445670E+03  0.7818608E-02  0.9817027E-01
         13   -1    0    0    0    0  0.00000000000E+00  0.00000000000E+00  0.10000000000E+04  0.10000000000E+04  0.00000000000E+00 0. -1.
          2   -1    0    0  501    0 -0.00000000000E+00 -0.00000000000E+00 -0.10386666581E+03  0.10386666581E+03  0.00000000000E+00 0. -1.
    9000006    2    1    2  501    0  0.00000000000E+00  0.00000000000E+00  0.89613333419E+03  0.11038666658E+04  0.64456703549E+03 0.  0.
         13    1    3    3    0    0 -0.22568231846E+03  0.16863974670E+03  0.18003542884E+03  0.33434208330E+03  0.00000000000E+00 0. -1.
          4    1    3    3  501    0  0.22568231846E+03 -0.16863974670E+03  0.71609790535E+03  0.76952458251E+03  0.00000000000E+00 0. -1.
<mgrwt>
<rscale>  0 0.64456704E+03</rscale>
<asrwt>0</asrwt>
<pdfrwt beam="1">0</pdfrwt>
<pdfrwt beam="2">  1        2 0.37769776E+00 0.64456704E+03</pdfrwt>
<totfact> 0.48223435E+00</totfact>
</mgrwt>
</event>
<event>
 5    1  0.2369161E-004  0.6438321E+03  0.7818608E-02  0.9818422E-01
         13   -1    0    0    0    0  0.00000000000E+00  0.00000000000E+00  0.10000000000E+04  0.10000000000E+04  0.00000000000E+00 0. -1.
          2   -1    0    0  501    0 -0.00000000000E+00 -0.00000000000E+00 -0.10362995352E+03  0.10362995352E+03  0.00000000000E+00 0. -1.
    9000006    2    1    2  501    0  0.00000000000E+00  0.00000000000E+00  0.89637004648E+03  0.11036299535E+04  0.64383213192E+03 0.  0.
         13    1    3    3    0    0  0.26787150187E+03  0.16173867718E+03  0.31859409080E+03  0.44656101028E+03  0.00000000000E+00 0. -1.
          4    1    3    3  501    0 -0.26787150187E+03 -0.16173867718E+03  0.57777595568E+03  0.65706894324E+03  0.00000000000E+00 0. -1.
<mgrwt>
<rscale>  0 0.64383213E+03</rscale>
<asrwt>0</asrwt>
<pdfrwt beam="1">0</pdfrwt>
<pdfrwt beam="2">  1        2 0.37683699E+00 0.64383213E+03</pdfrwt>
<totfact> 0.48579390E+00</totfact>
</mgrwt>
</event>
<event>
 5    1  0.2369161E-004  0.6351636E+03  0.7818608E-02  0.9835024E-01
         13   -1    0    0    0    0  0.00000000000E+00  0.00000000000E+00  0.10000000000E+04  0.10000000000E+04  0.00000000000E+00 0. -1.
          2   -1    0    0  501    0 -0.00000000000E+00 -0.00000000000E+00 -0.10085818800E+03  0.10085818800E+03  0.00000000000E+00 0. -1.
    9000006    2    1    2  501    0  0.00000000000E+00  0.00000000000E+00  0.89914181200E+03  0.11008581880E+04  0.63516356317E+03 0.  0.
         13    1    3    3    0    0  0.77149861150E+02  0.31036220560E+02  0.98079485148E+03  0.98431391779E+03  0.00000000000E+00 0. -1.
          2    1    3    3  501    0 -0.77149861150E+02 -0.31036220560E+02 -0.81653039477E+02  0.11654427021E+03  0.00000000000E+00 0. -1.
<mgrwt>
<rscale>  0 0.63516356E+03</rscale>
<asrwt>0</asrwt>
<pdfrwt beam="1">0</pdfrwt>
<pdfrwt beam="2">  1        2 0.36675782E+00 0.63516356E+03</pdfrwt>
<totfact> 0.52930336E+00</totfact>
</mgrwt>
</event>
<event>
 5    1  0.2369161E-004  0.6581447E+03  0.7818608E-02  0.9791615E-01
         13   -1    0    0    0    0  0.00000000000E+00  0.00000000000E+00  0.10000000000E+04  0.10000000000E+04  0.00000000000E+00 0. -1.
          2   -1    0    0  501    0 -0.00000000000E+00 -0.00000000000E+00 -0.10828859888E+03  0.10828859888E+03  0.00000000000E+00 0. -1.
    9000006    2    1    2  501    0  0.00000000000E+00  0.00000000000E+00  0.89171140112E+03  0.11082885989E+04  0.65814466155E+03 0.  0.
         13    1    3    3    0    0 -0.23133530534E+03  0.19609728621E+03  0.66097069589E+03  0.72722240751E+03  0.00000000000E+00 0. -1.
          2    1    3    3  501    0  0.23133530534E+03 -0.19609728621E+03  0.23074070523E+03  0.38106619137E+03  0.00000000000E+00 0. -1.
<mgrwt>
<rscale>  0 0.65814466E+03</rscale>
<asrwt>0</asrwt>
<pdfrwt beam="1">0</pdfrwt>
<pdfrwt beam="2">  1        2 0.39377755E+00 0.65814466E+03</pdfrwt>
<totfact> 0.41994683E+00</totfact>
</mgrwt>
</event>
<event>
 5    1  0.2369161E-004  0.6398552E+03  0.7818608E-02  0.9826004E-01
         13   -1    0    0    0    0  0.00000000000E+00  0.00000000000E+00  0.10000000000E+04  0.10000000000E+04  0.00000000000E+00 0. -1.
          4   -1    0    0  501    0 -0.00000000000E+00 -0.00000000000E+00 -0.10235366418E+03  0.10235366418E+03  0.00000000000E+00 0. -1.
    9000006    2    1    2  501    0  0.00000000000E+00  0.00000000000E+00  0.89764633582E+03  0.11023536642E+04  0.63985518418E+03 0.  0.
         13    1    3    3    0    0  0.16900155757E+03 -0.19164159198E+03  0.11713880560E+03  0.28108633196E+03  0.00000000000E+00 0. -1.
          4    1    3    3  501    0 -0.16900155757E+03  0.19164159198E+03  0.78050753022E+03  0.82126733222E+03  0.00000000000E+00 0. -1.
<mgrwt>
<rscale>  0 0.63985518E+03</rscale>
<asrwt>0</asrwt>
<pdfrwt beam="1">0</pdfrwt>
<pdfrwt beam="2">  1        4 0.37219593E+00 0.63985518E+03</pdfrwt>
<totfact> 0.49473867E-02</totfact>
</mgrwt>
</event>
<event>
 5    1  0.2369161E-004  0.6466337E+03  0.7818608E-02  0.9813116E-01
         13   -1    0    0    0    0  0.00000000000E+00  0.00000000000E+00  0.10000000000E+04  0.10000000000E+04  0.00000000000E+00 0. -1.
          2   -1    0    0  501    0 -0.00000000000E+00 -0.00000000000E+00 -0.10453377503E+03  0.10453377503E+03  0.00000000000E+00 0. -1.
    9000006    2    1    2  501    0  0.00000000000E+00  0.00000000000E+00  0.89546622497E+03  0.11045337750E+04  0.64663366763E+03 0.  0.
         13    1    3    3    0    0 -0.20580874266E+03 -0.21644961095E+03  0.65919716415E+03  0.72370475600E+03  0.00000000000E+00 0. -1.
          2    1    3    3  501    0  0.20580874266E+03  0.21644961095E+03  0.23626906082E+03  0.38082901903E+03  0.00000000000E+00 0. -1.
<mgrwt>
<rscale>  0 0.64663367E+03</rscale>
<asrwt>0</asrwt>
<pdfrwt beam="1">0</pdfrwt>
<pdfrwt beam="2">  1        2 0.38012362E+00 0.64663367E+03</pdfrwt>
<totfact> 0.47233023E+00</totfact>
</mgrwt>
</event>
<event>
 5    1  0.2369161E-004  0.7008670E+03  0.7818608E-02  0.9715751E-01
         13   -1    0    0    0    0  0.00000000000E+00  0.00000000000E+00  0.10000000000E+04  0.10000000000E+04  0.00000000000E+00 0. -1.
          2   -1    0    0  501    0 -0.00000000000E+00 -0.00000000000E+00 -0.12280364636E+03  0.12280364636E+03  0.00000000000E+00 0. -1.
    9000006    2    1    2  501    0  0.00000000000E+00  0.00000000000E+00  0.87719635364E+03  0.11228036464E+04  0.70086702407E+03 0.  0.
         13    1    3    3    0    0  0.32289714332E+03  0.62674501739E+02  0.63225718429E+03  0.71269895848E+03  0.00000000000E+00 0. -1.
          4    1    3    3  501    0 -0.32289714332E+03 -0.62674501739E+02  0.24493916935E+03  0.41010468787E+03  0.00000000000E+00 0. -1.
<mgrwt>
<rscale>  0 0.70086702E+03</rscale>
<asrwt>0</asrwt>
<pdfrwt beam="1">0</pdfrwt>
<pdfrwt beam="2">  1        2 0.44655966E+00 0.70086702E+03</pdfrwt>
<totfact> 0.26283975E+00</totfact>
</mgrwt>
</event>
<event>
 5    1  0.2369161E-004  0.6790506E+03  0.7818608E-02  0.9753745E-01
         13   -1    0    0    0    0  0.00000000000E+00  0.00000000000E+00  0.10000000000E+04  0.10000000000E+04  0.00000000000E+00 0. -1.
          2   -1    0    0  501    0 -0.00000000000E+00 -0.00000000000E+00 -0.11527743803E+03  0.11527743803E+03  0.00000000000E+00 0. -1.
    9000006    2    1    2  501    0  0.00000000000E+00  0.00000000000E+00  0.88472256197E+03  0.11152774380E+04  0.67905062561E+03 0.  0.
         13    1    3    3    0    0 -0.14479064140E+03 -0.41042815033E+02  0.94222694104E+03  0.95417003251E+03  0.00000000000E+00 0. -1.
          2    1    3    3  501    0  0.14479064140E+03  0.41042815033E+02 -0.57504379079E+02  0.16110740553E+03  0.00000000000E+00 0. -1.
<mgrwt>
<rscale>  0 0.67905063E+03</rscale>
<asrwt>0</asrwt>
<pdfrwt beam="1">0</pdfrwt>
<pdfrwt beam="2">  1        2 0.41919157E+00 0.67905063E+03</pdfrwt>
<totfact> 0.33615828E+00</totfact>
</mgrwt>
</event>
<event>
 5    1  0.2369161E-004  0.6427489E+03  0.7818608E-02  0.9820481E-01
         13   -1    0    0    0    0  0.00000000000E+00  0.00000000000E+00  0.10000000000E+04  0.10000000000E+04  0.00000000000E+00 0. -1.
          2   -1    0    0  501    0 -0.00000000000E+00 -0.00000000000E+00 -0.10328153263E+03  0.10328153263E+03  0.00000000000E+00 0. -1.
    9000006    2    1    2  501    0  0.00000000000E+00  0.00000000000E+00  0.89671846737E+03  0.11032815326E+04  0.64274888604E+03 0.  0.
         13    1    3    3    0    0 -0.27829812798E+03 -0.11462002819E+03  0.64175329305E+03  0.70882641602E+03  0.00000000000E+00 0. -1.
          4    1    3    3  501    0  0.27829812798E+03  0.11462002819E+03  0.25496517432E+03  0.39445511661E+03  0.00000000000E+00 0. -1.
<mgrwt>
<rscale>  0 0.64274889E+03</rscale>
<asrwt>0</asrwt>
<pdfrwt beam="1">0</pdfrwt>
<pdfrwt beam="2">  1        2 0.37557000E+00 0.64274889E+03</pdfrwt>
<totfact> 0.49107689E+00</totfact>
</mgrwt>
</event>
<event>
 5    1  0.2369161E-004  0.5168953E+03  0.7818608E-02  0.1009461E+00
         13   -1    0    0    0    0  0.00000000000E+00  0.00000000000E+00  0.10000000000E+04  0.10000000000E+04  0.00000000000E+00 0. -1.
          2   -1    0    0  501    0 -0.00000000000E+00 -0.00000000000E+00 -0.66795176943E+02  0.66795176943E+02  0.00000000000E+00 0. -1.
    9000006    2    1    2  501    0  0.00000000000E+00  0.00000000000E+00  0.93320482306E+03  0.10667951769E+04  0.51689525803E+03 0.  0.
         13    1    3    3    0    0 -0.18202814181E+03  0.93722151189E+02  0.79212287273E+03  0.81815446679E+03  0.00000000000E+00 0. -1.
          2    1    3    3  501    0  0.18202814181E+03 -0.93722151189E+02  0.14108195033E+03  0.24864071015E+03  0.00000000000E+00 0. -1.
<mgrwt>
<rscale>  0 0.51689526E+03</rscale>
<asrwt>0</asrwt>
<pdfrwt beam="1">0</pdfrwt>
<pdfrwt beam="2">  1        2 0.24289206E+00 0.51689526E+03</pdfrwt>
<totfact> 0.14786038E+01</totfact>
</mgrwt>
</event>
<event>
 5    1  0.2369161E-004  0.6555050E+03  0.7818608E-02  0.9796504E-01
         13   -1    0    0    0    0  0.00000000000E+00  0.00000000000E+00  0.10000000000E+04  0.10000000000E+04  0.00000000000E+00 0. -1.
          2   -1    0    0  501    0 -0.00000000000E+00 -0.00000000000E+00 -0.10742168781E+03  0.10742168781E+03  0.00000000000E+00 0. -1.
    9000006    2    1    2  501    0  0.00000000000E+00  0.00000000000E+00  0.89257831219E+03  0.11074216878E+04  0.65550495897E+03 0.  0.
         13    1    3    3    0    0 -0.85198244356E+02 -0.14347249586E+03 -0.30290130315E+02  0.16958947463E+03  0.00000000000E+00 0. -1.
          2    1    3    3  501    0  0.85198244356E+02  0.14347249586E+03  0.92286844251E+03  0.93783221318E+03  0.00000000000E+00 0. -1.
<mgrwt>
<rscale>  0 0.65550496E+03</rscale>
<asrwt>0</asrwt>
<pdfrwt beam="1">0</pdfrwt>
<pdfrwt beam="2">  1        2 0.39062514E+00 0.65550496E+03</pdfrwt>
<totfact> 0.43155070E+00</totfact>
</mgrwt>
</event>
<event>
 5    1  0.2369161E-004  0.6517644E+03  0.7818608E-02  0.9803474E-01
         13   -1    0    0    0    0  0.00000000000E+00  0.00000000000E+00  0.10000000000E+04  0.10000000000E+04  0.00000000000E+00 0. -1.
          2   -1    0    0  501    0 -0.00000000000E+00 -0.00000000000E+00 -0.10619922227E+03  0.10619922227E+03  0.00000000000E+00 0. -1.
    9000006    2    1    2  501    0  0.00000000000E+00  0.00000000000E+00  0.89380077773E+03  0.11061992223E+04  0.65176444295E+03 0.  0.
         13    1    3    3    0    0 -0.27141527969E+03 -0.15050305121E+03  0.61561811379E+03  0.68942228315E+03  0.00000000000E+00 0. -1.
          2    1    3    3  501    0  0.27141527969E+03  0.15050305121E+03  0.27818266393E+03  0.41677693912E+03  0.00000000000E+00 0. -1.
<mgrwt>
<rscale>  0 0.65176444E+03</rscale>
<asrwt>0</asrwt>
<pdfrwt beam="1">0</pdfrwt>
<pdfrwt beam="2">  1        2 0.38617980E+00 0.65176444E+03</pdfrwt>
<totfact> 0.44840632E+00</totfact>
</mgrwt>
</event>
<event>
 5    1  0.2369161E-004  0.6439494E+03  0.7818608E-02  0.9818199E-01
         13   -1    0    0    0    0  0.00000000000E+00  0.00000000000E+00  0.10000000000E+04  0.10000000000E+04  0.00000000000E+00 0. -1.
          2   -1    0    0  501    0 -0.00000000000E+00 -0.00000000000E+00 -0.10366769744E+03  0.10366769744E+03  0.00000000000E+00 0. -1.
    9000006    2    1    2  501    0  0.00000000000E+00  0.00000000000E+00  0.89633230256E+03  0.11036676974E+04  0.64394936893E+03 0.  0.
         13    1    3    3    0    0 -0.25958708436E+03  0.19018164131E+03  0.42993207833E+03  0.53702523501E+03  0.00000000000E+00 0. -1.
          4    1    3    3  501    0  0.25958708436E+03 -0.19018164131E+03  0.46640022423E+03  0.56664246243E+03  0.00000000000E+00 0. -1.
<mgrwt>
<rscale>  0 0.64394937E+03</rscale>
<asrwt>0</asrwt>
<pdfrwt beam="1">0</pdfrwt>
<pdfrwt beam="2">  1        2 0.37697424E+00 0.64394937E+03</pdfrwt>
<totfact> 0.48522473E+00</totfact>
</mgrwt>
</event>
<event>
 5    1  0.2369161E-004  0.6512204E+03  0.7818608E-02  0.9804492E-01
         13   -1    0    0    0    0  0.00000000000E+00  0.00000000000E+00  0.10000000000E+04  0.10000000000E+04  0.00000000000E+00 0. -1.
          2   -1    0    0  501    0 -0.00000000000E+00 -0.00000000000E+00 -0.10602200591E+03  0.10602200591E+03  0.00000000000E+00 0. -1.
    9000006    2    1    2  501    0  0.00000000000E+00  0.00000000000E+00  0.89397799409E+03  0.11060220059E+04  0.65122041095E+03 0.  0.
         13    1    3    3    0    0 -0.25618549491E+03 -0.54590630506E+01  0.78819587849E+03  0.82880248071E+03  0.00000000000E+00 0. -1.
          2    1    3    3  501    0  0.25618549491E+03  0.54590630506E+01  0.10578211560E+03  0.27721952520E+03  0.00000000000E+00 0. -1.
<mgrwt>
<rscale>  0 0.65122041E+03</rscale>
<asrwt>0</asrwt>
<pdfrwt beam="1">0</pdfrwt>
<pdfrwt beam="2">  1        2 0.38553538E+00 0.65122041E+03</pdfrwt>
<totfact> 0.45089866E+00</totfact>
</mgrwt>
</event>
<event>
 5    1  0.2369161E-004  0.6442432E+03  0.7818608E-02  0.9817642E-01
         13   -1    0    0    0    0  0.00000000000E+00  0.00000000000E+00  0.10000000000E+04  0.10000000000E+04  0.00000000000E+00 0. -1.
          2   -1    0    0  501    0 -0.00000000000E+00 -0.00000000000E+00 -0.10376231313E+03  0.10376231313E+03  0.00000000000E+00 0. -1.
    9000006    2    1    2  501    0  0.00000000000E+00  0.00000000000E+00  0.89623768687E+03  0.11037623131E+04  0.64424316258E+03 0.  0.
         13    1    3    3    0    0  0.21297090834E+03  0.17956225072E+03  0.72524044012E+03  0.77689954671E+03  0.00000000000E+00 0. -1.
          2    1    3    3  501    0 -0.21297090834E+03 -0.17956225072E+03  0.17099724675E+03  0.32686276643E+03  0.00000000000E+00 0. -1.
<mgrwt>
<rscale>  0 0.64424316E+03</rscale>
<asrwt>0</asrwt>
<pdfrwt beam="1">0</pdfrwt>
<pdfrwt beam="2">  1        2 0.37731830E+00 0.64424316E+03</pdfrwt>
<totfact> 0.48380061E+00</totfact>
</mgrwt>
</event>
<event>
 5    1  0.2369161E-004  0.6527591E+03  0.7818608E-02  0.9801616E-01
         13   -1    0    0    0    0  0.00000000000E+00  0.00000000000E+00  0.10000000000E+04  0.10000000000E+04  0.00000000000E+00 0. -1.
          2   -1    0    0  501    0 -0.00000000000E+00 -0.00000000000E+00 -0.10652360423E+03  0.10652360423E+03  0.00000000000E+00 0. -1.
    9000006    2    1    2  501    0  0.00000000000E+00  0.00000000000E+00  0.89347639577E+03  0.11065236042E+04  0.65275908032E+03 0.  0.
         13    1    3    3    0    0 -0.37137732453E+02 -0.32376386927E+03  0.41635056132E+03  0.52872492293E+03  0.00000000000E+00 0. -1.
          4    1    3    3  501    0  0.37137732453E+02  0.32376386927E+03  0.47712583445E+03  0.57779868130E+03  0.00000000000E+00 0. -1.
<mgrwt>
<rscale>  0 0.65275908E+03</rscale>
<asrwt>0</asrwt>
<pdfrwt beam="1">0</pdfrwt>
<pdfrwt beam="2">  1        2 0.38735938E+00 0.65275908E+03</pdfrwt>
<totfact> 0.44387657E+00</totfact>
</mgrwt>
</event>
<event>
 5    1  0.2369161E-004  0.6522780E+03  0.7818608E-02  0.9802514E-01
         13   -1    0    0    0    0  0.00000000000E+00  0.00000000000E+00  0.10000000000E+04  0.10000000000E+04  0.00000000000E+00 0. -1.
          2   -1    0    0  501    0 -0.00000000000E+00 -0.00000000000E+00 -0.10636666348E+03  0.10636666348E+03  0.00000000000E+00 0. -1.
    9000006    2    1    2  501    0  0.00000000000E+00  0.00000000000E+00  0.89363333652E+03  0.11063666635E+04  0.65227804954E+03 0.  0.
         13    1    3    3    0    0 -0.24633654848E+03 -0.21374037769E+03  0.44658099718E+03  0.55299297574E+03  0.00000000000E+00 0. -1.
          2    1    3    3  501    0  0.24633654848E+03  0.21374037769E+03  0.44705233934E+03  0.55337368774E+03  0.00000000000E+00 0. -1.
<mgrwt>
<rscale>  0 0.65227805E+03</rscale>
<asrwt>0</asrwt>
<pdfrwt beam="1">0</pdfrwt>
<pdfrwt beam="2">  1        2 0.38678868E+00 0.65227805E+03</pdfrwt>
<totfact> 0.44606293E+00</totfact>
</mgrwt>
</event>
<event>
 5    1  0.2369161E-004  0.6538157E+03  0.7818608E-02  0.9799645E-01
         13   -1    0    0    0    0  0.00000000000E+00  0.00000000000E+00  0.10000000000E+04  0.10000000000E+04  0.00000000000E+00 0. -1.
          2   -1    0    0  501    0 -0.00000000000E+00 -0.00000000000E+00 -0.10686875409E+03  0.10686875409E+03  0.00000000000E+00 0. -1.
    9000006    2    1    2  501    0  0.00000000000E+00  0.00000000000E+00  0.89313124591E+03  0.11068687541E+04  0.65381573578E+03 0.  0.
         13    1    3    3    0    0 -0.31874666079E+03 -0.93569497398E+01  0.32470041508E+03  0.45510146762E+03  0.00000000000E+00 0. -1.
          4    1    3    3  501    0  0.31874666079E+03  0.93569497398E+01  0.56843083083E+03  0.65176728647E+03  0.00000000000E+00 0. -1.
<mgrwt>
<rscale>  0 0.65381574E+03</rscale>
<asrwt>0</asrwt>
<pdfrwt beam="1">0</pdfrwt>
<pdfrwt beam="2">  1        2 0.38861447E+00 0.65381574E+03</pdfrwt>
<totfact> 0.43910234E+00</totfact>
</mgrwt>
</event>
<event>
 5    1  0.2369161E-004  0.6378774E+03  0.7818608E-02  0.9829796E-01
         13   -1    0    0    0    0  0.00000000000E+00  0.00000000000E+00  0.10000000000E+04  0.10000000000E+04  0.00000000000E+00 0. -1.
          2   -1    0    0  501    0 -0.00000000000E+00 -0.00000000000E+00 -0.10172191030E+03  0.10172191030E+03  0.00000000000E+00 0. -1.
    9000006    2    1    2  501    0  0.00000000000E+00  0.00000000000E+00  0.89827808970E+03  0.11017219103E+04  0.63787745000E+03 0.  0.
         13    1    3    3    0    0  0.11633247514E+03 -0.19660664085E+03  0.83354366950E+03  0.86428147323E+03  0.00000000000E+00 0. -1.
          4    1    3    3  501    0 -0.11633247514E+03  0.19660664085E+03  0.64734420192E+02  0.23744043707E+03  0.00000000000E+00 0. -1.
<mgrwt>
<rscale>  0 0.63787745E+03</rscale>
<asrwt>0</asrwt>
<pdfrwt beam="1">0</pdfrwt>
<pdfrwt beam="2">  1        2 0.36989864E+00 0.63787745E+03</pdfrwt>
<totfact> 0.51537682E+00</totfact>
</mgrwt>
</event>
<event>
 5    1  0.2369161E-004  0.6282759E+03  0.7818608E-02  0.9848419E-01
         13   -1    0    0    0    0  0.00000000000E+00  0.00000000000E+00  0.10000000000E+04  0.10000000000E+04  0.00000000000E+00 0. -1.
          2   -1    0    0  501    0 -0.00000000000E+00 -0.00000000000E+00 -0.98682666809E+02  0.98682666809E+02  0.00000000000E+00 0. -1.
    9000006    2    1    2  501    0  0.00000000000E+00  0.00000000000E+00  0.90131733319E+03  0.10986826668E+04  0.62827594832E+03 0.  0.
         13    1    3    3    0    0  0.26799177657E+03  0.12788090883E+03  0.62993123914E+03  0.69640971073E+03  0.00000000000E+00 0. -1.
          4    1    3    3  501    0 -0.26799177657E+03 -0.12788090883E+03  0.27138609405E+03  0.40227295608E+03  0.00000000000E+00 0. -1.
<mgrwt>
<rscale>  0 0.62827595E+03</rscale>
<asrwt>0</asrwt>
<pdfrwt beam="1">0</pdfrwt>
<pdfrwt beam="2">  1        2 0.35884682E+00 0.62827595E+03</pdfrwt>
<totfact> 0.56592963E+00</totfact>
</mgrwt>
</event>
<event>
 5    1  0.2369161E-004  0.6709344E+03  0.7818608E-02  0.9768271E-01
         13   -1    0    0    0    0  0.00000000000E+00  0.00000000000E+00  0.10000000000E+04  0.10000000000E+04  0.00000000000E+00 0. -1.
          2   -1    0    0  501    0 -0.00000000000E+00 -0.00000000000E+00 -0.11253825863E+03  0.11253825863E+03  0.00000000000E+00 0. -1.
    9000006    2    1    2  501    0  0.00000000000E+00  0.00000000000E+00  0.88746174137E+03  0.11125382586E+04  0.67093444874E+03 0.  0.
         13    1    3    3    0    0  0.32029834282E+03  0.94381006376E+02  0.39026977104E+03  0.51362369198E+03  0.00000000000E+00 0. -1.
          2    1    3    3  501    0 -0.32029834282E+03 -0.94381006376E+02  0.49719197033E+03  0.59891456665E+03  0.00000000000E+00 0. -1.
<mgrwt>
<rscale>  0 0.67093445E+03</rscale>
<asrwt>0</asrwt>
<pdfrwt beam="1">0</pdfrwt>
<pdfrwt beam="2">  1        2 0.40923089E+00 0.67093445E+03</pdfrwt>
<totfact> 0.36702516E+00</totfact>
</mgrwt>
</event>
<event>
 5    1  0.2369161E-004  0.5944139E+03  0.7818608E-02  0.9917064E-01
         13   -1    0    0    0    0  0.00000000000E+00  0.00000000000E+00  0.10000000000E+04  0.10000000000E+04  0.00000000000E+00 0. -1.
          2   -1    0    0  501    0 -0.00000000000E+00 -0.00000000000E+00 -0.88331961726E+02  0.88331961726E+02  0.00000000000E+00 0. -1.
    9000006    2    1    2  501    0  0.00000000000E+00  0.00000000000E+00  0.91166803827E+03  0.10883319617E+04  0.59441386836E+03 0.  0.
         13    1    3    3    0    0 -0.24359922171E+03  0.14464096641E+03  0.62031633804E+03  0.68194864119E+03  0.00000000000E+00 0. -1.
          4    1    3    3  501    0  0.24359922171E+03 -0.14464096641E+03  0.29135170023E+03  0.40638332054E+03  0.00000000000E+00 0. -1.
<mgrwt>
<rscale>  0 0.59441387E+03</rscale>
<asrwt>0</asrwt>
<pdfrwt beam="1">0</pdfrwt>
<pdfrwt beam="2">  1        2 0.32120781E+00 0.59441387E+03</pdfrwt>
<totfact> 0.77493603E+00</totfact>
</mgrwt>
</event>
<event>
 5    1  0.2369161E-004  0.6613607E+03  0.7818608E-02  0.9785692E-01
         13   -1    0    0    0    0  0.00000000000E+00  0.00000000000E+00  0.10000000000E+04  0.10000000000E+04  0.00000000000E+00 0. -1.
          2   -1    0    0  501    0 -0.00000000000E+00 -0.00000000000E+00 -0.10934948365E+03  0.10934948365E+03  0.00000000000E+00 0. -1.
    9000006    2    1    2  501    0  0.00000000000E+00  0.00000000000E+00  0.89065051635E+03  0.11093494836E+04  0.66136066907E+03 0.  0.
         13    1    3    3    0    0 -0.28182891173E+03 -0.15400903572E+03  0.31321495445E+03  0.44860887893E+03  0.00000000000E+00 0. -1.
          4    1    3    3  501    0  0.28182891173E+03  0.15400903572E+03  0.57743556190E+03  0.66074060471E+03  0.00000000000E+00 0. -1.
<mgrwt>
<rscale>  0 0.66136067E+03</rscale>
<asrwt>0</asrwt>
<pdfrwt beam="1">0</pdfrwt>
<pdfrwt beam="2">  1        2 0.39763532E+00 0.66136067E+03</pdfrwt>
<totfact> 0.40613084E+00</totfact>
</mgrwt>
</event>
<event>
 5    1  0.2369161E-004  0.4821816E+03  0.7818608E-02  0.1018537E+00
         13   -1    0    0    0    0  0.00000000000E+00  0.00000000000E+00  0.10000000000E+04  0.10000000000E+04  0.00000000000E+00 0. -1.
          4   -1    0    0  501    0 -0.00000000000E+00 -0.00000000000E+00 -0.58124765357E+02  0.58124765357E+02  0.00000000000E+00 0. -1.
    9000006    2    1    2  501    0  0.00000000000E+00  0.00000000000E+00  0.94187523464E+03  0.10581247654E+04  0.48218156479E+03 0.  0.
         13    1    3    3    0    0 -0.11615875699E+03  0.11027981972E+03  0.86636726371E+03  0.88104865422E+03  0.00000000000E+00 0. -1.
          4    1    3    3  501    0  0.11615875699E+03 -0.11027981972E+03  0.75507970930E+02  0.17707611114E+03  0.00000000000E+00 0. -1.
<mgrwt>
<rscale>  0 0.48218156E+03</rscale>
<asrwt>0</asrwt>
<pdfrwt beam="1">0</pdfrwt>
<pdfrwt beam="2">  1        4 0.21136323E+00 0.48218156E+03</pdfrwt>
<totfact> 0.50119516E-01</totfact>
</mgrwt>
</event>
<event>
 5    1  0.2369161E-004  0.6522317E+03  0.7818608E-02  0.9802600E-01
         13   -1    0    0    0    0  0.00000000000E+00  0.00000000000E+00  0.10000000000E+04  0.10000000000E+04  0.00000000000E+00 0. -1.
          2   -1    0    0  501    0 -0.00000000000E+00 -0.00000000000E+00 -0.10635155770E+03  0.10635155770E+03  0.00000000000E+00 0. -1.
    9000006    2    1    2  501    0  0.00000000000E+00  0.00000000000E+00  0.89364844230E+03  0.11063515577E+04  0.65223173090E+03 0.  0.
         13    1    3    3    0    0 -0.32111847592E+02 -0.32276493120E+03  0.50417637096E+03  0.59950161351E+03  0.00000000000E+00 0. -1.
          4    1    3    3  501    0  0.32111847592E+02  0.32276493120E+03  0.38947207134E+03  0.50684994419E+03  0.00000000000E+00 0. -1.
<mgrwt>
<rscale>  0 0.65223173E+03</rscale>
<asrwt>0</asrwt>
<pdfrwt beam="1">0</pdfrwt>
<pdfrwt beam="2">  1        2 0.38673375E+00 0.65223173E+03</pdfrwt>
<totfact> 0.44627388E+00</totfact>
</mgrwt>
</event>
<event>
 5    1  0.2369161E-004  0.6525187E+03  0.7818608E-02  0.9802064E-01
         13   -1    0    0    0    0  0.00000000000E+00  0.00000000000E+00  0.10000000000E+04  0.10000000000E+04  0.00000000000E+00 0. -1.
          2   -1    0    0  501    0 -0.00000000000E+00 -0.00000000000E+00 -0.10644515910E+03  0.10644515910E+03  0.00000000000E+00 0. -1.
    9000006    2    1    2  501    0  0.00000000000E+00  0.00000000000E+00  0.89355484090E+03  0.11064451591E+04  0.65251868662E+03 0.  0.
         13    1    3    3    0    0  0.28444569492E+03 -0.46487985367E+02  0.18753282501E+03  0.34385905048E+03  0.00000000000E+00 0. -1.
          2    1    3    3  501    0 -0.28444569492E+03  0.46487985367E+02  0.70602201589E+03  0.76258610862E+03  0.00000000000E+00 0. -1.
<mgrwt>
<rscale>  0 0.65251869E+03</rscale>
<asrwt>0</asrwt>
<pdfrwt beam="1">0</pdfrwt>
<pdfrwt beam="2">  1        2 0.38707412E+00 0.65251869E+03</pdfrwt>
<totfact> 0.44496818E+00</totfact>
</mgrwt>
</event>
<event>
 5    1  0.2369161E-004  0.6460386E+03  0.7818608E-02  0.9814241E-01
         13   -1    0    0    0    0  0.00000000000E+00  0.00000000000E+00  0.10000000000E+04  0.10000000000E+04  0.00000000000E+00 0. -1.
          2   -1    0    0  501    0 -0.00000000000E+00 -0.00000000000E+00 -0.10434145689E+03  0.10434145689E+03  0.00000000000E+00 0. -1.
    9000006    2    1    2  501    0  0.00000000000E+00  0.00000000000E+00  0.89565854311E+03  0.11043414569E+04  0.64603856506E+03 0.  0.
         13    1    3    3    0    0  0.49320473500E+02  0.21122726014E+03  0.38670473017E+02  0.22032900402E+03  0.00000000000E+00 0. -1.
          4    1    3    3  501    0 -0.49320473500E+02 -0.21122726014E+03  0.85698807010E+03  0.88401245286E+03  0.00000000000E+00 0. -1.
<mgrwt>
<rscale>  0 0.64603857E+03</rscale>
<asrwt>0</asrwt>
<pdfrwt beam="1">0</pdfrwt>
<pdfrwt beam="2">  1        2 0.37942428E+00 0.64603857E+03</pdfrwt>
<totfact> 0.47516627E+00</totfact>
</mgrwt>
</event>
<event>
 5    1  0.2369161E-004  0.6518565E+03  0.7818608E-02  0.9803302E-01
         13   -1    0    0    0    0  0.00000000000E+00  0.00000000000E+00  0.10000000000E+04  0.10000000000E+04  0.00000000000E+00 0. -1.
          2   -1    0    0  501    0 -0.00000000000E+00 -0.00000000000E+00 -0.10622921282E+03  0.10622921282E+03  0.00000000000E+00 0. -1.
    9000006    2    1    2  501    0  0.00000000000E+00  0.00000000000E+00  0.89377078718E+03  0.11062292128E+04  0.65185646525E+03 0.  0.
         13    1    3    3    0    0  0.33557483390E+02  0.26499673633E+02  0.99521944438E+03  0.99613758079E+03  0.00000000000E+00 0. -1.
          4    1    3    3  501    0 -0.33557483390E+02 -0.26499673633E+02 -0.10144865720E+03  0.11009163203E+03  0.00000000000E+00 0. -1.
<mgrwt>
<rscale>  0 0.65185647E+03</rscale>
<asrwt>0</asrwt>
<pdfrwt beam="1">0</pdfrwt>
<pdfrwt beam="2">  1        2 0.38628886E+00 0.65185647E+03</pdfrwt>
<totfact> 0.44798577E+00</totfact>
</mgrwt>
</event>
<event>
 5    1  0.2369161E-004  0.6493206E+03  0.7818608E-02  0.9808055E-01
         13   -1    0    0    0    0  0.00000000000E+00  0.00000000000E+00  0.10000000000E+04  0.10000000000E+04  0.00000000000E+00 0. -1.
          2   -1    0    0  501    0 -0.00000000000E+00 -0.00000000000E+00 -0.10540432331E+03  0.10540432331E+03  0.00000000000E+00 0. -1.
    9000006    2    1    2  501    0  0.00000000000E+00  0.00000000000E+00  0.89459567669E+03  0.11054043233E+04  0.64932063979E+03 0.  0.
         13    1    3    3    0    0  0.64225992471E+02 -0.15207639063E+03 -0.28620372488E+02  0.16754501609E+03  0.00000000000E+00 0. -1.
          2    1    3    3  501    0 -0.64225992471E+02  0.15207639063E+03  0.92321604917E+03  0.93785930722E+03  0.00000000000E+00 0. -1.
<mgrwt>
<rscale>  0 0.64932064E+03</rscale>
<asrwt>0</asrwt>
<pdfrwt beam="1">0</pdfrwt>
<pdfrwt beam="2">  1        2 0.38328926E+00 0.64932064E+03</pdfrwt>
<totfact> 0.45968415E+00</totfact>
</mgrwt>
</event>
<event>
 5    1  0.2369161E-004  0.6477879E+03  0.7818608E-02  0.9810939E-01
         13   -1    0    0    0    0  0.00000000000E+00  0.00000000000E+00  0.10000000000E+04  0.10000000000E+04  0.00000000000E+00 0. -1.
          2   -1    0    0  501    0 -0.00000000000E+00 -0.00000000000E+00 -0.10490727712E+03  0.10490727712E+03  0.00000000000E+00 0. -1.
    9000006    2    1    2  501    0  0.00000000000E+00  0.00000000000E+00  0.89509272288E+03  0.11049072771E+04  0.64778785761E+03 0.  0.
         13    1    3    3    0    0 -0.54571764641E+02 -0.30056216419E+03  0.26390756225E+03  0.40368662778E+03  0.00000000000E+00 0. -1.
          4    1    3    3  501    0  0.54571764641E+02  0.30056216419E+03  0.63118516064E+03  0.70122064933E+03  0.00000000000E+00 0. -1.
<mgrwt>
<rscale>  0 0.64778786E+03</rscale>
<asrwt>0</asrwt>
<pdfrwt beam="1">0</pdfrwt>
<pdfrwt beam="2">  1        2 0.38148181E+00 0.64778786E+03</pdfrwt>
<totfact> 0.46686630E+00</totfact>
</mgrwt>
</event>
<event>
 5    1  0.2369161E-004  0.6537030E+03  0.7818608E-02  0.9799856E-01
         13   -1    0    0    0    0  0.00000000000E+00  0.00000000000E+00  0.10000000000E+04  0.10000000000E+04  0.00000000000E+00 0. -1.
          2   -1    0    0  501    0 -0.00000000000E+00 -0.00000000000E+00 -0.10683188843E+03  0.10683188843E+03  0.00000000000E+00 0. -1.
    9000006    2    1    2  501    0  0.00000000000E+00  0.00000000000E+00  0.89316811157E+03  0.11068318884E+04  0.65370295526E+03 0.  0.
         13    1    3    3    0    0 -0.59273479860E+02  0.76931453588E+01 -0.97499908225E+02  0.11436241517E+03  0.00000000000E+00 0. -1.
          4    1    3    3  501    0  0.59273479860E+02 -0.76931453588E+01  0.99066801980E+03  0.99246947326E+03  0.00000000000E+00 0. -1.
<mgrwt>
<rscale>  0 0.65370296E+03</rscale>
<asrwt>0</asrwt>
<pdfrwt beam="1">0</pdfrwt>
<pdfrwt beam="2">  1        2 0.38848041E+00 0.65370296E+03</pdfrwt>
<totfact> 0.43961005E+00</totfact>
</mgrwt>
</event>
<event>
 5    1  0.2369161E-004  0.6527319E+03  0.7818608E-02  0.9801666E-01
         13   -1    0    0    0    0  0.00000000000E+00  0.00000000000E+00  0.10000000000E+04  0.10000000000E+04  0.00000000000E+00 0. -1.
          2   -1    0    0  501    0 -0.00000000000E+00 -0.00000000000E+00 -0.10651472247E+03  0.10651472247E+03  0.00000000000E+00 0. -1.
    9000006    2    1    2  501    0  0.00000000000E+00  0.00000000000E+00  0.89348527753E+03  0.11065147225E+04  0.65273186674E+03 0.  0.
         13    1    3    3    0    0  0.13535180918E+03 -0.29629355716E+03  0.48084696559E+03  0.58079582349E+03  0.00000000000E+00 0. -1.
          2    1    3    3  501    0 -0.13535180918E+03  0.29629355716E+03  0.41263831194E+03  0.52571889898E+03  0.00000000000E+00 0. -1.
<mgrwt>
<rscale>  0 0.65273187E+03</rscale>
<asrwt>0</asrwt>
<pdfrwt beam="1">0</pdfrwt>
<pdfrwt beam="2">  1        2 0.38732708E+00 0.65273187E+03</pdfrwt>
<totfact> 0.44400005E+00</totfact>
</mgrwt>
</event>
<event>
 5    1  0.2369161E-004  0.6560815E+03  0.7818608E-02  0.9795434E-01
         13   -1    0    0    0    0  0.00000000000E+00  0.00000000000E+00  0.10000000000E+04  0.10000000000E+04  0.00000000000E+00 0. -1.
          2   -1    0    0  501    0 -0.00000000000E+00 -0.00000000000E+00 -0.10761074474E+03  0.10761074474E+03  0.00000000000E+00 0. -1.
    9000006    2    1    2  501    0  0.00000000000E+00  0.00000000000E+00  0.89238925526E+03  0.11076107447E+04  0.65608153378E+03 0.  0.
         13    1    3    3    0    0 -0.24302982148E+03 -0.21829058213E+03  0.49674190863E+03  0.59453073610E+03  0.00000000000E+00 0. -1.
          2    1    3    3  501    0  0.24302982148E+03  0.21829058213E+03  0.39564734663E+03  0.51308000864E+03  0.00000000000E+00 0. -1.
<mgrwt>
<rscale>  0 0.65608153E+03</rscale>
<asrwt>0</asrwt>
<pdfrwt beam="1">0</pdfrwt>
<pdfrwt beam="2">  1        2 0.39131262E+00 0.65608153E+03</pdfrwt>
<totfact> 0.42899572E+00</totfact>
</mgrwt>
</event>
<event>
 5    1  0.2369161E-004  0.6513079E+03  0.7818608E-02  0.9804328E-01
         13   -1    0    0    0    0  0.00000000000E+00  0.00000000000E+00  0.10000000000E+04  0.10000000000E+04  0.00000000000E+00 0. -1.
          2   -1    0    0  501    0 -0.00000000000E+00 -0.00000000000E+00 -0.10605048544E+03  0.10605048544E+03  0.00000000000E+00 0. -1.
    9000006    2    1    2  501    0  0.00000000000E+00  0.00000000000E+00  0.89394951456E+03  0.11060504854E+04  0.65130787017E+03 0.  0.
         13    1    3    3    0    0  0.10657880141E+03  0.24609056681E+03  0.13324020483E+03  0.29945376966E+03  0.00000000000E+00 0. -1.
          4    1    3    3  501    0 -0.10657880141E+03 -0.24609056681E+03  0.76070930974E+03  0.80659671578E+03  0.00000000000E+00 0. -1.
<mgrwt>
<rscale>  0 0.65130787E+03</rscale>
<asrwt>0</asrwt>
<pdfrwt beam="1">0</pdfrwt>
<pdfrwt beam="2">  1        2 0.38563894E+00 0.65130787E+03</pdfrwt>
<totfact> 0.45049728E+00</totfact>
</mgrwt>
</event>
<event>
 5    1  0.2369161E-004  0.6248077E+03  0.7818608E-02  0.9855234E-01
         13   -1    0    0    0    0  0.00000000000E+00  0.00000000000E+00  0.10000000000E+04  0.10000000000E+04  0.00000000000E+00 0. -1.
          2   -1    0    0  501    0 -0.00000000000E+00 -0.00000000000E+00 -0.97596173116E+02  0.97596173116E+02  0.00000000000E+00 0. -1.
    9000006    2    1    2  501    0  0.00000000000E+00  0.00000000000E+00  0.90240382688E+03  0.10975961731E+04  0.62480772440E+03 0.  0.
         13    1    3    3    0    0 -0.12637791937E+03  0.28073195061E+03  0.54439560648E+03  0.62541856620E+03  0.00000000000E+00 0. -1.
          4    1    3    3  501    0  0.12637791937E+03 -0.28073195061E+03  0.35800822041E+03  0.47217760692E+03  0.00000000000E+00 0. -1.
<mgrwt>
<rscale>  0 0.62480772E+03</rscale>
<asrwt>0</asrwt>
<pdfrwt beam="1">0</pdfrwt>
<pdfrwt beam="2">  1        2 0.35489592E+00 0.62480772E+03</pdfrwt>
<totfact> 0.58508616E+00</totfact>
</mgrwt>
</event>
<event>
 5    1  0.2369161E-004  0.6423403E+03  0.7818608E-02  0.9821259E-01
         13   -1    0    0    0    0  0.00000000000E+00  0.00000000000E+00  0.10000000000E+04  0.10000000000E+04  0.00000000000E+00 0. -1.
          2   -1    0    0  501    0 -0.00000000000E+00 -0.00000000000E+00 -0.10315026631E+03  0.10315026631E+03  0.00000000000E+00 0. -1.
    9000006    2    1    2  501    0  0.00000000000E+00  0.00000000000E+00  0.89684973369E+03  0.11031502663E+04  0.64234030330E+03 0.  0.
         13    1    3    3    0    0 -0.64858485031E+02  0.50956826089E+01 -0.91715278117E+02  0.11244679320E+03  0.00000000000E+00 0. -1.
          2    1    3    3  501    0  0.64858485031E+02 -0.50956826089E+01  0.98856501181E+03  0.99070347311E+03  0.00000000000E+00 0. -1.
<mgrwt>
<rscale>  0 0.64234030E+03</rscale>
<asrwt>0</asrwt>
<pdfrwt beam="1">0</pdfrwt>
<pdfrwt beam="2">  1        2 0.37509267E+00 0.64234030E+03</pdfrwt>
<totfact> 0.49308095E+00</totfact>
</mgrwt>
</event>
<event>
 5    1  0.2369161E-004  0.6942654E+03  0.7818608E-02  0.9727090E-01
         13   -1    0    0    0    0  0.00000000000E+00  0.00000000000E+00  0.10000000000E+04  0.10000000000E+04  0.00000000000E+00 0. -1.
          2   -1    0    0  501    0 -0.00000000000E+00 -0.00000000000E+00 -0.12050112303E+03  0.12050112303E+03  0.00000000000E+00 0. -1.
    9000006    2    1    2  501    0  0.00000000000E+00  0.00000000000E+00  0.87949887697E+03  0.11205011230E+04  0.69426543349E+03 0.  0.
         13    1    3    3    0    0 -0.33182222437E+03  0.95432570996E+02  0.49766616717E+03  0.60571030876E+03  0.00000000000E+00 0. -1.
          4    1    3    3  501    0  0.33182222437E+03 -0.95432570996E+02  0.38183270980E+03  0.51479081427E+03  0.00000000000E+00 0. -1.
<mgrwt>
<rscale>  0 0.69426543E+03</rscale>
<asrwt>0</asrwt>
<pdfrwt beam="1">0</pdfrwt>
<pdfrwt beam="2">  1        2 0.43818683E+00 0.69426543E+03</pdfrwt>
<totfact> 0.28360629E+00</totfact>
</mgrwt>
</event>
<event>
 5    1  0.2369161E-004  0.6398243E+03  0.7818608E-02  0.9826063E-01
         13   -1    0    0    0    0  0.00000000000E+00  0.00000000000E+00  0.10000000000E+04  0.10000000000E+04  0.00000000000E+00 0. -1.
          2   -1    0    0  501    0 -0.00000000000E+00 -0.00000000000E+00 -0.10234377557E+03  0.10234377557E+03  0.00000000000E+00 0. -1.
    9000006    2    1    2  501    0  0.00000000000E+00  0.00000000000E+00  0.89765622443E+03  0.11023437756E+04  0.63982427454E+03 0.  0.
         13    1    3    3    0    0 -0.23265263073E+03  0.21611682912E+03  0.38187800009E+03  0.49665333721E+03  0.00000000000E+00 0. -1.
          2    1    3    3  501    0  0.23265263073E+03 -0.21611682912E+03  0.51577822434E+03  0.60569043836E+03  0.00000000000E+00 0. -1.
<mgrwt>
<rscale>  0 0.63982427E+03</rscale>
<asrwt>0</asrwt>
<pdfrwt beam="1">0</pdfrwt>
<pdfrwt beam="2">  1        2 0.37215997E+00 0.63982427E+03</pdfrwt>
<totfact> 0.50555885E+00</totfact>
</mgrwt>
</event>
<event>
 5    1  0.2369161E-004  0.6486968E+03  0.7818608E-02  0.9809228E-01
         13   -1    0    0    0    0  0.00000000000E+00  0.00000000000E+00  0.10000000000E+04  0.10000000000E+04  0.00000000000E+00 0. -1.
          2   -1    0    0  501    0 -0.00000000000E+00 -0.00000000000E+00 -0.10520186990E+03  0.10520186990E+03  0.00000000000E+00 0. -1.
    9000006    2    1    2  501    0  0.00000000000E+00  0.00000000000E+00  0.89479813010E+03  0.11052018699E+04  0.64869675474E+03 0.  0.
         13    1    3    3    0    0 -0.23635244857E+03 -0.75525385833E+01  0.69178110599E+02  0.24638411428E+03  0.00000000000E+00 0. -1.
          4    1    3    3  501    0  0.23635244857E+03  0.75525385833E+01  0.82562001950E+03  0.85881775563E+03  0.00000000000E+00 0. -1.
<mgrwt>
<rscale>  0 0.64869675E+03</rscale>
<asrwt>0</asrwt>
<pdfrwt beam="1">0</pdfrwt>
<pdfrwt beam="2">  1        2 0.38255306E+00 0.64869675E+03</pdfrwt>
<totfact> 0.46259733E+00</totfact>
</mgrwt>
</event>
<event>
 5    1  0.2369161E-004  0.6286471E+03  0.7818608E-02  0.9847692E-01
         13   -1    0    0    0    0  0.00000000000E+00  0.00000000000E+00  0.10000000000E+04  0.10000000000E+04  0.00000000000E+00 0. -1.
          2   -1    0    0  501    0 -0.00000000000E+00 -0.00000000000E+00 -0.98799307503E+02  0.98799307503E+02  0.00000000000E+00 0. -1.
    9000006    2    1    2  501    0  0.00000000000E+00  0.00000000000E+00  0.90120069250E+03  0.10987993075E+04  0.62864714269E+03 0.  0.
         13    1    3    3    0    0  0.17029208363E+03  0.22019779224E+03  0.19542885304E+03  0.34011600676E+03  0.00000000000E+00 0. -1.
          4    1    3    3  501    0 -0.17029208363E+03 -0.22019779224E+03  0.70577183946E+03  0.75868330074E+03  0.00000000000E+00 0. -1.
<mgrwt>
<rscale>  0 0.62864714E+03</rscale>
<asrwt>0</asrwt>
<pdfrwt beam="1">0</pdfrwt>
<pdfrwt beam="2">  1        2 0.35927097E+00 0.62864714E+03</pdfrwt>
<totfact> 0.56390807E+00</totfact>
</mgrwt>
</event>
<event>
 5    1  0.2369161E-004  0.5437338E+03  0.7818608E-02  0.1002955E+00
         13   -1    0    0    0    0  0.00000000000E+00  0.00000000000E+00  0.10000000000E+04  0.10000000000E+04  0.00000000000E+00 0. -1.
          2   -1    0    0  501    0 -0.00000000000E+00 -0.00000000000E+00 -0.73911608956E+02  0.73911608956E+02  0.00000000000E+00 0. -1.
    9000006    2    1    2  501    0  0.00000000000E+00  0.00000000000E+00  0.92608839104E+03  0.10739116090E+04  0.54373379132E+03 0.  0.
         13    1    3    3    0    0 -0.14963403267E+03  0.15012368181E+02  0.91036955023E+03  0.92270712196E+03  0.00000000000E+00 0. -1.
          4    1    3    3  501    0  0.14963403267E+03 -0.15012368181E+02  0.15718840811E+02  0.15120448699E+03  0.00000000000E+00 0. -1.
<mgrwt>
<rscale>  0 0.54373379E+03</rscale>
<asrwt>0</asrwt>
<pdfrwt beam="1">0</pdfrwt>
<pdfrwt beam="2">  1        2 0.26877005E+00 0.54373379E+03</pdfrwt>
<totfact> 0.11938626E+01</totfact>
</mgrwt>
</event>
<event>
 5    1  0.2369161E-004  0.6526702E+03  0.7818608E-02  0.9801782E-01
         13   -1    0    0    0    0  0.00000000000E+00  0.00000000000E+00  0.10000000000E+04  0.10000000000E+04  0.00000000000E+00 0. -1.
          2   -1    0    0  501    0 -0.00000000000E+00 -0.00000000000E+00 -0.10649461225E+03  0.10649461225E+03  0.00000000000E+00 0. -1.
    9000006    2    1    2  501    0  0.00000000000E+00  0.00000000000E+00  0.89350538775E+03  0.11064946122E+04  0.65267024521E+03 0.  0.
         13    1    3    3    0    0  0.20393698498E+03  0.19272362396E+03  0.72922785411E+03  0.78134880321E+03  0.00000000000E+00 0. -1.
          4    1    3    3  501    0 -0.20393698498E+03 -0.19272362396E+03  0.16427753365E+03  0.32514580904E+03  0.00000000000E+00 0. -1.
<mgrwt>
<rscale>  0 0.65267025E+03</rscale>
<asrwt>0</asrwt>
<pdfrwt beam="1">0</pdfrwt>
<pdfrwt beam="2">  1        2 0.38725395E+00 0.65267025E+03</pdfrwt>
<totfact> 0.44427973E+00</totfact>
</mgrwt>
</event>
<event>
 5    1  0.2369161E-004  0.6799857E+03  0.7818608E-02  0.9752085E-01
         13   -1    0    0    0    0  0.00000000000E+00  0.00000000000E+00  0.10000000000E+04  0.10000000000E+04  0.00000000000E+00 0. -1.
          2   -1    0    0  501    0 -0.00000000000E+00 -0.00000000000E+00 -0.11559514011E+03  0.11559514011E+03  0.00000000000E+00 0. -1.
    9000006    2    1    2  501    0  0.00000000000E+00  0.00000000000E+00  0.88440485989E+03  0.11155951401E+04  0.67998570607E+03 0.  0.
         13    1    3    3    0    0  0.10942229197E+03 -0.13405725554E+03 -0.37942026770E+02  0.17715581599E+03  0.00000000000E+00 0. -1.
          4    1    3    3  501    0 -0.10942229197E+03  0.13405725554E+03  0.92234688666E+03  0.93843932413E+03  0.00000000000E+00 0. -1.
<mgrwt>
<rscale>  0 0.67998571E+03</rscale>
<asrwt>0</asrwt>
<pdfrwt beam="1">0</pdfrwt>
<pdfrwt beam="2">  1        2 0.42034685E+00 0.67998571E+03</pdfrwt>
<totfact> 0.33273213E+00</totfact>
</mgrwt>
</event>
<event>
 5    1  0.2369161E-004  0.6432178E+03  0.7818608E-02  0.9819589E-01
         13   -1    0    0    0    0  0.00000000000E+00  0.00000000000E+00  0.10000000000E+04  0.10000000000E+04  0.00000000000E+00 0. -1.
          2   -1    0    0  501    0 -0.00000000000E+00 -0.00000000000E+00 -0.10343228259E+03  0.10343228259E+03  0.00000000000E+00 0. -1.
    9000006    2    1    2  501    0  0.00000000000E+00  0.00000000000E+00  0.89656771741E+03  0.11034322826E+04  0.64321779387E+03 0.  0.
         13    1    3    3    0    0  0.31752227837E+03 -0.45730663711E+02  0.40914246680E+03  0.51991273210E+03  0.00000000000E+00 0. -1.
          4    1    3    3  501    0 -0.31752227837E+03  0.45730663711E+02  0.48742525061E+03  0.58351955048E+03  0.00000000000E+00 0. -1.
<mgrwt>
<rscale>  0 0.64321779E+03</rscale>
<asrwt>0</asrwt>
<pdfrwt beam="1">0</pdfrwt>
<pdfrwt beam="2">  1        2 0.37611818E+00 0.64321779E+03</pdfrwt>
<totfact> 0.48878471E+00</totfact>
</mgrwt>
</event>
<event>
 5    1  0.2369161E-004  0.6428540E+03  0.7818608E-02  0.9820281E-01
         13   -1    0    0    0    0  0.00000000000E+00  0.00000000000E+00  0.10000000000E+04  0.10000000000E+04  0.00000000000E+00 0. -1.
          2   -1    0    0  501    0 -0.00000000000E+00 -0.00000000000E+00 -0.10331531028E+03  0.10331531028E+03  0.00000000000E+00 0. -1.
    9000006    2    1    2  501    0  0.00000000000E+00  0.00000000000E+00  0.89668468972E+03  0.11033153103E+04  0.64285398118E+03 0.  0.
         13    1    3    3    0    0  0.17411342089E+03 -0.25325150320E+03  0.60992323890E+03  0.68297742610E+03  0.00000000000E+00 0. -1.
          2    1    3    3  501    0 -0.17411342089E+03  0.25325150320E+03  0.28676145082E+03  0.42033788418E+03  0.00000000000E+00 0. -1.
<mgrwt>
<rscale>  0 0.64285398E+03</rscale>
<asrwt>0</asrwt>
<pdfrwt beam="1">0</pdfrwt>
<pdfrwt beam="2">  1        2 0.37569283E+00 0.64285398E+03</pdfrwt>
<totfact> 0.49056244E+00</totfact>
</mgrwt>
</event>
<event>
 5    1  0.2369161E-004  0.6376174E+03  0.7818608E-02  0.9830296E-01
         13   -1    0    0    0    0  0.00000000000E+00  0.00000000000E+00  0.10000000000E+04  0.10000000000E+04  0.00000000000E+00 0. -1.
          2   -1    0    0  501    0 -0.00000000000E+00 -0.00000000000E+00 -0.10163899481E+03  0.10163899481E+03  0.00000000000E+00 0. -1.
    9000006    2    1    2  501    0  0.00000000000E+00  0.00000000000E+00  0.89836100519E+03  0.11016389948E+04  0.63761742390E+03 0.  0.
         13    1    3    3    0    0  0.10558754783E+03 -0.21091976498E+03  0.78608371728E+02  0.24862653443E+03  0.00000000000E+00 0. -1.
          4    1    3    3  501    0 -0.10558754783E+03  0.21091976498E+03  0.81975263346E+03  0.85301246039E+03  0.00000000000E+00 0. -1.
<mgrwt>
<rscale>  0 0.63761742E+03</rscale>
<asrwt>0</asrwt>
<pdfrwt beam="1">0</pdfrwt>
<pdfrwt beam="2">  1        2 0.36959712E+00 0.63761742E+03</pdfrwt>
<totfact> 0.51669900E+00</totfact>
</mgrwt>
</event>
<event>
 5    1  0.2369161E-004  0.6493544E+03  0.7818608E-02  0.9807991E-01
         13   -1    0    0    0    0  0.00000000000E+00  0.00000000000E+00  0.10000000000E+04  0.10000000000E+04  0.00000000000E+00 0. -1.
          2   -1    0    0  501    0 -0.00000000000E+00 -0.00000000000E+00 -0.10541529468E+03  0.10541529468E+03  0.00000000000E+00 0. -1.
    9000006    2    1    2  501    0  0.00000000000E+00  0.00000000000E+00  0.89458470532E+03  0.11054152947E+04  0.64935443227E+03 0.  0.
         13    1    3    3    0    0  0.29948685352E+03 -0.12002932079E+03  0.38554020963E+03  0.50273319616E+03  0.00000000000E+00 0. -1.
          4    1    3    3  501    0 -0.29948685352E+03  0.12002932079E+03  0.50904449569E+03  0.60268209852E+03  0.00000000000E+00 0. -1.
<mgrwt>
<rscale>  0 0.64935443E+03</rscale>
<asrwt>0</asrwt>
<pdfrwt beam="1">0</pdfrwt>
<pdfrwt beam="2">  1        2 0.38332915E+00 0.64935443E+03</pdfrwt>
<totfact> 0.45952675E+00</totfact>
</mgrwt>
</event>
<event>
 5    1  0.2369161E-004  0.6421467E+03  0.7818608E-02  0.9821628E-01
         13   -1    0    0    0    0  0.00000000000E+00  0.00000000000E+00  0.10000000000E+04  0.10000000000E+04  0.00000000000E+00 0. -1.
          2   -1    0    0  501    0 -0.00000000000E+00 -0.00000000000E+00 -0.10308811024E+03  0.10308811024E+03  0.00000000000E+00 0. -1.
    9000006    2    1    2  501    0  0.00000000000E+00  0.00000000000E+00  0.89691188976E+03  0.11030881102E+04  0.64214674410E+03 0.  0.
         13    1    3    3    0    0 -0.21339015655E+03 -0.14879201283E+03  0.12518885134E+03  0.28869823431E+03  0.00000000000E+00 0. -1.
          2    1    3    3  501    0  0.21339015655E+03  0.14879201283E+03  0.77172303842E+03  0.81438987593E+03  0.00000000000E+00 0. -1.
<mgrwt>
<rscale>  0 0.64214674E+03</rscale>
<asrwt>0</asrwt>
<pdfrwt beam="1">0</pdfrwt>
<pdfrwt beam="2">  1        2 0.37486665E+00 0.64214674E+03</pdfrwt>
<totfact> 0.49403251E+00</totfact>
</mgrwt>
</event>
<event>
 5    1  0.2369161E-004  0.5984958E+03  0.7818608E-02  0.9908532E-01
         13   -1    0    0    0    0  0.00000000000E+00  0.00000000000E+00  0.10000000000E+04  0.10000000000E+04  0.00000000000E+00 0. -1.
          2   -1    0    0  501    0 -0.00000000000E+00 -0.00000000000E+00 -0.89549316521E+02  0.89549316521E+02  0.00000000000E+00 0. -1.
    9000006    2    1    2  501    0  0.00000000000E+00  0.00000000000E+00  0.91045068348E+03  0.10895493165E+04  0.59849583631E+03 0.  0.
         13    1    3    3    0    0  0.92138392994E+02  0.16797304503E+03  0.87371743299E+03  0.89447558940E+03  0.00000000000E+00 0. -1.
          2    1    3    3  501    0 -0.92138392994E+02 -0.16797304503E+03  0.36733250489E+02  0.19507372712E+03  0.00000000000E+00 0. -1.
<mgrwt>
<rscale>  0 0.59849584E+03</rscale>
<asrwt>0</asrwt>
<pdfrwt beam="1">0</pdfrwt>
<pdfrwt beam="2">  1        2 0.32563456E+00 0.59849584E+03</pdfrwt>
<totfact> 0.74701799E+00</totfact>
</mgrwt>
</event>
<event>
 5    1  0.2369161E-004  0.6540554E+03  0.7818608E-02  0.9799199E-01
         13   -1    0    0    0    0  0.00000000000E+00  0.00000000000E+00  0.10000000000E+04  0.10000000000E+04  0.00000000000E+00 0. -1.
          2   -1    0    0  501    0 -0.00000000000E+00 -0.00000000000E+00 -0.10694710968E+03  0.10694710968E+03  0.00000000000E+00 0. -1.
    9000006    2    1    2  501    0  0.00000000000E+00  0.00000000000E+00  0.89305289032E+03  0.11069471097E+04  0.65405537893E+03 0.  0.
         13    1    3    3    0    0  0.31409047721E+03  0.90980359321E+02  0.45347492639E+03  0.55907938839E+03  0.00000000000E+00 0. -1.
          2    1    3    3  501    0 -0.31409047721E+03 -0.90980359321E+02  0.43957796393E+03  0.54786772129E+03  0.00000000000E+00 0. -1.
<mgrwt>
<rscale>  0 0.65405538E+03</rscale>
<asrwt>0</asrwt>
<pdfrwt beam="1">0</pdfrwt>
<pdfrwt beam="2">  1        2 0.38889940E+00 0.65405538E+03</pdfrwt>
<totfact> 0.43802499E+00</totfact>
</mgrwt>
</event>
<event>
 5    1  0.2369161E-004  0.6559313E+03  0.7818608E-02  0.9795713E-01
         13   -1    0    0    0    0  0.00000000000E+00  0.00000000000E+00  0.10000000000E+04  0.10000000000E+04  0.00000000000E+00 0. -1.
          2   -1    0    0  501    0 -0.00000000000E+00 -0.00000000000E+00 -0.10756148280E+03  0.10756148280E+03  0.00000000000E+00 0. -1.
    9000006    2    1    2  501    0  0.00000000000E+00  0.00000000000E+00  0.89243851720E+03  0.11075614828E+04  0.65593134641E+03 0.  0.
         13    1    3    3    0    0 -0.79701756783E+02 -0.12572783029E+03 -0.47230029169E+02  0.15617468744E+03  0.00000000000E+00 0. -1.
          2    1    3    3  501    0  0.79701756783E+02  0.12572783029E+03  0.93966854637E+03  0.95138679536E+03  0.00000000000E+00 0. -1.
<mgrwt>
<rscale>  0 0.65593135E+03</rscale>
<asrwt>0</asrwt>
<pdfrwt beam="1">0</pdfrwt>
<pdfrwt beam="2">  1        2 0.39113349E+00 0.65593135E+03</pdfrwt>
<totfact> 0.42966014E+00</totfact>
</mgrwt>
</event>
<event>
 5    1  0.2369161E-004  0.6581610E+03  0.7818608E-02  0.9791585E-01
         13   -1    0    0    0    0  0.00000000000E+00  0.00000000000E+00  0.10000000000E+04  0.10000000000E+04  0.00000000000E+00 0. -1.
          2   -1    0    0  501    0 -0.00000000000E+00 -0.00000000000E+00 -0.10829397224E+03  0.10829397224E+03  0.00000000000E+00 0. -1.
    9000006    2    1    2  501    0  0.00000000000E+00  0.00000000000E+00  0.89170602776E+03  0.11082939722E+04  0.65816099017E+03 0.  0.
         13    1    3    3    0    0 -0.88880520422E+02 -0.28046821154E+03  0.69409244068E+03  0.75387431366E+03  0.00000000000E+00 0. -1.
          4    1    3    3  501    0  0.88880520422E+02  0.28046821154E+03  0.19761358708E+03  0.35441965858E+03  0.00000000000E+00 0. -1.
<mgrwt>
<rscale>  0 0.65816099E+03</rscale>
<asrwt>0</asrwt>
<pdfrwt beam="1">0</pdfrwt>
<pdfrwt beam="2">  1        2 0.39379709E+00 0.65816099E+03</pdfrwt>
<totfact> 0.41987580E+00</totfact>
</mgrwt>
</event>
<event>
 5    1  0.2369161E-004  0.6589951E+03  0.7818608E-02  0.9790045E-01
         13   -1    0    0    0    0  0.00000000000E+00  0.00000000000E+00  0.10000000000E+04  0.10000000000E+04  0.00000000000E+00 0. -1.
          2   -1    0    0  501    0 -0.00000000000E+00 -0.00000000000E+00 -0.10856864271E+03  0.10856864271E+03  0.00000000000E+00 0. -1.
    9000006    2    1    2  501    0  0.00000000000E+00  0.00000000000E+00  0.89143135729E+03  0.11085686427E+04  0.65899512201E+03 0.  0.
         13    1    3    3    0    0 -0.30227010487E+03  0.12335467415E+02  0.22606467569E+03  0.37765674580E+03  0.00000000000E+00 0. -1.
          2    1    3    3  501    0  0.30227010487E+03 -0.12335467415E+02  0.66536668161E+03  0.73091189691E+03  0.00000000000E+00 0. -1.
<mgrwt>
<rscale>  0 0.65899512E+03</rscale>
<asrwt>0</asrwt>
<pdfrwt beam="1">0</pdfrwt>
<pdfrwt beam="2">  1        2 0.39479590E+00 0.65899512E+03</pdfrwt>
<totfact> 0.41625925E+00</totfact>
</mgrwt>
</event>
<event>
 5    1  0.2369161E-004  0.6665962E+03  0.7818608E-02  0.9776126E-01
         13   -1    0    0    0    0  0.00000000000E+00  0.00000000000E+00  0.10000000000E+04  0.10000000000E+04  0.00000000000E+00 0. -1.
          2   -1    0    0  501    0 -0.00000000000E+00 -0.00000000000E+00 -0.11108763138E+03  0.11108763138E+03  0.00000000000E+00 0. -1.
    9000006    2    1    2  501    0  0.00000000000E+00  0.00000000000E+00  0.88891236862E+03  0.11110876314E+04  0.66659622374E+03 0.  0.
         13    1    3    3    0    0  0.17064279492E+03  0.28191973969E+03  0.36128385133E+03  0.48900278560E+03  0.00000000000E+00 0. -1.
          2    1    3    3  501    0 -0.17064279492E+03 -0.28191973969E+03  0.52762851729E+03  0.62208484578E+03  0.00000000000E+00 0. -1.
<mgrwt>
<rscale>  0 0.66659622E+03</rscale>
<asrwt>0</asrwt>
<pdfrwt beam="1">0</pdfrwt>
<pdfrwt beam="2">  1        2 0.40395588E+00 0.66659622E+03</pdfrwt>
<totfact> 0.38437586E+00</totfact>
</mgrwt>
</event>
<event>
 5    1  0.2369161E-004  0.6735143E+03  0.7818608E-02  0.9763630E-01
         13   -1    0    0    0    0  0.00000000000E+00  0.00000000000E+00  0.10000000000E+04  0.10000000000E+04  0.00000000000E+00 0. -1.
          2   -1    0    0  501    0 -0.00000000000E+00 -0.00000000000E+00 -0.11340538292E+03  0.11340538292E+03  0.00000000000E+00 0. -1.
    9000006    2    1    2  501    0  0.00000000000E+00  0.00000000000E+00  0.88659461708E+03  0.11134053829E+04  0.67351431440E+03 0.  0.
         13    1    3    3    0    0 -0.30933413079E+03  0.10484141035E+03  0.57887454033E+03  0.66466161258E+03  0.00000000000E+00 0. -1.
          2    1    3    3  501    0  0.30933413079E+03 -0.10484141035E+03  0.30772007675E+03  0.44874377035E+03  0.00000000000E+00 0. -1.
<mgrwt>
<rscale>  0 0.67351431E+03</rscale>
<asrwt>0</asrwt>
<pdfrwt beam="1">0</pdfrwt>
<pdfrwt beam="2">  1        2 0.41238408E+00 0.67351431E+03</pdfrwt>
<totfact> 0.35699099E+00</totfact>
</mgrwt>
</event>
<event>
 5    1  0.2369161E-004  0.6416678E+03  0.7818608E-02  0.9822541E-01
         13   -1    0    0    0    0  0.00000000000E+00  0.00000000000E+00  0.10000000000E+04  0.10000000000E+04  0.00000000000E+00 0. -1.
          2   -1    0    0  501    0 -0.00000000000E+00 -0.00000000000E+00 -0.10293437900E+03  0.10293437900E+03  0.00000000000E+00 0. -1.
    9000006    2    1    2  501    0  0.00000000000E+00  0.00000000000E+00  0.89706562100E+03  0.11029343790E+04  0.64166776140E+03 0.  0.
         13    1    3    3    0    0 -0.18301486338E+03  0.12834823682E+03  0.84411869311E+03  0.87321479498E+03  0.00000000000E+00 0. -1.
          4    1    3    3  501    0  0.18301486338E+03 -0.12834823682E+03  0.52946927890E+02  0.22971958403E+03  0.00000000000E+00 0. -1.
<mgrwt>
<rscale>  0 0.64166776E+03</rscale>
<asrwt>0</asrwt>
<pdfrwt beam="1">0</pdfrwt>
<pdfrwt beam="2">  1        2 0.37430762E+00 0.64166776E+03</pdfrwt>
<totfact> 0.49639323E+00</totfact>
</mgrwt>
</event>
<event>
 5    1  0.2369161E-004  0.6663380E+03  0.7818608E-02  0.9776596E-01
         13   -1    0    0    0    0  0.00000000000E+00  0.00000000000E+00  0.10000000000E+04  0.10000000000E+04  0.00000000000E+00 0. -1.
          2   -1    0    0  501    0 -0.00000000000E+00 -0.00000000000E+00 -0.11100158292E+03  0.11100158292E+03  0.00000000000E+00 0. -1.
    9000006    2    1    2  501    0  0.00000000000E+00  0.00000000000E+00  0.88899841708E+03  0.11110015829E+04  0.66633800109E+03 0.  0.
         13    1    3    3    0    0  0.25005024072E+03 -0.10630005496E+03  0.12301780531E+03  0.29825862099E+03  0.00000000000E+00 0. -1.
          2    1    3    3  501    0 -0.25005024072E+03  0.10630005496E+03  0.76598061177E+03  0.81274296194E+03  0.00000000000E+00 0. -1.
<mgrwt>
<rscale>  0 0.66633800E+03</rscale>
<asrwt>0</asrwt>
<pdfrwt beam="1">0</pdfrwt>
<pdfrwt beam="2">  1        2 0.40364297E+00 0.66633800E+03</pdfrwt>
<totfact> 0.38542775E+00</totfact>
</mgrwt>
</event>
<event>
 5    1  0.2369161E-004  0.6875032E+03  0.7818608E-02  0.9738845E-01
         13   -1    0    0    0    0  0.00000000000E+00  0.00000000000E+00  0.10000000000E+04  0.10000000000E+04  0.00000000000E+00 0. -1.
          2   -1    0    0  501    0 -0.00000000000E+00 -0.00000000000E+00 -0.11816516944E+03  0.11816516944E+03  0.00000000000E+00 0. -1.
    9000006    2    1    2  501    0  0.00000000000E+00  0.00000000000E+00  0.88183483056E+03  0.11181651694E+04  0.68750322020E+03 0.  0.
         13    1    3    3    0    0 -0.16640340919E+03  0.22013891224E+03  0.77428847732E+03  0.82199384510E+03  0.00000000000E+00 0. -1.
          2    1    3    3  501    0  0.16640340919E+03 -0.22013891224E+03  0.10754635324E+03  0.29617132435E+03  0.00000000000E+00 0. -1.
<mgrwt>
<rscale>  0 0.68750322E+03</rscale>
<asrwt>0</asrwt>
<pdfrwt beam="1">0</pdfrwt>
<pdfrwt beam="2">  1        2 0.42969243E+00 0.68750322E+03</pdfrwt>
<totfact> 0.30613382E+00</totfact>
</mgrwt>
</event>
<event>
 5    1  0.2369161E-004  0.6433477E+03  0.7818608E-02  0.9819343E-01
         13   -1    0    0    0    0  0.00000000000E+00  0.00000000000E+00  0.10000000000E+04  0.10000000000E+04  0.00000000000E+00 0. -1.
          2   -1    0    0  501    0 -0.00000000000E+00 -0.00000000000E+00 -0.10347405015E+03  0.10347405015E+03  0.00000000000E+00 0. -1.
    9000006    2    1    2  501    0  0.00000000000E+00  0.00000000000E+00  0.89652594985E+03  0.11034740502E+04  0.64334765144E+03 0.  0.
         13    1    3    3    0    0  0.24200827431E+03  0.12044303495E+03  0.14920886700E+03  0.30876822293E+03  0.00000000000E+00 0. -1.
          2    1    3    3  501    0 -0.24200827431E+03 -0.12044303495E+03  0.74731708285E+03  0.79470582722E+03  0.00000000000E+00 0. -1.
<mgrwt>
<rscale>  0 0.64334765E+03</rscale>
<asrwt>0</asrwt>
<pdfrwt beam="1">0</pdfrwt>
<pdfrwt beam="2">  1        2 0.37627007E+00 0.64334765E+03</pdfrwt>
<totfact> 0.48815136E+00</totfact>
</mgrwt>
</event>
<event>
 5    1  0.2369161E-004  0.6390697E+03  0.7818608E-02  0.9827508E-01
         13   -1    0    0    0    0  0.00000000000E+00  0.00000000000E+00  0.10000000000E+04  0.10000000000E+04  0.00000000000E+00 0. -1.
          2   -1    0    0  501    0 -0.00000000000E+00 -0.00000000000E+00 -0.10210251516E+03  0.10210251516E+03  0.00000000000E+00 0. -1.
    9000006    2    1    2  501    0  0.00000000000E+00  0.00000000000E+00  0.89789748484E+03  0.11021025152E+04  0.63906968372E+03 0.  0.
         13    1    3    3    0    0  0.27460440678E+03  0.12229140190E+03  0.26209441333E+03  0.39881856615E+03  0.00000000000E+00 0. -1.
          4    1    3    3  501    0 -0.27460440678E+03 -0.12229140190E+03  0.63580307150E+03  0.70328394901E+03  0.00000000000E+00 0. -1.
<mgrwt>
<rscale>  0 0.63906968E+03</rscale>
<asrwt>0</asrwt>
<pdfrwt beam="1">0</pdfrwt>
<pdfrwt beam="2">  1        2 0.37128266E+00 0.63906968E+03</pdfrwt>
<totfact> 0.50934733E+00</totfact>
</mgrwt>
</event>
<event>
 5    1  0.2369161E-004  0.6487774E+03  0.7818608E-02  0.9809076E-01
         13   -1    0    0    0    0  0.00000000000E+00  0.00000000000E+00  0.10000000000E+04  0.10000000000E+04  0.00000000000E+00 0. -1.
          2   -1    0    0  501    0 -0.00000000000E+00 -0.00000000000E+00 -0.10522802058E+03  0.10522802058E+03  0.00000000000E+00 0. -1.
    9000006    2    1    2  501    0  0.00000000000E+00  0.00000000000E+00  0.89477197942E+03  0.11052280206E+04  0.64877737500E+03 0.  0.
         13    1    3    3    0    0 -0.12585811751E+03  0.22112352062E+03  0.79018659035E+03  0.83013897913E+03  0.00000000000E+00 0. -1.
          2    1    3    3  501    0  0.12585811751E+03 -0.22112352062E+03  0.10458538908E+03  0.27508904144E+03  0.00000000000E+00 0. -1.
<mgrwt>
<rscale>  0 0.64877737E+03</rscale>
<asrwt>0</asrwt>
<pdfrwt beam="1">0</pdfrwt>
<pdfrwt beam="2">  1        2 0.38264815E+00 0.64877737E+03</pdfrwt>
<totfact> 0.46222009E+00</totfact>
</mgrwt>
</event>
<event>
 5    1  0.2369161E-004  0.6153063E+03  0.7818608E-02  0.9874150E-01
         13   -1    0    0    0    0  0.00000000000E+00  0.00000000000E+00  0.10000000000E+04  0.10000000000E+04  0.00000000000E+00 0. -1.
          2   -1    0    0  501    0 -0.00000000000E+00 -0.00000000000E+00 -0.94650456333E+02  0.94650456333E+02  0.00000000000E+00 0. -1.
    9000006    2    1    2  501    0  0.00000000000E+00  0.00000000000E+00  0.90534954367E+03  0.10946504563E+04  0.61530628579E+03 0.  0.
         13    1    3    3    0    0 -0.13231337924E+03  0.25327001928E+03  0.65549959050E+03  0.71507499336E+03  0.00000000000E+00 0. -1.
          4    1    3    3  501    0  0.13231337924E+03 -0.25327001928E+03  0.24984995317E+03  0.37957546297E+03  0.00000000000E+00 0. -1.
<mgrwt>
<rscale>  0 0.61530629E+03</rscale>
<asrwt>0</asrwt>
<pdfrwt beam="1">0</pdfrwt>
<pdfrwt beam="2">  1        2 0.34418420E+00 0.61530629E+03</pdfrwt>
<totfact> 0.64010051E+00</totfact>
</mgrwt>
</event>
<event>
 5    1  0.2369161E-004  0.6375834E+03  0.7818608E-02  0.9830361E-01
         13   -1    0    0    0    0  0.00000000000E+00  0.00000000000E+00  0.10000000000E+04  0.10000000000E+04  0.00000000000E+00 0. -1.
          2   -1    0    0  501    0 -0.00000000000E+00 -0.00000000000E+00 -0.10162813706E+03  0.10162813706E+03  0.00000000000E+00 0. -1.
    9000006    2    1    2  501    0  0.00000000000E+00  0.00000000000E+00  0.89837186294E+03  0.11016281371E+04  0.63758336572E+03 0.  0.
         13    1    3    3    0    0 -0.22484378453E+03  0.11731686637E+03  0.11544335676E+03  0.27864878108E+03  0.00000000000E+00 0. -1.
          4    1    3    3  501    0  0.22484378453E+03 -0.11731686637E+03  0.78292850618E+03  0.82297935598E+03  0.00000000000E+00 0. -1.
<mgrwt>
<rscale>  0 0.63758337E+03</rscale>
<asrwt>0</asrwt>
<pdfrwt beam="1">0</pdfrwt>
<pdfrwt beam="2">  1        2 0.36955764E+00 0.63758337E+03</pdfrwt>
<totfact> 0.51687237E+00</totfact>
</mgrwt>
</event>
<event>
 5    1  0.2369161E-004  0.6449360E+03  0.7818608E-02  0.9816328E-01
         13   -1    0    0    0    0  0.00000000000E+00  0.00000000000E+00  0.10000000000E+04  0.10000000000E+04  0.00000000000E+00 0. -1.
          2   -1    0    0  501    0 -0.00000000000E+00 -0.00000000000E+00 -0.10398560356E+03  0.10398560356E+03  0.00000000000E+00 0. -1.
    9000006    2    1    2  501    0  0.00000000000E+00  0.00000000000E+00  0.89601439644E+03  0.11039856036E+04  0.64493597686E+03 0.  0.
         13    1    3    3    0    0  0.27969458571E+03  0.15361744568E+03  0.52753059664E+03  0.61653540959E+03  0.00000000000E+00 0. -1.
          4    1    3    3  501    0 -0.27969458571E+03 -0.15361744568E+03  0.36848379980E+03  0.48745019397E+03  0.00000000000E+00 0. -1.
<mgrwt>
<rscale>  0 0.64493598E+03</rscale>
<asrwt>0</asrwt>
<pdfrwt beam="1">0</pdfrwt>
<pdfrwt beam="2">  1        2 0.37813026E+00 0.64493598E+03</pdfrwt>
<totfact> 0.48045482E+00</totfact>
</mgrwt>
</event>
<event>
 5    1  0.2369161E-004  0.6309277E+03  0.7818608E-02  0.9843240E-01
         13   -1    0    0    0    0  0.00000000000E+00  0.00000000000E+00  0.10000000000E+04  0.10000000000E+04  0.00000000000E+00 0. -1.
          2   -1    0    0  501    0 -0.00000000000E+00 -0.00000000000E+00 -0.99517448625E+02  0.99517448625E+02  0.00000000000E+00 0. -1.
    9000006    2    1    2  501    0  0.00000000000E+00  0.00000000000E+00  0.90048255137E+03  0.10995174486E+04  0.63092772526E+03 0.  0.
         13    1    3    3    0    0 -0.15603996265E+03 -0.98777818040E+02  0.89594982685E+03  0.91478501273E+03  0.00000000000E+00 0. -1.
          2    1    3    3  501    0  0.15603996265E+03  0.98777818040E+02  0.45327245259E+01  0.18473243590E+03  0.00000000000E+00 0. -1.
<mgrwt>
<rscale>  0 0.63092773E+03</rscale>
<asrwt>0</asrwt>
<pdfrwt beam="1">0</pdfrwt>
<pdfrwt beam="2">  1        2 0.36188239E+00 0.63092773E+03</pdfrwt>
<totfact> 0.55160785E+00</totfact>
</mgrwt>
</event>
<event>
 5    1  0.2369161E-004  0.6526785E+03  0.7818608E-02  0.9801766E-01
         13   -1    0    0    0    0  0.00000000000E+00  0.00000000000E+00  0.10000000000E+04  0.10000000000E+04  0.00000000000E+00 0. -1.
          2   -1    0    0  501    0 -0.00000000000E+00 -0.00000000000E+00 -0.10649731695E+03  0.10649731695E+03  0.00000000000E+00 0. -1.
    9000006    2    1    2  501    0  0.00000000000E+00  0.00000000000E+00  0.89350268305E+03  0.11064973169E+04  0.65267853328E+03 0.  0.
         13    1    3    3    0    0 -0.31910348801E+02  0.24627343513E+03  0.87806383202E+02  0.26339862593E+03  0.00000000000E+00 0. -1.
          2    1    3    3  501    0  0.31910348801E+02 -0.24627343513E+03  0.80569629985E+03  0.84309869102E+03  0.00000000000E+00 0. -1.
<mgrwt>
<rscale>  0 0.65267853E+03</rscale>
<asrwt>0</asrwt>
<pdfrwt beam="1">0</pdfrwt>
<pdfrwt beam="2">  1        2 0.38726379E+00 0.65267853E+03</pdfrwt>
<totfact> 0.44424211E+00</totfact>
</mgrwt>
</event>
<event>
 5    1  0.2369161E-004  0.6564282E+03  0.7818608E-02  0.9794791E-01
         13   -1    0    0    0    0  0.00000000000E+00  0.00000000000E+00  0.10000000000E+04  0.10000000000E+04  0.00000000000E+00 0. -1.
          2   -1    0    0  501    0 -0.00000000000E+00 -0.00000000000E+00 -0.10772450354E+03  0.10772450354E+03  0.00000000000E+00 0. -1.
    9000006    2    1    2  501    0  0.00000000000E+00  0.00000000000E+00  0.89227549646E+03  0.11077245035E+04  0.65642822468E+03 0.  0.
         13    1    3    3    0    0  0.31443671073E+03  0.43498958649E+02  0.58693960378E+03  0.66727857971E+03  0.00000000000E+00 0. -1.
          4    1    3    3  501    0 -0.31443671073E+03 -0.43498958649E+02  0.30533589268E+03  0.44044592383E+03  0.00000000000E+00 0. -1.
<mgrwt>
<rscale>  0 0.65642822E+03</rscale>
<asrwt>0</asrwt>
<pdfrwt beam="1">0</pdfrwt>
<pdfrwt beam="2">  1        2 0.39172629E+00 0.65642822E+03</pdfrwt>
<totfact> 0.42746494E+00</totfact>
</mgrwt>
</event>
<event>
 5    1  0.2369161E-004  0.6456800E+03  0.7818608E-02  0.9814919E-01
         13   -1    0    0    0    0  0.00000000000E+00  0.00000000000E+00  0.10000000000E+04  0.10000000000E+04  0.00000000000E+00 0. -1.
          2   -1    0    0  501    0 -0.00000000000E+00 -0.00000000000E+00 -0.10422567856E+03  0.10422567856E+03  0.00000000000E+00 0. -1.
    9000006    2    1    2  501    0  0.00000000000E+00  0.00000000000E+00  0.89577432144E+03  0.11042256786E+04  0.64568004016E+03 0.  0.
         13    1    3    3    0    0 -0.16426125021E+02 -0.16048790250E+03  0.92612336733E+03  0.94006950591E+03  0.00000000000E+00 0. -1.
          4    1    3    3  501    0  0.16426125021E+02  0.16048790250E+03 -0.30349045893E+02  0.16415617265E+03  0.00000000000E+00 0. -1.
<mgrwt>
<rscale>  0 0.64568004E+03</rscale>
<asrwt>0</asrwt>
<pdfrwt beam="1">0</pdfrwt>
<pdfrwt beam="2">  1        2 0.37900327E+00 0.64568004E+03</pdfrwt>
<totfact> 0.47688107E+00</totfact>
</mgrwt>
</event>
<event>
 5    1  0.2369161E-004  0.6449936E+03  0.7818608E-02  0.9816219E-01
         13   -1    0    0    0    0  0.00000000000E+00  0.00000000000E+00  0.10000000000E+04  0.10000000000E+04  0.00000000000E+00 0. -1.
          2   -1    0    0  501    0 -0.00000000000E+00 -0.00000000000E+00 -0.10400417423E+03  0.10400417423E+03  0.00000000000E+00 0. -1.
    9000006    2    1    2  501    0  0.00000000000E+00  0.00000000000E+00  0.89599582577E+03  0.11040041742E+04  0.64499356348E+03 0.  0.
         13    1    3    3    0    0 -0.16437889107E+03 -0.26794783576E+03  0.32471489651E+03  0.45194715015E+03  0.00000000000E+00 0. -1.
          4    1    3    3  501    0  0.16437889107E+03  0.26794783576E+03  0.57128092926E+03  0.65205702408E+03  0.00000000000E+00 0. -1.
<mgrwt>
<rscale>  0 0.64499356E+03</rscale>
<asrwt>0</asrwt>
<pdfrwt beam="1">0</pdfrwt>
<pdfrwt beam="2">  1        2 0.37819779E+00 0.64499356E+03</pdfrwt>
<totfact> 0.48017751E+00</totfact>
</mgrwt>
</event>
<event>
 5    1  0.2369161E-004  0.6502124E+03  0.7818608E-02  0.9806381E-01
         13   -1    0    0    0    0  0.00000000000E+00  0.00000000000E+00  0.10000000000E+04  0.10000000000E+04  0.00000000000E+00 0. -1.
          2   -1    0    0  501    0 -0.00000000000E+00 -0.00000000000E+00 -0.10569402735E+03  0.10569402735E+03  0.00000000000E+00 0. -1.
    9000006    2    1    2  501    0  0.00000000000E+00  0.00000000000E+00  0.89430597265E+03  0.11056940274E+04  0.65021235716E+03 0.  0.
         13    1    3    3    0    0  0.68382842012E+02  0.31418670922E+03  0.36551908490E+03  0.48681999010E+03  0.00000000000E+00 0. -1.
          4    1    3    3  501    0 -0.68382842012E+02 -0.31418670922E+03  0.52878688775E+03  0.61887403725E+03  0.00000000000E+00 0. -1.
<mgrwt>
<rscale>  0 0.65021236E+03</rscale>
<asrwt>0</asrwt>
<pdfrwt beam="1">0</pdfrwt>
<pdfrwt beam="2">  1        2 0.38434273E+00 0.65021236E+03</pdfrwt>
<totfact> 0.45554445E+00</totfact>
</mgrwt>
</event>
<event>
 5    1  0.2369161E-004  0.6020764E+03  0.7818608E-02  0.9901107E-01
         13   -1    0    0    0    0  0.00000000000E+00  0.00000000000E+00  0.10000000000E+04  0.10000000000E+04  0.00000000000E+00 0. -1.
          2   -1    0    0  501    0 -0.00000000000E+00 -0.00000000000E+00 -0.90624009922E+02  0.90624009922E+02  0.00000000000E+00 0. -1.
    9000006    2    1    2  501    0  0.00000000000E+00  0.00000000000E+00  0.90937599008E+03  0.10906240099E+04  0.60207644007E+03 0.  0.
         13    1    3    3    0    0 -0.41138412302E+02 -0.29471539016E+03  0.53719256826E+03  0.61410535380E+03  0.00000000000E+00 0. -1.
          4    1    3    3  501    0  0.41138412302E+02  0.29471539016E+03  0.37218342181E+03  0.47651865613E+03  0.00000000000E+00 0. -1.
<mgrwt>
<rscale>  0 0.60207644E+03</rscale>
<asrwt>0</asrwt>
<pdfrwt beam="1">0</pdfrwt>
<pdfrwt beam="2">  1        2 0.32954255E+00 0.60207644E+03</pdfrwt>
<totfact> 0.72317711E+00</totfact>
</mgrwt>
</event>
<event>
 5    1  0.2369161E-004  0.6504972E+03  0.7818608E-02  0.9805847E-01
         13   -1    0    0    0    0  0.00000000000E+00  0.00000000000E+00  0.10000000000E+04  0.10000000000E+04  0.00000000000E+00 0. -1.
          2   -1    0    0  501    0 -0.00000000000E+00 -0.00000000000E+00 -0.10578664800E+03  0.10578664800E+03  0.00000000000E+00 0. -1.
    9000006    2    1    2  501    0  0.00000000000E+00  0.00000000000E+00  0.89421335200E+03  0.11057866480E+04  0.65049718832E+03 0.  0.
         13    1    3    3    0    0  0.24276973694E+03  0.16728666872E+03  0.68058714773E+03  0.74170131480E+03  0.00000000000E+00 0. -1.
          4    1    3    3  501    0 -0.24276973694E+03 -0.16728666872E+03  0.21362620426E+03  0.36408533321E+03  0.00000000000E+00 0. -1.
<mgrwt>
<rscale>  0 0.65049719E+03</rscale>
<asrwt>0</asrwt>
<pdfrwt beam="1">0</pdfrwt>
<pdfrwt beam="2">  1        2 0.38467953E+00 0.65049719E+03</pdfrwt>
<totfact> 0.45422810E+00</totfact>
</mgrwt>
</event>
<event>
 5    1  0.2369161E-004  0.6422929E+03  0.7818608E-02  0.9821349E-01
         13   -1    0    0    0    0  0.00000000000E+00  0.00000000000E+00  0.10000000000E+04  0.10000000000E+04  0.00000000000E+00 0. -1.
          2   -1    0    0  501    0 -0.00000000000E+00 -0.00000000000E+00 -0.10313504359E+03  0.10313504359E+03  0.00000000000E+00 0. -1.
    9000006    2    1    2  501    0  0.00000000000E+00  0.00000000000E+00  0.89686495641E+03  0.11031350436E+04  0.64229290385E+03 0.  0.
         13    1    3    3    0    0  0.15043764520E+03  0.24261554775E+03  0.19577231446E+03  0.34615110603E+03  0.00000000000E+00 0. -1.
          4    1    3    3  501    0 -0.15043764520E+03 -0.24261554775E+03  0.70109264196E+03  0.75698393755E+03  0.00000000000E+00 0. -1.
<mgrwt>
<rscale>  0 0.64229290E+03</rscale>
<asrwt>0</asrwt>
<pdfrwt beam="1">0</pdfrwt>
<pdfrwt beam="2">  1        2 0.37503731E+00 0.64229290E+03</pdfrwt>
<totfact> 0.49331385E+00</totfact>
</mgrwt>
</event>
<event>
 5    1  0.2369161E-004  0.6514608E+03  0.7818608E-02  0.9804042E-01
         13   -1    0    0    0    0  0.00000000000E+00  0.00000000000E+00  0.10000000000E+04  0.10000000000E+04  0.00000000000E+00 0. -1.
          2   -1    0    0  501    0 -0.00000000000E+00 -0.00000000000E+00 -0.10610028583E+03  0.10610028583E+03  0.00000000000E+00 0. -1.
    9000006    2    1    2  501    0  0.00000000000E+00  0.00000000000E+00  0.89389971417E+03  0.11061002858E+04  0.65146077650E+03 0.  0.
         13    1    3    3    0    0  0.19382148336E+03  0.18310199568E+03  0.12927358266E+03  0.29631869230E+03  0.00000000000E+00 0. -1.
          2    1    3    3  501    0 -0.19382148336E+03 -0.18310199568E+03  0.76462613151E+03  0.80978159353E+03  0.00000000000E+00 0. -1.
<mgrwt>
<rscale>  0 0.65146078E+03</rscale>
<asrwt>0</asrwt>
<pdfrwt beam="1">0</pdfrwt>
<pdfrwt beam="2">  1        2 0.38582003E+00 0.65146078E+03</pdfrwt>
<totfact> 0.44979620E+00</totfact>
</mgrwt>
</event>
<event>
 5    1  0.2369161E-004  0.6370533E+03  0.7818608E-02  0.9831381E-01
         13   -1    0    0    0    0  0.00000000000E+00  0.00000000000E+00  0.10000000000E+04  0.10000000000E+04  0.00000000000E+00 0. -1.
          2   -1    0    0  501    0 -0.00000000000E+00 -0.00000000000E+00 -0.10145921716E+03  0.10145921716E+03  0.00000000000E+00 0. -1.
    9000006    2    1    2  501    0  0.00000000000E+00  0.00000000000E+00  0.89854078284E+03  0.11014592172E+04  0.63705326987E+03 0.  0.
         13    1    3    3    0    0  0.27083124981E+03  0.11171063015E+03  0.66543148535E+03  0.72706801089E+03  0.00000000000E+00 0. -1.
          4    1    3    3  501    0 -0.27083124981E+03 -0.11171063015E+03  0.23310929749E+03  0.37439120628E+03  0.00000000000E+00 0. -1.
<mgrwt>
<rscale>  0 0.63705327E+03</rscale>
<asrwt>0</asrwt>
<pdfrwt beam="1">0</pdfrwt>
<pdfrwt beam="2">  1        2 0.36894339E+00 0.63705327E+03</pdfrwt>
<totfact> 0.51957644E+00</totfact>
</mgrwt>
</event>
<event>
 5    1  0.2369161E-004  0.6550089E+03  0.7818608E-02  0.9797425E-01
         13   -1    0    0    0    0  0.00000000000E+00  0.00000000000E+00  0.10000000000E+04  0.10000000000E+04  0.00000000000E+00 0. -1.
          2   -1    0    0  501    0 -0.00000000000E+00 -0.00000000000E+00 -0.10725916177E+03  0.10725916177E+03  0.00000000000E+00 0. -1.
    9000006    2    1    2  501    0  0.00000000000E+00  0.00000000000E+00  0.89274083823E+03  0.11072591618E+04  0.65500889085E+03 0.  0.
         13    1    3    3    0    0 -0.78085843569E+02  0.12992787338E+03  0.93712647368E+03  0.94930747333E+03  0.00000000000E+00 0. -1.
          4    1    3    3  501    0  0.78085843569E+02 -0.12992787338E+03 -0.44385635454E+02  0.15795168844E+03  0.00000000000E+00 0. -1.
<mgrwt>
<rscale>  0 0.65500889E+03</rscale>
<asrwt>0</asrwt>
<pdfrwt beam="1">0</pdfrwt>
<pdfrwt beam="2">  1        2 0.39003414E+00 0.65500889E+03</pdfrwt>
<totfact> 0.43375811E+00</totfact>
</mgrwt>
</event>
<event>
 5    1  0.2369161E-004  0.6482574E+03  0.7818608E-02  0.9810055E-01
         13   -1    0    0    0    0  0.00000000000E+00  0.00000000000E+00  0.10000000000E+04  0.10000000000E+04  0.00000000000E+00 0. -1.
          2   -1    0    0  501    0 -0.00000000000E+00 -0.00000000000E+00 -0.10505940876E+03  0.10505940876E+03  0.00000000000E+00 0. -1.
    9000006    2    1    2  501    0  0.00000000000E+00  0.00000000000E+00  0.89494059124E+03  0.11050594088E+04  0.64825738332E+03 0.  0.
         13    1    3    3    0    0 -0.10526217784E+03 -0.14023455817E+03 -0.17229159130E+02  0.17618939046E+03  0.00000000000E+00 0. -1.
          4    1    3    3  501    0  0.10526217784E+03  0.14023455817E+03  0.91216975037E+03  0.92887001829E+03  0.00000000000E+00 0. -1.
<mgrwt>
<rscale>  0 0.64825738E+03</rscale>
<asrwt>0</asrwt>
<pdfrwt beam="1">0</pdfrwt>
<pdfrwt beam="2">  1        2 0.38203502E+00 0.64825738E+03</pdfrwt>
<totfact> 0.46465730E+00</totfact>
</mgrwt>
</event>
<event>
 5    1  0.2369161E-004  0.6458853E+03  0.7818608E-02  0.9814531E-01
         13   -1    0    0    0    0  0.00000000000E+00  0.00000000000E+00  0.10000000000E+04  0.10000000000E+04  0.00000000000E+00 0. -1.
          2   -1    0    0  501    0 -0.00000000000E+00 -0.00000000000E+00 -0.10429195744E+03  0.10429195744E+03  0.00000000000E+00 0. -1.
    9000006    2    1    2  501    0  0.00000000000E+00  0.00000000000E+00  0.89570804256E+03  0.11042919574E+04  0.64588530698E+03 0.  0.
         13    1    3    3    0    0 -0.28917557281E+03 -0.26706436655E+00  0.20204819752E+03  0.35276912755E+03  0.00000000000E+00 0. -1.
          4    1    3    3  501    0  0.28917557281E+03  0.26706436655E+00  0.69365984503E+03  0.75152282989E+03  0.00000000000E+00 0. -1.
<mgrwt>
<rscale>  0 0.64588531E+03</rscale>
<asrwt>0</asrwt>
<pdfrwt beam="1">0</pdfrwt>
<pdfrwt beam="2">  1        2 0.37924428E+00 0.64588531E+03</pdfrwt>
<totfact> 0.47589872E+00</totfact>
</mgrwt>
</event>
<event>
 5    1  0.2369161E-004  0.6550710E+03  0.7818608E-02  0.9797310E-01
         13   -1    0    0    0    0  0.00000000000E+00  0.00000000000E+00  0.10000000000E+04  0.10000000000E+04  0.00000000000E+00 0. -1.
          2   -1    0    0  501    0 -0.00000000000E+00 -0.00000000000E+00 -0.10727949284E+03  0.10727949284E+03  0.00000000000E+00 0. -1.
    9000006    2    1    2  501    0  0.00000000000E+00  0.00000000000E+00  0.89272050716E+03  0.11072794928E+04  0.65507096667E+03 0.  0.
         13    1    3    3    0    0  0.32471858472E+03 -0.42744950057E+02  0.44096105664E+03  0.54928675889E+03  0.00000000000E+00 0. -1.
          4    1    3    3  501    0 -0.32471858472E+03  0.42744950057E+02  0.45175945051E+03  0.55799273395E+03  0.00000000000E+00 0. -1.
<mgrwt>
<rscale>  0 0.65507097E+03</rscale>
<asrwt>0</asrwt>
<pdfrwt beam="1">0</pdfrwt>
<pdfrwt beam="2">  1        2 0.39010807E+00 0.65507097E+03</pdfrwt>
<totfact> 0.43348142E+00</totfact>
</mgrwt>
</event>
<event>
 5    1  0.2369161E-004  0.6437709E+03  0.7818608E-02  0.9818538E-01
         13   -1    0    0    0    0  0.00000000000E+00  0.00000000000E+00  0.10000000000E+04  0.10000000000E+04  0.00000000000E+00 0. -1.
          2   -1    0    0  501    0 -0.00000000000E+00 -0.00000000000E+00 -0.10361025610E+03  0.10361025610E+03  0.00000000000E+00 0. -1.
    9000006    2    1    2  501    0  0.00000000000E+00  0.00000000000E+00  0.89638974390E+03  0.11036102561E+04  0.64377094093E+03 0.  0.
         13    1    3    3    0    0  0.14957455168E+03  0.28064999411E+03  0.53345027537E+03  0.62105246316E+03  0.00000000000E+00 0. -1.
          4    1    3    3  501    0 -0.14957455168E+03 -0.28064999411E+03  0.36293946854E+03  0.48255779294E+03  0.00000000000E+00 0. -1.
<mgrwt>
<rscale>  0 0.64377094E+03</rscale>
<asrwt>0</asrwt>
<pdfrwt beam="1">0</pdfrwt>
<pdfrwt beam="2">  1        2 0.37676536E+00 0.64377094E+03</pdfrwt>
<totfact> 0.48609118E+00</totfact>
</mgrwt>
</event>
<event>
 5    1  0.2369161E-004  0.6451132E+03  0.7818608E-02  0.9815992E-01
         13   -1    0    0    0    0  0.00000000000E+00  0.00000000000E+00  0.10000000000E+04  0.10000000000E+04  0.00000000000E+00 0. -1.
          2   -1    0    0  501    0 -0.00000000000E+00 -0.00000000000E+00 -0.10404274578E+03  0.10404274578E+03  0.00000000000E+00 0. -1.
    9000006    2    1    2  501    0  0.00000000000E+00  0.00000000000E+00  0.89595725422E+03  0.11040427458E+04  0.64511315527E+03 0.  0.
         13    1    3    3    0    0  0.73618456155E+01  0.96849267860E+02  0.97437838955E+03  0.97920744660E+03  0.00000000000E+00 0. -1.
          2    1    3    3  501    0 -0.73618456155E+01 -0.96849267860E+02 -0.78421135324E+02  0.12483529918E+03  0.00000000000E+00 0. -1.
<mgrwt>
<rscale>  0 0.64511316E+03</rscale>
<asrwt>0</asrwt>
<pdfrwt beam="1">0</pdfrwt>
<pdfrwt beam="2">  1        2 0.37833806E+00 0.64511316E+03</pdfrwt>
<totfact> 0.47960200E+00</totfact>
</mgrwt>
</event>
<event>
 5    1  0.2369161E-004  0.6449421E+03  0.7818608E-02  0.9816316E-01
         13   -1    0    0    0    0  0.00000000000E+00  0.00000000000E+00  0.10000000000E+04  0.10000000000E+04  0.00000000000E+00 0. -1.
          2   -1    0    0  501    0 -0.00000000000E+00 -0.00000000000E+00 -0.10398758623E+03  0.10398758623E+03  0.00000000000E+00 0. -1.
    9000006    2    1    2  501    0  0.00000000000E+00  0.00000000000E+00  0.89601241377E+03  0.11039875862E+04  0.64494212525E+03 0.  0.
         13    1    3    3    0    0 -0.58340748929E+02  0.31414888670E+03  0.52251055292E+03  0.61246260613E+03  0.00000000000E+00 0. -1.
          4    1    3    3  501    0  0.58340748929E+02 -0.31414888670E+03  0.37350186085E+03  0.49152498010E+03  0.00000000000E+00 0. -1.
<mgrwt>
<rscale>  0 0.64494213E+03</rscale>
<asrwt>0</asrwt>
<pdfrwt beam="1">0</pdfrwt>
<pdfrwt beam="2">  1        2 0.37813747E+00 0.64494213E+03</pdfrwt>
<totfact> 0.48042521E+00</totfact>
</mgrwt>
</event>
<event>
 5    1  0.2369161E-004  0.6535192E+03  0.7818608E-02  0.9800198E-01
         13   -1    0    0    0    0  0.00000000000E+00  0.00000000000E+00  0.10000000000E+04  0.10000000000E+04  0.00000000000E+00 0. -1.
          2   -1    0    0  501    0 -0.00000000000E+00 -0.00000000000E+00 -0.10677182996E+03  0.10677182996E+03  0.00000000000E+00 0. -1.
    9000006    2    1    2  501    0  0.00000000000E+00  0.00000000000E+00  0.89322817004E+03  0.11067718300E+04  0.65351918093E+03 0.  0.
         13    1    3    3    0    0 -0.27346701203E+03 -0.17443064451E+03  0.51353794466E+03  0.60739729751E+03  0.00000000000E+00 0. -1.
          4    1    3    3  501    0  0.27346701203E+03  0.17443064451E+03  0.37969022538E+03  0.49937453245E+03  0.00000000000E+00 0. -1.
<mgrwt>
<rscale>  0 0.65351918E+03</rscale>
<asrwt>0</asrwt>
<pdfrwt beam="1">0</pdfrwt>
<pdfrwt beam="2">  1        2 0.38826202E+00 0.65351918E+03</pdfrwt>
<totfact> 0.44043831E+00</totfact>
</mgrwt>
</event>
<event>
 5    1  0.2369161E-004  0.6630158E+03  0.7818608E-02  0.9782658E-01
         13   -1    0    0    0    0  0.00000000000E+00  0.00000000000E+00  0.10000000000E+04  0.10000000000E+04  0.00000000000E+00 0. -1.
          2   -1    0    0  501    0 -0.00000000000E+00 -0.00000000000E+00 -0.10989750433E+03  0.10989750433E+03  0.00000000000E+00 0. -1.
    9000006    2    1    2  501    0  0.00000000000E+00  0.00000000000E+00  0.89010249567E+03  0.11098975043E+04  0.66301584997E+03 0.  0.
         13    1    3    3    0    0  0.12352487037E+03 -0.14954873800E+03 -0.49884953540E+01  0.19403119266E+03  0.00000000000E+00 0. -1.
          2    1    3    3  501    0 -0.12352487037E+03  0.14954873800E+03  0.89509099103E+03  0.91586631167E+03  0.00000000000E+00 0. -1.
<mgrwt>
<rscale>  0 0.66301585E+03</rscale>
<asrwt>0</asrwt>
<pdfrwt beam="1">0</pdfrwt>
<pdfrwt beam="2">  1        2 0.39962813E+00 0.66301585E+03</pdfrwt>
<totfact> 0.39915536E+00</totfact>
</mgrwt>
</event>
<event>
 5    1  0.2369161E-004  0.6529049E+03  0.7818608E-02  0.9801344E-01
         13   -1    0    0    0    0  0.00000000000E+00  0.00000000000E+00  0.10000000000E+04  0.10000000000E+04  0.00000000000E+00 0. -1.
          2   -1    0    0  501    0 -0.00000000000E+00 -0.00000000000E+00 -0.10657119990E+03  0.10657119990E+03  0.00000000000E+00 0. -1.
    9000006    2    1    2  501    0  0.00000000000E+00  0.00000000000E+00  0.89342880010E+03  0.11065711999E+04  0.65290489322E+03 0.  0.
         13    1    3    3    0    0  0.30827663045E+02 -0.66910056214E+02 -0.92298657498E+02  0.11809463412E+03  0.00000000000E+00 0. -1.
          2    1    3    3  501    0 -0.30827663045E+02  0.66910056214E+02  0.98572745760E+03  0.98847656578E+03  0.00000000000E+00 0. -1.
<mgrwt>
<rscale>  0 0.65290489E+03</rscale>
<asrwt>0</asrwt>
<pdfrwt beam="1">0</pdfrwt>
<pdfrwt beam="2">  1        2 0.38753245E+00 0.65290489E+03</pdfrwt>
<totfact> 0.44321543E+00</totfact>
</mgrwt>
</event>
<event>
 5    1  0.2369161E-004  0.6787205E+03  0.7818608E-02  0.9754331E-01
         13   -1    0    0    0    0  0.00000000000E+00  0.00000000000E+00  0.10000000000E+04  0.10000000000E+04  0.00000000000E+00 0. -1.
          2   -1    0    0  501    0 -0.00000000000E+00 -0.00000000000E+00 -0.11516537615E+03  0.11516537615E+03  0.00000000000E+00 0. -1.
    9000006    2    1    2  501    0  0.00000000000E+00  0.00000000000E+00  0.88483462385E+03  0.11151653762E+04  0.67872049078E+03 0.  0.
         13    1    3    3    0    0 -0.12736828073E+03  0.23812263991E+03  0.78010236794E+03  0.82552091133E+03  0.00000000000E+00 0. -1.
          4    1    3    3  501    0  0.12736828073E+03 -0.23812263991E+03  0.10473225591E+03  0.28964446482E+03  0.00000000000E+00 0. -1.
<mgrwt>
<rscale>  0 0.67872049E+03</rscale>
<asrwt>0</asrwt>
<pdfrwt beam="1">0</pdfrwt>
<pdfrwt beam="2">  1        2 0.41878407E+00 0.67872049E+03</pdfrwt>
<totfact> 0.33737422E+00</totfact>
</mgrwt>
</event>
<event>
 5    1  0.2369161E-004  0.6539348E+03  0.7818608E-02  0.9799424E-01
         13   -1    0    0    0    0  0.00000000000E+00  0.00000000000E+00  0.10000000000E+04  0.10000000000E+04  0.00000000000E+00 0. -1.
          2   -1    0    0  501    0 -0.00000000000E+00 -0.00000000000E+00 -0.10690769085E+03  0.10690769085E+03  0.00000000000E+00 0. -1.
    9000006    2    1    2  501    0  0.00000000000E+00  0.00000000000E+00  0.89309230915E+03  0.11069076908E+04  0.65393483115E+03 0.  0.
         13    1    3    3    0    0  0.15430623955E+03 -0.26796241906E+03  0.26666336170E+03  0.40831804034E+03  0.00000000000E+00 0. -1.
          2    1    3    3  501    0 -0.15430623955E+03  0.26796241906E+03  0.62642894746E+03  0.69858965051E+03  0.00000000000E+00 0. -1.
<mgrwt>
<rscale>  0 0.65393483E+03</rscale>
<asrwt>0</asrwt>
<pdfrwt beam="1">0</pdfrwt>
<pdfrwt beam="2">  1        2 0.38875606E+00 0.65393483E+03</pdfrwt>
<totfact> 0.43856668E+00</totfact>
</mgrwt>
</event>
<event>
 5    1  0.2369161E-004  0.6509226E+03  0.7818608E-02  0.9805050E-01
         13   -1    0    0    0    0  0.00000000000E+00  0.00000000000E+00  0.10000000000E+04  0.10000000000E+04  0.00000000000E+00 0. -1.
          2   -1    0    0  501    0 -0.00000000000E+00 -0.00000000000E+00 -0.10592504959E+03  0.10592504959E+03  0.00000000000E+00 0. -1.
    9000006    2    1    2  501    0  0.00000000000E+00  0.00000000000E+00  0.89407495041E+03  0.11059250496E+04  0.65092257479E+03 0.  0.
         13    1    3    3    0    0 -0.23767390754E+03 -0.54396511994E+02  0.80754899937E+02  0.25684474047E+03  0.00000000000E+00 0. -1.
          4    1    3    3  501    0  0.23767390754E+03  0.54396511994E+02  0.81332005047E+03  0.84908030912E+03  0.00000000000E+00 0. -1.
<mgrwt>
<rscale>  0 0.65092257E+03</rscale>
<asrwt>0</asrwt>
<pdfrwt beam="1">0</pdfrwt>
<pdfrwt beam="2">  1        2 0.38518281E+00 0.65092257E+03</pdfrwt>
<totfact> 0.45226754E+00</totfact>
</mgrwt>
</event>
<event>
 5    1  0.2369161E-004  0.6673115E+03  0.7818608E-02  0.9774827E-01
         13   -1    0    0    0    0  0.00000000000E+00  0.00000000000E+00  0.10000000000E+04  0.10000000000E+04  0.00000000000E+00 0. -1.
          2   -1    0    0  501    0 -0.00000000000E+00 -0.00000000000E+00 -0.11132615171E+03  0.11132615171E+03  0.00000000000E+00 0. -1.
    9000006    2    1    2  501    0  0.00000000000E+00  0.00000000000E+00  0.88867384829E+03  0.11113261517E+04  0.66731147663E+03 0.  0.
         13    1    3    3    0    0 -0.82261868979E+02 -0.16858149347E+03 -0.15197142918E+02  0.18819587717E+03  0.00000000000E+00 0. -1.
          2    1    3    3  501    0  0.82261868979E+02  0.16858149347E+03  0.90387099121E+03  0.92313027454E+03  0.00000000000E+00 0. -1.
<mgrwt>
<rscale>  0 0.66731148E+03</rscale>
<asrwt>0</asrwt>
<pdfrwt beam="1">0</pdfrwt>
<pdfrwt beam="2">  1        2 0.40482322E+00 0.66731148E+03</pdfrwt>
<totfact> 0.38147351E+00</totfact>
</mgrwt>
</event>
<event>
 5    1  0.2369161E-004  0.6532756E+03  0.7818608E-02  0.9800652E-01
         13   -1    0    0    0    0  0.00000000000E+00  0.00000000000E+00  0.10000000000E+04  0.10000000000E+04  0.00000000000E+00 0. -1.
          2   -1    0    0  501    0 -0.00000000000E+00 -0.00000000000E+00 -0.10669225546E+03  0.10669225546E+03  0.00000000000E+00 0. -1.
    9000006    2    1    2  501    0  0.00000000000E+00  0.00000000000E+00  0.89330774454E+03  0.11066922555E+04  0.65327560941E+03 0.  0.
         13    1    3    3    0    0 -0.31100065696E+03  0.34373071245E+02  0.28783265152E+03  0.42514768250E+03  0.00000000000E+00 0. -1.
          4    1    3    3  501    0  0.31100065696E+03 -0.34373071245E+02  0.60547509302E+03  0.68154457296E+03  0.00000000000E+00 0. -1.
<mgrwt>
<rscale>  0 0.65327561E+03</rscale>
<asrwt>0</asrwt>
<pdfrwt beam="1">0</pdfrwt>
<pdfrwt beam="2">  1        2 0.38797266E+00 0.65327561E+03</pdfrwt>
<totfact> 0.44153789E+00</totfact>
</mgrwt>
</event>
<event>
 5    1  0.2369161E-004  0.6183502E+03  0.7818608E-02  0.9868050E-01
         13   -1    0    0    0    0  0.00000000000E+00  0.00000000000E+00  0.10000000000E+04  0.10000000000E+04  0.00000000000E+00 0. -1.
          2   -1    0    0  501    0 -0.00000000000E+00 -0.00000000000E+00 -0.95589244338E+02  0.95589244338E+02  0.00000000000E+00 0. -1.
    9000006    2    1    2  501    0  0.00000000000E+00  0.00000000000E+00  0.90441075566E+03  0.10955892443E+04  0.61835020607E+03 0.  0.
         13    1    3    3    0    0  0.14363107097E+03 -0.13214610427E+03  0.27356023552E+02  0.19708076884E+03  0.00000000000E+00 0. -1.
          4    1    3    3  501    0 -0.14363107097E+03  0.13214610427E+03  0.87705473211E+03  0.89850847550E+03  0.00000000000E+00 0. -1.
<mgrwt>
<rscale>  0 0.61835021E+03</rscale>
<asrwt>0</asrwt>
<pdfrwt beam="1">0</pdfrwt>
<pdfrwt beam="2">  1        2 0.34759799E+00 0.61835021E+03</pdfrwt>
<totfact> 0.62206506E+00</totfact>
</mgrwt>
</event>
<event>
 5    1  0.2369161E-004  0.6027131E+03  0.7818608E-02  0.9899793E-01
         13   -1    0    0    0    0  0.00000000000E+00  0.00000000000E+00  0.10000000000E+04  0.10000000000E+04  0.00000000000E+00 0. -1.
          2   -1    0    0  501    0 -0.00000000000E+00 -0.00000000000E+00 -0.90815766839E+02  0.90815766839E+02  0.00000000000E+00 0. -1.
    9000006    2    1    2  501    0  0.00000000000E+00  0.00000000000E+00  0.90918423316E+03  0.10908157668E+04  0.60271308876E+03 0.  0.
         13    1    3    3    0    0 -0.25865221344E+03 -0.14890068716E+03  0.53016002415E+03  0.60839299253E+03  0.00000000000E+00 0. -1.
          2    1    3    3  501    0  0.25865221344E+03  0.14890068716E+03  0.37902420901E+03  0.48242277430E+03  0.00000000000E+00 0. -1.
<mgrwt>
<rscale>  0 0.60271309E+03</rscale>
<asrwt>0</asrwt>
<pdfrwt beam="1">0</pdfrwt>
<pdfrwt beam="2">  1        2 0.33023985E+00 0.60271309E+03</pdfrwt>
<totfact> 0.71899990E+00</totfact>
</mgrwt>
</event>
<event>
 5    1  0.2369161E-004  0.6478106E+03  0.7818608E-02  0.9810896E-01
         13   -1    0    0    0    0  0.00000000000E+00  0.00000000000E+00  0.10000000000E+04  0.10000000000E+04  0.00000000000E+00 0. -1.
          2   -1    0    0  501    0 -0.00000000000E+00 -0.00000000000E+00 -0.10491462919E+03  0.10491462919E+03  0.00000000000E+00 0. -1.
    9000006    2    1    2  501    0  0.00000000000E+00  0.00000000000E+00  0.89508537081E+03  0.11049146292E+04  0.64781055622E+03 0.  0.
         13    1    3    3    0    0 -0.31788170503E+03  0.58965663342E+02  0.48117838166E+03  0.57970541038E+03  0.00000000000E+00 0. -1.
          4    1    3    3  501    0  0.31788170503E+03 -0.58965663342E+02  0.41390698915E+03  0.52520921881E+03  0.00000000000E+00 0. -1.
<mgrwt>
<rscale>  0 0.64781056E+03</rscale>
<asrwt>0</asrwt>
<pdfrwt beam="1">0</pdfrwt>
<pdfrwt beam="2">  1        2 0.38150855E+00 0.64781056E+03</pdfrwt>
<totfact> 0.46675932E+00</totfact>
</mgrwt>
</event>
<event>
 5    1  0.2369161E-004  0.6646477E+03  0.7818608E-02  0.9779676E-01
         13   -1    0    0    0    0  0.00000000000E+00  0.00000000000E+00  0.10000000000E+04  0.10000000000E+04  0.00000000000E+00 0. -1.
          2   -1    0    0  501    0 -0.00000000000E+00 -0.00000000000E+00 -0.11043912685E+03  0.11043912685E+03  0.00000000000E+00 0. -1.
    9000006    2    1    2  501    0  0.00000000000E+00  0.00000000000E+00  0.88956087315E+03  0.11104391268E+04  0.66464765658E+03 0.  0.
         13    1    3    3    0    0 -0.11449720755E+03 -0.21036052632E+03  0.82969151506E+03  0.86356769957E+03  0.00000000000E+00 0. -1.
          2    1    3    3  501    0  0.11449720755E+03  0.21036052632E+03  0.59869358092E+02  0.24687142728E+03  0.00000000000E+00 0. -1.
<mgrwt>
<rscale>  0 0.66464766E+03</rscale>
<asrwt>0</asrwt>
<pdfrwt beam="1">0</pdfrwt>
<pdfrwt beam="2">  1        2 0.40159767E+00 0.66464766E+03</pdfrwt>
<totfact> 0.39236722E+00</totfact>
</mgrwt>
</event>
<event>
 5    1  0.2369161E-004  0.6687263E+03  0.7818608E-02  0.9772261E-01
         13   -1    0    0    0    0  0.00000000000E+00  0.00000000000E+00  0.10000000000E+04  0.10000000000E+04  0.00000000000E+00 0. -1.
          2   -1    0    0  501    0 -0.00000000000E+00 -0.00000000000E+00 -0.11179873147E+03  0.11179873147E+03  0.00000000000E+00 0. -1.
    9000006    2    1    2  501    0  0.00000000000E+00  0.00000000000E+00  0.88820126853E+03  0.11117987315E+04  0.66872634604E+03 0.  0.
         13    1    3    3    0    0 -0.14908590233E+02 -0.32409777144E+03  0.57852261896E+03  0.66328730741E+03  0.00000000000E+00 0. -1.
          2    1    3    3  501    0  0.14908590233E+02  0.32409777144E+03  0.30967864957E+03  0.44851142406E+03  0.00000000000E+00 0. -1.
<mgrwt>
<rscale>  0 0.66872635E+03</rscale>
<asrwt>0</asrwt>
<pdfrwt beam="1">0</pdfrwt>
<pdfrwt beam="2">  1        2 0.40654170E+00 0.66872635E+03</pdfrwt>
<totfact> 0.37578096E+00</totfact>
</mgrwt>
</event>
<event>
 5    1  0.2369161E-004  0.6631026E+03  0.7818608E-02  0.9782499E-01
         13   -1    0    0    0    0  0.00000000000E+00  0.00000000000E+00  0.10000000000E+04  0.10000000000E+04  0.00000000000E+00 0. -1.
          2   -1    0    0  501    0 -0.00000000000E+00 -0.00000000000E+00 -0.10992627475E+03  0.10992627475E+03  0.00000000000E+00 0. -1.
    9000006    2    1    2  501    0  0.00000000000E+00  0.00000000000E+00  0.89007372525E+03  0.11099262747E+04  0.66310263082E+03 0.  0.
         13    1    3    3    0    0  0.18099795691E+03 -0.15913955218E+03  0.82614521202E+03  0.86058211044E+03  0.00000000000E+00 0. -1.
          2    1    3    3  501    0 -0.18099795691E+03  0.15913955218E+03  0.63928513232E+02  0.24934416431E+03  0.00000000000E+00 0. -1.
<mgrwt>
<rscale>  0 0.66310263E+03</rscale>
<asrwt>0</asrwt>
<pdfrwt beam="1">0</pdfrwt>
<pdfrwt beam="2">  1        2 0.39973275E+00 0.66310263E+03</pdfrwt>
<totfact> 0.39879214E+00</totfact>
</mgrwt>
</event>
<event>
 5    1  0.2369161E-004  0.6458592E+03  0.7818608E-02  0.9814580E-01
         13   -1    0    0    0    0  0.00000000000E+00  0.00000000000E+00  0.10000000000E+04  0.10000000000E+04  0.00000000000E+00 0. -1.
          2   -1    0    0  501    0 -0.00000000000E+00 -0.00000000000E+00 -0.10428354225E+03  0.10428354225E+03  0.00000000000E+00 0. -1.
    9000006    2    1    2  501    0  0.00000000000E+00  0.00000000000E+00  0.89571645775E+03  0.11042835422E+04  0.64585924859E+03 0.  0.
         13    1    3    3    0    0 -0.21470991786E+03 -0.52881426065E+01  0.86018079272E+03  0.88658857959E+03  0.00000000000E+00 0. -1.
          2    1    3    3  501    0  0.21470991786E+03  0.52881426065E+01  0.35535665028E+02  0.21769496266E+03  0.00000000000E+00 0. -1.
<mgrwt>
<rscale>  0 0.64585925E+03</rscale>
<asrwt>0</asrwt>
<pdfrwt beam="1">0</pdfrwt>
<pdfrwt beam="2">  1        2 0.37921368E+00 0.64585925E+03</pdfrwt>
<totfact> 0.47602335E+00</totfact>
</mgrwt>
</event>
<event>
 5    1  0.2369161E-004  0.6465921E+03  0.7818608E-02  0.9813195E-01
         13   -1    0    0    0    0  0.00000000000E+00  0.00000000000E+00  0.10000000000E+04  0.10000000000E+04  0.00000000000E+00 0. -1.
          2   -1    0    0  501    0 -0.00000000000E+00 -0.00000000000E+00 -0.10452032519E+03  0.10452032519E+03  0.00000000000E+00 0. -1.
    9000006    2    1    2  501    0  0.00000000000E+00  0.00000000000E+00  0.89547967481E+03  0.11045203252E+04  0.64659206672E+03 0.  0.
         13    1    3    3    0    0 -0.12198529206E+03 -0.88149736832E+02 -0.41030125886E+02  0.15599441917E+03  0.00000000000E+00 0. -1.
          2    1    3    3  501    0  0.12198529206E+03  0.88149736832E+02  0.93650980070E+03  0.94852590602E+03  0.00000000000E+00 0. -1.
<mgrwt>
<rscale>  0 0.64659207E+03</rscale>
<asrwt>0</asrwt>
<pdfrwt beam="1">0</pdfrwt>
<pdfrwt beam="2">  1        2 0.38007471E+00 0.64659207E+03</pdfrwt>
<totfact> 0.47252807E+00</totfact>
</mgrwt>
</event>
<event>
 5    1  0.2369161E-004  0.6432189E+03  0.7818608E-02  0.9819587E-01
         13   -1    0    0    0    0  0.00000000000E+00  0.00000000000E+00  0.10000000000E+04  0.10000000000E+04  0.00000000000E+00 0. -1.
          2   -1    0    0  501    0 -0.00000000000E+00 -0.00000000000E+00 -0.10343262546E+03  0.10343262546E+03  0.00000000000E+00 0. -1.
    9000006    2    1    2  501    0  0.00000000000E+00  0.00000000000E+00  0.89656737454E+03  0.11034326255E+04  0.64321886000E+03 0.  0.
         13    1    3    3    0    0 -0.15527004422E+03 -0.13447833931E+03  0.87280800014E+03  0.89665323034E+03  0.00000000000E+00 0. -1.
          4    1    3    3  501    0  0.15527004422E+03  0.13447833931E+03  0.23759374397E+02  0.20677939512E+03  0.00000000000E+00 0. -1.
<mgrwt>
<rscale>  0 0.64321886E+03</rscale>
<asrwt>0</asrwt>
<pdfrwt beam="1">0</pdfrwt>
<pdfrwt beam="2">  1        2 0.37611943E+00 0.64321886E+03</pdfrwt>
<totfact> 0.48877951E+00</totfact>
</mgrwt>
</event>
<event>
 5    1  0.2369161E-004  0.6484756E+03  0.7818608E-02  0.9809644E-01
         13   -1    0    0    0    0  0.00000000000E+00  0.00000000000E+00  0.10000000000E+04  0.10000000000E+04  0.00000000000E+00 0. -1.
          2   -1    0    0  501    0 -0.00000000000E+00 -0.00000000000E+00 -0.10513015758E+03  0.10513015758E+03  0.00000000000E+00 0. -1.
    9000006    2    1    2  501    0  0.00000000000E+00  0.00000000000E+00  0.89486984242E+03  0.11051301576E+04  0.64847562045E+03 0.  0.
         13    1    3    3    0    0  0.64605479585E+01 -0.24552700897E+03  0.80816517391E+03  0.84466336438E+03  0.00000000000E+00 0. -1.
          4    1    3    3  501    0 -0.64605479585E+01  0.24552700897E+03  0.86704668515E+02  0.26046679320E+03  0.00000000000E+00 0. -1.
<mgrwt>
<rscale>  0 0.64847562E+03</rscale>
<asrwt>0</asrwt>
<pdfrwt beam="1">0</pdfrwt>
<pdfrwt beam="2">  1        2 0.38229229E+00 0.64847562E+03</pdfrwt>
<totfact> 0.46363324E+00</totfact>
</mgrwt>
</event>
<event>
 5    1  0.2369161E-004  0.6513102E+03  0.7818608E-02  0.9804324E-01
         13   -1    0    0    0    0  0.00000000000E+00  0.00000000000E+00  0.10000000000E+04  0.10000000000E+04  0.00000000000E+00 0. -1.
          2   -1    0    0  501    0 -0.00000000000E+00 -0.00000000000E+00 -0.10605123466E+03  0.10605123466E+03  0.00000000000E+00 0. -1.
    9000006    2    1    2  501    0  0.00000000000E+00  0.00000000000E+00  0.89394876534E+03  0.11060512347E+04  0.65131017083E+03 0.  0.
         13    1    3    3    0    0  0.17294526260E+03 -0.25498811739E+03  0.26787943436E+03  0.40827490153E+03  0.00000000000E+00 0. -1.
          4    1    3    3  501    0 -0.17294526260E+03  0.25498811739E+03  0.62606933099E+03  0.69777633313E+03  0.00000000000E+00 0. -1.
<mgrwt>
<rscale>  0 0.65131017E+03</rscale>
<asrwt>0</asrwt>
<pdfrwt beam="1">0</pdfrwt>
<pdfrwt beam="2">  1        2 0.38564167E+00 0.65131017E+03</pdfrwt>
<totfact> 0.45048673E+00</totfact>
</mgrwt>
</event>
<event>
 5    1  0.2369161E-004  0.6535960E+03  0.7818608E-02  0.9800055E-01
         13   -1    0    0    0    0  0.00000000000E+00  0.00000000000E+00  0.10000000000E+04  0.10000000000E+04  0.00000000000E+00 0. -1.
          2   -1    0    0  501    0 -0.00000000000E+00 -0.00000000000E+00 -0.10679692052E+03  0.10679692052E+03  0.00000000000E+00 0. -1.
    9000006    2    1    2  501    0  0.00000000000E+00  0.00000000000E+00  0.89320307948E+03  0.11067969205E+04  0.65359596241E+03 0.  0.
         13    1    3    3    0    0 -0.18659245321E+02  0.96316827656E+02  0.97447369495E+03  0.97939985750E+03  0.00000000000E+00 0. -1.
          2    1    3    3  501    0  0.18659245321E+02 -0.96316827656E+02 -0.81270615472E+02  0.12739706301E+03  0.00000000000E+00 0. -1.
<mgrwt>
<rscale>  0 0.65359596E+03</rscale>
<asrwt>0</asrwt>
<pdfrwt beam="1">0</pdfrwt>
<pdfrwt beam="2">  1        2 0.38835326E+00 0.65359596E+03</pdfrwt>
<totfact> 0.44009212E+00</totfact>
</mgrwt>
</event>
<event>
 5    1  0.2369161E-004  0.6621127E+03  0.7818608E-02  0.9784312E-01
         13   -1    0    0    0    0  0.00000000000E+00  0.00000000000E+00  0.10000000000E+04  0.10000000000E+04  0.00000000000E+00 0. -1.
          2   -1    0    0  501    0 -0.00000000000E+00 -0.00000000000E+00 -0.10959832295E+03  0.10959832295E+03  0.00000000000E+00 0. -1.
    9000006    2    1    2  501    0  0.00000000000E+00  0.00000000000E+00  0.89040167705E+03  0.11095983229E+04  0.66211274854E+03 0.  0.
         13    1    3    3    0    0 -0.15157414855E+03 -0.50989311328E+02 -0.40573666817E+02  0.16498743836E+03  0.00000000000E+00 0. -1.
          2    1    3    3  501    0  0.15157414855E+03  0.50989311328E+02  0.93097534387E+03  0.94461088458E+03  0.00000000000E+00 0. -1.
<mgrwt>
<rscale>  0 0.66211275E+03</rscale>
<asrwt>0</asrwt>
<pdfrwt beam="1">0</pdfrwt>
<pdfrwt beam="2">  1        2 0.39854020E+00 0.66211275E+03</pdfrwt>
<totfact> 0.40295002E+00</totfact>
</mgrwt>
</event>
<event>
 5    1  0.2369161E-004  0.6491327E+03  0.7818608E-02  0.9808408E-01
         13   -1    0    0    0    0  0.00000000000E+00  0.00000000000E+00  0.10000000000E+04  0.10000000000E+04  0.00000000000E+00 0. -1.
          2   -1    0    0  501    0 -0.00000000000E+00 -0.00000000000E+00 -0.10534330733E+03  0.10534330733E+03  0.00000000000E+00 0. -1.
    9000006    2    1    2  501    0  0.00000000000E+00  0.00000000000E+00  0.89465669267E+03  0.11053433073E+04  0.64913267465E+03 0.  0.
         13    1    3    3    0    0  0.70653663839E+02  0.29291858251E+03  0.24193031630E+03  0.38642400823E+03  0.00000000000E+00 0. -1.
          4    1    3    3  501    0 -0.70653663839E+02 -0.29291858251E+03  0.65272637638E+03  0.71891929910E+03  0.00000000000E+00 0. -1.
<mgrwt>
<rscale>  0 0.64913267E+03</rscale>
<asrwt>0</asrwt>
<pdfrwt beam="1">0</pdfrwt>
<pdfrwt beam="2">  1        2 0.38306738E+00 0.64913267E+03</pdfrwt>
<totfact> 0.46056037E+00</totfact>
</mgrwt>
</event>
<event>
 5    1  0.2369161E-004  0.6515385E+03  0.7818608E-02  0.9803897E-01
         13   -1    0    0    0    0  0.00000000000E+00  0.00000000000E+00  0.10000000000E+04  0.10000000000E+04  0.00000000000E+00 0. -1.
          2   -1    0    0  501    0 -0.00000000000E+00 -0.00000000000E+00 -0.10612559981E+03  0.10612559981E+03  0.00000000000E+00 0. -1.
    9000006    2    1    2  501    0  0.00000000000E+00  0.00000000000E+00  0.89387440019E+03  0.11061255998E+04  0.65153848638E+03 0.  0.
         13    1    3    3    0    0 -0.27842104127E+03  0.16756759120E+03  0.40791098401E+03  0.52152521005E+03  0.00000000000E+00 0. -1.
          4    1    3    3  501    0  0.27842104127E+03 -0.16756759120E+03  0.48596341618E+03  0.58460038976E+03  0.00000000000E+00 0. -1.
<mgrwt>
<rscale>  0 0.65153849E+03</rscale>
<asrwt>0</asrwt>
<pdfrwt beam="1">0</pdfrwt>
<pdfrwt beam="2">  1        2 0.38591209E+00 0.65153849E+03</pdfrwt>
<totfact> 0.44944021E+00</totfact>
</mgrwt>
</event>
<event>
 5    1  0.2369161E-004  0.6497152E+03  0.7818608E-02  0.9807314E-01
         13   -1    0    0    0    0  0.00000000000E+00  0.00000000000E+00  0.10000000000E+04  0.10000000000E+04  0.00000000000E+00 0. -1.
          2   -1    0    0  501    0 -0.00000000000E+00 -0.00000000000E+00 -0.10553246826E+03  0.10553246826E+03  0.00000000000E+00 0. -1.
    9000006    2    1    2  501    0  0.00000000000E+00  0.00000000000E+00  0.89446753174E+03  0.11055324683E+04  0.64971522456E+03 0.  0.
         13    1    3    3    0    0  0.11542241954E+03 -0.29663109579E+03  0.55777165948E+03  0.64220056527E+03  0.00000000000E+00 0. -1.
          2    1    3    3  501    0 -0.11542241954E+03  0.29663109579E+03  0.33669587226E+03  0.46333190298E+03  0.00000000000E+00 0. -1.
<mgrwt>
<rscale>  0 0.64971522E+03</rscale>
<asrwt>0</asrwt>
<pdfrwt beam="1">0</pdfrwt>
<pdfrwt beam="2">  1        2 0.38375524E+00 0.64971522E+03</pdfrwt>
<totfact> 0.45784884E+00</totfact>
</mgrwt>
</event>
<event>
 5    1  0.2369161E-004  0.6543641E+03  0.7818608E-02  0.9798625E-01
         13   -1    0    0    0    0  0.00000000000E+00  0.00000000000E+00  0.10000000000E+04  0.10000000000E+04  0.00000000000E+00 0. -1.
          2   -1    0    0  501    0 -0.00000000000E+00 -0.00000000000E+00 -0.10704809949E+03  0.10704809949E+03  0.00000000000E+00 0. -1.
    9000006    2    1    2  501    0  0.00000000000E+00  0.00000000000E+00  0.89295190051E+03  0.11070480995E+04  0.65436411728E+03 0.  0.
         13    1    3    3    0    0  0.31837841182E+02  0.19228765458E+03  0.89106628399E+03  0.91213338537E+03  0.00000000000E+00 0. -1.
          2    1    3    3  501    0 -0.31837841182E+02 -0.19228765458E+03  0.18856165144E+01  0.19491471413E+03  0.00000000000E+00 0. -1.
<mgrwt>
<rscale>  0 0.65436412E+03</rscale>
<asrwt>0</asrwt>
<pdfrwt beam="1">0</pdfrwt>
<pdfrwt beam="2">  1        2 0.38926664E+00 0.65436412E+03</pdfrwt>
<totfact> 0.43663996E+00</totfact>
</mgrwt>
</event>
<event>
 5    1  0.2369161E-004  0.6415950E+03  0.7818608E-02  0.9822680E-01
         13   -1    0    0    0    0  0.00000000000E+00  0.00000000000E+00  0.10000000000E+04  0.10000000000E+04  0.00000000000E+00 0. -1.
          2   -1    0    0  501    0 -0.00000000000E+00 -0.00000000000E+00 -0.10291102374E+03  0.10291102374E+03  0.00000000000E+00 0. -1.
    9000006    2    1    2  501    0  0.00000000000E+00  0.00000000000E+00  0.89708897626E+03  0.11029110237E+04  0.64159496176E+03 0.  0.
         13    1    3    3    0    0 -0.63903681534E+02 -0.28473959231E+02  0.98672664916E+03  0.98920368329E+03  0.00000000000E+00 0. -1.
          2    1    3    3  501    0  0.63903681534E+02  0.28473959231E+02 -0.89637672904E+02  0.11370734045E+03  0.00000000000E+00 0. -1.
<mgrwt>
<rscale>  0 0.64159496E+03</rscale>
<asrwt>0</asrwt>
<pdfrwt beam="1">0</pdfrwt>
<pdfrwt beam="2">  1        2 0.37422269E+00 0.64159496E+03</pdfrwt>
<totfact> 0.49675278E+00</totfact>
</mgrwt>
</event>
<event>
 5    1  0.2369161E-004  0.6542494E+03  0.7818608E-02  0.9798838E-01
         13   -1    0    0    0    0  0.00000000000E+00  0.00000000000E+00  0.10000000000E+04  0.10000000000E+04  0.00000000000E+00 0. -1.
          2   -1    0    0  501    0 -0.00000000000E+00 -0.00000000000E+00 -0.10701056606E+03  0.10701056606E+03  0.00000000000E+00 0. -1.
    9000006    2    1    2  501    0  0.00000000000E+00  0.00000000000E+00  0.89298943394E+03  0.11070105661E+04  0.65424938996E+03 0.  0.
         13    1    3    3    0    0 -0.95715789609E+02 -0.31220494651E+03  0.47935347439E+03  0.58001137438E+03  0.00000000000E+00 0. -1.
          4    1    3    3  501    0  0.95715789609E+02  0.31220494651E+03  0.41363595954E+03  0.52699919168E+03  0.00000000000E+00 0. -1.
<mgrwt>
<rscale>  0 0.65424939E+03</rscale>
<asrwt>0</asrwt>
<pdfrwt beam="1">0</pdfrwt>
<pdfrwt beam="2">  1        2 0.38913015E+00 0.65424939E+03</pdfrwt>
<totfact> 0.43715425E+00</totfact>
</mgrwt>
</event>
<event>
 5    1  0.2369161E-004  0.5947556E+03  0.7818608E-02  0.9916347E-01
         13   -1    0    0    0    0  0.00000000000E+00  0.00000000000E+00  0.10000000000E+04  0.10000000000E+04  0.00000000000E+00 0. -1.
          2   -1    0    0  501    0 -0.00000000000E+00 -0.00000000000E+00 -0.88433547060E+02  0.88433547060E+02  0.00000000000E+00 0. -1.
    9000006    2    1    2  501    0  0.00000000000E+00  0.00000000000E+00  0.91156645294E+03  0.10884335471E+04  0.59475557016E+03 0.  0.
         13    1    3    3    0    0 -0.88447178889E+02 -0.28247176284E+03  0.40336743523E+03  0.50031838669E+03  0.00000000000E+00 0. -1.
          2    1    3    3  501    0  0.88447178889E+02  0.28247176284E+03  0.50819901771E+03  0.58811516037E+03  0.00000000000E+00 0. -1.
<mgrwt>
<rscale>  0 0.59475557E+03</rscale>
<asrwt>0</asrwt>
<pdfrwt beam="1">0</pdfrwt>
<pdfrwt beam="2">  1        2 0.32157721E+00 0.59475557E+03</pdfrwt>
<totfact> 0.77256800E+00</totfact>
</mgrwt>
</event>
<event>
 5    1  0.2369161E-004  0.6479745E+03  0.7818608E-02  0.9810587E-01
         13   -1    0    0    0    0  0.00000000000E+00  0.00000000000E+00  0.10000000000E+04  0.10000000000E+04  0.00000000000E+00 0. -1.
          2   -1    0    0  501    0 -0.00000000000E+00 -0.00000000000E+00 -0.10496773441E+03  0.10496773441E+03  0.00000000000E+00 0. -1.
    9000006    2    1    2  501    0  0.00000000000E+00  0.00000000000E+00  0.89503226559E+03  0.11049677344E+04  0.64797448841E+03 0.  0.
         13    1    3    3    0    0 -0.16087614545E+03 -0.11750740519E+03  0.11826588219E+02  0.19957202369E+03  0.00000000000E+00 0. -1.
          4    1    3    3  501    0  0.16087614545E+03  0.11750740519E+03  0.88320567737E+03  0.90539571072E+03  0.00000000000E+00 0. -1.
<mgrwt>
<rscale>  0 0.64797449E+03</rscale>
<asrwt>0</asrwt>
<pdfrwt beam="1">0</pdfrwt>
<pdfrwt beam="2">  1        2 0.38170166E+00 0.64797449E+03</pdfrwt>
<totfact> 0.46598730E+00</totfact>
</mgrwt>
</event>
<event>
 5    1  0.2369161E-004  0.6441795E+03  0.7818608E-02  0.9817763E-01
         13   -1    0    0    0    0  0.00000000000E+00  0.00000000000E+00  0.10000000000E+04  0.10000000000E+04  0.00000000000E+00 0. -1.
          2   -1    0    0  501    0 -0.00000000000E+00 -0.00000000000E+00 -0.10374179386E+03  0.10374179386E+03  0.00000000000E+00 0. -1.
    9000006    2    1    2  501    0  0.00000000000E+00  0.00000000000E+00  0.89625820614E+03  0.11037417939E+04  0.64417945904E+03 0.  0.
         13    1    3    3    0    0  0.19804234593E+03  0.17799009211E+03  0.75863212236E+03  0.80400493826E+03  0.00000000000E+00 0. -1.
          4    1    3    3  501    0 -0.19804234593E+03 -0.17799009211E+03  0.13762608378E+03  0.29973685560E+03  0.00000000000E+00 0. -1.
<mgrwt>
<rscale>  0 0.64417946E+03</rscale>
<asrwt>0</asrwt>
<pdfrwt beam="1">0</pdfrwt>
<pdfrwt beam="2">  1        2 0.37724368E+00 0.64417946E+03</pdfrwt>
<totfact> 0.48410913E+00</totfact>
</mgrwt>
</event>
<event>
 5    1  0.2369161E-004  0.6228967E+03  0.7818608E-02  0.9859009E-01
         13   -1    0    0    0    0  0.00000000000E+00  0.00000000000E+00  0.10000000000E+04  0.10000000000E+04  0.00000000000E+00 0. -1.
          2   -1    0    0  501    0 -0.00000000000E+00 -0.00000000000E+00 -0.97000075528E+02  0.97000075528E+02  0.00000000000E+00 0. -1.
    9000006    2    1    2  501    0  0.00000000000E+00  0.00000000000E+00  0.90299992447E+03  0.10970000755E+04  0.62289670260E+03 0.  0.
         13    1    3    3    0    0 -0.20684891527E+03  0.22377932093E+03  0.56476680599E+03  0.64173608545E+03  0.00000000000E+00 0. -1.
          2    1    3    3  501    0  0.20684891527E+03 -0.22377932093E+03  0.33823311848E+03  0.45526399008E+03  0.00000000000E+00 0. -1.
<mgrwt>
<rscale>  0 0.62289670E+03</rscale>
<asrwt>0</asrwt>
<pdfrwt beam="1">0</pdfrwt>
<pdfrwt beam="2">  1        2 0.35272829E+00 0.62289670E+03</pdfrwt>
<totfact> 0.59585040E+00</totfact>
</mgrwt>
</event>
<event>
 5    1  0.2369161E-004  0.6312848E+03  0.7818608E-02  0.9842545E-01
         13   -1    0    0    0    0  0.00000000000E+00  0.00000000000E+00  0.10000000000E+04  0.10000000000E+04  0.00000000000E+00 0. -1.
          2   -1    0    0  501    0 -0.00000000000E+00 -0.00000000000E+00 -0.99630110692E+02  0.99630110692E+02  0.00000000000E+00 0. -1.
    9000006    2    1    2  501    0  0.00000000000E+00  0.00000000000E+00  0.90036988931E+03  0.10996301107E+04  0.63128475569E+03 0.  0.
         13    1    3    3    0    0 -0.22846944339E+03 -0.20543524733E+03  0.32423536469E+03  0.44668836914E+03  0.00000000000E+00 0. -1.
          2    1    3    3  501    0  0.22846944339E+03  0.20543524733E+03  0.57613452461E+03  0.65294174155E+03  0.00000000000E+00 0. -1.
<mgrwt>
<rscale>  0 0.63128476E+03</rscale>
<asrwt>0</asrwt>
<pdfrwt beam="1">0</pdfrwt>
<pdfrwt beam="2">  1        2 0.36229208E+00 0.63128476E+03</pdfrwt>
<totfact> 0.54970082E+00</totfact>
</mgrwt>
</event>
<event>
 5    1  0.2369161E-004  0.6051920E+03  0.7818608E-02  0.9894693E-01
         13   -1    0    0    0    0  0.00000000000E+00  0.00000000000E+00  0.10000000000E+04  0.10000000000E+04  0.00000000000E+00 0. -1.
          2   -1    0    0  501    0 -0.00000000000E+00 -0.00000000000E+00 -0.91564335616E+02  0.91564335616E+02  0.00000000000E+00 0. -1.
    9000006    2    1    2  501    0  0.00000000000E+00  0.00000000000E+00  0.90843566438E+03  0.10915643356E+04  0.60519198810E+03 0.  0.
         13    1    3    3    0    0 -0.16573267729E+03  0.23968988349E+03  0.30718003558E+03  0.42341248780E+03  0.00000000000E+00 0. -1.
          2    1    3    3  501    0  0.16573267729E+03 -0.23968988349E+03  0.60125562881E+03  0.66815184782E+03  0.00000000000E+00 0. -1.
<mgrwt>
<rscale>  0 0.60519199E+03</rscale>
<asrwt>0</asrwt>
<pdfrwt beam="1">0</pdfrwt>
<pdfrwt beam="2">  1        2 0.33296192E+00 0.60519199E+03</pdfrwt>
<totfact> 0.70291092E+00</totfact>
</mgrwt>
</event>
<event>
 5    1  0.2369161E-004  0.6422106E+03  0.7818608E-02  0.9821506E-01
         13   -1    0    0    0    0  0.00000000000E+00  0.00000000000E+00  0.10000000000E+04  0.10000000000E+04  0.00000000000E+00 0. -1.
          2   -1    0    0  501    0 -0.00000000000E+00 -0.00000000000E+00 -0.10310860074E+03  0.10310860074E+03  0.00000000000E+00 0. -1.
    9000006    2    1    2  501    0  0.00000000000E+00  0.00000000000E+00  0.89689139926E+03  0.11031086007E+04  0.64221055968E+03 0.  0.
         13    1    3    3    0    0  0.19460120376E+03 -0.45073063466E+02  0.88028758301E+03  0.90266684793E+03  0.00000000000E+00 0. -1.
          4    1    3    3  501    0 -0.19460120376E+03  0.45073063466E+02  0.16603816253E+02  0.20044175281E+03  0.00000000000E+00 0. -1.
<mgrwt>
<rscale>  0 0.64221056E+03</rscale>
<asrwt>0</asrwt>
<pdfrwt beam="1">0</pdfrwt>
<pdfrwt beam="2">  1        2 0.37494116E+00 0.64221056E+03</pdfrwt>
<totfact> 0.49371863E+00</totfact>
</mgrwt>
</event>
<event>
 5    1  0.2369161E-004  0.6296882E+03  0.7818608E-02  0.9845657E-01
         13   -1    0    0    0    0  0.00000000000E+00  0.00000000000E+00  0.10000000000E+04  0.10000000000E+04  0.00000000000E+00 0. -1.
          2   -1    0    0  501    0 -0.00000000000E+00 -0.00000000000E+00 -0.99126803195E+02  0.99126803195E+02  0.00000000000E+00 0. -1.
    9000006    2    1    2  501    0  0.00000000000E+00  0.00000000000E+00  0.90087319680E+03  0.10991268032E+04  0.62968818695E+03 0.  0.
         13    1    3    3    0    0 -0.17915996837E+03 -0.12895986392E+03  0.58578965188E+02  0.22838659315E+03  0.00000000000E+00 0. -1.
          4    1    3    3  501    0  0.17915996837E+03  0.12895986392E+03  0.84229423162E+03  0.87074021004E+03  0.00000000000E+00 0. -1.
<mgrwt>
<rscale>  0 0.62968819E+03</rscale>
<asrwt>0</asrwt>
<pdfrwt beam="1">0</pdfrwt>
<pdfrwt beam="2">  1        2 0.36046186E+00 0.62968819E+03</pdfrwt>
<totfact> 0.55826769E+00</totfact>
</mgrwt>
</event>
<event>
 5    1  0.2369161E-004  0.6483314E+03  0.7818608E-02  0.9809915E-01
         13   -1    0    0    0    0  0.00000000000E+00  0.00000000000E+00  0.10000000000E+04  0.10000000000E+04  0.00000000000E+00 0. -1.
          2   -1    0    0  501    0 -0.00000000000E+00 -0.00000000000E+00 -0.10508341517E+03  0.10508341517E+03  0.00000000000E+00 0. -1.
    9000006    2    1    2  501    0  0.00000000000E+00  0.00000000000E+00  0.89491658483E+03  0.11050834152E+04  0.64833144355E+03 0.  0.
         13    1    3    3    0    0 -0.73758853831E+02 -0.22517026871E+03  0.82454059981E+03  0.85790979664E+03  0.00000000000E+00 0. -1.
          4    1    3    3  501    0  0.73758853831E+02  0.22517026871E+03  0.70375985013E+02  0.24717361853E+03  0.00000000000E+00 0. -1.
<mgrwt>
<rscale>  0 0.64833144E+03</rscale>
<asrwt>0</asrwt>
<pdfrwt beam="1">0</pdfrwt>
<pdfrwt beam="2">  1        2 0.38212232E+00 0.64833144E+03</pdfrwt>
<totfact> 0.46430958E+00</totfact>
</mgrwt>
</event>
<event>
 5    1  0.2369161E-004  0.6379096E+03  0.7818608E-02  0.9829734E-01
         13   -1    0    0    0    0  0.00000000000E+00  0.00000000000E+00  0.10000000000E+04  0.10000000000E+04  0.00000000000E+00 0. -1.
          2   -1    0    0  501    0 -0.00000000000E+00 -0.00000000000E+00 -0.10173215423E+03  0.10173215423E+03  0.00000000000E+00 0. -1.
    9000006    2    1    2  501    0  0.00000000000E+00  0.00000000000E+00  0.89826784577E+03  0.11017321542E+04  0.63790956797E+03 0.  0.
         13    1    3    3    0    0 -0.22208790414E+03  0.16433550209E+03  0.72440404086E+03  0.77530020562E+03  0.00000000000E+00 0. -1.
          2    1    3    3  501    0  0.22208790414E+03 -0.16433550209E+03  0.17386380491E+03  0.32643194861E+03  0.00000000000E+00 0. -1.
<mgrwt>
<rscale>  0 0.63790957E+03</rscale>
<asrwt>0</asrwt>
<pdfrwt beam="1">0</pdfrwt>
<pdfrwt beam="2">  1        2 0.36993589E+00 0.63790957E+03</pdfrwt>
<totfact> 0.51521368E+00</totfact>
</mgrwt>
</event>
<event>
 5    1  0.2369161E-004  0.6513865E+03  0.7818608E-02  0.9804181E-01
         13   -1    0    0    0    0  0.00000000000E+00  0.00000000000E+00  0.10000000000E+04  0.10000000000E+04  0.00000000000E+00 0. -1.
          2   -1    0    0  501    0 -0.00000000000E+00 -0.00000000000E+00 -0.10607608177E+03  0.10607608177E+03  0.00000000000E+00 0. -1.
    9000006    2    1    2  501    0  0.00000000000E+00  0.00000000000E+00  0.89392391823E+03  0.11060760818E+04  0.65138646524E+03 0.  0.
         13    1    3    3    0    0  0.85524960359E+02 -0.24030118736E+03  0.10306550353E+03  0.27510303072E+03  0.00000000000E+00 0. -1.
          2    1    3    3  501    0 -0.85524960359E+02  0.24030118736E+03  0.79085841469E+03  0.83097305106E+03  0.00000000000E+00 0. -1.
<mgrwt>
<rscale>  0 0.65138647E+03</rscale>
<asrwt>0</asrwt>
<pdfrwt beam="1">0</pdfrwt>
<pdfrwt beam="2">  1        2 0.38573202E+00 0.65138647E+03</pdfrwt>
<totfact> 0.45013682E+00</totfact>
</mgrwt>
</event>
<event>
 5    1  0.2369161E-004  0.6420524E+03  0.7818608E-02  0.9821808E-01
         13   -1    0    0    0    0  0.00000000000E+00  0.00000000000E+00  0.10000000000E+04  0.10000000000E+04  0.00000000000E+00 0. -1.
          2   -1    0    0  501    0 -0.00000000000E+00 -0.00000000000E+00 -0.10305781684E+03  0.10305781684E+03  0.00000000000E+00 0. -1.
    9000006    2    1    2  501    0  0.00000000000E+00  0.00000000000E+00  0.89694218316E+03  0.11030578168E+04  0.64205238679E+03 0.  0.
         13    1    3    3    0    0  0.16769276371E+03  0.21141348576E+02  0.91736737548E+03  0.93280797660E+03  0.00000000000E+00 0. -1.
          2    1    3    3  501    0 -0.16769276371E+03 -0.21141348576E+02 -0.20425192323E+02  0.17024984024E+03  0.00000000000E+00 0. -1.
<mgrwt>
<rscale>  0 0.64205239E+03</rscale>
<asrwt>0</asrwt>
<pdfrwt beam="1">0</pdfrwt>
<pdfrwt beam="2">  1        2 0.37475649E+00 0.64205239E+03</pdfrwt>
<totfact> 0.49449689E+00</totfact>
</mgrwt>
</event>
<event>
 5    1  0.2369161E-004  0.6523466E+03  0.7818608E-02  0.9802386E-01
         13   -1    0    0    0    0  0.00000000000E+00  0.00000000000E+00  0.10000000000E+04  0.10000000000E+04  0.00000000000E+00 0. -1.
          2   -1    0    0  501    0 -0.00000000000E+00 -0.00000000000E+00 -0.10638903074E+03  0.10638903074E+03  0.00000000000E+00 0. -1.
    9000006    2    1    2  501    0  0.00000000000E+00  0.00000000000E+00  0.89361096926E+03  0.11063890307E+04  0.65234662793E+03 0.  0.
         13    1    3    3    0    0 -0.49999448206E+02  0.19253273458E+03  0.88521849038E+03  0.90729299259E+03  0.00000000000E+00 0. -1.
          2    1    3    3  501    0  0.49999448206E+02 -0.19253273458E+03  0.83924788798E+01  0.19909603815E+03  0.00000000000E+00 0. -1.
<mgrwt>
<rscale>  0 0.65234663E+03</rscale>
<asrwt>0</asrwt>
<pdfrwt beam="1">0</pdfrwt>
<pdfrwt beam="2">  1        2 0.38687002E+00 0.65234663E+03</pdfrwt>
<totfact> 0.44575073E+00</totfact>
</mgrwt>
</event>
<event>
 5    1  0.2369161E-004  0.6419300E+03  0.7818608E-02  0.9822041E-01
         13   -1    0    0    0    0  0.00000000000E+00  0.00000000000E+00  0.10000000000E+04  0.10000000000E+04  0.00000000000E+00 0. -1.
          2   -1    0    0  501    0 -0.00000000000E+00 -0.00000000000E+00 -0.10301852696E+03  0.10301852696E+03  0.00000000000E+00 0. -1.
    9000006    2    1    2  501    0  0.00000000000E+00  0.00000000000E+00  0.89698147304E+03  0.11030185270E+04  0.64192998670E+03 0.  0.
         13    1    3    3    0    0  0.25086161452E+03 -0.20021498524E+03  0.44682745571E+03  0.55015667326E+03  0.00000000000E+00 0. -1.
          4    1    3    3  501    0 -0.25086161452E+03  0.20021498524E+03  0.45015401734E+03  0.55286185370E+03  0.00000000000E+00 0. -1.
<mgrwt>
<rscale>  0 0.64192999E+03</rscale>
<asrwt>0</asrwt>
<pdfrwt beam="1">0</pdfrwt>
<pdfrwt beam="2">  1        2 0.37461362E+00 0.64192999E+03</pdfrwt>
<totfact> 0.49509977E+00</totfact>
</mgrwt>
</event>
<event>
 5    1  0.2369161E-004  0.6515055E+03  0.7818608E-02  0.9803958E-01
         13   -1    0    0    0    0  0.00000000000E+00  0.00000000000E+00  0.10000000000E+04  0.10000000000E+04  0.00000000000E+00 0. -1.
          2   -1    0    0  501    0 -0.00000000000E+00 -0.00000000000E+00 -0.10611485543E+03  0.10611485543E+03  0.00000000000E+00 0. -1.
    9000006    2    1    2  501    0  0.00000000000E+00  0.00000000000E+00  0.89388514457E+03  0.11061148554E+04  0.65150550398E+03 0.  0.
         13    1    3    3    0    0  0.15060892488E+03 -0.14288715446E+02 -0.42854207467E+02  0.15723771412E+03  0.00000000000E+00 0. -1.
          4    1    3    3  501    0 -0.15060892488E+03  0.14288715446E+02  0.93673935204E+03  0.94887714131E+03  0.00000000000E+00 0. -1.
<mgrwt>
<rscale>  0 0.65150550E+03</rscale>
<asrwt>0</asrwt>
<pdfrwt beam="1">0</pdfrwt>
<pdfrwt beam="2">  1        2 0.38587302E+00 0.65150550E+03</pdfrwt>
<totfact> 0.44959128E+00</totfact>
</mgrwt>
</event>
<event>
 5    1  0.2369161E-004  0.5929719E+03  0.7818608E-02  0.9920095E-01
         13   -1    0    0    0    0  0.00000000000E+00  0.00000000000E+00  0.10000000000E+04  0.10000000000E+04  0.00000000000E+00 0. -1.
          2   -1    0    0  501    0 -0.00000000000E+00 -0.00000000000E+00 -0.87903916350E+02  0.87903916350E+02  0.00000000000E+00 0. -1.
    9000006    2    1    2  501    0  0.00000000000E+00  0.00000000000E+00  0.91209608365E+03  0.10879039164E+04  0.59297189259E+03 0.  0.
         13    1    3    3    0    0 -0.18679404316E+03 -0.14451051890E+03  0.78490149933E+03  0.81966192316E+03  0.00000000000E+00 0. -1.
          4    1    3    3  501    0  0.18679404316E+03  0.14451051890E+03  0.12719458432E+03  0.26824199319E+03  0.00000000000E+00 0. -1.
<mgrwt>
<rscale>  0 0.59297189E+03</rscale>
<asrwt>0</asrwt>
<pdfrwt beam="1">0</pdfrwt>
<pdfrwt beam="2">  1        2 0.31965128E+00 0.59297189E+03</pdfrwt>
<totfact> 0.78499106E+00</totfact>
</mgrwt>
</event>
<event>
 5    1  0.2369161E-004  0.6477618E+03  0.7818608E-02  0.9810988E-01
         13   -1    0    0    0    0  0.00000000000E+00  0.00000000000E+00  0.10000000000E+04  0.10000000000E+04  0.00000000000E+00 0. -1.
          2   -1    0    0  501    0 -0.00000000000E+00 -0.00000000000E+00 -0.10489883808E+03  0.10489883808E+03  0.00000000000E+00 0. -1.
    9000006    2    1    2  501    0  0.00000000000E+00  0.00000000000E+00  0.89510116192E+03  0.11048988381E+04  0.64776180216E+03 0.  0.
         13    1    3    3    0    0  0.10569225172E+03  0.23820535130E+03  0.77559074422E+03  0.81820146907E+03  0.00000000000E+00 0. -1.
          4    1    3    3  501    0 -0.10569225172E+03 -0.23820535130E+03  0.11951041769E+03  0.28669736901E+03  0.00000000000E+00 0. -1.
<mgrwt>
<rscale>  0 0.64776180E+03</rscale>
<asrwt>0</asrwt>
<pdfrwt beam="1">0</pdfrwt>
<pdfrwt beam="2">  1        2 0.38145112E+00 0.64776180E+03</pdfrwt>
<totfact> 0.46698911E+00</totfact>
</mgrwt>
</event>
<event>
 5    1  0.2369161E-004  0.6519199E+03  0.7818608E-02  0.9803183E-01
         13   -1    0    0    0    0  0.00000000000E+00  0.00000000000E+00  0.10000000000E+04  0.10000000000E+04  0.00000000000E+00 0. -1.
          2   -1    0    0  501    0 -0.00000000000E+00 -0.00000000000E+00 -0.10624988994E+03  0.10624988994E+03  0.00000000000E+00 0. -1.
    9000006    2    1    2  501    0  0.00000000000E+00  0.00000000000E+00  0.89375011006E+03  0.11062498899E+04  0.65191990286E+03 0.  0.
         13    1    3    3    0    0 -0.66149666320E+02 -0.14676614806E+03  0.92783419364E+03  0.94169653894E+03  0.00000000000E+00 0. -1.
          4    1    3    3  501    0  0.66149666320E+02  0.14676614806E+03 -0.34084083574E+02  0.16455335100E+03  0.00000000000E+00 0. -1.
<mgrwt>
<rscale>  0 0.65191990E+03</rscale>
<asrwt>0</asrwt>
<pdfrwt beam="1">0</pdfrwt>
<pdfrwt beam="2">  1        2 0.38636405E+00 0.65191990E+03</pdfrwt>
<totfact> 0.44769604E+00</totfact>
</mgrwt>
</event>
<event>
 5    1  0.2369161E-004  0.6463258E+03  0.7818608E-02  0.9813698E-01
         13   -1    0    0    0    0  0.00000000000E+00  0.00000000000E+00  0.10000000000E+04  0.10000000000E+04  0.00000000000E+00 0. -1.
          2   -1    0    0  501    0 -0.00000000000E+00 -0.00000000000E+00 -0.10443425994E+03  0.10443425994E+03  0.00000000000E+00 0. -1.
    9000006    2    1    2  501    0  0.00000000000E+00  0.00000000000E+00  0.89556574006E+03  0.11044342599E+04  0.64632580002E+03 0.  0.
         13    1    3    3    0    0 -0.27517430327E+03  0.13023356880E+03  0.63303149444E+03  0.70243188465E+03  0.00000000000E+00 0. -1.
          2    1    3    3  501    0  0.27517430327E+03 -0.13023356880E+03  0.26253424562E+03  0.40200237530E+03  0.00000000000E+00 0. -1.
<mgrwt>
<rscale>  0 0.64632580E+03</rscale>
<asrwt>0</asrwt>
<pdfrwt beam="1">0</pdfrwt>
<pdfrwt beam="2">  1        2 0.37976175E+00 0.64632580E+03</pdfrwt>
<totfact> 0.47379581E+00</totfact>
</mgrwt>
</event>
<event>
 5    1  0.2369161E-004  0.6390257E+03  0.7818608E-02  0.9827592E-01
         13   -1    0    0    0    0  0.00000000000E+00  0.00000000000E+00  0.10000000000E+04  0.10000000000E+04  0.00000000000E+00 0. -1.
          2   -1    0    0  501    0 -0.00000000000E+00 -0.00000000000E+00 -0.10208844621E+03  0.10208844621E+03  0.00000000000E+00 0. -1.
    9000006    2    1    2  501    0  0.00000000000E+00  0.00000000000E+00  0.89791155379E+03  0.11020884462E+04  0.63902565272E+03 0.  0.
         13    1    3    3    0    0 -0.20719832763E+03  0.16156252522E+03  0.76251223504E+03  0.80651007751E+03  0.00000000000E+00 0. -1.
          2    1    3    3  501    0  0.20719832763E+03 -0.16156252522E+03  0.13539931875E+03  0.29557836870E+03  0.00000000000E+00 0. -1.
<mgrwt>
<rscale>  0 0.63902565E+03</rscale>
<asrwt>0</asrwt>
<pdfrwt beam="1">0</pdfrwt>
<pdfrwt beam="2">  1        2 0.37123150E+00 0.63902565E+03</pdfrwt>
<totfact> 0.50956906E+00</totfact>
</mgrwt>
</event>
<event>
 5    1  0.2369161E-004  0.6528897E+03  0.7818608E-02  0.9801372E-01
         13   -1    0    0    0    0  0.00000000000E+00  0.00000000000E+00  0.10000000000E+04  0.10000000000E+04  0.00000000000E+00 0. -1.
          2   -1    0    0  501    0 -0.00000000000E+00 -0.00000000000E+00 -0.10656624941E+03  0.10656624941E+03  0.00000000000E+00 0. -1.
    9000006    2    1    2  501    0  0.00000000000E+00  0.00000000000E+00  0.89343375059E+03  0.11065662494E+04  0.65288972856E+03 0.  0.
         13    1    3    3    0    0 -0.48868088798E+02  0.28010661168E+03  0.71852343925E+03  0.77273781890E+03  0.00000000000E+00 0. -1.
          2    1    3    3  501    0  0.48868088798E+02 -0.28010661168E+03  0.17491031134E+03  0.33382843052E+03  0.00000000000E+00 0. -1.
<mgrwt>
<rscale>  0 0.65288973E+03</rscale>
<asrwt>0</asrwt>
<pdfrwt beam="1">0</pdfrwt>
<pdfrwt beam="2">  1        2 0.38751445E+00 0.65288973E+03</pdfrwt>
<totfact> 0.44328416E+00</totfact>
</mgrwt>
</event>
<event>
 5    1  0.2369161E-004  0.6547892E+03  0.7818608E-02  0.9797834E-01
         13   -1    0    0    0    0  0.00000000000E+00  0.00000000000E+00  0.10000000000E+04  0.10000000000E+04  0.00000000000E+00 0. -1.
          2   -1    0    0  501    0 -0.00000000000E+00 -0.00000000000E+00 -0.10718721211E+03  0.10718721211E+03  0.00000000000E+00 0. -1.
    9000006    2    1    2  501    0  0.00000000000E+00  0.00000000000E+00  0.89281278789E+03  0.11071872121E+04  0.65478916335E+03 0.  0.
         13    1    3    3    0    0 -0.81870475171E+01 -0.79411572494E+02 -0.90477001001E+02  0.12066197953E+03  0.00000000000E+00 0. -1.
          4    1    3    3  501    0  0.81870475171E+01  0.79411572494E+02  0.98328978889E+03  0.98652523259E+03  0.00000000000E+00 0. -1.
<mgrwt>
<rscale>  0 0.65478916E+03</rscale>
<asrwt>0</asrwt>
<pdfrwt beam="1">0</pdfrwt>
<pdfrwt beam="2">  1        2 0.38977250E+00 0.65478916E+03</pdfrwt>
<totfact> 0.43473857E+00</totfact>
</mgrwt>
</event>
<event>
 5    1  0.2369161E-004  0.6442542E+03  0.7818608E-02  0.9817621E-01
         13   -1    0    0    0    0  0.00000000000E+00  0.00000000000E+00  0.10000000000E+04  0.10000000000E+04  0.00000000000E+00 0. -1.
          2   -1    0    0  501    0 -0.00000000000E+00 -0.00000000000E+00 -0.10376585932E+03  0.10376585932E+03  0.00000000000E+00 0. -1.
    9000006    2    1    2  501    0  0.00000000000E+00  0.00000000000E+00  0.89623414068E+03  0.11037658593E+04  0.64425417134E+03 0.  0.
         13    1    3    3    0    0  0.27322022808E+03 -0.15877503997E+03  0.55520594813E+03  0.63883679542E+03  0.00000000000E+00 0. -1.
          4    1    3    3  501    0 -0.27322022808E+03  0.15877503997E+03  0.34102819255E+03  0.46492906390E+03  0.00000000000E+00 0. -1.
<mgrwt>
<rscale>  0 0.64425417E+03</rscale>
<asrwt>0</asrwt>
<pdfrwt beam="1">0</pdfrwt>
<pdfrwt beam="2">  1        2 0.37733119E+00 0.64425417E+03</pdfrwt>
<totfact> 0.48374731E+00</totfact>
</mgrwt>
</event>
<event>
 5    1  0.2369161E-004  0.6494948E+03  0.7818608E-02  0.9807728E-01
         13   -1    0    0    0    0  0.00000000000E+00  0.00000000000E+00  0.10000000000E+04  0.10000000000E+04  0.00000000000E+00 0. -1.
          2   -1    0    0  501    0 -0.00000000000E+00 -0.00000000000E+00 -0.10546086876E+03  0.10546086876E+03  0.00000000000E+00 0. -1.
    9000006    2    1    2  501    0  0.00000000000E+00  0.00000000000E+00  0.89453913124E+03  0.11054608688E+04  0.64949478447E+03 0.  0.
         13    1    3    3    0    0  0.24275891169E+03  0.21333749677E+03  0.39301525764E+03  0.50882783874E+03  0.00000000000E+00 0. -1.
          2    1    3    3  501    0 -0.24275891169E+03 -0.21333749677E+03  0.50152387360E+03  0.59663303003E+03  0.00000000000E+00 0. -1.
<mgrwt>
<rscale>  0 0.64949478E+03</rscale>
<asrwt>0</asrwt>
<pdfrwt beam="1">0</pdfrwt>
<pdfrwt beam="2">  1        2 0.38349488E+00 0.64949478E+03</pdfrwt>
<totfact> 0.45887347E+00</totfact>
</mgrwt>
</event>
<event>
 5    1  0.2369161E-004  0.6464160E+03  0.7818608E-02  0.9813528E-01
         13   -1    0    0    0    0  0.00000000000E+00  0.00000000000E+00  0.10000000000E+04  0.10000000000E+04  0.00000000000E+00 0. -1.
          2   -1    0    0  501    0 -0.00000000000E+00 -0.00000000000E+00 -0.10446341228E+03  0.10446341228E+03  0.00000000000E+00 0. -1.
    9000006    2    1    2  501    0  0.00000000000E+00  0.00000000000E+00  0.89553658772E+03  0.11044634123E+04  0.64641600314E+03 0.  0.
         13    1    3    3    0    0 -0.20808207154E+03 -0.14668569783E+03  0.10755365461E+03  0.27637407814E+03  0.00000000000E+00 0. -1.
          2    1    3    3  501    0  0.20808207154E+03  0.14668569783E+03  0.78798293311E+03  0.82808933414E+03  0.00000000000E+00 0. -1.
<mgrwt>
<rscale>  0 0.64641600E+03</rscale>
<asrwt>0</asrwt>
<pdfrwt beam="1">0</pdfrwt>
<pdfrwt beam="2">  1        2 0.37986775E+00 0.64641600E+03</pdfrwt>
<totfact> 0.47336605E+00</totfact>
</mgrwt>
</event>
<event>
 5    1  0.2369161E-004  0.6503593E+03  0.7818608E-02  0.9806105E-01
         13   -1    0    0    0    0  0.00000000000E+00  0.00000000000E+00  0.10000000000E+04  0.10000000000E+04  0.00000000000E+00 0. -1.
          2   -1    0    0  501    0 -0.00000000000E+00 -0.00000000000E+00 -0.10574181883E+03  0.10574181883E+03  0.00000000000E+00 0. -1.
    9000006    2    1    2  501    0  0.00000000000E+00  0.00000000000E+00  0.89425818117E+03  0.11057418188E+04  0.65035934322E+03 0.  0.
         13    1    3    3    0    0 -0.62890097793E+02  0.15543286916E+03 -0.26575429573E+02  0.16976688332E+03  0.00000000000E+00 0. -1.
          2    1    3    3  501    0  0.62890097793E+02 -0.15543286916E+03  0.92083361074E+03  0.93597493550E+03  0.00000000000E+00 0. -1.
<mgrwt>
<rscale>  0 0.65035934E+03</rscale>
<asrwt>0</asrwt>
<pdfrwt beam="1">0</pdfrwt>
<pdfrwt beam="2">  1        2 0.38451652E+00 0.65035934E+03</pdfrwt>
<totfact> 0.45486479E+00</totfact>
</mgrwt>
</event>
<event>
 5    1  0.2369161E-004  0.6494056E+03  0.7818608E-02  0.9807895E-01
         13   -1    0    0    0    0  0.00000000000E+00  0.00000000000E+00  0.10000000000E+04  0.10000000000E+04  0.00000000000E+00 0. -1.
          2   -1    0    0  501    0 -0.00000000000E+00 -0.00000000000E+00 -0.10543189727E+03  0.10543189727E+03  0.00000000000E+00 0. -1.
    9000006    2    1    2  501    0  0.00000000000E+00  0.00000000000E+00  0.89456810273E+03  0.11054318973E+04  0.64940556593E+03 0.  0.
         13    1    3    3    0    0  0.99094053930E+02 -0.82735682322E+02  0.95444047936E+03  0.96313106756E+03  0.00000000000E+00 0. -1.
          2    1    3    3  501    0 -0.99094053930E+02  0.82735682322E+02 -0.59872376624E+02  0.14230082971E+03  0.00000000000E+00 0. -1.
<mgrwt>
<rscale>  0 0.64940557E+03</rscale>
<asrwt>0</asrwt>
<pdfrwt beam="1">0</pdfrwt>
<pdfrwt beam="2">  1        2 0.38338953E+00 0.64940557E+03</pdfrwt>
<totfact> 0.45928867E+00</totfact>
</mgrwt>
</event>
<event>
 5    1  0.2369161E-004  0.5705209E+03  0.7818608E-02  0.9968527E-01
         13   -1    0    0    0    0  0.00000000000E+00  0.00000000000E+00  0.10000000000E+04  0.10000000000E+04  0.00000000000E+00 0. -1.
          2   -1    0    0  501    0 -0.00000000000E+00 -0.00000000000E+00 -0.81373534574E+02  0.81373534574E+02  0.00000000000E+00 0. -1.
    9000006    2    1    2  501    0  0.00000000000E+00  0.00000000000E+00  0.91862646543E+03  0.10813735346E+04  0.57052093590E+03 0.  0.
         13    1    3    3    0    0  0.24415798543E+03 -0.98179961564E+02  0.66799058066E+03  0.71795810640E+03  0.00000000000E+00 0. -1.
          2    1    3    3  501    0 -0.24415798543E+03  0.98179961564E+02  0.25063588476E+03  0.36341542817E+03  0.00000000000E+00 0. -1.
<mgrwt>
<rscale>  0 0.57052094E+03</rscale>
<asrwt>0</asrwt>
<pdfrwt beam="1">0</pdfrwt>
<pdfrwt beam="2">  1        2 0.29590439E+00 0.57052094E+03</pdfrwt>
<totfact> 0.95495061E+00</totfact>
</mgrwt>
</event>
<event>
 5    1  0.2369161E-004  0.6551655E+03  0.7818608E-02  0.9797134E-01
         13   -1    0    0    0    0  0.00000000000E+00  0.00000000000E+00  0.10000000000E+04  0.10000000000E+04  0.00000000000E+00 0. -1.
          2   -1    0    0  501    0 -0.00000000000E+00 -0.00000000000E+00 -0.10731045748E+03  0.10731045748E+03  0.00000000000E+00 0. -1.
    9000006    2    1    2  501    0  0.00000000000E+00  0.00000000000E+00  0.89268954252E+03  0.11073104575E+04  0.65516549811E+03 0.  0.
         13    1    3    3    0    0  0.18681558582E+03 -0.25608752680E+03  0.30667090399E+03  0.44105320296E+03  0.00000000000E+00 0. -1.
          4    1    3    3  501    0 -0.18681558582E+03  0.25608752680E+03  0.58601863854E+03  0.66625725452E+03  0.00000000000E+00 0. -1.
<mgrwt>
<rscale>  0 0.65516550E+03</rscale>
<asrwt>0</asrwt>
<pdfrwt beam="1">0</pdfrwt>
<pdfrwt beam="2">  1        2 0.39022067E+00 0.65516550E+03</pdfrwt>
<totfact> 0.43306032E+00</totfact>
</mgrwt>
</event>
<event>
 5    1  0.2369161E-004  0.6508441E+03  0.7818608E-02  0.9805197E-01
         13   -1    0    0    0    0  0.00000000000E+00  0.00000000000E+00  0.10000000000E+04  0.10000000000E+04  0.00000000000E+00 0. -1.
          2   -1    0    0  501    0 -0.00000000000E+00 -0.00000000000E+00 -0.10589951578E+03  0.10589951578E+03  0.00000000000E+00 0. -1.
    9000006    2    1    2  501    0  0.00000000000E+00  0.00000000000E+00  0.89410048422E+03  0.11058995158E+04  0.65084411585E+03 0.  0.
         13    1    3    3    0    0 -0.52982108194E+02 -0.15715568721E+03  0.92280318981E+03  0.93758772440E+03  0.00000000000E+00 0. -1.
          4    1    3    3  501    0  0.52982108194E+02  0.15715568721E+03 -0.28702705594E+02  0.16831179139E+03  0.00000000000E+00 0. -1.
<mgrwt>
<rscale>  0 0.65084412E+03</rscale>
<asrwt>0</asrwt>
<pdfrwt beam="1">0</pdfrwt>
<pdfrwt beam="2">  1        2 0.38508996E+00 0.65084412E+03</pdfrwt>
<totfact> 0.45262867E+00</totfact>
</mgrwt>
</event>
<event>
 5    1  0.2369161E-004  0.6425090E+03  0.7818608E-02  0.9820938E-01
         13   -1    0    0    0    0  0.00000000000E+00  0.00000000000E+00  0.10000000000E+04  0.10000000000E+04  0.00000000000E+00 0. -1.
          2   -1    0    0  501    0 -0.00000000000E+00 -0.00000000000E+00 -0.10320445384E+03  0.10320445384E+03  0.00000000000E+00 0. -1.
    9000006    2    1    2  501    0  0.00000000000E+00  0.00000000000E+00  0.89679554616E+03  0.11032044538E+04  0.64250900022E+03 0.  0.
         13    1    3    3    0    0  0.25330001061E+03 -0.19671327155E+03  0.41639252227E+03  0.52558513981E+03  0.00000000000E+00 0. -1.
          4    1    3    3  501    0 -0.25330001061E+03  0.19671327155E+03  0.48040302389E+03  0.57761931403E+03  0.00000000000E+00 0. -1.
<mgrwt>
<rscale>  0 0.64250900E+03</rscale>
<asrwt>0</asrwt>
<pdfrwt beam="1">0</pdfrwt>
<pdfrwt beam="2">  1        2 0.37528971E+00 0.64250900E+03</pdfrwt>
<totfact> 0.49225275E+00</totfact>
</mgrwt>
</event>
<event>
 5    1  0.2369161E-004  0.6527076E+03  0.7818608E-02  0.9801712E-01
         13   -1    0    0    0    0  0.00000000000E+00  0.00000000000E+00  0.10000000000E+04  0.10000000000E+04  0.00000000000E+00 0. -1.
          2   -1    0    0  501    0 -0.00000000000E+00 -0.00000000000E+00 -0.10650678956E+03  0.10650678956E+03  0.00000000000E+00 0. -1.
    9000006    2    1    2  501    0  0.00000000000E+00  0.00000000000E+00  0.89349321044E+03  0.11065067896E+04  0.65270755951E+03 0.  0.
         13    1    3    3    0    0 -0.31425058352E+03  0.86105613175E+02  0.47796804485E+03  0.57846439628E+03  0.00000000000E+00 0. -1.
          2    1    3    3  501    0  0.31425058352E+03 -0.86105613175E+02  0.41552516559E+03  0.52804239328E+03  0.00000000000E+00 0. -1.
<mgrwt>
<rscale>  0 0.65270756E+03</rscale>
<asrwt>0</asrwt>
<pdfrwt beam="1">0</pdfrwt>
<pdfrwt beam="2">  1        2 0.38729823E+00 0.65270756E+03</pdfrwt>
<totfact> 0.44411035E+00</totfact>
</mgrwt>
</event>
<event>
 5    1  0.2369161E-004  0.6810018E+03  0.7818608E-02  0.9750285E-01
         13   -1    0    0    0    0  0.00000000000E+00  0.00000000000E+00  0.10000000000E+04  0.10000000000E+04  0.00000000000E+00 0. -1.
          2   -1    0    0  501    0 -0.00000000000E+00 -0.00000000000E+00 -0.11594087450E+03  0.11594087450E+03  0.00000000000E+00 0. -1.
    9000006    2    1    2  501    0  0.00000000000E+00  0.00000000000E+00  0.88405912550E+03  0.11159408745E+04  0.68100183408E+03 0.  0.
         13    1    3    3    0    0  0.28262379631E+03 -0.13140002426E+03  0.21735350872E+03  0.37997989996E+03  0.00000000000E+00 0. -1.
          2    1    3    3  501    0 -0.28262379631E+03  0.13140002426E+03  0.66670561677E+03  0.73596097454E+03  0.00000000000E+00 0. -1.
<mgrwt>
<rscale>  0 0.68100183E+03</rscale>
<asrwt>0</asrwt>
<pdfrwt beam="1">0</pdfrwt>
<pdfrwt beam="2">  1        2 0.42160407E+00 0.68100183E+03</pdfrwt>
<totfact> 0.32903891E+00</totfact>
</mgrwt>
</event>
<event>
 5    1  0.2369161E-004  0.6865979E+03  0.7818608E-02  0.9740430E-01
         13   -1    0    0    0    0  0.00000000000E+00  0.00000000000E+00  0.10000000000E+04  0.10000000000E+04  0.00000000000E+00 0. -1.
          2   -1    0    0  501    0 -0.00000000000E+00 -0.00000000000E+00 -0.11785417605E+03  0.11785417605E+03  0.00000000000E+00 0. -1.
    9000006    2    1    2  501    0  0.00000000000E+00  0.00000000000E+00  0.88214582395E+03  0.11178541760E+04  0.68659792031E+03 0.  0.
         13    1    3    3    0    0 -0.43969716411E+02 -0.33861696587E+03  0.38329486223E+03  0.51333199486E+03  0.00000000000E+00 0. -1.
          4    1    3    3  501    0  0.43969716411E+02  0.33861696587E+03  0.49885096173E+03  0.60452218119E+03  0.00000000000E+00 0. -1.
<mgrwt>
<rscale>  0 0.68659792E+03</rscale>
<asrwt>0</asrwt>
<pdfrwt beam="1">0</pdfrwt>
<pdfrwt beam="2">  1        2 0.42856154E+00 0.68659792E+03</pdfrwt>
<totfact> 0.30924907E+00</totfact>
</mgrwt>
</event>
<event>
 5    1  0.2369161E-004  0.6471622E+03  0.7818608E-02  0.9812119E-01
         13   -1    0    0    0    0  0.00000000000E+00  0.00000000000E+00  0.10000000000E+04  0.10000000000E+04  0.00000000000E+00 0. -1.
          2   -1    0    0  501    0 -0.00000000000E+00 -0.00000000000E+00 -0.10470472218E+03  0.10470472218E+03  0.00000000000E+00 0. -1.
    9000006    2    1    2  501    0  0.00000000000E+00  0.00000000000E+00  0.89529527782E+03  0.11047047222E+04  0.64716218117E+03 0.  0.
         13    1    3    3    0    0  0.16489075961E+03 -0.88314137797E+02 -0.30657627176E+01  0.18707685170E+03  0.00000000000E+00 0. -1.
          2    1    3    3  501    0 -0.16489075961E+03  0.88314137797E+02  0.89836104053E+03  0.91762787048E+03  0.00000000000E+00 0. -1.
<mgrwt>
<rscale>  0 0.64716218E+03</rscale>
<asrwt>0</asrwt>
<pdfrwt beam="1">0</pdfrwt>
<pdfrwt beam="2">  1        2 0.38074525E+00 0.64716218E+03</pdfrwt>
<totfact> 0.46982228E+00</totfact>
</mgrwt>
</event>
<event>
 5    1  0.2369161E-004  0.6183985E+03  0.7818608E-02  0.9867953E-01
         13   -1    0    0    0    0  0.00000000000E+00  0.00000000000E+00  0.10000000000E+04  0.10000000000E+04  0.00000000000E+00 0. -1.
          2   -1    0    0  501    0 -0.00000000000E+00 -0.00000000000E+00 -0.95604175307E+02  0.95604175307E+02  0.00000000000E+00 0. -1.
    9000006    2    1    2  501    0  0.00000000000E+00  0.00000000000E+00  0.90439582469E+03  0.10956041753E+04  0.61839849711E+03 0.  0.
         13    1    3    3    0    0  0.17710824498E+03 -0.66399207434E+02  0.88554657422E+03  0.90552135275E+03  0.00000000000E+00 0. -1.
          2    1    3    3  501    0 -0.17710824498E+03  0.66399207434E+02  0.18849250476E+02  0.19008282255E+03  0.00000000000E+00 0. -1.
<mgrwt>
<rscale>  0 0.61839850E+03</rscale>
<asrwt>0</asrwt>
<pdfrwt beam="1">0</pdfrwt>
<pdfrwt beam="2">  1        2 0.34765228E+00 0.61839850E+03</pdfrwt>
<totfact> 0.62178209E+00</totfact>
</mgrwt>
</event>
<event>
 5    1  0.2369161E-004  0.6271994E+03  0.7818608E-02  0.9850529E-01
         13   -1    0    0    0    0  0.00000000000E+00  0.00000000000E+00  0.10000000000E+04  0.10000000000E+04  0.00000000000E+00 0. -1.
          2   -1    0    0  501    0 -0.00000000000E+00 -0.00000000000E+00 -0.98344785902E+02  0.98344785902E+02  0.00000000000E+00 0. -1.
    9000006    2    1    2  501    0  0.00000000000E+00  0.00000000000E+00  0.90165521410E+03  0.10983447859E+04  0.62719944484E+03 0.  0.
         13    1    3    3    0    0  0.89180934390E+02 -0.28178130975E+03  0.63441737652E+03  0.69988524289E+03  0.00000000000E+00 0. -1.
          4    1    3    3  501    0 -0.89180934390E+02  0.28178130975E+03  0.26723783758E+03  0.39845954301E+03  0.00000000000E+00 0. -1.
<mgrwt>
<rscale>  0 0.62719944E+03</rscale>
<asrwt>0</asrwt>
<pdfrwt beam="1">0</pdfrwt>
<pdfrwt beam="2">  1        2 0.35761816E+00 0.62719944E+03</pdfrwt>
<totfact> 0.57182352E+00</totfact>
</mgrwt>
</event>
<event>
 5    1  0.2369161E-004  0.6628725E+03  0.7818608E-02  0.9782920E-01
         13   -1    0    0    0    0  0.00000000000E+00  0.00000000000E+00  0.10000000000E+04  0.10000000000E+04  0.00000000000E+00 0. -1.
          2   -1    0    0  501    0 -0.00000000000E+00 -0.00000000000E+00 -0.10985000003E+03  0.10985000003E+03  0.00000000000E+00 0. -1.
    9000006    2    1    2  501    0  0.00000000000E+00  0.00000000000E+00  0.89014999997E+03  0.11098500000E+04  0.66287253686E+03 0.  0.
         13    1    3    3    0    0  0.22704730878E+02  0.40024529878E+01  0.99865583132E+03  0.99892191580E+03  0.00000000000E+00 0. -1.
          2    1    3    3  501    0 -0.22704730878E+02 -0.40024529878E+01 -0.10850583135E+03  0.11092808423E+03  0.00000000000E+00 0. -1.
<mgrwt>
<rscale>  0 0.66287254E+03</rscale>
<asrwt>0</asrwt>
<pdfrwt beam="1">0</pdfrwt>
<pdfrwt beam="2">  1        2 0.39945539E+00 0.66287254E+03</pdfrwt>
<totfact> 0.39975572E+00</totfact>
</mgrwt>
</event>
<event>
 5    1  0.2369161E-004  0.6303953E+03  0.7818608E-02  0.9844278E-01
         13   -1    0    0    0    0  0.00000000000E+00  0.00000000000E+00  0.10000000000E+04  0.10000000000E+04  0.00000000000E+00 0. -1.
          2   -1    0    0  501    0 -0.00000000000E+00 -0.00000000000E+00 -0.99349551913E+02  0.99349551913E+02  0.00000000000E+00 0. -1.
    9000006    2    1    2  501    0  0.00000000000E+00  0.00000000000E+00  0.90065044809E+03  0.10993495519E+04  0.63039527890E+03 0.  0.
         13    1    3    3    0    0 -0.30387508189E+03  0.51733348175E+02  0.56512064721E+03  0.64372179597E+03  0.00000000000E+00 0. -1.
          2    1    3    3  501    0  0.30387508189E+03 -0.51733348175E+02  0.33552980088E+03  0.45562775594E+03  0.00000000000E+00 0. -1.
<mgrwt>
<rscale>  0 0.63039528E+03</rscale>
<asrwt>0</asrwt>
<pdfrwt beam="1">0</pdfrwt>
<pdfrwt beam="2">  1        2 0.36127186E+00 0.63039528E+03</pdfrwt>
<totfact> 0.55446117E+00</totfact>
</mgrwt>
</event>
<event>
 5    1  0.2369161E-004  0.6435921E+03  0.7818608E-02  0.9818878E-01
         13   -1    0    0    0    0  0.00000000000E+00  0.00000000000E+00  0.10000000000E+04  0.10000000000E+04  0.00000000000E+00 0. -1.
          2   -1    0    0  501    0 -0.00000000000E+00 -0.00000000000E+00 -0.10355270868E+03  0.10355270868E+03  0.00000000000E+00 0. -1.
    9000006    2    1    2  501    0  0.00000000000E+00  0.00000000000E+00  0.89644729132E+03  0.11035527087E+04  0.64359213382E+03 0.  0.
         13    1    3    3    0    0  0.22922797063E+03 -0.21561411319E+03  0.56347495584E+03  0.64539827563E+03  0.00000000000E+00 0. -1.
          2    1    3    3  501    0 -0.22922797063E+03  0.21561411319E+03  0.33297233548E+03  0.45815443305E+03  0.00000000000E+00 0. -1.
<mgrwt>
<rscale>  0 0.64359213E+03</rscale>
<asrwt>0</asrwt>
<pdfrwt beam="1">0</pdfrwt>
<pdfrwt beam="2">  1        2 0.37655610E+00 0.64359213E+03</pdfrwt>
<totfact> 0.48696064E+00</totfact>
</mgrwt>
</event>
<event>
 5    1  0.2369161E-004  0.6694483E+03  0.7818608E-02  0.9770955E-01
         13   -1    0    0    0    0  0.00000000000E+00  0.00000000000E+00  0.10000000000E+04  0.10000000000E+04  0.00000000000E+00 0. -1.
          2   -1    0    0  501    0 -0.00000000000E+00 -0.00000000000E+00 -0.11204024239E+03  0.11204024239E+03  0.00000000000E+00 0. -1.
    9000006    2    1    2  501    0  0.00000000000E+00  0.00000000000E+00  0.88795975761E+03  0.11120402424E+04  0.66944825757E+03 0.  0.
         13    1    3    3    0    0  0.28331204129E+03  0.14037766501E+03  0.62646718877E+03  0.70173552011E+03  0.00000000000E+00 0. -1.
          4    1    3    3  501    0 -0.28331204129E+03 -0.14037766501E+03  0.26149256884E+03  0.41030472229E+03  0.00000000000E+00 0. -1.
<mgrwt>
<rscale>  0 0.66944826E+03</rscale>
<asrwt>0</asrwt>
<pdfrwt beam="1">0</pdfrwt>
<pdfrwt beam="2">  1        2 0.40741992E+00 0.66944826E+03</pdfrwt>
<totfact> 0.37290123E+00</totfact>
</mgrwt>
</event>
<event>
 5    1  0.2369161E-004  0.6266833E+03  0.7818608E-02  0.9851543E-01
         13   -1    0    0    0    0  0.00000000000E+00  0.00000000000E+00  0.10000000000E+04  0.10000000000E+04  0.00000000000E+00 0. -1.
          2   -1    0    0  501    0 -0.00000000000E+00 -0.00000000000E+00 -0.98182979113E+02  0.98182979113E+02  0.00000000000E+00 0. -1.
    9000006    2    1    2  501    0  0.00000000000E+00  0.00000000000E+00  0.90181702089E+03  0.10981829791E+04  0.62668326645E+03 0.  0.
         13    1    3    3    0    0  0.84725066387E+02  0.26160179750E+03  0.18764896188E+03  0.33290534725E+03  0.00000000000E+00 0. -1.
          4    1    3    3  501    0 -0.84725066387E+02 -0.26160179750E+03  0.71416805901E+03  0.76527763187E+03  0.00000000000E+00 0. -1.
<mgrwt>
<rscale>  0 0.62668327E+03</rscale>
<asrwt>0</asrwt>
<pdfrwt beam="1">0</pdfrwt>
<pdfrwt beam="2">  1        2 0.35702977E+00 0.62668327E+03</pdfrwt>
<totfact> 0.57466615E+00</totfact>
</mgrwt>
</event>
<event>
 5    1  0.2369161E-004  0.6456782E+03  0.7818608E-02  0.9814923E-01
         13   -1    0    0    0    0  0.00000000000E+00  0.00000000000E+00  0.10000000000E+04  0.10000000000E+04  0.00000000000E+00 0. -1.
          2   -1    0    0  501    0 -0.00000000000E+00 -0.00000000000E+00 -0.10422507346E+03  0.10422507346E+03  0.00000000000E+00 0. -1.
    9000006    2    1    2  501    0  0.00000000000E+00  0.00000000000E+00  0.89577492654E+03  0.11042250735E+04  0.64567816583E+03 0.  0.
         13    1    3    3    0    0 -0.18799856680E+03 -0.25045875784E+03  0.31374987996E+03  0.44329678283E+03  0.00000000000E+00 0. -1.
          2    1    3    3  501    0  0.18799856680E+03  0.25045875784E+03  0.58202504658E+03  0.66092829062E+03  0.00000000000E+00 0. -1.
<mgrwt>
<rscale>  0 0.64567817E+03</rscale>
<asrwt>0</asrwt>
<pdfrwt beam="1">0</pdfrwt>
<pdfrwt beam="2">  1        2 0.37900107E+00 0.64567817E+03</pdfrwt>
<totfact> 0.47689005E+00</totfact>
</mgrwt>
</event>
<event>
 5    1  0.2369161E-004  0.6406726E+03  0.7818608E-02  0.9824441E-01
         13   -1    0    0    0    0  0.00000000000E+00  0.00000000000E+00  0.10000000000E+04  0.10000000000E+04  0.00000000000E+00 0. -1.
          2   -1    0    0  501    0 -0.00000000000E+00 -0.00000000000E+00 -0.10261533837E+03  0.10261533837E+03  0.00000000000E+00 0. -1.
    9000006    2    1    2  501    0  0.00000000000E+00  0.00000000000E+00  0.89738466163E+03  0.11026153384E+04  0.64067257900E+03 0.  0.
         13    1    3    3    0    0 -0.96958949728E+02  0.30530648577E+03  0.44611068395E+03  0.54920654632E+03  0.00000000000E+00 0. -1.
          2    1    3    3  501    0  0.96958949728E+02 -0.30530648577E+03  0.45127397768E+03  0.55340879205E+03  0.00000000000E+00 0. -1.
<mgrwt>
<rscale>  0 0.64067258E+03</rscale>
<asrwt>0</asrwt>
<pdfrwt beam="1">0</pdfrwt>
<pdfrwt beam="2">  1        2 0.37314747E+00 0.64067258E+03</pdfrwt>
<totfact> 0.50132540E+00</totfact>
</mgrwt>
</event>
<event>
 5    1  0.2369161E-004  0.6710695E+03  0.7818608E-02  0.9768028E-01
         13   -1    0    0    0    0  0.00000000000E+00  0.00000000000E+00  0.10000000000E+04  0.10000000000E+04  0.00000000000E+00 0. -1.
          2   -1    0    0  501    0 -0.00000000000E+00 -0.00000000000E+00 -0.11258357527E+03  0.11258357527E+03  0.00000000000E+00 0. -1.
    9000006    2    1    2  501    0  0.00000000000E+00  0.00000000000E+00  0.88741642473E+03  0.11125835753E+04  0.67106952030E+03 0.  0.
         13    1    3    3    0    0 -0.24503488771E+03 -0.21717820185E+03  0.56525926280E+03  0.65324306482E+03  0.00000000000E+00 0. -1.
          2    1    3    3  501    0  0.24503488771E+03  0.21717820185E+03  0.32215716194E+03  0.45934051045E+03  0.00000000000E+00 0. -1.
<mgrwt>
<rscale>  0 0.67106952E+03</rscale>
<asrwt>0</asrwt>
<pdfrwt beam="1">0</pdfrwt>
<pdfrwt beam="2">  1        2 0.40939568E+00 0.67106952E+03</pdfrwt>
<totfact> 0.36649459E+00</totfact>
</mgrwt>
</event>
<event>
 5    1  0.2369161E-004  0.6438308E+03  0.7818608E-02  0.9818425E-01
         13   -1    0    0    0    0  0.00000000000E+00  0.00000000000E+00  0.10000000000E+04  0.10000000000E+04  0.00000000000E+00 0. -1.
          2   -1    0    0  501    0 -0.00000000000E+00 -0.00000000000E+00 -0.10362951846E+03  0.10362951846E+03  0.00000000000E+00 0. -1.
    9000006    2    1    2  501    0  0.00000000000E+00  0.00000000000E+00  0.89637048154E+03  0.11036295185E+04  0.64383078045E+03 0.  0.
         13    1    3    3    0    0  0.20499909492E+03  0.10551997026E+03  0.63088312101E+02  0.23903813119E+03  0.00000000000E+00 0. -1.
          2    1    3    3  501    0 -0.20499909492E+03 -0.10551997026E+03  0.83328216944E+03  0.86459138727E+03  0.00000000000E+00 0. -1.
<mgrwt>
<rscale>  0 0.64383078E+03</rscale>
<asrwt>0</asrwt>
<pdfrwt beam="1">0</pdfrwt>
<pdfrwt beam="2">  1        2 0.37683541E+00 0.64383078E+03</pdfrwt>
<totfact> 0.48580046E+00</totfact>
</mgrwt>
</event>
<event>
 5    1  0.2369161E-004  0.6613580E+03  0.7818608E-02  0.9785697E-01
         13   -1    0    0    0    0  0.00000000000E+00  0.00000000000E+00  0.10000000000E+04  0.10000000000E+04  0.00000000000E+00 0. -1.
          2   -1    0    0  501    0 -0.00000000000E+00 -0.00000000000E+00 -0.10934861200E+03  0.10934861200E+03  0.00000000000E+00 0. -1.
    9000006    2    1    2  501    0  0.00000000000E+00  0.00000000000E+00  0.89065138800E+03  0.11093486120E+04  0.66135803315E+03 0.  0.
         13    1    3    3    0    0  0.58679280101E+02  0.13406700368E+03  0.94272295216E+03  0.95401456170E+03  0.00000000000E+00 0. -1.
          4    1    3    3  501    0 -0.58679280101E+02 -0.13406700368E+03 -0.52071564167E+02  0.15533405031E+03  0.00000000000E+00 0. -1.
<mgrwt>
<rscale>  0 0.66135803E+03</rscale>
<asrwt>0</asrwt>
<pdfrwt beam="1">0</pdfrwt>
<pdfrwt beam="2">  1        2 0.39763215E+00 0.66135803E+03</pdfrwt>
<totfact> 0.40614202E+00</totfact>
</mgrwt>
</event>
<event>
 5    1  0.2369161E-004  0.6556544E+03  0.7818608E-02  0.9796227E-01
         13   -1    0    0    0    0  0.00000000000E+00  0.00000000000E+00  0.10000000000E+04  0.10000000000E+04  0.00000000000E+00 0. -1.
          2   -1    0    0  501    0 -0.00000000000E+00 -0.00000000000E+00 -0.10747068162E+03  0.10747068162E+03  0.00000000000E+00 0. -1.
    9000006    2    1    2  501    0  0.00000000000E+00  0.00000000000E+00  0.89252931838E+03  0.11074706816E+04  0.65565442612E+03 0.  0.
         13    1    3    3    0    0  0.15938739013E+03 -0.26808352936E+03  0.61683575293E+03  0.69120146480E+03  0.00000000000E+00 0. -1.
          4    1    3    3  501    0 -0.15938739013E+03  0.26808352936E+03  0.27569356544E+03  0.41626921682E+03  0.00000000000E+00 0. -1.
<mgrwt>
<rscale>  0 0.65565443E+03</rscale>
<asrwt>0</asrwt>
<pdfrwt beam="1">0</pdfrwt>
<pdfrwt beam="2">  1        2 0.39080330E+00 0.65565443E+03</pdfrwt>
<totfact> 0.43088726E+00</totfact>
</mgrwt>
</event>
<event>
 5    1  0.2369161E-004  0.6726392E+03  0.7818608E-02  0.9765202E-01
         13   -1    0    0    0    0  0.00000000000E+00  0.00000000000E+00  0.10000000000E+04  0.10000000000E+04  0.00000000000E+00 0. -1.
          2   -1    0    0  501    0 -0.00000000000E+00 -0.00000000000E+00 -0.11311088584E+03  0.11311088584E+03  0.00000000000E+00 0. -1.
    9000006    2    1    2  501    0  0.00000000000E+00  0.00000000000E+00  0.88688911416E+03  0.11131108858E+04  0.67263923715E+03 0.  0.
         13    1    3    3    0    0  0.23263230468E+03 -0.19272095763E+03  0.19882051560E+03  0.36164727859E+03  0.00000000000E+00 0. -1.
          4    1    3    3  501    0 -0.23263230468E+03  0.19272095763E+03  0.68806859856E+03  0.75146360724E+03  0.00000000000E+00 0. -1.
<mgrwt>
<rscale>  0 0.67263924E+03</rscale>
<asrwt>0</asrwt>
<pdfrwt beam="1">0</pdfrwt>
<pdfrwt beam="2">  1        2 0.41131318E+00 0.67263924E+03</pdfrwt>
<totfact> 0.36037103E+00</totfact>
</mgrwt>
</event>
<event>
 5    1  0.2369161E-004  0.6535927E+03  0.7818608E-02  0.9800061E-01
         13   -1    0    0    0    0  0.00000000000E+00  0.00000000000E+00  0.10000000000E+04  0.10000000000E+04  0.00000000000E+00 0. -1.
          2   -1    0    0  501    0 -0.00000000000E+00 -0.00000000000E+00 -0.10679585030E+03  0.10679585030E+03  0.00000000000E+00 0. -1.
    9000006    2    1    2  501    0  0.00000000000E+00  0.00000000000E+00  0.89320414970E+03  0.11067958503E+04  0.65359268752E+03 0.  0.
         13    1    3    3    0    0  0.21146258427E+03  0.10505053175E+03  0.64013597675E+02  0.24464214570E+03  0.00000000000E+00 0. -1.
          2    1    3    3  501    0 -0.21146258427E+03 -0.10505053175E+03  0.82919055203E+03  0.86215370459E+03  0.00000000000E+00 0. -1.
<mgrwt>
<rscale>  0 0.65359269E+03</rscale>
<asrwt>0</asrwt>
<pdfrwt beam="1">0</pdfrwt>
<pdfrwt beam="2">  1        2 0.38834937E+00 0.65359269E+03</pdfrwt>
<totfact> 0.44010688E+00</totfact>
</mgrwt>
</event>
<event>
 5    1  0.2369161E-004  0.6429660E+03  0.7818608E-02  0.9820068E-01
         13   -1    0    0    0    0  0.00000000000E+00  0.00000000000E+00  0.10000000000E+04  0.10000000000E+04  0.00000000000E+00 0. -1.
          2   -1    0    0  501    0 -0.00000000000E+00 -0.00000000000E+00 -0.10335131873E+03  0.10335131873E+03  0.00000000000E+00 0. -1.
    9000006    2    1    2  501    0  0.00000000000E+00  0.00000000000E+00  0.89664868127E+03  0.11033513187E+04  0.64296599827E+03 0.  0.
         13    1    3    3    0    0  0.59980128239E+02 -0.31108387062E+03  0.54200985444E+03  0.62781006097E+03  0.00000000000E+00 0. -1.
          2    1    3    3  501    0 -0.59980128239E+02  0.31108387062E+03  0.35463882682E+03  0.47554125776E+03  0.00000000000E+00 0. -1.
<mgrwt>
<rscale>  0 0.64296600E+03</rscale>
<asrwt>0</asrwt>
<pdfrwt beam="1">0</pdfrwt>
<pdfrwt beam="2">  1        2 0.37582377E+00 0.64296600E+03</pdfrwt>
<totfact> 0.49001456E+00</totfact>
</mgrwt>
</event>
<event>
 5    1  0.2369161E-004  0.6425879E+03  0.7818608E-02  0.9820788E-01
         13   -1    0    0    0    0  0.00000000000E+00  0.00000000000E+00  0.10000000000E+04  0.10000000000E+04  0.00000000000E+00 0. -1.
          2   -1    0    0  501    0 -0.00000000000E+00 -0.00000000000E+00 -0.10322978662E+03  0.10322978662E+03  0.00000000000E+00 0. -1.
    9000006    2    1    2  501    0  0.00000000000E+00  0.00000000000E+00  0.89677021338E+03  0.11032297866E+04  0.64258785119E+03 0.  0.
         13    1    3    3    0    0  0.24114372026E+03 -0.16315911714E+03  0.68164108990E+03  0.74121910848E+03  0.00000000000E+00 0. -1.
          4    1    3    3  501    0 -0.24114372026E+03  0.16315911714E+03  0.21512912347E+03  0.36201067815E+03  0.00000000000E+00 0. -1.
<mgrwt>
<rscale>  0 0.64258785E+03</rscale>
<asrwt>0</asrwt>
<pdfrwt beam="1">0</pdfrwt>
<pdfrwt beam="2">  1        2 0.37538183E+00 0.64258785E+03</pdfrwt>
<totfact> 0.49186600E+00</totfact>
</mgrwt>
</event>
<event>
 5    1  0.2369161E-004  0.6480244E+03  0.7818608E-02  0.9810493E-01
         13   -1    0    0    0    0  0.00000000000E+00  0.00000000000E+00  0.10000000000E+04  0.10000000000E+04  0.00000000000E+00 0. -1.
          2   -1    0    0  501    0 -0.00000000000E+00 -0.00000000000E+00 -0.10498390938E+03  0.10498390938E+03  0.00000000000E+00 0. -1.
    9000006    2    1    2  501    0  0.00000000000E+00  0.00000000000E+00  0.89501609062E+03  0.11049839094E+04  0.64802441121E+03 0.  0.
         13    1    3    3    0    0 -0.19965995300E+03 -0.11607866656E+03  0.59999695161E+02  0.23861751210E+03  0.00000000000E+00 0. -1.
          4    1    3    3  501    0  0.19965995300E+03  0.11607866656E+03  0.83501639546E+03  0.86636639728E+03  0.00000000000E+00 0. -1.
<mgrwt>
<rscale>  0 0.64802441E+03</rscale>
<asrwt>0</asrwt>
<pdfrwt beam="1">0</pdfrwt>
<pdfrwt beam="2">  1        2 0.38176048E+00 0.64802441E+03</pdfrwt>
<totfact> 0.46575238E+00</totfact>
</mgrwt>
</event>
<event>
 5    1  0.2369161E-004  0.6456528E+03  0.7818608E-02  0.9814971E-01
         13   -1    0    0    0    0  0.00000000000E+00  0.00000000000E+00  0.10000000000E+04  0.10000000000E+04  0.00000000000E+00 0. -1.
          2   -1    0    0  501    0 -0.00000000000E+00 -0.00000000000E+00 -0.10421690009E+03  0.10421690009E+03  0.00000000000E+00 0. -1.
    9000006    2    1    2  501    0  0.00000000000E+00  0.00000000000E+00  0.89578309991E+03  0.11042169001E+04  0.64565284817E+03 0.  0.
         13    1    3    3    0    0  0.19532645684E+02  0.17114575183E+03  0.91483376956E+03  0.93090988744E+03  0.00000000000E+00 0. -1.
          4    1    3    3  501    0 -0.19532645684E+02 -0.17114575183E+03 -0.19050669644E+02  0.17330701264E+03  0.00000000000E+00 0. -1.
<mgrwt>
<rscale>  0 0.64565285E+03</rscale>
<asrwt>0</asrwt>
<pdfrwt beam="1">0</pdfrwt>
<pdfrwt beam="2">  1        2 0.37897134E+00 0.64565285E+03</pdfrwt>
<totfact> 0.47701132E+00</totfact>
</mgrwt>
</event>
<event>
 5    1  0.2369161E-004  0.5404971E+03  0.7818608E-02  0.1003718E+00
         13   -1    0    0    0    0  0.00000000000E+00  0.00000000000E+00  0.10000000000E+04  0.10000000000E+04  0.00000000000E+00 0. -1.
          2   -1    0    0  501    0 -0.00000000000E+00 -0.00000000000E+00 -0.73034275604E+02  0.73034275604E+02  0.00000000000E+00 0. -1.
    9000006    2    1    2  501    0  0.00000000000E+00  0.00000000000E+00  0.92696572440E+03  0.10730342756E+04  0.54049708826E+03 0.  0.
         13    1    3    3    0    0  0.10810421172E+03 -0.80106144946E+02 -0.18117697210E+01  0.13456150103E+03  0.00000000000E+00 0. -1.
          2    1    3    3  501    0 -0.10810421172E+03  0.80106144946E+02  0.92877749412E+03  0.93847277458E+03  0.00000000000E+00 0. -1.
<mgrwt>
<rscale>  0 0.54049709E+03</rscale>
<asrwt>0</asrwt>
<pdfrwt beam="1">0</pdfrwt>
<pdfrwt beam="2">  1        2 0.26557974E+00 0.54049709E+03</pdfrwt>
<totfact> 0.12256558E+01</totfact>
</mgrwt>
</event>
<event>
 5    1  0.2369161E-004  0.6500731E+03  0.7818608E-02  0.9806642E-01
         13   -1    0    0    0    0  0.00000000000E+00  0.00000000000E+00  0.10000000000E+04  0.10000000000E+04  0.00000000000E+00 0. -1.
          2   -1    0    0  501    0 -0.00000000000E+00 -0.00000000000E+00 -0.10564877422E+03  0.10564877422E+03  0.00000000000E+00 0. -1.
    9000006    2    1    2  501    0  0.00000000000E+00  0.00000000000E+00  0.89435122578E+03  0.11056487742E+04  0.65007314732E+03 0.  0.
         13    1    3    3    0    0  0.22850663603E+03  0.22636494699E+03  0.52681264824E+03  0.61724220391E+03  0.00000000000E+00 0. -1.
          2    1    3    3  501    0 -0.22850663603E+03 -0.22636494699E+03  0.36753857754E+03  0.48840657031E+03  0.00000000000E+00 0. -1.
<mgrwt>
<rscale>  0 0.65007315E+03</rscale>
<asrwt>0</asrwt>
<pdfrwt beam="1">0</pdfrwt>
<pdfrwt beam="2">  1        2 0.38417817E+00 0.65007315E+03</pdfrwt>
<totfact> 0.45618885E+00</totfact>
</mgrwt>
</event>
<event>
 5    1  0.2369161E-004  0.6499911E+03  0.7818608E-02  0.9806796E-01
         13   -1    0    0    0    0  0.00000000000E+00  0.00000000000E+00  0.10000000000E+04  0.10000000000E+04  0.00000000000E+00 0. -1.
          2   -1    0    0  501    0 -0.00000000000E+00 -0.00000000000E+00 -0.10562210318E+03  0.10562210318E+03  0.00000000000E+00 0. -1.
    9000006    2    1    2  501    0  0.00000000000E+00  0.00000000000E+00  0.89437789682E+03  0.11056221032E+04  0.64999108664E+03 0.  0.
         13    1    3    3    0    0  0.30275460472E+03  0.22358216559E+02  0.64454565483E+03  0.71246006322E+03  0.00000000000E+00 0. -1.
          2    1    3    3  501    0 -0.30275460472E+03 -0.22358216559E+02  0.24983224199E+03  0.39316203995E+03  0.00000000000E+00 0. -1.
<mgrwt>
<rscale>  0 0.64999109E+03</rscale>
<asrwt>0</asrwt>
<pdfrwt beam="1">0</pdfrwt>
<pdfrwt beam="2">  1        2 0.38408119E+00 0.64999109E+03</pdfrwt>
<totfact> 0.45656903E+00</totfact>
</mgrwt>
</event>
<event>
 5    1  0.2369161E-004  0.6462519E+03  0.7818608E-02  0.9813838E-01
         13   -1    0    0    0    0  0.00000000000E+00  0.00000000000E+00  0.10000000000E+04  0.10000000000E+04  0.00000000000E+00 0. -1.
          2   -1    0    0  501    0 -0.00000000000E+00 -0.00000000000E+00 -0.10441038085E+03  0.10441038085E+03  0.00000000000E+00 0. -1.
    9000006    2    1    2  501    0  0.00000000000E+00  0.00000000000E+00  0.89558961915E+03  0.11044103808E+04  0.64625190397E+03 0.  0.
         13    1    3    3    0    0  0.26331401113E+03 -0.15691678573E+03  0.27307023321E+03  0.41051735453E+03  0.00000000000E+00 0. -1.
          2    1    3    3  501    0 -0.26331401113E+03  0.15691678573E+03  0.62251938594E+03  0.69389302632E+03  0.00000000000E+00 0. -1.
<mgrwt>
<rscale>  0 0.64625190E+03</rscale>
<asrwt>0</asrwt>
<pdfrwt beam="1">0</pdfrwt>
<pdfrwt beam="2">  1        2 0.37967491E+00 0.64625190E+03</pdfrwt>
<totfact> 0.47414810E+00</totfact>
</mgrwt>
</event>
<event>
 5    1  0.2369161E-004  0.6477857E+03  0.7818608E-02  0.9810943E-01
         13   -1    0    0    0    0  0.00000000000E+00  0.00000000000E+00  0.10000000000E+04  0.10000000000E+04  0.00000000000E+00 0. -1.
          2   -1    0    0  501    0 -0.00000000000E+00 -0.00000000000E+00 -0.10490657103E+03  0.10490657103E+03  0.00000000000E+00 0. -1.
    9000006    2    1    2  501    0  0.00000000000E+00  0.00000000000E+00  0.89509342897E+03  0.11049065710E+04  0.64778567761E+03 0.  0.
         13    1    3    3    0    0 -0.19045545553E+02 -0.23201380532E+03  0.63436622890E+02  0.24128270512E+03  0.00000000000E+00 0. -1.
          2    1    3    3  501    0  0.19045545553E+02  0.23201380532E+03  0.83165680608E+03  0.86362386591E+03  0.00000000000E+00 0. -1.
<mgrwt>
<rscale>  0 0.64778568E+03</rscale>
<asrwt>0</asrwt>
<pdfrwt beam="1">0</pdfrwt>
<pdfrwt beam="2">  1        2 0.38147924E+00 0.64778568E+03</pdfrwt>
<totfact> 0.46687657E+00</totfact>
</mgrwt>
</event>
<event>
 5    1  0.2369161E-004  0.6343475E+03  0.7818608E-02  0.9836601E-01
         13   -1    0    0    0    0  0.00000000000E+00  0.00000000000E+00  0.10000000000E+04  0.10000000000E+04  0.00000000000E+00 0. -1.
          2   -1    0    0  501    0 -0.00000000000E+00 -0.00000000000E+00 -0.10059919310E+03  0.10059919310E+03  0.00000000000E+00 0. -1.
    9000006    2    1    2  501    0  0.00000000000E+00  0.00000000000E+00  0.89940080690E+03  0.11005991931E+04  0.63434751707E+03 0.  0.
         13    1    3    3    0    0  0.12324194217E+03 -0.28510703899E+03  0.33827287388E+03  0.45924191576E+03  0.00000000000E+00 0. -1.
          4    1    3    3  501    0 -0.12324194217E+03  0.28510703899E+03  0.56112793302E+03  0.64135727735E+03  0.00000000000E+00 0. -1.
<mgrwt>
<rscale>  0 0.63434752E+03</rscale>
<asrwt>0</asrwt>
<pdfrwt beam="1">0</pdfrwt>
<pdfrwt beam="2">  1        2 0.36581602E+00 0.63434752E+03</pdfrwt>
<totfact> 0.53354621E+00</totfact>
</mgrwt>
</event>
<event>
 5    1  0.2369161E-004  0.6524301E+03  0.7818608E-02  0.9802230E-01
         13   -1    0    0    0    0  0.00000000000E+00  0.00000000000E+00  0.10000000000E+04  0.10000000000E+04  0.00000000000E+00 0. -1.
          2   -1    0    0  501    0 -0.00000000000E+00 -0.00000000000E+00 -0.10641624748E+03  0.10641624748E+03  0.00000000000E+00 0. -1.
    9000006    2    1    2  501    0  0.00000000000E+00  0.00000000000E+00  0.89358375252E+03  0.11064162475E+04  0.65243006517E+03 0.  0.
         13    1    3    3    0    0 -0.81396460276E+02 -0.25087324645E+03  0.12123728948E+03  0.29027788391E+03  0.00000000000E+00 0. -1.
          4    1    3    3  501    0  0.81396460276E+02  0.25087324645E+03  0.77234646303E+03  0.81613836357E+03  0.00000000000E+00 0. -1.
<mgrwt>
<rscale>  0 0.65243007E+03</rscale>
<asrwt>0</asrwt>
<pdfrwt beam="1">0</pdfrwt>
<pdfrwt beam="2">  1        2 0.38696899E+00 0.65243007E+03</pdfrwt>
<totfact> 0.44537112E+00</totfact>
</mgrwt>
</event>
<event>
 5    1  0.2369161E-004  0.6434986E+03  0.7818608E-02  0.9819056E-01
         13   -1    0    0    0    0  0.00000000000E+00  0.00000000000E+00  0.10000000000E+04  0.10000000000E+04  0.00000000000E+00 0. -1.
          2   -1    0    0  501    0 -0.00000000000E+00 -0.00000000000E+00 -0.10352260055E+03  0.10352260055E+03  0.00000000000E+00 0. -1.
    9000006    2    1    2  501    0  0.00000000000E+00  0.00000000000E+00  0.89647739945E+03  0.11035226006E+04  0.64349856426E+03 0.  0.
         13    1    3    3    0    0 -0.14505012910E+03 -0.19332168216E+03  0.81246310426E+03  0.84764916594E+03  0.00000000000E+00 0. -1.
          2    1    3    3  501    0  0.14505012910E+03  0.19332168216E+03  0.84014295193E+02  0.25587343461E+03  0.00000000000E+00 0. -1.
<mgrwt>
<rscale>  0 0.64349856E+03</rscale>
<asrwt>0</asrwt>
<pdfrwt beam="1">0</pdfrwt>
<pdfrwt beam="2">  1        2 0.37644661E+00 0.64349856E+03</pdfrwt>
<totfact> 0.48741610E+00</totfact>
</mgrwt>
</event>
<event>
 5    1  0.2369161E-004  0.6395926E+03  0.7818608E-02  0.9826506E-01
         13   -1    0    0    0    0  0.00000000000E+00  0.00000000000E+00  0.10000000000E+04  0.10000000000E+04  0.00000000000E+00 0. -1.
          2   -1    0    0  501    0 -0.00000000000E+00 -0.00000000000E+00 -0.10226966632E+03  0.10226966632E+03  0.00000000000E+00 0. -1.
    9000006    2    1    2  501    0  0.00000000000E+00  0.00000000000E+00  0.89773033368E+03  0.11022696663E+04  0.63959257757E+03 0.  0.
         13    1    3    3    0    0  0.10910109376E+03 -0.22067869571E+03  0.80065503247E+03  0.83764587770E+03  0.00000000000E+00 0. -1.
          2    1    3    3  501    0 -0.10910109376E+03  0.22067869571E+03  0.97075301208E+02  0.26462378862E+03  0.00000000000E+00 0. -1.
<mgrwt>
<rscale>  0 0.63959258E+03</rscale>
<asrwt>0</asrwt>
<pdfrwt beam="1">0</pdfrwt>
<pdfrwt beam="2">  1        2 0.37189048E+00 0.63959258E+03</pdfrwt>
<totfact> 0.50671983E+00</totfact>
</mgrwt>
</event>
<event>
 5    1  0.2369161E-004  0.6424174E+03  0.7818608E-02  0.9821112E-01
         13   -1    0    0    0    0  0.00000000000E+00  0.00000000000E+00  0.10000000000E+04  0.10000000000E+04  0.00000000000E+00 0. -1.
          2   -1    0    0  501    0 -0.00000000000E+00 -0.00000000000E+00 -0.10317504058E+03  0.10317504058E+03  0.00000000000E+00 0. -1.
    9000006    2    1    2  501    0  0.00000000000E+00  0.00000000000E+00  0.89682495942E+03  0.11031750406E+04  0.64241743618E+03 0.  0.
         13    1    3    3    0    0  0.15890344782E+03 -0.23439687612E+03  0.18807964472E+03  0.33995022286E+03  0.00000000000E+00 0. -1.
          2    1    3    3  501    0 -0.15890344782E+03  0.23439687612E+03  0.70874531470E+03  0.76322481771E+03  0.00000000000E+00 0. -1.
<mgrwt>
<rscale>  0 0.64241744E+03</rscale>
<asrwt>0</asrwt>
<pdfrwt beam="1">0</pdfrwt>
<pdfrwt beam="2">  1        2 0.37518276E+00 0.64241744E+03</pdfrwt>
<totfact> 0.49270214E+00</totfact>
</mgrwt>
</event>
<event>
 5    1  0.2369161E-004  0.6499270E+03  0.7818608E-02  0.9806916E-01
         13   -1    0    0    0    0  0.00000000000E+00  0.00000000000E+00  0.10000000000E+04  0.10000000000E+04  0.00000000000E+00 0. -1.
          2   -1    0    0  501    0 -0.00000000000E+00 -0.00000000000E+00 -0.10560128480E+03  0.10560128480E+03  0.00000000000E+00 0. -1.
    9000006    2    1    2  501    0  0.00000000000E+00  0.00000000000E+00  0.89439871520E+03  0.11056012848E+04  0.64992702605E+03 0.  0.
         13    1    3    3    0    0  0.12192891862E+03  0.74072377955E+02  0.94387835876E+03  0.95459925336E+03  0.00000000000E+00 0. -1.
          2    1    3    3  501    0 -0.12192891862E+03 -0.74072377955E+02 -0.49479643559E+02  0.15100203144E+03  0.00000000000E+00 0. -1.
<mgrwt>
<rscale>  0 0.64992703E+03</rscale>
<asrwt>0</asrwt>
<pdfrwt beam="1">0</pdfrwt>
<pdfrwt beam="2">  1        2 0.38400548E+00 0.64992703E+03</pdfrwt>
<totfact> 0.45686599E+00</totfact>
</mgrwt>
</event>
<event>
 5    1  0.2369161E-004  0.6389059E+03  0.7818608E-02  0.9827822E-01
         13   -1    0    0    0    0  0.00000000000E+00  0.00000000000E+00  0.10000000000E+04  0.10000000000E+04  0.00000000000E+00 0. -1.
          2   -1    0    0  501    0 -0.00000000000E+00 -0.00000000000E+00 -0.10205018204E+03  0.10205018204E+03  0.00000000000E+00 0. -1.
    9000006    2    1    2  501    0  0.00000000000E+00  0.00000000000E+00  0.89794981796E+03  0.11020501820E+04  0.63890588364E+03 0.  0.
         13    1    3    3    0    0 -0.13587715843E+03 -0.71195765195E+02 -0.34363326137E+02  0.15720139105E+03  0.00000000000E+00 0. -1.
          2    1    3    3  501    0  0.13587715843E+03  0.71195765195E+02  0.93231314410E+03  0.94484879099E+03  0.00000000000E+00 0. -1.
<mgrwt>
<rscale>  0 0.63890588E+03</rscale>
<asrwt>0</asrwt>
<pdfrwt beam="1">0</pdfrwt>
<pdfrwt beam="2">  1        2 0.37109235E+00 0.63890588E+03</pdfrwt>
<totfact> 0.51017254E+00</totfact>
</mgrwt>
</event>
<event>
 5    1  0.2369161E-004  0.6626840E+03  0.7818608E-02  0.9783265E-01
         13   -1    0    0    0    0  0.00000000000E+00  0.00000000000E+00  0.10000000000E+04  0.10000000000E+04  0.00000000000E+00 0. -1.
          2   -1    0    0  501    0 -0.00000000000E+00 -0.00000000000E+00 -0.10978752308E+03  0.10978752308E+03  0.00000000000E+00 0. -1.
    9000006    2    1    2  501    0  0.00000000000E+00  0.00000000000E+00  0.89021247692E+03  0.11097875231E+04  0.66268400639E+03 0.  0.
         13    1    3    3    0    0 -0.46114089617E+02  0.42513676336E+02  0.98996779579E+03  0.99195269979E+03  0.00000000000E+00 0. -1.
          2    1    3    3  501    0  0.46114089617E+02 -0.42513676336E+02 -0.99755318868E+02  0.11783482329E+03  0.00000000000E+00 0. -1.
<mgrwt>
<rscale>  0 0.66268401E+03</rscale>
<asrwt>0</asrwt>
<pdfrwt beam="1">0</pdfrwt>
<pdfrwt beam="2">  1        2 0.39922820E+00 0.66268401E+03</pdfrwt>
<totfact> 0.40054656E+00</totfact>
</mgrwt>
</event>
<event>
 5    1  0.2369161E-004  0.6512560E+03  0.7818608E-02  0.9804425E-01
         13   -1    0    0    0    0  0.00000000000E+00  0.00000000000E+00  0.10000000000E+04  0.10000000000E+04  0.00000000000E+00 0. -1.
          2   -1    0    0  501    0 -0.00000000000E+00 -0.00000000000E+00 -0.10603358478E+03  0.10603358478E+03  0.00000000000E+00 0. -1.
    9000006    2    1    2  501    0  0.00000000000E+00  0.00000000000E+00  0.89396641522E+03  0.11060335848E+04  0.65125597051E+03 0.  0.
         13    1    3    3    0    0  0.71487378551E+01 -0.18147257079E+03  0.90599861238E+03  0.92402212313E+03  0.00000000000E+00 0. -1.
          2    1    3    3  501    0 -0.71487378551E+01  0.18147257079E+03 -0.12032197158E+02  0.18201146165E+03  0.00000000000E+00 0. -1.
<mgrwt>
<rscale>  0 0.65125597E+03</rscale>
<asrwt>0</asrwt>
<pdfrwt beam="1">0</pdfrwt>
<pdfrwt beam="2">  1        2 0.38557749E+00 0.65125597E+03</pdfrwt>
<totfact> 0.45073543E+00</totfact>
</mgrwt>
</event>
<event>
 5    1  0.2369161E-004  0.6523029E+03  0.7818608E-02  0.9802467E-01
         13   -1    0    0    0    0  0.00000000000E+00  0.00000000000E+00  0.10000000000E+04  0.10000000000E+04  0.00000000000E+00 0. -1.
          2   -1    0    0  501    0 -0.00000000000E+00 -0.00000000000E+00 -0.10637477836E+03  0.10637477836E+03  0.00000000000E+00 0. -1.
    9000006    2    1    2  501    0  0.00000000000E+00  0.00000000000E+00  0.89362522164E+03  0.11063747784E+04  0.65230293074E+03 0.  0.
         13    1    3    3    0    0  0.12604020551E+03  0.27016785673E+03  0.67117332938E+03  0.73440482180E+03  0.00000000000E+00 0. -1.
          2    1    3    3  501    0 -0.12604020551E+03 -0.27016785673E+03  0.22245189225E+03  0.37196995656E+03  0.00000000000E+00 0. -1.
<mgrwt>
<rscale>  0 0.65230293E+03</rscale>
<asrwt>0</asrwt>
<pdfrwt beam="1">0</pdfrwt>
<pdfrwt beam="2">  1        2 0.38681819E+00 0.65230293E+03</pdfrwt>
<totfact> 0.44594964E+00</totfact>
</mgrwt>
</event>
<event>
 5    1  0.2369161E-004  0.6484228E+03  0.7818608E-02  0.9809743E-01
         13   -1    0    0    0    0  0.00000000000E+00  0.00000000000E+00  0.10000000000E+04  0.10000000000E+04  0.00000000000E+00 0. -1.
          2   -1    0    0  501    0 -0.00000000000E+00 -0.00000000000E+00 -0.10511301991E+03  0.10511301991E+03  0.00000000000E+00 0. -1.
    9000006    2    1    2  501    0  0.00000000000E+00  0.00000000000E+00  0.89488698009E+03  0.11051130199E+04  0.64842276306E+03 0.  0.
         13    1    3    3    0    0  0.28053395497E+03 -0.55457779638E+02  0.18707903127E+03  0.34172127407E+03  0.00000000000E+00 0. -1.
          4    1    3    3  501    0 -0.28053395497E+03  0.55457779638E+02  0.70780794882E+03  0.76339174584E+03  0.00000000000E+00 0. -1.
<mgrwt>
<rscale>  0 0.64842276E+03</rscale>
<asrwt>0</asrwt>
<pdfrwt beam="1">0</pdfrwt>
<pdfrwt beam="2">  1        2 0.38222997E+00 0.64842276E+03</pdfrwt>
<totfact> 0.46388111E+00</totfact>
</mgrwt>
</event>
<event>
 5    1  0.2369161E-004  0.6538809E+03  0.7818608E-02  0.9799524E-01
         13   -1    0    0    0    0  0.00000000000E+00  0.00000000000E+00  0.10000000000E+04  0.10000000000E+04  0.00000000000E+00 0. -1.
          2   -1    0    0  501    0 -0.00000000000E+00 -0.00000000000E+00 -0.10689006271E+03  0.10689006271E+03  0.00000000000E+00 0. -1.
    9000006    2    1    2  501    0  0.00000000000E+00  0.00000000000E+00  0.89310993729E+03  0.11068900627E+04  0.65388091488E+03 0.  0.
         13    1    3    3    0    0  0.14500770225E+03  0.25316776426E+03  0.19679421846E+03  0.35192202971E+03  0.00000000000E+00 0. -1.
          2    1    3    3  501    0 -0.14500770225E+03 -0.25316776426E+03  0.69631571882E+03  0.75496803300E+03  0.00000000000E+00 0. -1.
<mgrwt>
<rscale>  0 0.65388091E+03</rscale>
<asrwt>0</asrwt>
<pdfrwt beam="1">0</pdfrwt>
<pdfrwt beam="2">  1        2 0.38869196E+00 0.65388091E+03</pdfrwt>
<totfact> 0.43880912E+00</totfact>
</mgrwt>
</event>
<event>
 5    1  0.2369161E-004  0.6571558E+03  0.7818608E-02  0.9793444E-01
         13   -1    0    0    0    0  0.00000000000E+00  0.00000000000E+00  0.10000000000E+04  0.10000000000E+04  0.00000000000E+00 0. -1.
          2   -1    0    0  501    0 -0.00000000000E+00 -0.00000000000E+00 -0.10796344685E+03  0.10796344685E+03  0.00000000000E+00 0. -1.
    9000006    2    1    2  501    0  0.00000000000E+00  0.00000000000E+00  0.89203655315E+03  0.11079634468E+04  0.65715583189E+03 0.  0.
         13    1    3    3    0    0 -0.93822263314E+02 -0.21452211558E+03  0.57356078692E+02  0.24106446219E+03  0.00000000000E+00 0. -1.
          2    1    3    3  501    0  0.93822263314E+02  0.21452211558E+03  0.83468047446E+03  0.86689898466E+03  0.00000000000E+00 0. -1.
<mgrwt>
<rscale>  0 0.65715583E+03</rscale>
<asrwt>0</asrwt>
<pdfrwt beam="1">0</pdfrwt>
<pdfrwt beam="2">  1        2 0.39259518E+00 0.65715583E+03</pdfrwt>
<totfact> 0.42426567E+00</totfact>
</mgrwt>
</event>
<event>
 5    1  0.2369161E-004  0.6607951E+03  0.7818608E-02  0.9786731E-01
         13   -1    0    0    0    0  0.00000000000E+00  0.00000000000E+00  0.10000000000E+04  0.10000000000E+04  0.00000000000E+00 0. -1.
          2   -1    0    0  501    0 -0.00000000000E+00 -0.00000000000E+00 -0.10916253632E+03  0.10916253632E+03  0.00000000000E+00 0. -1.
    9000006    2    1    2  501    0  0.00000000000E+00  0.00000000000E+00  0.89083746368E+03  0.11091625363E+04  0.66079508569E+03 0.  0.
         13    1    3    3    0    0  0.65374639011E+02  0.22036234939E+02  0.98777551860E+03  0.99018175818E+03  0.00000000000E+00 0. -1.
          2    1    3    3  501    0 -0.65374639011E+02 -0.22036234939E+02 -0.96938054918E+02  0.11898077814E+03  0.00000000000E+00 0. -1.
<mgrwt>
<rscale>  0 0.66079509E+03</rscale>
<asrwt>0</asrwt>
<pdfrwt beam="1">0</pdfrwt>
<pdfrwt beam="2">  1        2 0.39695551E+00 0.66079509E+03</pdfrwt>
<totfact> 0.40853535E+00</totfact>
</mgrwt>
</event>
<event>
 5    1  0.2369161E-004  0.6443203E+03  0.7818608E-02  0.9817496E-01
         13   -1    0    0    0    0  0.00000000000E+00  0.00000000000E+00  0.10000000000E+04  0.10000000000E+04  0.00000000000E+00 0. -1.
          2   -1    0    0  501    0 -0.00000000000E+00 -0.00000000000E+00 -0.10378714899E+03  0.10378714899E+03  0.00000000000E+00 0. -1.
    9000006    2    1    2  501    0  0.00000000000E+00  0.00000000000E+00  0.89621285101E+03  0.11037871490E+04  0.64432025885E+03 0.  0.
         13    1    3    3    0    0  0.11372981621E+02  0.30766360934E+03  0.28557898261E+03  0.41993046630E+03  0.00000000000E+00 0. -1.
          2    1    3    3  501    0 -0.11372981621E+02 -0.30766360934E+03  0.61063386840E+03  0.68385668269E+03  0.00000000000E+00 0. -1.
<mgrwt>
<rscale>  0 0.64432026E+03</rscale>
<asrwt>0</asrwt>
<pdfrwt beam="1">0</pdfrwt>
<pdfrwt beam="2">  1        2 0.37740861E+00 0.64432026E+03</pdfrwt>
<totfact> 0.48342742E+00</totfact>
</mgrwt>
</event>
<event>
 5    1  0.2369161E-004  0.6542117E+03  0.7818608E-02  0.9798908E-01
         13   -1    0    0    0    0  0.00000000000E+00  0.00000000000E+00  0.10000000000E+04  0.10000000000E+04  0.00000000000E+00 0. -1.
          2   -1    0    0  501    0 -0.00000000000E+00 -0.00000000000E+00 -0.10699823215E+03  0.10699823215E+03  0.00000000000E+00 0. -1.
    9000006    2    1    2  501    0  0.00000000000E+00  0.00000000000E+00  0.89300176785E+03  0.11069982322E+04  0.65421168487E+03 0.  0.
         13    1    3    3    0    0 -0.78606009828E+02  0.82121371788E+02 -0.72498312027E+02  0.13482889057E+03  0.00000000000E+00 0. -1.
          2    1    3    3  501    0  0.78606009828E+02 -0.82121371788E+02  0.96550007987E+03  0.97216934159E+03  0.00000000000E+00 0. -1.
<mgrwt>
<rscale>  0 0.65421168E+03</rscale>
<asrwt>0</asrwt>
<pdfrwt beam="1">0</pdfrwt>
<pdfrwt beam="2">  1        2 0.38908530E+00 0.65421168E+03</pdfrwt>
<totfact> 0.43732337E+00</totfact>
</mgrwt>
</event>
<event>
 5    1  0.2369161E-004  0.6442691E+03  0.7818608E-02  0.9817593E-01
         13   -1    0    0    0    0  0.00000000000E+00  0.00000000000E+00  0.10000000000E+04  0.10000000000E+04  0.00000000000E+00 0. -1.
          2   -1    0    0  501    0 -0.00000000000E+00 -0.00000000000E+00 -0.10377066653E+03  0.10377066653E+03  0.00000000000E+00 0. -1.
    9000006    2    1    2  501    0  0.00000000000E+00  0.00000000000E+00  0.89622933347E+03  0.11037706665E+04  0.64426909448E+03 0.  0.
         13    1    3    3    0    0  0.30044359510E+03  0.25439730866E+02  0.25385456403E+03  0.39415184056E+03  0.00000000000E+00 0. -1.
          4    1    3    3  501    0 -0.30044359510E+03 -0.25439730866E+02  0.64237476944E+03  0.70961882596E+03  0.00000000000E+00 0. -1.
<mgrwt>
<rscale>  0 0.64426909E+03</rscale>
<asrwt>0</asrwt>
<pdfrwt beam="1">0</pdfrwt>
<pdfrwt beam="2">  1        2 0.37734867E+00 0.64426909E+03</pdfrwt>
<totfact> 0.48367506E+00</totfact>
</mgrwt>
</event>
<event>
 5    1  0.2369161E-004  0.6151460E+03  0.7818608E-02  0.9874472E-01
         13   -1    0    0    0    0  0.00000000000E+00  0.00000000000E+00  0.10000000000E+04  0.10000000000E+04  0.00000000000E+00 0. -1.
          2   -1    0    0  501    0 -0.00000000000E+00 -0.00000000000E+00 -0.94601157354E+02  0.94601157354E+02  0.00000000000E+00 0. -1.
    9000006    2    1    2  501    0  0.00000000000E+00  0.00000000000E+00  0.90539884265E+03  0.10946011574E+04  0.61514602284E+03 0.  0.
         13    1    3    3    0    0 -0.26645250192E+03 -0.13581143545E+03  0.32488482202E+03  0.44157879179E+03  0.00000000000E+00 0. -1.
          2    1    3    3  501    0  0.26645250192E+03  0.13581143545E+03  0.58051402063E+03  0.65302236556E+03  0.00000000000E+00 0. -1.
<mgrwt>
<rscale>  0 0.61514602E+03</rscale>
<asrwt>0</asrwt>
<pdfrwt beam="1">0</pdfrwt>
<pdfrwt beam="2">  1        2 0.34400493E+00 0.61514602E+03</pdfrwt>
<totfact> 0.64106099E+00</totfact>
</mgrwt>
</event>
<event>
 5    1  0.2369161E-004  0.6498959E+03  0.7818608E-02  0.9806975E-01
         13   -1    0    0    0    0  0.00000000000E+00  0.00000000000E+00  0.10000000000E+04  0.10000000000E+04  0.00000000000E+00 0. -1.
          2   -1    0    0  501    0 -0.00000000000E+00 -0.00000000000E+00 -0.10559116558E+03  0.10559116558E+03  0.00000000000E+00 0. -1.
    9000006    2    1    2  501    0  0.00000000000E+00  0.00000000000E+00  0.89440883442E+03  0.11055911656E+04  0.64989588577E+03 0.  0.
         13    1    3    3    0    0  0.20095993298E+03  0.17231037249E+03  0.76780120508E+03  0.81215420312E+03  0.00000000000E+00 0. -1.
          2    1    3    3  501    0 -0.20095993298E+03 -0.17231037249E+03  0.12660762934E+03  0.29343696246E+03  0.00000000000E+00 0. -1.
<mgrwt>
<rscale>  0 0.64989589E+03</rscale>
<asrwt>0</asrwt>
<pdfrwt beam="1">0</pdfrwt>
<pdfrwt beam="2">  1        2 0.38396868E+00 0.64989589E+03</pdfrwt>
<totfact> 0.45701039E+00</totfact>
</mgrwt>
</event>
<event>
 5    1  0.2369161E-004  0.6489510E+03  0.7818608E-02  0.9808750E-01
         13   -1    0    0    0    0  0.00000000000E+00  0.00000000000E+00  0.10000000000E+04  0.10000000000E+04  0.00000000000E+00 0. -1.
          2   -1    0    0  501    0 -0.00000000000E+00 -0.00000000000E+00 -0.10528434111E+03  0.10528434111E+03  0.00000000000E+00 0. -1.
    9000006    2    1    2  501    0  0.00000000000E+00  0.00000000000E+00  0.89471565889E+03  0.11052843411E+04  0.64895097229E+03 0.  0.
         13    1    3    3    0    0 -0.13056217967E+03 -0.12877357280E+03 -0.85594608241E+01  0.18358208023E+03  0.00000000000E+00 0. -1.
          2    1    3    3  501    0  0.13056217967E+03  0.12877357280E+03  0.90327511972E+03  0.92170226088E+03  0.00000000000E+00 0. -1.
<mgrwt>
<rscale>  0 0.64895097E+03</rscale>
<asrwt>0</asrwt>
<pdfrwt beam="1">0</pdfrwt>
<pdfrwt beam="2">  1        2 0.38285296E+00 0.64895097E+03</pdfrwt>
<totfact> 0.46140860E+00</totfact>
</mgrwt>
</event>
<event>
 5    1  0.2369161E-004  0.6517084E+03  0.7818608E-02  0.9803579E-01
         13   -1    0    0    0    0  0.00000000000E+00  0.00000000000E+00  0.10000000000E+04  0.10000000000E+04  0.00000000000E+00 0. -1.
          2   -1    0    0  501    0 -0.00000000000E+00 -0.00000000000E+00 -0.10618096943E+03  0.10618096943E+03  0.00000000000E+00 0. -1.
    9000006    2    1    2  501    0  0.00000000000E+00  0.00000000000E+00  0.89381903057E+03  0.11061809694E+04  0.65170842999E+03 0.  0.
         13    1    3    3    0    0  0.28328160694E+03 -0.13286763963E+03  0.29247168949E+03  0.42830125805E+03  0.00000000000E+00 0. -1.
          4    1    3    3  501    0 -0.28328160694E+03  0.13286763963E+03  0.60134734107E+03  0.67787971138E+03  0.00000000000E+00 0. -1.
<mgrwt>
<rscale>  0 0.65170843E+03</rscale>
<asrwt>0</asrwt>
<pdfrwt beam="1">0</pdfrwt>
<pdfrwt beam="2">  1        2 0.38611343E+00 0.65170843E+03</pdfrwt>
<totfact> 0.44866245E+00</totfact>
</mgrwt>
</event>
<event>
 5    1  0.2369161E-004  0.6484245E+03  0.7818608E-02  0.9809740E-01
         13   -1    0    0    0    0  0.00000000000E+00  0.00000000000E+00  0.10000000000E+04  0.10000000000E+04  0.00000000000E+00 0. -1.
          2   -1    0    0  501    0 -0.00000000000E+00 -0.00000000000E+00 -0.10511357469E+03  0.10511357469E+03  0.00000000000E+00 0. -1.
    9000006    2    1    2  501    0  0.00000000000E+00  0.00000000000E+00  0.89488642531E+03  0.11051135747E+04  0.64842447421E+03 0.  0.
         13    1    3    3    0    0 -0.18715250891E+03 -0.26405975269E+03  0.47977834927E+03  0.57874077013E+03  0.00000000000E+00 0. -1.
          4    1    3    3  501    0  0.18715250891E+03  0.26405975269E+03  0.41510807605E+03  0.52637280456E+03  0.00000000000E+00 0. -1.
<mgrwt>
<rscale>  0 0.64842447E+03</rscale>
<asrwt>0</asrwt>
<pdfrwt beam="1">0</pdfrwt>
<pdfrwt beam="2">  1        2 0.38223199E+00 0.64842447E+03</pdfrwt>
<totfact> 0.46387308E+00</totfact>
</mgrwt>
</event>
<event>
 5    1  0.2369161E-004  0.6301705E+03  0.7818608E-02  0.9844716E-01
         13   -1    0    0    0    0  0.00000000000E+00  0.00000000000E+00  0.10000000000E+04  0.10000000000E+04  0.00000000000E+00 0. -1.
          2   -1    0    0  501    0 -0.00000000000E+00 -0.00000000000E+00 -0.99278720098E+02  0.99278720098E+02  0.00000000000E+00 0. -1.
    9000006    2    1    2  501    0  0.00000000000E+00  0.00000000000E+00  0.90072127990E+03  0.10992787201E+04  0.63017051692E+03 0.  0.
         13    1    3    3    0    0 -0.15087284567E+03  0.59021455896E+02  0.92178067856E+03  0.93590905925E+03  0.00000000000E+00 0. -1.
          4    1    3    3  501    0  0.15087284567E+03 -0.59021455896E+02 -0.21059398657E+02  0.16336966085E+03  0.00000000000E+00 0. -1.
<mgrwt>
<rscale>  0 0.63017052E+03</rscale>
<asrwt>0</asrwt>
<pdfrwt beam="1">0</pdfrwt>
<pdfrwt beam="2">  1        2 0.36101429E+00 0.63017052E+03</pdfrwt>
<totfact> 0.55566900E+00</totfact>
</mgrwt>
</event>
<event>
 5    1  0.2369161E-004  0.6562190E+03  0.7818608E-02  0.9795179E-01
         13   -1    0    0    0    0  0.00000000000E+00  0.00000000000E+00  0.10000000000E+04  0.10000000000E+04  0.00000000000E+00 0. -1.
          2   -1    0    0  501    0 -0.00000000000E+00 -0.00000000000E+00 -0.10765583909E+03  0.10765583909E+03  0.00000000000E+00 0. -1.
    9000006    2    1    2  501    0  0.00000000000E+00  0.00000000000E+00  0.89234416091E+03  0.11076558391E+04  0.65621898508E+03 0.  0.
         13    1    3    3    0    0  0.93407052114E+02 -0.29697267291E+03  0.62108490712E+03  0.69474031673E+03  0.00000000000E+00 0. -1.
          2    1    3    3  501    0 -0.93407052114E+02  0.29697267291E+03  0.27125925379E+03  0.41291552236E+03  0.00000000000E+00 0. -1.
<mgrwt>
<rscale>  0 0.65621899E+03</rscale>
<asrwt>0</asrwt>
<pdfrwt beam="1">0</pdfrwt>
<pdfrwt beam="2">  1        2 0.39147660E+00 0.65621899E+03</pdfrwt>
<totfact> 0.42838832E+00</totfact>
</mgrwt>
</event>
<event>
 5    1  0.2369161E-004  0.6447729E+03  0.7818608E-02  0.9816637E-01
         13   -1    0    0    0    0  0.00000000000E+00  0.00000000000E+00  0.10000000000E+04  0.10000000000E+04  0.00000000000E+00 0. -1.
          2   -1    0    0  501    0 -0.00000000000E+00 -0.00000000000E+00 -0.10393303550E+03  0.10393303550E+03  0.00000000000E+00 0. -1.
    9000006    2    1    2  501    0  0.00000000000E+00  0.00000000000E+00  0.89606696450E+03  0.11039330355E+04  0.64477293831E+03 0.  0.
         13    1    3    3    0    0  0.24134608804E+03 -0.76983367442E+02  0.78942428049E+03  0.82907482636E+03  0.00000000000E+00 0. -1.
          2    1    3    3  501    0 -0.24134608804E+03  0.76983367442E+02  0.10664268402E+03  0.27485820914E+03  0.00000000000E+00 0. -1.
<mgrwt>
<rscale>  0 0.64477294E+03</rscale>
<asrwt>0</asrwt>
<pdfrwt beam="1">0</pdfrwt>
<pdfrwt beam="2">  1        2 0.37793911E+00 0.64477294E+03</pdfrwt>
<totfact> 0.48124060E+00</totfact>
</mgrwt>
</event>
<event>
 5    1  0.2369161E-004  0.6426546E+03  0.7818608E-02  0.9820661E-01
         13   -1    0    0    0    0  0.00000000000E+00  0.00000000000E+00  0.10000000000E+04  0.10000000000E+04  0.00000000000E+00 0. -1.
          2   -1    0    0  501    0 -0.00000000000E+00 -0.00000000000E+00 -0.10325123762E+03  0.10325123762E+03  0.00000000000E+00 0. -1.
    9000006    2    1    2  501    0  0.00000000000E+00  0.00000000000E+00  0.89674876238E+03  0.11032512376E+04  0.64265461213E+03 0.  0.
         13    1    3    3    0    0  0.31858188498E+03 -0.20965268846E+02  0.51068118340E+03  0.60227006485E+03  0.00000000000E+00 0. -1.
          2    1    3    3  501    0 -0.31858188498E+03  0.20965268846E+02  0.38606757898E+03  0.50098117277E+03  0.00000000000E+00 0. -1.
<mgrwt>
<rscale>  0 0.64265461E+03</rscale>
<asrwt>0</asrwt>
<pdfrwt beam="1">0</pdfrwt>
<pdfrwt beam="2">  1        2 0.37545984E+00 0.64265461E+03</pdfrwt>
<totfact> 0.49153873E+00</totfact>
</mgrwt>
</event>
<event>
 5    1  0.2369161E-004  0.6542736E+03  0.7818608E-02  0.9798793E-01
         13   -1    0    0    0    0  0.00000000000E+00  0.00000000000E+00  0.10000000000E+04  0.10000000000E+04  0.00000000000E+00 0. -1.
          2   -1    0    0  501    0 -0.00000000000E+00 -0.00000000000E+00 -0.10701849990E+03  0.10701849990E+03  0.00000000000E+00 0. -1.
    9000006    2    1    2  501    0  0.00000000000E+00  0.00000000000E+00  0.89298150010E+03  0.11070184999E+04  0.65427364275E+03 0.  0.
         13    1    3    3    0    0  0.27253846050E+03 -0.17899896706E+03  0.49127736712E+03  0.58963657799E+03  0.00000000000E+00 0. -1.
          2    1    3    3  501    0 -0.27253846050E+03  0.17899896706E+03  0.40170413298E+03  0.51738192191E+03  0.00000000000E+00 0. -1.
<mgrwt>
<rscale>  0 0.65427364E+03</rscale>
<asrwt>0</asrwt>
<pdfrwt beam="1">0</pdfrwt>
<pdfrwt beam="2">  1        2 0.38915900E+00 0.65427364E+03</pdfrwt>
<totfact> 0.43704549E+00</totfact>
</mgrwt>
</event>
<event>
 5    1  0.2369161E-004  0.6604088E+03  0.7818608E-02  0.9787442E-01
         13   -1    0    0    0    0  0.00000000000E+00  0.00000000000E+00  0.10000000000E+04  0.10000000000E+04  0.00000000000E+00 0. -1.
          2   -1    0    0  501    0 -0.00000000000E+00 -0.00000000000E+00 -0.10903493031E+03  0.10903493031E+03  0.00000000000E+00 0. -1.
    9000006    2    1    2  501    0  0.00000000000E+00  0.00000000000E+00  0.89096506969E+03  0.11090349303E+04  0.66040875316E+03 0.  0.
         13    1    3    3    0    0  0.12035208410E+03  0.14598099964E+03 -0.89884263163E+01  0.18940926116E+03  0.00000000000E+00 0. -1.
          4    1    3    3  501    0 -0.12035208410E+03 -0.14598099964E+03  0.89995349600E+03  0.91962566916E+03  0.00000000000E+00 0. -1.
<mgrwt>
<rscale>  0 0.66040875E+03</rscale>
<asrwt>0</asrwt>
<pdfrwt beam="1">0</pdfrwt>
<pdfrwt beam="2">  1        2 0.39649149E+00 0.66040875E+03</pdfrwt>
<totfact> 0.41018396E+00</totfact>
</mgrwt>
</event>
<event>
 5    1  0.2369161E-004  0.6510668E+03  0.7818608E-02  0.9804779E-01
         13   -1    0    0    0    0  0.00000000000E+00  0.00000000000E+00  0.10000000000E+04  0.10000000000E+04  0.00000000000E+00 0. -1.
          2   -1    0    0  501    0 -0.00000000000E+00 -0.00000000000E+00 -0.10597199554E+03  0.10597199554E+03  0.00000000000E+00 0. -1.
    9000006    2    1    2  501    0  0.00000000000E+00  0.00000000000E+00  0.89402800446E+03  0.11059719955E+04  0.65106680313E+03 0.  0.
         13    1    3    3    0    0 -0.14919299341E+03  0.25250370351E+03  0.20704895304E+03  0.35900687810E+03  0.00000000000E+00 0. -1.
          2    1    3    3  501    0  0.14919299341E+03 -0.25250370351E+03  0.68697905142E+03  0.74696511743E+03  0.00000000000E+00 0. -1.
<mgrwt>
<rscale>  0 0.65106680E+03</rscale>
<asrwt>0</asrwt>
<pdfrwt beam="1">0</pdfrwt>
<pdfrwt beam="2">  1        2 0.38535352E+00 0.65106680E+03</pdfrwt>
<totfact> 0.45160426E+00</totfact>
</mgrwt>
</event>
<event>
 5    1  0.2369161E-004  0.6504787E+03  0.7818608E-02  0.9805881E-01
         13   -1    0    0    0    0  0.00000000000E+00  0.00000000000E+00  0.10000000000E+04  0.10000000000E+04  0.00000000000E+00 0. -1.
          2   -1    0    0  501    0 -0.00000000000E+00 -0.00000000000E+00 -0.10578062952E+03  0.10578062952E+03  0.00000000000E+00 0. -1.
    9000006    2    1    2  501    0  0.00000000000E+00  0.00000000000E+00  0.89421937048E+03  0.11057806295E+04  0.65047868379E+03 0.  0.
         13    1    3    3    0    0  0.39934253814E+02  0.32013067899E+03  0.37697296648E+03  0.49617236291E+03  0.00000000000E+00 0. -1.
          4    1    3    3  501    0 -0.39934253814E+02 -0.32013067899E+03  0.51724640400E+03  0.60960826661E+03  0.00000000000E+00 0. -1.
<mgrwt>
<rscale>  0 0.65047868E+03</rscale>
<asrwt>0</asrwt>
<pdfrwt beam="1">0</pdfrwt>
<pdfrwt beam="2">  1        2 0.38465765E+00 0.65047868E+03</pdfrwt>
<totfact> 0.45431354E+00</totfact>
</mgrwt>
</event>
<event>
 5    1  0.2369161E-004  0.6518061E+03  0.7818608E-02  0.9803396E-01
         13   -1    0    0    0    0  0.00000000000E+00  0.00000000000E+00  0.10000000000E+04  0.10000000000E+04  0.00000000000E+00 0. -1.
          2   -1    0    0  501    0 -0.00000000000E+00 -0.00000000000E+00 -0.10621280051E+03  0.10621280051E+03  0.00000000000E+00 0. -1.
    9000006    2    1    2  501    0  0.00000000000E+00  0.00000000000E+00  0.89378719949E+03  0.11062128005E+04  0.65180610770E+03 0.  0.
         13    1    3    3    0    0  0.16096867483E+03 -0.25107366769E+03  0.22390138286E+03  0.37293528947E+03  0.00000000000E+00 0. -1.
          4    1    3    3  501    0 -0.16096867483E+03  0.25107366769E+03  0.66988581663E+03  0.73327751104E+03  0.00000000000E+00 0. -1.
<mgrwt>
<rscale>  0 0.65180611E+03</rscale>
<asrwt>0</asrwt>
<pdfrwt beam="1">0</pdfrwt>
<pdfrwt beam="2">  1        2 0.38622918E+00 0.65180611E+03</pdfrwt>
<totfact> 0.44821587E+00</totfact>
</mgrwt>
</event>
<event>
 5    1  0.2369161E-004  0.6464112E+03  0.7818608E-02  0.9813537E-01
         13   -1    0    0    0    0  0.00000000000E+00  0.00000000000E+00  0.10000000000E+04  0.10000000000E+04  0.00000000000E+00 0. -1.
          2   -1    0    0  501    0 -0.00000000000E+00 -0.00000000000E+00 -0.10446187519E+03  0.10446187519E+03  0.00000000000E+00 0. -1.
    9000006    2    1    2  501    0  0.00000000000E+00  0.00000000000E+00  0.89553812481E+03  0.11044618752E+04  0.64641124740E+03 0.  0.
         13    1    3    3    0    0  0.12830526033E+03 -0.13062732821E+03  0.90283632142E+03  0.92121613206E+03  0.00000000000E+00 0. -1.
          4    1    3    3  501    0 -0.12830526033E+03  0.13062732821E+03 -0.72981966095E+01  0.18324574313E+03  0.00000000000E+00 0. -1.
<mgrwt>
<rscale>  0 0.64641125E+03</rscale>
<asrwt>0</asrwt>
<pdfrwt beam="1">0</pdfrwt>
<pdfrwt beam="2">  1        2 0.37986217E+00 0.64641125E+03</pdfrwt>
<totfact> 0.47338870E+00</totfact>
</mgrwt>
</event>
<event>
 5    1  0.2369161E-004  0.6492568E+03  0.7818608E-02  0.9808175E-01
         13   -1    0    0    0    0  0.00000000000E+00  0.00000000000E+00  0.10000000000E+04  0.10000000000E+04  0.00000000000E+00 0. -1.
          2   -1    0    0  501    0 -0.00000000000E+00 -0.00000000000E+00 -0.10538358345E+03  0.10538358345E+03  0.00000000000E+00 0. -1.
    9000006    2    1    2  501    0  0.00000000000E+00  0.00000000000E+00  0.89461641655E+03  0.11053835835E+04  0.64925675491E+03 0.  0.
         13    1    3    3    0    0 -0.28265426601E+03  0.26747150005E+00  0.17548776630E+03  0.33270025812E+03  0.00000000000E+00 0. -1.
          2    1    3    3  501    0  0.28265426601E+03 -0.26747150005E+00  0.71912865025E+03  0.77268332533E+03  0.00000000000E+00 0. -1.
<mgrwt>
<rscale>  0 0.64925675E+03</rscale>
<asrwt>0</asrwt>
<pdfrwt beam="1">0</pdfrwt>
<pdfrwt beam="2">  1        2 0.38321384E+00 0.64925675E+03</pdfrwt>
<totfact> 0.45998181E+00</totfact>
</mgrwt>
</event>
<event>
 5    1  0.2369161E-004  0.6572872E+03  0.7818608E-02  0.9793200E-01
         13   -1    0    0    0    0  0.00000000000E+00  0.00000000000E+00  0.10000000000E+04  0.10000000000E+04  0.00000000000E+00 0. -1.
          2   -1    0    0  501    0 -0.00000000000E+00 -0.00000000000E+00 -0.10800662491E+03  0.10800662491E+03  0.00000000000E+00 0. -1.
    9000006    2    1    2  501    0  0.00000000000E+00  0.00000000000E+00  0.89199337509E+03  0.11080066249E+04  0.65728722765E+03 0.  0.
         13    1    3    3    0    0  0.53335953280E+02  0.30936549686E+03  0.28208292773E+03  0.42204562867E+03  0.00000000000E+00 0. -1.
          2    1    3    3  501    0 -0.53335953280E+02 -0.30936549686E+03  0.60991044736E+03  0.68596099624E+03  0.00000000000E+00 0. -1.
<mgrwt>
<rscale>  0 0.65728723E+03</rscale>
<asrwt>0</asrwt>
<pdfrwt beam="1">0</pdfrwt>
<pdfrwt beam="2">  1        2 0.39275219E+00 0.65728723E+03</pdfrwt>
<totfact> 0.42368986E+00</totfact>
</mgrwt>
</event>
<event>
 5    1  0.2369161E-004  0.6399630E+03  0.7818608E-02  0.9825797E-01
         13   -1    0    0    0    0  0.00000000000E+00  0.00000000000E+00  0.10000000000E+04  0.10000000000E+04  0.00000000000E+00 0. -1.
          2   -1    0    0  501    0 -0.00000000000E+00 -0.00000000000E+00 -0.10238817069E+03  0.10238817069E+03  0.00000000000E+00 0. -1.
    9000006    2    1    2  501    0  0.00000000000E+00  0.00000000000E+00  0.89761182931E+03  0.11023881707E+04  0.63996303233E+03 0.  0.
         13    1    3    3    0    0  0.20504962726E+03  0.14883451035E+03  0.78544209847E+03  0.82529773486E+03  0.00000000000E+00 0. -1.
          2    1    3    3  501    0 -0.20504962726E+03 -0.14883451035E+03  0.11216973084E+03  0.27709043583E+03  0.00000000000E+00 0. -1.
<mgrwt>
<rscale>  0 0.63996303E+03</rscale>
<asrwt>0</asrwt>
<pdfrwt beam="1">0</pdfrwt>
<pdfrwt beam="2">  1        2 0.37232141E+00 0.63996303E+03</pdfrwt>
<totfact> 0.50486454E+00</totfact>
</mgrwt>
</event>
<event>
 5    1  0.2369161E-004  0.6608398E+03  0.7818608E-02  0.9786649E-01
         13   -1    0    0    0    0  0.00000000000E+00  0.00000000000E+00  0.10000000000E+04  0.10000000000E+04  0.00000000000E+00 0. -1.
          2   -1    0    0  501    0 -0.00000000000E+00 -0.00000000000E+00 -0.10917732543E+03  0.10917732543E+03  0.00000000000E+00 0. -1.
    9000006    2    1    2  501    0  0.00000000000E+00  0.00000000000E+00  0.89082267457E+03  0.11091773254E+04  0.66083984574E+03 0.  0.
         13    1    3    3    0    0  0.22788905083E+03 -0.10958080024E+03  0.80239360113E+03  0.84129475358E+03  0.00000000000E+00 0. -1.
          2    1    3    3  501    0 -0.22788905083E+03  0.10958080024E+03  0.88429073444E+02  0.26788257185E+03  0.00000000000E+00 0. -1.
<mgrwt>
<rscale>  0 0.66083985E+03</rscale>
<asrwt>0</asrwt>
<pdfrwt beam="1">0</pdfrwt>
<pdfrwt beam="2">  1        2 0.39700929E+00 0.66083985E+03</pdfrwt>
<totfact> 0.40834467E+00</totfact>
</mgrwt>
</event>
<event>
 5    1  0.2369161E-004  0.6643250E+03  0.7818608E-02  0.9780264E-01
         13   -1    0    0    0    0  0.00000000000E+00  0.00000000000E+00  0.10000000000E+04  0.10000000000E+04  0.00000000000E+00 0. -1.
          2   -1    0    0  501    0 -0.00000000000E+00 -0.00000000000E+00 -0.11033193085E+03  0.11033193085E+03  0.00000000000E+00 0. -1.
    9000006    2    1    2  501    0  0.00000000000E+00  0.00000000000E+00  0.88966806915E+03  0.11103319308E+04  0.66432501338E+03 0.  0.
         13    1    3    3    0    0 -0.14201607115E+02  0.15490513326E+03 -0.45690978769E+02  0.16212634424E+03  0.00000000000E+00 0. -1.
          4    1    3    3  501    0  0.14201607115E+02 -0.15490513326E+03  0.93535904792E+03  0.94820558661E+03  0.00000000000E+00 0. -1.
<mgrwt>
<rscale>  0 0.66432501E+03</rscale>
<asrwt>0</asrwt>
<pdfrwt beam="1">0</pdfrwt>
<pdfrwt beam="2">  1        2 0.40120787E+00 0.66432501E+03</pdfrwt>
<totfact> 0.39370243E+00</totfact>
</mgrwt>
</event>
<event>
 5    1  0.2369161E-004  0.6495362E+03  0.7818608E-02  0.9807650E-01
         13   -1    0    0    0    0  0.00000000000E+00  0.00000000000E+00  0.10000000000E+04  0.10000000000E+04  0.00000000000E+00 0. -1.
          2   -1    0    0  501    0 -0.00000000000E+00 -0.00000000000E+00 -0.10547430652E+03  0.10547430652E+03  0.00000000000E+00 0. -1.
    9000006    2    1    2  501    0  0.00000000000E+00  0.00000000000E+00  0.89452569348E+03  0.11054743065E+04  0.64953616227E+03 0.  0.
         13    1    3    3    0    0  0.29156433812E+03  0.13581320919E+03  0.52374276304E+03  0.61462303316E+03  0.00000000000E+00 0. -1.
          2    1    3    3  501    0 -0.29156433812E+03 -0.13581320919E+03  0.37078293043E+03  0.49085127336E+03  0.00000000000E+00 0. -1.
<mgrwt>
<rscale>  0 0.64953616E+03</rscale>
<asrwt>0</asrwt>
<pdfrwt beam="1">0</pdfrwt>
<pdfrwt beam="2">  1        2 0.38354374E+00 0.64953616E+03</pdfrwt>
<totfact> 0.45868101E+00</totfact>
</mgrwt>
</event>
<event>
 5    1  0.2369161E-004  0.6475703E+03  0.7818608E-02  0.9811349E-01
         13   -1    0    0    0    0  0.00000000000E+00  0.00000000000E+00  0.10000000000E+04  0.10000000000E+04  0.00000000000E+00 0. -1.
          2   -1    0    0  501    0 -0.00000000000E+00 -0.00000000000E+00 -0.10483683857E+03  0.10483683857E+03  0.00000000000E+00 0. -1.
    9000006    2    1    2  501    0  0.00000000000E+00  0.00000000000E+00  0.89516316143E+03  0.11048368386E+04  0.64757034696E+03 0.  0.
         13    1    3    3    0    0  0.37077382639E+02  0.10389274294E+03 -0.71788628408E+02  0.13161322695E+03  0.00000000000E+00 0. -1.
          4    1    3    3  501    0 -0.37077382639E+02 -0.10389274294E+03  0.96695178984E+03  0.97322361162E+03  0.00000000000E+00 0. -1.
<mgrwt>
<rscale>  0 0.64757035E+03</rscale>
<asrwt>0</asrwt>
<pdfrwt beam="1">0</pdfrwt>
<pdfrwt beam="2">  1        2 0.38122567E+00 0.64757035E+03</pdfrwt>
<totfact> 0.46789232E+00</totfact>
</mgrwt>
</event>
<event>
 5    1  0.2369161E-004  0.6295965E+03  0.7818608E-02  0.9845837E-01
         13   -1    0    0    0    0  0.00000000000E+00  0.00000000000E+00  0.10000000000E+04  0.10000000000E+04  0.00000000000E+00 0. -1.
          2   -1    0    0  501    0 -0.00000000000E+00 -0.00000000000E+00 -0.99097922986E+02  0.99097922986E+02  0.00000000000E+00 0. -1.
    9000006    2    1    2  501    0  0.00000000000E+00  0.00000000000E+00  0.90090207701E+03  0.10990979230E+04  0.62959645166E+03 0.  0.
         13    1    3    3    0    0 -0.60847862021E+02  0.45350823937E+02 -0.82890165450E+02  0.11238300171E+03  0.00000000000E+00 0. -1.
          4    1    3    3  501    0  0.60847862021E+02 -0.45350823937E+02  0.98379224246E+03  0.98671492128E+03  0.00000000000E+00 0. -1.
<mgrwt>
<rscale>  0 0.62959645E+03</rscale>
<asrwt>0</asrwt>
<pdfrwt beam="1">0</pdfrwt>
<pdfrwt beam="2">  1        2 0.36035684E+00 0.62959645E+03</pdfrwt>
<totfact> 0.55876298E+00</totfact>
</mgrwt>
</event>
<event>
 5    1  0.2369161E-004  0.6233556E+03  0.7818608E-02  0.9858101E-01
         13   -1    0    0    0    0  0.00000000000E+00  0.00000000000E+00  0.10000000000E+04  0.10000000000E+04  0.00000000000E+00 0. -1.
          2   -1    0    0  501    0 -0.00000000000E+00 -0.00000000000E+00 -0.97143053486E+02  0.97143053486E+02  0.00000000000E+00 0. -1.
    9000006    2    1    2  501    0  0.00000000000E+00  0.00000000000E+00  0.90285694651E+03  0.10971430535E+04  0.62335560793E+03 0.  0.
         13    1    3    3    0    0  0.28015776342E+03 -0.12622968352E+03  0.54323457615E+03  0.62412026897E+03  0.00000000000E+00 0. -1.
          2    1    3    3  501    0 -0.28015776342E+03  0.12622968352E+03  0.35962237036E+03  0.47302278452E+03  0.00000000000E+00 0. -1.
<mgrwt>
<rscale>  0 0.62335561E+03</rscale>
<asrwt>0</asrwt>
<pdfrwt beam="1">0</pdfrwt>
<pdfrwt beam="2">  1        2 0.35324821E+00 0.62335561E+03</pdfrwt>
<totfact> 0.59325189E+00</totfact>
</mgrwt>
</event>
<event>
 5    1  0.2369161E-004  0.6531353E+03  0.7818608E-02  0.9800914E-01
         13   -1    0    0    0    0  0.00000000000E+00  0.00000000000E+00  0.10000000000E+04  0.10000000000E+04  0.00000000000E+00 0. -1.
          2   -1    0    0  501    0 -0.00000000000E+00 -0.00000000000E+00 -0.10664643465E+03  0.10664643465E+03  0.00000000000E+00 0. -1.
    9000006    2    1    2  501    0  0.00000000000E+00  0.00000000000E+00  0.89335356535E+03  0.11066464347E+04  0.65313531416E+03 0.  0.
         13    1    3    3    0    0  0.89349458952E+02 -0.53213409023E+02  0.97119398303E+03  0.97674599840E+03  0.00000000000E+00 0. -1.
          4    1    3    3  501    0 -0.89349458952E+02  0.53213409023E+02 -0.77840417680E+02  0.12990043626E+03  0.00000000000E+00 0. -1.
<mgrwt>
<rscale>  0 0.65313531E+03</rscale>
<asrwt>0</asrwt>
<pdfrwt beam="1">0</pdfrwt>
<pdfrwt beam="2">  1        2 0.38780603E+00 0.65313531E+03</pdfrwt>
<totfact> 0.44217218E+00</totfact>
</mgrwt>
</event>
<event>
 5    1  0.2369161E-004  0.5671808E+03  0.7818608E-02  0.9975936E-01
         13   -1    0    0    0    0  0.00000000000E+00  0.00000000000E+00  0.10000000000E+04  0.10000000000E+04  0.00000000000E+00 0. -1.
          2   -1    0    0  501    0 -0.00000000000E+00 -0.00000000000E+00 -0.80423525372E+02  0.80423525372E+02  0.00000000000E+00 0. -1.
    9000006    2    1    2  501    0  0.00000000000E+00  0.00000000000E+00  0.91957647463E+03  0.10804235254E+04  0.56718083667E+03 0.  0.
         13    1    3    3    0    0 -0.38405132616E+02 -0.19973765382E+03  0.83342715775E+02  0.21980921919E+03  0.00000000000E+00 0. -1.
          2    1    3    3  501    0  0.38405132616E+02  0.19973765382E+03  0.83623375885E+03  0.86061430619E+03  0.00000000000E+00 0. -1.
<mgrwt>
<rscale>  0 0.56718084E+03</rscale>
<asrwt>0</asrwt>
<pdfrwt beam="1">0</pdfrwt>
<pdfrwt beam="2">  1        2 0.29244980E+00 0.56718084E+03</pdfrwt>
<totfact> 0.98249575E+00</totfact>
</mgrwt>
</event>
<event>
 5    1  0.2369161E-004  0.6411800E+03  0.7818608E-02  0.9823471E-01
         13   -1    0    0    0    0  0.00000000000E+00  0.00000000000E+00  0.10000000000E+04  0.10000000000E+04  0.00000000000E+00 0. -1.
          2   -1    0    0  501    0 -0.00000000000E+00 -0.00000000000E+00 -0.10277796069E+03  0.10277796069E+03  0.00000000000E+00 0. -1.
    9000006    2    1    2  501    0  0.00000000000E+00  0.00000000000E+00  0.89722203931E+03  0.11027779607E+04  0.64118003926E+03 0.  0.
         13    1    3    3    0    0 -0.27457822958E+03 -0.16531029516E+03  0.46162603071E+03  0.56197801565E+03  0.00000000000E+00 0. -1.
          4    1    3    3  501    0  0.27457822958E+03  0.16531029516E+03  0.43559600860E+03  0.54079994504E+03  0.00000000000E+00 0. -1.
<mgrwt>
<rscale>  0 0.64118004E+03</rscale>
<asrwt>0</asrwt>
<pdfrwt beam="1">0</pdfrwt>
<pdfrwt beam="2">  1        2 0.37373883E+00 0.64118004E+03</pdfrwt>
<totfact> 0.49880579E+00</totfact>
</mgrwt>
</event>
<event>
 5    1  0.2369161E-004  0.6497362E+03  0.7818608E-02  0.9807274E-01
         13   -1    0    0    0    0  0.00000000000E+00  0.00000000000E+00  0.10000000000E+04  0.10000000000E+04  0.00000000000E+00 0. -1.
          2   -1    0    0  501    0 -0.00000000000E+00 -0.00000000000E+00 -0.10553929472E+03  0.10553929472E+03  0.00000000000E+00 0. -1.
    9000006    2    1    2  501    0  0.00000000000E+00  0.00000000000E+00  0.89446070528E+03  0.11055392947E+04  0.64973623793E+03 0.  0.
         13    1    3    3    0    0 -0.22916588953E+03  0.60241516805E+02  0.82538626350E+03  0.85872494389E+03  0.00000000000E+00 0. -1.
          4    1    3    3  501    0  0.22916588953E+03 -0.60241516805E+02  0.69074441775E+02  0.24681435083E+03  0.00000000000E+00 0. -1.
<mgrwt>
<rscale>  0 0.64973624E+03</rscale>
<asrwt>0</asrwt>
<pdfrwt beam="1">0</pdfrwt>
<pdfrwt beam="2">  1        2 0.38378006E+00 0.64973624E+03</pdfrwt>
<totfact> 0.45775126E+00</totfact>
</mgrwt>
</event>
<event>
 5    1  0.2369161E-004  0.6411958E+03  0.7818608E-02  0.9823441E-01
         13   -1    0    0    0    0  0.00000000000E+00  0.00000000000E+00  0.10000000000E+04  0.10000000000E+04  0.00000000000E+00 0. -1.
          2   -1    0    0  501    0 -0.00000000000E+00 -0.00000000000E+00 -0.10278299879E+03  0.10278299879E+03  0.00000000000E+00 0. -1.
    9000006    2    1    2  501    0  0.00000000000E+00  0.00000000000E+00  0.89721700121E+03  0.11027829988E+04  0.64119575416E+03 0.  0.
         13    1    3    3    0    0 -0.29695895385E+03  0.10997139314E+03  0.53468305555E+03  0.62142119168E+03  0.00000000000E+00 0. -1.
          4    1    3    3  501    0  0.29695895385E+03 -0.10997139314E+03  0.36253394566E+03  0.48136180711E+03  0.00000000000E+00 0. -1.
<mgrwt>
<rscale>  0 0.64119575E+03</rscale>
<asrwt>0</asrwt>
<pdfrwt beam="1">0</pdfrwt>
<pdfrwt beam="2">  1        2 0.37375715E+00 0.64119575E+03</pdfrwt>
<totfact> 0.49872792E+00</totfact>
</mgrwt>
</event>
<event>
 5    1  0.2369161E-004  0.6458657E+03  0.7818608E-02  0.9814568E-01
         13   -1    0    0    0    0  0.00000000000E+00  0.00000000000E+00  0.10000000000E+04  0.10000000000E+04  0.00000000000E+00 0. -1.
          2   -1    0    0  501    0 -0.00000000000E+00 -0.00000000000E+00 -0.10428563059E+03  0.10428563059E+03  0.00000000000E+00 0. -1.
    9000006    2    1    2  501    0  0.00000000000E+00  0.00000000000E+00  0.89571436941E+03  0.11042856306E+04  0.64586571542E+03 0.  0.
         13    1    3    3    0    0  0.26633896851E+03  0.80585290727E+02  0.72804764686E+03  0.77941247830E+03  0.00000000000E+00 0. -1.
          4    1    3    3  501    0 -0.26633896851E+03 -0.80585290727E+02  0.16766672255E+03  0.32487315229E+03  0.00000000000E+00 0. -1.
<mgrwt>
<rscale>  0 0.64586572E+03</rscale>
<asrwt>0</asrwt>
<pdfrwt beam="1">0</pdfrwt>
<pdfrwt beam="2">  1        2 0.37922127E+00 0.64586572E+03</pdfrwt>
<totfact> 0.47599242E+00</totfact>
</mgrwt>
</event>
<event>
 5    1  0.2369161E-004  0.6414409E+03  0.7818608E-02  0.9822974E-01
         13   -1    0    0    0    0  0.00000000000E+00  0.00000000000E+00  0.10000000000E+04  0.10000000000E+04  0.00000000000E+00 0. -1.
          2   -1    0    0  501    0 -0.00000000000E+00 -0.00000000000E+00 -0.10286159814E+03  0.10286159814E+03  0.00000000000E+00 0. -1.
    9000006    2    1    2  501    0  0.00000000000E+00  0.00000000000E+00  0.89713840186E+03  0.11028615981E+04  0.64144087223E+03 0.  0.
         13    1    3    3    0    0  0.31607867345E+03  0.52310925212E+02  0.42309974041E+03  0.53071230534E+03  0.00000000000E+00 0. -1.
          2    1    3    3  501    0 -0.31607867345E+03 -0.52310925212E+02  0.47403866145E+03  0.57214929280E+03  0.00000000000E+00 0. -1.
<mgrwt>
<rscale>  0 0.64144087E+03</rscale>
<asrwt>0</asrwt>
<pdfrwt beam="1">0</pdfrwt>
<pdfrwt beam="2">  1        2 0.37404296E+00 0.64144087E+03</pdfrwt>
<totfact> 0.49751445E+00</totfact>
</mgrwt>
</event>
<event>
 5    1  0.2369161E-004  0.6648930E+03  0.7818608E-02  0.9779228E-01
         13   -1    0    0    0    0  0.00000000000E+00  0.00000000000E+00  0.10000000000E+04  0.10000000000E+04  0.00000000000E+00 0. -1.
          2   -1    0    0  501    0 -0.00000000000E+00 -0.00000000000E+00 -0.11052067285E+03  0.11052067285E+03  0.00000000000E+00 0. -1.
    9000006    2    1    2  501    0  0.00000000000E+00  0.00000000000E+00  0.88947932715E+03  0.11105206729E+04  0.66489299245E+03 0.  0.
         13    1    3    3    0    0 -0.13191206531E+03  0.20773419996E+03  0.81808767622E+03  0.85429604751E+03  0.00000000000E+00 0. -1.
          4    1    3    3  501    0  0.13191206531E+03 -0.20773419996E+03  0.71391650925E+02  0.25622462534E+03  0.00000000000E+00 0. -1.
<mgrwt>
<rscale>  0 0.66489299E+03</rscale>
<asrwt>0</asrwt>
<pdfrwt beam="1">0</pdfrwt>
<pdfrwt beam="2">  1        2 0.40189420E+00 0.66489299E+03</pdfrwt>
<totfact> 0.39135423E+00</totfact>
</mgrwt>
</event>
<event>
 5    1  0.2369161E-004  0.6533479E+03  0.7818608E-02  0.9800517E-01
         13   -1    0    0    0    0  0.00000000000E+00  0.00000000000E+00  0.10000000000E+04  0.10000000000E+04  0.00000000000E+00 0. -1.
          2   -1    0    0  501    0 -0.00000000000E+00 -0.00000000000E+00 -0.10671586695E+03  0.10671586695E+03  0.00000000000E+00 0. -1.
    9000006    2    1    2  501    0  0.00000000000E+00  0.00000000000E+00  0.89328413305E+03  0.11067158669E+04  0.65334789185E+03 0.  0.
         13    1    3    3    0    0 -0.14697725938E+03  0.11425730378E+03  0.90135281217E+03  0.92037706308E+03  0.00000000000E+00 0. -1.
          4    1    3    3  501    0  0.14697725938E+03 -0.11425730378E+03 -0.80686791148E+01  0.18633880387E+03  0.00000000000E+00 0. -1.
<mgrwt>
<rscale>  0 0.65334789E+03</rscale>
<asrwt>0</asrwt>
<pdfrwt beam="1">0</pdfrwt>
<pdfrwt beam="2">  1        2 0.38805852E+00 0.65334789E+03</pdfrwt>
<totfact> 0.44121137E+00</totfact>
</mgrwt>
</event>
<event>
 5    1  0.2369161E-004  0.6605609E+03  0.7818608E-02  0.9787162E-01
         13   -1    0    0    0    0  0.00000000000E+00  0.00000000000E+00  0.10000000000E+04  0.10000000000E+04  0.00000000000E+00 0. -1.
          2   -1    0    0  501    0 -0.00000000000E+00 -0.00000000000E+00 -0.10908518853E+03  0.10908518853E+03  0.00000000000E+00 0. -1.
    9000006    2    1    2  501    0  0.00000000000E+00  0.00000000000E+00  0.89091481147E+03  0.11090851885E+04  0.66056093900E+03 0.  0.
         13    1    3    3    0    0  0.55771845401E+02 -0.10559331849E+03 -0.71569148524E+02  0.13922137289E+03  0.00000000000E+00 0. -1.
          2    1    3    3  501    0 -0.55771845401E+02  0.10559331849E+03  0.96248395999E+03  0.96986381564E+03  0.00000000000E+00 0. -1.
<mgrwt>
<rscale>  0 0.66056094E+03</rscale>
<asrwt>0</asrwt>
<pdfrwt beam="1">0</pdfrwt>
<pdfrwt beam="2">  1        2 0.39667425E+00 0.66056094E+03</pdfrwt>
<totfact> 0.40953394E+00</totfact>
</mgrwt>
</event>
<event>
 5    1  0.2369161E-004  0.6510912E+03  0.7818608E-02  0.9804734E-01
         13   -1    0    0    0    0  0.00000000000E+00  0.00000000000E+00  0.10000000000E+04  0.10000000000E+04  0.00000000000E+00 0. -1.
          2   -1    0    0  501    0 -0.00000000000E+00 -0.00000000000E+00 -0.10597993584E+03  0.10597993584E+03  0.00000000000E+00 0. -1.
    9000006    2    1    2  501    0  0.00000000000E+00  0.00000000000E+00  0.89402006416E+03  0.11059799358E+04  0.65109119434E+03 0.  0.
         13    1    3    3    0    0 -0.16848075198E+03 -0.26226776250E+03  0.60644672360E+03  0.68187078805E+03  0.00000000000E+00 0. -1.
          2    1    3    3  501    0  0.16848075198E+03  0.26226776250E+03  0.28757334056E+03  0.42410914778E+03  0.00000000000E+00 0. -1.
<mgrwt>
<rscale>  0 0.65109119E+03</rscale>
<asrwt>0</asrwt>
<pdfrwt beam="1">0</pdfrwt>
<pdfrwt beam="2">  1        2 0.38538240E+00 0.65109119E+03</pdfrwt>
<totfact> 0.45149217E+00</totfact>
</mgrwt>
</event>
<event>
 5    1  0.2369161E-004  0.6442721E+03  0.7818608E-02  0.9817587E-01
         13   -1    0    0    0    0  0.00000000000E+00  0.00000000000E+00  0.10000000000E+04  0.10000000000E+04  0.00000000000E+00 0. -1.
          2   -1    0    0  501    0 -0.00000000000E+00 -0.00000000000E+00 -0.10377162625E+03  0.10377162625E+03  0.00000000000E+00 0. -1.
    9000006    2    1    2  501    0  0.00000000000E+00  0.00000000000E+00  0.89622837375E+03  0.11037716262E+04  0.64427207373E+03 0.  0.
         13    1    3    3    0    0 -0.19496414648E+03 -0.18058573816E+02  0.98728913639E+01  0.19604745467E+03  0.00000000000E+00 0. -1.
          4    1    3    3  501    0  0.19496414648E+03  0.18058573816E+02  0.88635548239E+03  0.90772417157E+03  0.00000000000E+00 0. -1.
<mgrwt>
<rscale>  0 0.64427207E+03</rscale>
<asrwt>0</asrwt>
<pdfrwt beam="1">0</pdfrwt>
<pdfrwt beam="2">  1        2 0.37735216E+00 0.64427207E+03</pdfrwt>
<totfact> 0.48366064E+00</totfact>
</mgrwt>
</event>
<event>
 5    1  0.2369161E-004  0.6251686E+03  0.7818608E-02  0.9854522E-01
         13   -1    0    0    0    0  0.00000000000E+00  0.00000000000E+00  0.10000000000E+04  0.10000000000E+04  0.00000000000E+00 0. -1.
          2   -1    0    0  501    0 -0.00000000000E+00 -0.00000000000E+00 -0.97708949807E+02  0.97708949807E+02  0.00000000000E+00 0. -1.
    9000006    2    1    2  501    0  0.00000000000E+00  0.00000000000E+00  0.90229105019E+03  0.10977089498E+04  0.62516861664E+03 0.  0.
         13    1    3    3    0    0 -0.71808716061E+02 -0.21009008611E+03  0.83749317313E+03  0.86642319396E+03  0.00000000000E+00 0. -1.
          2    1    3    3  501    0  0.71808716061E+02  0.21009008611E+03  0.64797877060E+02  0.23128575585E+03  0.00000000000E+00 0. -1.
<mgrwt>
<rscale>  0 0.62516862E+03</rscale>
<asrwt>0</asrwt>
<pdfrwt beam="1">0</pdfrwt>
<pdfrwt beam="2">  1        2 0.35530602E+00 0.62516862E+03</pdfrwt>
<totfact> 0.58307007E+00</totfact>
</mgrwt>
</event>
<event>
 5    1  0.2369161E-004  0.6430285E+03  0.7818608E-02  0.9819949E-01
         13   -1    0    0    0    0  0.00000000000E+00  0.00000000000E+00  0.10000000000E+04  0.10000000000E+04  0.00000000000E+00 0. -1.
          2   -1    0    0  501    0 -0.00000000000E+00 -0.00000000000E+00 -0.10337140036E+03  0.10337140036E+03  0.00000000000E+00 0. -1.
    9000006    2    1    2  501    0  0.00000000000E+00  0.00000000000E+00  0.89662859964E+03  0.11033714004E+04  0.64302846085E+03 0.  0.
         13    1    3    3    0    0 -0.95128255663E+02 -0.16505464065E+03  0.39033454956E+01  0.19054567833E+03  0.00000000000E+00 0. -1.
          2    1    3    3  501    0  0.95128255663E+02  0.16505464065E+03  0.89272525414E+03  0.91282572203E+03  0.00000000000E+00 0. -1.
<mgrwt>
<rscale>  0 0.64302846E+03</rscale>
<asrwt>0</asrwt>
<pdfrwt beam="1">0</pdfrwt>
<pdfrwt beam="2">  1        2 0.37589679E+00 0.64302846E+03</pdfrwt>
<totfact> 0.48970926E+00</totfact>
</mgrwt>
</event>
<event>
 5    1  0.2369161E-004  0.6472021E+03  0.7818608E-02  0.9812043E-01
         13   -1    0    0    0    0  0.00000000000E+00  0.00000000000E+00  0.10000000000E+04  0.10000000000E+04  0.00000000000E+00 0. -1.
          2   -1    0    0  501    0 -0.00000000000E+00 -0.00000000000E+00 -0.10471765317E+03  0.10471765317E+03  0.00000000000E+00 0. -1.
    9000006    2    1    2  501    0  0.00000000000E+00  0.00000000000E+00  0.89528234683E+03  0.11047176532E+04  0.64720214205E+03 0.  0.
         13    1    3    3    0    0  0.52028825510E+01 -0.18685444380E+03  0.89852471499E+03  0.91776266900E+03  0.00000000000E+00 0. -1.
          4    1    3    3  501    0 -0.52028825510E+01  0.18685444380E+03 -0.32423681592E+01  0.18695498417E+03  0.00000000000E+00 0. -1.
<mgrwt>
<rscale>  0 0.64720214E+03</rscale>
<asrwt>0</asrwt>
<pdfrwt beam="1">0</pdfrwt>
<pdfrwt beam="2">  1        2 0.38079227E+00 0.64720214E+03</pdfrwt>
<totfact> 0.46963307E+00</totfact>
</mgrwt>
</event>
<event>
 5    1  0.2369161E-004  0.5237017E+03  0.7818608E-02  0.1007771E+00
         13   -1    0    0    0    0  0.00000000000E+00  0.00000000000E+00  0.10000000000E+04  0.10000000000E+04  0.00000000000E+00 0. -1.
          2   -1    0    0  501    0 -0.00000000000E+00 -0.00000000000E+00 -0.68565859375E+02  0.68565859375E+02  0.00000000000E+00 0. -1.
    9000006    2    1    2  501    0  0.00000000000E+00  0.00000000000E+00  0.93143414062E+03  0.10685658594E+04  0.52370166842E+03 0.  0.
         13    1    3    3    0    0  0.14657728402E+03 -0.42521794100E+02  0.31570590346E+02  0.15585154904E+03  0.00000000000E+00 0. -1.
          4    1    3    3  501    0 -0.14657728402E+03  0.42521794100E+02  0.89986355028E+03  0.91271431033E+03  0.00000000000E+00 0. -1.
<mgrwt>
<rscale>  0 0.52370167E+03</rscale>
<asrwt>0</asrwt>
<pdfrwt beam="1">0</pdfrwt>
<pdfrwt beam="2">  1        2 0.24933092E+00 0.52370167E+03</pdfrwt>
<totfact> 0.14016992E+01</totfact>
</mgrwt>
</event>
<event>
 5    1  0.2369161E-004  0.6591197E+03  0.7818608E-02  0.9789816E-01
         13   -1    0    0    0    0  0.00000000000E+00  0.00000000000E+00  0.10000000000E+04  0.10000000000E+04  0.00000000000E+00 0. -1.
          2   -1    0    0  501    0 -0.00000000000E+00 -0.00000000000E+00 -0.10860970043E+03  0.10860970043E+03  0.00000000000E+00 0. -1.
    9000006    2    1    2  501    0  0.00000000000E+00  0.00000000000E+00  0.89139029957E+03  0.11086097004E+04  0.65911971728E+03 0.  0.
         13    1    3    3    0    0  0.10680593241E+03 -0.18392939183E+03  0.22282657590E+02  0.21385519682E+03  0.00000000000E+00 0. -1.
          2    1    3    3  501    0 -0.10680593241E+03  0.18392939183E+03  0.86910764198E+03  0.89475450361E+03  0.00000000000E+00 0. -1.
<mgrwt>
<rscale>  0 0.65911972E+03</rscale>
<asrwt>0</asrwt>
<pdfrwt beam="1">0</pdfrwt>
<pdfrwt beam="2">  1        2 0.39494520E+00 0.65911972E+03</pdfrwt>
<totfact> 0.41572107E+00</totfact>
</mgrwt>
</event>
<event>
 5    1  0.2369161E-004  0.6470647E+03  0.7818608E-02  0.9812303E-01
         13   -1    0    0    0    0  0.00000000000E+00  0.00000000000E+00  0.10000000000E+04  0.10000000000E+04  0.00000000000E+00 0. -1.
          2   -1    0    0  501    0 -0.00000000000E+00 -0.00000000000E+00 -0.10467318294E+03  0.10467318294E+03  0.00000000000E+00 0. -1.
    9000006    2    1    2  501    0  0.00000000000E+00  0.00000000000E+00  0.89532681706E+03  0.11046731829E+04  0.64706470447E+03 0.  0.
         13    1    3    3    0    0 -0.22628714531E+03 -0.13904683611E+03  0.13225362239E+03  0.29670004281E+03  0.00000000000E+00 0. -1.
          4    1    3    3  501    0  0.22628714531E+03  0.13904683611E+03  0.76307319467E+03  0.80797314014E+03  0.00000000000E+00 0. -1.
<mgrwt>
<rscale>  0 0.64706470E+03</rscale>
<asrwt>0</asrwt>
<pdfrwt beam="1">0</pdfrwt>
<pdfrwt beam="2">  1        2 0.38063056E+00 0.64706470E+03</pdfrwt>
<totfact> 0.47028408E+00</totfact>
</mgrwt>
</event>
<event>
 5    1  0.2369161E-004  0.6567488E+03  0.7818608E-02  0.9794197E-01
         13   -1    0    0    0    0  0.00000000000E+00  0.00000000000E+00  0.10000000000E+04  0.10000000000E+04  0.00000000000E+00 0. -1.
          2   -1    0    0  501    0 -0.00000000000E+00 -0.00000000000E+00 -0.10782973425E+03  0.10782973425E+03  0.00000000000E+00 0. -1.
    9000006    2    1    2  501    0  0.00000000000E+00  0.00000000000E+00  0.89217026575E+03  0.11078297343E+04  0.65674876248E+03 0.  0.
         13    1    3    3    0    0 -0.17539294672E+03  0.27582947819E+03  0.39314020339E+03  0.51127664363E+03  0.00000000000E+00 0. -1.
          4    1    3    3  501    0  0.17539294672E+03 -0.27582947819E+03  0.49903006235E+03  0.59655309062E+03  0.00000000000E+00 0. -1.
<mgrwt>
<rscale>  0 0.65674876E+03</rscale>
<asrwt>0</asrwt>
<pdfrwt beam="1">0</pdfrwt>
<pdfrwt beam="2">  1        2 0.39210895E+00 0.65674876E+03</pdfrwt>
<totfact> 0.42605331E+00</totfact>
</mgrwt>
</event>
<event>
 5    1  0.2369161E-004  0.6492852E+03  0.7818608E-02  0.9808121E-01
         13   -1    0    0    0    0  0.00000000000E+00  0.00000000000E+00  0.10000000000E+04  0.10000000000E+04  0.00000000000E+00 0. -1.
          2   -1    0    0  501    0 -0.00000000000E+00 -0.00000000000E+00 -0.10539281995E+03  0.10539281995E+03  0.00000000000E+00 0. -1.
    9000006    2    1    2  501    0  0.00000000000E+00  0.00000000000E+00  0.89460718005E+03  0.11053928200E+04  0.64928520683E+03 0.  0.
         13    1    3    3    0    0 -0.26712567320E+03 -0.47004234075E+02  0.14357826382E+03  0.30688799446E+03  0.00000000000E+00 0. -1.
          2    1    3    3  501    0  0.26712567320E+03  0.47004234075E+02  0.75102891623E+03  0.79850482549E+03  0.00000000000E+00 0. -1.
<mgrwt>
<rscale>  0 0.64928521E+03</rscale>
<asrwt>0</asrwt>
<pdfrwt beam="1">0</pdfrwt>
<pdfrwt beam="2">  1        2 0.38324743E+00 0.64928521E+03</pdfrwt>
<totfact> 0.45984923E+00</totfact>
</mgrwt>
</event>
<event>
 5    1  0.2369161E-004  0.6444255E+03  0.7818608E-02  0.9817296E-01
         13   -1    0    0    0    0  0.00000000000E+00  0.00000000000E+00  0.10000000000E+04  0.10000000000E+04  0.00000000000E+00 0. -1.
          2   -1    0    0  501    0 -0.00000000000E+00 -0.00000000000E+00 -0.10382105194E+03  0.10382105194E+03  0.00000000000E+00 0. -1.
    9000006    2    1    2  501    0  0.00000000000E+00  0.00000000000E+00  0.89617894806E+03  0.11038210519E+04  0.64442548658E+03 0.  0.
         13    1    3    3    0    0  0.13884222388E+03  0.23632646993E+03  0.73823718822E+03  0.78747794229E+03  0.00000000000E+00 0. -1.
          2    1    3    3  501    0 -0.13884222388E+03 -0.23632646993E+03  0.15794175985E+03  0.31634310965E+03  0.00000000000E+00 0. -1.
<mgrwt>
<rscale>  0 0.64442549E+03</rscale>
<asrwt>0</asrwt>
<pdfrwt beam="1">0</pdfrwt>
<pdfrwt beam="2">  1        2 0.37753189E+00 0.64442549E+03</pdfrwt>
<totfact> 0.48291841E+00</totfact>
</mgrwt>
</event>
<event>
 5    1  0.2369161E-004  0.6234793E+03  0.7818608E-02  0.9857857E-01
         13   -1    0    0    0    0  0.00000000000E+00  0.00000000000E+00  0.10000000000E+04  0.10000000000E+04  0.00000000000E+00 0. -1.
          2   -1    0    0  501    0 -0.00000000000E+00 -0.00000000000E+00 -0.97181607486E+02  0.97181607486E+02  0.00000000000E+00 0. -1.
    9000006    2    1    2  501    0  0.00000000000E+00  0.00000000000E+00  0.90281839251E+03  0.10971816075E+04  0.62347929392E+03 0.  0.
         13    1    3    3    0    0 -0.28695379313E+03  0.63606203421E+02  0.63423403417E+03  0.69902863933E+03  0.00000000000E+00 0. -1.
          4    1    3    3  501    0  0.28695379313E+03 -0.63606203421E+02  0.26858435834E+03  0.39815296816E+03  0.00000000000E+00 0. -1.
<mgrwt>
<rscale>  0 0.62347929E+03</rscale>
<asrwt>0</asrwt>
<pdfrwt beam="1">0</pdfrwt>
<pdfrwt beam="2">  1        2 0.35338841E+00 0.62347929E+03</pdfrwt>
<totfact> 0.59255301E+00</totfact>
</mgrwt>
</event>
<event>
 5    1  0.2369161E-004  0.6398109E+03  0.7818608E-02  0.9826088E-01
         13   -1    0    0    0    0  0.00000000000E+00  0.00000000000E+00  0.10000000000E+04  0.10000000000E+04  0.00000000000E+00 0. -1.
          2   -1    0    0  501    0 -0.00000000000E+00 -0.00000000000E+00 -0.10233948155E+03  0.10233948155E+03  0.00000000000E+00 0. -1.
    9000006    2    1    2  501    0  0.00000000000E+00  0.00000000000E+00  0.89766051845E+03  0.11023394815E+04  0.63981085189E+03 0.  0.
         13    1    3    3    0    0  0.69942951301E+02  0.23079800942E+03  0.86691209327E+02  0.25627154224E+03  0.00000000000E+00 0. -1.
          4    1    3    3  501    0 -0.69942951301E+02 -0.23079800942E+03  0.81096930912E+03  0.84606793931E+03  0.00000000000E+00 0. -1.
<mgrwt>
<rscale>  0 0.63981085E+03</rscale>
<asrwt>0</asrwt>
<pdfrwt beam="1">0</pdfrwt>
<pdfrwt beam="2">  1        2 0.37214435E+00 0.63981085E+03</pdfrwt>
<totfact> 0.50562605E+00</totfact>
</mgrwt>
</event>
<event>
 5    1  0.2369161E-004  0.5835114E+03  0.7818608E-02  0.9940218E-01
         13   -1    0    0    0    0  0.00000000000E+00  0.00000000000E+00  0.10000000000E+04  0.10000000000E+04  0.00000000000E+00 0. -1.
          2   -1    0    0  501    0 -0.00000000000E+00 -0.00000000000E+00 -0.85121402387E+02  0.85121402387E+02  0.00000000000E+00 0. -1.
    9000006    2    1    2  501    0  0.00000000000E+00  0.00000000000E+00  0.91487859761E+03  0.10851214024E+04  0.58351144766E+03 0.  0.
         13    1    3    3    0    0 -0.28370618572E+03 -0.32789931191E+02  0.56834970208E+03  0.63607056468E+03  0.00000000000E+00 0. -1.
          2    1    3    3  501    0  0.28370618572E+03  0.32789931191E+02  0.34652889554E+03  0.44905083771E+03  0.00000000000E+00 0. -1.
<mgrwt>
<rscale>  0 0.58351145E+03</rscale>
<asrwt>0</asrwt>
<pdfrwt beam="1">0</pdfrwt>
<pdfrwt beam="2">  1        2 0.30953303E+00 0.58351145E+03</pdfrwt>
<totfact> 0.85347906E+00</totfact>
</mgrwt>
</event>
<event>
 5    1  0.2369161E-004  0.6428419E+03  0.7818608E-02  0.9820304E-01
         13   -1    0    0    0    0  0.00000000000E+00  0.00000000000E+00  0.10000000000E+04  0.10000000000E+04  0.00000000000E+00 0. -1.
          2   -1    0    0  501    0 -0.00000000000E+00 -0.00000000000E+00 -0.10331142003E+03  0.10331142003E+03  0.00000000000E+00 0. -1.
    9000006    2    1    2  501    0  0.00000000000E+00  0.00000000000E+00  0.89668857997E+03  0.11033114200E+04  0.64284187802E+03 0.  0.
         13    1    3    3    0    0 -0.15836701443E+03  0.17734960335E+03  0.81955180432E+03  0.85334527188E+03  0.00000000000E+00 0. -1.
          2    1    3    3  501    0  0.15836701443E+03 -0.17734960335E+03  0.77136775643E+02  0.24996614816E+03  0.00000000000E+00 0. -1.
<mgrwt>
<rscale>  0 0.64284188E+03</rscale>
<asrwt>0</asrwt>
<pdfrwt beam="1">0</pdfrwt>
<pdfrwt beam="2">  1        2 0.37567868E+00 0.64284188E+03</pdfrwt>
<totfact> 0.49062167E+00</totfact>
</mgrwt>
</event>
<event>
 5    1  0.2369161E-004  0.6578547E+03  0.7818608E-02  0.9792151E-01
         13   -1    0    0    0    0  0.00000000000E+00  0.00000000000E+00  0.10000000000E+04  0.10000000000E+04  0.00000000000E+00 0. -1.
          2   -1    0    0  501    0 -0.00000000000E+00 -0.00000000000E+00 -0.10819321615E+03  0.10819321615E+03  0.00000000000E+00 0. -1.
    9000006    2    1    2  501    0  0.00000000000E+00  0.00000000000E+00  0.89180678385E+03  0.11081932162E+04  0.65785474430E+03 0.  0.
         13    1    3    3    0    0  0.20728320931E+03 -0.25063047739E+03  0.36318412157E+03  0.48752914909E+03  0.00000000000E+00 0. -1.
          2    1    3    3  501    0 -0.20728320931E+03  0.25063047739E+03  0.52862266228E+03  0.62066406706E+03  0.00000000000E+00 0. -1.
<mgrwt>
<rscale>  0 0.65785474E+03</rscale>
<asrwt>0</asrwt>
<pdfrwt beam="1">0</pdfrwt>
<pdfrwt beam="2">  1        2 0.39343071E+00 0.65785474E+03</pdfrwt>
<totfact> 0.42120963E+00</totfact>
</mgrwt>
</event>
<event>
 5    1  0.2369161E-004  0.6583550E+03  0.7818608E-02  0.9791227E-01
         13   -1    0    0    0    0  0.00000000000E+00  0.00000000000E+00  0.10000000000E+04  0.10000000000E+04  0.00000000000E+00 0. -1.
          2   -1    0    0  501    0 -0.00000000000E+00 -0.00000000000E+00 -0.10835783697E+03  0.10835783697E+03  0.00000000000E+00 0. -1.
    9000006    2    1    2  501    0  0.00000000000E+00  0.00000000000E+00  0.89164216303E+03  0.11083578370E+04  0.65835503178E+03 0.  0.
         13    1    3    3    0    0  0.11110972638E+03 -0.13822249498E+03 -0.21056256356E+02  0.17858946034E+03  0.00000000000E+00 0. -1.
          2    1    3    3  501    0 -0.11110972638E+03  0.13822249498E+03  0.91269841939E+03  0.92976837662E+03  0.00000000000E+00 0. -1.
<mgrwt>
<rscale>  0 0.65835503E+03</rscale>
<asrwt>0</asrwt>
<pdfrwt beam="1">0</pdfrwt>
<pdfrwt beam="2">  1        2 0.39402933E+00 0.65835503E+03</pdfrwt>
<totfact> 0.41903236E+00</totfact>
</mgrwt>
</event>
<event>
 5    1  0.2369161E-004  0.6397090E+03  0.7818608E-02  0.9826283E-01
         13   -1    0    0    0    0  0.00000000000E+00  0.00000000000E+00  0.10000000000E+04  0.10000000000E+04  0.00000000000E+00 0. -1.
          2   -1    0    0  501    0 -0.00000000000E+00 -0.00000000000E+00 -0.10230690129E+03  0.10230690129E+03  0.00000000000E+00 0. -1.
    9000006    2    1    2  501    0  0.00000000000E+00  0.00000000000E+00  0.89769309871E+03  0.11023069013E+04  0.63970900036E+03 0.  0.
         13    1    3    3    0    0  0.17362729209E+03 -0.19561098817E+03  0.13159813910E+03  0.29279372512E+03  0.00000000000E+00 0. -1.
          2    1    3    3  501    0 -0.17362729209E+03  0.19561098817E+03  0.76609495961E+03  0.80951317617E+03  0.00000000000E+00 0. -1.
<mgrwt>
<rscale>  0 0.63970900E+03</rscale>
<asrwt>0</asrwt>
<pdfrwt beam="1">0</pdfrwt>
<pdfrwt beam="2">  1        2 0.37202588E+00 0.63970900E+03</pdfrwt>
<totfact> 0.50613621E+00</totfact>
</mgrwt>
</event>
<event>
 5    1  0.2369161E-004  0.6480213E+03  0.7818608E-02  0.9810499E-01
         13   -1    0    0    0    0  0.00000000000E+00  0.00000000000E+00  0.10000000000E+04  0.10000000000E+04  0.00000000000E+00 0. -1.
          2   -1    0    0  501    0 -0.00000000000E+00 -0.00000000000E+00 -0.10498291123E+03  0.10498291123E+03  0.00000000000E+00 0. -1.
    9000006    2    1    2  501    0  0.00000000000E+00  0.00000000000E+00  0.89501708877E+03  0.11049829112E+04  0.64802133061E+03 0.  0.
         13    1    3    3    0    0 -0.16266911680E+02  0.12860610932E+03 -0.58838491621E+02  0.14235909478E+03  0.00000000000E+00 0. -1.
          4    1    3    3  501    0  0.16266911680E+02 -0.12860610932E+03  0.95385558039E+03  0.96262381646E+03  0.00000000000E+00 0. -1.
<mgrwt>
<rscale>  0 0.64802133E+03</rscale>
<asrwt>0</asrwt>
<pdfrwt beam="1">0</pdfrwt>
<pdfrwt beam="2">  1        2 0.38175685E+00 0.64802133E+03</pdfrwt>
<totfact> 0.46576688E+00</totfact>
</mgrwt>
</event>
<event>
 5    1  0.2369161E-004  0.6495478E+03  0.7818608E-02  0.9807628E-01
         13   -1    0    0    0    0  0.00000000000E+00  0.00000000000E+00  0.10000000000E+04  0.10000000000E+04  0.00000000000E+00 0. -1.
          2   -1    0    0  501    0 -0.00000000000E+00 -0.00000000000E+00 -0.10547807999E+03  0.10547807999E+03  0.00000000000E+00 0. -1.
    9000006    2    1    2  501    0  0.00000000000E+00  0.00000000000E+00  0.89452192001E+03  0.11054780800E+04  0.64954778113E+03 0.  0.
         13    1    3    3    0    0 -0.82119216513E+02  0.19407754900E+03  0.26682166101E+02  0.21241845197E+03  0.00000000000E+00 0. -1.
          2    1    3    3  501    0  0.82119216513E+02 -0.19407754900E+03  0.86783975391E+03  0.89305962803E+03  0.00000000000E+00 0. -1.
<mgrwt>
<rscale>  0 0.64954778E+03</rscale>
<asrwt>0</asrwt>
<pdfrwt beam="1">0</pdfrwt>
<pdfrwt beam="2">  1        2 0.38355746E+00 0.64954778E+03</pdfrwt>
<totfact> 0.45862698E+00</totfact>
</mgrwt>
</event>
<event>
 5    1  0.2369161E-004  0.6443911E+03  0.7818608E-02  0.9817361E-01
         13   -1    0    0    0    0  0.00000000000E+00  0.00000000000E+00  0.10000000000E+04  0.10000000000E+04  0.00000000000E+00 0. -1.
          2   -1    0    0  501    0 -0.00000000000E+00 -0.00000000000E+00 -0.10380998312E+03  0.10380998312E+03  0.00000000000E+00 0. -1.
    9000006    2    1    2  501    0  0.00000000000E+00  0.00000000000E+00  0.89619001688E+03  0.11038099831E+04  0.64439113315E+03 0.  0.
         13    1    3    3    0    0  0.14883409845E+03  0.28397303936E+03  0.39344928492E+03  0.50753779736E+03  0.00000000000E+00 0. -1.
          2    1    3    3  501    0 -0.14883409845E+03 -0.28397303936E+03  0.50274073196E+03  0.59627218576E+03  0.00000000000E+00 0. -1.
<mgrwt>
<rscale>  0 0.64439113E+03</rscale>
<asrwt>0</asrwt>
<pdfrwt beam="1">0</pdfrwt>
<pdfrwt beam="2">  1        2 0.37749164E+00 0.64439113E+03</pdfrwt>
<totfact> 0.48308454E+00</totfact>
</mgrwt>
</event>
<event>
 5    1  0.2369161E-004  0.6473436E+03  0.7818608E-02  0.9811777E-01
         13   -1    0    0    0    0  0.00000000000E+00  0.00000000000E+00  0.10000000000E+04  0.10000000000E+04  0.00000000000E+00 0. -1.
          2   -1    0    0  501    0 -0.00000000000E+00 -0.00000000000E+00 -0.10476343666E+03  0.10476343666E+03  0.00000000000E+00 0. -1.
    9000006    2    1    2  501    0  0.00000000000E+00  0.00000000000E+00  0.89523656334E+03  0.11047634367E+04  0.64734360786E+03 0.  0.
         13    1    3    3    0    0 -0.12237220382E+03  0.17855763579E+02  0.95809072504E+03  0.96603914101E+03  0.00000000000E+00 0. -1.
          4    1    3    3  501    0  0.12237220382E+03 -0.17855763579E+02 -0.62854161697E+02  0.13872429565E+03  0.00000000000E+00 0. -1.
<mgrwt>
<rscale>  0 0.64734361E+03</rscale>
<asrwt>0</asrwt>
<pdfrwt beam="1">0</pdfrwt>
<pdfrwt beam="2">  1        2 0.38095875E+00 0.64734361E+03</pdfrwt>
<totfact> 0.46896369E+00</totfact>
</mgrwt>
</event>
<event>
 5    1  0.2369161E-004  0.6433696E+03  0.7818608E-02  0.9819301E-01
         13   -1    0    0    0    0  0.00000000000E+00  0.00000000000E+00  0.10000000000E+04  0.10000000000E+04  0.00000000000E+00 0. -1.
          2   -1    0    0  501    0 -0.00000000000E+00 -0.00000000000E+00 -0.10348109967E+03  0.10348109967E+03  0.00000000000E+00 0. -1.
    9000006    2    1    2  501    0  0.00000000000E+00  0.00000000000E+00  0.89651890033E+03  0.11034810997E+04  0.64336956618E+03 0.  0.
         13    1    3    3    0    0 -0.31667447599E+03  0.16991125191E+02  0.35574132558E+03  0.47657456164E+03  0.00000000000E+00 0. -1.
          2    1    3    3  501    0  0.31667447599E+03 -0.16991125191E+02  0.54077757475E+03  0.62690653803E+03  0.00000000000E+00 0. -1.
<mgrwt>
<rscale>  0 0.64336957E+03</rscale>
<asrwt>0</asrwt>
<pdfrwt beam="1">0</pdfrwt>
<pdfrwt beam="2">  1        2 0.37629570E+00 0.64336957E+03</pdfrwt>
<totfact> 0.48804454E+00</totfact>
</mgrwt>
</event>
<event>
 5    1  0.2369161E-004  0.6665571E+03  0.7818608E-02  0.9776198E-01
         13   -1    0    0    0    0  0.00000000000E+00  0.00000000000E+00  0.10000000000E+04  0.10000000000E+04  0.00000000000E+00 0. -1.
          2   -1    0    0  501    0 -0.00000000000E+00 -0.00000000000E+00 -0.11107459367E+03  0.11107459367E+03  0.00000000000E+00 0. -1.
    9000006    2    1    2  501    0  0.00000000000E+00  0.00000000000E+00  0.88892540633E+03  0.11110745937E+04  0.66655710534E+03 0.  0.
         13    1    3    3    0    0  0.15447966342E+02  0.27527091146E+03  0.13234137239E+03  0.30582176706E+03  0.00000000000E+00 0. -1.
          2    1    3    3  501    0 -0.15447966342E+02 -0.27527091146E+03  0.75658403394E+03  0.80525282661E+03  0.00000000000E+00 0. -1.
<mgrwt>
<rscale>  0 0.66655711E+03</rscale>
<asrwt>0</asrwt>
<pdfrwt beam="1">0</pdfrwt>
<pdfrwt beam="2">  1        2 0.40390847E+00 0.66655711E+03</pdfrwt>
<totfact> 0.38453507E+00</totfact>
</mgrwt>
</event>
<event>
 5    1  0.2369161E-004  0.6592489E+03  0.7818608E-02  0.9789577E-01
         13   -1    0    0    0    0  0.00000000000E+00  0.00000000000E+00  0.10000000000E+04  0.10000000000E+04  0.00000000000E+00 0. -1.
          2   -1    0    0  501    0 -0.00000000000E+00 -0.00000000000E+00 -0.10865228537E+03  0.10865228537E+03  0.00000000000E+00 0. -1.
    9000006    2    1    2  501    0  0.00000000000E+00  0.00000000000E+00  0.89134771463E+03  0.11086522854E+04  0.65924892226E+03 0.  0.
         13    1    3    3    0    0 -0.13126649973E+03  0.23496448833E+03  0.12565272020E+03  0.29703166635E+03  0.00000000000E+00 0. -1.
          2    1    3    3  501    0  0.13126649973E+03 -0.23496448833E+03  0.76569499443E+03  0.81162061902E+03  0.00000000000E+00 0. -1.
<mgrwt>
<rscale>  0 0.65924892E+03</rscale>
<asrwt>0</asrwt>
<pdfrwt beam="1">0</pdfrwt>
<pdfrwt beam="2">  1        2 0.39510005E+00 0.65924892E+03</pdfrwt>
<totfact> 0.41516354E+00</totfact>
</mgrwt>
</event>
<event>
 5    1  0.2369161E-004  0.6536954E+03  0.7818608E-02  0.9799870E-01
         13   -1    0    0    0    0  0.00000000000E+00  0.00000000000E+00  0.10000000000E+04  0.10000000000E+04  0.00000000000E+00 0. -1.
          2   -1    0    0  501    0 -0.00000000000E+00 -0.00000000000E+00 -0.10682942198E+03  0.10682942198E+03  0.00000000000E+00 0. -1.
    9000006    2    1    2  501    0  0.00000000000E+00  0.00000000000E+00  0.89317057802E+03  0.11068294220E+04  0.65369540913E+03 0.  0.
         13    1    3    3    0    0 -0.12126985130E+03 -0.25915831653E+03  0.71408767257E+03  0.76927928217E+03  0.00000000000E+00 0. -1.
          4    1    3    3  501    0  0.12126985130E+03  0.25915831653E+03  0.17908290545E+03  0.33755013981E+03  0.00000000000E+00 0. -1.
<mgrwt>
<rscale>  0 0.65369541E+03</rscale>
<asrwt>0</asrwt>
<pdfrwt beam="1">0</pdfrwt>
<pdfrwt beam="2">  1        2 0.38847144E+00 0.65369541E+03</pdfrwt>
<totfact> 0.43964404E+00</totfact>
</mgrwt>
</event>
<event>
 5    1  0.2369161E-004  0.6537982E+03  0.7818608E-02  0.9799678E-01
         13   -1    0    0    0    0  0.00000000000E+00  0.00000000000E+00  0.10000000000E+04  0.10000000000E+04  0.00000000000E+00 0. -1.
          2   -1    0    0  501    0 -0.00000000000E+00 -0.00000000000E+00 -0.10686303401E+03  0.10686303401E+03  0.00000000000E+00 0. -1.
    9000006    2    1    2  501    0  0.00000000000E+00  0.00000000000E+00  0.89313696599E+03  0.11068630340E+04  0.65379823802E+03 0.  0.
         13    1    3    3    0    0  0.29853296527E+03  0.11283956507E+03  0.32675744457E+03  0.45675499600E+03  0.00000000000E+00 0. -1.
          4    1    3    3  501    0 -0.29853296527E+03 -0.11283956507E+03  0.56637952142E+03  0.65010803801E+03  0.00000000000E+00 0. -1.
<mgrwt>
<rscale>  0 0.65379824E+03</rscale>
<asrwt>0</asrwt>
<pdfrwt beam="1">0</pdfrwt>
<pdfrwt beam="2">  1        2 0.38859367E+00 0.65379824E+03</pdfrwt>
<totfact> 0.43918108E+00</totfact>
</mgrwt>
</event>
<event>
 5    1  0.2369161E-004  0.6394225E+03  0.7818608E-02  0.9826832E-01
         13   -1    0    0    0    0  0.00000000000E+00  0.00000000000E+00  0.10000000000E+04  0.10000000000E+04  0.00000000000E+00 0. -1.
          2   -1    0    0  501    0 -0.00000000000E+00 -0.00000000000E+00 -0.10221527403E+03  0.10221527403E+03  0.00000000000E+00 0. -1.
    9000006    2    1    2  501    0  0.00000000000E+00  0.00000000000E+00  0.89778472597E+03  0.11022152740E+04  0.63942247075E+03 0.  0.
         13    1    3    3    0    0  0.11335058989E+03 -0.27645907987E+03  0.25282727414E+03  0.39140721713E+03  0.00000000000E+00 0. -1.
          4    1    3    3  501    0 -0.11335058989E+03  0.27645907987E+03  0.64495745184E+03  0.71080805690E+03  0.00000000000E+00 0. -1.
<mgrwt>
<rscale>  0 0.63942247E+03</rscale>
<asrwt>0</asrwt>
<pdfrwt beam="1">0</pdfrwt>
<pdfrwt beam="2">  1        2 0.37169269E+00 0.63942247E+03</pdfrwt>
<totfact> 0.50757347E+00</totfact>
</mgrwt>
</event>
<event>
 5    1  0.2369161E-004  0.6504513E+03  0.7818608E-02  0.9805933E-01
         13   -1    0    0    0    0  0.00000000000E+00  0.00000000000E+00  0.10000000000E+04  0.10000000000E+04  0.00000000000E+00 0. -1.
          2   -1    0    0  501    0 -0.00000000000E+00 -0.00000000000E+00 -0.10577173912E+03  0.10577173912E+03  0.00000000000E+00 0. -1.
    9000006    2    1    2  501    0  0.00000000000E+00  0.00000000000E+00  0.89422826088E+03  0.11057717391E+04  0.65045134829E+03 0.  0.
         13    1    3    3    0    0  0.25429910974E+03  0.17477091294E+03  0.62180031720E+03  0.69415311257E+03  0.00000000000E+00 0. -1.
          2    1    3    3  501    0 -0.25429910974E+03 -0.17477091294E+03  0.27242794368E+03  0.41161862655E+03  0.00000000000E+00 0. -1.
<mgrwt>
<rscale>  0 0.65045135E+03</rscale>
<asrwt>0</asrwt>
<pdfrwt beam="1">0</pdfrwt>
<pdfrwt beam="2">  1        2 0.38462532E+00 0.65045135E+03</pdfrwt>
<totfact> 0.45443976E+00</totfact>
</mgrwt>
</event>
<event>
 5    1  0.2369161E-004  0.6490364E+03  0.7818608E-02  0.9808589E-01
         13   -1    0    0    0    0  0.00000000000E+00  0.00000000000E+00  0.10000000000E+04  0.10000000000E+04  0.00000000000E+00 0. -1.
          2   -1    0    0  501    0 -0.00000000000E+00 -0.00000000000E+00 -0.10531206373E+03  0.10531206373E+03  0.00000000000E+00 0. -1.
    9000006    2    1    2  501    0  0.00000000000E+00  0.00000000000E+00  0.89468793627E+03  0.11053120637E+04  0.64903640493E+03 0.  0.
         13    1    3    3    0    0  0.22753232199E+03  0.21418925128E+03  0.29825496627E+03  0.43197687186E+03  0.00000000000E+00 0. -1.
          4    1    3    3  501    0 -0.22753232199E+03 -0.21418925128E+03  0.59643297000E+03  0.67333519187E+03  0.00000000000E+00 0. -1.
<mgrwt>
<rscale>  0 0.64903640E+03</rscale>
<asrwt>0</asrwt>
<pdfrwt beam="1">0</pdfrwt>
<pdfrwt beam="2">  1        2 0.38295377E+00 0.64903640E+03</pdfrwt>
<totfact> 0.46100963E+00</totfact>
</mgrwt>
</event>
<event>
 5    1  0.2369161E-004  0.6484282E+03  0.7818608E-02  0.9809733E-01
         13   -1    0    0    0    0  0.00000000000E+00  0.00000000000E+00  0.10000000000E+04  0.10000000000E+04  0.00000000000E+00 0. -1.
          2   -1    0    0  501    0 -0.00000000000E+00 -0.00000000000E+00 -0.10511478988E+03  0.10511478988E+03  0.00000000000E+00 0. -1.
    9000006    2    1    2  501    0  0.00000000000E+00  0.00000000000E+00  0.89488521012E+03  0.11051147899E+04  0.64842822234E+03 0.  0.
         13    1    3    3    0    0  0.29461022248E+03  0.89410956636E+02  0.27426307400E+03  0.41232236917E+03  0.00000000000E+00 0. -1.
          2    1    3    3  501    0 -0.29461022248E+03 -0.89410956636E+02  0.62062213612E+03  0.69279242071E+03  0.00000000000E+00 0. -1.
<mgrwt>
<rscale>  0 0.64842822E+03</rscale>
<asrwt>0</asrwt>
<pdfrwt beam="1">0</pdfrwt>
<pdfrwt beam="2">  1        2 0.38223641E+00 0.64842822E+03</pdfrwt>
<totfact> 0.46385550E+00</totfact>
</mgrwt>
</event>
<event>
 5    1  0.2369161E-004  0.6254255E+03  0.7818608E-02  0.9854017E-01
         13   -1    0    0    0    0  0.00000000000E+00  0.00000000000E+00  0.10000000000E+04  0.10000000000E+04  0.00000000000E+00 0. -1.
          2   -1    0    0  501    0 -0.00000000000E+00 -0.00000000000E+00 -0.97789251237E+02  0.97789251237E+02  0.00000000000E+00 0. -1.
    9000006    2    1    2  501    0  0.00000000000E+00  0.00000000000E+00  0.90221074876E+03  0.10977892512E+04  0.62542545915E+03 0.  0.
         13    1    3    3    0    0 -0.18696229345E+03  0.36424640199E+02  0.15786196317E+02  0.19113047266E+03  0.00000000000E+00 0. -1.
          4    1    3    3  501    0  0.18696229345E+03 -0.36424640199E+02  0.88642455245E+03  0.90665877857E+03  0.00000000000E+00 0. -1.
<mgrwt>
<rscale>  0 0.62542546E+03</rscale>
<asrwt>0</asrwt>
<pdfrwt beam="1">0</pdfrwt>
<pdfrwt beam="2">  1        2 0.35559803E+00 0.62542546E+03</pdfrwt>
<totfact> 0.58163847E+00</totfact>
</mgrwt>
</event>
<event>
 5    1  0.2369161E-004  0.6405688E+03  0.7818608E-02  0.9824639E-01
         13   -1    0    0    0    0  0.00000000000E+00  0.00000000000E+00  0.10000000000E+04  0.10000000000E+04  0.00000000000E+00 0. -1.
          2   -1    0    0  501    0 -0.00000000000E+00 -0.00000000000E+00 -0.10258210635E+03  0.10258210635E+03  0.00000000000E+00 0. -1.
    9000006    2    1    2  501    0  0.00000000000E+00  0.00000000000E+00  0.89741789365E+03  0.11025821064E+04  0.64056882956E+03 0.  0.
         13    1    3    3    0    0  0.27403566607E+03 -0.22472668448E+02  0.16597464627E+03  0.32116685743E+03  0.00000000000E+00 0. -1.
          2    1    3    3  501    0 -0.27403566607E+03  0.22472668448E+02  0.73144324737E+03  0.78141524892E+03  0.00000000000E+00 0. -1.
<mgrwt>
<rscale>  0 0.64056883E+03</rscale>
<asrwt>0</asrwt>
<pdfrwt beam="1">0</pdfrwt>
<pdfrwt beam="2">  1        2 0.37302663E+00 0.64056883E+03</pdfrwt>
<totfact> 0.50184171E+00</totfact>
</mgrwt>
</event>
<event>
 5    1  0.2369161E-004  0.6497447E+03  0.7818608E-02  0.9807258E-01
         13   -1    0    0    0    0  0.00000000000E+00  0.00000000000E+00  0.10000000000E+04  0.10000000000E+04  0.00000000000E+00 0. -1.
          2   -1    0    0  501    0 -0.00000000000E+00 -0.00000000000E+00 -0.10554203950E+03  0.10554203950E+03  0.00000000000E+00 0. -1.
    9000006    2    1    2  501    0  0.00000000000E+00  0.00000000000E+00  0.89445796050E+03  0.11055420395E+04  0.64974468679E+03 0.  0.
         13    1    3    3    0    0 -0.30284173750E+03 -0.22856246116E+02  0.64350383525E+03  0.71157059519E+03  0.00000000000E+00 0. -1.
          2    1    3    3  501    0  0.30284173750E+03  0.22856246116E+02  0.25095412525E+03  0.39397144431E+03  0.00000000000E+00 0. -1.
<mgrwt>
<rscale>  0 0.64974469E+03</rscale>
<asrwt>0</asrwt>
<pdfrwt beam="1">0</pdfrwt>
<pdfrwt beam="2">  1        2 0.38379004E+00 0.64974469E+03</pdfrwt>
<totfact> 0.45771203E+00</totfact>
</mgrwt>
</event>
<event>
 5    1  0.2369161E-004  0.6424378E+03  0.7818608E-02  0.9821073E-01
         13   -1    0    0    0    0  0.00000000000E+00  0.00000000000E+00  0.10000000000E+04  0.10000000000E+04  0.00000000000E+00 0. -1.
          2   -1    0    0  501    0 -0.00000000000E+00 -0.00000000000E+00 -0.10318159131E+03  0.10318159131E+03  0.00000000000E+00 0. -1.
    9000006    2    1    2  501    0  0.00000000000E+00  0.00000000000E+00  0.89681840869E+03  0.11031815913E+04  0.64243782987E+03 0.  0.
         13    1    3    3    0    0  0.59651195517E+02 -0.31562952067E+03  0.45039094560E+03  0.55320182874E+03  0.00000000000E+00 0. -1.
          2    1    3    3  501    0 -0.59651195517E+02  0.31562952067E+03  0.44642746309E+03  0.54997976257E+03  0.00000000000E+00 0. -1.
<mgrwt>
<rscale>  0 0.64243783E+03</rscale>
<asrwt>0</asrwt>
<pdfrwt beam="1">0</pdfrwt>
<pdfrwt beam="2">  1        2 0.37520658E+00 0.64243783E+03</pdfrwt>
<totfact> 0.49260203E+00</totfact>
</mgrwt>
</event>
<event>
 5    1  0.2369161E-004  0.6300853E+03  0.7818608E-02  0.9844882E-01
         13   -1    0    0    0    0  0.00000000000E+00  0.00000000000E+00  0.10000000000E+04  0.10000000000E+04  0.00000000000E+00 0. -1.
          2   -1    0    0  501    0 -0.00000000000E+00 -0.00000000000E+00 -0.99251881597E+02  0.99251881597E+02  0.00000000000E+00 0. -1.
    9000006    2    1    2  501    0  0.00000000000E+00  0.00000000000E+00  0.90074811840E+03  0.10992518816E+04  0.63008533263E+03 0.  0.
         13    1    3    3    0    0 -0.20519044539E+03  0.22437159417E+03  0.59430316264E+03  0.66756421434E+03  0.00000000000E+00 0. -1.
          2    1    3    3  501    0  0.20519044539E+03 -0.22437159417E+03  0.30644495576E+03  0.43168766725E+03  0.00000000000E+00 0. -1.
<mgrwt>
<rscale>  0 0.63008533E+03</rscale>
<asrwt>0</asrwt>
<pdfrwt beam="1">0</pdfrwt>
<pdfrwt beam="2">  1        2 0.36091669E+00 0.63008533E+03</pdfrwt>
<totfact> 0.55612728E+00</totfact>
</mgrwt>
</event>
<event>
 5    1  0.2369161E-004  0.6489927E+03  0.7818608E-02  0.9808671E-01
         13   -1    0    0    0    0  0.00000000000E+00  0.00000000000E+00  0.10000000000E+04  0.10000000000E+04  0.00000000000E+00 0. -1.
          2   -1    0    0  501    0 -0.00000000000E+00 -0.00000000000E+00 -0.10529786866E+03  0.10529786866E+03  0.00000000000E+00 0. -1.
    9000006    2    1    2  501    0  0.00000000000E+00  0.00000000000E+00  0.89470213134E+03  0.11052978687E+04  0.64899266148E+03 0.  0.
         13    1    3    3    0    0 -0.21260558573E+03  0.95371559429E+02  0.83196843145E+03  0.86398399312E+03  0.00000000000E+00 0. -1.
          2    1    3    3  501    0  0.21260558573E+03 -0.95371559429E+02  0.62733699886E+02  0.24131387555E+03  0.00000000000E+00 0. -1.
<mgrwt>
<rscale>  0 0.64899266E+03</rscale>
<asrwt>0</asrwt>
<pdfrwt beam="1">0</pdfrwt>
<pdfrwt beam="2">  1        2 0.38290215E+00 0.64899266E+03</pdfrwt>
<totfact> 0.46121388E+00</totfact>
</mgrwt>
</event>
<event>
 5    1  0.2369161E-004  0.6458237E+03  0.7818608E-02  0.9814647E-01
         13   -1    0    0    0    0  0.00000000000E+00  0.00000000000E+00  0.10000000000E+04  0.10000000000E+04  0.00000000000E+00 0. -1.
          2   -1    0    0  501    0 -0.00000000000E+00 -0.00000000000E+00 -0.10427204931E+03  0.10427204931E+03  0.00000000000E+00 0. -1.
    9000006    2    1    2  501    0  0.00000000000E+00  0.00000000000E+00  0.89572795069E+03  0.11042720493E+04  0.64582365800E+03 0.  0.
         13    1    3    3    0    0 -0.91529459814E+02 -0.11466331504E+03 -0.43991548929E+02  0.15316845043E+03  0.00000000000E+00 0. -1.
          2    1    3    3  501    0  0.91529459814E+02  0.11466331504E+03  0.93971949962E+03  0.95110359888E+03  0.00000000000E+00 0. -1.
<mgrwt>
<rscale>  0 0.64582366E+03</rscale>
<asrwt>0</asrwt>
<pdfrwt beam="1">0</pdfrwt>
<pdfrwt beam="2">  1        2 0.37917189E+00 0.64582366E+03</pdfrwt>
<totfact> 0.47619360E+00</totfact>
</mgrwt>
</event>
<event>
 5    1  0.2369161E-004  0.6573624E+03  0.7818608E-02  0.9793061E-01
         13   -1    0    0    0    0  0.00000000000E+00  0.00000000000E+00  0.10000000000E+04  0.10000000000E+04  0.00000000000E+00 0. -1.
          2   -1    0    0  501    0 -0.00000000000E+00 -0.00000000000E+00 -0.10803131501E+03  0.10803131501E+03  0.00000000000E+00 0. -1.
    9000006    2    1    2  501    0  0.00000000000E+00  0.00000000000E+00  0.89196868499E+03  0.11080313150E+04  0.65736235065E+03 0.  0.
         13    1    3    3    0    0 -0.57338018157E+02 -0.12261835285E+03 -0.58867305287E+02  0.14760849709E+03  0.00000000000E+00 0. -1.
          4    1    3    3  501    0  0.57338018157E+02  0.12261835285E+03  0.95083599027E+03  0.96042281792E+03  0.00000000000E+00 0. -1.
<mgrwt>
<rscale>  0 0.65736235E+03</rscale>
<asrwt>0</asrwt>
<pdfrwt beam="1">0</pdfrwt>
<pdfrwt beam="2">  1        2 0.39284197E+00 0.65736235E+03</pdfrwt>
<totfact> 0.42336092E+00</totfact>
</mgrwt>
</event>
<event>
 5    1  0.2369161E-004  0.6594020E+03  0.7818608E-02  0.9789295E-01
         13   -1    0    0    0    0  0.00000000000E+00  0.00000000000E+00  0.10000000000E+04  0.10000000000E+04  0.00000000000E+00 0. -1.
          2   -1    0    0  501    0 -0.00000000000E+00 -0.00000000000E+00 -0.10870274378E+03  0.10870274378E+03  0.00000000000E+00 0. -1.
    9000006    2    1    2  501    0  0.00000000000E+00  0.00000000000E+00  0.89129725622E+03  0.11087027438E+04  0.65940198294E+03 0.  0.
         13    1    3    3    0    0  0.16901785496E+03 -0.27099876246E+02 -0.28133521624E+02  0.17347314959E+03  0.00000000000E+00 0. -1.
          2    1    3    3  501    0 -0.16901785496E+03  0.27099876246E+02  0.91943077785E+03  0.93522959419E+03  0.00000000000E+00 0. -1.
<mgrwt>
<rscale>  0 0.65940198E+03</rscale>
<asrwt>0</asrwt>
<pdfrwt beam="1">0</pdfrwt>
<pdfrwt beam="2">  1        2 0.39528354E+00 0.65940198E+03</pdfrwt>
<totfact> 0.41450379E+00</totfact>
</mgrwt>
</event>
<event>
 5    1  0.2369161E-004  0.6487925E+03  0.7818608E-02  0.9809048E-01
         13   -1    0    0    0    0  0.00000000000E+00  0.00000000000E+00  0.10000000000E+04  0.10000000000E+04  0.00000000000E+00 0. -1.
          2   -1    0    0  501    0 -0.00000000000E+00 -0.00000000000E+00 -0.10523293625E+03  0.10523293625E+03  0.00000000000E+00 0. -1.
    9000006    2    1    2  501    0  0.00000000000E+00  0.00000000000E+00  0.89476706375E+03  0.11052329363E+04  0.64879252848E+03 0.  0.
         13    1    3    3    0    0  0.32211289508E+03  0.38346146244E+02  0.44328368414E+03  0.54929734091E+03  0.00000000000E+00 0. -1.
          2    1    3    3  501    0 -0.32211289508E+03 -0.38346146244E+02  0.45148337961E+03  0.55593559534E+03  0.00000000000E+00 0. -1.
<mgrwt>
<rscale>  0 0.64879253E+03</rscale>
<asrwt>0</asrwt>
<pdfrwt beam="1">0</pdfrwt>
<pdfrwt beam="2">  1        2 0.38266603E+00 0.64879253E+03</pdfrwt>
<totfact> 0.46214922E+00</totfact>
</mgrwt>
</event>
<event>
 5    1  0.2369161E-004  0.6620302E+03  0.7818608E-02  0.9784464E-01
         13   -1    0    0    0    0  0.00000000000E+00  0.00000000000E+00  0.10000000000E+04  0.10000000000E+04  0.00000000000E+00 0. -1.
          2   -1    0    0  501    0 -0.00000000000E+00 -0.00000000000E+00 -0.10957099811E+03  0.10957099811E+03  0.00000000000E+00 0. -1.
    9000006    2    1    2  501    0  0.00000000000E+00  0.00000000000E+00  0.89042900189E+03  0.11095709981E+04  0.66203020508E+03 0.  0.
         13    1    3    3    0    0  0.14664229241E+03 -0.24503040574E+03  0.16462807572E+03  0.32961532880E+03  0.00000000000E+00 0. -1.
          4    1    3    3  501    0 -0.14664229241E+03  0.24503040574E+03  0.72580092617E+03  0.77995566931E+03  0.00000000000E+00 0. -1.
<mgrwt>
<rscale>  0 0.66203021E+03</rscale>
<asrwt>0</asrwt>
<pdfrwt beam="1">0</pdfrwt>
<pdfrwt beam="2">  1        2 0.39844083E+00 0.66203021E+03</pdfrwt>
<totfact> 0.40329821E+00</totfact>
</mgrwt>
</event>
<event>
 5    1  0.2369161E-004  0.6569386E+03  0.7818608E-02  0.9793846E-01
         13   -1    0    0    0    0  0.00000000000E+00  0.00000000000E+00  0.10000000000E+04  0.10000000000E+04  0.00000000000E+00 0. -1.
          2   -1    0    0  501    0 -0.00000000000E+00 -0.00000000000E+00 -0.10789207617E+03  0.10789207617E+03  0.00000000000E+00 0. -1.
    9000006    2    1    2  501    0  0.00000000000E+00  0.00000000000E+00  0.89210792383E+03  0.11078920762E+04  0.65693858517E+03 0.  0.
         13    1    3    3    0    0 -0.30596831631E+02  0.27646311911E+03  0.74069537644E+03  0.79120014094E+03  0.00000000000E+00 0. -1.
          4    1    3    3  501    0  0.30596831631E+02 -0.27646311911E+03  0.15141254739E+03  0.31669193523E+03  0.00000000000E+00 0. -1.
<mgrwt>
<rscale>  0 0.65693859E+03</rscale>
<asrwt>0</asrwt>
<pdfrwt beam="1">0</pdfrwt>
<pdfrwt beam="2">  1        2 0.39233565E+00 0.65693859E+03</pdfrwt>
<totfact> 0.42521900E+00</totfact>
</mgrwt>
</event>
<event>
 5    1  0.2369161E-004  0.6449043E+03  0.7818608E-02  0.9816388E-01
         13   -1    0    0    0    0  0.00000000000E+00  0.00000000000E+00  0.10000000000E+04  0.10000000000E+04  0.00000000000E+00 0. -1.
          2   -1    0    0  501    0 -0.00000000000E+00 -0.00000000000E+00 -0.10397538246E+03  0.10397538246E+03  0.00000000000E+00 0. -1.
    9000006    2    1    2  501    0  0.00000000000E+00  0.00000000000E+00  0.89602461754E+03  0.11039753825E+04  0.64490427959E+03 0.  0.
         13    1    3    3    0    0 -0.98473229714E+02 -0.60300551450E+02 -0.67369952316E+02  0.13368561609E+03  0.00000000000E+00 0. -1.
          2    1    3    3  501    0  0.98473229714E+02  0.60300551450E+02  0.96339456986E+03  0.97028976636E+03  0.00000000000E+00 0. -1.
<mgrwt>
<rscale>  0 0.64490428E+03</rscale>
<asrwt>0</asrwt>
<pdfrwt beam="1">0</pdfrwt>
<pdfrwt beam="2">  1        2 0.37809310E+00 0.64490428E+03</pdfrwt>
<totfact> 0.48060751E+00</totfact>
</mgrwt>
</event>
<event>
 5    1  0.2369161E-004  0.6459216E+03  0.7818608E-02  0.9814462E-01
         13   -1    0    0    0    0  0.00000000000E+00  0.00000000000E+00  0.10000000000E+04  0.10000000000E+04  0.00000000000E+00 0. -1.
          2   -1    0    0  501    0 -0.00000000000E+00 -0.00000000000E+00 -0.10430366938E+03  0.10430366938E+03  0.00000000000E+00 0. -1.
    9000006    2    1    2  501    0  0.00000000000E+00  0.00000000000E+00  0.89569633062E+03  0.11043036694E+04  0.64592157228E+03 0.  0.
         13    1    3    3    0    0 -0.28766866725E+03  0.14091238867E+03  0.37747954852E+03  0.49507612844E+03  0.00000000000E+00 0. -1.
          4    1    3    3  501    0  0.28766866725E+03 -0.14091238867E+03  0.51821678210E+03  0.60922754095E+03  0.00000000000E+00 0. -1.
<mgrwt>
<rscale>  0 0.64592157E+03</rscale>
<asrwt>0</asrwt>
<pdfrwt beam="1">0</pdfrwt>
<pdfrwt beam="2">  1        2 0.37928687E+00 0.64592157E+03</pdfrwt>
<totfact> 0.47572533E+00</totfact>
</mgrwt>
</event>
<event>
 5    1  0.2369161E-004  0.6231126E+03  0.7818608E-02  0.9858582E-01
         13   -1    0    0    0    0  0.00000000000E+00  0.00000000000E+00  0.10000000000E+04  0.10000000000E+04  0.00000000000E+00 0. -1.
          4   -1    0    0  501    0 -0.00000000000E+00 -0.00000000000E+00 -0.97067331132E+02  0.97067331132E+02  0.00000000000E+00 0. -1.
    9000006    2    1    2  501    0  0.00000000000E+00  0.00000000000E+00  0.90293266887E+03  0.10970673311E+04  0.62311260983E+03 0.  0.
         13    1    3    3    0    0  0.17048031251E+03  0.19901794694E+03  0.15478333756E+03  0.30435105018E+03  0.00000000000E+00 0. -1.
          4    1    3    3  501    0 -0.17048031251E+03 -0.19901794694E+03  0.74814933130E+03  0.79271628095E+03  0.00000000000E+00 0. -1.
<mgrwt>
<rscale>  0 0.62311261E+03</rscale>
<asrwt>0</asrwt>
<pdfrwt beam="1">0</pdfrwt>
<pdfrwt beam="2">  1        4 0.35297286E+00 0.62311261E+03</pdfrwt>
<totfact> 0.66148309E-02</totfact>
</mgrwt>
</event>
<event>
 5    1  0.2369161E-004  0.6398518E+03  0.7818608E-02  0.9826010E-01
         13   -1    0    0    0    0  0.00000000000E+00  0.00000000000E+00  0.10000000000E+04  0.10000000000E+04  0.00000000000E+00 0. -1.
          2   -1    0    0  501    0 -0.00000000000E+00 -0.00000000000E+00 -0.10235256739E+03  0.10235256739E+03  0.00000000000E+00 0. -1.
    9000006    2    1    2  501    0  0.00000000000E+00  0.00000000000E+00  0.89764743261E+03  0.11023525674E+04  0.63985175594E+03 0.  0.
         13    1    3    3    0    0 -0.17632035577E+03  0.12371973299E+03  0.85636241729E+03  0.88303569007E+03  0.00000000000E+00 0. -1.
          4    1    3    3  501    0  0.17632035577E+03 -0.12371973299E+03  0.41285015319E+02  0.21931687733E+03  0.00000000000E+00 0. -1.
<mgrwt>
<rscale>  0 0.63985176E+03</rscale>
<asrwt>0</asrwt>
<pdfrwt beam="1">0</pdfrwt>
<pdfrwt beam="2">  1        2 0.37219194E+00 0.63985176E+03</pdfrwt>
<totfact> 0.50542128E+00</totfact>
</mgrwt>
</event>
<event>
 5    1  0.2369161E-004  0.4993497E+03  0.7818608E-02  0.1013949E+00
         13   -1    0    0    0    0  0.00000000000E+00  0.00000000000E+00  0.10000000000E+04  0.10000000000E+04  0.00000000000E+00 0. -1.
          2   -1    0    0  501    0 -0.00000000000E+00 -0.00000000000E+00 -0.62337539225E+02  0.62337539225E+02  0.00000000000E+00 0. -1.
    9000006    2    1    2  501    0  0.00000000000E+00  0.00000000000E+00  0.93766246077E+03  0.10623375392E+04  0.49934973405E+03 0.  0.
         13    1    3    3    0    0 -0.19710628882E+03 -0.13177349062E+03  0.30236794580E+03  0.38424148211E+03  0.00000000000E+00 0. -1.
          2    1    3    3  501    0  0.19710628882E+03  0.13177349062E+03  0.63529451497E+03  0.67809605712E+03  0.00000000000E+00 0. -1.
<mgrwt>
<rscale>  0 0.49934973E+03</rscale>
<asrwt>0</asrwt>
<pdfrwt beam="1">0</pdfrwt>
<pdfrwt beam="2">  1        2 0.22668244E+00 0.49934973E+03</pdfrwt>
<totfact> 0.16929008E+01</totfact>
</mgrwt>
</event>
<event>
 5    1  0.2369161E-004  0.6442807E+03  0.7818608E-02  0.9817571E-01
         13   -1    0    0    0    0  0.00000000000E+00  0.00000000000E+00  0.10000000000E+04  0.10000000000E+04  0.00000000000E+00 0. -1.
          2   -1    0    0  501    0 -0.00000000000E+00 -0.00000000000E+00 -0.10377441002E+03  0.10377441002E+03  0.00000000000E+00 0. -1.
    9000006    2    1    2  501    0  0.00000000000E+00  0.00000000000E+00  0.89622558998E+03  0.11037744100E+04  0.64428071529E+03 0.  0.
         13    1    3    3    0    0 -0.25707451294E+03 -0.17632032149E+03  0.58727443586E+03  0.66488151124E+03  0.00000000000E+00 0. -1.
          2    1    3    3  501    0  0.25707451294E+03  0.17632032149E+03  0.30895115412E+03  0.43889289879E+03  0.00000000000E+00 0. -1.
<mgrwt>
<rscale>  0 0.64428072E+03</rscale>
<asrwt>0</asrwt>
<pdfrwt beam="1">0</pdfrwt>
<pdfrwt beam="2">  1        2 0.37736229E+00 0.64428072E+03</pdfrwt>
<totfact> 0.48361881E+00</totfact>
</mgrwt>
</event>
<event>
 5    1  0.2369161E-004  0.6514594E+03  0.7818608E-02  0.9804045E-01
         13   -1    0    0    0    0  0.00000000000E+00  0.00000000000E+00  0.10000000000E+04  0.10000000000E+04  0.00000000000E+00 0. -1.
          2   -1    0    0  501    0 -0.00000000000E+00 -0.00000000000E+00 -0.10609983622E+03  0.10609983622E+03  0.00000000000E+00 0. -1.
    9000006    2    1    2  501    0  0.00000000000E+00  0.00000000000E+00  0.89390016378E+03  0.11060998362E+04  0.65145939619E+03 0.  0.
         13    1    3    3    0    0 -0.25096281904E+03 -0.97206162591E+01  0.94776018864E+02  0.26843867209E+03  0.00000000000E+00 0. -1.
          2    1    3    3  501    0  0.25096281904E+03  0.97206162591E+01  0.79912414491E+03  0.83766116414E+03  0.00000000000E+00 0. -1.
<mgrwt>
<rscale>  0 0.65145940E+03</rscale>
<asrwt>0</asrwt>
<pdfrwt beam="1">0</pdfrwt>
<pdfrwt beam="2">  1        2 0.38581840E+00 0.65145940E+03</pdfrwt>
<totfact> 0.44980253E+00</totfact>
</mgrwt>
</event>
<event>
 5    1  0.2369161E-004  0.6640771E+03  0.7818608E-02  0.9780717E-01
         13   -1    0    0    0    0  0.00000000000E+00  0.00000000000E+00  0.10000000000E+04  0.10000000000E+04  0.00000000000E+00 0. -1.
          2   -1    0    0  501    0 -0.00000000000E+00 -0.00000000000E+00 -0.11024959953E+03  0.11024959953E+03  0.00000000000E+00 0. -1.
    9000006    2    1    2  501    0  0.00000000000E+00  0.00000000000E+00  0.88975040047E+03  0.11102495995E+04  0.66407710253E+03 0.  0.
         13    1    3    3    0    0  0.14029653681E+03  0.29568334584E+03  0.35122309686E+03  0.48007231020E+03  0.00000000000E+00 0. -1.
          2    1    3    3  501    0 -0.14029653681E+03 -0.29568334584E+03  0.53852730361E+03  0.63017728933E+03  0.00000000000E+00 0. -1.
<mgrwt>
<rscale>  0 0.66407710E+03</rscale>
<asrwt>0</asrwt>
<pdfrwt beam="1">0</pdfrwt>
<pdfrwt beam="2">  1        2 0.40090848E+00 0.66407710E+03</pdfrwt>
<totfact> 0.39473069E+00</totfact>
</mgrwt>
</event>
<event>
 5    1  0.2369161E-004  0.6362122E+03  0.7818608E-02  0.9833001E-01
         13   -1    0    0    0    0  0.00000000000E+00  0.00000000000E+00  0.10000000000E+04  0.10000000000E+04  0.00000000000E+00 0. -1.
          2   -1    0    0  501    0 -0.00000000000E+00 -0.00000000000E+00 -0.10119149007E+03  0.10119149007E+03  0.00000000000E+00 0. -1.
    9000006    2    1    2  501    0  0.00000000000E+00  0.00000000000E+00  0.89880850993E+03  0.11011914901E+04  0.63621219752E+03 0.  0.
         13    1    3    3    0    0  0.18199325597E+03 -0.68494647813E+02  0.88514842685E+03  0.90625647559E+03  0.00000000000E+00 0. -1.
          4    1    3    3  501    0 -0.18199325597E+03  0.68494647813E+02  0.13660083080E+02  0.19493501447E+03  0.00000000000E+00 0. -1.
<mgrwt>
<rscale>  0 0.63621220E+03</rscale>
<asrwt>0</asrwt>
<pdfrwt beam="1">0</pdfrwt>
<pdfrwt beam="2">  1        2 0.36796983E+00 0.63621220E+03</pdfrwt>
<totfact> 0.52388883E+00</totfact>
</mgrwt>
</event>
<event>
 5    1  0.2369161E-004  0.6485397E+03  0.7818608E-02  0.9809523E-01
         13   -1    0    0    0    0  0.00000000000E+00  0.00000000000E+00  0.10000000000E+04  0.10000000000E+04  0.00000000000E+00 0. -1.
          2   -1    0    0  501    0 -0.00000000000E+00 -0.00000000000E+00 -0.10515092857E+03  0.10515092857E+03  0.00000000000E+00 0. -1.
    9000006    2    1    2  501    0  0.00000000000E+00  0.00000000000E+00  0.89484907143E+03  0.11051509286E+04  0.64853967827E+03 0.  0.
         13    1    3    3    0    0  0.56587587507E+02 -0.30214601027E+03  0.62333577933E+03  0.69501212967E+03  0.00000000000E+00 0. -1.
          2    1    3    3  501    0 -0.56587587507E+02  0.30214601027E+03  0.27151329209E+03  0.41013879891E+03  0.00000000000E+00 0. -1.
<mgrwt>
<rscale>  0 0.64853968E+03</rscale>
<asrwt>0</asrwt>
<pdfrwt beam="1">0</pdfrwt>
<pdfrwt beam="2">  1        2 0.38236782E+00 0.64853968E+03</pdfrwt>
<totfact> 0.46333298E+00</totfact>
</mgrwt>
</event>
<event>
 5    1  0.2369161E-004  0.6404989E+03  0.7818608E-02  0.9824773E-01
         13   -1    0    0    0    0  0.00000000000E+00  0.00000000000E+00  0.10000000000E+04  0.10000000000E+04  0.00000000000E+00 0. -1.
          2   -1    0    0  501    0 -0.00000000000E+00 -0.00000000000E+00 -0.10255969963E+03  0.10255969963E+03  0.00000000000E+00 0. -1.
    9000006    2    1    2  501    0  0.00000000000E+00  0.00000000000E+00  0.89744030037E+03  0.11025596996E+04  0.64049886691E+03 0.  0.
         13    1    3    3    0    0  0.16045224801E+03  0.36282706344E+02  0.92171068786E+03  0.93627557417E+03  0.00000000000E+00 0. -1.
          2    1    3    3  501    0 -0.16045224801E+03 -0.36282706344E+02 -0.24270387491E+02  0.16628412546E+03  0.00000000000E+00 0. -1.
<mgrwt>
<rscale>  0 0.64049887E+03</rscale>
<asrwt>0</asrwt>
<pdfrwt beam="1">0</pdfrwt>
<pdfrwt beam="2">  1        2 0.37294515E+00 0.64049887E+03</pdfrwt>
<totfact> 0.50219011E+00</totfact>
</mgrwt>
</event>
<event>
 5    1  0.2369161E-004  0.6267356E+03  0.7818608E-02  0.9851440E-01
         13   -1    0    0    0    0  0.00000000000E+00  0.00000000000E+00  0.10000000000E+04  0.10000000000E+04  0.00000000000E+00 0. -1.
          2   -1    0    0  501    0 -0.00000000000E+00 -0.00000000000E+00 -0.98199385672E+02  0.98199385672E+02  0.00000000000E+00 0. -1.
    9000006    2    1    2  501    0  0.00000000000E+00  0.00000000000E+00  0.90180061433E+03  0.10981993857E+04  0.62673562424E+03 0.  0.
         13    1    3    3    0    0  0.26620183347E+03  0.16477875018E+03  0.42713591765E+03  0.52958525735E+03  0.00000000000E+00 0. -1.
          2    1    3    3  501    0 -0.26620183347E+03 -0.16477875018E+03  0.47466469667E+03  0.56861412832E+03  0.00000000000E+00 0. -1.
<mgrwt>
<rscale>  0 0.62673562E+03</rscale>
<asrwt>0</asrwt>
<pdfrwt beam="1">0</pdfrwt>
<pdfrwt beam="2">  1        2 0.35708943E+00 0.62673562E+03</pdfrwt>
<totfact> 0.57437731E+00</totfact>
</mgrwt>
</event>
<event>
 5    1  0.2369161E-004  0.6479600E+03  0.7818608E-02  0.9810615E-01
         13   -1    0    0    0    0  0.00000000000E+00  0.00000000000E+00  0.10000000000E+04  0.10000000000E+04  0.00000000000E+00 0. -1.
          2   -1    0    0  501    0 -0.00000000000E+00 -0.00000000000E+00 -0.10496304491E+03  0.10496304491E+03  0.00000000000E+00 0. -1.
    9000006    2    1    2  501    0  0.00000000000E+00  0.00000000000E+00  0.89503695509E+03  0.11049630449E+04  0.64796001393E+03 0.  0.
         13    1    3    3    0    0 -0.24644605759E+03 -0.19659313175E+03  0.57488617109E+03  0.65565130097E+03  0.00000000000E+00 0. -1.
          2    1    3    3  501    0  0.24644605759E+03  0.19659313175E+03  0.32015078400E+03  0.44931174394E+03  0.00000000000E+00 0. -1.
<mgrwt>
<rscale>  0 0.64796001E+03</rscale>
<asrwt>0</asrwt>
<pdfrwt beam="1">0</pdfrwt>
<pdfrwt beam="2">  1        2 0.38168460E+00 0.64796001E+03</pdfrwt>
<totfact> 0.46605543E+00</totfact>
</mgrwt>
</event>
<event>
 5    1  0.2369161E-004  0.6883638E+03  0.7818608E-02  0.9737341E-01
         13   -1    0    0    0    0  0.00000000000E+00  0.00000000000E+00  0.10000000000E+04  0.10000000000E+04  0.00000000000E+00 0. -1.
          2   -1    0    0  501    0 -0.00000000000E+00 -0.00000000000E+00 -0.11846118163E+03  0.11846118163E+03  0.00000000000E+00 0. -1.
    9000006    2    1    2  501    0  0.00000000000E+00  0.00000000000E+00  0.88153881837E+03  0.11184611816E+04  0.68836380391E+03 0.  0.
         13    1    3    3    0    0  0.13849034386E+03 -0.30990491904E+03  0.53326309415E+03  0.63213144343E+03  0.00000000000E+00 0. -1.
          4    1    3    3  501    0 -0.13849034386E+03  0.30990491904E+03  0.34827572422E+03  0.48632973821E+03  0.00000000000E+00 0. -1.
<mgrwt>
<rscale>  0 0.68836380E+03</rscale>
<asrwt>0</asrwt>
<pdfrwt beam="1">0</pdfrwt>
<pdfrwt beam="2">  1        2 0.43076884E+00 0.68836380E+03</pdfrwt>
<totfact> 0.30319442E+00</totfact>
</mgrwt>
</event>
<event>
 5    1  0.2369161E-004  0.6670457E+03  0.7818608E-02  0.9775310E-01
         13   -1    0    0    0    0  0.00000000000E+00  0.00000000000E+00  0.10000000000E+04  0.10000000000E+04  0.00000000000E+00 0. -1.
          2   -1    0    0  501    0 -0.00000000000E+00 -0.00000000000E+00 -0.11123748567E+03  0.11123748567E+03  0.00000000000E+00 0. -1.
    9000006    2    1    2  501    0  0.00000000000E+00  0.00000000000E+00  0.88876251433E+03  0.11112374857E+04  0.66704568260E+03 0.  0.
         13    1    3    3    0    0  0.18969145413E+03  0.67097354782E+02  0.88750238238E+03  0.91002493456E+03  0.00000000000E+00 0. -1.
          4    1    3    3  501    0 -0.18969145413E+03 -0.67097354782E+02  0.12601319480E+01  0.20121255111E+03  0.00000000000E+00 0. -1.
<mgrwt>
<rscale>  0 0.66704568E+03</rscale>
<asrwt>0</asrwt>
<pdfrwt beam="1">0</pdfrwt>
<pdfrwt beam="2">  1        2 0.40450080E+00 0.66704568E+03</pdfrwt>
<totfact> 0.38255011E+00</totfact>
</mgrwt>
</event>
<event>
 5    1  0.2369161E-004  0.6437927E+03  0.7818608E-02  0.9818497E-01
         13   -1    0    0    0    0  0.00000000000E+00  0.00000000000E+00  0.10000000000E+04  0.10000000000E+04  0.00000000000E+00 0. -1.
          2   -1    0    0  501    0 -0.00000000000E+00 -0.00000000000E+00 -0.10361727240E+03  0.10361727240E+03  0.00000000000E+00 0. -1.
    9000006    2    1    2  501    0  0.00000000000E+00  0.00000000000E+00  0.89638272760E+03  0.11036172724E+04  0.64379273807E+03 0.  0.
         13    1    3    3    0    0  0.10312257112E+03  0.28372998837E+03  0.25668423169E+03  0.39626224369E+03  0.00000000000E+00 0. -1.
          2    1    3    3  501    0 -0.10312257112E+03 -0.28372998837E+03  0.63969849591E+03  0.70735502871E+03  0.00000000000E+00 0. -1.
<mgrwt>
<rscale>  0 0.64379274E+03</rscale>
<asrwt>0</asrwt>
<pdfrwt beam="1">0</pdfrwt>
<pdfrwt beam="2">  1        2 0.37679088E+00 0.64379274E+03</pdfrwt>
<totfact> 0.48598527E+00</totfact>
</mgrwt>
</event>
<event>
 5    1  0.2369161E-004  0.6569148E+03  0.7818608E-02  0.9793890E-01
         13   -1    0    0    0    0  0.00000000000E+00  0.00000000000E+00  0.10000000000E+04  0.10000000000E+04  0.00000000000E+00 0. -1.
          2   -1    0    0  501    0 -0.00000000000E+00 -0.00000000000E+00 -0.10788427921E+03  0.10788427921E+03  0.00000000000E+00 0. -1.
    9000006    2    1    2  501    0  0.00000000000E+00  0.00000000000E+00  0.89211572079E+03  0.11078842792E+04  0.65691484749E+03 0.  0.
         13    1    3    3    0    0  0.18521277560E+02 -0.67350226698E+00 -0.10700173165E+03  0.10859494419E+03  0.00000000000E+00 0. -1.
          2    1    3    3  501    0 -0.18521277560E+02  0.67350226698E+00  0.99911745244E+03  0.99928933502E+03  0.00000000000E+00 0. -1.
<mgrwt>
<rscale>  0 0.65691485E+03</rscale>
<asrwt>0</asrwt>
<pdfrwt beam="1">0</pdfrwt>
<pdfrwt beam="2">  1        2 0.39230730E+00 0.65691485E+03</pdfrwt>
<totfact> 0.42532326E+00</totfact>
</mgrwt>
</event>
<event>
 5    1  0.2369161E-004  0.6376466E+03  0.7818608E-02  0.9830240E-01
         13   -1    0    0    0    0  0.00000000000E+00  0.00000000000E+00  0.10000000000E+04  0.10000000000E+04  0.00000000000E+00 0. -1.
          2   -1    0    0  501    0 -0.00000000000E+00 -0.00000000000E+00 -0.10164831249E+03  0.10164831249E+03  0.00000000000E+00 0. -1.
    9000006    2    1    2  501    0  0.00000000000E+00  0.00000000000E+00  0.89835168751E+03  0.11016483125E+04  0.63764664977E+03 0.  0.
         13    1    3    3    0    0 -0.46716692642E+02  0.26743747580E+03  0.73797762684E+03  0.78633086582E+03  0.00000000000E+00 0. -1.
          4    1    3    3  501    0  0.46716692642E+02 -0.26743747580E+03  0.16037406067E+03  0.31531744667E+03  0.00000000000E+00 0. -1.
<mgrwt>
<rscale>  0 0.63764665E+03</rscale>
<asrwt>0</asrwt>
<pdfrwt beam="1">0</pdfrwt>
<pdfrwt beam="2">  1        2 0.36963101E+00 0.63764665E+03</pdfrwt>
<totfact> 0.51655026E+00</totfact>
</mgrwt>
</event>
<event>
 5    1  0.2369161E-004  0.6496916E+03  0.7818608E-02  0.9807358E-01
         13   -1    0    0    0    0  0.00000000000E+00  0.00000000000E+00  0.10000000000E+04  0.10000000000E+04  0.00000000000E+00 0. -1.
          2   -1    0    0  501    0 -0.00000000000E+00 -0.00000000000E+00 -0.10552479534E+03  0.10552479534E+03  0.00000000000E+00 0. -1.
    9000006    2    1    2  501    0  0.00000000000E+00  0.00000000000E+00  0.89447520466E+03  0.11055247953E+04  0.64969160481E+03 0.  0.
         13    1    3    3    0    0 -0.28758908643E+03  0.12923795426E+03  0.58029978094E+03  0.66042241574E+03  0.00000000000E+00 0. -1.
          2    1    3    3  501    0  0.28758908643E+03 -0.12923795426E+03  0.31417542372E+03  0.44510237960E+03  0.00000000000E+00 0. -1.
<mgrwt>
<rscale>  0 0.64969160E+03</rscale>
<asrwt>0</asrwt>
<pdfrwt beam="1">0</pdfrwt>
<pdfrwt beam="2">  1        2 0.38372734E+00 0.64969160E+03</pdfrwt>
<totfact> 0.45795854E+00</totfact>
</mgrwt>
</event>
<event>
 5    1  0.2369161E-004  0.6421054E+03  0.7818608E-02  0.9821707E-01
         13   -1    0    0    0    0  0.00000000000E+00  0.00000000000E+00  0.10000000000E+04  0.10000000000E+04  0.00000000000E+00 0. -1.
          2   -1    0    0  501    0 -0.00000000000E+00 -0.00000000000E+00 -0.10307483200E+03  0.10307483200E+03  0.00000000000E+00 0. -1.
    9000006    2    1    2  501    0  0.00000000000E+00  0.00000000000E+00  0.89692516800E+03  0.11030748320E+04  0.64210538700E+03 0.  0.
         13    1    3    3    0    0  0.54080113399E+02 -0.27863584133E+03  0.19070703152E+03  0.34195286607E+03  0.00000000000E+00 0. -1.
          4    1    3    3  501    0 -0.54080113399E+02  0.27863584133E+03  0.70621813648E+03  0.76112196594E+03  0.00000000000E+00 0. -1.
<mgrwt>
<rscale>  0 0.64210539E+03</rscale>
<asrwt>0</asrwt>
<pdfrwt beam="1">0</pdfrwt>
<pdfrwt beam="2">  1        2 0.37481836E+00 0.64210539E+03</pdfrwt>
<totfact> 0.49423601E+00</totfact>
</mgrwt>
</event>
<event>
 5    1  0.2369161E-004  0.6472881E+03  0.7818608E-02  0.9811881E-01
         13   -1    0    0    0    0  0.00000000000E+00  0.00000000000E+00  0.10000000000E+04  0.10000000000E+04  0.00000000000E+00 0. -1.
          2   -1    0    0  501    0 -0.00000000000E+00 -0.00000000000E+00 -0.10474547613E+03  0.10474547613E+03  0.00000000000E+00 0. -1.
    9000006    2    1    2  501    0  0.00000000000E+00  0.00000000000E+00  0.89525452387E+03  0.11047454761E+04  0.64728811556E+03 0.  0.
         13    1    3    3    0    0 -0.18882583375E+03 -0.26283820540E+03  0.44332358818E+03  0.54888516244E+03  0.00000000000E+00 0. -1.
          2    1    3    3  501    0  0.18882583375E+03  0.26283820540E+03  0.45193093569E+03  0.55586031370E+03  0.00000000000E+00 0. -1.
<mgrwt>
<rscale>  0 0.64728812E+03</rscale>
<asrwt>0</asrwt>
<pdfrwt beam="1">0</pdfrwt>
<pdfrwt beam="2">  1        2 0.38089344E+00 0.64728812E+03</pdfrwt>
<totfact> 0.46922618E+00</totfact>
</mgrwt>
</event>
<event>
 5    1  0.2369161E-004  0.6371221E+03  0.7818608E-02  0.9831248E-01
         13   -1    0    0    0    0  0.00000000000E+00  0.00000000000E+00  0.10000000000E+04  0.10000000000E+04  0.00000000000E+00 0. -1.
          2   -1    0    0  501    0 -0.00000000000E+00 -0.00000000000E+00 -0.10148114003E+03  0.10148114003E+03  0.00000000000E+00 0. -1.
    9000006    2    1    2  501    0  0.00000000000E+00  0.00000000000E+00  0.89851885997E+03  0.11014811400E+04  0.63712209201E+03 0.  0.
         13    1    3    3    0    0 -0.10704065111E+03 -0.29726112805E+03  0.51968197661E+03  0.60818684305E+03  0.00000000000E+00 0. -1.
          2    1    3    3  501    0  0.10704065111E+03  0.29726112805E+03  0.37883688336E+03  0.49329429698E+03  0.00000000000E+00 0. -1.
<mgrwt>
<rscale>  0 0.63712209E+03</rscale>
<asrwt>0</asrwt>
<pdfrwt beam="1">0</pdfrwt>
<pdfrwt beam="2">  1        2 0.36902311E+00 0.63712209E+03</pdfrwt>
<totfact> 0.51922477E+00</totfact>
</mgrwt>
</event>
<event>
 5    1  0.2369161E-004  0.6571337E+03  0.7818608E-02  0.9793485E-01
         13   -1    0    0    0    0  0.00000000000E+00  0.00000000000E+00  0.10000000000E+04  0.10000000000E+04  0.00000000000E+00 0. -1.
          2   -1    0    0  501    0 -0.00000000000E+00 -0.00000000000E+00 -0.10795618427E+03  0.10795618427E+03  0.00000000000E+00 0. -1.
    9000006    2    1    2  501    0  0.00000000000E+00  0.00000000000E+00  0.89204381573E+03  0.11079561843E+04  0.65713372845E+03 0.  0.
         13    1    3    3    0    0  0.55660682047E+02 -0.62075957456E+02 -0.89823493032E+02  0.12255527700E+03  0.00000000000E+00 0. -1.
          4    1    3    3  501    0 -0.55660682047E+02  0.62075957456E+02  0.98186730877E+03  0.98540090727E+03  0.00000000000E+00 0. -1.
<mgrwt>
<rscale>  0 0.65713373E+03</rscale>
<asrwt>0</asrwt>
<pdfrwt beam="1">0</pdfrwt>
<pdfrwt beam="2">  1        2 0.39256877E+00 0.65713373E+03</pdfrwt>
<totfact> 0.42436259E+00</totfact>
</mgrwt>
</event>
<event>
 5    1  0.2369161E-004  0.6418770E+03  0.7818608E-02  0.9822142E-01
         13   -1    0    0    0    0  0.00000000000E+00  0.00000000000E+00  0.10000000000E+04  0.10000000000E+04  0.00000000000E+00 0. -1.
          2   -1    0    0  501    0 -0.00000000000E+00 -0.00000000000E+00 -0.10300151416E+03  0.10300151416E+03  0.00000000000E+00 0. -1.
    9000006    2    1    2  501    0  0.00000000000E+00  0.00000000000E+00  0.89699848584E+03  0.11030015142E+04  0.64187697935E+03 0.  0.
         13    1    3    3    0    0 -0.14124341789E+03  0.70389512124E+02 -0.31722521405E+02  0.16096802440E+03  0.00000000000E+00 0. -1.
          2    1    3    3  501    0  0.14124341789E+03 -0.70389512124E+02  0.92872100725E+03  0.94203348976E+03  0.00000000000E+00 0. -1.
<mgrwt>
<rscale>  0 0.64187698E+03</rscale>
<asrwt>0</asrwt>
<pdfrwt beam="1">0</pdfrwt>
<pdfrwt beam="2">  1        2 0.37455175E+00 0.64187698E+03</pdfrwt>
<totfact> 0.49536103E+00</totfact>
</mgrwt>
</event>
<event>
 5    1  0.2369161E-004  0.6424086E+03  0.7818608E-02  0.9821129E-01
         13   -1    0    0    0    0  0.00000000000E+00  0.00000000000E+00  0.10000000000E+04  0.10000000000E+04  0.00000000000E+00 0. -1.
          2   -1    0    0  501    0 -0.00000000000E+00 -0.00000000000E+00 -0.10317219954E+03  0.10317219954E+03  0.00000000000E+00 0. -1.
    9000006    2    1    2  501    0  0.00000000000E+00  0.00000000000E+00  0.89682780046E+03  0.11031721995E+04  0.64240859130E+03 0.  0.
         13    1    3    3    0    0 -0.25620673583E+03  0.19331789972E+03  0.47003329150E+03  0.56916166153E+03  0.00000000000E+00 0. -1.
          2    1    3    3  501    0  0.25620673583E+03 -0.19331789972E+03  0.42679450895E+03  0.53401053801E+03  0.00000000000E+00 0. -1.
<mgrwt>
<rscale>  0 0.64240859E+03</rscale>
<asrwt>0</asrwt>
<pdfrwt beam="1">0</pdfrwt>
<pdfrwt beam="2">  1        2 0.37517243E+00 0.64240859E+03</pdfrwt>
<totfact> 0.49274557E+00</totfact>
</mgrwt>
</event>
<event>
 5    1  0.2369161E-004  0.6506614E+03  0.7818608E-02  0.9805539E-01
         13   -1    0    0    0    0  0.00000000000E+00  0.00000000000E+00  0.10000000000E+04  0.10000000000E+04  0.00000000000E+00 0. -1.
          2   -1    0    0  501    0 -0.00000000000E+00 -0.00000000000E+00 -0.10584007083E+03  0.10584007083E+03  0.00000000000E+00 0. -1.
    9000006    2    1    2  501    0  0.00000000000E+00  0.00000000000E+00  0.89415992917E+03  0.11058400708E+04  0.65066141988E+03 0.  0.
         13    1    3    3    0    0 -0.32444749111E+03 -0.23950597384E+02  0.44795524605E+03  0.55362777031E+03  0.00000000000E+00 0. -1.
          2    1    3    3  501    0  0.32444749111E+03  0.23950597384E+02  0.44620468312E+03  0.55221230052E+03  0.00000000000E+00 0. -1.
<mgrwt>
<rscale>  0 0.65066142E+03</rscale>
<asrwt>0</asrwt>
<pdfrwt beam="1">0</pdfrwt>
<pdfrwt beam="2">  1        2 0.38487380E+00 0.65066142E+03</pdfrwt>
<totfact> 0.45347042E+00</totfact>
</mgrwt>
</event>
<event>
 5    1  0.2369161E-004  0.6251533E+03  0.7818608E-02  0.9854553E-01
         13   -1    0    0    0    0  0.00000000000E+00  0.00000000000E+00  0.10000000000E+04  0.10000000000E+04  0.00000000000E+00 0. -1.
          2   -1    0    0  501    0 -0.00000000000E+00 -0.00000000000E+00 -0.97704146583E+02  0.97704146583E+02  0.00000000000E+00 0. -1.
    9000006    2    1    2  501    0  0.00000000000E+00  0.00000000000E+00  0.90229585342E+03  0.10977041466E+04  0.62515325028E+03 0.  0.
         13    1    3    3    0    0 -0.20061546941E+03  0.12677395625E+03  0.93936581105E+02  0.25522986467E+03  0.00000000000E+00 0. -1.
          4    1    3    3  501    0  0.20061546941E+03 -0.12677395625E+03  0.80835927231E+03  0.84247428191E+03  0.00000000000E+00 0. -1.
<mgrwt>
<rscale>  0 0.62515325E+03</rscale>
<asrwt>0</asrwt>
<pdfrwt beam="1">0</pdfrwt>
<pdfrwt beam="2">  1        2 0.35528855E+00 0.62515325E+03</pdfrwt>
<totfact> 0.58315581E+00</totfact>
</mgrwt>
</event>
<event>
 5    1  0.2369161E-004  0.6496788E+03  0.7818608E-02  0.9807382E-01
         13   -1    0    0    0    0  0.00000000000E+00  0.00000000000E+00  0.10000000000E+04  0.10000000000E+04  0.00000000000E+00 0. -1.
          2   -1    0    0  501    0 -0.00000000000E+00 -0.00000000000E+00 -0.10552064016E+03  0.10552064016E+03  0.00000000000E+00 0. -1.
    9000006    2    1    2  501    0  0.00000000000E+00  0.00000000000E+00  0.89447935984E+03  0.11055206402E+04  0.64967881346E+03 0.  0.
         13    1    3    3    0    0 -0.19250672359E+03 -0.25879404790E+03  0.51286753590E+03  0.60585997329E+03  0.00000000000E+00 0. -1.
          4    1    3    3  501    0  0.19250672359E+03  0.25879404790E+03  0.38161182394E+03  0.49966066687E+03  0.00000000000E+00 0. -1.
<mgrwt>
<rscale>  0 0.64967881E+03</rscale>
<asrwt>0</asrwt>
<pdfrwt beam="1">0</pdfrwt>
<pdfrwt beam="2">  1        2 0.38371223E+00 0.64967881E+03</pdfrwt>
<totfact> 0.45801796E+00</totfact>
</mgrwt>
</event>
<event>
 5    1  0.2369161E-004  0.6477366E+03  0.7818608E-02  0.9811036E-01
         13   -1    0    0    0    0  0.00000000000E+00  0.00000000000E+00  0.10000000000E+04  0.10000000000E+04  0.00000000000E+00 0. -1.
          2   -1    0    0  501    0 -0.00000000000E+00 -0.00000000000E+00 -0.10489067115E+03  0.10489067115E+03  0.00000000000E+00 0. -1.
    9000006    2    1    2  501    0  0.00000000000E+00  0.00000000000E+00  0.89510932885E+03  0.11048906712E+04  0.64773658582E+03 0.  0.
         13    1    3    3    0    0  0.79431197086E+02  0.17058487984E+03 -0.20776526087E+01  0.18818297728E+03  0.00000000000E+00 0. -1.
          2    1    3    3  501    0 -0.79431197086E+02 -0.17058487984E+03  0.89718698146E+03  0.91670769387E+03  0.00000000000E+00 0. -1.
<mgrwt>
<rscale>  0 0.64773659E+03</rscale>
<asrwt>0</asrwt>
<pdfrwt beam="1">0</pdfrwt>
<pdfrwt beam="2">  1        2 0.38142143E+00 0.64773659E+03</pdfrwt>
<totfact> 0.46710800E+00</totfact>
</mgrwt>
</event>
<event>
 5    1  0.2369161E-004  0.6457514E+03  0.7818608E-02  0.9814784E-01
         13   -1    0    0    0    0  0.00000000000E+00  0.00000000000E+00  0.10000000000E+04  0.10000000000E+04  0.00000000000E+00 0. -1.
          2   -1    0    0  501    0 -0.00000000000E+00 -0.00000000000E+00 -0.10424871528E+03  0.10424871528E+03  0.00000000000E+00 0. -1.
    9000006    2    1    2  501    0  0.00000000000E+00  0.00000000000E+00  0.89575128472E+03  0.11042487153E+04  0.64575139264E+03 0.  0.
         13    1    3    3    0    0 -0.10074603414E+03  0.94169772114E+02 -0.51353993123E+02  0.14715618229E+03  0.00000000000E+00 0. -1.
          2    1    3    3  501    0  0.10074603414E+03 -0.94169772114E+02  0.94710527785E+03  0.95709253299E+03  0.00000000000E+00 0. -1.
<mgrwt>
<rscale>  0 0.64575139E+03</rscale>
<asrwt>0</asrwt>
<pdfrwt beam="1">0</pdfrwt>
<pdfrwt beam="2">  1        2 0.37908704E+00 0.64575139E+03</pdfrwt>
<totfact> 0.47653943E+00</totfact>
</mgrwt>
</event>
<event>
 5    1  0.2369161E-004  0.6554913E+03  0.7818608E-02  0.9796529E-01
         13   -1    0    0    0    0  0.00000000000E+00  0.00000000000E+00  0.10000000000E+04  0.10000000000E+04  0.00000000000E+00 0. -1.
          2   -1    0    0  501    0 -0.00000000000E+00 -0.00000000000E+00 -0.10741722398E+03  0.10741722398E+03  0.00000000000E+00 0. -1.
    9000006    2    1    2  501    0  0.00000000000E+00  0.00000000000E+00  0.89258277602E+03  0.11074172240E+04  0.65549133931E+03 0.  0.
         13    1    3    3    0    0 -0.84251613287E+02 -0.18462861364E+03  0.88107734855E+03  0.90414786038E+03  0.00000000000E+00 0. -1.
          2    1    3    3  501    0  0.84251613287E+02  0.18462861364E+03  0.11505427474E+02  0.20326936359E+03  0.00000000000E+00 0. -1.
<mgrwt>
<rscale>  0 0.65549134E+03</rscale>
<asrwt>0</asrwt>
<pdfrwt beam="1">0</pdfrwt>
<pdfrwt beam="2">  1        2 0.39060891E+00 0.65549134E+03</pdfrwt>
<totfact> 0.43161119E+00</totfact>
</mgrwt>
</event>
<event>
 5    1  0.2369161E-004  0.6571955E+03  0.7818608E-02  0.9793370E-01
         13   -1    0    0    0    0  0.00000000000E+00  0.00000000000E+00  0.10000000000E+04  0.10000000000E+04  0.00000000000E+00 0. -1.
          2   -1    0    0  501    0 -0.00000000000E+00 -0.00000000000E+00 -0.10797646851E+03  0.10797646851E+03  0.00000000000E+00 0. -1.
    9000006    2    1    2  501    0  0.00000000000E+00  0.00000000000E+00  0.89202353149E+03  0.11079764685E+04  0.65719546105E+03 0.  0.
         13    1    3    3    0    0  0.51533194092E+02  0.66258038773E+02  0.98162038982E+03  0.98520271391E+03  0.00000000000E+00 0. -1.
          4    1    3    3  501    0 -0.51533194092E+02 -0.66258038773E+02 -0.89596858324E+02  0.12277375459E+03  0.00000000000E+00 0. -1.
<mgrwt>
<rscale>  0 0.65719546E+03</rscale>
<asrwt>0</asrwt>
<pdfrwt beam="1">0</pdfrwt>
<pdfrwt beam="2">  1        2 0.39264253E+00 0.65719546E+03</pdfrwt>
<totfact> 0.42409194E+00</totfact>
</mgrwt>
</event>
<event>
 5    1  0.2369161E-004  0.6479303E+03  0.7818608E-02  0.9810671E-01
         13   -1    0    0    0    0  0.00000000000E+00  0.00000000000E+00  0.10000000000E+04  0.10000000000E+04  0.00000000000E+00 0. -1.
          2   -1    0    0  501    0 -0.00000000000E+00 -0.00000000000E+00 -0.10495341779E+03  0.10495341779E+03  0.00000000000E+00 0. -1.
    9000006    2    1    2  501    0  0.00000000000E+00  0.00000000000E+00  0.89504658221E+03  0.11049534178E+04  0.64793029806E+03 0.  0.
         13    1    3    3    0    0 -0.29037444096E+02  0.30544113807E+03  0.62488020898E+03  0.69614132011E+03  0.00000000000E+00 0. -1.
          4    1    3    3  501    0  0.29037444096E+02 -0.30544113807E+03  0.27016637323E+03  0.40881209768E+03  0.00000000000E+00 0. -1.
<mgrwt>
<rscale>  0 0.64793030E+03</rscale>
<asrwt>0</asrwt>
<pdfrwt beam="1">0</pdfrwt>
<pdfrwt beam="2">  1        2 0.38164960E+00 0.64793030E+03</pdfrwt>
<totfact> 0.46619531E+00</totfact>
</mgrwt>
</event>
<event>
 5    1  0.2369161E-004  0.6243370E+03  0.7818608E-02  0.9856163E-01
         13   -1    0    0    0    0  0.00000000000E+00  0.00000000000E+00  0.10000000000E+04  0.10000000000E+04  0.00000000000E+00 0. -1.
          2   -1    0    0  501    0 -0.00000000000E+00 -0.00000000000E+00 -0.97449163050E+02  0.97449163050E+02  0.00000000000E+00 0. -1.
    9000006    2    1    2  501    0  0.00000000000E+00  0.00000000000E+00  0.90255083695E+03  0.10974491630E+04  0.62433697007E+03 0.  0.
         13    1    3    3    0    0  0.18548874404E+03  0.55068022273E+02  0.88188069796E+03  0.90285775551E+03  0.00000000000E+00 0. -1.
          2    1    3    3  501    0 -0.18548874404E+03 -0.55068022273E+02  0.20670138992E+02  0.19459140754E+03  0.00000000000E+00 0. -1.
<mgrwt>
<rscale>  0 0.62433697E+03</rscale>
<asrwt>0</asrwt>
<pdfrwt beam="1">0</pdfrwt>
<pdfrwt beam="2">  1        2 0.35436134E+00 0.62433697E+03</pdfrwt>
<totfact> 0.58772395E+00</totfact>
</mgrwt>
</event>
<event>
 5    1  0.2369161E-004  0.6471631E+03  0.7818608E-02  0.9812117E-01
         13   -1    0    0    0    0  0.00000000000E+00  0.00000000000E+00  0.10000000000E+04  0.10000000000E+04  0.00000000000E+00 0. -1.
          2   -1    0    0  501    0 -0.00000000000E+00 -0.00000000000E+00 -0.10470500603E+03  0.10470500603E+03  0.00000000000E+00 0. -1.
    9000006    2    1    2  501    0  0.00000000000E+00  0.00000000000E+00  0.89529499397E+03  0.11047050060E+04  0.64716305837E+03 0.  0.
         13    1    3    3    0    0 -0.27602660872E+03  0.16749015384E+03  0.41098219701E+03  0.52263754803E+03  0.00000000000E+00 0. -1.
          2    1    3    3  501    0  0.27602660872E+03 -0.16749015384E+03  0.48431279697E+03  0.58206745800E+03  0.00000000000E+00 0. -1.
<mgrwt>
<rscale>  0 0.64716306E+03</rscale>
<asrwt>0</asrwt>
<pdfrwt beam="1">0</pdfrwt>
<pdfrwt beam="2">  1        2 0.38074628E+00 0.64716306E+03</pdfrwt>
<totfact> 0.46981813E+00</totfact>
</mgrwt>
</event>
<event>
 5    1  0.2369161E-004  0.6523682E+03  0.7818608E-02  0.9802346E-01
         13   -1    0    0    0    0  0.00000000000E+00  0.00000000000E+00  0.10000000000E+04  0.10000000000E+04  0.00000000000E+00 0. -1.
          2   -1    0    0  501    0 -0.00000000000E+00 -0.00000000000E+00 -0.10639606246E+03  0.10639606246E+03  0.00000000000E+00 0. -1.
    9000006    2    1    2  501    0  0.00000000000E+00  0.00000000000E+00  0.89360393754E+03  0.11063960625E+04  0.65236818580E+03 0.  0.
         13    1    3    3    0    0 -0.42118103420E+02 -0.23618382432E+03  0.71999284951E+02  0.25048079875E+03  0.00000000000E+00 0. -1.
          4    1    3    3  501    0  0.42118103420E+02  0.23618382432E+03  0.82160465259E+03  0.85591526372E+03  0.00000000000E+00 0. -1.
<mgrwt>
<rscale>  0 0.65236819E+03</rscale>
<asrwt>0</asrwt>
<pdfrwt beam="1">0</pdfrwt>
<pdfrwt beam="2">  1        2 0.38689559E+00 0.65236819E+03</pdfrwt>
<totfact> 0.44565263E+00</totfact>
</mgrwt>
</event>
<event>
 5    1  0.2369161E-004  0.6474509E+03  0.7818608E-02  0.9811574E-01
         13   -1    0    0    0    0  0.00000000000E+00  0.00000000000E+00  0.10000000000E+04  0.10000000000E+04  0.00000000000E+00 0. -1.
          2   -1    0    0  501    0 -0.00000000000E+00 -0.00000000000E+00 -0.10479816455E+03  0.10479816455E+03  0.00000000000E+00 0. -1.
    9000006    2    1    2  501    0  0.00000000000E+00  0.00000000000E+00  0.89520183545E+03  0.11047981646E+04  0.64745089251E+03 0.  0.
         13    1    3    3    0    0 -0.46479287698E+02  0.92524378661E+01  0.99404870322E+03  0.99517775104E+03  0.00000000000E+00 0. -1.
          4    1    3    3  501    0  0.46479287698E+02 -0.92524378661E+01 -0.98846867772E+02  0.10962041352E+03  0.00000000000E+00 0. -1.
<mgrwt>
<rscale>  0 0.64745089E+03</rscale>
<asrwt>0</asrwt>
<pdfrwt beam="1">0</pdfrwt>
<pdfrwt beam="2">  1        2 0.38108504E+00 0.64745089E+03</pdfrwt>
<totfact> 0.46845652E+00</totfact>
</mgrwt>
</event>
